FOO
138240
    1MOL0     O    1   5.869   4.883   5.418  0.1594 -0.5521 -0.2600
    1MOL0     C    2   5.921   4.853   5.523  0.0096 -0.9154  0.8990
    1MOL0     O    3   5.878   4.902   5.643 -0.8742 -0.6615 -0.6620
    1MOL0     C    4   5.801   5.018   5.646 -0.1128 -1.0840  0.5693
    1MOL0     C    5   5.706   5.036   5.744 -0.2926  0.0513 -1.0598
    1MOL0     C    6   5.630   5.155   5.750  0.3889 -0.2989  0.5343
    1MOL0     C    7   5.666   5.258   5.668  0.2284  0.1341  0.5766
    1MOL0     O    8   5.584   5.368   5.648 -0.6183 -0.3239 -0.4857
    1MOL0     C    9   5.516   5.427   5.763  0.0984 -0.5783  1.4034
    1MOL0     C   10   5.381   5.477   5.719  0.1627  0.4954  0.5253
    1MOL0     C   11   5.327   5.565   5.833  0.3644  0.6889 -0.7431
    1MOL0     C   12   5.193   5.615   5.798  0.0802  0.5318 -0.8723
    1MOL0     C   13   5.114   5.671   5.916  0.6568  0.1366 -0.1078
    1MOL0     C   14   5.184   5.780   5.999 -0.2153  0.1578  0.2464
    1MOL0     C   15   5.196   5.915   5.920  0.5545  0.7301 -0.5619
    1MOL0     C   16   5.227   6.024   6.022  0.4698  0.0105  0.0408
    1MOL0     N   17   5.357   6.028   6.080  0.1830 -1.0085  0.2565
    1MOL0     C   18   5.472   6.070   6.028 -0.9272 -0.2252 -0.1184
    1MOL0     C   19   5.568   6.058   6.127  0.0479  0.0383  0.7203
    1MOL0     C   20   5.708   6.099   6.096 -0.5351  0.1648  0.3669
    1MOL0     C   21   5.753   6.189   6.213 -0.6967 -0.4768 -0.0992
    1MOL0     C   22   5.879   6.262   6.170  0.3001 -0.6835  0.3193
    1MOL0     C   23   5.925   6.359   6.280  0.0750  0.5200 -0.0806
    1MOL0     O   24   5.830   6.464   6.308  0.3537 -0.0110 -0.1567
    1MOL0     C   25   5.819   6.571   6.222  0.2992 -0.0861 -1.2140
    1MOL0     C   26   5.896   6.596   6.117 -0.3910  0.4109  0.1598
    1MOL0     C   27   5.884   6.719   6.054 -0.0669  0.2516  0.5352
    1MOL0     C   28   5.952   6.736   5.920 -0.2646  0.3607  0.5314
    1MOL0     C   29   5.797   6.818   6.106 -0.3786 -0.3189  0.0128
    1MOL0     C   30   5.802   6.954   6.054 -0.7546 -1.3413  0.4003
    1MOL0     O   31   5.825   7.060   6.145  0.4755 -0.4162  0.6731
    1MOL0     C   32   5.858   7.182   6.093 -0.1738  0.5869  0.0740
    1MOL0     C   33   5.754   7.276   6.088  0.8299 -0.0821 -0.1996
    1MOL0     C   34   5.768   7.398   6.024 -0.3315  1.0376 -0.6296
    1MOL0     C   35   5.894   7.435   5.969  0.9646  0.5658  0.4791
    1MOL0     O   36   5.910   7.566   5.938 -0.6333 -0.2435 -0.6214
    1MOL0     C   37   6.003   7.591   5.830 -1.1005  0.7209  0.3565
    1MOL0     C   38   6.153   7.609   5.874  0.5084  0.3686  0.0583
    1MOL0     C   39   6.250   7.591   5.754 -0.1164 -0.1152  0.0768
    1MOL0     C   40   6.394   7.574   5.808 -0.2801  0.7129  0.3557
    1MOL0     C   41   6.488   7.567   5.685 -0.2007  0.3444 -0.2613
    1MOL0     C   42   6.630   7.538   5.733 -0.9995  0.6393  0.0968
    1MOL0     C   43   6.728   7.538   5.618  0.6707 -0.7941  0.3111
    1MOL0     C   44   6.867   7.494   5.663  0.7797 -0.6510  0.5493
    1MOL0    Cl   45   6.947   7.419   5.520 -0.0083  0.6343 -0.1512
    1MOL0     C   46   5.996   7.347   5.971 -0.6082  0.6407  0.6857
    1MOL0     C   47   5.973   7.212   6.018  0.3123 -0.4432 -0.2514
    1MOL0     O   48   5.796   6.974   5.936  0.7081  0.2804  0.0070
    1MOL0     C   49   5.717   6.785   6.221  0.9905  0.1715  0.4484
    1MOL0     C   50   5.738   6.664   6.281 -0.1821  0.3061  0.3372
    1MOL0     N   51   5.512   5.994   6.236  0.1654 -0.2501  0.1417
    1MOL0     N   52   5.387   5.982   6.206  0.7945  0.3814  0.0883
    1MOL0     C   53   5.759   5.238   5.569  0.0016  0.2169 -0.1731
    1MOL0     C   54   5.837   5.127   5.559  0.2567  0.2780  0.0869
    1MOL0     C   55   6.015   4.751   5.536 -0.8723 -0.1104  1.0946
    1MOL0     C   56   6.034   4.644   5.438 -0.7536 -0.5501 -0.0667
    1MOL0     C   57   6.143   4.556   5.439 -0.0167  0.2403 -0.4985
    1MOL0     C   58   6.234   4.571   5.547  1.1093  0.1744  0.5003
    1MOL0     O   59   6.337   4.481   5.552 -0.9687 -0.5162  0.3862
    1MOL0     C   60   6.308   4.347   5.557 -0.3127  0.3711  0.0349
    1MOL0     C   61   6.345   4.292   5.694  0.0755 -0.9678 -0.2676
    1MOL0     C   62   6.414   4.158   5.677  0.1942 -0.4783 -0.0376
    1MOL0     C   63   6.406   4.077   5.809 -0.5025  0.2343  0.1207
    1MOL0     C   64   6.474   4.140   5.922  0.3163 -0.1572  0.0820
    1MOL0     C   65   6.539   4.196   6.007  0.1169  0.4486 -0.1588
    1MOL0     C   66   6.213   4.661   5.649 -0.3814  0.6571 -0.6052
    1MOL0     C   67   6.105   4.754   5.637  0.0617 -0.6531  0.9181
    1MOL0     H   68   5.689   4.952   5.812 -2.1460  1.5850  0.5044
    1MOL0     H   69   5.539   5.163   5.810 -0.1380 -0.1072 -0.2697
    1MOL0     H   70   5.513   5.360   5.850 -0.4665 -1.3301  0.8132
    1MOL0     H   71   5.561   5.521   5.797 -0.2385 -0.5962  1.9197
    1MOL0     H   72   5.381   5.526   5.621 -5.8247  0.3142  0.1177
    1MOL0     H   73   5.323   5.387   5.696  1.2064  0.3770 -2.0534
    1MOL0     H   74   5.311   5.501   5.920 -0.1022  1.4359 -0.2681
    1MOL0     H   75   5.397   5.642   5.865  0.6689  0.7727 -1.5990
    1MOL0     H   76   5.194   5.691   5.719  2.4979  2.5232  0.9278
    1MOL0     H   77   5.135   5.533   5.754  1.2751 -0.6369 -0.3456
    1MOL0     H   78   5.022   5.714   5.876  0.0439 -1.4389 -0.4425
    1MOL0     H   79   5.086   5.592   5.987  0.1089 -0.6639 -1.1869
    1MOL0     H   80   5.133   5.789   6.095  0.4514 -3.9143  1.1787
    1MOL0     H   81   5.287   5.751   6.023 -0.1703  1.0660  1.2241
    1MOL0     H   82   5.261   5.921   5.833 -2.3061  0.8051 -2.8524
    1MOL0     H   83   5.097   5.938   5.879  0.7386 -0.5594 -1.7972
    1MOL0     H   84   5.160   6.023   6.109  1.2221 -2.0775  0.6382
    1MOL0     H   85   5.197   6.117   5.972  0.8579 -0.3790 -0.9309
    1MOL0     H   86   5.485   6.124   5.934 -0.5105  1.8735  1.0860
    1MOL0     H   87   5.768   6.009   6.082 -0.2831  0.6012 -1.7296
    1MOL0     H   88   5.702   6.162   6.007  1.6624 -1.4779 -1.0537
    1MOL0     H   89   5.771   6.126   6.301  0.3460 -1.3851 -0.9215
    1MOL0     H   90   5.681   6.267   6.238 -2.0293 -1.5645 -0.4364
    1MOL0     H   91   5.856   6.320   6.080 -0.8714 -0.6480  0.6323
    1MOL0     H   92   5.960   6.190   6.161 -1.5824 -2.9411  0.5190
    1MOL0     H   93   6.020   6.409   6.258 -1.2736  3.4970  0.2795
    1MOL0     H   94   5.935   6.310   6.376 -0.7124  1.9585  0.7777
    1MOL0     H   95   5.954   6.521   6.065 -1.5328  0.6605 -1.5574
    1MOL0     H   96   5.881   6.727   5.837  0.6112  2.8683 -0.6076
    1MOL0     H   97   6.015   6.823   5.899 -2.3211  2.0192  0.8326
    1MOL0     H   98   6.021   6.651   5.912 -0.6157  0.2308 -2.9961
    1MOL0     H   99   5.663   7.259   6.145  0.7549  0.5344 -0.1356
    1MOL0     H  100   5.688   7.472   6.022 -0.4257  0.9277 -1.2370
    1MOL0     H  101   5.998   7.516   5.750 -2.9045  2.8047 -1.6176
    1MOL0     H  102   5.973   7.683   5.779 -1.5670  0.1538 -0.4213
    1MOL0     H  103   6.156   7.712   5.911  1.3022  0.5646 -0.5340
    1MOL0     H  104   6.190   7.544   5.954 -0.5815 -2.4154 -1.5642
    1MOL0     H  105   6.251   7.672   5.681 -0.2112  0.5724  0.8239
    1MOL0     H  106   6.227   7.498   5.700 -1.0034  0.2480 -0.1909
    1MOL0     H  107   6.424   7.661   5.866 -0.4759  1.6171 -0.8608
    1MOL0     H  108   6.411   7.481   5.864  2.3745  0.9820  0.1444
    1MOL0     H  109   6.484   7.655   5.621  0.0585 -1.0986 -2.3440
    1MOL0     H  110   6.458   7.485   5.619 -0.7537  0.8384 -0.6338
    1MOL0     H  111   6.656   7.607   5.813  1.0854  0.9365 -0.7657
    1MOL0     H  112   6.629   7.437   5.775 -1.2110  1.0339  1.0622
    1MOL0     H  113   6.731   7.642   5.586 -2.8596  0.4555  3.2403
    1MOL0     H  114   6.692   7.472   5.538  1.3356 -0.1038 -0.5732
    1MOL0     H  115   6.859   7.420   5.742  0.4835 -0.1165  1.0231
    1MOL0     H  116   6.929   7.580   5.692 -1.7898  1.7849 -0.7167
    1MOL0     H  117   6.089   7.364   5.917 -2.6710 -0.1352 -3.5264
    1MOL0     H  118   6.045   7.136   5.991  2.4468  0.4799  2.3679
    1MOL0     H  119   5.629   6.847   6.235  1.6704  1.6346 -1.3095
    1MOL0     H  120   5.670   6.635   6.360  1.0599 -3.7059  0.1646
    1MOL0     H  121   5.776   5.304   5.484 -0.5823 -3.0293 -3.0687
    1MOL0     H  122   5.924   5.123   5.494  0.2887  2.1225 -0.0436
    1MOL0     H  123   5.968   4.621   5.355  1.3301 -3.5995 -1.0350
    1MOL0     H  124   6.158   4.499   5.348 -0.2706  3.6095 -2.8383
    1MOL0     H  125   6.205   4.319   5.531 -0.1848 -1.0521  0.9608
    1MOL0     H  126   6.362   4.303   5.473 -2.0593  0.6613 -1.2955
    1MOL0     H  127   6.263   4.297   5.767 -1.5479  0.0976 -2.0573
    1MOL0     H  128   6.415   4.358   5.745 -0.7316 -2.7861  3.5257
    1MOL0     H  129   6.518   4.161   5.645  0.7551  0.1019  1.6978
    1MOL0     H  130   6.357   4.110   5.598 -0.0241  0.2262 -0.3208
    1MOL0     H  131   6.455   3.980   5.794 -0.4654  0.1096  1.0123
    1MOL0     H  132   6.302   4.067   5.841 -0.1745 -0.2853  1.0405
    1MOL0     H  133   6.586   4.253   6.085  0.9744 -1.0497  0.4718
    1MOL0     H  134   6.288   4.654   5.727  0.3872 -3.3991 -1.4806
    1MOL0     H  135   6.093   4.825   5.719  0.0958 -0.8636  1.1056
    2MOL0     O  136   2.261   8.022   6.736  0.2838 -0.1897 -0.3939
    2MOL0     C  137   2.365   7.991   6.675  0.5419  0.6774 -0.3212
    2MOL0     O  138   2.380   7.931   6.553 -0.2271  0.0114  0.0444
    2MOL0     C  139   2.276   7.912   6.467 -0.8025 -0.1683 -0.2148
    2MOL0     C  140   2.140   7.896   6.503  0.1091  0.0547  0.4591
    2MOL0     C  141   2.036   7.879   6.412 -0.3766 -0.9568 -0.4070
    2MOL0     C  142   2.069   7.886   6.278  0.8548  0.0128 -0.3956
    2MOL0     O  143   1.970   7.883   6.179 -0.1800  0.3218  0.4102
    2MOL0     C  144   1.840   7.821   6.215 -0.0826 -0.3224 -1.0437
    2MOL0     C  145   1.766   7.769   6.088  0.5408  0.6878 -0.4657
    2MOL0     C  146   1.621   7.743   6.124  0.3280  0.1773 -0.2808
    2MOL0     C  147   1.517   7.767   6.013 -0.1909  0.0265 -0.0165
    2MOL0     C  148   1.469   7.905   6.024  0.3000 -0.1745 -1.2224
    2MOL0     C  149   1.387   7.951   5.901 -0.4211 -0.4610 -0.4488
    2MOL0     C  150   1.260   7.877   5.885 -0.5021  0.0083 -0.0840
    2MOL0     C  151   1.170   7.952   5.792  0.5646 -0.4100  0.8486
    2MOL0     N  152   1.058   7.863   5.765  0.1806  1.0050 -0.1614
    2MOL0     C  153   0.931   7.872   5.819  0.7177 -0.3380 -0.1883
    2MOL0     C  154   0.863   7.764   5.771  0.7282  0.1453 -0.2538
    2MOL0     C  155   0.718   7.747   5.793  1.5731 -0.8098  0.1753
    2MOL0     C  156   0.688   7.612   5.856 -0.8428 -0.2391 -0.1589
    2MOL0     C  157   0.556   7.571   5.905  0.5477 -0.2886  0.7093
    2MOL0     C  158   0.472   7.517   5.790  0.5402  1.0336 -0.2758
    2MOL0     O  159   0.341   7.507   5.840 -0.2323 -0.0807  0.0759
    2MOL0     C  160   0.255   7.509   5.738  0.7048 -0.4319 -0.5067
    2MOL0     C  161   0.267   7.442   5.614  0.4191  0.0858 -1.2439
    2MOL0     C  162   0.158   7.439   5.524 -0.5485  0.5523  0.4630
    2MOL0     C  163   0.193   7.371   5.392 -0.0298  0.7697  0.1234
    2MOL0     C  164   0.027   7.479   5.564  0.9658 -0.2779  0.5707
    2MOL0     C  165  -0.095   7.453   5.482 -0.0531 -0.5041 -0.8413
    2MOL0     O  166  -0.204   7.464   5.557 -0.9202  0.3716 -0.3874
    2MOL0     C  167  -0.322   7.474   5.508  0.6595  0.6731  0.3196
    2MOL0     C  168  -0.364   7.404   5.390  0.6465  0.1360 -0.3757
    2MOL0     C  169  -0.490   7.438   5.334 -0.2752 -0.4409 -0.0730
    2MOL0     C  170  -0.577   7.529   5.394 -0.3291 -0.7760 -0.2191
    2MOL0     O  171  -0.705   7.555   5.352 -0.5515  0.1766  0.2651
    2MOL0     C  172  -0.798   7.444   5.380 -0.0875 -0.8291 -0.5064
    2MOL0     C  173  -0.927   7.495   5.318  0.4117 -0.6526 -0.5122
    2MOL0     C  174  -1.053   7.441   5.377  1.0946  0.3619 -1.2460
    2MOL0     C  175  -1.182   7.468   5.295  0.5444 -0.0182 -0.4286
    2MOL0     C  176  -1.313   7.428   5.358  0.0445  0.8837  0.6651
    2MOL0     C  177  -1.297   7.282   5.414 -1.0199  0.3950  0.0411
    2MOL0     C  178  -1.423   7.219   5.474  0.9353 -0.8310 -1.0629
    2MOL0     C  179  -1.465   7.293   5.601 -0.2274 -0.3959  0.9606
    2MOL0    Cl  180  -1.362   7.217   5.722  0.1797  0.1254  0.1230
    2MOL0     C  181  -0.535   7.587   5.515 -0.1386 -0.1012  0.5104
    2MOL0     C  182  -0.410   7.564   5.574 -0.1966 -0.2895 -0.4582
    2MOL0     O  183  -0.088   7.423   5.362 -0.9020 -0.3076  0.3192
    2MOL0     C  184   0.019   7.537   5.696  0.0702  0.3519  0.1096
    2MOL0     C  185   0.131   7.546   5.784  0.1587 -0.4647  0.5950
    2MOL0     N  186   0.953   7.695   5.690 -0.1798 -0.1398  0.0644
    2MOL0     N  187   1.065   7.750   5.690 -0.0282  0.4251  1.2742
    2MOL0     C  188   2.200   7.885   6.239 -0.3652 -0.9566  0.1170
    2MOL0     C  189   2.302   7.897   6.329  0.0814  0.1432  0.8642
    2MOL0     C  190   2.488   8.024   6.764  0.1576  0.0147 -0.0512
    2MOL0     C  191   2.609   8.041   6.702 -0.2376  0.3792  0.5094
    2MOL0     C  192   2.729   8.056   6.771  0.3532 -0.0553  0.7304
    2MOL0     C  193   2.727   8.067   6.915  0.0721 -0.9984  0.3792
    2MOL0     O  194   2.848   8.106   6.970  0.3236 -0.1330 -0.1164
    2MOL0     C  195   2.849   8.179   7.096 -0.5970  1.0437  0.6280
    2MOL0     C  196   3.001   8.193   7.131  0.3240  0.2226 -0.2140
    2MOL0     C  197   3.019   8.250   7.268  0.6145 -0.9252  0.4273
    2MOL0     C  198   2.971   8.397   7.265  0.1884 -1.4499 -0.6575
    2MOL0     C  199   3.025   8.489   7.371  0.7352  0.5470 -0.0319
    2MOL0     C  200   3.078   8.556   7.454 -0.2685  1.2016  0.1774
    2MOL0     C  201   2.601   8.048   6.978 -0.1276  0.8832 -0.0130
    2MOL0     C  202   2.482   8.041   6.903 -0.2165  0.0031  1.7734
    2MOL0     H  203   2.106   7.914   6.605  0.9276 -0.3733  0.8211
    2MOL0     H  204   1.936   7.887   6.453 -0.1553  0.3628 -0.0579
    2MOL0     H  205   1.862   7.739   6.284  2.2297  0.0938 -1.1998
    2MOL0     H  206   1.774   7.894   6.264  1.5918 -0.8884  2.4031
    2MOL0     H  207   1.762   7.843   6.007 -2.1682 -0.5347 -1.5667
    2MOL0     H  208   1.823   7.681   6.060  2.2646  1.1598  1.3453
    2MOL0     H  209   1.620   7.641   6.163 -1.2236  0.7533  1.3691
    2MOL0     H  210   1.585   7.804   6.208 -1.5544 -1.1784 -0.0455
    2MOL0     H  211   1.550   7.739   5.913 -1.1210  1.3173 -0.7172
    2MOL0     H  212   1.428   7.706   6.034 -1.0222  1.0000 -0.6442
    2MOL0     H  213   1.405   7.911   6.112 -2.0033 -3.3137 -2.5067
    2MOL0     H  214   1.551   7.975   6.044 -0.4023  0.7990 -1.6552
    2MOL0     H  215   1.363   8.056   5.923  0.9999 -0.2621  0.2915
    2MOL0     H  216   1.440   7.940   5.806  2.4201  0.1832  0.9197
    2MOL0     H  217   1.272   7.777   5.840  1.7652  0.5882 -0.8959
    2MOL0     H  218   1.215   7.864   5.984 -0.6167  0.4505 -0.0765
    2MOL0     H  219   1.217   7.976   5.696 -1.5512 -1.4436 -0.5399
    2MOL0     H  220   1.135   8.047   5.833 -0.2718  1.1812 -3.1341
    2MOL0     H  221   0.883   7.937   5.892  2.0855 -0.1616  0.5824
    2MOL0     H  222   0.680   7.831   5.853  1.2428  1.0134 -2.4014
    2MOL0     H  223   0.662   7.768   5.701 -0.8350  2.5444  2.1957
    2MOL0     H  224   0.756   7.593   5.940  0.4580  1.7009 -0.6883
    2MOL0     H  225   0.720   7.537   5.783  4.4874 -0.1936  1.6582
    2MOL0     H  226   0.511   7.665   5.940  2.7094  1.0411  0.0915
    2MOL0     H  227   0.559   7.500   5.988 -2.1761  2.5295  3.5217
    2MOL0     H  228   0.495   7.416   5.756 -2.5201  0.3484 -0.5847
    2MOL0     H  229   0.479   7.591   5.710  1.8514  2.4606  1.0730
    2MOL0     H  230   0.358   7.396   5.579  1.3631  0.1263  1.0139
    2MOL0     H  231   0.116   7.300   5.360 -0.1233  0.2847  1.3500
    2MOL0     H  232   0.207   7.444   5.312  3.1796  1.1872  0.9253
    2MOL0     H  233   0.281   7.306   5.391 -1.6113 -1.5149  0.8917
    2MOL0     H  234  -0.319   7.324   5.332 -2.1948 -0.0699 -2.5166
    2MOL0     H  235  -0.513   7.387   5.241  3.7119  1.2740 -2.3214
    2MOL0     H  236  -0.760   7.351   5.336 -0.4815 -0.4496 -1.6954
    2MOL0     H  237  -0.800   7.437   5.489  1.8821 -0.8327 -0.4394
    2MOL0     H  238  -0.927   7.603   5.335  3.0649 -0.2688 -2.3619
    2MOL0     H  239  -0.931   7.478   5.210 -0.3834 -0.5178 -0.5119
    2MOL0     H  240  -1.067   7.491   5.474  2.4743  0.1167 -0.9024
    2MOL0     H  241  -1.037   7.338   5.411  1.8628  1.2920  1.4895
    2MOL0     H  242  -1.183   7.577   5.286 -1.9851 -0.0078 -0.6713
    2MOL0     H  243  -1.183   7.427   5.194  0.2148  3.3514 -1.9196
    2MOL0     H  244  -1.391   7.435   5.281  1.0188  6.6746 -0.2788
    2MOL0     H  245  -1.333   7.496   5.441 -2.0856  0.1577  0.8083
    2MOL0     H  246  -1.272   7.207   5.339 -0.0200 -0.9298  1.6140
    2MOL0     H  247  -1.220   7.281   5.492 -0.6747  2.2225 -0.2331
    2MOL0     H  248  -1.399   7.116   5.503  1.2158  0.1467  2.8130
    2MOL0     H  249  -1.500   7.218   5.397  0.8463 -4.1547 -1.0668
    2MOL0     H  250  -1.568   7.275   5.633 -0.2880  0.5472  1.3224
    2MOL0     H  251  -1.447   7.401   5.598 -1.5706 -0.1351  1.7229
    2MOL0     H  252  -0.614   7.648   5.560  0.3037  0.7943  0.0958
    2MOL0     H  253  -0.367   7.608   5.663 -1.1809  1.5590 -0.8525
    2MOL0     H  254  -0.070   7.591   5.725  0.3301 -0.0665  1.8053
    2MOL0     H  255   0.120   7.583   5.885 -4.3058 -1.4948  0.7012
    2MOL0     H  256   2.220   7.886   6.132  1.2049 -2.1931  0.3716
    2MOL0     H  257   2.404   7.902   6.293 -0.7906  3.1362 -1.6426
    2MOL0     H  258   2.620   8.040   6.594  0.8536 -2.6995  0.5639
    2MOL0     H  259   2.826   8.069   6.724  0.4279  1.7822  1.3401
    2MOL0     H  260   2.795   8.274   7.089 -0.9084  0.7568 -4.5696
    2MOL0     H  261   2.793   8.116   7.166 -1.9664  1.5592  0.0263
    2MOL0     H  262   3.047   8.256   7.054 -0.0795 -0.2403 -0.8407
    2MOL0     H  263   3.059   8.101   7.128 -1.4746 -1.0754  1.8333
    2MOL0     H  264   3.120   8.258   7.307 -0.0796 -1.6634  2.5045
    2MOL0     H  265   2.966   8.183   7.337 -0.9615  1.9617  2.2102
    2MOL0     H  266   2.862   8.403   7.280  0.3565 -1.6779  0.7551
    2MOL0     H  267   3.003   8.442   7.170  1.1466 -1.1010 -0.1770
    2MOL0     H  268   3.104   8.626   7.530 -1.9602  0.1882  1.7950
    2MOL0     H  269   2.594   8.057   7.086 -3.4329  0.7550 -0.1188
    2MOL0     H  270   2.392   8.021   6.962 -0.3418  0.0585  1.6010
    3MOL0     O  271   2.214   0.039   4.598 -0.5365  0.2047 -0.1876
    3MOL0     C  272   2.215   0.110   4.698 -0.5624  0.0168  0.1200
    3MOL0     O  273   2.331   0.154   4.766  0.6997 -0.3173  0.0705
    3MOL0     C  274   2.443   0.088   4.721 -0.9135 -0.0945 -0.2051
    3MOL0     C  275   2.485  -0.038   4.763 -0.3230  0.0240  0.0323
    3MOL0     C  276   2.603  -0.096   4.696 -0.3373 -0.6184 -0.4047
    3MOL0     C  277   2.673  -0.024   4.593  0.6234  0.6440  0.5892
    3MOL0     O  278   2.768  -0.090   4.520  1.4084  0.4375  0.1664
    3MOL0     C  279   2.886  -0.030   4.500  0.4429 -1.0877  0.6121
    3MOL0     C  280   2.996  -0.121   4.560  0.4223 -0.5814 -0.1479
    3MOL0     C  281   2.986  -0.134   4.714  0.6430 -0.5550  0.3955
    3MOL0     C  282   3.119  -0.173   4.789  0.2713 -0.0001  0.2403
    3MOL0     C  283   3.069  -0.215   4.933 -0.2840 -0.4803  0.1144
    3MOL0     C  284   3.185  -0.268   5.014  0.6446  0.8689 -0.2714
    3MOL0     C  285   3.143  -0.294   5.156  0.0975 -0.4673  0.5033
    3MOL0     C  286   3.038  -0.402   5.168 -0.1683  0.1085  0.0921
    3MOL0     N  287   2.984  -0.424   5.300  0.1582 -0.3310  0.1570
    3MOL0     C  288   2.879  -0.348   5.370  0.3730  0.1243 -0.4116
    3MOL0     C  289   2.848  -0.409   5.480  0.4427 -0.3852  0.0429
    3MOL0     C  290   2.751  -0.347   5.574 -0.6483 -0.7267  0.1170
    3MOL0     C  291   2.604  -0.391   5.541  0.5122 -0.1232 -0.2965
    3MOL0     C  292   2.577  -0.349   5.400 -0.1513 -0.0817  0.1263
    3MOL0     C  293   2.431  -0.361   5.368  1.4145 -0.0662 -0.5402
    3MOL0     O  294   2.375  -0.489   5.413 -0.2259 -0.0548 -1.1301
    3MOL0     C  295   2.257  -0.527   5.364 -0.4124  0.0052  0.7703
    3MOL0     C  296   2.235  -0.659   5.359 -0.6776 -0.1579  0.3558
    3MOL0     C  297   2.117  -0.723   5.321  0.0389  0.9580 -0.2083
    3MOL0     C  298   2.120  -0.875   5.301 -0.3409  0.3409  0.5276
    3MOL0     C  299   2.003  -0.636   5.300  0.0232 -0.2976 -0.7185
    3MOL0     C  300   1.872  -0.673   5.255 -0.2070  0.1964 -0.0621
    3MOL0     O  301   1.759  -0.609   5.320 -0.5323 -0.1995  0.3028
    3MOL0     C  302   1.633  -0.658   5.310  0.2886  0.4756 -0.0119
    3MOL0     C  303   1.601  -0.785   5.246  0.2311  0.3635 -0.0102
    3MOL0     C  304   1.470  -0.834   5.247 -0.1160  0.1498  0.3750
    3MOL0     C  305   1.365  -0.758   5.299 -0.1639  0.7060 -1.2895
    3MOL0     O  306   1.232  -0.774   5.293 -0.0911  0.3982  0.1266
    3MOL0     C  307   1.172  -0.901   5.268 -0.0077  0.0506  0.4851
    3MOL0     C  308   1.028  -0.892   5.225  1.7561 -0.6919 -0.0371
    3MOL0     C  309   0.943  -0.879   5.352  0.6186  1.0477 -0.3283
    3MOL0     C  310   0.792  -0.877   5.324 -0.8773 -0.0391  0.0772
    3MOL0     C  311   0.702  -0.865   5.439 -0.3446 -0.7239  0.0657
    3MOL0     C  312   0.566  -0.856   5.412  1.2455  0.8960 -0.3080
    3MOL0     C  313   0.464  -0.858   5.537  0.0078 -0.5860  0.2759
    3MOL0     C  314   0.327  -0.800   5.507 -0.6977  0.1330 -0.2940
    3MOL0    Cl  315   0.236  -0.910   5.398  0.2958 -0.1007 -0.2452
    3MOL0     C  316   1.391  -0.640   5.363 -0.5799  1.0189  0.4677
    3MOL0     C  317   1.528  -0.590   5.372  0.8720 -0.1247 -0.1332
    3MOL0     O  318   1.876  -0.728   5.144  0.4230  0.0196  0.4049
    3MOL0     C  319   2.023  -0.497   5.308  0.5937  0.4981 -0.1229
    3MOL0     C  320   2.145  -0.443   5.342 -0.1277 -0.0256  0.4154
    3MOL0     N  321   2.942  -0.507   5.486 -0.2355 -0.0307  0.2858
    3MOL0     N  322   3.014  -0.524   5.377  0.4674  0.5333 -0.7666
    3MOL0     C  323   2.631   0.104   4.563  0.1397  0.1098  0.6885
    3MOL0     C  324   2.520   0.161   4.629  0.1576 -0.6206  0.2628
    3MOL0     C  325   2.080   0.151   4.758 -0.1902 -0.2902  0.3363
    3MOL0     C  326   2.073   0.205   4.889  0.9865  0.2891 -0.5796
    3MOL0     C  327   1.944   0.220   4.948 -0.1734 -1.0902  0.7539
    3MOL0     C  328   1.819   0.194   4.880 -0.1085 -0.3600  0.2716
    3MOL0     O  329   1.714   0.194   4.964  0.3705 -0.3937  0.2212
    3MOL0     C  330   1.579   0.175   4.913  0.4363 -0.1858 -0.5429
    3MOL0     C  331   1.485   0.204   5.030  0.2127 -0.2932 -0.0488
    3MOL0     C  332   1.349   0.142   5.011  0.6138 -0.4026 -0.2618
    3MOL0     C  333   1.261   0.225   4.918  0.3233  1.0936  0.0653
    3MOL0     C  334   1.207   0.346   4.978  0.3059 -0.6093 -0.1822
    3MOL0     C  335   1.177   0.462   4.998  0.2974 -0.2785  0.2691
    3MOL0     C  336   1.828   0.139   4.749 -0.4137 -0.7504 -0.7672
    3MOL0     C  337   1.956   0.117   4.699  0.5200  0.6089  0.2442
    3MOL0     H  338   2.429  -0.099   4.832  0.3651  0.0899  0.6544
    3MOL0     H  339   2.631  -0.199   4.717  2.3238 -0.8051 -3.9183
    3MOL0     H  340   2.906  -0.029   4.392  1.1050  2.9375  0.6381
    3MOL0     H  341   2.884   0.077   4.523 -1.5315 -0.4329 -2.1492
    3MOL0     H  342   2.985  -0.221   4.516 -0.0132 -0.9865  0.8519
    3MOL0     H  343   3.096  -0.082   4.539  1.2898 -2.3827  0.4464
    3MOL0     H  344   2.940  -0.043   4.753  1.0414 -0.9456  1.8365
    3MOL0     H  345   2.915  -0.217   4.724 -0.6601  0.6590  1.5593
    3MOL0     H  346   3.175  -0.256   4.744 -0.8107  0.8077 -2.8500
    3MOL0     H  347   3.186  -0.087   4.781 -0.2781  0.4489  0.4174
    3MOL0     H  348   3.021  -0.128   4.980 -1.4974 -1.9647  1.7581
    3MOL0     H  349   2.988  -0.288   4.925  0.7607 -1.5977 -0.5730
    3MOL0     H  350   3.215  -0.362   4.966 -1.3791  0.4550 -0.8458
    3MOL0     H  351   3.267  -0.196   5.018 -3.1019  5.5424  1.6563
    3MOL0     H  352   3.230  -0.321   5.217 -0.0170  0.7543  1.2496
    3MOL0     H  353   3.107  -0.200   5.199  1.1633 -0.2980  1.0716
    3MOL0     H  354   3.082  -0.493   5.127 -1.0109  0.4332 -1.6281
    3MOL0     H  355   2.953  -0.360   5.113 -0.3317 -1.7937 -1.1806
    3MOL0     H  356   2.838  -0.254   5.334 -0.9314  0.2091  1.1834
    3MOL0     H  357   2.782  -0.391   5.670  0.0946 -1.9821 -0.6604
    3MOL0     H  358   2.753  -0.238   5.571 -3.2471 -0.6296 -0.3933
    3MOL0     H  359   2.532  -0.335   5.601  2.7824  1.4348  1.1636
    3MOL0     H  360   2.588  -0.499   5.551 -0.8244 -0.1197 -1.9290
    3MOL0     H  361   2.634  -0.411   5.330 -1.6517 -0.5676 -0.6987
    3MOL0     H  362   2.618  -0.248   5.388  2.9120 -1.0669  1.4038
    3MOL0     H  363   2.411  -0.360   5.261 -0.0706 -1.1934 -0.3047
    3MOL0     H  364   2.383  -0.281   5.425 -0.2989 -1.6943  0.4353
    3MOL0     H  365   2.322  -0.724   5.367  0.2415  1.2414  5.7921
    3MOL0     H  366   2.092  -0.919   5.397 -1.4217 -1.0185 -0.3539
    3MOL0     H  367   2.050  -0.904   5.222 -0.8765 -0.4096  1.2604
    3MOL0     H  368   2.218  -0.913   5.271 -0.8683  1.7949 -3.7529
    3MOL0     H  369   1.687  -0.833   5.200  1.1674  1.9710 -0.0569
    3MOL0     H  370   1.453  -0.923   5.187  0.4779  0.2628  0.0296
    3MOL0     H  371   1.224  -0.954   5.187  1.9826  1.1296  0.9889
    3MOL0     H  372   1.172  -0.974   5.350  2.1208 -0.6065 -0.0254
    3MOL0     H  373   0.999  -0.808   5.162 -1.1031 -2.1397 -0.7751
    3MOL0     H  374   0.992  -0.978   5.169 -1.4913  2.1194 -2.6528
    3MOL0     H  375   0.968  -0.784   5.401  1.1194  1.9275 -2.2090
    3MOL0     H  376   0.959  -0.953   5.431 -3.1744  4.1930  3.9632
    3MOL0     H  377   0.775  -0.800   5.249 -1.7152 -0.0380  0.2564
    3MOL0     H  378   0.760  -0.970   5.274 -2.8744 -3.1400  6.1351
    3MOL0     H  379   0.732  -0.771   5.487 -0.5597 -0.7857  0.3220
    3MOL0     H  380   0.727  -0.948   5.506  0.4770  0.4071  1.2083
    3MOL0     H  381   0.553  -0.772   5.343  1.3093  1.3516  0.2251
    3MOL0     H  382   0.545  -0.946   5.353  0.9383  0.5048  0.3948
    3MOL0     H  383   0.511  -0.786   5.605 -1.2985 -1.2102  1.9048
    3MOL0     H  384   0.451  -0.956   5.583 -5.0112 -0.0235  0.5751
    3MOL0     H  385   0.341  -0.702   5.460  0.8914  1.0486  1.8946
    3MOL0     H  386   0.277  -0.787   5.603 -1.3084 -2.3275 -0.2101
    3MOL0     H  387   1.309  -0.577   5.395  1.3560  4.1517 -0.2917
    3MOL0     H  388   1.549  -0.489   5.406  1.3171  0.2558 -1.4534
    3MOL0     H  389   1.935  -0.435   5.292 -0.8549 -1.3221  0.4773
    3MOL0     H  390   2.163  -0.338   5.361  1.9756  0.5539 -3.7186
    3MOL0     H  391   2.660   0.151   4.470  0.4335 -2.3590 -0.5378
    3MOL0     H  392   2.492   0.260   4.593  2.7040  0.0491 -0.0723
    3MOL0     H  393   2.169   0.218   4.936  1.7539  0.3594 -2.1216
    3MOL0     H  394   1.949   0.264   5.047  1.0091 -1.4289  0.8499
    3MOL0     H  395   1.555   0.246   4.833 -1.3025  0.0241  0.1186
    3MOL0     H  396   1.564   0.070   4.886  0.4569 -0.6676  1.1726
    3MOL0     H  397   1.469   0.309   5.056  1.8913  0.0065 -0.0637
    3MOL0     H  398   1.533   0.162   5.118  2.6879 -2.4080 -2.2497
    3MOL0     H  399   1.300   0.131   5.108  0.3753  2.3634  0.0054
    3MOL0     H  400   1.359   0.042   4.968  0.1107  0.4963 -2.6578
    3MOL0     H  401   1.171   0.168   4.895  0.2191  0.7458  1.2533
    3MOL0     H  402   1.306   0.247   4.821 -1.3716  0.4728 -0.9113
    3MOL0     H  403   1.171   0.569   5.005  1.0487 -0.2428  0.4751
    3MOL0     H  404   1.736   0.112   4.698 -0.1286  0.9584 -2.2952
    3MOL0     H  405   1.959   0.065   4.603  0.4195 -0.3768  0.7671
    4MOL0     O  406  10.128   2.823   1.760 -0.3551 -0.1800 -0.4652
    4MOL0     C  407  10.148   2.700   1.774 -0.3008 -0.5271  0.0098
    4MOL0     O  408  10.058   2.607   1.755  0.0091 -0.7667  0.3323
    4MOL0     C  409   9.943   2.632   1.676 -0.1780 -0.0620 -1.2147
    4MOL0     C  410   9.941   2.646   1.538 -0.3507 -0.9019 -0.3851
    4MOL0     C  411   9.829   2.706   1.475 -0.2193 -0.5665  0.3381
    4MOL0     C  412   9.711   2.747   1.544 -0.7117 -1.0499 -1.2452
    4MOL0     O  413   9.608   2.801   1.471 -0.2042  0.1467  0.0973
    4MOL0     C  414   9.504   2.867   1.533  0.8293 -0.3479  0.1408
    4MOL0     C  415   9.429   2.954   1.426 -1.1880  0.0476  0.4097
    4MOL0     C  416   9.350   2.865   1.333 -0.2066 -0.8503  0.8502
    4MOL0     C  417   9.320   2.952   1.206  0.4633 -0.5927 -0.6570
    4MOL0     C  418   9.205   2.902   1.121 -0.0497  0.5922 -0.3572
    4MOL0     C  419   9.068   2.935   1.191 -0.3105 -0.0446  0.5384
    4MOL0     C  420   8.965   2.823   1.163 -1.0163 -0.2852 -0.3147
    4MOL0     C  421   8.995   2.710   1.261  0.9112  0.0446 -0.0652
    4MOL0     N  422   8.912   2.598   1.218 -0.4168  0.4838  0.3753
    4MOL0     C  423   8.804   2.546   1.277 -0.5227 -0.2641 -0.1147
    4MOL0     C  424   8.767   2.435   1.210 -0.4387 -0.5422 -1.4299
    4MOL0     C  425   8.648   2.358   1.269  0.7053  0.5378 -0.4825
    4MOL0     C  426   8.713   2.295   1.395  1.1343  0.1137 -0.4707
    4MOL0     C  427   8.617   2.214   1.488 -0.4577  0.2343 -0.7005
    4MOL0     C  428   8.538   2.299   1.581  0.1527 -0.2906  0.1547
    4MOL0     O  429   8.419   2.362   1.521 -0.2875 -0.2858  0.8725
    4MOL0     C  430   8.298   2.356   1.585  0.7860  0.1896  0.2967
    4MOL0     C  431   8.298   2.393   1.722  0.5708 -0.1015  0.0949
    4MOL0     C  432   8.176   2.398   1.795  1.0096  0.0210  0.1226
    4MOL0     C  433   8.179   2.461   1.934 -0.0422  0.1951  0.3865
    4MOL0     C  434   8.053   2.369   1.734 -0.2135  0.2201 -0.1006
    4MOL0     C  435   7.917   2.399   1.788 -0.6839  0.1695  0.2549
    4MOL0     O  436   7.815   2.308   1.759  0.2560 -0.5365  0.8122
    4MOL0     C  437   7.683   2.332   1.803 -0.1648  0.2156 -0.1833
    4MOL0     C  438   7.633   2.239   1.886  0.2234  0.3996 -0.3628
    4MOL0     C  439   7.493   2.235   1.924  0.8598 -0.1834  0.2610
    4MOL0     C  440   7.402   2.338   1.866 -0.1143  0.7602  1.4712
    4MOL0     O  441   7.262   2.334   1.870 -0.0760 -0.3718  0.7468
    4MOL0     C  442   7.196   2.258   1.970  0.2859  0.2119  0.1347
    4MOL0     C  443   7.063   2.340   2.004  0.2561 -0.3732  0.5177
    4MOL0     C  444   6.950   2.327   1.891 -0.0655  0.7544 -0.0665
    4MOL0     C  445   6.972   2.424   1.769  0.6874  0.0590  0.2849
    4MOL0     C  446   6.851   2.379   1.671 -0.8146  0.2382 -0.5140
    4MOL0     C  447   6.712   2.408   1.722 -0.1084  0.5074  0.1116
    4MOL0     C  448   6.604   2.380   1.608  0.9189 -0.5486 -0.2412
    4MOL0     C  449   6.462   2.419   1.644 -0.8317 -0.0104  0.3155
    4MOL0    Cl  450   6.372   2.279   1.702 -0.3302  0.5471 -0.4281
    4MOL0     C  451   7.460   2.445   1.792  0.3845 -0.1360  0.3146
    4MOL0     C  452   7.599   2.444   1.764 -0.1770  0.1360  0.4902
    4MOL0     O  453   7.902   2.505   1.845 -0.1145 -0.6839 -0.1377
    4MOL0     C  454   8.059   2.316   1.597 -0.3819 -0.0776  1.1668
    4MOL0     C  455   8.178   2.315   1.524 -0.0491  0.6767  0.5042
    4MOL0     N  456   8.857   2.407   1.115 -0.1013  0.1224  0.2470
    4MOL0     N  457   8.949   2.498   1.121  0.0159  0.2854  0.1297
    4MOL0     C  458   9.711   2.731   1.686 -0.3898 -0.7399 -0.0096
    4MOL0     C  459   9.829   2.679   1.751 -0.3354 -0.2411  0.5356
    4MOL0     C  460  10.281   2.657   1.804  0.2327  0.0837  0.3864
    4MOL0     C  461  10.373   2.752   1.859 -0.3286  0.2304 -0.7881
    4MOL0     C  462  10.507   2.722   1.872  0.3444  0.5903  0.1375
    4MOL0     C  463  10.546   2.590   1.844 -0.4310  0.0384  0.2590
    4MOL0     O  464  10.678   2.567   1.858  0.3085 -0.3343 -0.1371
    4MOL0     C  465  10.732   2.442   1.809 -0.2993  0.0475  0.6028
    4MOL0     C  466  10.869   2.385   1.860  0.5001  0.4454  0.5303
    4MOL0     C  467  10.895   2.370   2.010 -0.5490  0.8660 -0.1813
    4MOL0     C  468  10.854   2.238   2.070  0.4353 -0.4143  0.7352
    4MOL0     C  469  10.709   2.215   2.087  0.3512 -1.1326 -0.2159
    4MOL0     C  470  10.592   2.204   2.116 -0.2188  0.2281  0.6473
    4MOL0     C  471  10.455   2.497   1.788  0.8079  1.1432 -0.1475
    4MOL0     C  472  10.325   2.531   1.772  0.4803 -0.3164  0.3376
    4MOL0     H  473  10.035   2.616   1.493 -0.2415 -0.5485 -0.4043
    4MOL0     H  474   9.828   2.713   1.367  0.6560  0.8039  0.3979
    4MOL0     H  475   9.432   2.807   1.590  0.9476  1.3430  2.1897
    4MOL0     H  476   9.543   2.937   1.608 -1.3207 -0.8664  1.8641
    4MOL0     H  477   9.372   3.029   1.482  1.0087  2.2201 -0.0890
    4MOL0     H  478   9.498   3.020   1.373 -1.8176  3.7011  3.7046
    4MOL0     H  479   9.397   2.771   1.306  1.8477  0.6739 -1.2474
    4MOL0     H  480   9.258   2.841   1.387 -0.7546  0.7946  0.7111
    4MOL0     H  481   9.304   3.058   1.230 -3.0594 -1.0484 -0.5341
    4MOL0     H  482   9.412   2.937   1.150  0.7490  0.0364 -0.3700
    4MOL0     H  483   9.221   2.951   1.025  1.7528 -1.8738 -1.4389
    4MOL0     H  484   9.211   2.794   1.105 -0.3973  0.2900  1.3499
    4MOL0     H  485   9.076   2.953   1.298  3.8444 -1.1714  0.6122
    4MOL0     H  486   9.049   3.029   1.138  1.0447  0.1201  0.3085
    4MOL0     H  487   8.863   2.859   1.174 -1.7318 -2.5156  0.9086
    4MOL0     H  488   8.990   2.787   1.062 -0.4129 -0.4060 -0.1282
    4MOL0     H  489   8.970   2.754   1.358 -0.4624  3.3726 -1.7718
    4MOL0     H  490   9.101   2.683   1.274  0.1197 -1.8364  4.0894
    4MOL0     H  491   8.757   2.586   1.367  1.9485  0.9000  0.7624
    4MOL0     H  492   8.564   2.424   1.294  1.9388  1.5864  1.1467
    4MOL0     H  493   8.631   2.275   1.201  0.9159 -1.4888  1.7979
    4MOL0     H  494   8.756   2.372   1.460 -0.8663  1.6459 -0.8285
    4MOL0     H  495   8.787   2.226   1.353  1.3620  0.6041 -0.8818
    4MOL0     H  496   8.675   2.145   1.550 -1.1091  0.0845 -0.2357
    4MOL0     H  497   8.563   2.145   1.423  4.0001 -0.5474 -4.0592
    4MOL0     H  498   8.606   2.378   1.614  0.9965 -1.6406  1.7360
    4MOL0     H  499   8.505   2.235   1.663 -2.1833  0.6462  0.0284
    4MOL0     H  500   8.383   2.422   1.782 -0.7362 -0.1159  2.0336
    4MOL0     H  501   8.138   2.394   2.011  0.1595  0.8661  1.0846
    4MOL0     H  502   8.279   2.483   1.972 -0.4293  0.4778  1.2578
    4MOL0     H  503   8.126   2.556   1.935  2.5234  1.7243  1.0147
    4MOL0     H  504   7.691   2.159   1.933 -0.1865  0.0263 -0.4817
    4MOL0     H  505   7.458   2.147   1.977  1.1236 -1.0922 -1.0435
    4MOL0     H  506   7.185   2.158   1.926 -0.2145  1.3380 -2.4157
    4MOL0     H  507   7.259   2.251   2.060  1.9997 -3.4185 -1.1237
    4MOL0     H  508   7.027   2.302   2.100  1.9934  0.1247  1.4130
    4MOL0     H  509   7.088   2.444   2.026  0.4599  0.0412 -1.4260
    4MOL0     H  510   6.855   2.362   1.932 -1.8242  1.4471 -4.1810
    4MOL0     H  511   6.930   2.224   1.861 -1.3938  1.2372 -0.9127
    4MOL0     H  512   6.953   2.527   1.800  1.9789  0.1627  0.7915
    4MOL0     H  513   7.065   2.404   1.716 -0.0041 -1.4372 -0.4507
    4MOL0     H  514   6.849   2.272   1.649 -2.8187 -0.2017  1.4172
    4MOL0     H  515   6.871   2.427   1.575 -2.9612  4.4329  0.8637
    4MOL0     H  516   6.681   2.353   1.812  1.2027  3.2337  2.3848
    4MOL0     H  517   6.714   2.512   1.755  6.2486  1.3861 -1.7958
    4MOL0     H  518   6.604   2.274   1.578  1.3528 -0.4072 -0.7588
    4MOL0     H  519   6.628   2.448   1.525 -0.2870  2.5272  1.7942
    4MOL0     H  520   6.401   2.461   1.563 -0.8389  0.7139  0.6892
    4MOL0     H  521   6.461   2.489   1.729  0.8503 -0.2830  0.5980
    4MOL0     H  522   7.397   2.524   1.754 -0.2187 -0.7000  0.1323
    4MOL0     H  523   7.652   2.523   1.712  0.7647 -0.6094  0.2914
    4MOL0     H  524   7.964   2.288   1.552 -0.7590  4.3553 -1.3974
    4MOL0     H  525   8.179   2.278   1.422 -2.0925  1.1215  0.2842
    4MOL0     H  526   9.634   2.775   1.749  2.2177  0.4941  2.5649
    4MOL0     H  527   9.834   2.662   1.858  0.5108 -3.4464  0.1025
    4MOL0     H  528  10.339   2.844   1.905  1.0221 -0.8195  2.6082
    4MOL0     H  529  10.574   2.795   1.917  1.1386  0.4568 -0.7986
    4MOL0     H  530  10.679   2.353   1.843  2.3612 -2.3736 -1.1403
    4MOL0     H  531  10.720   2.430   1.700  2.0865 -0.7565  0.3797
    4MOL0     H  532  10.946   2.454   1.825 -0.7181  1.0741 -0.9976
    4MOL0     H  533  10.870   2.292   1.802 -3.6170  0.4514  0.1695
    4MOL0     H  534  10.843   2.457   2.051 -2.2131  1.3424 -3.0562
    4MOL0     H  535  11.003   2.379   2.026 -0.5958 -0.1986  0.8585
    4MOL0     H  536  10.906   2.227   2.166 -3.5251  0.8563  3.2803
    4MOL0     H  537  10.891   2.161   2.001 -1.5002 -0.1218 -0.7080
    4MOL0     H  538  10.490   2.178   2.137  0.1632 -2.2168 -0.1968
    4MOL0     H  539  10.482   2.400   1.746 -0.6830  1.7163 -2.6505
    4MOL0     H  540  10.259   2.471   1.710 -0.7276 -1.1039  2.3037
    5MOL0     O  541   8.696   8.359   3.633 -0.1617 -1.1649  0.4467
    5MOL0     C  542   8.640   8.302   3.730  0.0262  0.0133 -0.0884
    5MOL0     O  543   8.635   8.347   3.857 -0.2822  0.0438 -0.4691
    5MOL0     C  544   8.667   8.469   3.900  0.5448  1.4301  0.3182
    5MOL0     C  545   8.680   8.486   4.033  0.0965 -0.2314 -0.3256
    5MOL0     C  546   8.717   8.606   4.090  0.1722 -0.2885  0.2716
    5MOL0     C  547   8.712   8.720   4.014  0.0246 -0.9754  0.0411
    5MOL0     O  548   8.717   8.841   4.064  0.3060  0.0057 -0.4000
    5MOL0     C  549   8.634   8.882   4.176  0.4098 -0.9945  0.6386
    5MOL0     C  550   8.697   9.014   4.239 -0.3737 -0.4638 -0.3742
    5MOL0     C  551   8.591   9.067   4.348  0.6154  0.7465  0.2065
    5MOL0     C  552   8.654   9.195   4.414  0.0823 -0.2274 -0.2009
    5MOL0     C  553   8.768   9.164   4.524 -0.1193  1.1077  0.2493
    5MOL0     C  554   8.793   9.294   4.606 -0.6141  0.1759 -0.6722
    5MOL0     C  555   8.879   9.259   4.733 -0.1403  0.6712 -0.0731
    5MOL0     C  556   8.806   9.228   4.867 -0.0179  0.2770  0.2256
    5MOL0     N  557   8.774   9.352   4.937  0.4919  0.4788 -0.3275
    5MOL0     C  558   8.806   9.482   4.906 -0.1551 -0.4630 -0.3573
    5MOL0     C  559   8.763   9.555   5.014  0.2787 -0.2575  0.0059
    5MOL0     C  560   8.801   9.693   5.047  1.2633 -0.1728  0.0626
    5MOL0     C  561   8.916   9.694   5.149 -0.1647 -0.7312 -0.4419
    5MOL0     C  562   8.883   9.666   5.297 -0.0625 -0.0604  0.6108
    5MOL0     C  563   8.778   9.753   5.371  0.0999  0.0113 -0.0641
    5MOL0     O  564   8.822   9.890   5.362 -0.3624  0.2048 -0.0876
    5MOL0     C  565   8.889   9.938   5.472  0.2734  0.8478 -0.0117
    5MOL0     C  566   8.928   9.871   5.588  0.7309  0.1572 -0.8708
    5MOL0     C  567   9.008   9.930   5.685 -0.2026  0.2650  0.0678
    5MOL0     C  568   9.048   9.837   5.802  0.3202  0.1744  0.3640
    5MOL0     C  569   9.051  10.065   5.665 -0.6236  0.6342 -0.3586
    5MOL0     C  570   9.129  10.135   5.762 -0.5445 -0.7517  0.4227
    5MOL0     O  571   9.111  10.275   5.767 -0.1328  0.2443 -0.5829
    5MOL0     C  572   9.161  10.340   5.877  0.8917 -0.8739 -0.4538
    5MOL0     C  573   9.237  10.459   5.857  0.0900  0.3162 -1.0261
    5MOL0     C  574   9.283  10.535   5.958  0.1454  1.3414  0.2806
    5MOL0     C  575   9.257  10.495   6.089  1.0035 -0.8796 -0.2498
    5MOL0     O  576   9.311  10.565   6.195 -0.2897  0.0687 -0.0971
    5MOL0     C  577   9.278  10.707   6.202 -0.7314  0.5627 -0.0498
    5MOL0     C  578   9.158  10.733   6.297  1.2392  0.2092  0.5140
    5MOL0     C  579   9.203  10.758   6.436 -0.2704  0.0755 -0.4458
    5MOL0     C  580   9.118  10.689   6.542  0.5331  0.4970 -0.4344
    5MOL0     C  581   8.980  10.755   6.558 -0.1077  0.0206  0.4419
    5MOL0     C  582   8.870  10.668   6.612  0.6581  0.0660 -0.3351
    5MOL0     C  583   8.734  10.748   6.635 -0.8463 -0.2305  0.4011
    5MOL0     C  584   8.639  10.677   6.733 -0.6983 -0.5521 -0.2150
    5MOL0    Cl  585   8.724  10.664   6.888 -0.1571 -0.5760 -0.5629
    5MOL0     C  586   9.200  10.369   6.114 -0.6060 -0.4138  0.5854
    5MOL0     C  587   9.142  10.294   6.009 -0.4112 -0.4836  0.5486
    5MOL0     O  588   9.222  10.072   5.819  0.4656  0.0703  0.4167
    5MOL0     C  589   9.008  10.130   5.549  1.1217 -0.7555 -0.0466
    5MOL0     C  590   8.924  10.069   5.458 -0.5822 -0.0155  0.2523
    5MOL0     N  591   8.694   9.471   5.105 -0.0628 -0.1671  0.9526
    5MOL0     N  592   8.707   9.347   5.054  0.7071  0.2803  0.1748
    5MOL0     C  593   8.686   8.710   3.876 -0.7422  0.1418  0.3994
    5MOL0     C  594   8.655   8.585   3.819  0.0901 -0.0755 -0.1859
    5MOL0     C  595   8.574   8.169   3.697  0.5369  1.1835  0.2015
    5MOL0     C  596   8.588   8.110   3.568  0.5494  0.1956 -0.9162
    5MOL0     C  597   8.517   7.986   3.551  0.1683  0.0411  0.0764
    5MOL0     C  598   8.439   7.923   3.645  0.1547  0.0727  0.2543
    5MOL0     O  599   8.377   7.808   3.621  0.3959  0.9550 -0.0628
    5MOL0     C  600   8.442   7.684   3.665 -0.3313 -0.1079 -0.4392
    5MOL0     C  601   8.525   7.615   3.557  0.0891  1.2707  0.1334
    5MOL0     C  602   8.485   7.634   3.412  0.0564  1.1067 -0.1278
    5MOL0     C  603   8.589   7.574   3.316  0.1426 -0.2209  0.2278
    5MOL0     C  604   8.640   7.437   3.342 -0.2439 -0.6038  0.8295
    5MOL0     C  605   8.706   7.337   3.361  0.3124  0.5087  0.9050
    5MOL0     C  606   8.428   7.991   3.769 -0.1042  1.0951 -0.0117
    5MOL0     C  607   8.496   8.110   3.792  0.0609  0.0960  0.2097
    5MOL0     H  608   8.674   8.393   4.089 -2.3565 -0.9613 -1.6757
    5MOL0     H  609   8.731   8.603   4.197 -1.7609 -1.8904  0.5159
    5MOL0     H  610   8.529   8.900   4.151  0.5002  1.2583  1.6081
    5MOL0     H  611   8.642   8.810   4.258  3.3566  0.8729  2.1573
    5MOL0     H  612   8.793   8.999   4.289 -0.9094  1.3680  1.3171
    5MOL0     H  613   8.706   9.095   4.167 -0.8234  0.3375  0.4501
    5MOL0     H  614   8.495   9.091   4.301  1.4531 -0.5953 -2.4020
    5MOL0     H  615   8.584   8.988   4.424  1.5024  0.2683 -0.1934
    5MOL0     H  616   8.692   9.269   4.342  1.8000 -1.4903 -0.6445
    5MOL0     H  617   8.570   9.241   4.468  0.6234  1.6002 -0.8306
    5MOL0     H  618   8.736   9.081   4.588 -1.7504  1.2545 -0.3249
    5MOL0     H  619   8.858   9.130   4.472 -2.1294 -2.4156 -1.2901
    5MOL0     H  620   8.846   9.361   4.538  0.6127 -0.4134 -0.3240
    5MOL0     H  621   8.701   9.350   4.627  0.5925  3.2852 -2.8690
    5MOL0     H  622   8.942   9.172   4.712  0.1439  0.9247 -0.2789
    5MOL0     H  623   8.952   9.339   4.751 -0.0547  0.7845 -0.8983
    5MOL0     H  624   8.868   9.163   4.930 -1.2481 -0.8253  0.3464
    5MOL0     H  625   8.716   9.168   4.853 -0.9125  1.1783  1.7979
    5MOL0     H  626   8.861   9.524   4.822 -0.5256 -1.9256 -1.3871
    5MOL0     H  627   8.827   9.744   4.953 -1.6256 -0.6783 -1.1038
    5MOL0     H  628   8.716   9.747   5.089 -0.0831 -2.3983  0.3784
    5MOL0     H  629   8.952   9.797   5.138 -0.1589 -0.9671 -3.2713
    5MOL0     H  630   8.992   9.625   5.111  1.3760  1.3760 -1.4061
    5MOL0     H  631   8.984   9.663   5.340  0.6489 -0.0663 -0.9701
    5MOL0     H  632   8.849   9.562   5.305  1.1276 -0.7682 -2.1432
    5MOL0     H  633   8.764   9.726   5.476 -1.1665  2.9532  0.6443
    5MOL0     H  634   8.676   9.741   5.334 -0.4679 -0.8044  1.6992
    5MOL0     H  635   8.894   9.771   5.613  0.2947  0.7586  1.1341
    5MOL0     H  636   9.012   9.735   5.787 -0.1892  0.6956 -2.3036
    5MOL0     H  637   9.157   9.838   5.808  0.2445  1.7337  2.8953
    5MOL0     H  638   9.019   9.871   5.902 -0.2708 -1.0726  0.6362
    5MOL0     H  639   9.247  10.481   5.751 -3.2520 -0.3602 -1.5900
    5MOL0     H  640   9.347  10.622   5.950  2.2417  0.0237  1.7868
    5MOL0     H  641   9.369  10.766   6.214 -0.4227  0.0446  0.2255
    5MOL0     H  642   9.238  10.738   6.105 -0.9002  0.5202  0.0062
    5MOL0     H  643   9.097  10.814   6.256  1.4381 -0.6910 -1.7059
    5MOL0     H  644   9.098  10.642   6.306  1.0910  0.4089  1.6302
    5MOL0     H  645   9.212  10.867   6.448  0.5100  0.0105 -0.3760
    5MOL0     H  646   9.306  10.723   6.447  0.1965  0.7802 -2.2353
    5MOL0     H  647   9.100  10.586   6.508  0.5702 -0.3567  1.9921
    5MOL0     H  648   9.175  10.685   6.635 -1.5777 -0.1711  0.9136
    5MOL0     H  649   8.940  10.791   6.462 -0.5014  0.0118  0.6021
    5MOL0     H  650   8.988  10.843   6.623 -3.1644 -0.3739  1.4979
    5MOL0     H  651   8.847  10.585   6.545  1.2691 -1.6466  1.4656
    5MOL0     H  652   8.900  10.630   6.710 -1.7678 -0.0900  0.4289
    5MOL0     H  653   8.694  10.760   6.534 -2.3941 -4.4438  0.3225
    5MOL0     H  654   8.758  10.845   6.681 -0.8753  0.9379 -1.9261
    5MOL0     H  655   8.612  10.579   6.691  0.6809 -0.3611 -1.6350
    5MOL0     H  656   8.541  10.721   6.750 -2.2675 -2.1779 -3.8354
    5MOL0     H  657   9.183  10.338   6.216 -0.6075  2.9771  1.7221
    5MOL0     H  658   9.090  10.204   6.039  0.4925 -0.4451  2.3385
    5MOL0     H  659   9.023  10.238   5.547  0.3509 -0.6235 -3.0880
    5MOL0     H  660   8.882  10.125   5.375 -1.1258 -2.6447 -1.3326
    5MOL0     H  661   8.672   8.798   3.814  1.7378 -0.3641 -1.0286
    5MOL0     H  662   8.639   8.575   3.713  1.2351 -0.4896 -0.3359
    5MOL0     H  663   8.654   8.154   3.495 -1.6917  3.1229 -1.3766
    5MOL0     H  664   8.548   7.933   3.461  0.9939  0.9395 -0.1923
    5MOL0     H  665   8.508   7.708   3.748  0.9394  1.8693 -1.9431
    5MOL0     H  666   8.365   7.616   3.703  2.1700 -1.3084  2.9814
    5MOL0     H  667   8.514   7.509   3.582 -0.9966  1.5208  0.7725
    5MOL0     H  668   8.629   7.649   3.562  1.0966 -0.6632 -3.5639
    5MOL0     H  669   8.457   7.738   3.394 -0.4182  1.7240  3.4753
    5MOL0     H  670   8.390   7.580   3.413 -0.5748  2.1417  2.3309
    5MOL0     H  671   8.678   7.638   3.327 -0.4202  0.6245 -0.0175
    5MOL0     H  672   8.556   7.584   3.213  2.3335 -0.9094 -0.5880
    5MOL0     H  673   8.763   7.250   3.387 -1.3609 -0.1170  2.6915
    5MOL0     H  674   8.347   7.951   3.830  0.7638 -2.2043 -0.8299
    5MOL0     H  675   8.466   8.169   3.879 -1.7379  1.7417 -1.4252
    6MOL0     O  676  11.338   2.744   1.674 -0.5943 -0.2254 -0.4857
    6MOL0     C  677  11.356   2.636   1.732 -0.2656 -0.8277  1.2474
    6MOL0     O  678  11.264   2.567   1.793  0.1592  0.2217  0.6604
    6MOL0     C  679  11.147   2.641   1.824 -0.5002 -0.1013 -0.0734
    6MOL0     C  680  11.060   2.699   1.734  0.4278  0.4658 -0.3971
    6MOL0     C  681  10.952   2.772   1.793 -0.5854  0.9479  0.6113
    6MOL0     C  682  10.957   2.800   1.927  0.2935  0.0450  0.0324
    6MOL0     O  683  10.872   2.888   1.978  1.2774 -1.3018 -0.3153
    6MOL0     C  684  10.919   3.019   1.992 -0.0006 -0.4840 -0.2072
    6MOL0     C  685  10.921   3.114   1.876 -0.0312 -0.3229 -0.5577
    6MOL0     C  686  10.798   3.185   1.853 -0.7275 -0.3822  0.6430
    6MOL0     C  687  10.698   3.111   1.765  1.1778 -0.4711  0.1808
    6MOL0     C  688  10.562   3.180   1.735 -0.2308  0.4671 -0.1660
    6MOL0     C  689  10.455   3.178   1.855 -0.0783 -0.8291 -0.2771
    6MOL0     C  690  10.317   3.227   1.795 -0.3165 -0.4001 -0.7971
    6MOL0     C  691  10.207   3.191   1.904 -0.3048 -0.0876 -0.6867
    6MOL0     N  692  10.190   3.298   2.001  0.8303  0.2323 -0.2658
    6MOL0     C  693  10.268   3.328   2.110 -0.7680  0.5742 -0.6611
    6MOL0     C  694  10.215   3.431   2.178  0.0989  0.1822  0.0805
    6MOL0     C  695  10.275   3.503   2.297  0.0957 -0.3873 -0.8291
    6MOL0     C  696  10.284   3.409   2.424 -0.4895 -0.4361 -0.0144
    6MOL0     C  697  10.361   3.479   2.545  0.0065 -0.3114  0.1575
    6MOL0     C  698  10.367   3.398   2.672  0.7331  0.4901 -0.7525
    6MOL0     O  699  10.408   3.465   2.790  1.1900 -0.2550 -0.2513
    6MOL0     C  700  10.331   3.558   2.858  0.0831 -0.1048 -0.1198
    6MOL0     C  701  10.394   3.644   2.950  0.2931 -0.4294 -0.1128
    6MOL0     C  702  10.319   3.733   3.025 -0.5538  0.4744 -0.0649
    6MOL0     C  703  10.384   3.799   3.144  0.6427  0.3046  1.1411
    6MOL0     C  704  10.177   3.744   2.999 -0.9359 -0.5978 -0.2821
    6MOL0     C  705  10.095   3.841   3.068 -0.6957 -0.4376  0.4465
    6MOL0     O  706   9.962   3.814   3.062  0.1602 -0.0056  0.1496
    6MOL0     C  707   9.869   3.897   3.132 -0.1856  0.4580 -0.2208
    6MOL0     C  708   9.798   3.996   3.065  0.6701 -1.1459 -0.0544
    6MOL0     C  709   9.696   4.069   3.136  0.0782 -0.6464 -0.0501
    6MOL0     C  710   9.669   4.050   3.273 -0.1025 -0.3051  0.6298
    6MOL0     O  711   9.567   4.126   3.319  0.7309  0.6568  0.0521
    6MOL0     C  712   9.493   4.063   3.427 -0.8943  0.7610 -1.1573
    6MOL0     C  713   9.342   4.100   3.435 -0.4487 -0.1872  0.1691
    6MOL0     C  714   9.262   4.038   3.554  0.2515 -0.6973 -0.8426
    6MOL0     C  715   9.276   4.106   3.697 -0.3299  0.2953  0.5103
    6MOL0     C  716   9.201   4.235   3.689 -0.3610  0.2130  0.0901
    6MOL0     C  717   9.053   4.212   3.730 -0.2917  0.5879 -0.0869
    6MOL0     C  718   8.985   4.347   3.720  0.5414  0.1800  0.4143
    6MOL0     C  719   8.838   4.350   3.770  0.4898  0.0766 -0.5110
    6MOL0    Cl  720   8.730   4.288   3.638 -0.0217 -0.4549 -0.0158
    6MOL0     C  721   9.748   3.950   3.343  0.4735  1.0993  0.5135
    6MOL0     C  722   9.838   3.872   3.267 -0.3163  1.1864  0.5587
    6MOL0     O  723  10.150   3.939   3.127  0.0880 -0.2945  0.0422
    6MOL0     C  724  10.120   3.661   2.901 -0.6811  0.5519 -0.4560
    6MOL0     C  725  10.196   3.569   2.832 -0.0799  0.2086  0.6837
    6MOL0     N  726  10.096   3.450   2.122 -0.3186  0.9209 -0.6837
    6MOL0     N  727  10.080   3.374   2.023  1.4224  0.1910 -0.0641
    6MOL0     C  728  11.054   2.747   2.008  0.2991  0.1064  0.1033
    6MOL0     C  729  11.152   2.662   1.957 -0.0746 -0.2169  0.4736
    6MOL0     C  730  11.500   2.585   1.724  0.3331 -0.3459 -0.5331
    6MOL0     C  731  11.538   2.453   1.752  0.5955  0.2219  0.3997
    6MOL0     C  732  11.676   2.418   1.754  0.7304  0.6928  0.8576
    6MOL0     C  733  11.778   2.502   1.709  0.4131 -0.2403  0.3315
    6MOL0     O  734  11.908   2.455   1.712 -0.2203 -0.7326 -0.1553
    6MOL0     C  735  12.002   2.535   1.638 -0.1859 -0.2955 -0.0544
    6MOL0     C  736  12.142   2.459   1.612  0.4457  0.1833 -0.4967
    6MOL0     C  737  12.126   2.371   1.483  0.4410  0.1696 -0.7591
    6MOL0     C  738  12.131   2.453   1.351 -0.5995 -0.6234 -0.6888
    6MOL0     C  739  12.274   2.490   1.314  0.3222  0.8110 -0.1194
    6MOL0     C  740  12.392   2.520   1.295  0.5092  1.0271 -0.5533
    6MOL0     C  741  11.741   2.633   1.683 -1.2202 -0.1433  0.7947
    6MOL0     C  742  11.607   2.668   1.681 -0.1796 -0.4100  0.1136
    6MOL0     H  743  11.074   2.679   1.628 -2.7554  1.9300 -1.2075
    6MOL0     H  744  10.875   2.811   1.727 -1.1796 -1.0892  0.0151
    6MOL0     H  745  10.852   3.063   2.067  0.8928 -1.3698  1.1504
    6MOL0     H  746  11.020   3.017   2.033 -0.1147  0.4514  0.1402
    6MOL0     H  747  10.998   3.191   1.889 -0.0497 -0.4310  0.2541
    6MOL0     H  748  10.947   3.046   1.794  1.2524 -2.0965  1.2304
    6MOL0     H  749  10.772   3.240   1.944  1.3266  0.5565  0.7266
    6MOL0     H  750  10.821   3.270   1.789 -3.6097  0.6185  0.7933
    6MOL0     H  751  10.738   3.095   1.665 -1.2576 -3.0728 -0.5025
    6MOL0     H  752  10.684   3.011   1.807 -0.1118 -0.4090 -0.0691
    6MOL0     H  753  10.579   3.281   1.696  1.7251  0.0052 -0.5693
    6MOL0     H  754  10.522   3.119   1.653  0.9247 -0.9137  0.2693
    6MOL0     H  755  10.433   3.078   1.892 -1.8994 -1.2039 -2.1756
    6MOL0     H  756  10.496   3.237   1.937  2.0768 -0.4455 -1.5622
    6MOL0     H  757  10.326   3.333   1.767  2.4691 -0.3859 -0.1025
    6MOL0     H  758  10.307   3.169   1.702  1.9812 -0.2672 -1.2010
    6MOL0     H  759  10.236   3.105   1.965 -0.9949  0.9903  1.2567
    6MOL0     H  760  10.118   3.164   1.847  0.7633  0.3076 -2.6239
    6MOL0     H  761  10.368   3.293   2.131 -0.9682  0.6080  0.3828
    6MOL0     H  762  10.373   3.537   2.261  0.3098  1.1909  1.0620
    6MOL0     H  763  10.224   3.595   2.326 -0.1594 -0.6174 -0.5540
    6MOL0     H  764  10.348   3.329   2.385 -1.1796  0.0881 -2.3956
    6MOL0     H  765  10.188   3.376   2.464 -0.5997 -3.2876 -2.2829
    6MOL0     H  766  10.310   3.571   2.576  0.1421  0.7282 -2.4315
    6MOL0     H  767  10.458   3.509   2.506 -0.3586 -1.1638 -1.4783
    6MOL0     H  768  10.439   3.316   2.673  0.5996  0.3758  0.0117
    6MOL0     H  769  10.268   3.351   2.680  0.6324  0.9975  1.8420
    6MOL0     H  770  10.500   3.628   2.967  0.7356  2.5335  0.5843
    6MOL0     H  771  10.388   3.908   3.141 -1.6659  0.4368  0.9518
    6MOL0     H  772  10.319   3.774   3.229 -0.2944 -0.3205  0.2725
    6MOL0     H  773  10.477   3.745   3.164 -0.4542 -2.3227 -0.2493
    6MOL0     H  774   9.820   4.022   2.962 -0.0499 -0.0804  0.0521
    6MOL0     H  775   9.632   4.142   3.088  3.6764  1.4363 -2.0970
    6MOL0     H  776   9.505   3.954   3.427  0.3805  0.8752  0.1669
    6MOL0     H  777   9.542   4.100   3.518  2.4346  0.8867 -2.8479
    6MOL0     H  778   9.334   4.208   3.429  2.7039  0.0600 -1.8755
    6MOL0     H  779   9.309   4.060   3.339 -1.1715  1.3822 -0.2687
    6MOL0     H  780   9.294   3.936   3.578  0.1879  0.0822  3.0710
    6MOL0     H  781   9.157   4.037   3.523 -0.5762  0.9588  1.6552
    6MOL0     H  782   9.242   4.038   3.776  2.0153 -2.3856 -0.6292
    6MOL0     H  783   9.384   4.122   3.709 -0.1946 -1.0961  1.4415
    6MOL0     H  784   9.199   4.282   3.590 -1.3410  2.2545  1.0302
    6MOL0     H  785   9.257   4.303   3.754  0.5271  0.3401 -0.7786
    6MOL0     H  786   9.004   4.147   3.657  0.4287  0.6212 -0.6111
    6MOL0     H  787   9.051   4.175   3.832 -0.7419  2.6858  0.7228
    6MOL0     H  788   8.985   4.385   3.618  0.8630  0.7195  0.6118
    6MOL0     H  789   9.046   4.411   3.784  0.2593 -0.3722  1.2541
    6MOL0     H  790   8.813   4.455   3.790 -1.3918  0.1260 -2.7597
    6MOL0     H  791   8.833   4.289   3.861 -1.4536 -0.0722 -0.6867
    6MOL0     H  792   9.734   3.919   3.447  0.8514  0.5887  0.4197
    6MOL0     H  793   9.898   3.797   3.318  0.4900  1.8689  0.6357
    6MOL0     H  794  10.014   3.663   2.878 -1.1847 -0.4537  1.5418
    6MOL0     H  795  10.143   3.496   2.772  1.7022 -1.1738  0.7236
    6MOL0     H  796  11.070   2.778   2.111  3.0802  2.6213 -0.9371
    6MOL0     H  797  11.212   2.611   2.032 -2.4081 -0.6564  2.1606
    6MOL0     H  798  11.469   2.375   1.782  0.2518  0.8877  1.3694
    6MOL0     H  799  11.709   2.318   1.778  0.9541  1.1515  2.5650
    6MOL0     H  800  11.953   2.567   1.546 -0.3267  0.2123  0.1926
    6MOL0     H  801  12.049   2.614   1.698  0.3016 -1.6782  1.4723
    6MOL0     H  802  12.163   2.392   1.695  0.2449  0.4210 -0.2504
    6MOL0     H  803  12.231   2.521   1.595  1.2067 -0.3384  1.3545
    6MOL0     H  804  12.029   2.321   1.486  0.1785  0.6976 -0.1850
    6MOL0     H  805  12.204   2.295   1.477  1.0938  0.8669 -1.2334
    6MOL0     H  806  12.075   2.546   1.341 -1.5516 -0.9896  0.9183
    6MOL0     H  807  12.095   2.385   1.273 -7.8820 -0.9162  2.1760
    6MOL0     H  808  12.498   2.523   1.280  0.6156  0.7274  0.0952
    6MOL0     H  809  11.822   2.702   1.659  0.5362 -2.3919 -0.1085
    6MOL0     H  810  11.593   2.772   1.656  0.6827 -0.4185 -0.4353
    7MOL0     O  811   4.208   9.433  11.092  0.5767  0.1226 -0.3012
    7MOL0     C  812   4.315   9.444  11.033  0.6135 -0.9283  0.6804
    7MOL0     O  813   4.357   9.566  10.981 -0.2765  0.8682 -0.0150
    7MOL0     C  814   4.283   9.677  11.011 -0.0832 -0.1077 -0.3010
    7MOL0     C  815   4.310   9.746  11.133 -0.4920 -0.4816  0.1318
    7MOL0     C  816   4.234   9.862  11.166  0.0425 -0.0625 -0.3807
    7MOL0     C  817   4.130   9.905  11.081  0.2791  0.3016 -0.3465
    7MOL0     O  818   4.073  10.026  11.103 -0.0187 -1.1732 -0.2772
    7MOL0     C  819   3.956  10.067  11.033 -1.0643  0.2426 -0.1696
    7MOL0     C  820   3.822   9.996  11.071  0.4125  0.7101 -0.2028
    7MOL0     C  821   3.796  10.031  11.217  1.1762  0.1146  0.2960
    7MOL0     C  822   3.662   9.966  11.256  0.4691  0.7323  0.0974
    7MOL0     C  823   3.672   9.836  11.326  0.8090  0.0173 -0.3923
    7MOL0     C  824   3.727   9.720  11.252 -0.3784 -0.4896  0.0353
    7MOL0     C  825   3.875   9.684  11.272  0.2063 -0.4581  1.4682
    7MOL0     C  826   3.909   9.545  11.204 -0.2793  0.0474 -0.3507
    7MOL0     N  827   3.840   9.440  11.271 -0.7865  0.4249  0.2574
    7MOL0     C  828   3.844   9.411  11.403 -1.9525  0.3988  0.0618
    7MOL0     C  829   3.734   9.333  11.429  0.7046 -0.8843  0.5357
    7MOL0     C  830   3.707   9.287  11.570 -0.1969  0.0179  0.9620
    7MOL0     C  831   3.559   9.296  11.595 -0.4736  0.2327  0.1030
    7MOL0     C  832   3.524   9.249  11.744  0.4075 -0.0803  0.5401
    7MOL0     C  833   3.371   9.260  11.755 -0.2843  1.2049 -0.1154
    7MOL0     O  834   3.344   9.398  11.749  0.7275 -0.5848 -0.4039
    7MOL0     C  835   3.258   9.454  11.837  0.3000  0.1125 -0.6602
    7MOL0     C  836   3.287   9.583  11.887  0.1158 -0.0326  0.2427
    7MOL0     C  837   3.188   9.665  11.950  0.2130 -0.6746 -0.0218
    7MOL0     C  838   3.234   9.809  11.976 -0.1939  0.0291  0.7807
    7MOL0     C  839   3.070   9.607  11.991 -0.4467  0.5537  0.6608
    7MOL0     C  840   2.956   9.674  12.061 -0.8542 -1.0929  0.2474
    7MOL0     O  841   2.893   9.591  12.133 -0.4288 -0.1726 -0.1906
    7MOL0     C  842   2.763   9.602  12.157 -0.5072 -1.2079  0.9255
    7MOL0     C  843   2.660   9.569  12.065 -0.6594 -0.1129  0.1164
    7MOL0     C  844   2.525   9.582  12.088 -1.2782  0.0215  0.1632
    7MOL0     C  845   2.488   9.628  12.211 -0.4336  0.2591 -1.0772
    7MOL0     O  846   2.351   9.636  12.237 -1.3057 -0.2482  0.5980
    7MOL0     C  847   2.245   9.629  12.143  0.6177  0.5964  0.5554
    7MOL0     C  848   2.119   9.691  12.204 -0.6141 -0.4841 -0.0345
    7MOL0     C  849   2.126   9.842  12.236 -0.3590  0.2040 -0.3415
    7MOL0     C  850   1.987   9.904  12.277 -0.1495 -1.0820  0.1604
    7MOL0     C  851   1.950  10.012  12.171 -0.3720 -0.0259  0.6487
    7MOL0     C  852   1.987  10.158  12.207  0.0652 -0.4909 -0.5007
    7MOL0     C  853   2.138  10.185  12.210 -0.3069  0.1222 -0.2560
    7MOL0     C  854   2.181  10.336  12.247  0.5202 -0.2277 -0.0539
    7MOL0    Cl  855   2.085  10.464  12.185 -0.2856 -0.1212  0.6666
    7MOL0     C  856   2.578   9.662  12.315 -0.0026 -0.4348  0.7153
    7MOL0     C  857   2.719   9.650  12.277  0.3882 -0.3424 -0.7651
    7MOL0     O  858   2.918   9.795  12.026  0.5976 -0.0762 -0.7881
    7MOL0     C  859   3.051   9.474  11.956 -0.2103 -0.2114 -0.1885
    7MOL0     C  860   3.136   9.395  11.877 -0.3444  0.7962  0.1145
    7MOL0     N  861   3.673   9.307  11.307  1.0399  0.3090 -0.4042
    7MOL0     N  862   3.740   9.374  11.216 -0.5594 -0.2449 -0.1333
    7MOL0     C  863   4.089   9.823  10.968  0.3743 -0.1462  0.1297
    7MOL0     C  864   4.169   9.712  10.940 -0.0681 -0.2371 -1.1524
    7MOL0     C  865   4.407   9.331  11.014  0.2116  0.0433  1.1523
    7MOL0     C  866   4.542   9.334  10.968  0.1023 -0.2496 -0.3326
    7MOL0     C  867   4.595   9.223  10.898 -0.9860  0.8630  1.2253
    7MOL0     C  868   4.530   9.092  10.898  0.5379 -0.2187 -0.4054
    7MOL0     O  869   4.581   8.980  10.838 -0.4245 -0.9112  0.5540
    7MOL0     C  870   4.668   9.001  10.730 -0.5472 -0.6288  0.7653
    7MOL0     C  871   4.741   8.873  10.681 -0.7688  0.8165  0.6690
    7MOL0     C  872   4.656   8.759  10.614 -0.0540 -0.0800  0.0645
    7MOL0     C  873   4.732   8.627  10.586 -0.0207  0.5758 -0.0400
    7MOL0     C  874   4.830   8.642  10.483 -0.4419  0.3930  0.7065
    7MOL0     C  875   4.901   8.649  10.383  0.0613  0.6500  0.2368
    7MOL0     C  876   4.404   9.090  10.971  0.6521  0.4586 -0.0668
    7MOL0     C  877   4.344   9.206  11.017 -0.0650  0.4215 -0.1438
    7MOL0     H  878   4.394   9.703  11.188 -0.5770 -3.0852 -1.6028
    7MOL0     H  879   4.269   9.921  11.250  1.5690 -0.0556 -0.9818
    7MOL0     H  880   3.943  10.176  11.036 -2.6935  0.2031 -2.7521
    7MOL0     H  881   3.966  10.051  10.926 -2.7401  2.5544 -0.7632
    7MOL0     H  882   3.737  10.029  11.010 -1.7135 -0.1248  2.1364
    7MOL0     H  883   3.842   9.890  11.054  1.9742  1.1559 -1.3266
    7MOL0     H  884   3.880  10.000  11.281  2.2172  0.3692 -0.9077
    7MOL0     H  885   3.784  10.139  11.220  1.2579  0.1162  0.6558
    7MOL0     H  886   3.616  10.042  11.320 -1.1199  0.5952 -0.8128
    7MOL0     H  887   3.589   9.946  11.176 -0.2397 -0.3363  0.9763
    7MOL0     H  888   3.722   9.850  11.422 -0.8874  1.7116  0.2998
    7MOL0     H  889   3.571   9.803  11.351 -0.6873  2.6962 -2.3411
    7MOL0     H  890   3.658   9.637  11.272 -2.5952  0.7551 -1.8731
    7MOL0     H  891   3.723   9.737  11.144  2.7032  2.9706  0.2833
    7MOL0     H  892   3.945   9.759  11.234 -1.4101 -0.0537 -0.9212
    7MOL0     H  893   3.899   9.688  11.379  2.5251  4.6221  1.0642
    7MOL0     H  894   4.016   9.526  11.214 -0.4638 -0.9316 -0.1432
    7MOL0     H  895   3.879   9.563  11.100 -2.2376 -0.0635  0.1559
    7MOL0     H  896   3.922   9.441  11.472 -1.3088 -0.7763 -0.1259
    7MOL0     H  897   3.735   9.181  11.570  2.3098  0.6197  0.8048
    7MOL0     H  898   3.767   9.342  11.643  2.1634  0.1430 -0.9371
    7MOL0     H  899   3.512   9.230  11.522  0.8542  0.1942 -0.7698
    7MOL0     H  900   3.520   9.397  11.579 -0.4664  0.3818  1.0103
    7MOL0     H  901   3.564   9.319  11.818  0.5522  1.8203 -1.2510
    7MOL0     H  902   3.567   9.150  11.758  4.5178  1.7598  2.8112
    7MOL0     H  903   3.339   9.212  11.848 -0.5175  2.0781  0.2710
    7MOL0     H  904   3.326   9.205  11.673  0.3860  1.6975 -0.8230
    7MOL0     H  905   3.381   9.618  11.845 -1.0216 -0.8699 -3.3441
    7MOL0     H  906   3.300   9.833  11.893 -1.5166 -0.5792 -0.4959
    7MOL0     H  907   3.149   9.878  11.975  1.0279  1.7457 -3.1047
    7MOL0     H  908   3.289   9.820  12.070  1.4310  0.1645 -0.1526
    7MOL0     H  909   2.701   9.519  11.977  3.1103 -0.2028  1.7238
    7MOL0     H  910   2.463   9.538  12.011 -0.6598  1.7985 -1.4267
    7MOL0     H  911   2.269   9.689  12.054  0.5235 -0.3110 -0.0996
    7MOL0     H  912   2.230   9.526  12.109  1.4937 -0.0314  1.9892
    7MOL0     H  913   2.035   9.680  12.135 -1.6360  0.8995  0.9519
    7MOL0     H  914   2.093   9.630  12.291  0.8258 -1.0241  0.0440
    7MOL0     H  915   2.174   9.900  12.157  2.0597 -1.6827 -0.3750
    7MOL0     H  916   2.190   9.858  12.324 -1.5354  1.1060  0.3904
    7MOL0     H  917   1.897   9.841  12.280 -1.4511  0.6052 -1.2610
    7MOL0     H  918   1.989   9.949  12.377 -1.3138  1.8448 -1.0287
    7MOL0     H  919   1.842  10.010  12.154  0.0673 -1.7605 -2.8948
    7MOL0     H  920   1.988   9.987  12.071  1.9790 -0.7045  1.6471
    7MOL0     H  921   1.939  10.229  12.139  2.3534  0.5043 -1.1887
    7MOL0     H  922   1.949  10.179  12.307 -2.1832 -1.8077 -1.0172
    7MOL0     H  923   2.189  10.173  12.114  2.3650 -1.6171  1.2440
    7MOL0     H  924   2.188  10.116  12.280 -2.0550  0.7162  1.6624
    7MOL0     H  925   2.284  10.360  12.220  1.1439 -0.4605  1.9955
    7MOL0     H  926   2.170  10.350  12.354 -1.0583  3.8402 -0.5670
    7MOL0     H  927   2.556   9.692  12.417  1.7910 -0.6893  1.2039
    7MOL0     H  928   2.794   9.666  12.354  0.8968 -1.0403 -1.0999
    7MOL0     H  929   2.954   9.430  11.978 -0.7586  2.6033  4.3963
    7MOL0     H  930   3.111   9.297  11.836  1.5040  1.1220 -2.0368
    7MOL0     H  931   4.002   9.836  10.904  1.0711  1.5301 -0.5514
    7MOL0     H  932   4.131   9.651  10.859 -2.6662  0.8486 -0.8360
    7MOL0     H  933   4.587   9.431  10.946  2.3735 -0.6700  1.9530
    7MOL0     H  934   4.687   9.228  10.842  1.1052 -3.6640  3.7036
    7MOL0     H  935   4.610   9.047  10.649  0.6877  0.0747  0.2577
    7MOL0     H  936   4.754   9.062  10.758 -0.4598 -0.1877 -0.3775
    7MOL0     H  937   4.787   8.834  10.772  2.1433  1.7597 -0.2924
    7MOL0     H  938   4.826   8.897  10.616 -0.3090  1.6111  1.5435
    7MOL0     H  939   4.611   8.802  10.524  0.4118  2.9518  1.1504
    7MOL0     H  940   4.572   8.743  10.682 -0.6502 -0.5572 -0.7634
    7MOL0     H  941   4.658   8.549  10.566  0.1800  0.1834  0.6979
    7MOL0     H  942   4.785   8.602  10.679 -1.1411 -0.2756  0.3985
    7MOL0     H  943   4.962   8.670  10.297 -2.5609 -1.4023 -2.3272
    7MOL0     H  944   4.364   8.992  10.993 -2.1231  1.7788  1.2062
    7MOL0     H  945   4.249   9.201  11.069 -0.2352 -0.8616 -0.5431
    8MOL0     O  946   6.398   1.397   9.972  0.1938 -0.0079  0.8817
    8MOL0     C  947   6.455   1.418   9.872  0.2576  0.3912  0.2365
    8MOL0     O  948   6.398   1.416   9.750 -0.6042  0.3539 -0.4267
    8MOL0     C  949   6.265   1.391   9.729  0.6267  0.1364  0.0241
    8MOL0     C  950   6.170   1.309   9.811 -0.6207  0.4029  0.3388
    8MOL0     C  951   6.035   1.303   9.778 -0.3819  0.0082 -0.1806
    8MOL0     C  952   5.992   1.382   9.664  0.0892  0.4906  0.3783
    8MOL0     O  953   5.864   1.380   9.609  0.5917  0.1310  0.1346
    8MOL0     C  954   5.784   1.271   9.629  0.6047  0.0377 -0.2820
    8MOL0     C  955   5.680   1.261   9.516  0.2731 -1.0060 -0.2514
    8MOL0     C  956   5.737   1.217   9.377 -0.6718 -0.0585 -0.1753
    8MOL0     C  957   5.622   1.157   9.281  0.0206  0.0429  1.1487
    8MOL0     C  958   5.530   1.039   9.335 -0.2491 -1.0762 -0.0427
    8MOL0     C  959   5.604   0.917   9.380  0.5464 -0.1515  0.4540
    8MOL0     C  960   5.514   0.798   9.410  0.6212 -0.0809 -0.5986
    8MOL0     C  961   5.589   0.679   9.446 -0.9652 -0.0387 -0.1017
    8MOL0     N  962   5.510   0.577   9.516  0.3461  0.1134 -0.0724
    8MOL0     C  963   5.433   0.471   9.462 -0.2538  0.4271 -0.8843
    8MOL0     C  964   5.369   0.416   9.568  0.5483 -0.2105 -0.2844
    8MOL0     C  965   5.279   0.291   9.565  1.0279  1.5081 -0.0908
    8MOL0     C  966   5.142   0.324   9.500  0.5343  0.7605  0.1681
    8MOL0     C  967   5.041   0.387   9.600 -0.4575  0.1473  0.0730
    8MOL0     C  968   4.907   0.402   9.530  0.3893 -0.2364  0.7224
    8MOL0     O  969   4.813   0.306   9.578  0.1582 -0.7316 -0.0183
    8MOL0     C  970   4.690   0.295   9.527  0.2193  0.4391 -0.3850
    8MOL0     C  971   4.641   0.368   9.420 -0.2806  0.0496  0.5011
    8MOL0     C  972   4.510   0.355   9.388  0.1167  0.1042 -1.1495
    8MOL0     C  973   4.455   0.423   9.265  0.2904 -0.1768 -1.1387
    8MOL0     C  974   4.412   0.287   9.465 -0.2757  0.5645  0.3174
    8MOL0     C  975   4.268   0.284   9.449 -0.3753 -1.1215 -0.1103
    8MOL0     O  976   4.210   0.398   9.423 -0.4389 -0.4811  0.5898
    8MOL0     C  977   4.079   0.389   9.384 -0.0583 -0.2160  0.5908
    8MOL0     C  978   3.972   0.356   9.472  0.8468  1.2138  0.5810
    8MOL0     C  979   3.840   0.346   9.414 -0.6062  0.2793  0.5062
    8MOL0     C  980   3.819   0.353   9.274  0.4331  0.2127 -0.6894
    8MOL0     O  981   3.700   0.328   9.213  0.6813 -0.7243 -0.3845
    8MOL0     C  982   3.637   0.202   9.249 -0.0470  0.7101  0.1742
    8MOL0     C  983   3.493   0.197   9.197  0.1094  0.2452  1.1301
    8MOL0     C  984   3.408   0.321   9.248 -0.5191 -0.7792  0.1777
    8MOL0     C  985   3.254   0.308   9.248  0.3977 -0.3440 -0.1051
    8MOL0     C  986   3.202   0.236   9.121 -0.1541  0.1569 -0.3389
    8MOL0     C  987   3.058   0.191   9.135  0.3028  0.9535 -0.0992
    8MOL0     C  988   2.986   0.168   9.003 -0.9443 -0.0647 -0.1780
    8MOL0     C  989   2.849   0.111   9.024  0.1066  0.3558 -0.0266
    8MOL0    Cl  990   2.791   0.049   8.865 -0.0202  0.2265 -0.1032
    8MOL0     C  991   3.930   0.364   9.191  0.1790  0.4075  0.0461
    8MOL0     C  992   4.052   0.400   9.246  0.1320  0.5527 -0.0583
    8MOL0     O  993   4.217   0.175   9.441  0.1848  0.1547 -0.2811
    8MOL0     C  994   4.462   0.206   9.564  0.0189  0.3050 -0.0581
    8MOL0     C  995   4.597   0.212   9.589  0.4550  0.0586  0.6609
    8MOL0     N  996   5.404   0.486   9.677  0.1036  0.6227 -0.3842
    8MOL0     N  997   5.487   0.580   9.648  0.4459 -0.0946 -0.0390
    8MOL0     C  998   6.083   1.463   9.599  0.8948 -1.0877 -0.2492
    8MOL0     C  999   6.213   1.469   9.628 -0.4960 -0.2927  0.3527
    8MOL0     C 1000   6.601   1.453   9.888  0.9062  0.6499  0.5407
    8MOL0     C 1001   6.669   1.407  10.000 -0.2239 -0.2848 -0.5921
    8MOL0     C 1002   6.808   1.414  10.005  0.0492  0.8509 -0.9859
    8MOL0     C 1003   6.878   1.471   9.896  0.0125  0.9415  0.5240
    8MOL0     O 1004   7.011   1.483   9.880 -0.0365  0.1844 -0.4332
    8MOL0     C 1005   7.094   1.386   9.945 -0.3943 -0.0987 -0.4076
    8MOL0     C 1006   7.236   1.410   9.906 -0.2573 -0.2364  0.5111
    8MOL0     C 1007   7.277   1.560   9.883 -0.0035 -0.5833  0.5490
    8MOL0     C 1008   7.424   1.578   9.842 -0.6161  0.0211  0.0089
    8MOL0     C 1009   7.508   1.534   9.960  0.4982 -0.1150 -0.5492
    8MOL0     C 1010   7.592   1.486  10.034  0.3395 -0.1449 -0.0424
    8MOL0     C 1011   6.800   1.512   9.785  0.5820 -0.5342 -0.7037
    8MOL0     C 1012   6.664   1.502   9.774  0.3913 -0.4823  0.9582
    8MOL0     H 1013   6.216   1.258   9.894 -1.2943 -1.8166 -0.5830
    8MOL0     H 1014   5.966   1.242   9.835 -0.1688  2.4464  2.9623
    8MOL0     H 1015   5.847   1.185   9.610  0.5321 -0.1411  0.2669
    8MOL0     H 1016   5.732   1.273   9.726  0.3439  0.5462 -0.4258
    8MOL0     H 1017   5.614   1.180   9.547 -1.4935  0.2773 -0.5088
    8MOL0     H 1018   5.625   1.356   9.513 -0.2421 -1.1664  2.2709
    8MOL0     H 1019   5.789   1.296   9.321 -2.7753 -0.3038 -2.6548
    8MOL0     H 1020   5.818   1.154   9.415 -1.1799  0.9166  2.7888
    8MOL0     H 1021   5.564   1.243   9.247  0.1969 -0.0249  0.6645
    8MOL0     H 1022   5.673   1.111   9.196  0.2421  0.0760  1.2635
    8MOL0     H 1023   5.469   1.074   9.419  0.7538  2.6307 -0.6617
    8MOL0     H 1024   5.466   1.018   9.249  1.7507  3.0914 -2.9065
    8MOL0     H 1025   5.678   0.879   9.309 -0.9234 -2.0734 -0.1512
    8MOL0     H 1026   5.665   0.935   9.469  1.1276  2.7253 -0.4486
    8MOL0     H 1027   5.459   0.833   9.499  1.7083  2.4835 -0.8574
    8MOL0     H 1028   5.453   0.772   9.323 -0.4605 -2.7971  0.8633
    8MOL0     H 1029   5.667   0.707   9.518 -1.2103  2.8609 -0.8548
    8MOL0     H 1030   5.637   0.629   9.361  2.8721 -1.5835  2.6576
    8MOL0     H 1031   5.434   0.441   9.358 -2.0045 -3.3116  0.0322
    8MOL0     H 1032   5.322   0.210   9.505 -1.2985  1.0264 -1.2036
    8MOL0     H 1033   5.272   0.252   9.667 -0.1031  0.2405 -0.6163
    8MOL0     H 1034   5.095   0.227   9.483  0.8235  0.7709 -0.7650
    8MOL0     H 1035   5.148   0.372   9.402 -1.0295  0.5057 -0.0662
    8MOL0     H 1036   5.094   0.480   9.622  4.1041 -2.0889 -0.2740
    8MOL0     H 1037   5.037   0.329   9.692  1.7094  0.1634  0.2283
    8MOL0     H 1038   4.905   0.397   9.421  0.0711  0.8391  0.6702
    8MOL0     H 1039   4.877   0.506   9.543 -0.6940  0.1096 -3.2422
    8MOL0     H 1040   4.697   0.434   9.354 -2.3168  1.9423  0.5646
    8MOL0     H 1041   4.529   0.437   9.186  0.2278 -0.1677 -1.1970
    8MOL0     H 1042   4.371   0.370   9.220  0.8897  0.1297 -2.6585
    8MOL0     H 1043   4.411   0.518   9.300  1.2554  0.9686 -2.9036
    8MOL0     H 1044   3.982   0.338   9.578 -1.4971  1.2691  0.8613
    8MOL0     H 1045   3.752   0.343   9.478 -2.6980  2.1512 -2.0346
    8MOL0     H 1046   3.708   0.128   9.212 -1.0472 -1.3305  2.1585
    8MOL0     H 1047   3.628   0.188   9.357  5.2524 -1.6965  0.6419
    8MOL0     H 1048   3.491   0.180   9.089  0.8867 -0.2061  1.1804
    8MOL0     H 1049   3.456   0.101   9.233 -0.7315 -0.1381 -0.6557
    8MOL0     H 1050   3.434   0.398   9.175  2.0395 -0.5518  1.2116
    8MOL0     H 1051   3.447   0.360   9.342 -1.8790 -0.7164  0.7344
    8MOL0     H 1052   3.229   0.266   9.346 -0.7009  2.1619  0.7747
    8MOL0     H 1053   3.207   0.407   9.239 -1.0744 -0.9882  0.1641
    8MOL0     H 1054   3.258   0.150   9.082  0.0578  1.0670 -2.1552
    8MOL0     H 1055   3.206   0.310   9.041 -1.1201  3.0005  2.0732
    8MOL0     H 1056   3.061   0.093   9.183 -1.0946 -1.4921 -4.4117
    8MOL0     H 1057   3.002   0.262   9.196 -4.7101 -0.0838 -2.9765
    8MOL0     H 1058   3.041   0.099   8.940  0.6435  2.7218 -2.0828
    8MOL0     H 1059   2.973   0.263   8.949  0.9912  0.7910  0.7676
    8MOL0     H 1060   2.782   0.189   9.062 -0.0431 -0.2983  1.1233
    8MOL0     H 1061   2.850   0.028   9.096 -0.1087  2.5059  2.6046
    8MOL0     H 1062   3.938   0.344   9.085  1.5347  0.6190  0.0832
    8MOL0     H 1063   4.128   0.412   9.171  0.4091 -0.2451  0.0884
    8MOL0     H 1064   4.391   0.148   9.621 -1.5344  0.5852 -1.6048
    8MOL0     H 1065   4.630   0.137   9.660  0.5170 -0.8583 -0.3161
    8MOL0     H 1066   6.039   1.529   9.524 -1.6463 -0.4326  1.6408
    8MOL0     H 1067   6.275   1.545   9.581 -0.6092 -0.1689  0.4043
    8MOL0     H 1068   6.625   1.374  10.094  0.5616  0.2911 -0.0048
    8MOL0     H 1069   6.869   1.384  10.090  1.8410  0.0902 -2.4666
    8MOL0     H 1070   7.096   1.413  10.050  0.8733 -2.0470  0.1170
    8MOL0     H 1071   7.062   1.281   9.937  0.9927 -0.4113 -2.7028
    8MOL0     H 1072   7.235   1.361   9.808 -0.9953  0.7884 -0.0107
    8MOL0     H 1073   7.312   1.365   9.971 -1.0133  0.5336  1.9796
    8MOL0     H 1074   7.252   1.630   9.963  2.0727 -0.3578  1.0750
    8MOL0     H 1075   7.225   1.601   9.796  1.1869 -1.8330 -0.8039
    8MOL0     H 1076   7.429   1.685   9.820  1.8560  0.5091  2.3619
    8MOL0     H 1077   7.446   1.523   9.750  1.2578  1.9386 -0.7759
    8MOL0     H 1078   7.665   1.456  10.106 -0.0565  2.7996  1.7357
    8MOL0     H 1079   6.847   1.560   9.699 -1.6747 -0.7138 -2.1047
    8MOL0     H 1080   6.611   1.536   9.686  0.2828 -1.7252  0.5232
    9MOL0     O 1081   0.972   5.996   9.049 -0.1679 -0.4659  0.0840
    9MOL0     C 1082   1.059   6.010   8.970 -1.6259  0.5195  0.1524
    9MOL0     O 1083   1.050   6.029   8.833  0.3666 -0.0970  1.0208
    9MOL0     C 1084   0.924   6.034   8.769 -0.1105  0.4086 -0.5863
    9MOL0     C 1085   0.863   5.910   8.733  0.4123  0.1288 -0.7305
    9MOL0     C 1086   0.743   5.911   8.659  0.6616  0.5230 -0.3673
    9MOL0     C 1087   0.685   6.033   8.619 -1.0835 -0.2639 -1.2851
    9MOL0     O 1088   0.569   6.029   8.551 -0.9234  0.5503  0.2318
    9MOL0     C 1089   0.577   6.075   8.417 -0.1088 -1.1024  0.8831
    9MOL0     C 1090   0.433   6.076   8.353 -0.9150 -0.2929  0.5238
    9MOL0     C 1091   0.431   6.132   8.211  0.4226 -0.0666 -0.6700
    9MOL0     C 1092   0.298   6.100   8.132 -0.5802 -0.6042 -0.0701
    9MOL0     C 1093   0.319   6.128   7.986  0.6155 -0.0178 -0.4592
    9MOL0     C 1094   0.363   6.007   7.906 -1.1952 -0.5555 -0.2626
    9MOL0     C 1095   0.255   5.912   7.865  0.0913 -0.0589  0.1723
    9MOL0     C 1096   0.304   5.800   7.773 -0.3592 -0.6201  0.9034
    9MOL0     N 1097   0.362   5.855   7.650 -0.4762  0.5778  0.3197
    9MOL0     C 1098   0.293   5.936   7.568  0.4218  0.0895  0.7294
    9MOL0     C 1099   0.379   6.000   7.487 -0.0972 -0.4266  0.2071
    9MOL0     C 1100   0.337   6.111   7.388 -0.2297 -0.6167 -1.2145
    9MOL0     C 1101   0.252   6.045   7.273  0.3358  1.1535 -1.7088
    9MOL0     C 1102   0.318   6.061   7.141 -0.6457 -0.1692  0.8282
    9MOL0     C 1103   0.232   6.029   7.015  1.0906  0.8136  0.4276
    9MOL0     O 1104   0.265   5.901   6.956  0.2771 -0.2486 -0.5884
    9MOL0     C 1105   0.212   5.876   6.834 -0.6571 -0.0717 -0.4143
    9MOL0     C 1106   0.097   5.922   6.769  0.2141 -0.1418  0.6753
    9MOL0     C 1107   0.059   5.874   6.643  0.9105  0.5697  0.6092
    9MOL0     C 1108  -0.060   5.934   6.566  1.0971 -0.3265  0.0791
    9MOL0     C 1109   0.133   5.777   6.572 -0.4249  0.4855  0.6078
    9MOL0     C 1110   0.102   5.705   6.438 -0.3957 -0.1723 -0.0057
    9MOL0     O 1111   0.211   5.664   6.369 -0.5706 -0.4031  0.4284
    9MOL0     C 1112   0.225   5.568   6.269 -0.0466  0.3242 -0.0030
    9MOL0     C 1113   0.357   5.556   6.214  0.5330  0.2429 -0.0385
    9MOL0     C 1114   0.370   5.474   6.098 -0.6338 -0.7782  0.1173
    9MOL0     C 1115   0.261   5.410   6.031  0.0348 -0.8694 -0.4575
    9MOL0     O 1116   0.269   5.329   5.921 -0.0298  0.1523 -0.5726
    9MOL0     C 1117   0.378   5.228   5.916  0.3357  0.6086 -0.5740
    9MOL0     C 1118   0.410   5.177   5.773  0.9766 -0.2009 -0.0625
    9MOL0     C 1119   0.301   5.073   5.727  0.3566 -0.6522 -0.5101
    9MOL0     C 1120   0.300   5.056   5.573  0.6620  0.7423  0.5122
    9MOL0     C 1121   0.414   4.970   5.529  0.8374  0.5750  0.9499
    9MOL0     C 1122   0.409   4.939   5.382  0.3271  0.2863 -0.7737
    9MOL0     C 1123   0.511   4.834   5.343  0.3328 -0.7718  0.4192
    9MOL0     C 1124   0.560   4.824   5.190 -0.5468  0.3673  0.5674
    9MOL0    Cl 1125   0.419   4.778   5.093 -0.1332 -0.4107 -0.0143
    9MOL0     C 1126   0.137   5.423   6.092  0.9041 -0.3341  0.1878
    9MOL0     C 1127   0.116   5.501   6.203 -1.2070 -0.3573 -0.5569
    9MOL0     O 1128  -0.012   5.681   6.409 -0.1010 -0.0944  0.3282
    9MOL0     C 1129   0.244   5.730   6.638  0.1098  0.4867 -0.4209
    9MOL0     C 1130   0.289   5.788   6.755 -0.2020  0.0529  0.5502
    9MOL0     N 1131   0.505   5.946   7.523 -0.0064  0.4579  0.3626
    9MOL0     N 1132   0.500   5.850   7.608  0.7648  0.2972  0.4265
    9MOL0     C 1133   0.745   6.152   8.667  0.8315 -0.2598  0.3447
    9MOL0     C 1134   0.869   6.152   8.733 -0.3203 -0.1879 -0.3944
    9MOL0     C 1135   1.203   6.003   9.034  0.2183 -0.0070  0.0253
    9MOL0     C 1136   1.241   5.913   9.137  0.4944 -0.7858 -0.3127
    9MOL0     C 1137   1.366   5.901   9.178 -0.4134  0.1129 -0.9474
    9MOL0     C 1138   1.467   5.976   9.133 -0.1327  0.1246  0.0277
    9MOL0     O 1139   1.591   5.948   9.178 -0.8187  0.2872 -0.2374
    9MOL0     C 1140   1.703   6.022   9.135 -0.7072 -0.2793  0.2334
    9MOL0     C 1141   1.749   6.117   9.239  0.3317  0.2310 -0.7958
    9MOL0     C 1142   1.886   6.186   9.208 -0.6241  0.1959 -0.5536
    9MOL0     C 1143   1.967   6.208   9.343 -0.9272 -0.2840  0.6622
    9MOL0     C 1144   1.917   6.319   9.429  0.7203  0.5091  0.2074
    9MOL0     C 1145   1.892   6.407   9.514  1.3533 -0.8379  0.7921
    9MOL0     C 1146   1.440   6.080   9.033  0.4300  0.4228  0.0042
    9MOL0     C 1147   1.306   6.082   8.984  0.2490  0.3393 -0.4733
    9MOL0     H 1148   0.914   5.816   8.752 -2.4751 -1.0844  1.9744
    9MOL0     H 1149   0.688   5.822   8.633 -0.0945 -0.2167  3.2200
    9MOL0     H 1150   0.600   6.182   8.426 -0.1092 -1.0227  0.0615
    9MOL0     H 1151   0.653   6.014   8.366 -1.6083 -1.6131 -0.8461
    9MOL0     H 1152   0.417   5.970   8.332 -0.7716 -0.1795 -0.2140
    9MOL0     H 1153   0.351   6.115   8.413 -1.5397 -0.5345 -0.1585
    9MOL0     H 1154   0.453   6.239   8.212  0.4453 -0.0516 -1.6535
    9MOL0     H 1155   0.508   6.088   8.146  1.1481 -1.2180  0.9038
    9MOL0     H 1156   0.274   5.995   8.152 -2.6483 -0.0791  0.4335
    9MOL0     H 1157   0.217   6.166   8.166 -0.0341  1.2647 -2.1667
    9MOL0     H 1158   0.224   6.164   7.945 -0.0297 -0.1441  0.8767
    9MOL0     H 1159   0.387   6.213   7.983 -0.5839  0.9968  0.2069
    9MOL0     H 1160   0.398   6.050   7.811 -4.3553  0.7918 -0.9538
    9MOL0     H 1161   0.449   5.957   7.950 -1.7126 -1.6009 -0.4014
    9MOL0     H 1162   0.217   5.860   7.954 -0.8308 -0.0312 -0.1909
    9MOL0     H 1163   0.168   5.964   7.824  0.1952  0.6487  0.8430
    9MOL0     H 1164   0.217   5.743   7.740  0.4878 -1.0946 -0.5984
    9MOL0     H 1165   0.368   5.733   7.831 -1.3956 -2.1376  0.3692
    9MOL0     H 1166   0.189   5.963   7.585  0.7549  1.5660  0.5589
    9MOL0     H 1167   0.269   6.176   7.443 -1.5165 -3.1040  0.2844
    9MOL0     H 1168   0.421   6.168   7.348  0.0091  1.5437  2.0518
    9MOL0     H 1169   0.154   6.094   7.272 -0.6094 -0.4990  0.3888
    9MOL0     H 1170   0.247   5.938   7.295  0.2495  1.5137  0.2563
    9MOL0     H 1171   0.404   5.994   7.143 -1.3550 -1.2226 -1.2730
    9MOL0     H 1172   0.359   6.162   7.126  0.2172 -0.0951  3.2609
    9MOL0     H 1173   0.244   6.102   6.934  0.2450  0.1934 -0.2784
    9MOL0     H 1174   0.127   6.036   7.043  0.6153  2.2058 -1.4934
    9MOL0     H 1175   0.034   5.993   6.821 -1.0658 -0.1807 -0.7515
    9MOL0     H 1176  -0.110   6.017   6.617 -1.7638 -0.6067 -2.0453
    9MOL0     H 1177  -0.020   5.982   6.477  1.3273 -1.3833 -0.4004
    9MOL0     H 1178  -0.139   5.861   6.547 -0.0772  1.1636 -1.0025
    9MOL0     H 1179   0.443   5.595   6.266  0.3964 -0.5920  0.8389
    9MOL0     H 1180   0.472   5.470   6.062  0.5116  1.3466  2.7843
    9MOL0     H 1181   0.469   5.267   5.961 -0.1069  2.1421 -0.9691
    9MOL0     H 1182   0.346   5.138   5.969  1.4959 -0.8311 -2.1951
    9MOL0     H 1183   0.398   5.255   5.698 -1.9907 -0.2324  0.2747
    9MOL0     H 1184   0.509   5.130   5.775 -0.7601 -4.5205  4.0807
    9MOL0     H 1185   0.201   5.110   5.751  0.3395 -1.2484  0.3699
    9MOL0     H 1186   0.313   4.986   5.792  0.0164 -0.3093  0.0246
    9MOL0     H 1187   0.201   5.017   5.545  0.6852  0.1229  1.2697
    9MOL0     H 1188   0.307   5.158   5.535 -1.8721  1.1691  1.0091
    9MOL0     H 1189   0.403   4.880   5.590  0.3887  0.3670  0.5619
    9MOL0     H 1190   0.506   5.025   5.551  1.4551  0.5055 -1.2113
    9MOL0     H 1191   0.313   4.902   5.346  0.4710  1.1029 -2.0718
    9MOL0     H 1192   0.420   5.029   5.321  0.3349  0.9579  0.1880
    9MOL0     H 1193   0.467   4.735   5.357 -2.0591  0.0024 -1.0574
    9MOL0     H 1194   0.603   4.853   5.400  2.6095  2.4705 -3.7316
    9MOL0     H 1195   0.628   4.740   5.176  1.2161  2.1425 -3.4821
    9MOL0     H 1196   0.606   4.920   5.162  0.0796 -0.1256 -0.1211
    9MOL0     H 1197   0.048   5.375   6.050  1.5094 -0.9383 -0.4305
    9MOL0     H 1198   0.011   5.506   6.230 -1.2848 -1.1079 -0.7003
    9MOL0     H 1199   0.302   5.651   6.593  2.2776  2.8307 -2.0501
    9MOL0     H 1200   0.388   5.761   6.792  0.8828  0.4000 -1.8706
    9MOL0     H 1201   0.688   6.241   8.642 -2.1768 -2.2445 -0.3792
    9MOL0     H 1202   0.919   6.241   8.769 -0.5980 -0.3324  0.3705
    9MOL0     H 1203   1.159   5.858   9.181  0.5874  0.7505  1.9561
    9MOL0     H 1204   1.386   5.818   9.244 -1.6476 -0.0873 -0.7897
    9MOL0     H 1205   1.780   5.949   9.107 -1.2939 -0.1221 -1.9907
    9MOL0     H 1206   1.686   6.070   9.038 -1.5605  0.0694  0.5515
    9MOL0     H 1207   1.757   6.057   9.330  0.8794  0.2191 -0.8492
    9MOL0     H 1208   1.670   6.192   9.238 -0.7823 -0.8966 -1.2794
    9MOL0     H 1209   1.856   6.282   9.166 -2.1461 -0.4211 -0.9325
    9MOL0     H 1210   1.943   6.121   9.140 -0.4433 -0.7625  0.4714
    9MOL0     H 1211   2.071   6.217   9.311 -1.0456 -2.7749 -0.7770
    9MOL0     H 1212   1.972   6.117   9.405 -0.5712 -1.5279 -1.1077
    9MOL0     H 1213   1.880   6.483   9.589  3.4172 -0.3138  0.6617
    9MOL0     H 1214   1.514   6.145   8.989 -0.2498  0.4119 -1.1872
    9MOL0     H 1215   1.278   6.147   8.902  1.1834  0.8885 -0.3718
   10MOL0     O 1216   8.040   5.528   1.634  0.5036  0.5069  0.0552
   10MOL0     C 1217   8.030   5.501   1.508 -0.0790  0.0880 -0.7104
   10MOL0     O 1218   7.922   5.523   1.420  0.3135 -0.5996 -0.0233
   10MOL0     C 1219   7.812   5.607   1.452 -0.3792  0.7363  0.8528
   10MOL0     C 1220   7.697   5.576   1.381  0.6029  0.2958 -0.2256
   10MOL0     C 1221   7.583   5.662   1.392 -0.6566  0.1377 -0.0423
   10MOL0     C 1222   7.591   5.772   1.473  0.1076 -0.6452 -1.2962
   10MOL0     O 1223   7.481   5.859   1.476 -0.9389 -0.1916 -0.4860
   10MOL0     C 1224   7.435   5.911   1.608  0.2889  0.3257  0.3643
   10MOL0     C 1225   7.314   5.996   1.599 -0.4559 -0.2774  0.1639
   10MOL0     C 1226   7.323   6.123   1.516  0.1617  0.3498 -0.4456
   10MOL0     C 1227   7.238   6.236   1.576 -0.4424  0.4771  1.1681
   10MOL0     C 1228   7.084   6.211   1.599 -0.4044 -0.1730 -0.6860
   10MOL0     C 1229   7.016   6.341   1.566 -0.4907 -0.0084  0.2640
   10MOL0     C 1230   6.869   6.344   1.602  0.7692  0.0796  0.7980
   10MOL0     C 1231   6.811   6.478   1.560 -0.9617  0.0765 -0.8445
   10MOL0     N 1232   6.670   6.491   1.597 -0.0704  1.0455 -0.3598
   10MOL0     C 1233   6.633   6.542   1.720  0.2730  0.6316  0.3352
   10MOL0     C 1234   6.493   6.535   1.725  0.3966  0.9174  0.7066
   10MOL0     C 1235   6.410   6.579   1.837 -0.2501  0.1955  0.0467
   10MOL0     C 1236   6.370   6.722   1.819  0.4191 -1.3506 -0.0583
   10MOL0     C 1237   6.288   6.762   1.941 -0.3925 -0.0573 -1.1125
   10MOL0     C 1238   6.265   6.910   1.964  0.0163 -0.2443 -0.4932
   10MOL0     O 1239   6.171   6.946   2.078 -0.0388  0.5831  0.3875
   10MOL0     C 1240   6.035   6.950   2.064 -1.0004 -0.0587 -0.0425
   10MOL0     C 1241   5.963   6.953   2.180  0.1648 -1.0902 -0.4027
   10MOL0     C 1242   5.820   6.951   2.187 -0.0488  0.0497 -0.3842
   10MOL0     C 1243   5.759   6.915   2.323 -0.3892  0.2131 -0.1248
   10MOL0     C 1244   5.749   6.959   2.060  0.1411  0.7678 -0.3423
   10MOL0     C 1245   5.599   6.955   2.040  0.9447  0.0288  0.3376
   10MOL0     O 1246   5.562   6.876   1.930  0.3111  0.2254 -0.4249
   10MOL0     C 1247   5.457   6.936   1.863 -0.7862  0.1449  0.5043
   10MOL0     C 1248   5.483   7.007   1.744  1.0596 -0.6786 -0.0855
   10MOL0     C 1249   5.378   7.073   1.679 -0.9880  0.2949 -0.4805
   10MOL0     C 1250   5.251   7.093   1.739  0.4352 -0.3073 -0.4796
   10MOL0     O 1251   5.154   7.179   1.687  0.2085  0.3132 -0.6646
   10MOL0     C 1252   5.197   7.318   1.691  0.3321  1.1974  0.2180
   10MOL0     C 1253   5.125   7.406   1.795 -0.6572  1.4471 -0.9376
   10MOL0     C 1254   4.976   7.403   1.772  0.4989  0.1401 -0.5457
   10MOL0     C 1255   4.910   7.533   1.831 -0.1979  0.0451 -0.6933
   10MOL0     C 1256   4.754   7.522   1.812  0.9567 -0.0683  0.2547
   10MOL0     C 1257   4.701   7.502   1.670  0.5234 -0.2294  0.7892
   10MOL0     C 1258   4.553   7.508   1.651  0.0875  0.5264  0.0984
   10MOL0     C 1259   4.521   7.465   1.507 -0.3524  0.6544  0.2020
   10MOL0    Cl 1260   4.606   7.572   1.386 -0.1423 -0.1330  0.2093
   10MOL0     C 1261   5.233   7.029   1.862  0.2431  0.3822  0.0476
   10MOL0     C 1262   5.329   6.946   1.922 -0.4667  0.2552 -0.0766
   10MOL0     O 1263   5.522   7.017   2.115 -1.0201 -0.3200 -0.1801
   10MOL0     C 1264   5.823   6.978   1.944 -0.2124 -0.0135 -0.5151
   10MOL0     C 1265   5.967   6.967   1.947 -0.8357 -0.1372  0.0447
   10MOL0     N 1266   6.467   6.445   1.625 -0.6291  0.8555 -0.3658
   10MOL0     N 1267   6.561   6.418   1.549 -0.4029  0.4755  0.4737
   10MOL0     C 1268   7.711   5.806   1.539  0.4915 -0.2757 -0.0938
   10MOL0     C 1269   7.815   5.721   1.527 -0.1267 -0.0744 -0.0309
   10MOL0     C 1270   8.144   5.425   1.455  0.2089 -0.1462  0.0242
   10MOL0     C 1271   8.154   5.402   1.320  0.3820 -0.0457  0.1241
   10MOL0     C 1272   8.257   5.330   1.258  0.5624 -0.2792  0.3033
   10MOL0     C 1273   8.357   5.284   1.341 -0.5406  0.4848  0.8116
   10MOL0     O 1274   8.473   5.224   1.302 -0.3886 -0.0404  0.0582
   10MOL0     C 1275   8.496   5.229   1.157 -0.2720 -0.3033  0.6610
   10MOL0     C 1276   8.637   5.167   1.117  0.4900  0.4615  0.4509
   10MOL0     C 1277   8.626   5.011   1.125  0.9541 -0.4457 -0.4927
   10MOL0     C 1278   8.763   4.938   1.122  0.6180 -0.5326 -0.2409
   10MOL0     C 1279   8.810   4.924   0.986 -0.6126  0.7985  0.6641
   10MOL0     C 1280   8.862   4.901   0.877 -0.8909  0.9071  0.8252
   10MOL0     C 1281   8.343   5.290   1.480 -0.0767 -0.0235 -0.0757
   10MOL0     C 1282   8.242   5.363   1.535 -0.3843  0.4929  0.0773
   10MOL0     H 1283   7.695   5.493   1.312 -3.3957 -2.5887  2.8419
   10MOL0     H 1284   7.498   5.619   1.341 -0.8239  0.4104  0.0097
   10MOL0     H 1285   7.404   5.825   1.669 -1.9105  3.0145  3.3992
   10MOL0     H 1286   7.513   5.959   1.668 -0.0143  0.5345  0.5916
   10MOL0     H 1287   7.236   5.933   1.555 -2.2273  0.7456  1.6589
   10MOL0     H 1288   7.291   6.020   1.704 -2.9655  2.7076 -0.9220
   10MOL0     H 1289   7.421   6.170   1.522  0.1243  0.1836  2.5427
   10MOL0     H 1290   7.299   6.101   1.411 -0.2618  0.7518 -0.4393
   10MOL0     H 1291   7.277   6.287   1.665 -1.3026  1.9769  0.7198
   10MOL0     H 1292   7.249   6.303   1.490  1.7667 -1.8736 -0.5242
   10MOL0     H 1293   7.039   6.133   1.536 -3.1073  1.4031 -0.8871
   10MOL0     H 1294   7.069   6.177   1.702  0.5027 -3.0444 -1.4138
   10MOL0     H 1295   7.063   6.424   1.620  0.3161 -0.9777  1.0851
   10MOL0     H 1296   7.030   6.360   1.459  0.9144 -0.9854  0.2527
   10MOL0     H 1297   6.830   6.254   1.554  1.6848 -0.1124  0.3999
   10MOL0     H 1298   6.854   6.329   1.710 -1.0540  1.5804  0.8145
   10MOL0     H 1299   6.819   6.481   1.450 -0.6837  3.5019 -0.8477
   10MOL0     H 1300   6.874   6.561   1.594 -3.6227  1.2501  1.6524
   10MOL0     H 1301   6.691   6.578   1.804 -0.2369 -1.0881  1.4485
   10MOL0     H 1302   6.319   6.520   1.841 -0.8259  1.0915  0.6094
   10MOL0     H 1303   6.445   6.570   1.941 -0.5534  1.6767  0.2953
   10MOL0     H 1304   6.316   6.739   1.725  2.2268 -2.0457 -1.2798
   10MOL0     H 1305   6.462   6.781   1.818  0.5213 -1.4246  1.8505
   10MOL0     H 1306   6.347   6.735   2.028  0.6258 -0.4087 -1.8965
   10MOL0     H 1307   6.197   6.700   1.941 -0.9308  0.7074 -1.8808
   10MOL0     H 1308   6.220   6.939   1.869  0.0282 -1.3305 -0.8376
   10MOL0     H 1309   6.360   6.966   1.970 -1.4414  2.4063 -0.5126
   10MOL0     H 1310   6.010   6.937   2.277 -0.9103  1.8964  0.7281
   10MOL0     H 1311   5.828   6.860   2.387 -0.6245 -1.3543 -1.1776
   10MOL0     H 1312   5.712   7.005   2.364 -2.6063 -0.4772 -0.9917
   10MOL0     H 1313   5.670   6.853   2.305 -0.7018  0.2738  1.1072
   10MOL0     H 1314   5.580   7.006   1.694  1.4439 -0.4163  0.6462
   10MOL0     H 1315   5.389   7.120   1.581 -0.5567  1.5186  0.1335
   10MOL0     H 1316   5.305   7.329   1.701  0.6021  0.8487 -1.7736
   10MOL0     H 1317   5.169   7.338   1.587  1.3089 -2.1976 -0.8312
   10MOL0     H 1318   5.143   7.362   1.894  0.5855  1.0774 -1.3104
   10MOL0     H 1319   5.168   7.506   1.799  0.6485  0.8624  2.0711
   10MOL0     H 1320   4.924   7.319   1.818 -2.0776  1.4823 -0.8002
   10MOL0     H 1321   4.959   7.400   1.664  0.1869 -2.3938 -0.4686
   10MOL0     H 1322   4.928   7.552   1.937 -2.4778 -2.3404  0.2355
   10MOL0     H 1323   4.949   7.609   1.762 -0.9159  2.5962  1.5199
   10MOL0     H 1324   4.720   7.613   1.862  3.1486 -0.4986  2.7838
   10MOL0     H 1325   4.720   7.446   1.883  1.0355 -1.3266 -1.0109
   10MOL0     H 1326   4.746   7.574   1.601  0.7962 -2.8831 -2.0047
   10MOL0     H 1327   4.728   7.401   1.637 -0.5327 -0.6531  1.2071
   10MOL0     H 1328   4.515   7.608   1.672  0.5833  0.7647 -0.1277
   10MOL0     H 1329   4.514   7.428   1.715  2.1781  0.4541  1.3646
   10MOL0     H 1330   4.416   7.488   1.487 -0.3361  1.7873  1.2778
   10MOL0     H 1331   4.531   7.357   1.496 -2.8833  0.0362  2.7971
   10MOL0     H 1332   5.138   7.044   1.913  0.6051  1.1757  0.5019
   10MOL0     H 1333   5.293   6.890   2.007 -2.1383  1.6581  0.1903
   10MOL0     H 1334   5.778   6.990   1.846  1.2917  0.3531 -1.1920
   10MOL0     H 1335   6.026   6.961   1.857 -1.4681 -0.4045 -0.3586
   10MOL0     H 1336   7.733   5.900   1.588 -3.1482  3.6883 -4.9763
   10MOL0     H 1337   7.903   5.754   1.583  0.3627 -1.5535  0.0998
   10MOL0     H 1338   8.087   5.459   1.256 -0.4919 -0.8908  0.2784
   10MOL0     H 1339   8.256   5.307   1.152  1.4069 -0.6919  0.3764
   10MOL0     H 1340   8.425   5.171   1.098  0.1129 -0.1961  0.0727
   10MOL0     H 1341   8.497   5.335   1.130  0.2954 -0.6530 -0.8280
   10MOL0     H 1342   8.704   5.218   1.187  3.6010 -2.5137 -0.0883
   10MOL0     H 1343   8.651   5.185   1.010  1.0020 -0.8785  0.2744
   10MOL0     H 1344   8.571   4.973   1.039  0.0590  1.6293 -0.9113
   10MOL0     H 1345   8.585   4.972   1.219  3.2724 -1.2387  0.2628
   10MOL0     H 1346   8.748   4.839   1.166  1.3150  1.1428  4.2558
   10MOL0     H 1347   8.839   4.978   1.189 -0.1971  4.2333 -1.8073
   10MOL0     H 1348   8.910   4.870   0.786  0.8000  0.2838  1.8943
   10MOL0     H 1349   8.421   5.238   1.535  0.7702 -0.6892 -1.8337
   10MOL0     H 1350   8.243   5.360   1.644  0.4049 -1.7349  0.0620
   11MOL0     O 1351   9.253   3.440   3.127  0.4685  0.4523  0.2724
   11MOL0     C 1352   9.154   3.416   3.192  0.0995 -0.1764 -0.1576
   11MOL0     O 1353   9.075   3.305   3.177  0.4169  0.0515  0.0189
   11MOL0     C 1354   9.101   3.195   3.105 -0.6182 -0.1891  0.5198
   11MOL0     C 1355   9.225   3.137   3.106 -0.1708 -0.1571  0.2702
   11MOL0     C 1356   9.247   3.029   3.021 -0.4121 -0.4973  0.1431
   11MOL0     C 1357   9.138   2.957   2.964  0.2877 -0.2034  0.3754
   11MOL0     O 1358   9.155   2.843   2.889 -0.3647  0.2484  0.1050
   11MOL0     C 1359   9.176   2.890   2.756  0.4662 -0.2397 -0.6576
   11MOL0     C 1360   9.152   2.776   2.660 -0.5145 -0.7850 -0.1948
   11MOL0     C 1361   9.234   2.797   2.524 -1.4067  0.2739 -0.2667
   11MOL0     C 1362   9.383   2.821   2.541 -0.0806  0.0394 -0.3494
   11MOL0     C 1363   9.459   2.785   2.416 -0.5311  0.2489 -0.5891
   11MOL0     C 1364   9.606   2.834   2.418 -0.1515  0.0963  0.1443
   11MOL0     C 1365   9.697   2.750   2.327 -0.0362  0.2564  0.5887
   11MOL0     C 1366   9.842   2.782   2.357 -0.1541  0.5066 -0.7415
   11MOL0     N 1367   9.925   2.716   2.253 -0.0267 -0.3103 -0.0893
   11MOL0     C 1368   9.987   2.593   2.263  1.1721  0.4309 -0.0981
   11MOL0     C 1369  10.053   2.568   2.152 -1.0623 -0.3798  1.5366
   11MOL0     C 1370  10.136   2.439   2.121  0.4541  0.9257 -0.1372
   11MOL0     C 1371  10.289   2.476   2.117 -1.1404 -0.4230  0.5134
   11MOL0     C 1372  10.330   2.527   2.256 -0.1730  0.9820 -0.2039
   11MOL0     C 1373  10.486   2.553   2.263  0.0884 -1.3938  0.2145
   11MOL0     O 1374  10.523   2.592   2.403  0.0568  0.1126  0.2928
   11MOL0     C 1375  10.657   2.620   2.419  1.1335 -0.7599  0.4560
   11MOL0     C 1376  10.705   2.631   2.551 -0.7535 -0.3398  0.1549
   11MOL0     C 1377  10.835   2.654   2.585 -0.6165 -0.7333  0.3934
   11MOL0     C 1378  10.862   2.661   2.735  0.0381 -0.6860  0.0726
   11MOL0     C 1379  10.932   2.661   2.479  0.1978  0.2323 -0.1664
   11MOL0     C 1380  11.076   2.656   2.496  0.0917  0.5246 -0.6882
   11MOL0     O 1381  11.149   2.762   2.452 -0.2269  0.1500 -0.2580
   11MOL0     C 1382  11.277   2.765   2.506  0.1357  0.8895 -0.1762
   11MOL0     C 1383  11.380   2.705   2.438  0.1992  0.2759 -0.3257
   11MOL0     C 1384  11.514   2.719   2.485 -0.0013  0.1057 -0.3631
   11MOL0     C 1385  11.543   2.799   2.599 -0.0647 -0.0201 -0.0178
   11MOL0     O 1386  11.671   2.831   2.636  0.4298 -0.8525 -0.1468
   11MOL0     C 1387  11.782   2.754   2.592 -0.3710 -0.0947  0.9645
   11MOL0     C 1388  11.916   2.823   2.623  0.5230  0.9418  0.4526
   11MOL0     C 1389  11.958   2.904   2.499 -1.0693  0.9958 -0.6548
   11MOL0     C 1390  12.074   3.002   2.525 -0.7816 -0.6548  0.0778
   11MOL0     C 1391  12.177   3.011   2.406 -0.1465 -0.9304  0.0086
   11MOL0     C 1392  12.260   3.138   2.417 -0.8915  0.5183 -0.5182
   11MOL0     C 1393  12.370   3.120   2.518  1.1411 -0.4751 -0.3743
   11MOL0     C 1394  12.443   3.248   2.562  0.0546  0.1337  0.1347
   11MOL0    Cl 1395  12.558   3.202   2.685 -0.4405  0.0856  0.3849
   11MOL0     C 1396  11.433   2.853   2.666 -0.1648 -0.1748  0.4730
   11MOL0     C 1397  11.302   2.834   2.629  0.2614 -1.2249  0.1473
   11MOL0     O 1398  11.121   2.552   2.551  0.4593  0.8652  0.3353
   11MOL0     C 1399  10.885   2.651   2.352  0.1224  0.6161  0.6959
   11MOL0     C 1400  10.752   2.635   2.319 -0.5288  0.5542  0.7113
   11MOL0     N 1401  10.041   2.677   2.076 -0.1633 -0.8835 -0.0385
   11MOL0     N 1402   9.967   2.765   2.138 -0.2543 -0.1199  0.1712
   11MOL0     C 1403   9.005   3.012   2.972 -0.4605  0.6319  0.5989
   11MOL0     C 1404   8.993   3.129   3.041 -0.4140  0.3571 -0.6337
   11MOL0     C 1405   9.099   3.516   3.288 -0.1207  0.2643 -0.2025
   11MOL0     C 1406   8.977   3.487   3.356  0.4572 -0.0714 -0.5775
   11MOL0     C 1407   8.919   3.588   3.438 -0.9316  0.1409  0.2819
   11MOL0     C 1408   8.984   3.711   3.446  0.3723 -0.1295 -1.0811
   11MOL0     O 1409   8.941   3.811   3.532  0.4185  0.5930 -0.0498
   11MOL0     C 1410   8.829   3.782   3.616  0.8621 -1.5254  0.2853
   11MOL0     C 1411   8.812   3.885   3.728 -0.0120  0.5899  0.2847
   11MOL0     C 1412   8.682   3.855   3.808 -0.0175  0.2340 -0.4156
   11MOL0     C 1413   8.633   3.985   3.858 -0.6411  0.9537 -0.1264
   11MOL0     C 1414   8.513   3.964   3.936  0.0033 -0.1326  0.1788
   11MOL0     C 1415   8.413   3.972   3.997  0.9227  0.0986 -0.5244
   11MOL0     C 1416   9.109   3.737   3.388 -0.9139  0.1922 -0.3052
   11MOL0     C 1417   9.167   3.639   3.303  0.1873  0.5112  0.1938
   11MOL0     H 1418   9.302   3.191   3.162 -1.4540  1.4988  0.5266
   11MOL0     H 1419   9.339   2.976   3.000 -1.3004 -1.3140 -1.9574
   11MOL0     H 1420   9.126   2.985   2.734 -2.1906 -1.2663  0.5298
   11MOL0     H 1421   9.281   2.920   2.755  0.3225  0.2902 -1.7604
   11MOL0     H 1422   9.170   2.684   2.716  1.1455  0.8753  2.1588
   11MOL0     H 1423   9.050   2.769   2.620 -0.4697 -1.8064 -0.1654
   11MOL0     H 1424   9.226   2.711   2.457  0.0107 -0.1004 -0.0046
   11MOL0     H 1425   9.189   2.867   2.453  1.0158 -1.4900 -3.8910
   11MOL0     H 1426   9.404   2.928   2.554  0.8759  0.0531 -1.8036
   11MOL0     H 1427   9.422   2.767   2.628 -2.9181 -2.2548 -0.3696
   11MOL0     H 1428   9.462   2.676   2.405  1.2220 -0.4636  4.4528
   11MOL0     H 1429   9.412   2.822   2.324  1.2424  1.4805 -1.0585
   11MOL0     H 1430   9.598   2.939   2.388 -1.4433 -0.9383 -3.7009
   11MOL0     H 1431   9.644   2.831   2.521  2.6447  1.6270 -0.7349
   11MOL0     H 1432   9.684   2.642   2.337  0.8504 -0.4380 -3.7505
   11MOL0     H 1433   9.684   2.770   2.220  2.0980  1.0235  0.4107
   11MOL0     H 1434   9.868   2.736   2.453 -1.0569 -0.2190 -0.8367
   11MOL0     H 1435   9.872   2.887   2.353 -0.6381  0.6995  0.3701
   11MOL0     H 1436   9.963   2.527   2.345 -2.6375  1.8647  0.1213
   11MOL0     H 1437  10.119   2.351   2.183 -0.3327  1.2858  0.1776
   11MOL0     H 1438  10.106   2.406   2.021 -0.7893 -1.8161  1.0366
   11MOL0     H 1439  10.321   2.549   2.042  2.3254 -1.4675  0.8022
   11MOL0     H 1440  10.350   2.388   2.095  0.7466  0.4750  1.9381
   11MOL0     H 1441  10.302   2.445   2.323  1.9786  0.4791  0.1678
   11MOL0     H 1442  10.274   2.615   2.288 -3.2921 -1.5889  2.2067
   11MOL0     H 1443  10.519   2.631   2.193  1.3359 -3.1510 -1.2751
   11MOL0     H 1444  10.542   2.463   2.235 -1.3628 -1.6633 -2.1350
   11MOL0     H 1445  10.638   2.603   2.631  4.0844 -2.9810  3.8464
   11MOL0     H 1446  10.777   2.705   2.788  0.4130 -1.2237  1.1531
   11MOL0     H 1447  10.892   2.565   2.776 -1.0197 -0.5472  1.2323
   11MOL0     H 1448  10.948   2.724   2.759 -1.0463  0.6690  0.5602
   11MOL0     H 1449  11.345   2.660   2.346 -4.6667  2.2428  0.2249
   11MOL0     H 1450  11.588   2.666   2.426  1.8624 -0.9979  2.7256
   11MOL0     H 1451  11.769   2.651   2.626 -2.6060 -1.5768 -3.5049
   11MOL0     H 1452  11.781   2.749   2.482  0.1385  2.7462  0.7424
   11MOL0     H 1453  11.899   2.875   2.718 -1.0682  1.2124  0.0523
   11MOL0     H 1454  11.994   2.746   2.629  0.0125  0.5087  2.0769
   11MOL0     H 1455  11.871   2.953   2.454 -1.8995  1.2792  1.1998
   11MOL0     H 1456  12.008   2.827   2.439  0.4621 -0.2102  2.0279
   11MOL0     H 1457  12.038   3.100   2.559  2.7053  1.2967 -1.2908
   11MOL0     H 1458  12.137   2.961   2.604  0.5441  3.8758  1.6715
   11MOL0     H 1459  12.118   3.015   2.314  0.5798  0.2244 -0.4296
   11MOL0     H 1460  12.228   2.914   2.412 -0.5084 -1.1546 -0.4177
   11MOL0     H 1461  12.294   3.156   2.314 -1.7053 -0.6525 -1.0203
   11MOL0     H 1462  12.194   3.220   2.447 -2.1601  0.7499 -3.5480
   11MOL0     H 1463  12.447   3.053   2.480  1.3197 -0.9720  0.8127
   11MOL0     H 1464  12.323   3.077   2.607 -0.1994 -0.4940 -1.0664
   11MOL0     H 1465  12.373   3.322   2.601 -4.5621 -2.5688 -2.1448
   11MOL0     H 1466  12.495   3.290   2.476 -0.4998  0.2425 -0.1518
   11MOL0     H 1467  11.461   2.908   2.756 -0.9553 -0.6267  1.0114
   11MOL0     H 1468  11.222   2.877   2.688  0.5963  3.1016 -2.1626
   11MOL0     H 1469  10.960   2.657   2.274  1.9977 -3.2383  1.9384
   11MOL0     H 1470  10.735   2.626   2.212 -1.4415  1.3482  0.7801
   11MOL0     H 1471   8.923   2.956   2.928 -0.2802 -0.1067  1.1765
   11MOL0     H 1472   8.898   3.179   3.056 -0.9222 -0.9986  1.0123
   11MOL0     H 1473   8.926   3.393   3.336  1.8453 -0.9561 -0.0854
   11MOL0     H 1474   8.821   3.562   3.476  0.4270 -2.1664  2.5952
   11MOL0     H 1475   8.745   3.780   3.545  0.3016 -1.8518  0.9420
   11MOL0     H 1476   8.834   3.683   3.663  2.4118 -1.3023  0.6247
   11MOL0     H 1477   8.823   3.982   3.678 -1.7062  0.6304 -0.0693
   11MOL0     H 1478   8.897   3.888   3.796  1.2507 -0.6055 -1.1549
   11MOL0     H 1479   8.707   3.780   3.884  0.8270 -0.6903 -1.5713
   11MOL0     H 1480   8.606   3.813   3.741  0.1682  2.1384 -1.9168
   11MOL0     H 1481   8.599   4.048   3.774  1.1892 -1.5519 -2.9671
   11MOL0     H 1482   8.700   4.032   3.930  1.0858  0.7851 -1.5338
   11MOL0     H 1483   8.337   3.989   4.071 -3.1928  2.2901 -4.7014
   11MOL0     H 1484   9.165   3.829   3.396  0.9545 -0.8847 -0.3873
   11MOL0     H 1485   9.245   3.667   3.233  1.5456 -0.8813  1.0967
   12MOL0     O 1486   1.823   1.064   7.965 -0.0088  0.4717  0.6264
   12MOL0     C 1487   1.899   1.020   8.049 -0.5221  0.1118  0.8258
   12MOL0     O 1488   1.868   0.921   8.130 -0.1227  0.1889 -0.2129
   12MOL0     C 1489   1.761   0.827   8.106  0.6762  0.4687  0.4276
   12MOL0     C 1490   1.708   0.752   8.218 -0.3270 -0.3336 -0.3433
   12MOL0     C 1491   1.601   0.663   8.209  0.5428 -0.7069 -0.9922
   12MOL0     C 1492   1.539   0.633   8.079 -0.4940  0.2036 -0.5039
   12MOL0     O 1493   1.422   0.563   8.080 -0.7879  0.1522 -0.2283
   12MOL0     C 1494   1.328   0.581   7.975 -0.3182  0.0591  0.2910
   12MOL0     C 1495   1.215   0.482   8.013  0.1837  0.9242 -0.5746
   12MOL0     C 1496   1.084   0.538   7.957  0.4903 -0.1952  0.7729
   12MOL0     C 1497   0.973   0.432   7.986 -0.4257 -0.1486 -0.1996
   12MOL0     C 1498   0.846   0.479   7.907 -0.1172  1.1436  0.5141
   12MOL0     C 1499   0.729   0.385   7.953 -0.3547  0.5264  0.2562
   12MOL0     C 1500   0.596   0.441   7.891 -0.7329  0.0784 -0.1885
   12MOL0     C 1501   0.490   0.323   7.906 -0.6964 -0.4498 -0.0916
   12MOL0     N 1502   0.465   0.274   8.042  0.1080 -0.0567 -0.5814
   12MOL0     C 1503   0.472   0.362   8.150  0.1213 -0.5998 -0.1927
   12MOL0     C 1504   0.519   0.290   8.255 -0.3656  0.3123 -0.3996
   12MOL0     C 1505   0.534   0.332   8.404 -0.2042  0.1871 -0.0435
   12MOL0     C 1506   0.626   0.449   8.405  0.8249  0.1551  0.5595
   12MOL0     C 1507   0.655   0.486   8.545 -1.4171 -0.3522 -0.0458
   12MOL0     C 1508   0.751   0.602   8.541 -0.2229 -0.4250 -0.2798
   12MOL0     O 1509   0.776   0.647   8.676  0.0035 -0.3671  0.7010
   12MOL0     C 1510   0.900   0.713   8.688 -0.2478 -0.6247 -0.6141
   12MOL0     C 1511   0.970   0.789   8.588  0.7200  0.1344 -0.2382
   12MOL0     C 1512   1.089   0.858   8.613  0.1840  0.2003  0.0587
   12MOL0     C 1513   1.124   0.933   8.481 -0.0190  0.5996 -0.7750
   12MOL0     C 1514   1.153   0.842   8.742  0.0347 -0.7190 -0.8374
   12MOL0     C 1515   1.282   0.904   8.776 -0.7365 -0.1250  0.3526
   12MOL0     O 1516   1.354   0.935   8.667 -0.3402  0.4751 -0.8405
   12MOL0     C 1517   1.493   0.954   8.659 -0.4120 -0.1960 -0.1230
   12MOL0     C 1518   1.542   0.952   8.523  0.7516 -1.4146 -0.1260
   12MOL0     C 1519   1.680   0.979   8.495 -0.0346 -0.4415  0.4106
   12MOL0     C 1520   1.765   1.009   8.600  0.1046  0.2428 -0.1812
   12MOL0     O 1521   1.892   1.045   8.589 -0.3523  0.4360  0.5181
   12MOL0     C 1522   1.965   0.988   8.482  0.8526 -0.2907 -0.2498
   12MOL0     C 1523   2.098   1.068   8.492  0.9332 -0.1103  0.2809
   12MOL0     C 1524   2.088   1.212   8.426 -0.6469  0.0323 -0.5358
   12MOL0     C 1525   2.182   1.329   8.469 -0.8796  0.1915  0.0848
   12MOL0     C 1526   2.228   1.406   8.343  0.2343 -0.1165  0.2049
   12MOL0     C 1527   2.128   1.486   8.266  0.4521  0.3596 -0.1724
   12MOL0     C 1528   2.191   1.532   8.138 -0.4074 -0.5059  0.3244
   12MOL0     C 1529   2.102   1.610   8.036  0.0113 -0.1674  1.0784
   12MOL0    Cl 1530   1.966   1.501   7.987 -0.0260 -0.5633 -0.0985
   12MOL0     C 1531   1.712   1.006   8.728 -0.3198 -0.1906  0.0115
   12MOL0     C 1532   1.581   0.976   8.768 -0.3427  1.0514 -0.3603
   12MOL0     O 1533   1.311   0.933   8.892 -0.4798  1.1337 -0.5464
   12MOL0     C 1534   1.083   0.777   8.851  0.8155  1.7804  0.3950
   12MOL0     C 1535   0.956   0.706   8.813  0.4257 -1.3373  0.5333
   12MOL0     N 1536   0.535   0.158   8.211  0.1625  0.4549 -0.6864
   12MOL0     N 1537   0.505   0.151   8.090  0.6689  0.6413  0.4477
   12MOL0     C 1538   1.612   0.682   7.968 -0.3820 -0.2741  0.0142
   12MOL0     C 1539   1.713   0.779   7.978 -0.6612 -0.6631 -0.3730
   12MOL0     C 1540   2.047   1.056   8.041 -0.1257  0.5487 -0.7065
   12MOL0     C 1541   2.082   1.164   7.967 -0.4972 -0.7339  0.3217
   12MOL0     C 1542   2.213   1.200   7.956  0.0363  1.1596  0.1165
   12MOL0     C 1543   2.315   1.132   8.032  0.0550 -0.4242  0.2102
   12MOL0     O 1544   2.445   1.176   8.024  0.3988  0.3888  0.1025
   12MOL0     C 1545   2.514   1.186   7.897  0.7819  0.1791  0.1592
   12MOL0     C 1546   2.666   1.190   7.911 -0.0583  0.9816  0.3096
   12MOL0     C 1547   2.729   1.325   7.941 -0.6920  0.4077 -0.3256
   12MOL0     C 1548   2.673   1.406   8.053  0.0777 -0.1692 -0.2410
   12MOL0     C 1549   2.759   1.522   8.084 -0.4795  0.3144  0.9978
   12MOL0     C 1550   2.823   1.626   8.117 -0.3028  0.1877  0.0333
   12MOL0     C 1551   2.279   1.022   8.107 -0.6150  0.4049  0.6712
   12MOL0     C 1552   2.151   0.979   8.107  0.9129 -0.4518 -0.4895
   12MOL0     H 1553   1.743   0.745   8.321 -1.7352  0.9914  0.2679
   12MOL0     H 1554   1.547   0.613   8.288  0.7344  0.4973 -0.0662
   12MOL0     H 1555   1.304   0.687   7.973  1.7730  0.5652 -0.6181
   12MOL0     H 1556   1.368   0.553   7.877 -2.4256  1.1623 -0.9555
   12MOL0     H 1557   1.240   0.384   7.971  1.0009  0.6738  0.4423
   12MOL0     H 1558   1.215   0.462   8.120  0.7916 -3.2240 -1.1814
   12MOL0     H 1559   1.058   0.629   8.012  1.6215  1.2429 -0.9523
   12MOL0     H 1560   1.089   0.569   7.852 -0.5580  1.0946  1.0758
   12MOL0     H 1561   1.006   0.328   7.984  0.8028  0.1800  1.1852
   12MOL0     H 1562   0.945   0.454   8.090 -1.5907  1.1486 -0.7516
   12MOL0     H 1563   0.824   0.586   7.914 -0.6005  1.2609 -1.8563
   12MOL0     H 1564   0.868   0.455   7.802 -0.7338  1.3198  0.3384
   12MOL0     H 1565   0.759   0.290   7.908 -0.4111  0.6118  0.0375
   12MOL0     H 1566   0.722   0.379   8.062 -0.8039  5.7629  0.7885
   12MOL0     H 1567   0.580   0.536   7.942  1.8044 -0.4482  1.7854
   12MOL0     H 1568   0.606   0.467   7.785  0.4760 -0.6585 -0.2778
   12MOL0     H 1569   0.544   0.252   7.842  0.9582  2.0912 -1.7184
   12MOL0     H 1570   0.393   0.350   7.865  0.0876  2.3911 -0.2419
   12MOL0     H 1571   0.439   0.465   8.158  0.5394 -0.5755  1.7823
   12MOL0     H 1572   0.434   0.366   8.430 -1.1982 -0.5793 -2.5888
   12MOL0     H 1573   0.576   0.252   8.466  2.3321  0.4649 -1.2786
   12MOL0     H 1574   0.582   0.538   8.359  2.4938  0.7003 -0.0397
   12MOL0     H 1575   0.717   0.423   8.351 -0.7534 -2.7921 -0.9265
   12MOL0     H 1576   0.709   0.403   8.592 -0.9977  0.6069  1.2167
   12MOL0     H 1577   0.563   0.504   8.601 -0.1712  2.5986  1.2420
   12MOL0     H 1578   0.710   0.682   8.478 -0.9035  0.4085  1.1726
   12MOL0     H 1579   0.847   0.566   8.501  1.2126  0.4912  2.1100
   12MOL0     H 1580   0.921   0.804   8.492 -2.8616 -2.3962  0.9674
   12MOL0     H 1581   1.032   0.954   8.426 -2.2372 -3.2826  1.0569
   12MOL0     H 1582   1.167   1.030   8.510  1.1893  0.1936 -1.1257
   12MOL0     H 1583   1.194   0.871   8.424  0.1163  2.2289 -2.5176
   12MOL0     H 1584   1.474   0.941   8.440  1.1669  0.4286 -0.7755
   12MOL0     H 1585   1.722   0.999   8.396  2.2778  0.3074  1.4683
   12MOL0     H 1586   1.975   0.880   8.493  1.6098 -0.1542  0.5151
   12MOL0     H 1587   1.936   0.995   8.377  2.1992 -1.0238 -0.6959
   12MOL0     H 1588   2.145   1.075   8.590  3.3025  1.5999 -0.8817
   12MOL0     H 1589   2.171   1.008   8.436  0.3365 -2.0854  1.5236
   12MOL0     H 1590   1.985   1.247   8.442 -0.5112 -0.8890  3.1990
   12MOL0     H 1591   2.093   1.199   8.317  0.1397 -0.6815 -0.4291
   12MOL0     H 1592   2.137   1.395   8.543  0.2992 -0.0273  1.0294
   12MOL0     H 1593   2.275   1.288   8.511 -1.7395 -2.7329 -0.6307
   12MOL0     H 1594   2.282   1.340   8.275  1.9290  2.8565 -1.5536
   12MOL0     H 1595   2.303   1.480   8.373  1.0295  0.8844 -3.7379
   12MOL0     H 1596   2.042   1.422   8.244  2.0643 -1.2796 -2.2249
   12MOL0     H 1597   2.093   1.573   8.321  0.6795 -0.7566  1.8162
   12MOL0     H 1598   2.252   1.451   8.097  2.7369  0.9899  1.7148
   12MOL0     H 1599   2.266   1.602   8.176 -1.2346 -1.0320  3.1330
   12MOL0     H 1600   2.156   1.644   7.947 -1.2887  1.0463  0.7134
   12MOL0     H 1601   2.058   1.699   8.083  0.3450  1.1361 -0.9335
   12MOL0     H 1602   1.782   1.034   8.806 -1.0748  0.9524  0.3002
   12MOL0     H 1603   1.544   0.968   8.870 -2.1270 -2.0387 -1.0949
   12MOL0     H 1604   1.127   0.762   8.949  0.1181  0.3997  0.5145
   12MOL0     H 1605   0.898   0.651   8.886 -4.0381  1.9309 -0.1333
   12MOL0     H 1606   1.580   0.645   7.871 -0.8510 -0.5041  0.2551
   12MOL0     H 1607   1.755   0.805   7.881  1.0053 -2.7139 -0.2714
   12MOL0     H 1608   2.006   1.209   7.904  0.3298  1.4418  0.7755
   12MOL0     H 1609   2.243   1.283   7.894  3.0736  0.5386  0.6076
   12MOL0     H 1610   2.483   1.104   7.831  0.0982  1.2011 -0.8154
   12MOL0     H 1611   2.478   1.278   7.852 -0.2597  0.0155  0.6219
   12MOL0     H 1612   2.701   1.150   7.815 -0.7235 -0.1798  0.5305
   12MOL0     H 1613   2.695   1.126   7.995  0.4104  0.5688 -0.1578
   12MOL0     H 1614   2.726   1.389   7.852  0.4965 -0.4265 -0.9904
   12MOL0     H 1615   2.834   1.296   7.952 -1.3731 -2.5653 -0.8441
   12MOL0     H 1616   2.646   1.341   8.137  2.2051 -2.5167 -1.2490
   12MOL0     H 1617   2.583   1.451   8.011  1.4452  2.6689 -0.3129
   12MOL0     H 1618   2.864   1.717   8.153  1.2237 -0.7220  0.6674
   12MOL0     H 1619   2.352   0.964   8.162  0.4921  2.4201  1.4673
   12MOL0     H 1620   2.112   0.895   8.165  0.0727  0.2839  0.0434
   13MOL0     O 1621   8.579   2.062   3.786 -0.0593 -0.0699 -0.4231
   13MOL0     C 1622   8.671   1.987   3.823  0.2746 -0.0223  0.4846
   13MOL0     O 1623   8.704   1.870   3.763  0.4634  0.2834  0.8030
   13MOL0     C 1624   8.616   1.841   3.659 -0.0753 -0.3036 -0.2388
   13MOL0     C 1625   8.624   1.895   3.526  0.3587  0.1341 -0.3804
   13MOL0     C 1626   8.526   1.870   3.431  0.1098 -0.2165  0.3178
   13MOL0     C 1627   8.409   1.799   3.462  0.6529 -0.2618 -0.1728
   13MOL0     O 1628   8.292   1.797   3.382  0.0437  0.2374  1.2455
   13MOL0     C 1629   8.263   1.901   3.282  0.1553  0.8677  0.0452
   13MOL0     C 1630   8.247   1.841   3.138  0.1563  0.4558 -0.0321
   13MOL0     C 1631   8.380   1.776   3.078  1.3911 -0.2577  0.8813
   13MOL0     C 1632   8.470   1.894   3.047 -0.2427  0.1036  0.2213
   13MOL0     C 1633   8.600   1.849   2.980  0.4570 -0.8254 -0.3253
   13MOL0     C 1634   8.682   1.759   3.072 -0.1411  0.3515  0.9593
   13MOL0     C 1635   8.817   1.726   2.991  0.0807  0.1063  0.4150
   13MOL0     C 1636   8.907   1.629   3.077  0.1576  0.8979  0.0223
   13MOL0     N 1637   9.027   1.606   3.000  0.2380 -0.5420 -0.2961
   13MOL0     C 1638   9.148   1.650   3.048 -0.7739  0.8197  0.6451
   13MOL0     C 1639   9.237   1.594   2.958  0.9438 -0.3390  0.8157
   13MOL0     C 1640   9.388   1.588   2.972 -0.3025 -0.1646 -0.0868
   13MOL0     C 1641   9.440   1.722   2.923  0.1361  0.5318 -0.1672
   13MOL0     C 1642   9.580   1.761   2.973 -0.1213  0.2672  0.3516
   13MOL0     C 1643   9.638   1.896   2.925 -0.2334  0.7015 -0.4026
   13MOL0     O 1644   9.764   1.935   2.986  0.9744  0.2928 -0.1298
   13MOL0     C 1645   9.884   1.913   2.921 -0.1602  0.6477 -0.0121
   13MOL0     C 1646   9.997   1.888   3.008  1.5474  0.0623  0.4010
   13MOL0     C 1647  10.127   1.891   2.953 -0.5436  0.0302 -0.6048
   13MOL0     C 1648  10.250   1.865   3.048  0.5291 -0.0056  1.4962
   13MOL0     C 1649  10.150   1.904   2.814  1.1196 -0.3728 -0.1065
   13MOL0     C 1650  10.279   1.912   2.746 -1.2309 -0.6643  0.0705
   13MOL0     O 1651  10.283   1.901   2.607 -1.0845 -0.1900 -0.4813
   13MOL0     C 1652  10.393   1.924   2.534 -0.4428 -1.3089 -0.2118
   13MOL0     C 1653  10.451   2.046   2.541 -0.2691 -0.4095 -0.7659
   13MOL0     C 1654  10.567   2.075   2.478 -0.0004  0.5629 -0.1709
   13MOL0     C 1655  10.640   1.971   2.411  0.1950 -0.2065 -0.8557
   13MOL0     O 1656  10.762   2.002   2.357 -0.2802  0.1370  0.5399
   13MOL0     C 1657  10.855   1.891   2.370  0.8313 -0.0653 -0.3816
   13MOL0     C 1658  10.990   1.942   2.304 -0.6921  0.2906 -0.9810
   13MOL0     C 1659  11.069   2.042   2.393  0.4248  0.8886 -0.3393
   13MOL0     C 1660  11.161   2.118   2.294 -0.9507  0.6446  0.2655
   13MOL0     C 1661  11.269   2.196   2.373 -0.5337  0.5416 -0.8502
   13MOL0     C 1662  11.374   2.263   2.287 -0.1056 -0.0621  0.5140
   13MOL0     C 1663  11.331   2.381   2.205 -0.2079 -0.4306 -0.5894
   13MOL0     C 1664  11.449   2.461   2.143 -0.6101  0.1532  0.3601
   13MOL0    Cl 1665  11.583   2.345   2.078 -0.1218  0.0599 -0.2651
   13MOL0     C 1666  10.576   1.853   2.401 -0.6164  0.5495 -0.7186
   13MOL0     C 1667  10.456   1.824   2.464  0.1074 -1.2101  0.1979
   13MOL0     O 1668  10.372   1.951   2.812  0.2236 -1.1159 -0.1287
   13MOL0     C 1669  10.037   1.898   2.731  0.1562  0.0186 -0.5254
   13MOL0     C 1670   9.907   1.911   2.784 -0.6120  0.0760  1.5759
   13MOL0     N 1671   9.163   1.537   2.851 -0.7440 -0.4384 -0.0373
   13MOL0     N 1672   9.034   1.556   2.880  0.3265  0.2998  0.6575
   13MOL0     C 1673   8.416   1.727   3.576  0.5406 -0.1604  0.4310
   13MOL0     C 1674   8.512   1.751   3.673 -0.3860 -0.4710 -0.6832
   13MOL0     C 1675   8.764   2.056   3.909 -0.3925 -0.1666  0.4250
   13MOL0     C 1676   8.876   1.985   3.966 -0.3158  0.4802  0.6964
   13MOL0     C 1677   8.962   2.039   4.067  0.3615  0.5651  0.9403
   13MOL0     C 1678   8.927   2.170   4.116 -0.1809  0.1309  0.4090
   13MOL0     O 1679   9.016   2.215   4.208 -1.4173  0.4083  0.0986
   13MOL0     C 1680   8.993   2.349   4.260  1.1312  0.5537 -0.0890
   13MOL0     C 1681   9.090   2.355   4.376  0.4026  0.1838 -0.2956
   13MOL0     C 1682   9.061   2.479   4.462 -0.8741 -0.8929 -0.3260
   13MOL0     C 1683   9.083   2.616   4.389 -0.0568  0.3320  0.0488
   13MOL0     C 1684   8.968   2.659   4.307 -0.6558 -0.2609  0.3795
   13MOL0     C 1685   8.881   2.711   4.240 -0.8183  0.1139 -0.5245
   13MOL0     C 1686   8.835   2.248   4.043  0.5292 -0.4431 -0.1313
   13MOL0     C 1687   8.750   2.190   3.951  1.7496  0.2433  0.0844
   13MOL0     H 1688   8.703   1.967   3.506 -0.6218  1.8617  1.5915
   13MOL0     H 1689   8.540   1.908   3.331  1.4317 -1.7070 -0.1055
   13MOL0     H 1690   8.173   1.951   3.319  0.8370  2.6443 -0.6156
   13MOL0     H 1691   8.345   1.973   3.289 -0.3986  1.3720  3.7238
   13MOL0     H 1692   8.164   1.770   3.138  0.1987  0.4030  0.4329
   13MOL0     H 1693   8.219   1.928   3.077  1.0526  2.5685  2.3972
   13MOL0     H 1694   8.431   1.702   3.141  5.3168 -0.4454 -2.1678
   13MOL0     H 1695   8.355   1.720   2.988  0.9215 -3.5794  2.8927
   13MOL0     H 1696   8.417   1.946   2.966  0.0487 -1.6328 -1.1336
   13MOL0     H 1697   8.491   1.966   3.127  0.2280  2.1224 -1.6036
   13MOL0     H 1698   8.584   1.795   2.886  0.0664 -0.8386 -0.2543
   13MOL0     H 1699   8.656   1.940   2.955 -0.8808  1.1615  3.1521
   13MOL0     H 1700   8.698   1.804   3.170  0.6531 -2.0334  1.9961
   13MOL0     H 1701   8.644   1.657   3.084  2.3106 -0.8752 -0.7794
   13MOL0     H 1702   8.791   1.681   2.894  1.8577 -0.0838 -0.0008
   13MOL0     H 1703   8.874   1.817   2.972  1.6161 -0.9052 -0.0645
   13MOL0     H 1704   8.849   1.541   3.105 -0.2175  1.7525  2.1443
   13MOL0     H 1705   8.927   1.680   3.172 -2.0675  3.3302 -0.6825
   13MOL0     H 1706   9.167   1.692   3.146 -1.9399  1.5130  0.5921
   13MOL0     H 1707   9.427   1.571   3.073  1.2444  0.7389 -0.4948
   13MOL0     H 1708   9.419   1.509   2.904  0.3392 -1.2805  1.4534
   13MOL0     H 1709   9.372   1.803   2.951 -1.1324 -0.4954 -0.1746
   13MOL0     H 1710   9.456   1.714   2.815 -0.0257 -4.4182 -0.0153
   13MOL0     H 1711   9.649   1.680   2.949 -0.3695 -0.1116  0.8880
   13MOL0     H 1712   9.579   1.766   3.082  2.6549  1.4555  0.3900
   13MOL0     H 1713   9.562   1.970   2.951 -0.2540 -0.2641  2.5553
   13MOL0     H 1714   9.644   1.895   2.815 -0.0356  1.6505 -0.4164
   13MOL0     H 1715   9.959   1.891   3.110 -2.4390  1.1679 -0.9227
   13MOL0     H 1716  10.209   1.855   3.149 -1.3878 -1.5776  0.6389
   13MOL0     H 1717  10.311   1.785   3.003 -2.2277  0.0727 -3.0274
   13MOL0     H 1718  10.317   1.951   3.055 -1.5418  1.7643  0.7248
   13MOL0     H 1719  10.411   2.129   2.599  0.5759 -1.1520  0.9618
   13MOL0     H 1720  10.594   2.181   2.479 -0.2943  0.6354  0.2350
   13MOL0     H 1721  10.862   1.862   2.475  3.6534  0.7004 -0.2723
   13MOL0     H 1722  10.824   1.807   2.306 -0.6848 -0.5960  0.9806
   13MOL0     H 1723  11.056   1.858   2.281 -1.4728 -0.0155 -2.1821
   13MOL0     H 1724  10.949   1.984   2.212 -3.2235 -0.1284 -0.1194
   13MOL0     H 1725  11.136   1.987   2.460  2.7353  1.6706 -1.8882
   13MOL0     H 1726  11.010   2.113   2.452  2.6901 -0.5800  4.1662
   13MOL0     H 1727  11.211   2.046   2.228 -1.8475 -0.8008  1.1002
   13MOL0     H 1728  11.108   2.192   2.233  0.2110  1.8218  0.6479
   13MOL0     H 1729  11.306   2.129   2.452 -0.1756  0.1379 -1.3498
   13MOL0     H 1730  11.226   2.279   2.429  0.5542  3.9294 -4.5616
   13MOL0     H 1731  11.458   2.282   2.354 -0.9298  0.5511  1.4023
   13MOL0     H 1732  11.405   2.189   2.213  1.7188  0.5768  0.6018
   13MOL0     H 1733  11.276   2.453   2.267 -0.9927 -0.5153 -1.1678
   13MOL0     H 1734  11.264   2.332   2.134 -1.1442 -0.3577  0.2184
   13MOL0     H 1735  11.487   2.533   2.216 -1.8763 -1.4759  2.8023
   13MOL0     H 1736  11.409   2.510   2.054 -0.2461 -1.3997 -0.7045
   13MOL0     H 1737  10.602   1.764   2.343 -1.6799  1.1743 -2.2453
   13MOL0     H 1738  10.418   1.723   2.469 -0.8833 -0.8815 -0.3463
   13MOL0     H 1739  10.050   1.892   2.624 -0.6059  0.8050 -0.6767
   13MOL0     H 1740   9.825   1.931   2.716  1.0947  1.4486 -0.1751
   13MOL0     H 1741   8.337   1.659   3.606  0.7425 -1.1677 -1.1910
   13MOL0     H 1742   8.516   1.691   3.764 -1.1388  0.4630 -0.0054
   13MOL0     H 1743   8.911   1.889   3.931 -1.4809  0.2650  0.0962
   13MOL0     H 1744   9.042   1.984   4.115  0.4115  0.9293  1.2846
   13MOL0     H 1745   9.025   2.416   4.180  1.6254 -1.2073 -1.4483
   13MOL0     H 1746   8.889   2.365   4.287  0.2346 -1.0415 -2.2822
   13MOL0     H 1747   9.193   2.351   4.340  0.4805  1.2498 -0.2365
   13MOL0     H 1748   9.075   2.270   4.443 -0.5852  0.3679 -0.2762
   13MOL0     H 1749   9.123   2.468   4.551  0.5153 -0.6870 -1.2291
   13MOL0     H 1750   8.961   2.457   4.502 -0.6766 -0.1633  0.6001
   13MOL0     H 1751   9.177   2.609   4.335  0.1087 -1.0483  0.4802
   13MOL0     H 1752   9.100   2.694   4.464  2.8311  0.6087 -0.7826
   13MOL0     H 1753   8.797   2.754   4.189 -0.7286  1.2379  0.2211
   13MOL0     H 1754   8.821   2.355   4.052  5.3807  0.4158 -0.5041
   13MOL0     H 1755   8.672   2.246   3.901  1.4056  0.2800  0.6499
   14MOL0     O 1756   3.936   4.408   9.717  0.3574 -0.0152 -0.2095
   14MOL0     C 1757   4.008   4.357   9.800 -0.3616  0.0226 -0.2960
   14MOL0     O 1758   4.093   4.251   9.775  0.5187 -0.5372  0.1713
   14MOL0     C 1759   4.111   4.229   9.634 -0.3248 -0.5468 -0.3237
   14MOL0     C 1760   4.108   4.095   9.589  0.1105  0.1304 -0.2213
   14MOL0     C 1761   4.118   4.058   9.455 -0.4822  0.2910 -0.7079
   14MOL0     C 1762   4.122   4.154   9.360 -0.0245  0.0343  0.4881
   14MOL0     O 1763   4.126   4.107   9.229 -0.1363 -0.3717 -0.8037
   14MOL0     C 1764   4.092   4.204   9.122 -1.1713 -0.2916  0.1502
   14MOL0     C 1765   4.124   4.129   9.002 -0.5173  0.2516  0.1394
   14MOL0     C 1766   4.272   4.129   8.974  0.2645  0.3024 -0.0969
   14MOL0     C 1767   4.321   3.991   8.931 -0.0254 -0.2067 -0.2108
   14MOL0     C 1768   4.287   3.952   8.786 -0.1510 -0.1725 -0.0130
   14MOL0     C 1769   4.244   3.809   8.758 -0.1018 -0.4359 -0.6324
   14MOL0     C 1770   4.100   3.789   8.810  0.2697  0.3305  0.0491
   14MOL0     C 1771   4.062   3.737   8.955  0.5594 -0.5358 -0.1261
   14MOL0     N 1772   3.948   3.653   8.968  0.2529  0.3262 -0.5302
   14MOL0     C 1773   3.819   3.696   8.949 -0.5157  0.9442  0.1805
   14MOL0     C 1774   3.740   3.586   8.965  0.0769 -0.1739  0.2380
   14MOL0     C 1775   3.593   3.575   8.938 -0.0516  0.2268 -1.2042
   14MOL0     C 1776   3.557   3.536   8.796  0.1018  0.7732  0.1952
   14MOL0     C 1777   3.403   3.551   8.774  0.7104 -0.5233  0.2259
   14MOL0     C 1778   3.366   3.521   8.633  0.2822  0.4592 -0.1355
   14MOL0     O 1779   3.230   3.567   8.610  0.4196  0.2771  0.5592
   14MOL0     C 1780   3.200   3.560   8.479 -0.4836 -0.1922 -0.3114
   14MOL0     C 1781   3.262   3.638   8.387  0.2795  0.1423  0.3585
   14MOL0     C 1782   3.237   3.618   8.251 -0.5381  1.3812  0.2453
   14MOL0     C 1783   3.335   3.699   8.160  0.4064  0.1769  0.0707
   14MOL0     C 1784   3.138   3.529   8.208  0.6206 -0.1766 -0.4081
   14MOL0     C 1785   3.096   3.496   8.071  0.2431 -1.1247  0.5182
   14MOL0     O 1786   3.031   3.377   8.045  0.4057 -0.6741 -1.1222
   14MOL0     C 1787   2.960   3.363   7.929 -0.1404  1.2288  0.4113
   14MOL0     C 1788   2.959   3.232   7.865 -0.8459 -0.3708 -0.1140
   14MOL0     C 1789   2.884   3.198   7.746  1.1632 -0.3076 -0.2401
   14MOL0     C 1790   2.778   3.295   7.717  0.4725  0.4426  0.8119
   14MOL0     O 1791   2.681   3.255   7.634 -0.5469 -0.1432  0.2343
   14MOL0     C 1792   2.592   3.155   7.679  0.8132  0.1328 -0.4423
   14MOL0     C 1793   2.470   3.224   7.734  0.4367  0.2300  0.0577
   14MOL0     C 1794   2.384   3.290   7.619  0.5392  0.2782 -0.0479
   14MOL0     C 1795   2.431   3.428   7.562  0.4652 -0.7916 -0.0787
   14MOL0     C 1796   2.338   3.478   7.457  0.0591 -0.7818 -0.1055
   14MOL0     C 1797   2.338   3.385   7.337 -0.4133 -0.4873 -0.2670
   14MOL0     C 1798   2.248   3.423   7.226  0.3440 -0.2799 -0.3042
   14MOL0     C 1799   2.220   3.313   7.129 -0.0585  0.2964 -1.0025
   14MOL0    Cl 1800   2.359   3.270   7.035 -0.1026 -0.4307 -0.1751
   14MOL0     C 1801   2.780   3.421   7.779 -0.7016  0.1408  0.4232
   14MOL0     C 1802   2.867   3.459   7.881 -0.3239 -0.6255 -0.0104
   14MOL0     O 1803   3.111   3.588   7.989 -0.4397  0.0577 -0.3142
   14MOL0     C 1804   3.067   3.454   8.301 -0.6236 -1.3449  0.1645
   14MOL0     C 1805   3.095   3.472   8.433 -0.0880 -0.2320 -0.4675
   14MOL0     N 1806   3.823   3.486   9.010 -0.7019  0.7214  0.3013
   14MOL0     N 1807   3.943   3.531   9.017  0.0611  0.4272  0.0215
   14MOL0     C 1808   4.128   4.294   9.400 -1.3537  0.4658 -0.5022
   14MOL0     C 1809   4.112   4.328   9.536  1.1714  0.0559 -0.4542
   14MOL0     C 1810   4.005   4.419   9.934 -0.0836  0.6447 -0.3288
   14MOL0     C 1811   4.085   4.361  10.035 -0.0837 -0.0977  0.9101
   14MOL0     C 1812   4.103   4.424  10.159 -0.0648  0.3437 -0.1223
   14MOL0     C 1813   4.035   4.539  10.197  0.7350 -0.1037 -0.5456
   14MOL0     O 1814   4.054   4.592  10.324 -0.5757  1.0263  0.4253
   14MOL0     C 1815   4.070   4.735  10.343 -0.0275 -0.0274 -0.7227
   14MOL0     C 1816   4.170   4.806  10.261 -0.0105  0.0921  0.2260
   14MOL0     C 1817   4.182   4.958  10.297  0.5718  1.0075 -0.7475
   14MOL0     C 1818   4.051   5.036  10.285 -0.2158  0.0535 -0.2303
   14MOL0     C 1819   4.084   5.175  10.289  0.4791 -0.2710  0.0981
   14MOL0     C 1820   4.103   5.291  10.269  0.4918 -0.2171 -0.8075
   14MOL0     C 1821   3.936   4.589  10.100  0.1537 -0.1458  0.5020
   14MOL0     C 1822   3.924   4.529   9.976 -0.7634  0.5637  0.4564
   14MOL0     H 1823   4.083   4.011   9.653 -1.8267 -0.3184 -1.4708
   14MOL0     H 1824   4.112   3.953   9.427 -0.2606  0.4702 -1.4649
   14MOL0     H 1825   3.982   4.203   9.122 -1.1824 -1.0064 -0.7781
   14MOL0     H 1826   4.136   4.303   9.130 -3.4404  0.8828 -0.8241
   14MOL0     H 1827   4.070   4.035   9.016 -0.0996  0.2045  1.6042
   14MOL0     H 1828   4.071   4.172   8.916 -0.2961  0.7403  0.2427
   14MOL0     H 1829   4.300   4.200   8.895  3.4730  0.8553  1.3699
   14MOL0     H 1830   4.326   4.157   9.066 -1.4453 -0.8417  1.3197
   14MOL0     H 1831   4.430   3.991   8.935  0.0523  1.9418 -1.1199
   14MOL0     H 1832   4.295   3.899   8.985  1.3737 -2.4198 -3.0326
   14MOL0     H 1833   4.205   4.014   8.748 -1.5935 -0.8305  1.8597
   14MOL0     H 1834   4.367   3.987   8.722 -1.9225  1.1832 -1.5885
   14MOL0     H 1835   4.238   3.796   8.650 -2.2868  1.7809 -0.8573
   14MOL0     H 1836   4.313   3.731   8.791 -1.7027 -1.0172  1.6346
   14MOL0     H 1837   4.051   3.883   8.785  0.8093 -0.0398 -2.6900
   14MOL0     H 1838   4.053   3.720   8.740  0.9058 -0.6999  0.6085
   14MOL0     H 1839   4.052   3.817   9.028  0.0129  0.8801 -1.6931
   14MOL0     H 1840   4.154   3.683   8.979  0.7928  1.1334  3.1269
   14MOL0     H 1841   3.798   3.799   8.923 -2.5353  0.8372  1.2432
   14MOL0     H 1842   3.546   3.503   9.005 -0.2242 -1.8273 -3.3676
   14MOL0     H 1843   3.546   3.673   8.953 -0.5588 -0.2122  0.2543
   14MOL0     H 1844   3.586   3.431   8.785 -0.2882  0.5788  1.0110
   14MOL0     H 1845   3.608   3.595   8.719 -3.5558  0.2704 -2.9198
   14MOL0     H 1846   3.373   3.651   8.807 -0.4413  0.0148 -2.1918
   14MOL0     H 1847   3.365   3.475   8.843  4.0786 -2.4686  0.1675
   14MOL0     H 1848   3.394   3.416   8.620 -2.2439 -0.5737  1.8708
   14MOL0     H 1849   3.431   3.582   8.569 -1.3413  0.0490 -2.3057
   14MOL0     H 1850   3.343   3.703   8.417  1.5334 -1.7512  1.2927
   14MOL0     H 1851   3.337   3.805   8.185 -1.4471  0.1274  0.6103
   14MOL0     H 1852   3.438   3.675   8.189 -0.2296 -0.9384  1.5777
   14MOL0     H 1853   3.311   3.682   8.055  1.1323 -0.4102 -0.0085
   14MOL0     H 1854   3.030   3.155   7.893 -0.3316 -0.2857 -1.1425
   14MOL0     H 1855   2.865   3.108   7.687 -3.8997  1.0481 -1.1918
   14MOL0     H 1856   2.562   3.094   7.593 -0.8441 -0.3145  0.4101
   14MOL0     H 1857   2.631   3.084   7.753  0.6264  0.1009 -0.3736
   14MOL0     H 1858   2.398   3.147   7.766 -1.0168  0.9203 -1.3861
   14MOL0     H 1859   2.498   3.293   7.814 -2.0948  1.1864  0.2097
   14MOL0     H 1860   2.292   3.303   7.676  1.2684 -1.4720  1.6474
   14MOL0     H 1861   2.374   3.210   7.545  1.1262  0.4643 -0.3396
   14MOL0     H 1862   2.444   3.497   7.646 -1.3898  0.9059 -1.0908
   14MOL0     H 1863   2.531   3.416   7.520  0.5494 -1.0179  0.1823
   14MOL0     H 1864   2.351   3.583   7.432 -2.7875  0.3420  2.4581
   14MOL0     H 1865   2.236   3.467   7.495  0.0910 -1.2979 -0.1504
   14MOL0     H 1866   2.440   3.373   7.298 -0.8148 -1.6117 -1.0422
   14MOL0     H 1867   2.306   3.286   7.372 -1.3199 -0.1653 -0.1865
   14MOL0     H 1868   2.285   3.509   7.170 -1.2287 -1.2472 -3.0225
   14MOL0     H 1869   2.152   3.451   7.270  0.5350 -0.2327  0.0864
   14MOL0     H 1870   2.138   3.346   7.065 -3.0589 -0.0682  2.3215
   14MOL0     H 1871   2.189   3.229   7.192  0.0273  0.5346 -0.6342
   14MOL0     H 1872   2.712   3.496   7.740 -1.4363 -0.2729  0.8843
   14MOL0     H 1873   2.864   3.558   7.925 -2.5533 -0.5634 -0.2040
   14MOL0     H 1874   2.981   3.392   8.277 -1.8253 -1.0498  3.2999
   14MOL0     H 1875   3.042   3.431   8.519  2.1959  0.2975  1.2934
   14MOL0     H 1876   4.156   4.374   9.332 -0.8565  1.1504  0.4738
   14MOL0     H 1877   4.115   4.433   9.564 -2.7943  0.7403 -1.9514
   14MOL0     H 1878   4.149   4.276  10.013  0.0284 -0.0367  1.0002
   14MOL0     H 1879   4.168   4.370  10.227 -3.6834 -3.4037  0.7702
   14MOL0     H 1880   3.972   4.784  10.345  0.3040  1.2415 -5.3235
   14MOL0     H 1881   4.101   4.745  10.448  1.7702  1.5379 -1.3411
   14MOL0     H 1882   4.143   4.796  10.155  1.7338 -0.8969 -0.1632
   14MOL0     H 1883   4.266   4.760  10.287  1.5554  4.0356  2.1318
   14MOL0     H 1884   4.249   5.004  10.224  3.6698  0.2830  1.4226
   14MOL0     H 1885   4.219   4.959  10.400  1.3344  2.6277 -1.0091
   14MOL0     H 1886   3.995   5.011  10.376  3.5583  1.2509  2.7197
   14MOL0     H 1887   4.008   5.010  10.188  3.1002  3.1534 -2.8399
   14MOL0     H 1888   4.114   5.392  10.236  0.0881 -0.1218 -0.6534
   14MOL0     H 1889   3.880   4.678  10.129 -0.5507 -1.0575  2.0762
   14MOL0     H 1890   3.849   4.557   9.903 -1.4947  1.5117  1.5331
   15MOL0     O 1891   3.939   3.754   4.197  0.2384 -0.3716  0.0529
   15MOL0     C 1892   3.843   3.685   4.163  0.0653 -1.2971  0.4324
   15MOL0     O 1893   3.837   3.544   4.158 -0.1517  0.1809  0.6507
   15MOL0     C 1894   3.962   3.495   4.189 -0.7946 -0.0039  0.4959
   15MOL0     C 1895   4.066   3.494   4.091  0.0184 -0.7072  0.0254
   15MOL0     C 1896   4.183   3.431   4.117 -0.3866  0.3975 -0.5033
   15MOL0     C 1897   4.219   3.384   4.249  0.5165 -0.4146  0.0944
   15MOL0     O 1898   4.328   3.306   4.289  0.6425  0.3825  0.2908
   15MOL0     C 1899   4.450   3.344   4.233 -0.2632  0.4961  0.0930
   15MOL0     C 1900   4.553   3.240   4.289  0.1222  0.3550 -0.6810
   15MOL0     C 1901   4.699   3.297   4.285 -0.2006  1.2713  0.4963
   15MOL0     C 1902   4.813   3.193   4.285  0.4893 -0.7649 -0.7674
   15MOL0     C 1903   4.831   3.132   4.419 -0.1775  0.5362  0.6285
   15MOL0     C 1904   4.898   2.999   4.406 -0.8816  0.1253 -0.0639
   15MOL0     C 1905   4.896   2.919   4.543 -0.6355  0.3899 -0.2900
   15MOL0     C 1906   4.895   2.767   4.515 -0.0196  0.0918  0.2129
   15MOL0     N 1907   4.929   2.699   4.633  0.9490 -0.4568  0.1015
   15MOL0     C 1908   4.851   2.690   4.747  0.0276  0.3375 -0.6715
   15MOL0     C 1909   4.914   2.601   4.826  0.9327  0.0394 -0.0609
   15MOL0     C 1910   4.888   2.568   4.974 -0.0256  0.1326  0.3730
   15MOL0     C 1911   4.915   2.421   5.007  0.5019 -0.0765 -0.0555
   15MOL0     C 1912   4.869   2.381   5.152  0.1912 -1.0405 -1.2668
   15MOL0     C 1913   4.937   2.256   5.214 -0.0983  0.1409 -0.2243
   15MOL0     O 1914   5.062   2.286   5.267  0.4205  0.1546  0.6711
   15MOL0     C 1915   5.159   2.194   5.264  0.5976 -0.1218  0.5112
   15MOL0     C 1916   5.136   2.073   5.338  0.7334 -0.6044  1.5465
   15MOL0     C 1917   5.233   1.959   5.330  0.5230 -0.3020  0.4809
   15MOL0     C 1918   5.196   1.831   5.412 -0.2174  0.8064 -0.0141
   15MOL0     C 1919   5.351   1.973   5.247  0.7629 -0.1991  0.2384
   15MOL0     C 1920   5.447   1.864   5.232 -0.7727 -0.7280 -0.3122
   15MOL0     O 1921   5.572   1.911   5.191  0.8074  0.1266 -0.8049
   15MOL0     C 1922   5.674   1.828   5.189 -0.6093 -0.8527 -0.2664
   15MOL0     C 1923   5.785   1.816   5.283  0.1507 -1.1031  0.3255
   15MOL0     C 1924   5.879   1.713   5.270  0.1437 -0.2439  0.2175
   15MOL0     C 1925   5.875   1.635   5.152  0.2081 -0.0881  0.1000
   15MOL0     O 1926   5.970   1.542   5.138 -0.3627  0.1159 -0.2153
   15MOL0     C 1927   5.945   1.431   5.045 -0.0625 -0.6115  0.4216
   15MOL0     C 1928   6.073   1.347   5.042 -0.3372  1.1068 -0.2361
   15MOL0     C 1929   6.136   1.327   4.906 -0.1390 -0.8209 -0.1270
   15MOL0     C 1930   6.189   1.452   4.839 -0.5427 -0.2700 -0.2199
   15MOL0     C 1931   6.287   1.415   4.727 -0.2826  0.5753  0.8323
   15MOL0     C 1932   6.431   1.408   4.779 -0.3566  0.5354  0.3219
   15MOL0     C 1933   6.537   1.373   4.678 -0.3041  0.4893  0.6645
   15MOL0     C 1934   6.674   1.331   4.726  0.0715 -0.0826 -0.1976
   15MOL0    Cl 1935   6.749   1.466   4.805 -0.1926 -0.1135  0.2702
   15MOL0     C 1936   5.780   1.659   5.052 -0.1446 -0.8866 -0.6483
   15MOL0     C 1937   5.677   1.743   5.080 -0.4721 -0.2379  0.2366
   15MOL0     O 1938   5.418   1.742   5.238 -0.0500 -0.5471  0.1786
   15MOL0     C 1939   5.368   2.098   5.189  0.1975 -1.1532 -1.0026
   15MOL0     C 1940   5.286   2.212   5.205 -1.1105  0.2501  1.2432
   15MOL0     N 1941   5.029   2.563   4.764  0.4726  0.3317  0.3902
   15MOL0     N 1942   5.038   2.627   4.650 -0.2057  0.3740 -0.0181
   15MOL0     C 1943   4.111   3.394   4.342 -0.0060  0.1674 -0.6395
   15MOL0     C 1944   3.981   3.440   4.311  0.5505  0.2882 -0.1419
   15MOL0     C 1945   3.720   3.768   4.143  0.3716 -0.3403  0.9120
   15MOL0     C 1946   3.720   3.910   4.159  0.2744 -0.0089 -0.6943
   15MOL0     C 1947   3.605   3.979   4.139  0.8222  0.2321 -0.7155
   15MOL0     C 1948   3.484   3.921   4.098  0.5311 -0.1985 -1.0007
   15MOL0     O 1949   3.376   3.984   4.053  0.0966  0.3083  0.6415
   15MOL0     C 1950   3.351   4.127   4.052  0.2011 -0.0256 -0.5875
   15MOL0     C 1951   3.237   4.164   3.956 -0.4492  1.2020  0.4566
   15MOL0     C 1952   3.247   4.312   3.922  0.0061  0.5663 -0.1217
   15MOL0     C 1953   3.305   4.402   4.033 -0.9240  0.8039 -0.4751
   15MOL0     C 1954   3.300   4.538   4.005  0.9702  0.2591  0.2181
   15MOL0     C 1955   3.294   4.654   3.980  0.5902  0.1595 -0.8097
   15MOL0     C 1956   3.480   3.792   4.078  0.5061  1.0366 -0.7604
   15MOL0     C 1957   3.593   3.713   4.102 -0.5117  0.1790 -0.0318
   15MOL0     H 1958   4.049   3.536   3.993 -1.8322 -3.4912 -0.9847
   15MOL0     H 1959   4.262   3.427   4.042 -1.8377 -0.8377 -2.0379
   15MOL0     H 1960   4.444   3.335   4.125  0.0456 -0.2150  0.1325
   15MOL0     H 1961   4.475   3.448   4.256 -1.3005  0.6725  0.4877
   15MOL0     H 1962   4.522   3.225   4.393  0.3742  1.9131 -0.3514
   15MOL0     H 1963   4.543   3.146   4.233  0.2668 -0.0510 -0.0395
   15MOL0     H 1964   4.713   3.360   4.196  2.0491 -0.5992 -0.5699
   15MOL0     H 1965   4.720   3.362   4.371  2.3831  0.3936  0.6198
   15MOL0     H 1966   4.800   3.120   4.205 -0.4485 -0.2336 -1.1221
   15MOL0     H 1967   4.904   3.248   4.259 -1.5136  1.5953 -3.5266
   15MOL0     H 1968   4.873   3.202   4.492 -0.9539  0.9183  0.7198
   15MOL0     H 1969   4.731   3.113   4.457 -0.2008 -0.5260  0.0767
   15MOL0     H 1970   4.845   2.927   4.343 -2.3961 -0.5151  1.8515
   15MOL0     H 1971   4.999   3.007   4.366 -1.2695  1.5394 -0.8413
   15MOL0     H 1972   4.984   2.940   4.605  0.2662 -0.3712 -1.2635
   15MOL0     H 1973   4.815   2.946   4.610  0.8647  1.8020  1.0404
   15MOL0     H 1974   4.971   2.746   4.440  0.0601 -3.0975  1.0735
   15MOL0     H 1975   4.797   2.741   4.475  1.1119 -1.5612 -1.6415
   15MOL0     H 1976   4.765   2.744   4.782  1.4073  0.6894  2.5045
   15MOL0     H 1977   4.963   2.626   5.029 -1.1248  1.9345  0.0619
   15MOL0     H 1978   4.790   2.602   5.010 -0.4226  1.1265 -1.5429
   15MOL0     H 1979   5.023   2.402   5.007  0.2311 -1.8471  1.5404
   15MOL0     H 1980   4.873   2.353   4.933  0.0353  1.5942 -1.4092
   15MOL0     H 1981   4.761   2.365   5.149  0.2812 -2.8166  1.3863
   15MOL0     H 1982   4.887   2.454   5.231  0.6939 -0.9939 -1.4167
   15MOL0     H 1983   4.944   2.181   5.134 -3.8699 -0.5358 -0.1263
   15MOL0     H 1984   4.882   2.212   5.298  1.4434  1.5299  1.5875
   15MOL0     H 1985   5.044   2.060   5.394  0.0166 -0.6686  0.3797
   15MOL0     H 1986   5.128   1.776   5.347 -3.2574  4.6990 -0.4408
   15MOL0     H 1987   5.277   1.767   5.450 -2.6680 -1.5780  1.5624
   15MOL0     H 1988   5.122   1.841   5.492 -1.0915 -3.6066 -0.0111
   15MOL0     H 1989   5.789   1.891   5.362  1.7071 -0.6819 -0.1148
   15MOL0     H 1990   5.963   1.693   5.334  0.6099  2.6855  0.6514
   15MOL0     H 1991   5.854   1.381   5.080  1.3057 -1.4935  3.0312
   15MOL0     H 1992   5.921   1.468   4.946  1.9862 -1.6985 -0.5452
   15MOL0     H 1993   6.150   1.389   5.107 -2.9865 -0.0248  3.9822
   15MOL0     H 1994   6.044   1.247   5.074 -1.1908  1.8172  1.2902
   15MOL0     H 1995   6.052   1.308   4.838  1.6719  0.1867 -2.8074
   15MOL0     H 1996   6.199   1.238   4.905  0.0485 -0.7073  0.8545
   15MOL0     H 1997   6.098   1.505   4.808 -0.0137  1.8679  1.5823
   15MOL0     H 1998   6.244   1.510   4.914  0.0038 -1.3934  0.2674
   15MOL0     H 1999   6.277   1.490   4.648 -0.0927  0.3557  0.5969
   15MOL0     H 2000   6.258   1.315   4.695 -0.8507 -0.1540  3.4125
   15MOL0     H 2001   6.458   1.511   4.806 -0.5211  0.9051 -0.8605
   15MOL0     H 2002   6.434   1.341   4.866 -2.2582 -0.2598 -0.1752
   15MOL0     H 2003   6.547   1.464   4.618 -2.4549  1.0110  1.0127
   15MOL0     H 2004   6.502   1.285   4.622 -1.2058  0.6007  1.0391
   15MOL0     H 2005   6.740   1.312   4.641  0.9922  2.1979 -0.0644
   15MOL0     H 2006   6.672   1.245   4.794  0.1001  0.2487  0.2219
   15MOL0     H 2007   5.789   1.606   4.958 -0.5585 -0.2304 -1.0687
   15MOL0     H 2008   5.600   1.758   5.004 -2.5761  0.0181  2.3070
   15MOL0     H 2009   5.463   2.114   5.139  0.9396 -0.1610  0.6607
   15MOL0     H 2010   5.313   2.301   5.148 -0.9803 -0.4714  0.1503
   15MOL0     H 2011   4.127   3.378   4.449 -0.7986  2.1848 -0.1692
   15MOL0     H 2012   3.903   3.445   4.386  0.9505  0.0998  0.2912
   15MOL0     H 2013   3.813   3.958   4.186 -0.7120  1.2219  0.6810
   15MOL0     H 2014   3.587   4.084   4.162  3.6203  0.5532  0.4498
   15MOL0     H 2015   3.329   4.158   4.155 -0.5656 -0.4681 -0.6084
   15MOL0     H 2016   3.444   4.174   4.023 -0.4632  1.0602 -1.0157
   15MOL0     H 2017   3.147   4.133   4.010  1.7234  1.2696  4.5106
   15MOL0     H 2018   3.248   4.107   3.864  0.9098  1.7368  0.2718
   15MOL0     H 2019   3.145   4.349   3.907  0.5363  3.3712  2.1565
   15MOL0     H 2020   3.309   4.324   3.833  0.4746  1.1464  0.2735
   15MOL0     H 2021   3.409   4.377   4.056 -0.9413  2.2384  1.4214
   15MOL0     H 2022   3.264   4.387   4.134 -1.0043  0.7798 -0.5104
   15MOL0     H 2023   3.286   4.757   3.952 -0.6410  0.8795  1.8695
   15MOL0     H 2024   3.390   3.747   4.038 -0.8740 -0.6343  3.6524
   15MOL0     H 2025   3.573   3.609   4.078 -1.5009  1.1010 -3.8109
   16MOL0     O 2026   8.765   3.068   3.901 -0.3163 -0.1589  0.3731
   16MOL0     C 2027   8.784   3.047   3.781 -0.1185 -0.2162  0.0909
   16MOL0     O 2028   8.694   2.980   3.706 -0.6385 -0.0589  0.6485
   16MOL0     C 2029   8.561   2.985   3.739 -0.0878  0.0005  0.2356
   16MOL0     C 2030   8.490   3.096   3.779 -1.0558 -0.4510 -0.8564
   16MOL0     C 2031   8.353   3.081   3.809  0.5713 -0.0052 -0.2373
   16MOL0     C 2032   8.283   2.965   3.806  0.9197  0.3551 -0.2628
   16MOL0     O 2033   8.152   2.958   3.841  0.2206 -0.3323  0.1575
   16MOL0     C 2034   8.091   2.835   3.830 -0.2213 -0.0007 -0.2024
   16MOL0     C 2035   7.953   2.830   3.899  0.5709 -0.0826  0.3246
   16MOL0     C 2036   7.840   2.883   3.814 -0.0479 -0.0424 -0.6018
   16MOL0     C 2037   7.700   2.863   3.883 -1.4009 -0.0783 -0.1797
   16MOL0     C 2038   7.581   2.927   3.803  0.5042 -0.2459 -0.2022
   16MOL0     C 2039   7.440   2.922   3.868 -0.9721 -0.6731 -0.8236
   16MOL0     C 2040   7.324   2.941   3.772  0.3771 -0.1529  0.4476
   16MOL0     C 2041   7.193   2.889   3.826 -0.5499  0.5387  0.3326
   16MOL0     N 2042   7.149   2.949   3.960 -0.6434  0.9747  1.0195
   16MOL0     C 2043   7.066   2.879   4.043  0.4665  0.0165  0.6459
   16MOL0     C 2044   7.029   2.974   4.135  0.1043  0.0550  1.4498
   16MOL0     C 2045   6.955   2.931   4.266  0.2035 -1.0730  1.4629
   16MOL0     C 2046   6.823   3.010   4.281 -0.6888 -0.1273 -0.1670
   16MOL0     C 2047   6.782   3.004   4.425  0.3073 -0.5743  0.2559
   16MOL0     C 2048   6.667   3.099   4.463  0.2744 -0.2514  0.4139
   16MOL0     O 2049   6.586   3.134   4.356 -0.0581  0.4044 -0.6160
   16MOL0     C 2050   6.464   3.082   4.332 -0.0305  0.6115 -0.0654
   16MOL0     C 2051   6.433   2.950   4.373  0.2080 -0.5261  0.8630
   16MOL0     C 2052   6.308   2.893   4.344  0.3599  0.8479 -1.7573
   16MOL0     C 2053   6.272   2.756   4.394 -0.5475  0.4314  0.4089
   16MOL0     C 2054   6.215   2.970   4.273  0.8317  0.8337 -0.4777
   16MOL0     C 2055   6.081   2.928   4.241  0.1868  0.3039  0.2481
   16MOL0     O 2056   5.996   2.949   4.347 -1.0811  0.2796  0.4324
   16MOL0     C 2057   5.868   3.004   4.329 -0.0973 -0.0060 -0.2405
   16MOL0     C 2058   5.826   3.103   4.415  0.3783 -0.1124  0.1771
   16MOL0     C 2059   5.695   3.154   4.399 -0.2920  0.4119 -0.2711
   16MOL0     C 2060   5.612   3.102   4.304  0.7363 -0.4926 -0.8144
   16MOL0     O 2061   5.476   3.134   4.288 -0.1088 -0.1663  0.4665
   16MOL0     C 2062   5.418   3.260   4.321  0.2060  0.3617  0.0191
   16MOL0     C 2063   5.283   3.281   4.251 -0.2928 -0.1953 -0.2675
   16MOL0     C 2064   5.304   3.316   4.101 -0.1296  0.3243  0.9663
   16MOL0     C 2065   5.178   3.315   4.016 -0.0934 -0.8837 -0.6538
   16MOL0     C 2066   5.205   3.313   3.868 -0.0873  0.1928  0.5047
   16MOL0     C 2067   5.095   3.368   3.785 -0.0574  0.6266  0.7200
   16MOL0     C 2068   5.132   3.411   3.646 -0.5965 -0.7761 -0.3267
   16MOL0     C 2069   5.014   3.448   3.561 -0.2227  0.2913  0.2908
   16MOL0    Cl 2070   4.911   3.566   3.645  0.3730 -0.0492  0.0315
   16MOL0     C 2071   5.645   2.992   4.225  0.2814 -0.3001 -0.4835
   16MOL0     C 2072   5.778   2.948   4.232  0.3675  0.1354 -0.4090
   16MOL0     O 2073   6.050   2.888   4.126  0.1282  0.1428 -0.0166
   16MOL0     C 2074   6.249   3.098   4.243 -0.2323 -0.1828  0.0052
   16MOL0     C 2075   6.375   3.156   4.268  1.3811 -0.4237 -1.2982
   16MOL0     N 2076   7.085   3.102   4.085  0.4261 -0.5035 -0.4153
   16MOL0     N 2077   7.157   3.078   3.989 -1.0821 -0.3707 -0.6671
   16MOL0     C 2078   8.354   2.855   3.749  0.4667 -0.4415 -0.0456
   16MOL0     C 2079   8.489   2.868   3.708 -0.8292 -0.3184 -0.1083
   16MOL0     C 2080   8.918   3.087   3.725 -0.5539  0.2000  0.6821
   16MOL0     C 2081   9.017   3.131   3.810 -0.4896 -0.1437  0.3513
   16MOL0     C 2082   9.139   3.171   3.756  0.3030  0.3127 -0.2172
   16MOL0     C 2083   9.167   3.178   3.624 -0.1079  0.6549  0.5666
   16MOL0     O 2084   9.299   3.217   3.592 -0.0460  0.6409 -0.8166
   16MOL0     C 2085   9.318   3.268   3.458  0.5598 -0.0485 -0.5400
   16MOL0     C 2086   9.463   3.317   3.426  1.2775  0.2440 -0.2184
   16MOL0     C 2087   9.493   3.446   3.495  0.2647  0.9209  0.5464
   16MOL0     C 2088   9.646   3.485   3.501 -0.8331 -0.0895 -0.0856
   16MOL0     C 2089   9.676   3.595   3.599  1.2271  0.3699  1.2185
   16MOL0     C 2090   9.690   3.699   3.660 -0.3321  0.5135  0.0849
   16MOL0     C 2091   9.073   3.122   3.541  0.6128  0.2384 -0.5902
   16MOL0     C 2092   8.950   3.076   3.590 -0.9294 -0.0996 -0.8366
   16MOL0     H 2093   8.545   3.188   3.793  1.3170 -2.2478  5.3575
   16MOL0     H 2094   8.292   3.169   3.824  0.0317 -0.0986 -1.7657
   16MOL0     H 2095   8.084   2.804   3.725 -1.1597  1.8609 -0.7268
   16MOL0     H 2096   8.156   2.769   3.888 -1.1337  2.1904  3.6459
   16MOL0     H 2097   7.923   2.730   3.929  1.6483 -0.4690  0.1609
   16MOL0     H 2098   7.958   2.890   3.990  0.8398  2.1797 -1.0875
   16MOL0     H 2099   7.853   2.992   3.804 -2.7615  0.4487  0.3158
   16MOL0     H 2100   7.846   2.842   3.713  1.6980 -2.3920  0.3577
   16MOL0     H 2101   7.692   2.756   3.903 -0.9758  0.0454  0.7152
   16MOL0     H 2102   7.691   2.908   3.982 -1.1893 -0.1428 -0.1290
   16MOL0     H 2103   7.605   3.033   3.786  0.4776 -0.3804 -1.1253
   16MOL0     H 2104   7.578   2.876   3.706  0.7472 -3.1442  1.2202
   16MOL0     H 2105   7.442   2.820   3.909  1.2410 -0.8770 -1.3104
   16MOL0     H 2106   7.441   2.989   3.955 -1.3099 -0.1051 -1.2485
   16MOL0     H 2107   7.311   3.049   3.760  0.7967  0.1727  2.5342
   16MOL0     H 2108   7.343   2.895   3.675  1.9727  1.6049 -0.1472
   16MOL0     H 2109   7.215   2.784   3.845 -0.1101  0.6279  0.3142
   16MOL0     H 2110   7.118   2.900   3.747  0.0013  1.4233 -0.0853
   16MOL0     H 2111   7.039   2.775   4.056 -0.8767 -0.3800 -3.8025
   16MOL0     H 2112   6.948   2.822   4.266 -0.5162 -1.1508 -2.4994
   16MOL0     H 2113   7.004   2.956   4.361 -2.4081  1.3751  2.2914
   16MOL0     H 2114   6.751   2.971   4.208 -2.5710  1.6639  0.6338
   16MOL0     H 2115   6.850   3.114   4.259  2.6795 -0.8267  0.2065
   16MOL0     H 2116   6.866   3.030   4.489 -0.2333  0.7819  0.4360
   16MOL0     H 2117   6.746   2.902   4.444 -1.0856  0.0165  0.9177
   16MOL0     H 2118   6.702   3.195   4.501 -1.8463  0.9764 -0.5343
   16MOL0     H 2119   6.599   3.053   4.535 -1.1702  0.2398 -0.5782
   16MOL0     H 2120   6.517   2.890   4.409  1.7948  0.3680 -1.1180
   16MOL0     H 2121   6.192   2.745   4.469  0.5623 -3.3879  1.2342
   16MOL0     H 2122   6.233   2.706   4.305 -1.0623  1.1540  0.2216
   16MOL0     H 2123   6.365   2.705   4.421 -0.4539 -0.1621 -0.9558
   16MOL0     H 2124   5.901   3.133   4.488  0.3688 -1.4053  0.7506
   16MOL0     H 2125   5.653   3.233   4.461  0.8662  1.2611 -0.5461
   16MOL0     H 2126   5.405   3.272   4.429 -2.6024  0.3822 -0.2687
   16MOL0     H 2127   5.476   3.347   4.288 -1.6607  1.5124 -0.3393
   16MOL0     H 2128   5.230   3.187   4.268  2.8651 -1.7961  1.6312
   16MOL0     H 2129   5.223   3.362   4.293 -1.5556 -0.9977 -0.4825
   16MOL0     H 2130   5.364   3.243   4.046 -1.7373  0.5640 -1.2308
   16MOL0     H 2131   5.350   3.415   4.098  1.8472 -0.5289  1.0668
   16MOL0     H 2132   5.119   3.226   4.043  1.5400 -1.1504  2.5345
   16MOL0     H 2133   5.111   3.390   4.059  0.9840 -2.2549  3.9702
   16MOL0     H 2134   5.227   3.209   3.843  0.1700  0.5408 -0.8075
   16MOL0     H 2135   5.302   3.360   3.851  1.5945 -3.2005 -0.1338
   16MOL0     H 2136   5.010   3.300   3.777 -0.0254  0.7902 -3.1301
   16MOL0     H 2137   5.043   3.453   3.830 -1.5250  0.9539 -1.4045
   16MOL0     H 2138   5.191   3.330   3.603  0.7009  1.0781 -2.2172
   16MOL0     H 2139   5.187   3.504   3.659  0.0140 -1.1757 -0.0106
   16MOL0     H 2140   4.952   3.362   3.534 -5.1051  3.5135 -0.0260
   16MOL0     H 2141   5.051   3.493   3.469 -0.6071  0.9018  0.4268
   16MOL0     H 2142   5.580   2.942   4.153 -0.6090  0.6922 -0.3932
   16MOL0     H 2143   5.821   2.870   4.170  1.3181 -1.1187  1.7260
   16MOL0     H 2144   6.187   3.169   4.189  2.4995  0.7504 -2.1489
   16MOL0     H 2145   6.404   3.248   4.218 -0.3124 -0.4826 -2.5103
   16MOL0     H 2146   8.318   2.752   3.752 -0.1046 -0.2295  0.7554
   16MOL0     H 2147   8.542   2.780   3.671  3.8184  1.2607  2.1397
   16MOL0     H 2148   9.001   3.145   3.916 -1.1698 -2.6175  0.6538
   16MOL0     H 2149   9.219   3.218   3.813 -0.0316  3.1648 -1.9053
   16MOL0     H 2150   9.295   3.196   3.379  1.4046  0.2668 -1.0837
   16MOL0     H 2151   9.259   3.358   3.442  0.2448 -0.1393  0.0917
   16MOL0     H 2152   9.466   3.334   3.318 -3.6244 -0.1702 -0.6694
   16MOL0     H 2153   9.540   3.243   3.452  0.2826  0.0929  2.6313
   16MOL0     H 2154   9.463   3.421   3.597  1.1325 -0.3713  0.5155
   16MOL0     H 2155   9.421   3.522   3.464 -2.2057 -1.9810 -1.3089
   16MOL0     H 2156   9.671   3.520   3.401  2.7952  2.9773  1.6548
   16MOL0     H 2157   9.709   3.401   3.534  1.8173  1.7132 -0.2363
   16MOL0     H 2158   9.701   3.790   3.716 -4.1635  0.2859  1.5529
   16MOL0     H 2159   9.089   3.099   3.437 -3.1939 -1.2938 -0.9737
   16MOL0     H 2160   8.880   3.021   3.528 -4.1736 -0.8783  3.0508
   17MOL0     O 2161   3.446   1.805   8.054  0.8724  0.0583 -0.5044
   17MOL0     C 2162   3.540   1.736   8.104 -0.3205  0.0754 -0.8272
   17MOL0     O 2163   3.533   1.616   8.173  0.6162 -0.7279 -0.4172
   17MOL0     C 2164   3.413   1.583   8.232  0.0851  1.3029 -0.4557
   17MOL0     C 2165   3.330   1.674   8.295 -0.1746 -0.5403  0.5821
   17MOL0     C 2166   3.204   1.639   8.348  0.4997 -0.0691 -0.3671
   17MOL0     C 2167   3.163   1.497   8.341  0.1576  0.3897 -0.4760
   17MOL0     O 2168   3.043   1.458   8.403 -0.7077 -0.6230  0.0393
   17MOL0     C 2169   2.970   1.361   8.328 -0.3683  0.1655  0.5245
   17MOL0     C 2170   2.835   1.348   8.403 -0.3771  0.0391 -0.2574
   17MOL0     C 2171   2.761   1.217   8.362  0.2407 -0.1879 -0.0696
   17MOL0     C 2172   2.628   1.228   8.432 -0.1482  0.4149  0.2898
   17MOL0     C 2173   2.544   1.102   8.396 -0.5036  0.7005 -0.4237
   17MOL0     C 2174   2.577   0.986   8.494 -0.5394  0.5876 -0.7543
   17MOL0     C 2175   2.450   0.891   8.505  0.9886 -0.1287  0.3950
   17MOL0     C 2176   2.489   0.765   8.586 -0.1639  0.0064 -0.3573
   17MOL0     N 2177   2.382   0.667   8.588 -0.4228  0.4480 -0.0451
   17MOL0     C 2178   2.275   0.659   8.676 -0.2434  0.1968 -0.4141
   17MOL0     C 2179   2.179   0.571   8.628 -0.8511 -0.3069 -0.3899
   17MOL0     C 2180   2.062   0.535   8.714 -0.0510  0.1718 -0.1456
   17MOL0     C 2181   1.933   0.601   8.663  0.2661 -0.2092  0.4219
   17MOL0     C 2182   1.812   0.593   8.758  0.5558  0.0274  0.2919
   17MOL0     C 2183   1.732   0.464   8.775  0.7671 -0.1018 -0.3819
   17MOL0     O 2184   1.600   0.499   8.730 -0.6402 -0.1991  0.2718
   17MOL0     C 2185   1.501   0.403   8.734  0.0656 -0.7061  0.0270
   17MOL0     C 2186   1.381   0.435   8.666 -0.1556 -0.0548 -0.8062
   17MOL0     C 2187   1.266   0.350   8.667 -0.2909  0.5239  0.8439
   17MOL0     C 2188   1.154   0.367   8.567  0.5093 -0.2856  0.3381
   17MOL0     C 2189   1.272   0.238   8.752 -0.1892 -0.0606  1.2959
   17MOL0     C 2190   1.151   0.173   8.800  0.1246  0.3871  0.3984
   17MOL0     O 2191   1.033   0.238   8.785  0.4066  0.2296 -0.3402
   17MOL0     C 2192   0.917   0.163   8.776  0.7537  0.2129  0.0546
   17MOL0     C 2193   0.814   0.187   8.866  0.2825  0.2380 -0.3171
   17MOL0     C 2194   0.696   0.114   8.869  0.8260  0.4593  0.1583
   17MOL0     C 2195   0.676   0.017   8.778  0.4660 -0.2144  0.1716
   17MOL0     O 2196   0.544  -0.042   8.778 -0.3187 -1.1547 -0.7511
   17MOL0     C 2197   0.531  -0.173   8.726  0.4131  0.7080 -0.5753
   17MOL0     C 2198   0.417  -0.245   8.801  0.6704 -0.3205  0.4717
   17MOL0     C 2199   0.451  -0.244   8.953  0.2279  0.6182  0.5948
   17MOL0     C 2200   0.358  -0.315   9.043 -0.0514 -0.6428  0.9528
   17MOL0     C 2201   0.413  -0.321   9.189 -0.3109 -0.5902 -0.5602
   17MOL0     C 2202   0.295  -0.343   9.286  0.5757 -0.1031 -0.3728
   17MOL0     C 2203   0.245  -0.489   9.306  0.8132 -0.1802 -0.2847
   17MOL0     C 2204   0.212  -0.511   9.455  0.0748 -0.9394 -0.4403
   17MOL0    Cl 2205   0.090  -0.399   9.501 -0.5051 -0.1460 -0.4503
   17MOL0     C 2206   0.772  -0.015   8.676 -0.0743 -0.6229 -0.4486
   17MOL0     C 2207   0.893   0.062   8.678 -1.1833  1.8061  0.4655
   17MOL0     O 2208   1.164   0.060   8.843 -0.0997 -1.1313  0.0140
   17MOL0     C 2209   1.387   0.202   8.820  0.0223  0.3467 -0.1367
   17MOL0     C 2210   1.496   0.283   8.815 -0.0885 -0.8592  0.0325
   17MOL0     N 2211   2.240   0.528   8.514 -0.7598 -0.4869 -0.2030
   17MOL0     N 2212   2.350   0.587   8.483 -0.2986  0.7645 -0.7871
   17MOL0     C 2213   3.261   1.406   8.286  1.1422  0.0325 -0.5411
   17MOL0     C 2214   3.375   1.450   8.223  0.1462  0.5504 -0.8270
   17MOL0     C 2215   3.670   1.792   8.077 -0.3970  0.8306 -0.4108
   17MOL0     C 2216   3.679   1.922   8.022 -0.0829 -1.0366 -0.4346
   17MOL0     C 2217   3.801   1.983   7.999 -0.3653 -0.3437 -0.7327
   17MOL0     C 2218   3.917   1.911   8.028  0.0083 -0.2293  1.1425
   17MOL0     O 2219   4.042   1.962   7.999  0.7179  0.7601 -1.3495
   17MOL0     C 2220   4.048   2.006   7.861 -0.5338 -0.1925 -0.8562
   17MOL0     C 2221   4.060   1.880   7.779  0.4234 -0.8364  0.2154
   17MOL0     C 2222   4.091   1.903   7.625  0.1796  0.1861  0.1832
   17MOL0     C 2223   4.229   1.839   7.595 -0.1800  0.6819  0.2649
   17MOL0     C 2224   4.326   1.904   7.678  0.1232 -0.4890 -0.2683
   17MOL0     C 2225   4.402   1.976   7.732 -0.6400  0.8867  0.3058
   17MOL0     C 2226   3.913   1.777   8.068 -0.7087  0.1594 -0.4573
   17MOL0     C 2227   3.792   1.717   8.095  0.6217  0.6303 -0.0424
   17MOL0     H 2228   3.339   1.782   8.284 -1.3155 -0.5840 -1.2655
   17MOL0     H 2229   3.136   1.714   8.387  1.9192  1.5629 -0.8600
   17MOL0     H 2230   2.955   1.385   8.223 -2.8059  1.6492  1.1238
   17MOL0     H 2231   3.023   1.266   8.321 -0.9727 -0.0486 -3.5330
   17MOL0     H 2232   2.848   1.348   8.512  1.9344 -0.6948 -0.4785
   17MOL0     H 2233   2.777   1.438   8.379 -1.7957 -1.0024 -0.8797
   17MOL0     H 2234   2.763   1.217   8.252 -1.0729 -2.1987 -0.1547
   17MOL0     H 2235   2.820   1.136   8.404  0.5605  1.1621  2.2578
   17MOL0     H 2236   2.636   1.258   8.537  1.1364  0.4602  0.1881
   17MOL0     H 2237   2.577   1.314   8.387  0.7692  1.8419  1.8514
   17MOL0     H 2238   2.439   1.131   8.394 -0.9980 -0.9643 -0.9592
   17MOL0     H 2239   2.562   1.058   8.298 -2.8756 -1.5669  0.0278
   17MOL0     H 2240   2.660   0.934   8.445 -0.9999  1.0205 -2.0558
   17MOL0     H 2241   2.610   1.022   8.591  0.9629  1.4165 -1.5371
   17MOL0     H 2242   2.372   0.952   8.552 -0.2881 -1.0423 -0.4704
   17MOL0     H 2243   2.431   0.873   8.399  0.1866 -0.5810  0.6093
   17MOL0     H 2244   2.506   0.802   8.687  1.8983 -1.7922  0.0053
   17MOL0     H 2245   2.573   0.713   8.540  1.0617  1.6347 -0.0629
   17MOL0     H 2246   2.276   0.716   8.769  2.3476 -0.9009  0.3189
   17MOL0     H 2247   2.045   0.428   8.729 -0.4586  0.4284  1.4639
   17MOL0     H 2248   2.066   0.580   8.814 -3.8141  1.3267 -0.3649
   17MOL0     H 2249   1.912   0.548   8.569  0.7655  1.2944 -0.5781
   17MOL0     H 2250   1.971   0.701   8.643  3.4804 -1.0071  1.8251
   17MOL0     H 2251   1.747   0.675   8.726 -1.7942 -1.8047  0.0504
   17MOL0     H 2252   1.842   0.618   8.860 -1.5965  0.2061  0.9295
   17MOL0     H 2253   1.725   0.453   8.884  0.2222  1.3646 -0.2428
   17MOL0     H 2254   1.756   0.372   8.721  0.2501 -0.8521  0.6306
   17MOL0     H 2255   1.392   0.526   8.608 -2.4626 -0.8635 -2.6886
   17MOL0     H 2256   1.063   0.411   8.611  1.6365  0.9547  1.5255
   17MOL0     H 2257   1.186   0.437   8.489  2.1150 -4.0401 -2.6746
   17MOL0     H 2258   1.130   0.269   8.526  0.8156 -0.4069  0.4495
   17MOL0     H 2259   0.832   0.263   8.941  1.6382  1.6518 -1.9628
   17MOL0     H 2260   0.613   0.146   8.932 -0.5365 -1.6139 -0.4814
   17MOL0     H 2261   0.499  -0.167   8.622  3.3582 -1.0141 -1.7051
   17MOL0     H 2262   0.618  -0.239   8.737 -0.0185  0.1515 -0.4513
   17MOL0     H 2263   0.326  -0.185   8.793 -0.3502 -1.9105 -0.3439
   17MOL0     H 2264   0.394  -0.340   8.753  1.8672 -0.4270  0.0769
   17MOL0     H 2265   0.451  -0.141   8.991  0.0306  1.7083 -2.1523
   17MOL0     H 2266   0.545  -0.297   8.964 -0.4852 -0.6677  0.6463
   17MOL0     H 2267   0.253  -0.282   9.042 -0.0319 -0.5334  1.7433
   17MOL0     H 2268   0.360  -0.420   9.010  0.6568 -0.3077 -0.0877
   17MOL0     H 2269   0.454  -0.226   9.224  2.3122 -1.6821 -0.4797
   17MOL0     H 2270   0.491  -0.398   9.191  1.2131  0.9056 -0.8359
   17MOL0     H 2271   0.330  -0.297   9.379  1.1651  0.4218 -0.8483
   17MOL0     H 2272   0.209  -0.300   9.234 -0.6991 -0.8684  1.0328
   17MOL0     H 2273   0.318  -0.564   9.275  1.7517 -0.4464  2.2952
   17MOL0     H 2274   0.154  -0.504   9.247 -0.0519 -0.6267  1.0961
   17MOL0     H 2275   0.302  -0.497   9.515 -0.4778  0.8352  0.0350
   17MOL0     H 2276   0.178  -0.615   9.454 -0.1328 -0.8723 -1.3378
   17MOL0     H 2277   0.754  -0.077   8.588 -2.9213  0.8270 -0.9929
   17MOL0     H 2278   0.965   0.065   8.597 -2.0988  1.7400 -0.3586
   17MOL0     H 2279   1.394   0.115   8.885  3.0101  0.2426 -0.4350
   17MOL0     H 2280   1.579   0.252   8.879 -1.3398 -2.9044  0.7731
   17MOL0     H 2281   3.241   1.300   8.290 -0.7927  0.2380 -2.6070
   17MOL0     H 2282   3.437   1.368   8.189 -1.7482 -1.4762  0.3675
   17MOL0     H 2283   3.589   1.978   7.998  0.7264  1.4849  1.8686
   17MOL0     H 2284   3.797   2.082   7.954 -0.0929 -0.0378 -0.0907
   17MOL0     H 2285   3.962   2.067   7.830 -0.9380  0.7049  1.7271
   17MOL0     H 2286   4.138   2.064   7.839 -0.8825  0.3514 -0.8899
   17MOL0     H 2287   3.960   1.834   7.775 -0.8829  1.8697 -1.0356
   17MOL0     H 2288   4.132   1.809   7.820  1.6046 -0.5593 -1.2863
   17MOL0     H 2289   4.090   2.005   7.585 -1.6590  0.2749  0.3782
   17MOL0     H 2290   4.017   1.851   7.564 -2.7201  0.5726  3.0582
   17MOL0     H 2291   4.258   1.853   7.490  1.9984 -1.0647  0.5608
   17MOL0     H 2292   4.228   1.732   7.616 -2.7268  0.5204 -0.3985
   17MOL0     H 2293   4.476   2.042   7.772  0.8955 -1.4068  1.5040
   17MOL0     H 2294   4.006   1.727   8.096  0.7956  4.2368  3.0086
   17MOL0     H 2295   3.792   1.616   8.134  1.1874  1.4605  2.2414
   18MOL0     O 2296   1.469   3.643   4.034 -1.0092  0.9171  0.5115
   18MOL0     C 2297   1.509   3.760   4.039 -0.7257 -0.7174  0.1663
   18MOL0     O 2298   1.577   3.818   4.141 -0.4694  0.1934 -1.3621
   18MOL0     C 2299   1.617   3.750   4.253  0.9037 -0.2167 -0.3694
   18MOL0     C 2300   1.522   3.697   4.346  0.0211 -0.9712  0.5329
   18MOL0     C 2301   1.568   3.633   4.461 -0.1524 -0.5489  0.9065
   18MOL0     C 2302   1.706   3.616   4.479 -0.0736  0.5536 -0.5412
   18MOL0     O 2303   1.751   3.539   4.584  0.0108 -0.1635  0.2546
   18MOL0     C 2304   1.731   3.397   4.560  0.3726  0.1567  0.8628
   18MOL0     C 2305   1.813   3.332   4.659  0.2333 -0.0482 -0.1815
   18MOL0     C 2306   1.809   3.178   4.650  0.7495  0.0019  0.0578
   18MOL0     C 2307   1.886   3.110   4.761  0.1248 -0.4093 -0.5534
   18MOL0     C 2308   1.916   2.961   4.741  0.3512 -0.6616 -0.2120
   18MOL0     C 2309   2.035   2.913   4.831 -0.7800 -0.7091  0.0632
   18MOL0     C 2310   2.165   2.959   4.767  0.3126 -0.5566  0.1325
   18MOL0     C 2311   2.284   2.942   4.873 -0.5056  0.2320  0.1633
   18MOL0     N 2312   2.292   2.805   4.931 -0.1242 -0.0556 -0.4376
   18MOL0     C 2313   2.265   2.782   5.064  0.4235  0.2085 -0.4184
   18MOL0     C 2314   2.249   2.647   5.078 -0.9526 -1.4208 -0.3572
   18MOL0     C 2315   2.187   2.572   5.190 -0.5265 -0.4672 -0.2726
   18MOL0     C 2316   2.164   2.425   5.166  0.0822  0.0747  0.1751
   18MOL0     C 2317   2.132   2.334   5.290 -0.3361 -0.4157  0.2853
   18MOL0     C 2318   2.080   2.201   5.237 -0.2272  0.2855 -0.8317
   18MOL0     O 2319   2.024   2.101   5.326 -0.4765  0.1462 -0.6259
   18MOL0     C 2320   2.098   2.029   5.414 -0.6125 -0.6808  0.4997
   18MOL0     C 2321   2.241   2.042   5.427  0.5493 -0.4661 -0.7343
   18MOL0     C 2322   2.314   1.954   5.515 -0.0549 -0.6448  0.1420
   18MOL0     C 2323   2.467   1.971   5.507 -0.0358  0.2409  0.7936
   18MOL0     C 2324   2.245   1.859   5.588  0.0175  0.7300 -0.3700
   18MOL0     C 2325   2.306   1.762   5.687 -0.4424  0.2636 -0.0287
   18MOL0     O 2326   2.229   1.657   5.717  0.2230 -0.0024  0.3180
   18MOL0     C 2327   2.260   1.549   5.796 -0.9276  0.3837  0.4805
   18MOL0     C 2328   2.315   1.568   5.921  0.0063 -0.1166 -0.5575
   18MOL0     C 2329   2.341   1.459   6.014  0.0484 -0.4596  0.4747
   18MOL0     C 2330   2.303   1.326   5.973  0.2310 -0.4817  0.5945
   18MOL0     O 2331   2.326   1.211   6.037  0.5197  0.3893  0.2470
   18MOL0     C 2332   2.350   1.228   6.179 -0.6614  0.2858  0.5080
   18MOL0     C 2333   2.346   1.091   6.247  0.5138 -0.0929 -0.0824
   18MOL0     C 2334   2.403   1.095   6.395  0.7452 -0.3665  0.2610
   18MOL0     C 2335   2.335   0.974   6.470  0.0176  0.5833  0.0339
   18MOL0     C 2336   2.399   0.951   6.607 -0.2193  0.3727 -0.9143
   18MOL0     C 2337   2.537   0.885   6.625  0.4338  0.2383 -0.1316
   18MOL0     C 2338   2.586   0.917   6.766 -0.2672 -0.3422 -1.1933
   18MOL0     C 2339   2.633   1.063   6.770 -0.8887 -0.3700 -0.8346
   18MOL0    Cl 2340   2.808   1.052   6.756 -0.0011 -0.1720  0.1505
   18MOL0     C 2341   2.258   1.313   5.838  0.1343 -0.9802 -0.5920
   18MOL0     C 2342   2.233   1.422   5.753 -0.3477  0.2507 -0.4741
   18MOL0     O 2343   2.415   1.783   5.737 -0.5290 -0.4398 -0.1916
   18MOL0     C 2344   2.099   1.863   5.582  0.9612  0.9898  0.6361
   18MOL0     C 2345   2.024   1.948   5.500 -1.2300  0.5157 -0.0902
   18MOL0     N 2346   2.290   2.599   4.951  0.1692  0.8052 -0.0368
   18MOL0     N 2347   2.301   2.686   4.864  0.1377 -0.4000 -0.2884
   18MOL0     C 2348   1.798   3.670   4.386  0.4321 -0.2085 -1.0033
   18MOL0     C 2349   1.753   3.738   4.276  0.2114 -0.2932  0.4852
   18MOL0     C 2350   1.472   3.847   3.928 -0.3544  0.6665  1.0353
   18MOL0     C 2351   1.492   3.985   3.915 -0.5124  0.6443  0.0910
   18MOL0     C 2352   1.464   4.059   3.798  0.0300 -0.2576  1.2603
   18MOL0     C 2353   1.424   3.988   3.680  0.3206 -0.0269 -0.4254
   18MOL0     O 2354   1.401   4.048   3.555  0.4595 -0.1098 -0.7199
   18MOL0     C 2355   1.476   4.166   3.524  0.1837 -0.8320  0.5724
   18MOL0     C 2356   1.459   4.198   3.378  0.1100 -0.5773 -0.3489
   18MOL0     C 2357   1.322   4.208   3.334  0.2310 -0.4316  0.3385
   18MOL0     C 2358   1.248   4.321   3.401 -0.9059  0.5834 -0.6606
   18MOL0     C 2359   1.121   4.374   3.339 -0.1873  0.4224 -0.2106
   18MOL0     C 2360   1.021   4.415   3.289  1.2672  0.7990 -0.0934
   18MOL0     C 2361   1.386   3.863   3.700  0.0361  0.9583 -0.1099
   18MOL0     C 2362   1.412   3.792   3.812 -0.2923 -0.4854 -0.4926
   18MOL0     H 2363   1.415   3.702   4.328  0.3108 -0.0811 -1.2190
   18MOL0     H 2364   1.503   3.587   4.536  1.1946 -1.3071  1.6457
   18MOL0     H 2365   1.625   3.369   4.567  0.7720 -1.7328  0.0940
   18MOL0     H 2366   1.772   3.366   4.463  0.8033  0.0649  1.0724
   18MOL0     H 2367   1.918   3.363   4.659  0.7610 -1.6889  0.8429
   18MOL0     H 2368   1.771   3.358   4.756 -2.0542  1.1363 -1.3914
   18MOL0     H 2369   1.701   3.163   4.665 -0.3290  0.8529 -4.8269
   18MOL0     H 2370   1.837   3.143   4.550  2.2786  1.9803 -0.2496
   18MOL0     H 2371   1.981   3.164   4.768 -1.4757  2.5308  0.3886
   18MOL0     H 2372   1.834   3.121   4.857  1.6718  0.2824  0.2416
   18MOL0     H 2373   1.827   2.905   4.773 -0.3543 -0.0937 -1.1060
   18MOL0     H 2374   1.925   2.935   4.635 -1.5936 -0.1651 -0.5488
   18MOL0     H 2375   2.037   2.947   4.935 -1.1179 -1.2241  0.2456
   18MOL0     H 2376   2.034   2.803   4.835 -1.9527 -0.6818  2.4219
   18MOL0     H 2377   2.187   2.907   4.674  1.5928  0.4125 -0.1200
   18MOL0     H 2378   2.163   3.065   4.743 -0.8768 -0.9692 -1.8020
   18MOL0     H 2379   2.274   3.007   4.961 -2.7298 -0.7277  0.7058
   18MOL0     H 2380   2.380   2.964   4.826  0.3816 -0.8211  1.4025
   18MOL0     H 2381   2.247   2.855   5.142 -0.5410 -1.7615  1.3358
   18MOL0     H 2382   2.250   2.568   5.280  1.5508  0.5983 -1.5870
   18MOL0     H 2383   2.091   2.616   5.219 -2.0305 -4.3586  1.2782
   18MOL0     H 2384   2.247   2.385   5.107 -2.5326 -4.2503 -1.0602
   18MOL0     H 2385   2.083   2.405   5.096  0.3660 -0.2853 -0.0528
   18MOL0     H 2386   2.042   2.365   5.344 -2.2449  1.9341 -3.7813
   18MOL0     H 2387   2.211   2.339   5.365 -0.2012  0.0351  0.1187
   18MOL0     H 2388   2.165   2.162   5.180  0.2421 -0.4113  0.3177
   18MOL0     H 2389   1.995   2.222   5.172 -1.7979  1.0974  1.3423
   18MOL0     H 2390   2.290   2.124   5.375  0.2990 -1.5240 -2.7414
   18MOL0     H 2391   2.512   2.027   5.590  2.9278  1.3267 -1.3630
   18MOL0     H 2392   2.506   1.869   5.498  0.9709  0.7456 -1.2051
   18MOL0     H 2393   2.489   2.017   5.411 -1.6536  0.4176  0.4829
   18MOL0     H 2394   2.329   1.668   5.961 -2.9654 -0.2948  1.2512
   18MOL0     H 2395   2.376   1.472   6.115 -0.6331 -1.0837  0.8011
   18MOL0     H 2396   2.448   1.267   6.207  0.5251 -1.8521 -0.4162
   18MOL0     H 2397   2.271   1.285   6.227 -1.4580 -1.4938  1.3863
   18MOL0     H 2398   2.246   1.047   6.249  0.9264 -1.3968 -3.0273
   18MOL0     H 2399   2.399   1.016   6.188  1.8629 -0.3096  1.3181
   18MOL0     H 2400   2.392   1.192   6.445  3.6174  0.2600 -0.1603
   18MOL0     H 2401   2.509   1.072   6.384  0.3388 -1.8132 -1.0849
   18MOL0     H 2402   2.232   0.999   6.496  0.5149  0.1549  2.6408
   18MOL0     H 2403   2.335   0.880   6.414  4.1481 -0.5692  1.6040
   18MOL0     H 2404   2.333   0.880   6.658  1.0557  1.9256  3.3299
   18MOL0     H 2405   2.390   1.050   6.653  1.5183 -0.5297  1.5530
   18MOL0     H 2406   2.520   0.779   6.607 -0.1464  0.1808  0.7017
   18MOL0     H 2407   2.609   0.912   6.547 -1.1855 -1.4386 -2.3310
   18MOL0     H 2408   2.665   0.850   6.802  3.7615  4.0180 -0.9626
   18MOL0     H 2409   2.498   0.909   6.829  1.4982  2.8817  2.0268
   18MOL0     H 2410   2.605   1.121   6.859 -0.7500 -3.7708  1.6001
   18MOL0     H 2411   2.594   1.122   6.686  4.6537  1.1606 -2.7144
   18MOL0     H 2412   2.232   1.214   5.802 -0.8468 -1.6494  1.8082
   18MOL0     H 2413   2.197   1.412   5.650  1.6507 -0.1743 -1.1688
   18MOL0     H 2414   2.042   1.783   5.629  0.1590 -0.2684 -2.2699
   18MOL0     H 2415   1.916   1.940   5.500 -1.0773 -2.4623 -0.9640
   18MOL0     H 2416   1.897   3.668   4.432  0.5506 -3.6465 -1.1847
   18MOL0     H 2417   1.822   3.790   4.212  2.9069 -2.3882  1.4762
   18MOL0     H 2418   1.544   4.033   3.998 -1.3069 -2.0416  2.2959
   18MOL0     H 2419   1.500   4.161   3.788 -0.2282 -0.3396 -1.3081
   18MOL0     H 2420   1.438   4.241   3.593  3.2939  0.6236  0.8489
   18MOL0     H 2421   1.582   4.150   3.546 -0.3231 -1.1975  3.0449
   18MOL0     H 2422   1.514   4.124   3.320 -2.1689 -2.7633  0.1159
   18MOL0     H 2423   1.508   4.295   3.368 -1.6050  0.2519 -1.1824
   18MOL0     H 2424   1.272   4.111   3.346  0.5480 -0.9420 -1.9074
   18MOL0     H 2425   1.336   4.232   3.228 -0.7461  0.4481  0.4035
   18MOL0     H 2426   1.297   4.419   3.397  0.0247  0.2674  1.5803
   18MOL0     H 2427   1.226   4.290   3.504 -0.6684 -1.8786 -1.3087
   18MOL0     H 2428   0.937   4.456   3.236  0.1366 -1.0443  0.1624
   18MOL0     H 2429   1.342   3.808   3.618  1.0556 -4.3555  2.4911
   18MOL0     H 2430   1.383   3.688   3.822  1.7469 -1.6889 -4.7201
   19MOL0     O 2431   1.078   8.691   4.812 -0.3037  0.7374  0.0494
   19MOL0     C 2432   1.107   8.751   4.709 -0.1908 -0.1900 -0.0517
   19MOL0     O 2433   1.230   8.785   4.677 -0.0731  0.6255  0.2907
   19MOL0     C 2434   1.342   8.756   4.754 -0.0849  0.4896 -0.8552
   19MOL0     C 2435   1.433   8.858   4.801 -0.1666 -0.1301 -0.3113
   19MOL0     C 2436   1.536   8.823   4.885 -0.4806 -0.3374 -0.8519
   19MOL0     C 2437   1.564   8.690   4.913 -0.3919  0.1509 -0.4812
   19MOL0     O 2438   1.659   8.643   4.999  0.8442 -0.7776  0.6723
   19MOL0     C 2439   1.759   8.731   5.042  0.4453  0.2394  0.1224
   19MOL0     C 2440   1.859   8.754   4.932 -0.3571 -0.7792 -0.0672
   19MOL0     C 2441   1.938   8.634   4.898 -1.4094 -0.0039 -0.0201
   19MOL0     C 2442   2.047   8.650   4.784  0.8233 -0.7871 -1.1628
   19MOL0     C 2443   2.112   8.517   4.734 -0.2535 -0.0449 -0.1280
   19MOL0     C 2444   2.024   8.397   4.738  0.5315 -0.3159  0.2975
   19MOL0     C 2445   2.086   8.281   4.656  0.3981  0.1928 -0.6230
   19MOL0     C 2446   2.094   8.296   4.506  1.3529  0.1647 -1.2536
   19MOL0     N 2447   1.970   8.353   4.445  0.4310  0.2584 -0.9845
   19MOL0     C 2448   1.942   8.481   4.423  0.2858 -0.1461 -0.0183
   19MOL0     C 2449   1.815   8.490   4.382  0.4689  0.3018  0.5693
   19MOL0     C 2450   1.739   8.618   4.362 -0.2931 -0.6096  0.5453
   19MOL0     C 2451   1.661   8.666   4.478  0.5379 -0.8565 -0.8561
   19MOL0     C 2452   1.597   8.795   4.432  0.0925  0.2930  0.1002
   19MOL0     C 2453   1.482   8.774   4.334  0.9415  0.3934  0.4310
   19MOL0     O 2454   1.421   8.896   4.303  0.1214 -0.1355 -0.4829
   19MOL0     C 2455   1.314   8.900   4.218 -0.1036 -0.0955 -0.3014
   19MOL0     C 2456   1.259   9.028   4.199 -0.6479  0.9489 -0.4628
   19MOL0     C 2457   1.155   9.056   4.117  0.2858 -0.3434 -0.3946
   19MOL0     C 2458   1.125   9.196   4.101  0.3937  0.0627  1.2780
   19MOL0     C 2459   1.098   8.953   4.045  0.0704  0.4401 -1.4974
   19MOL0     C 2460   0.984   8.964   3.956 -0.6176  0.9101 -0.1118
   19MOL0     O 2461   0.880   9.052   3.987 -0.4968 -0.2934 -0.3984
   19MOL0     C 2462   0.778   9.060   3.901  0.0816  0.3060 -0.3290
   19MOL0     C 2463   0.713   8.937   3.864  0.3250 -0.5125 -0.1775
   19MOL0     C 2464   0.593   8.943   3.791 -0.5733  0.5826 -0.0885
   19MOL0     C 2465   0.542   9.073   3.753  0.0784  0.2700 -0.1599
   19MOL0     O 2466   0.432   9.092   3.673  0.3807 -0.4006 -0.4381
   19MOL0     C 2467   0.328   9.004   3.655  0.8961 -0.1908  0.3226
   19MOL0     C 2468   0.204   9.065   3.591 -0.0837 -0.7185  0.1135
   19MOL0     C 2469   0.233   9.127   3.455 -0.1300 -0.2764  0.1547
   19MOL0     C 2470   0.104   9.189   3.395  0.8917 -0.1814 -0.0624
   19MOL0     C 2471   0.113   9.233   3.246 -0.5592 -0.6018  0.1590
   19MOL0     C 2472   0.201   9.345   3.218  0.3773  0.2878 -0.0886
   19MOL0     C 2473   0.166   9.410   3.080  0.5058  0.4417 -0.6193
   19MOL0     C 2474   0.254   9.537   3.055  1.3342 -0.3519  0.1989
   19MOL0    Cl 2475   0.414   9.478   3.008 -0.2354 -0.3203  0.0092
   19MOL0     C 2476   0.605   9.188   3.791 -0.3640 -0.5173  0.3200
   19MOL0     C 2477   0.724   9.178   3.864  0.3152  0.5979  0.0810
   19MOL0     O 2478   0.985   8.873   3.863 -0.4028 -0.1765 -0.5267
   19MOL0     C 2479   1.159   8.821   4.058 -0.0188  0.2841 -0.1651
   19MOL0     C 2480   1.262   8.798   4.146  0.3052  0.1941 -0.5898
   19MOL0     N 2481   1.769   8.361   4.359  0.5134 -0.1791 -0.1533
   19MOL0     N 2482   1.857   8.286   4.403 -0.7796  1.0318  0.7776
   19MOL0     C 2483   1.491   8.596   4.855 -0.1552 -0.2037 -0.4433
   19MOL0     C 2484   1.374   8.619   4.775  0.0795  0.0379 -0.5496
   19MOL0     C 2485   0.996   8.811   4.634 -0.1622 -0.5118 -0.9778
   19MOL0     C 2486   0.864   8.788   4.658 -0.3929 -0.6119  0.5690
   19MOL0     C 2487   0.762   8.849   4.583 -0.0985 -0.5024  0.0258
   19MOL0     C 2488   0.787   8.945   4.488 -1.1313 -0.3946  0.1850
   19MOL0     O 2489   0.684   9.001   4.424 -0.4352  0.0677  0.3327
   19MOL0     C 2490   0.707   9.096   4.321  0.5490  0.7418 -0.0331
   19MOL0     C 2491   0.580   9.150   4.250 -0.6175 -0.5428 -0.2822
   19MOL0     C 2492   0.471   9.209   4.354  0.0051 -0.0143  0.0728
   19MOL0     C 2493   0.341   9.114   4.378 -0.4628 -0.4265 -0.2696
   19MOL0     C 2494   0.292   9.066   4.243  0.7723  0.6132 -0.9014
   19MOL0     C 2495   0.257   9.024   4.139 -0.6764  0.2565 -0.4732
   19MOL0     C 2496   0.926   8.959   4.456  0.0586  1.3014  0.9846
   19MOL0     C 2497   1.024   8.899   4.529  0.0755  0.0371 -0.7517
   19MOL0     H 2498   1.416   8.965   4.787  1.3104  0.3934  1.4333
   19MOL0     H 2499   1.586   8.902   4.939 -5.8208  3.1931 -0.2679
   19MOL0     H 2500   1.724   8.826   5.084 -0.7684 -1.7907  4.1495
   19MOL0     H 2501   1.810   8.689   5.129  0.9017 -0.4753 -0.4739
   19MOL0     H 2502   1.806   8.782   4.841 -1.3954  1.2930  1.0917
   19MOL0     H 2503   1.926   8.836   4.961  0.7891 -2.2186  1.5406
   19MOL0     H 2504   1.985   8.594   4.988 -2.3495  1.2501  1.0717
   19MOL0     H 2505   1.868   8.558   4.862 -0.0951 -0.6456 -1.3270
   19MOL0     H 2506   2.004   8.716   4.708 -1.9763  0.8663  1.6148
   19MOL0     H 2507   2.122   8.706   4.839 -2.9163  1.4650  2.2375
   19MOL0     H 2508   2.148   8.529   4.632  0.4240 -1.8019 -0.1419
   19MOL0     H 2509   2.205   8.507   4.791 -0.1964 -2.2540 -0.5061
   19MOL0     H 2510   1.998   8.387   4.844 -2.8933 -0.4316 -0.4187
   19MOL0     H 2511   1.926   8.421   4.695 -0.3045 -2.5569  0.7983
   19MOL0     H 2512   2.182   8.249   4.697 -0.1281  0.8641  1.2284
   19MOL0     H 2513   2.025   8.196   4.687  0.2296  0.6115  0.2217
   19MOL0     H 2514   2.107   8.195   4.466  4.8625 -0.2753  0.6677
   19MOL0     H 2515   2.178   8.363   4.485 -0.0912  2.8515  0.8852
   19MOL0     H 2516   2.017   8.558   4.439  1.8632 -1.9543  1.7309
   19MOL0     H 2517   1.813   8.695   4.336 -1.0247  0.2699  0.9907
   19MOL0     H 2518   1.667   8.595   4.283  0.7436 -1.2555 -0.2334
   19MOL0     H 2519   1.738   8.689   4.552  0.1906 -2.1518 -0.0702
   19MOL0     H 2520   1.586   8.596   4.514 -0.8551  1.4899  1.1656
   19MOL0     H 2521   1.664   8.873   4.398  0.3716 -0.7839 -1.9340
   19MOL0     H 2522   1.557   8.839   4.524  0.5344  0.5844  0.1526
   19MOL0     H 2523   1.414   8.700   4.379  0.2179 -0.4504 -1.8849
   19MOL0     H 2524   1.521   8.728   4.243 -0.6010 -2.5682  1.1516
   19MOL0     H 2525   1.320   9.111   4.230  0.8423  0.3073 -1.5670
   19MOL0     H 2526   1.207   9.258   4.137 -0.0903 -0.4361  3.4221
   19MOL0     H 2527   1.102   9.226   3.999  0.9279  1.4814  1.5502
   19MOL0     H 2528   1.050   9.249   4.161  0.2398  0.9103  0.3506
   19MOL0     H 2529   0.755   8.842   3.894 -0.4062 -0.2551  1.8196
   19MOL0     H 2530   0.532   8.855   3.773 -0.7661  0.4682  1.0105
   19MOL0     H 2531   0.363   8.928   3.585 -0.3211 -0.2778 -0.2183
   19MOL0     H 2532   0.304   8.964   3.754 -1.9755  1.3661  0.3659
   19MOL0     H 2533   0.129   8.989   3.569 -0.2798  0.2896 -3.2677
   19MOL0     H 2534   0.167   9.140   3.662  1.0051  0.3695 -0.4426
   19MOL0     H 2535   0.266   9.054   3.379  2.5103 -1.3837  2.2141
   19MOL0     H 2536   0.322   9.189   3.470  0.1319 -0.8969  1.2668
   19MOL0     H 2537   0.032   9.107   3.395  2.0499 -1.2436  0.7768
   19MOL0     H 2538   0.065   9.273   3.453 -1.7229 -0.6642 -0.9677
   19MOL0     H 2539   0.010   9.257   3.216 -0.5540 -1.4196 -0.5391
   19MOL0     H 2540   0.142   9.142   3.193 -2.7426 -2.3691  1.8041
   19MOL0     H 2541   0.184   9.414   3.301 -3.7991 -1.1385  0.4599
   19MOL0     H 2542   0.297   9.294   3.227  1.2007  1.7739 -0.0904
   19MOL0     H 2543   0.060   9.436   3.090  0.1639 -1.0309 -0.1868
   19MOL0     H 2544   0.165   9.336   3.000 -2.8937 -2.2381  1.6029
   19MOL0     H 2545   0.274   9.598   3.144  1.4442  2.2673 -1.4941
   19MOL0     H 2546   0.200   9.596   2.980 -1.7204 -4.4454 -1.2293
   19MOL0     H 2547   0.557   9.283   3.769 -3.3911 -1.3977  2.4787
   19MOL0     H 2548   0.762   9.273   3.900  2.7466 -0.5570  0.7710
   19MOL0     H 2549   1.110   8.738   4.008 -0.1455  0.1535  0.1736
   19MOL0     H 2550   1.318   8.706   4.131 -3.3008 -1.9887 -1.8241
   19MOL0     H 2551   1.511   8.493   4.883 -1.7383 -1.1188 -2.4317
   19MOL0     H 2552   1.312   8.537   4.739 -0.4253 -0.5656  1.5381
   19MOL0     H 2553   0.830   8.715   4.730  0.3580  0.6927  2.3147
   19MOL0     H 2554   0.666   8.806   4.609 -0.2998  0.3646  0.7744
   19MOL0     H 2555   0.749   9.184   4.371 -0.6931  1.0337  0.5477
   19MOL0     H 2556   0.772   9.050   4.246 -1.0534 -0.8568 -0.5192
   19MOL0     H 2557   0.534   9.066   4.198 -2.1935 -0.2927  0.6538
   19MOL0     H 2558   0.607   9.216   4.166 -0.5847 -0.4093 -0.1675
   19MOL0     H 2559   0.440   9.306   4.314  2.1809  0.7676  0.1776
   19MOL0     H 2560   0.511   9.228   4.454 -1.0799 -0.6650  0.6508
   19MOL0     H 2561   0.265   9.164   4.438  1.1554 -0.4899  1.9686
   19MOL0     H 2562   0.371   9.025   4.435  0.3110 -1.2524 -1.8933
   19MOL0     H 2563   0.209   8.997   4.047 -2.5987  1.7196  0.0407
   19MOL0     H 2564   0.952   9.034   4.381 -0.6987 -0.2028 -0.8835
   19MOL0     H 2565   1.127   8.915   4.498  0.9735  2.0334  2.7726
   20MOL0     O 2566   8.419   7.584   8.758  0.5399 -0.0082 -0.3513
   20MOL0     C 2567   8.359   7.678   8.706 -0.3759 -0.4499 -0.2549
   20MOL0     O 2568   8.254   7.671   8.630  0.4943  0.7464 -1.1676
   20MOL0     C 2569   8.183   7.560   8.605  0.8878  0.2609  0.7457
   20MOL0     C 2570   8.043   7.584   8.592 -0.6008 -0.0455  0.1550
   20MOL0     C 2571   7.952   7.474   8.578 -0.0020 -0.6932 -0.7658
   20MOL0     C 2572   8.010   7.354   8.551 -0.2157  0.3030 -0.0724
   20MOL0     O 2573   7.930   7.249   8.514 -0.0340  0.2196 -0.2745
   20MOL0     C 2574   7.929   7.222   8.376  0.6292 -0.0158  0.0449
   20MOL0     C 2575   8.031   7.109   8.346 -0.6676 -0.7515 -0.3615
   20MOL0     C 2576   7.995   7.029   8.214  0.4986  0.0460  0.3964
   20MOL0     C 2577   8.007   7.117   8.086 -0.9634 -0.7852 -0.3184
   20MOL0     C 2578   8.026   7.038   7.958  0.1440 -0.0119 -0.2225
   20MOL0     C 2579   7.915   6.940   7.934  0.7810 -1.2172 -0.6074
   20MOL0     C 2580   7.773   6.994   7.932  0.5187  0.3141 -0.6812
   20MOL0     C 2581   7.675   6.930   7.837  0.6830  0.1820 -0.3285
   20MOL0     N 2582   7.651   6.790   7.864 -0.5151  0.1281 -0.6296
   20MOL0     C 2583   7.702   6.696   7.772  0.7521 -0.6375 -0.4619
   20MOL0     C 2584   7.663   6.585   7.831 -0.0520 -0.0587  0.3065
   20MOL0     C 2585   7.699   6.447   7.780 -0.7384 -0.3131 -0.6261
   20MOL0     C 2586   7.585   6.343   7.807 -0.4451  1.1073  0.3303
   20MOL0     C 2587   7.643   6.212   7.749  1.6018  0.2920 -0.2886
   20MOL0     C 2588   7.516   6.130   7.713 -0.1509  0.7503 -0.6242
   20MOL0     O 2589   7.434   6.186   7.602  0.1896 -0.1262 -0.0851
   20MOL0     C 2590   7.333   6.112   7.545  0.1738 -0.4191  0.1294
   20MOL0     C 2591   7.294   5.987   7.589 -0.8245 -0.3172  0.8781
   20MOL0     C 2592   7.211   5.900   7.508  0.2407  0.2844  0.1367
   20MOL0     C 2593   7.203   5.754   7.547 -0.2582  0.1210  0.0593
   20MOL0     C 2594   7.150   5.952   7.389 -1.3874  0.4767 -1.2537
   20MOL0     C 2595   7.071   5.879   7.285  0.3584 -0.6321  0.1478
   20MOL0     O 2596   7.053   5.944   7.161  0.0708  0.3575 -0.1975
   20MOL0     C 2597   6.989   5.876   7.063  0.0303 -0.1687 -0.5445
   20MOL0     C 2598   7.021   5.749   7.027  0.2063 -0.5815  0.8601
   20MOL0     C 2599   6.956   5.687   6.925  0.5682 -0.3139 -1.4708
   20MOL0     C 2600   6.853   5.755   6.861 -0.5394  0.5298 -0.1275
   20MOL0     O 2601   6.788   5.688   6.764 -0.2857  0.2982  0.0560
   20MOL0     C 2602   6.654   5.739   6.737  1.0336  0.0877  0.1982
   20MOL0     C 2603   6.567   5.627   6.671  0.0074 -0.7176 -0.2146
   20MOL0     C 2604   6.564   5.504   6.767 -0.2262 -0.0936 -0.6909
   20MOL0     C 2605   6.632   5.376   6.708  0.5560  0.6349 -0.4260
   20MOL0     C 2606   6.772   5.377   6.734 -0.0821 -0.4140 -0.4770
   20MOL0     C 2607   6.851   5.251   6.701  0.3072 -1.3381 -0.1965
   20MOL0     C 2608   7.003   5.278   6.692 -0.3102  0.1370 -0.0489
   20MOL0     C 2609   7.092   5.162   6.641  0.0697  0.8286  0.5702
   20MOL0    Cl 2610   7.073   5.121   6.473 -0.1783 -0.3160  0.3262
   20MOL0     C 2611   6.830   5.888   6.888 -0.4618 -0.7123  0.0221
   20MOL0     C 2612   6.898   5.949   6.993 -0.2164  0.2400  0.2778
   20MOL0     O 2613   7.014   5.775   7.320  0.0012 -0.6273 -0.6883
   20MOL0     C 2614   7.174   6.089   7.366  0.2962  0.5967 -1.6205
   20MOL0     C 2615   7.256   6.168   7.443 -0.3099 -0.9739 -0.1363
   20MOL0     N 2616   7.608   6.610   7.959  0.2770  0.0547 -0.4642
   20MOL0     N 2617   7.608   6.733   7.979  0.0493  0.1308 -0.7733
   20MOL0     C 2618   8.142   7.331   8.551  0.1689 -0.7189 -0.0789
   20MOL0     C 2619   8.237   7.430   8.591  0.0787 -0.2252  0.2848
   20MOL0     C 2620   8.413   7.816   8.735  0.2462 -0.4094 -0.1653
   20MOL0     C 2621   8.331   7.930   8.770 -0.0324  1.0255  0.7601
   20MOL0     C 2622   8.391   8.051   8.796 -0.0423 -0.3216  0.3475
   20MOL0     C 2623   8.529   8.066   8.801  0.2048  0.3748  0.3988
   20MOL0     O 2624   8.598   8.177   8.846  0.7827  0.4644 -0.9669
   20MOL0     C 2625   8.522   8.296   8.850 -0.4107 -0.1656  0.3069
   20MOL0     C 2626   8.629   8.404   8.892  0.5436 -0.4130  0.2765
   20MOL0     C 2627   8.593   8.557   8.892  0.3350  0.1164 -0.6222
   20MOL0     C 2628   8.565   8.597   8.747 -0.0081 -0.0637  0.0844
   20MOL0     C 2629   8.530   8.737   8.749 -0.6407  0.0911 -0.7661
   20MOL0     C 2630   8.504   8.851   8.769 -0.6495 -0.7922  0.9389
   20MOL0     C 2631   8.606   7.963   8.760  0.1702  0.5850 -0.2914
   20MOL0     C 2632   8.550   7.837   8.741  0.2990 -0.2671  0.1644
   20MOL0     H 2633   8.015   7.689   8.595 -0.1775  0.8311 -7.4239
   20MOL0     H 2634   7.844   7.486   8.574  0.0306  1.0869  1.8054
   20MOL0     H 2635   7.830   7.183   8.352  0.5172  1.2940 -1.8762
   20MOL0     H 2636   7.933   7.313   8.314 -3.4972  0.2091 -0.1612
   20MOL0     H 2637   8.132   7.150   8.331 -0.3780 -1.2938  0.0632
   20MOL0     H 2638   8.037   7.040   8.431  0.2762  0.4470  0.5902
   20MOL0     H 2639   8.051   6.935   8.211  0.8348  0.2343 -3.2174
   20MOL0     H 2640   7.890   6.999   8.221 -0.0325  1.7116 -0.0482
   20MOL0     H 2641   7.928   7.188   8.059  0.6863  2.0769  1.7861
   20MOL0     H 2642   8.095   7.180   8.103 -0.2397 -1.9389  0.3368
   20MOL0     H 2643   8.014   7.105   7.873 -2.0833  1.5952  1.2347
   20MOL0     H 2644   8.118   6.981   7.942 -0.1237 -1.1634  1.8929
   20MOL0     H 2645   7.938   6.893   7.838  0.5186 -2.3924 -0.1058
   20MOL0     H 2646   7.916   6.864   8.012  0.5038 -3.4107 -2.6335
   20MOL0     H 2647   7.724   6.984   8.029 -0.4585  2.3532 -0.8941
   20MOL0     H 2648   7.773   7.098   7.898 -3.3702  0.2268 -1.4677
   20MOL0     H 2649   7.722   6.933   7.739  0.6684 -3.0164 -0.5529
   20MOL0     H 2650   7.578   6.980   7.832  0.0827 -0.9150 -0.1237
   20MOL0     H 2651   7.753   6.714   7.678  1.3391 -2.1189 -0.4542
   20MOL0     H 2652   7.715   6.458   7.672  0.5349  1.1328 -0.3116
   20MOL0     H 2653   7.792   6.415   7.828 -1.9262  1.3939  3.1987
   20MOL0     H 2654   7.496   6.380   7.757 -1.5696  0.5680  1.8386
   20MOL0     H 2655   7.570   6.330   7.915 -0.4217  3.1928  0.6382
   20MOL0     H 2656   7.701   6.153   7.821  1.2010 -1.5687 -1.4245
   20MOL0     H 2657   7.699   6.231   7.657 -0.2325  1.0305 -1.2864
   20MOL0     H 2658   7.449   6.130   7.800  0.5214 -0.5349 -0.0844
   20MOL0     H 2659   7.538   6.027   7.684 -3.7421 -0.9449  1.8049
   20MOL0     H 2660   7.324   5.944   7.683 -1.3161 -1.6221  0.4556
   20MOL0     H 2661   7.288   5.728   7.610  0.7466 -0.3023 -1.4171
   20MOL0     H 2662   7.104   5.726   7.583 -0.6141 -1.3642 -1.8828
   20MOL0     H 2663   7.208   5.690   7.458 -2.2061 -1.0990  0.7601
   20MOL0     H 2664   7.096   5.691   7.079 -0.6953 -2.1176  0.5010
   20MOL0     H 2665   6.968   5.582   6.900 -2.5444 -0.6845 -1.8350
   20MOL0     H 2666   6.611   5.769   6.833  1.5911  0.0090  0.4736
   20MOL0     H 2667   6.659   5.829   6.675  5.4292  0.0770  0.2703
   20MOL0     H 2668   6.471   5.677   6.656  0.7007  0.0132 -2.7313
   20MOL0     H 2669   6.608   5.604   6.572  1.2955  0.0568  0.1175
   20MOL0     H 2670   6.459   5.483   6.786 -0.4645  1.9719  0.5746
   20MOL0     H 2671   6.605   5.531   6.864 -4.2447  0.1645  1.1237
   20MOL0     H 2672   6.593   5.288   6.759 -0.8792  2.5901  2.1524
   20MOL0     H 2673   6.607   5.374   6.601 -1.7869 -0.8196  0.0791
   20MOL0     H 2674   6.789   5.412   6.836 -1.0813 -0.8006 -0.1655
   20MOL0     H 2675   6.810   5.463   6.679  0.3115  0.5021  1.1680
   20MOL0     H 2676   6.828   5.173   6.774 -2.2865 -1.5063 -1.1001
   20MOL0     H 2677   6.814   5.211   6.606  1.4506  0.6355 -1.5470
   20MOL0     H 2678   7.044   5.317   6.786  2.0679  0.4283 -1.1580
   20MOL0     H 2679   7.030   5.361   6.626 -0.3234 -0.9044 -1.3927
   20MOL0     H 2680   7.062   5.068   6.688 -2.3414  1.0432 -0.3648
   20MOL0     H 2681   7.197   5.188   6.651  0.3066  0.5061 -0.9040
   20MOL0     H 2682   6.747   5.941   6.843  0.4132  1.2283  0.5843
   20MOL0     H 2683   6.868   6.045   7.032  2.2542 -0.1262  3.4444
   20MOL0     H 2684   7.128   6.129   7.276 -1.7464 -1.2811 -1.4869
   20MOL0     H 2685   7.264   6.272   7.413 -1.9491 -0.4851  0.9973
   20MOL0     H 2686   8.180   7.233   8.524 -1.7330 -1.1460 -1.3926
   20MOL0     H 2687   8.343   7.407   8.593  0.7836  2.6369  3.0691
   20MOL0     H 2688   8.223   7.931   8.781 -0.3201  1.5607 -1.5609
   20MOL0     H 2689   8.331   8.130   8.841  0.2424 -0.3316  0.7388
   20MOL0     H 2690   8.479   8.318   8.752 -2.0071  0.1088  1.0265
   20MOL0     H 2691   8.439   8.296   8.922 -0.6896  3.2987  0.1433
   20MOL0     H 2692   8.720   8.400   8.831  1.1506  0.2724  1.1079
   20MOL0     H 2693   8.653   8.368   8.992  2.0690 -0.5375 -0.1115
   20MOL0     H 2694   8.673   8.615   8.938 -0.5714  2.3786 -1.7691
   20MOL0     H 2695   8.507   8.559   8.959  2.1441 -2.3323  1.9807
   20MOL0     H 2696   8.488   8.539   8.696 -1.1007  0.3961  1.1485
   20MOL0     H 2697   8.657   8.579   8.690  1.1824 -1.9959  2.4505
   20MOL0     H 2698   8.470   8.950   8.790  0.1275 -0.6508  1.5538
   20MOL0     H 2699   8.713   7.978   8.749  0.7581 -2.5229  0.3970
   20MOL0     H 2700   8.617   7.753   8.722  0.1576 -0.1668 -0.8371
   21MOL0     O 2701   9.231   2.927   7.906 -0.0384 -0.2906 -0.3740
   21MOL0     C 2702   9.247   2.968   7.791  0.4346 -0.2966  0.5511
   21MOL0     O 2703   9.360   3.022   7.735  0.3588 -0.2237 -0.7818
   21MOL0     C 2704   9.439   3.086   7.821 -0.0505 -0.6641  0.0842
   21MOL0     C 2705   9.457   3.218   7.835  1.0121 -0.0628 -0.1407
   21MOL0     C 2706   9.545   3.271   7.928 -0.0753 -0.2336  0.2994
   21MOL0     C 2707   9.614   3.189   8.020  0.2162  0.1332  0.3000
   21MOL0     O 2708   9.695   3.239   8.116 -0.0533 -0.0319  0.0701
   21MOL0     C 2709   9.833   3.261   8.081 -1.1538 -0.1097  0.3711
   21MOL0     C 2710   9.847   3.365   7.966 -0.5010 -1.1592 -1.0726
   21MOL0     C 2711   9.995   3.397   7.937 -0.0655  0.4035 -0.2564
   21MOL0     C 2712   9.996   3.494   7.813 -0.6725  0.2826  0.1269
   21MOL0     C 2713  10.127   3.564   7.794 -0.5187 -0.3210  0.5319
   21MOL0     C 2714  10.125   3.689   7.709 -0.3219 -1.6697  0.4140
   21MOL0     C 2715  10.261   3.756   7.694 -1.4625 -1.0975 -0.7752
   21MOL0     C 2716  10.265   3.892   7.624 -0.5178 -0.7769  0.3445
   21MOL0     N 2717  10.411   3.941   7.611  0.5091 -0.2675 -0.0691
   21MOL0     C 2718  10.457   4.026   7.701 -0.6857  0.5542  0.3132
   21MOL0     C 2719  10.591   4.050   7.664 -1.1474 -0.6792  0.7802
   21MOL0     C 2720  10.690   4.126   7.743 -0.7249 -0.2452 -0.6825
   21MOL0     C 2721  10.828   4.113   7.688 -0.0422  0.2009 -0.9312
   21MOL0     C 2722  10.857   4.196   7.566  0.5174  0.6636 -0.5006
   21MOL0     C 2723  10.991   4.143   7.512 -0.8586 -0.0448 -0.8409
   21MOL0     O 2724  11.011   4.175   7.374 -0.8988  0.1531  0.4392
   21MOL0     C 2725  11.020   4.306   7.334  0.1746 -1.4921 -0.3545
   21MOL0     C 2726  10.923   4.357   7.253 -0.2339  0.5923  0.0356
   21MOL0     C 2727  10.926   4.492   7.216  0.5127  0.0279 -0.4325
   21MOL0     C 2728  10.807   4.550   7.142  0.5017  0.7275  0.3067
   21MOL0     C 2729  11.043   4.567   7.245  0.8091  0.0883  1.0099
   21MOL0     C 2730  11.048   4.709   7.209 -0.2005 -0.8730 -0.1684
   21MOL0     O 2731  11.043   4.742   7.083  0.5068 -0.1617  0.0867
   21MOL0     C 2732  11.044   4.874   7.045 -0.3805  0.1543  0.3597
   21MOL0     C 2733  10.926   4.954   7.024 -1.0421  1.0000  0.0991
   21MOL0     C 2734  10.923   5.090   7.004 -0.1465 -0.1683  0.1333
   21MOL0     C 2735  11.056   5.160   7.000 -1.1383  0.7826  0.5056
   21MOL0     O 2736  11.069   5.297   7.004 -0.3132  0.6923 -0.2239
   21MOL0     C 2737  10.963   5.388   6.970  0.3412 -0.1021  0.1395
   21MOL0     C 2738  10.990   5.504   7.069 -0.4117  0.2316 -0.3471
   21MOL0     C 2739  10.930   5.488   7.212 -0.0863  0.6519  0.2893
   21MOL0     C 2740  10.976   5.368   7.302  0.0335 -0.1110 -0.0625
   21MOL0     C 2741  11.126   5.378   7.327 -0.3785  0.3783 -0.0198
   21MOL0     C 2742  11.190   5.279   7.426  0.7345  0.0596 -0.0049
   21MOL0     C 2743  11.161   5.141   7.366 -0.3369  0.9090  0.4645
   21MOL0     C 2744  11.253   5.021   7.412  0.0351 -0.3264  1.0554
   21MOL0    Cl 2745  11.417   5.039   7.345 -0.3364  0.1565  0.6779
   21MOL0     C 2746  11.168   5.078   6.992 -0.5833 -0.0810 -0.8829
   21MOL0     C 2747  11.165   4.938   7.026 -0.3323 -0.0684 -0.9067
   21MOL0     O 2748  11.016   4.786   7.299  0.2261 -0.1334 -0.0482
   21MOL0     C 2749  11.142   4.516   7.324  0.1915  0.5456 -1.1284
   21MOL0     C 2750  11.142   4.374   7.363  0.4553 -0.3273  0.2044
   21MOL0     N 2751  10.615   3.984   7.547  0.2266  0.3054 -0.4100
   21MOL0     N 2752  10.502   3.916   7.512 -0.5304 -1.1437  0.5771
   21MOL0     C 2753   9.591   3.053   8.014 -0.6871  0.7597 -0.7054
   21MOL0     C 2754   9.507   3.000   7.920 -0.1535  0.0098 -0.8178
   21MOL0     C 2755   9.131   2.952   7.696 -0.2967  0.3742 -0.3157
   21MOL0     C 2756   9.122   3.029   7.578  0.5865 -0.2499  0.0025
   21MOL0     C 2757   9.020   3.004   7.495  0.3048 -0.4483 -0.0810
   21MOL0     C 2758   8.911   2.927   7.517  0.5900  1.0089 -0.2375
   21MOL0     O 2759   8.811   2.906   7.421  0.3467  0.4044 -0.3551
   21MOL0     C 2760   8.825   2.959   7.284 -1.4521  0.4975 -0.0654
   21MOL0     C 2761   8.726   2.926   7.183  0.0839 -0.1612  0.3194
   21MOL0     C 2762   8.601   2.863   7.247 -0.0948  0.1676 -0.1508
   21MOL0     C 2763   8.504   2.809   7.146  0.3702 -0.1280 -0.1306
   21MOL0     C 2764   8.446   2.921   7.061  0.3519  0.7800 -0.4839
   21MOL0     C 2765   8.382   3.009   7.001  0.3815 -0.6890 -0.6459
   21MOL0     C 2766   8.904   2.865   7.638  0.5508 -0.1090 -0.2603
   21MOL0     C 2767   9.018   2.868   7.730  1.1146 -0.0603 -0.0281
   21MOL0     H 2768   9.408   3.285   7.765  1.7317 -0.6376 -1.2158
   21MOL0     H 2769   9.557   3.379   7.932 -1.6090 -0.0699  3.0573
   21MOL0     H 2770   9.893   3.278   8.171  0.2564  0.9953 -0.7282
   21MOL0     H 2771   9.877   3.167   8.044 -1.7527 -1.6674  3.3153
   21MOL0     H 2772   9.805   3.323   7.875  2.2411 -1.5273 -2.2689
   21MOL0     H 2773   9.809   3.459   8.008 -0.5965 -1.2469 -0.9624
   21MOL0     H 2774  10.038   3.443   8.026  0.9473 -2.6318  0.9387
   21MOL0     H 2775  10.040   3.300   7.916 -2.0547 -0.3489 -1.2757
   21MOL0     H 2776   9.967   3.436   7.724 -1.0545  1.8642 -0.8087
   21MOL0     H 2777   9.921   3.571   7.832  0.5120  1.0163  2.0254
   21MOL0     H 2778  10.165   3.600   7.890 -1.0938  3.5042 -0.4833
   21MOL0     H 2779  10.198   3.492   7.754 -1.5962 -1.9505  1.4711
   21MOL0     H 2780  10.084   3.663   7.611  0.2567  0.8704 -0.5815
   21MOL0     H 2781  10.054   3.758   7.756 -1.0029 -0.4226 -2.2449
   21MOL0     H 2782  10.304   3.769   7.794 -0.1701  2.9752 -1.6730
   21MOL0     H 2783  10.327   3.697   7.630  0.8686  1.6323 -1.1187
   21MOL0     H 2784  10.206   3.963   7.683 -0.9749 -1.2683  0.4938
   21MOL0     H 2785  10.222   3.875   7.525  1.1703  4.5614 -1.6118
   21MOL0     H 2786  10.418   4.062   7.796 -2.2322 -0.1231 -0.0292
   21MOL0     H 2787  10.670   4.232   7.758 -2.8729 -1.0732  3.8908
   21MOL0     H 2788  10.685   4.084   7.843 -0.1175  0.5297 -0.3177
   21MOL0     H 2789  10.852   4.009   7.663 -0.3685 -0.3058  0.6972
   21MOL0     H 2790  10.906   4.142   7.760 -0.0944  0.8601 -1.1369
   21MOL0     H 2791  10.864   4.303   7.590  0.3121  0.7854 -0.9738
   21MOL0     H 2792  10.782   4.182   7.487  1.4830  0.8527 -1.4638
   21MOL0     H 2793  10.997   4.034   7.513 -0.0812 -0.0103  0.5269
   21MOL0     H 2794  11.078   4.183   7.566  1.1024 -3.6839 -0.9966
   21MOL0     H 2795  10.833   4.296   7.249 -0.8519  1.5015 -0.0829
   21MOL0     H 2796  10.716   4.517   7.193  0.2035  3.1263  1.4700
   21MOL0     H 2797  10.804   4.659   7.157 -1.7885  0.4737  2.2460
   21MOL0     H 2798  10.803   4.506   7.042 -0.3197 -0.0772  0.6802
   21MOL0     H 2799  10.835   4.895   7.034  1.0061 -2.7194 -1.2155
   21MOL0     H 2800  10.826   5.138   6.992 -0.2088 -0.6120 -1.3539
   21MOL0     H 2801  10.969   5.416   6.865  1.8986  1.7575  0.6787
   21MOL0     H 2802  10.867   5.337   6.988  1.6994 -3.6013 -1.5582
   21MOL0     H 2803  11.093   5.541   7.067 -0.4919  0.4359 -1.3956
   21MOL0     H 2804  10.927   5.589   7.041 -3.9665 -1.7406  1.0488
   21MOL0     H 2805  10.821   5.485   7.198  0.0342  2.1194 -1.1674
   21MOL0     H 2806  10.942   5.582   7.266 -1.4580 -0.3566  2.5271
   21MOL0     H 2807  10.924   5.365   7.398 -1.2934  1.7101 -0.6595
   21MOL0     H 2808  10.952   5.271   7.258  0.3291  0.3901 -1.3912
   21MOL0     H 2809  11.155   5.480   7.355 -0.7337  1.0475 -1.8705
   21MOL0     H 2810  11.175   5.362   7.230 -1.5244 -1.7144 -0.3064
   21MOL0     H 2811  11.295   5.288   7.454  0.7431  0.3180 -0.1175
   21MOL0     H 2812  11.148   5.283   7.527 -2.4375 -1.5516 -1.1449
   21MOL0     H 2813  11.163   5.146   7.256  2.2414 -0.8915  0.3391
   21MOL0     H 2814  11.057   5.112   7.381 -0.6304  0.4573 -2.0225
   21MOL0     H 2815  11.213   4.921   7.392  1.3431 -0.6466 -0.1210
   21MOL0     H 2816  11.272   5.026   7.520  0.2461 -2.3484  1.1436
   21MOL0     H 2817  11.263   5.130   6.999 -0.7098  0.0206  0.2052
   21MOL0     H 2818  11.252   4.881   7.058 -1.6212 -1.2223  0.7034
   21MOL0     H 2819  11.217   4.588   7.354  0.1806  0.3256 -0.5736
   21MOL0     H 2820  11.220   4.339   7.430  0.5323  1.3126  1.0347
   21MOL0     H 2821   9.634   2.988   8.090 -1.0193  3.1638  1.6932
   21MOL0     H 2822   9.486   2.894   7.907 -2.3195 -0.0815  2.2093
   21MOL0     H 2823   9.191   3.106   7.545  0.7598 -0.3896  0.0381
   21MOL0     H 2824   9.015   3.062   7.404 -0.7854  0.2212  0.3768
   21MOL0     H 2825   8.827   3.067   7.297  1.5302  0.5090  0.0233
   21MOL0     H 2826   8.923   2.944   7.238 -1.7218 -0.2265 -0.4258
   21MOL0     H 2827   8.768   2.865   7.102 -0.5600  0.0071 -0.1535
   21MOL0     H 2828   8.691   3.018   7.134  2.1358  0.3281 -0.3205
   21MOL0     H 2829   8.545   2.928   7.314 -1.0009 -1.3483  0.6200
   21MOL0     H 2830   8.631   2.778   7.310 -0.0554  1.5836  1.8428
   21MOL0     H 2831   8.422   2.763   7.202  0.4359 -0.2288 -0.1149
   21MOL0     H 2832   8.557   2.739   7.081  2.1659  0.0258  1.0970
   21MOL0     H 2833   8.335   3.097   6.962  0.3444 -0.3012  0.2478
   21MOL0     H 2834   8.814   2.807   7.654  0.9949 -1.1525 -1.3465
   21MOL0     H 2835   8.997   2.807   7.817 -2.4430  2.9703  1.5374
   22MOL0     O 2836   5.757   2.695   6.622 -0.2299  0.0467  0.1447
   22MOL0     C 2837   5.840   2.770   6.683  1.0156 -1.2039 -0.4130
   22MOL0     O 2838   5.803   2.857   6.788  0.1832 -0.1735 -0.2822
   22MOL0     C 2839   5.677   2.853   6.843 -0.5191 -0.4543 -0.1571
   22MOL0     C 2840   5.601   2.743   6.876  0.3475  0.1042 -0.3502
   22MOL0     C 2841   5.473   2.749   6.919  0.1106 -0.3147 -0.7797
   22MOL0     C 2842   5.420   2.871   6.947  1.1421  0.0999 -0.2985
   22MOL0     O 2843   5.288   2.886   6.994  0.1851 -0.5913  0.2384
   22MOL0     C 2844   5.253   2.786   7.092  0.1745 -0.4267 -0.0531
   22MOL0     C 2845   5.173   2.860   7.213 -0.5987  1.2379  0.1392
   22MOL0     C 2846   5.056   2.938   7.165  0.5053 -0.9110 -0.4972
   22MOL0     C 2847   5.074   3.095   7.176 -0.3014 -0.0301  0.4982
   22MOL0     C 2848   4.955   3.174   7.130  0.2204  0.0172  0.5175
   22MOL0     C 2849   4.960   3.196   6.975 -0.7823 -1.0077 -0.3058
   22MOL0     C 2850   4.823   3.237   6.911 -0.8262  0.7081 -0.0547
   22MOL0     C 2851   4.750   3.358   6.975 -0.5431  0.5607  0.4119
   22MOL0     N 2852   4.629   3.392   6.896 -0.7111  0.1237  0.3068
   22MOL0     C 2853   4.624   3.441   6.765  0.6845 -0.3923 -0.4732
   22MOL0     C 2854   4.486   3.465   6.741 -0.2865 -0.1325 -1.7312
   22MOL0     C 2855   4.433   3.519   6.612 -0.1538  0.5067  0.4507
   22MOL0     C 2856   4.295   3.456   6.585  0.0825  0.6447 -0.4168
   22MOL0     C 2857   4.252   3.484   6.438 -0.1557  1.6383  0.3162
   22MOL0     C 2858   4.101   3.490   6.439  0.2401 -0.5692  1.0783
   22MOL0     O 2859   4.057   3.623   6.480  0.0699 -0.4993 -0.3436
   22MOL0     C 2860   3.937   3.617   6.555 -0.6135 -0.2574  0.7135
   22MOL0     C 2861   3.906   3.719   6.645  0.0681 -0.3438  0.9422
   22MOL0     C 2862   3.795   3.705   6.721 -0.4679  0.0523 -0.0902
   22MOL0     C 2863   3.766   3.821   6.822 -0.1631 -0.2230  0.5672
   22MOL0     C 2864   3.703   3.602   6.697 -0.1298 -0.1038 -0.1817
   22MOL0     C 2865   3.577   3.599   6.769 -0.0435 -0.2982  0.5580
   22MOL0     O 2866   3.573   3.618   6.902  0.0525 -0.1041 -0.1095
   22MOL0     C 2867   3.454   3.637   6.966 -0.3273 -0.4827 -0.1140
   22MOL0     C 2868   3.365   3.727   6.906  0.0447  0.9562 -0.1550
   22MOL0     C 2869   3.243   3.750   6.971 -0.6756  0.2743  0.2092
   22MOL0     C 2870   3.205   3.670   7.084 -0.4010 -0.9414  0.2537
   22MOL0     O 2871   3.077   3.692   7.128  0.2461  0.1641 -1.1657
   22MOL0     C 2872   3.028   3.610   7.237  0.3602 -0.5188 -0.5411
   22MOL0     C 2873   2.884   3.669   7.269  0.6633 -0.6272 -0.2061
   22MOL0     C 2874   2.906   3.764   7.389 -0.2408  0.0682 -0.2269
   22MOL0     C 2875   3.010   3.868   7.384 -0.6257 -0.7073 -0.4392
   22MOL0     C 2876   3.060   3.908   7.517  0.0537  0.1021 -0.2878
   22MOL0     C 2877   3.144   3.799   7.588  0.7155 -0.4641  0.2125
   22MOL0     C 2878   3.234   3.861   7.697 -0.4280  1.1490 -0.2109
   22MOL0     C 2879   3.333   3.760   7.750  0.8462  0.1889 -0.3274
   22MOL0    Cl 2880   3.462   3.782   7.629 -0.0100  0.2490 -0.0210
   22MOL0     C 2881   3.299   3.590   7.147  1.1298  0.0557  0.5988
   22MOL0     C 2882   3.420   3.572   7.084  0.2991 -0.3880 -0.3390
   22MOL0     O 2883   3.477   3.594   6.697  0.0134  0.2851 -0.0279
   22MOL0     C 2884   3.733   3.502   6.612  0.1454 -0.2107 -0.0039
   22MOL0     C 2885   3.848   3.505   6.543 -0.8419  0.6116  0.6806
   22MOL0     N 2886   4.417   3.414   6.850  0.0535  0.3363 -0.4644
   22MOL0     N 2887   4.502   3.366   6.938 -0.0721 -0.1563 -0.6461
   22MOL0     C 2888   5.492   2.989   6.914  0.2704  0.1472  0.3388
   22MOL0     C 2889   5.621   2.974   6.859 -0.1910 -0.0683  0.3403
   22MOL0     C 2890   5.992   2.770   6.654  0.3486 -0.2331  0.2046
   22MOL0     C 2891   6.081   2.865   6.713 -0.4388  0.0527  0.0806
   22MOL0     C 2892   6.223   2.856   6.690 -0.0588  0.0708 -0.5111
   22MOL0     C 2893   6.276   2.739   6.628 -0.0603 -0.7352  0.5095
   22MOL0     O 2894   6.401   2.749   6.574 -0.4859  0.2255  0.5103
   22MOL0     C 2895   6.510   2.760   6.668 -0.7153 -0.1512 -0.0602
   22MOL0     C 2896   6.632   2.715   6.584 -0.2573  0.5281  0.1527
   22MOL0     C 2897   6.769   2.726   6.665  0.4603  0.2972  0.0361
   22MOL0     C 2898   6.897   2.709   6.585 -0.0392 -0.6926 -0.1710
   22MOL0     C 2899   6.914   2.568   6.540 -0.5159 -0.1161  0.3692
   22MOL0     C 2900   6.930   2.460   6.493  0.1297  0.1510  0.3028
   22MOL0     C 2901   6.183   2.655   6.560 -0.3370 -0.3457  0.3456
   22MOL0     C 2902   6.044   2.666   6.579  0.1290  0.6684 -0.1537
   22MOL0     H 2903   5.639   2.645   6.848  1.4561 -0.3942  2.5855
   22MOL0     H 2904   5.418   2.656   6.928 -4.8752  2.5643  3.1464
   22MOL0     H 2905   5.185   2.717   7.041 -1.9190  0.7047  1.0921
   22MOL0     H 2906   5.335   2.726   7.134 -1.8942 -3.5878 -0.1742
   22MOL0     H 2907   5.128   2.785   7.279  0.5706  0.0015 -0.4230
   22MOL0     H 2908   5.248   2.920   7.266 -0.9889  1.4728  0.4253
   22MOL0     H 2909   5.037   2.906   7.062  0.1697 -1.5061 -0.2550
   22MOL0     H 2910   4.964   2.923   7.223  0.9782 -2.6920 -0.1352
   22MOL0     H 2911   5.092   3.131   7.278 -0.6664  2.4675 -0.2656
   22MOL0     H 2912   5.157   3.126   7.111 -1.7380 -1.0501 -1.9673
   22MOL0     H 2913   4.860   3.125   7.154 -0.0867 -0.0716 -0.7963
   22MOL0     H 2914   4.960   3.265   7.191  1.9036  0.0315  0.4155
   22MOL0     H 2915   5.047   3.257   6.949 -0.4734 -0.9002  0.9638
   22MOL0     H 2916   4.976   3.101   6.923 -0.2883 -0.7113 -0.7009
   22MOL0     H 2917   4.852   3.254   6.807  0.5674 -0.7220  0.0588
   22MOL0     H 2918   4.765   3.145   6.923 -3.6241  2.4730  1.0481
   22MOL0     H 2919   4.821   3.441   6.965 -0.9618  0.7498 -1.2995
   22MOL0     H 2920   4.722   3.331   7.078  1.0239 -0.5444  0.5749
   22MOL0     H 2921   4.698   3.469   6.691 -1.2911  0.9350 -2.0387
   22MOL0     H 2922   4.428   3.628   6.614 -1.0290  0.4657  1.8600
   22MOL0     H 2923   4.499   3.494   6.529 -2.7980 -1.4331 -1.2447
   22MOL0     H 2924   4.221   3.488   6.660  2.3602  0.3351  2.1038
   22MOL0     H 2925   4.296   3.347   6.589  0.7136  0.5145 -2.6115
   22MOL0     H 2926   4.277   3.402   6.371  0.5502 -0.2557  2.7327
   22MOL0     H 2927   4.289   3.576   6.392 -1.0580  1.2885 -1.1460
   22MOL0     H 2928   4.075   3.411   6.509  1.3947 -0.4648  1.6504
   22MOL0     H 2929   4.052   3.481   6.341 -0.4628  2.9294  0.9760
   22MOL0     H 2930   3.968   3.801   6.677  0.9180 -0.7783  0.4490
   22MOL0     H 2931   3.669   3.868   6.801 -0.3118 -0.1800  1.3046
   22MOL0     H 2932   3.770   3.796   6.928  3.5310  0.8979  0.8381
   22MOL0     H 2933   3.826   3.912   6.819 -1.6032  0.7586  0.5605
   22MOL0     H 2934   3.410   3.787   6.827  1.4058  0.3841  0.1625
   22MOL0     H 2935   3.193   3.835   6.925  0.8264  0.7890 -0.5547
   22MOL0     H 2936   3.020   3.512   7.189  2.1299  0.2277 -2.5533
   22MOL0     H 2937   3.099   3.612   7.320 -1.1398 -0.3136  0.7790
   22MOL0     H 2938   2.834   3.729   7.192 -1.7773  1.2825  2.6154
   22MOL0     H 2939   2.815   3.592   7.307 -0.4987  1.4316  2.1777
   22MOL0     H 2940   2.920   3.692   7.471 -0.2933  1.1537  0.7529
   22MOL0     H 2941   2.810   3.815   7.397 -0.8672 -0.9426 -1.0145
   22MOL0     H 2942   3.093   3.837   7.320 -0.4443 -1.4506  0.1443
   22MOL0     H 2943   2.966   3.953   7.332 -0.5265 -0.6764 -0.4737
   22MOL0     H 2944   2.980   3.950   7.580 -0.9468 -0.9823 -0.7970
   22MOL0     H 2945   3.134   3.984   7.489  1.1931 -0.9695 -0.2720
   22MOL0     H 2946   3.081   3.729   7.644  0.5700  1.2625  2.3159
   22MOL0     H 2947   3.196   3.751   7.504  1.7330 -1.2583  1.2658
   22MOL0     H 2948   3.165   3.879   7.780  1.2952  1.9812  1.0890
   22MOL0     H 2949   3.287   3.951   7.666  0.3803  0.5550 -0.6016
   22MOL0     H 2950   3.295   3.657   7.748  1.7394 -0.1637  0.4811
   22MOL0     H 2951   3.368   3.778   7.852  1.8073  2.1060 -0.9612
   22MOL0     H 2952   3.266   3.522   7.225 -2.8194 -0.8580 -1.6157
   22MOL0     H 2953   3.503   3.508   7.112  1.0871 -0.0252 -1.7384
   22MOL0     H 2954   3.667   3.417   6.598  0.8456 -0.6790 -0.4874
   22MOL0     H 2955   3.869   3.428   6.469 -0.3239  1.0654  0.3472
   22MOL0     H 2956   5.443   3.085   6.921 -1.1793 -0.4052 -1.4003
   22MOL0     H 2957   5.674   3.066   6.836 -0.4273  0.1605  0.6962
   22MOL0     H 2958   6.033   2.945   6.768 -0.9866  0.7089 -1.3085
   22MOL0     H 2959   6.289   2.933   6.725  0.7173  0.1009 -1.9564
   22MOL0     H 2960   6.529   2.860   6.709  1.5032 -0.7344  0.4478
   22MOL0     H 2961   6.509   2.695   6.756 -1.4324  0.9807  0.7960
   22MOL0     H 2962   6.651   2.774   6.493  1.2246 -1.2762 -0.7614
   22MOL0     H 2963   6.616   2.610   6.556 -0.7528  1.0152 -1.5390
   22MOL0     H 2964   6.763   2.648   6.741 -0.4774  0.2242 -0.1028
   22MOL0     H 2965   6.769   2.821   6.720 -0.5775 -1.5816  3.5697
   22MOL0     H 2966   6.979   2.750   6.644 -0.5344 -0.9845  0.7521
   22MOL0     H 2967   6.898   2.777   6.499 -0.3501 -0.3636  0.0804
   22MOL0     H 2968   6.944   2.366   6.445 -2.4154 -0.8344  1.3254
   22MOL0     H 2969   6.220   2.584   6.486 -1.0996 -1.8627  1.3777
   22MOL0     H 2970   5.982   2.602   6.518  2.5677  0.3587 -2.4903
   23MOL0     O 2971   4.570   9.564   3.982  0.5428 -0.1155 -0.7009
   23MOL0     C 2972   4.651   9.544   4.070  0.0213 -0.2135  0.3792
   23MOL0     O 2973   4.722   9.641   4.131  0.0424 -1.3913 -0.3688
   23MOL0     C 2974   4.715   9.778   4.094  1.1526  0.1322  0.4822
   23MOL0     C 2975   4.593   9.846   4.066 -0.0161 -0.2052  0.7648
   23MOL0     C 2976   4.594   9.986   4.045 -0.2733  0.0548  0.2808
   23MOL0     C 2977   4.720  10.050   4.045  0.7032  0.4028 -0.3203
   23MOL0     O 2978   4.737  10.181   3.996  0.0863  0.5721  0.0619
   23MOL0     C 2979   4.768  10.282   4.088 -0.3730 -0.2721 -0.4862
   23MOL0     C 2980   4.743  10.421   4.040  0.7253 -0.3545  0.1083
   23MOL0     C 2981   4.597  10.439   3.994  0.0559  0.0908 -0.5664
   23MOL0     C 2982   4.561  10.573   3.930 -0.3902 -0.1462 -0.7903
   23MOL0     C 2983   4.420  10.560   3.864 -0.7797 -0.7062 -1.1527
   23MOL0     C 2984   4.427  10.598   3.712 -0.5093 -0.2981 -0.0171
   23MOL0     C 2985   4.291  10.584   3.651 -1.2569  0.5145 -1.1614
   23MOL0     C 2986   4.179  10.644   3.741 -0.1525  0.6259  1.0216
   23MOL0     N 2987   4.045  10.666   3.678  0.0241  0.0162  0.3566
   23MOL0     C 2988   4.006  10.749   3.572 -0.3747 -0.2967  0.3407
   23MOL0     C 2989   3.877  10.704   3.551  0.5617 -0.4437  0.2038
   23MOL0     C 2990   3.791  10.758   3.440  0.1300  0.2771  0.7082
   23MOL0     C 2991   3.644  10.723   3.451 -0.3727 -0.2739  0.2345
   23MOL0     C 2992   3.579  10.746   3.309  0.4939 -0.3026  0.8485
   23MOL0     C 2993   3.434  10.730   3.303 -0.0967  1.1714 -0.0910
   23MOL0     O 2994   3.371  10.837   3.363 -0.0691  0.1070  0.0529
   23MOL0     C 2995   3.240  10.830   3.391  0.4904 -0.7769 -1.1058
   23MOL0     C 2996   3.155  10.737   3.336 -0.4618 -0.5228 -0.2006
   23MOL0     C 2997   3.022  10.720   3.375 -0.0803 -0.5227  0.1496
   23MOL0     C 2998   2.939  10.638   3.287  0.3460  0.2373  0.9820
   23MOL0     C 2999   2.972  10.807   3.473 -0.4181 -0.3366 -0.6227
   23MOL0     C 3000   2.831  10.796   3.528  0.5669  0.3685  0.0155
   23MOL0     O 3001   2.786  10.897   3.609  0.7990 -0.1230  0.2491
   23MOL0     C 3002   2.662  10.897   3.661  0.3923 -0.5090 -1.0273
   23MOL0     C 3003   2.542  10.858   3.601  0.0681  0.4274  0.2220
   23MOL0     C 3004   2.417  10.885   3.660  0.5545  0.0001 -0.9896
   23MOL0     C 3005   2.407  10.973   3.773  0.9145  0.2660  0.0902
   23MOL0     O 3006   2.296  11.040   3.810  0.4171 -0.2182 -0.2958
   23MOL0     C 3007   2.182  11.032   3.715 -0.0159  0.7091  0.5864
   23MOL0     C 3008   2.079  11.133   3.743 -0.3784 -0.4404 -0.9014
   23MOL0     C 3009   1.945  11.087   3.687  1.0983  0.6128 -1.1109
   23MOL0     C 3010   1.850  11.207   3.679 -0.7513 -0.0567 -0.0256
   23MOL0     C 3011   1.706  11.171   3.644  0.0198  0.2701 -0.6069
   23MOL0     C 3012   1.621  11.301   3.646 -0.1717 -0.1591  0.1173
   23MOL0     C 3013   1.480  11.270   3.652  0.3348  1.3087 -0.4988
   23MOL0     C 3014   1.385  11.386   3.676 -0.7164 -1.1017  1.0753
   23MOL0    Cl 3015   1.230  11.327   3.687  0.1973  0.2088 -0.5066
   23MOL0     C 3016   2.529  11.008   3.833  0.9324  0.5166  0.3147
   23MOL0     C 3017   2.651  10.973   3.776 -0.5646 -0.4845  0.2591
   23MOL0     O 3018   2.769  10.692   3.492  0.0859 -0.8988  0.2601
   23MOL0     C 3019   3.058  10.912   3.519 -0.1784 -0.3443 -0.4347
   23MOL0     C 3020   3.188  10.927   3.483 -0.5774  0.8414  0.6659
   23MOL0     N 3021   3.834  10.611   3.641  0.8161 -0.0507 -0.1302
   23MOL0     N 3022   3.940  10.586   3.714 -0.1821  0.4360 -0.6024
   23MOL0     C 3023   4.842   9.977   4.066 -0.0474 -0.3400 -0.4822
   23MOL0     C 3024   4.834   9.842   4.098 -1.1653 -0.1641 -0.4165
   23MOL0     C 3025   4.678   9.396   4.092 -0.6128 -0.8124 -0.3361
   23MOL0     C 3026   4.634   9.313   3.987  0.1811  0.5192  0.5724
   23MOL0     C 3027   4.670   9.172   3.989  0.1679 -0.3461  0.5425
   23MOL0     C 3028   4.747   9.127   4.097 -0.8115 -0.0812  1.1969
   23MOL0     O 3029   4.785   8.993   4.103 -0.0392 -0.2601 -0.1579
   23MOL0     C 3030   4.676   8.905   4.131 -0.3917 -0.2516  0.1037
   23MOL0     C 3031   4.661   8.882   4.277 -0.5331  0.7904  0.3765
   23MOL0     C 3032   4.519   8.829   4.308  0.0946 -0.7229  0.0163
   23MOL0     C 3033   4.406   8.927   4.270 -0.6920  0.2987 -0.0472
   23MOL0     C 3034   4.279   8.887   4.338  0.4703 -0.1461  0.5160
   23MOL0     C 3035   4.175   8.889   4.408 -0.4414 -0.2272 -0.3913
   23MOL0     C 3036   4.777   9.212   4.209 -0.3274 -0.0356  0.2692
   23MOL0     C 3037   4.754   9.350   4.196 -0.1638 -0.3116 -0.4507
   23MOL0     H 3038   4.494   9.802   4.063 -0.3370  0.5280 -1.3594
   23MOL0     H 3039   4.500  10.035   4.021  0.6354  1.0863 -1.3284
   23MOL0     H 3040   4.719  10.272   4.185  0.0048  0.6082 -0.1842
   23MOL0     H 3041   4.874  10.275   4.115  0.5432  0.9470 -3.3597
   23MOL0     H 3042   4.780  10.492   4.115  0.0988  2.4046 -2.0617
   23MOL0     H 3043   4.805  10.434   3.951  0.0080  0.1813 -0.3274
   23MOL0     H 3044   4.595  10.355   3.924  3.2599  0.6845 -1.5494
   23MOL0     H 3045   4.528  10.423   4.077 -1.5090  2.9340 -1.1710
   23MOL0     H 3046   4.565  10.647   4.010  1.5702  0.1660 -1.1497
   23MOL0     H 3047   4.639  10.598   3.857  1.3380 -1.4692  0.5273
   23MOL0     H 3048   4.380  10.459   3.877 -1.2678 -0.3145  0.6291
   23MOL0     H 3049   4.357  10.630   3.919 -0.2621 -0.1584 -1.2491
   23MOL0     H 3050   4.450  10.704   3.698 -0.0385  0.1948  3.5430
   23MOL0     H 3051   4.506  10.539   3.666 -1.1490 -0.3353 -1.1214
   23MOL0     H 3052   4.290  10.617   3.547 -0.4280  0.5165 -1.1768
   23MOL0     H 3053   4.250  10.484   3.634 -3.6244  1.1386  0.4545
   23MOL0     H 3054   4.206  10.747   3.769  0.1621  0.0393  3.0207
   23MOL0     H 3055   4.160  10.590   3.834 -3.5585  1.7238  1.0899
   23MOL0     H 3056   4.064  10.814   3.508 -0.2731 -2.6458 -2.1392
   23MOL0     H 3057   3.808  10.866   3.449 -0.2721  0.2212  2.7688
   23MOL0     H 3058   3.844  10.714   3.355 -0.3009 -0.8892  1.0160
   23MOL0     H 3059   3.588  10.767   3.534 -1.8763 -2.7825  0.6548
   23MOL0     H 3060   3.632  10.616   3.470  1.3229 -0.5082  0.1412
   23MOL0     H 3061   3.619  10.662   3.251  1.3042  0.5494  0.1432
   23MOL0     H 3062   3.599  10.841   3.260 -0.7264 -1.7032 -2.6685
   23MOL0     H 3063   3.413  10.636   3.355  2.5019  0.3184 -0.4580
   23MOL0     H 3064   3.393  10.730   3.202 -2.0389 -0.0398  0.6313
   23MOL0     H 3065   3.205  10.664   3.274  2.1468 -0.6322  1.8789
   23MOL0     H 3066   2.881  10.555   3.327 -0.1895 -0.7466 -1.6304
   23MOL0     H 3067   2.857  10.703   3.253  0.1314 -0.9222 -0.8520
   23MOL0     H 3068   2.988  10.597   3.198 -3.8675 -0.1713 -1.4325
   23MOL0     H 3069   2.554  10.806   3.506 -0.2325  1.5489 -0.4505
   23MOL0     H 3070   2.331  10.848   3.605 -0.9778 -0.8246  1.7812
   23MOL0     H 3071   2.210  11.048   3.611  4.1101  2.5926  1.7734
   23MOL0     H 3072   2.132  10.934   3.720  3.2634 -1.2462 -1.1314
   23MOL0     H 3073   2.056  11.152   3.848  0.1303  1.9758 -1.1655
   23MOL0     H 3074   2.109  11.230   3.703 -1.2755 -0.1090 -0.7861
   23MOL0     H 3075   1.916  11.001   3.749  2.4349  1.1726  0.3457
   23MOL0     H 3076   1.939  11.048   3.585 -0.3290 -0.8524 -0.5211
   23MOL0     H 3077   1.863  11.258   3.775  0.6677 -0.4301 -0.0033
   23MOL0     H 3078   1.876  11.272   3.595 -0.8499  1.2219  0.9082
   23MOL0     H 3079   1.661  11.093   3.705  0.4391 -2.6607 -3.7575
   23MOL0     H 3080   1.707  11.125   3.545 -2.6791  0.2236 -0.6929
   23MOL0     H 3081   1.640  11.359   3.737  1.1475  2.6647 -1.8316
   23MOL0     H 3082   1.635  11.365   3.559 -3.4795  0.3492 -0.1610
   23MOL0     H 3083   1.459  11.207   3.739 -0.9266  0.4817 -1.3735
   23MOL0     H 3084   1.452  11.208   3.567  1.9152  0.3308 -0.3435
   23MOL0     H 3085   1.383  11.461   3.596  0.0216 -1.5400  0.6384
   23MOL0     H 3086   1.401  11.434   3.773 -3.0953  2.7750 -0.1931
   23MOL0     H 3087   2.525  11.059   3.928 -2.7977 -0.2527  0.7014
   23MOL0     H 3088   2.737  11.014   3.828 -0.4048 -2.0013  1.2321
   23MOL0     H 3089   3.029  10.989   3.590  0.3611  0.6342 -1.2341
   23MOL0     H 3090   3.244  11.018   3.498  0.4403  0.5313 -1.0695
   23MOL0     H 3091   4.934  10.035   4.062 -1.0286  1.2219 -2.1384
   23MOL0     H 3092   4.922   9.785   4.125 -1.6452 -0.8792 -0.3357
   23MOL0     H 3093   4.580   9.350   3.900  1.4812  1.5203  0.1560
   23MOL0     H 3094   4.629   9.110   3.910 -0.2500 -2.8554  2.6179
   23MOL0     H 3095   4.583   8.942   4.086 -0.1138 -0.9344 -1.0720
   23MOL0     H 3096   4.701   8.809   4.086 -0.7619  0.3454 -1.4794
   23MOL0     H 3097   4.665   8.978   4.329  0.8119  1.6505 -1.2032
   23MOL0     H 3098   4.740   8.822   4.324 -0.7494 -0.4560 -0.7891
   23MOL0     H 3099   4.511   8.829   4.417 -1.4495  0.0446 -0.0765
   23MOL0     H 3100   4.507   8.726   4.273  1.0184 -0.8938  0.1749
   23MOL0     H 3101   4.393   8.919   4.162  0.2370 -2.8215 -0.0227
   23MOL0     H 3102   4.445   9.024   4.303  0.4033 -0.6439  1.6196
   23MOL0     H 3103   4.081   8.885   4.459 -0.0278 -2.7600  0.2977
   23MOL0     H 3104   4.828   9.164   4.292 -1.2789  1.2499  1.6672
   23MOL0     H 3105   4.794   9.410   4.277  2.9947 -0.3760 -1.8008
   24MOL0     O 3106   6.502   3.579   1.017  0.4688  1.0939  0.3431
   24MOL0     C 3107   6.592   3.630   1.082 -0.0362 -0.1385  0.4595
   24MOL0     O 3108   6.575   3.738   1.163  0.4481  0.8169  0.4073
   24MOL0     C 3109   6.453   3.813   1.170 -0.0175 -0.3865 -0.0271
   24MOL0     C 3110   6.357   3.816   1.073  0.4196  0.6625  0.2434
   24MOL0     C 3111   6.248   3.902   1.085 -0.3183  0.3891 -0.5032
   24MOL0     C 3112   6.223   3.974   1.204 -0.7698 -0.3595 -0.0888
   24MOL0     O 3113   6.107   4.042   1.235 -0.4014 -0.1870  0.5042
   24MOL0     C 3114   6.032   4.086   1.124  0.2700  0.2017 -0.2656
   24MOL0     C 3115   6.079   4.212   1.055  0.1852 -0.2432 -0.0943
   24MOL0     C 3116   5.982   4.272   0.954  0.2939 -0.9063  0.1758
   24MOL0     C 3117   6.025   4.412   0.894  0.5035 -0.5173 -0.1683
   24MOL0     C 3118   5.976   4.423   0.748  0.2433  1.2723  0.4016
   24MOL0     C 3119   5.830   4.394   0.720 -0.1036  0.0086  0.8439
   24MOL0     C 3120   5.743   4.474   0.810  0.6034  0.7086 -0.2962
   24MOL0     C 3121   5.603   4.510   0.756  0.2006  0.3314 -0.4915
   24MOL0     N 3122   5.532   4.389   0.711  0.6904  0.6874 -0.2109
   24MOL0     C 3123   5.549   4.331   0.592 -0.7247  0.6183  0.0487
   24MOL0     C 3124   5.492   4.206   0.588  0.5689 -0.2354 -0.2283
   24MOL0     C 3125   5.467   4.121   0.466 -0.0467 -0.1342  0.4204
   24MOL0     C 3126   5.324   4.107   0.426  0.0827 -0.7122 -0.3250
   24MOL0     C 3127   5.265   4.216   0.340 -0.1722  0.2327  0.8921
   24MOL0     C 3128   5.117   4.226   0.361  0.4105  0.2605  0.2035
   24MOL0     O 3129   5.074   4.336   0.280 -0.5133 -0.3485  0.4792
   24MOL0     C 3130   4.941   4.373   0.279  0.2523  0.6853 -0.6399
   24MOL0     C 3131   4.906   4.492   0.225 -0.0305  0.1313  0.2443
   24MOL0     C 3132   4.764   4.529   0.227 -0.1202  0.9488  1.7034
   24MOL0     C 3133   4.732   4.674   0.192  0.1720 -0.2417 -0.5815
   24MOL0     C 3134   4.674   4.440   0.280  0.1796 -0.0654  0.2358
   24MOL0     C 3135   4.538   4.480   0.307  0.2098 -0.6634 -0.2309
   24MOL0     O 3136   4.473   4.438   0.425  0.2666  0.4786 -0.1150
   24MOL0     C 3137   4.338   4.478   0.445 -0.7425 -0.6587 -0.3385
   24MOL0     C 3138   4.319   4.616   0.461 -0.5470  0.0322 -0.6679
   24MOL0     C 3139   4.189   4.662   0.461 -0.3766 -0.4712  1.6188
   24MOL0     C 3140   4.072   4.574   0.450 -1.0129 -0.9337 -0.5005
   24MOL0     O 3141   3.946   4.621   0.451  0.5961 -0.2356  0.4207
   24MOL0     C 3142   3.918   4.768   0.445 -0.5360  0.2821  0.3072
   24MOL0     C 3143   3.774   4.805   0.449 -0.5493  0.5828  0.3273
   24MOL0     C 3144   3.685   4.743   0.333 -0.5421 -0.3813 -0.2186
   24MOL0     C 3145   3.546   4.806   0.331  0.1010  0.7810 -0.8244
   24MOL0     C 3146   3.458   4.756   0.451 -0.2213  0.0955 -0.7385
   24MOL0     C 3147   3.407   4.608   0.452 -0.4900 -1.3059  0.3214
   24MOL0     C 3148   3.333   4.567   0.588 -0.1852 -0.0238  0.0066
   24MOL0     C 3149   3.292   4.426   0.587 -0.3013  0.3902 -0.1811
   24MOL0    Cl 3150   3.216   4.378   0.435  0.2736 -0.7294 -0.1766
   24MOL0     C 3151   4.100   4.428   0.459 -0.5696 -0.4254 -0.1070
   24MOL0     C 3152   4.237   4.387   0.451  0.5283  0.5006 -0.1423
   24MOL0     O 3153   4.485   4.531   0.207  0.0947  0.2675 -0.2319
   24MOL0     C 3154   4.719   4.323   0.341  0.1002  0.8227 -0.1711
   24MOL0     C 3155   4.849   4.289   0.342 -1.1049  0.4393  0.0230
   24MOL0     N 3156   5.432   4.190   0.713  0.5992  0.1612  0.2373
   24MOL0     N 3157   5.468   4.292   0.792  0.9665 -0.7938 -0.1768
   24MOL0     C 3158   6.321   3.963   1.299 -0.4738 -0.1333  1.0765
   24MOL0     C 3159   6.438   3.893   1.284  0.5151  0.0078 -0.1419
   24MOL0     C 3160   6.734   3.597   1.055 -0.3499 -0.8164  0.3167
   24MOL0     C 3161   6.836   3.701   1.074  0.6921 -0.4313  0.6065
   24MOL0     C 3162   6.968   3.677   1.042 -0.1637  0.0772  0.6674
   24MOL0     C 3163   7.007   3.552   1.018  0.0369 -0.0410 -0.7584
   24MOL0     O 3164   7.137   3.515   1.000  1.0723 -0.3122 -0.2748
   24MOL0     C 3165   7.243   3.609   0.995  0.3963  0.3414 -0.2280
   24MOL0     C 3166   7.375   3.534   0.987 -0.1304 -0.6990 -0.5542
   24MOL0     C 3167   7.477   3.629   0.938 -0.2073  0.6787  0.0223
   24MOL0     C 3168   7.492   3.750   1.032 -0.4991  0.3091 -0.1100
   24MOL0     C 3169   7.598   3.834   0.990 -0.6031 -0.3110  0.0659
   24MOL0     C 3170   7.694   3.899   0.948 -0.6665 -0.8730 -0.6712
   24MOL0     C 3171   6.917   3.443   1.017  0.2780 -0.0858 -0.1912
   24MOL0     C 3172   6.775   3.470   1.019  0.5667  0.0576  1.8765
   24MOL0     H 3173   6.358   3.756   0.983 -2.1730 -0.3045  0.7756
   24MOL0     H 3174   6.168   3.890   1.013  0.3246 -1.7502 -0.9323
   24MOL0     H 3175   6.017   4.016   1.041  0.9711 -0.0844 -0.1601
   24MOL0     H 3176   5.931   4.104   1.164 -0.4999 -2.5305 -0.7367
   24MOL0     H 3177   6.102   4.289   1.128 -0.2560 -1.7855  1.7454
   24MOL0     H 3178   6.166   4.177   0.998  0.7917  0.1990  0.5490
   24MOL0     H 3179   5.970   4.197   0.875 -2.1007 -1.7138  1.2216
   24MOL0     H 3180   5.881   4.297   0.988 -1.1794  1.5911 -4.9662
   24MOL0     H 3181   5.989   4.502   0.945  1.4833 -1.1790  1.7532
   24MOL0     H 3182   6.134   4.414   0.892  0.5469  0.1962  1.4750
   24MOL0     H 3183   5.997   4.525   0.716 -4.7385  2.1937 -0.7608
   24MOL0     H 3184   6.039   4.362   0.681  1.9144 -0.9028  3.6993
   24MOL0     H 3185   5.803   4.415   0.616  1.0403 -0.8704  0.3441
   24MOL0     H 3186   5.813   4.286   0.724  5.0516 -1.0370  1.2257
   24MOL0     H 3187   5.721   4.410   0.896  1.1468  2.1943  0.9982
   24MOL0     H 3188   5.789   4.564   0.850 -0.4112  1.6548 -1.2111
   24MOL0     H 3189   5.617   4.585   0.677  2.1213  0.4904 -0.0401
   24MOL0     H 3190   5.542   4.552   0.837 -1.3800  1.0925 -2.0119
   24MOL0     H 3191   5.605   4.371   0.507 -0.2174 -0.7875 -0.3171
   24MOL0     H 3192   5.515   4.175   0.383 -2.0219 -1.2831 -1.5823
   24MOL0     H 3193   5.514   4.023   0.474  2.1140  1.0027  2.7402
   24MOL0     H 3194   5.255   4.087   0.508  0.5765 -2.5622 -0.3158
   24MOL0     H 3195   5.321   4.019   0.361  3.2733  0.0283 -1.6347
   24MOL0     H 3196   5.298   4.214   0.236 -0.5721  3.7196  0.5980
   24MOL0     H 3197   5.297   4.311   0.382 -1.6289  0.8547  0.6660
   24MOL0     H 3198   5.100   4.243   0.467  3.5801  2.8585  0.4302
   24MOL0     H 3199   5.061   4.138   0.328  0.8038  0.2923 -0.5698
   24MOL0     H 3200   4.986   4.550   0.180  1.3181 -0.0822  2.2627
   24MOL0     H 3201   4.710   4.673   0.085  3.0161 -2.6479 -1.2819
   24MOL0     H 3202   4.644   4.711   0.246  0.4595 -1.3206  0.6686
   24MOL0     H 3203   4.815   4.745   0.201 -0.0188  0.1380 -1.5958
   24MOL0     H 3204   4.394   4.693   0.479  1.3799 -2.2268  1.9217
   24MOL0     H 3205   4.194   4.770   0.454  3.7068 -0.4974  1.4328
   24MOL0     H 3206   3.965   4.815   0.532  1.2699 -1.5241  0.3911
   24MOL0     H 3207   3.955   4.814   0.353 -0.3227  0.3457  0.4246
   24MOL0     H 3208   3.730   4.774   0.544 -2.0029  2.3080  0.2733
   24MOL0     H 3209   3.770   4.914   0.454  2.2481  0.8418 -1.0115
   24MOL0     H 3210   3.675   4.634   0.346 -2.0751 -0.2517 -0.1095
   24MOL0     H 3211   3.729   4.768   0.237 -1.6495 -0.4446 -0.7630
   24MOL0     H 3212   3.564   4.914   0.333  5.4906  0.1508 -0.7149
   24MOL0     H 3213   3.491   4.771   0.243 -1.0942 -0.4300  0.3476
   24MOL0     H 3214   3.377   4.829   0.454  2.1117  2.7981  0.6127
   24MOL0     H 3215   3.523   4.758   0.539 -1.3689  1.2396  0.1246
   24MOL0     H 3216   3.338   4.594   0.368 -0.1106  2.5113 -0.7848
   24MOL0     H 3217   3.492   4.540   0.447 -0.1069 -0.8564  0.7107
   24MOL0     H 3218   3.239   4.622   0.600  1.0541  1.9092  1.2920
   24MOL0     H 3219   3.399   4.580   0.674  0.3971  2.4802 -0.7241
   24MOL0     H 3220   3.228   4.396   0.670  1.1518  0.9371  1.1765
   24MOL0     H 3221   3.388   4.376   0.608 -0.4974 -0.4194 -1.1315
   24MOL0     H 3222   4.006   4.374   0.457 -0.1134 -1.3065  1.0461
   24MOL0     H 3223   4.253   4.280   0.439 -0.6839  0.2316  0.4930
   24MOL0     H 3224   4.649   4.274   0.409  1.4012  0.5388  1.0033
   24MOL0     H 3225   4.883   4.203   0.399  1.9300  1.3514 -0.2333
   24MOL0     H 3226   6.311   3.998   1.402  2.5897 -3.6850  2.8066
   24MOL0     H 3227   6.513   3.894   1.363  1.2105 -1.9215 -0.7225
   24MOL0     H 3228   6.806   3.804   1.087 -0.8162 -0.5989 -1.1347
   24MOL0     H 3229   7.040   3.759   1.052 -1.2622  0.8016  4.3137
   24MOL0     H 3230   7.217   3.675   0.912 -1.7902  0.4222  0.4427
   24MOL0     H 3231   7.242   3.674   1.082 -0.4243  2.6019 -1.8428
   24MOL0     H 3232   7.377   3.439   0.931 -1.4293 -0.6097 -0.7929
   24MOL0     H 3233   7.396   3.506   1.090  2.0632 -3.3133 -1.5754
   24MOL0     H 3234   7.457   3.653   0.834 -0.7759  0.9406  0.1891
   24MOL0     H 3235   7.571   3.572   0.940 -2.3284 -3.1899  0.8671
   24MOL0     H 3236   7.509   3.721   1.136 -0.0229  3.6737  0.8758
   24MOL0     H 3237   7.395   3.800   1.022 -0.7397 -0.3358 -1.2807
   24MOL0     H 3238   7.780   3.950   0.909  1.9079 -1.0259  4.0747
   24MOL0     H 3239   6.957   3.346   0.992 -1.5301 -1.4629  1.8863
   24MOL0     H 3240   6.713   3.382   1.002 -0.4026  0.9064  0.7934
   25MOL0     O 3241  11.122   0.011   8.446  0.0848  0.7741  0.2078
   25MOL0     C 3242  11.059   0.099   8.390  0.4854  0.1647  0.3539
   25MOL0     O 3243  10.982   0.197   8.452  0.3440 -0.2807 -0.7311
   25MOL0     C 3244  11.000   0.211   8.589 -0.0168 -0.0058 -0.1062
   25MOL0     C 3245  10.894   0.189   8.674  0.8259 -0.3290 -0.6436
   25MOL0     C 3246  10.921   0.186   8.817  0.4250 -0.0850  1.6678
   25MOL0     C 3247  11.053   0.204   8.862 -0.6776  0.6333  0.7009
   25MOL0     O 3248  11.078   0.181   8.995  0.3600  0.4821  0.6449
   25MOL0     C 3249  11.137   0.280   9.078 -0.3085 -0.2728  0.0838
   25MOL0     C 3250  11.052   0.414   9.076  0.3026 -0.1747 -0.0096
   25MOL0     C 3251  10.900   0.391   9.108  0.5976  0.2836  0.2514
   25MOL0     C 3252  10.856   0.323   9.235 -0.4482 -0.1005 -1.3988
   25MOL0     C 3253  10.710   0.316   9.257  0.0770  0.5491  1.3834
   25MOL0     C 3254  10.691   0.257   9.399  0.3873 -0.5224 -0.5616
   25MOL0     C 3255  10.547   0.283   9.452  0.3176 -0.2578  0.0233
   25MOL0     C 3256  10.554   0.264   9.594  0.1740 -0.0076  0.8057
   25MOL0     N 3257  10.416   0.259   9.650  1.2255  0.9485  0.2630
   25MOL0     C 3258  10.349   0.143   9.686 -0.2122  0.2286 -0.5885
   25MOL0     C 3259  10.232   0.182   9.729  0.0129 -0.0392  0.3158
   25MOL0     C 3260  10.129   0.108   9.809 -0.1965  0.7263 -0.7295
   25MOL0     C 3261  10.140  -0.044   9.773  0.1198 -0.1571  0.0085
   25MOL0     C 3262  10.027  -0.132   9.827 -0.9348  0.0321  0.2503
   25MOL0     C 3263  10.058  -0.151   9.978  0.9978  0.1795 -0.0401
   25MOL0     O 3264   9.941  -0.206  10.054 -0.0210  0.6666 -0.1785
   25MOL0     C 3265   9.852  -0.114  10.104 -0.3412 -0.9484  0.3790
   25MOL0     C 3266   9.844   0.026  10.078  0.7883 -0.1565 -0.0650
   25MOL0     C 3267   9.739   0.101  10.130 -0.2689 -0.6979 -1.2851
   25MOL0     C 3268   9.736   0.249  10.087 -0.2227 -0.3849 -0.6134
   25MOL0     C 3269   9.626   0.034  10.208 -0.6762 -0.3415  1.0977
   25MOL0     C 3270   9.516   0.108  10.263 -0.0832  0.5675 -0.2076
   25MOL0     O 3271   9.530   0.242  10.283 -0.7610  0.3602 -0.2946
   25MOL0     C 3272   9.454   0.321  10.356  0.3320  0.4433 -0.5488
   25MOL0     C 3273   9.521   0.428  10.415  0.8653  0.1252 -0.2658
   25MOL0     C 3274   9.449   0.512  10.505 -0.2597 -0.0913  0.2919
   25MOL0     C 3275   9.317   0.490  10.531  0.5882  1.1847 -0.6195
   25MOL0     O 3276   9.236   0.568  10.613  0.0026  0.2789 -0.1623
   25MOL0     C 3277   9.275   0.703  10.642  0.5271 -0.0911  0.4437
   25MOL0     C 3278   9.170   0.773  10.735 -0.8496 -0.0152 -0.2341
   25MOL0     C 3279   9.204   0.910  10.792  0.3437 -0.7626  0.8583
   25MOL0     C 3280   9.068   0.960  10.851 -0.6410  0.1958 -0.1684
   25MOL0     C 3281   9.084   1.105  10.909 -0.6254 -0.5984  0.5106
   25MOL0     C 3282   9.071   1.226  10.803  0.1101  0.7557  0.4873
   25MOL0     C 3283   9.075   1.367  10.860 -0.1343 -0.7236 -0.0614
   25MOL0     C 3284   9.208   1.383  10.938 -0.2600  0.4933 -0.5426
   25MOL0    Cl 3285   9.274   1.551  10.933  0.1689 -0.1564 -0.2727
   25MOL0     C 3286   9.252   0.375  10.479 -0.4592  0.5007  0.0985
   25MOL0     C 3287   9.315   0.294  10.384  0.8833  0.0439 -0.2039
   25MOL0     O 3288   9.416   0.035  10.296 -0.0739 -0.2340  0.4335
   25MOL0     C 3289   9.634  -0.102  10.224 -1.6482 -0.4629  0.1712
   25MOL0     C 3290   9.751  -0.166  10.184  1.1374 -0.7912  0.4007
   25MOL0     N 3291  10.218   0.312   9.696  0.9006  0.9500  0.2087
   25MOL0     N 3292  10.325   0.364   9.649  0.0607  0.9830  0.2095
   25MOL0     C 3293  11.154   0.254   8.776 -0.0881  0.6611 -0.0242
   25MOL0     C 3294  11.123   0.243   8.637 -0.4582 -0.1560  0.2199
   25MOL0     C 3295  11.058   0.108   8.241  0.3688  0.0955 -0.7402
   25MOL0     C 3296  11.071   0.007   8.150 -0.5222  0.7588 -0.8842
   25MOL0     C 3297  11.057   0.022   8.011  0.2242  0.1419 -0.6177
   25MOL0     C 3298  11.063   0.159   7.964  0.0481 -0.0490 -0.6683
   25MOL0     O 3299  11.075   0.194   7.843  0.2081  0.0785  0.6556
   25MOL0     C 3300  11.032   0.093   7.748  0.2605 -0.2424 -0.0864
   25MOL0     C 3301  11.013   0.152   7.608 -0.1549  0.7483 -0.3473
   25MOL0     C 3302  10.876   0.236   7.599  0.5531 -0.4594 -0.2584
   25MOL0     C 3303  10.752   0.138   7.584 -0.3349  0.3797 -0.5208
   25MOL0     C 3304  10.744   0.071   7.453 -0.0178 -0.2326 -0.7925
   25MOL0     C 3305  10.757   0.028   7.338 -0.1333 -0.5775  0.9868
   25MOL0     C 3306  11.064   0.264   8.053  0.0256 -0.1042  0.1835
   25MOL0     C 3307  11.049   0.241   8.187  0.2865 -0.2896 -0.4229
   25MOL0     H 3308  10.792   0.177   8.640  0.5126  0.8759 -0.1880
   25MOL0     H 3309  10.838   0.172   8.884  0.2851 -1.7129  1.2062
   25MOL0     H 3310  11.148   0.240   9.179 -2.3045  1.2844  0.9878
   25MOL0     H 3311  11.240   0.297   9.044 -0.3180 -1.2044 -0.4426
   25MOL0     H 3312  11.092   0.470   9.161  0.0608 -0.7287  0.4770
   25MOL0     H 3313  11.068   0.480   8.990 -0.2719  1.6994  1.2607
   25MOL0     H 3314  10.838   0.479   9.084  1.8377  0.8954 -0.8834
   25MOL0     H 3315  10.861   0.324   9.030 -0.5020 -0.3520  1.3187
   25MOL0     H 3316  10.897   0.222   9.232  0.0544  0.1188 -2.9880
   25MOL0     H 3317  10.903   0.371   9.322 -1.3719  1.9231 -1.9613
   25MOL0     H 3318  10.668   0.416   9.243  1.5194  1.3157  2.2457
   25MOL0     H 3319  10.667   0.257   9.176  1.3005  1.8006 -0.2461
   25MOL0     H 3320  10.707   0.149   9.400 -0.6605 -0.7050 -1.5403
   25MOL0     H 3321  10.758   0.304   9.471 -0.7183  2.1249 -1.1295
   25MOL0     H 3322  10.508   0.382   9.427 -1.2633  0.1050  3.3336
   25MOL0     H 3323  10.489   0.206   9.400 -0.4375  0.8544 -0.8171
   25MOL0     H 3324  10.608   0.352   9.632  0.2784  1.4039 -2.3129
   25MOL0     H 3325  10.608   0.170   9.610  0.2431 -0.2461 -0.7000
   25MOL0     H 3326  10.393   0.044   9.693  0.5005  0.5770  0.0644
   25MOL0     H 3327  10.147   0.122   9.917 -1.0178  1.6015 -0.7033
   25MOL0     H 3328  10.028   0.144   9.787 -0.5156  1.5290  1.7306
   25MOL0     H 3329  10.240  -0.086   9.788 -0.0611 -0.3132  0.8742
   25MOL0     H 3330  10.125  -0.048   9.665 -0.4253  0.5134  0.0544
   25MOL0     H 3331  10.035  -0.227   9.773 -3.5163 -0.0837 -0.0292
   25MOL0     H 3332   9.924  -0.104   9.807 -0.2091  1.2657 -2.0312
   25MOL0     H 3333  10.094  -0.060  10.027  1.2719 -0.1532  0.3903
   25MOL0     H 3334  10.149  -0.211   9.977 -0.0565 -1.6019  1.8420
   25MOL0     H 3335   9.905   0.074  10.002 -0.5997  2.5599  0.3963
   25MOL0     H 3336   9.631   0.272  10.069 -0.7981 -2.2893 -0.0369
   25MOL0     H 3337   9.785   0.309  10.164 -0.4425 -1.3055  0.2655
   25MOL0     H 3338   9.786   0.267   9.991  0.2288 -0.7631 -0.4564
   25MOL0     H 3339   9.623   0.453  10.388  1.7313 -0.9909  1.6916
   25MOL0     H 3340   9.503   0.597  10.545  0.4695  1.4311 -3.5546
   25MOL0     H 3341   9.368   0.695  10.698  1.2425  2.0203 -0.3391
   25MOL0     H 3342   9.292   0.762  10.551 -0.3155  1.8412  1.4614
   25MOL0     H 3343   9.076   0.783  10.679 -1.9823  2.5362  1.8803
   25MOL0     H 3344   9.154   0.710  10.822 -0.8302  1.6593  1.0307
   25MOL0     H 3345   9.235   0.983  10.716 -2.7159 -0.1461  0.0855
   25MOL0     H 3346   9.281   0.896  10.869 -0.2231  0.3740  1.6412
   25MOL0     H 3347   8.994   0.978  10.772 -0.1503  4.0057  0.0420
   25MOL0     H 3348   9.039   0.879  10.918 -2.0540  0.5054 -0.3686
   25MOL0     H 3349   9.185   1.106  10.952  1.0867  1.3733 -3.1218
   25MOL0     H 3350   9.010   1.127  10.987 -0.2566  1.5904  0.2938
   25MOL0     H 3351   9.154   1.207  10.734 -1.2938 -1.5304 -0.7133
   25MOL0     H 3352   8.980   1.216  10.743  1.5106  0.1873 -1.6688
   25MOL0     H 3353   8.988   1.391  10.922 -0.2022  2.0035 -1.0880
   25MOL0     H 3354   9.072   1.441  10.780  0.2163  0.0882  0.6473
   25MOL0     H 3355   9.281   1.319  10.888  0.5270 -0.3030  1.4836
   25MOL0     H 3356   9.198   1.350  11.042 -0.8807  1.7395 -0.1829
   25MOL0     H 3357   9.150   0.350  10.504 -0.3671 -2.3848 -2.0001
   25MOL0     H 3358   9.269   0.206  10.341 -0.7940  0.2526  1.0733
   25MOL0     H 3359   9.569  -0.158  10.290 -0.1128 -0.7899  1.4640
   25MOL0     H 3360   9.742  -0.274  10.194  1.7569 -0.8953 -0.0579
   25MOL0     H 3361  11.254   0.284   8.808 -0.8661  1.0532  2.2173
   25MOL0     H 3362  11.195   0.273   8.561 -0.7598  0.8404  0.3059
   25MOL0     H 3363  11.077  -0.095   8.186  1.5118  1.3252  0.5223
   25MOL0     H 3364  11.051  -0.071   7.956 -1.8741 -1.7788  2.5789
   25MOL0     H 3365  11.113   0.020   7.740  0.7652  0.4928 -2.3587
   25MOL0     H 3366  10.936   0.053   7.781 -0.5217  3.3126  2.6028
   25MOL0     H 3367  11.005   0.064   7.543  1.1583  1.3965 -1.4354
   25MOL0     H 3368  11.098   0.218   7.587  2.0495 -2.3116 -1.7871
   25MOL0     H 3369  10.875   0.296   7.508 -0.1649 -2.1609 -1.4237
   25MOL0     H 3370  10.855   0.297   7.687 -5.8097 -1.5952 -0.5677
   25MOL0     H 3371  10.664   0.201   7.599 -1.2325 -0.6661 -1.2337
   25MOL0     H 3372  10.742   0.068   7.667  0.3337 -1.8981 -2.2647
   25MOL0     H 3373  10.768  -0.002   7.235  1.1034 -1.0741  1.2377
   25MOL0     H 3374  11.079   0.367   8.024  1.4197  0.4035  2.4289
   25MOL0     H 3375  11.049   0.329   8.250 -1.0593 -0.0982 -0.6572
   26MOL0     O 3376   1.847   6.634   7.880  0.6739  0.7389  0.6636
   26MOL0     C 3377   1.840   6.575   7.989 -0.5475 -0.5724  0.3753
   26MOL0     O 3378   1.796   6.450   8.020 -0.2898 -0.5668  0.8175
   26MOL0     C 3379   1.795   6.358   7.926  1.0414  0.2046  0.9435
   26MOL0     C 3380   1.914   6.326   7.850 -0.3656 -0.2575 -0.0584
   26MOL0     C 3381   1.909   6.228   7.754  0.9820  0.3021 -0.7852
   26MOL0     C 3382   1.792   6.160   7.728  0.5235 -0.4444 -0.0466
   26MOL0     O 3383   1.797   6.065   7.629  0.0213  0.1654  0.0231
   26MOL0     C 3384   1.772   6.125   7.498  0.7142  0.2839 -0.7440
   26MOL0     C 3385   1.806   6.030   7.378 -0.0236  0.4226  0.8098
   26MOL0     C 3386   1.746   6.108   7.252  0.0181  0.3908  0.3180
   26MOL0     C 3387   1.769   6.029   7.116 -0.0108 -0.2614 -0.3304
   26MOL0     C 3388   1.705   6.091   6.985 -0.2409 -0.4059  0.2918
   26MOL0     C 3389   1.581   6.018   6.941 -0.7730 -0.1014  0.2286
   26MOL0     C 3390   1.461   6.089   6.999  0.0661 -0.1519 -0.2243
   26MOL0     C 3391   1.326   6.013   6.973  0.5536 -0.5610  1.3210
   26MOL0     N 3392   1.297   5.996   6.827 -0.4880  0.3162 -0.3049
   26MOL0     C 3393   1.317   6.091   6.725  0.2035  0.1042 -0.6823
   26MOL0     C 3394   1.286   6.029   6.609  0.4797 -0.3571 -0.4173
   26MOL0     C 3395   1.328   6.068   6.467 -0.1600 -0.2536 -1.1482
   26MOL0     C 3396   1.425   5.957   6.410 -0.5703 -0.2948  0.4255
   26MOL0     C 3397   1.545   5.906   6.489  0.3424  0.5574  0.2024
   26MOL0     C 3398   1.616   5.796   6.406 -0.3484  0.4792  0.5458
   26MOL0     O 3399   1.756   5.812   6.424  0.0688  0.6845 -0.0683
   26MOL0     C 3400   1.817   5.780   6.542  0.4332  0.1402 -0.7023
   26MOL0     C 3401   1.953   5.783   6.540  0.2908  0.0001 -0.1346
   26MOL0     C 3402   2.040   5.765   6.647  0.7579 -0.2147  0.2781
   26MOL0     C 3403   2.190   5.776   6.607  0.2489  0.1288 -0.6726
   26MOL0     C 3404   1.979   5.735   6.775 -0.2462  0.7273 -0.4278
   26MOL0     C 3405   2.069   5.732   6.894  0.0330 -0.5393  0.9130
   26MOL0     O 3406   2.006   5.763   7.013  0.0018  0.1077  0.2284
   26MOL0     C 3407   2.063   5.750   7.125  0.1556 -0.5377 -0.4632
   26MOL0     C 3408   1.973   5.683   7.218 -0.2736  0.3109 -1.2051
   26MOL0     C 3409   2.023   5.682   7.350 -0.3304 -0.0186 -0.0560
   26MOL0     C 3410   2.134   5.758   7.376  0.3441  0.3520 -0.7620
   26MOL0     O 3411   2.182   5.767   7.512 -0.0987 -0.8395  0.6076
   26MOL0     C 3412   2.090   5.835   7.592 -1.0866  0.5485  0.1820
   26MOL0     C 3413   2.153   5.814   7.731 -0.0877 -0.0249  0.5922
   26MOL0     C 3414   2.069   5.890   7.836 -0.0669 -0.0128 -0.6270
   26MOL0     C 3415   1.931   5.816   7.855 -0.5671  0.5211 -0.2530
   26MOL0     C 3416   1.877   5.838   7.989  0.1226 -0.4618  0.8749
   26MOL0     C 3417   1.864   5.993   8.037  0.4542  0.2708 -0.3270
   26MOL0     C 3418   1.763   5.994   8.156 -0.3563  0.2515 -0.1212
   26MOL0     C 3419   1.831   5.938   8.289  0.2965  0.1995 -0.4119
   26MOL0    Cl 3420   1.711   5.914   8.419  0.1177 -0.3032 -0.2742
   26MOL0     C 3421   2.217   5.814   7.284 -0.1885  0.3817  0.4435
   26MOL0     C 3422   2.182   5.803   7.150 -0.2583  0.1319 -0.8335
   26MOL0     O 3423   2.181   5.680   6.884 -0.6619 -0.2246  0.5662
   26MOL0     C 3424   1.835   5.729   6.784 -0.0606  0.6887  0.5181
   26MOL0     C 3425   1.753   5.743   6.666 -0.3906 -0.5839  0.3425
   26MOL0     N 3426   1.248   5.897   6.647 -0.2581  0.1134  0.2531
   26MOL0     N 3427   1.265   5.879   6.772 -0.0939  0.1413 -0.1416
   26MOL0     C 3428   1.678   6.188   7.801  0.7808 -0.7871 -0.7685
   26MOL0     C 3429   1.673   6.289   7.902  0.0902 -0.6465 -0.3625
   26MOL0     C 3430   1.894   6.645   8.106 -0.2581 -0.4977  0.3796
   26MOL0     C 3431   1.950   6.770   8.094 -0.3299  0.4157 -1.0454
   26MOL0     C 3432   2.010   6.830   8.209 -0.2890  0.0517  1.1014
   26MOL0     C 3433   1.999   6.775   8.336 -0.1695 -0.7133  0.4680
   26MOL0     O 3434   2.032   6.860   8.441  0.3779  0.3736  0.6106
   26MOL0     C 3435   2.044   6.788   8.564 -0.2956 -0.2143  0.6659
   26MOL0     C 3436   2.117   6.854   8.677  0.2725 -0.7429 -0.4671
   26MOL0     C 3437   2.262   6.877   8.643 -0.7194  0.9614 -0.4847
   26MOL0     C 3438   2.351   6.773   8.710  0.1109 -0.5177  0.1044
   26MOL0     C 3439   2.328   6.643   8.649 -0.0930 -0.2890  0.5113
   26MOL0     C 3440   2.301   6.529   8.616  1.2734  0.2294 -0.6025
   26MOL0     C 3441   1.943   6.651   8.343  0.2155  0.1665 -0.5137
   26MOL0     C 3442   1.892   6.593   8.228  0.9544 -0.4145 -0.3282
   26MOL0     H 3443   2.005   6.376   7.879 -0.5733  0.6044 -0.8578
   26MOL0     H 3444   1.990   6.194   7.689 -0.4753 -1.9623 -1.5372
   26MOL0     H 3445   1.664   6.144   7.500  0.1384 -2.5673 -0.4592
   26MOL0     H 3446   1.813   6.226   7.495 -3.3242  2.1823  0.2757
   26MOL0     H 3447   1.914   6.018   7.368 -0.3652 -1.7123 -1.3730
   26MOL0     H 3448   1.757   5.932   7.380 -0.7075  0.6075 -2.0494
   26MOL0     H 3449   1.638   6.128   7.256 -0.3225  0.3516 -4.0107
   26MOL0     H 3450   1.792   6.206   7.263  1.0910 -0.2187  1.4716
   26MOL0     H 3451   1.878   6.019   7.105  0.1260  1.7167 -1.2698
   26MOL0     H 3452   1.719   5.933   7.131  1.0953 -1.0196 -1.3521
   26MOL0     H 3453   1.686   6.197   7.002  3.1171  0.1156  1.6991
   26MOL0     H 3454   1.767   6.081   6.895  0.2441 -0.2412  0.6005
   26MOL0     H 3455   1.568   6.022   6.833 -0.3736  1.7052  0.2171
   26MOL0     H 3456   1.573   5.921   6.992 -1.0440  0.3776  1.1331
   26MOL0     H 3457   1.462   6.091   7.108  0.2567  1.2377 -0.2312
   26MOL0     H 3458   1.450   6.188   6.955  4.2223 -0.6714 -3.0152
   26MOL0     H 3459   1.244   6.074   7.012  0.0232  1.5152 -2.5138
   26MOL0     H 3460   1.330   5.914   7.020 -0.3187 -0.3174  1.9338
   26MOL0     H 3461   1.353   6.194   6.729 -2.2882  1.0160  0.2693
   26MOL0     H 3462   1.240   6.077   6.404 -0.8479  0.3459 -0.1402
   26MOL0     H 3463   1.385   6.162   6.464 -0.3266 -0.1806 -2.1825
   26MOL0     H 3464   1.468   5.996   6.317 -1.3086  0.3092  0.3260
   26MOL0     H 3465   1.358   5.879   6.374 -0.7709  2.2402 -6.0065
   26MOL0     H 3466   1.500   5.868   6.582 -1.0200  3.3439  0.7833
   26MOL0     H 3467   1.614   5.983   6.525  0.7158  0.2089  0.2487
   26MOL0     H 3468   1.594   5.807   6.300 -0.0364  3.6404  0.7292
   26MOL0     H 3469   1.577   5.704   6.452  2.3745  0.3144  2.8044
   26MOL0     H 3470   2.005   5.796   6.445  1.1707 -0.3633  0.2889
   26MOL0     H 3471   2.194   5.854   6.530 -3.2796 -2.0390 -3.3490
   26MOL0     H 3472   2.240   5.822   6.694 -2.0390  1.2590  0.1304
   26MOL0     H 3473   2.233   5.682   6.571  1.1134 -0.3596  1.4888
   26MOL0     H 3474   1.887   5.633   7.174 -0.3372 -0.0285 -0.6927
   26MOL0     H 3475   1.981   5.617   7.426 -0.7679 -3.2950 -2.8672
   26MOL0     H 3476   2.088   5.938   7.555  1.7407  0.6523  0.0591
   26MOL0     H 3477   1.988   5.795   7.586 -1.6117  1.5039  1.9198
   26MOL0     H 3478   2.156   5.705   7.728  2.8374 -0.1062 -4.1929
   26MOL0     H 3479   2.257   5.845   7.723  0.3915 -1.9009 -1.1502
   26MOL0     H 3480   2.064   5.994   7.804  0.0140 -0.8004 -3.4633
   26MOL0     H 3481   2.123   5.892   7.931 -3.9687  1.3799  1.7706
   26MOL0     H 3482   1.856   5.865   7.792  1.0563  4.5911  0.7217
   26MOL0     H 3483   1.944   5.711   7.826 -0.6697  0.7368 -1.1010
   26MOL0     H 3484   1.940   5.796   8.068  0.0380 -0.9301  0.6988
   26MOL0     H 3485   1.780   5.787   7.983  0.2744 -0.6346 -0.3505
   26MOL0     H 3486   1.961   6.029   8.070 -0.3958  2.0159  0.3994
   26MOL0     H 3487   1.829   6.062   7.960  0.4070  0.0992 -0.4600
   26MOL0     H 3488   1.678   5.930   8.127  0.6185 -1.6569  1.0400
   26MOL0     H 3489   1.726   6.094   8.182  0.8471  0.9538 -1.0492
   26MOL0     H 3490   1.906   6.011   8.322 -0.8726  0.2903  2.3114
   26MOL0     H 3491   1.882   5.843   8.269  1.8313  0.9029 -0.0058
   26MOL0     H 3492   2.300   5.873   7.323 -0.0248  1.0449 -0.8503
   26MOL0     H 3493   2.236   5.871   7.086  2.1020 -1.7385 -0.9812
   26MOL0     H 3494   1.788   5.709   6.880  0.4324  1.3792  0.9052
   26MOL0     H 3495   1.645   5.735   6.673 -0.1263 -4.2901  2.1354
   26MOL0     H 3496   1.589   6.138   7.762  1.0554 -1.5602 -0.4254
   26MOL0     H 3497   1.591   6.312   7.969  1.0538  0.3272  0.5181
   26MOL0     H 3498   1.971   6.820   8.000  0.2901  1.4427 -0.3874
   26MOL0     H 3499   2.051   6.928   8.187 -0.0917 -0.0251  1.1173
   26MOL0     H 3500   1.941   6.760   8.589 -0.6459 -2.1576 -2.3858
   26MOL0     H 3501   2.086   6.689   8.540 -2.2458 -0.6292 -1.3244
   26MOL0     H 3502   2.116   6.798   8.771  1.8468  2.6424  1.7572
   26MOL0     H 3503   2.065   6.945   8.707 -0.8657 -2.0504  1.8346
   26MOL0     H 3504   2.283   6.973   8.690  3.7995 -1.1657  2.5903
   26MOL0     H 3505   2.279   6.889   8.535  0.8087  2.2961 -0.1267
   26MOL0     H 3506   2.335   6.765   8.818 -0.4568  1.3601  0.1931
   26MOL0     H 3507   2.457   6.798   8.701 -0.1058  1.1139  1.4524
   26MOL0     H 3508   2.272   6.432   8.581  2.6896 -0.4663  0.0513
   26MOL0     H 3509   1.943   6.596   8.436  3.6654  1.5431  0.4655
   26MOL0     H 3510   1.843   6.498   8.246 -0.0423  0.1363 -0.0519
   27MOL0     O 3511   4.869   8.857   8.983  0.3829  0.4858  1.0549
   27MOL0     C 3512   4.829   8.939   8.896 -0.5286  0.3792  0.2329
   27MOL0     O 3513   4.700   8.943   8.838  0.2277  0.4758 -0.0875
   27MOL0     C 3514   4.611   8.856   8.882  0.7272 -1.5084 -0.1835
   27MOL0     C 3515   4.600   8.736   8.810 -0.0386  0.5798 -0.6188
   27MOL0     C 3516   4.513   8.631   8.861  0.3785 -0.1834  0.3815
   27MOL0     C 3517   4.436   8.658   8.974 -0.0843  0.5213 -0.2835
   27MOL0     O 3518   4.360   8.556   9.032 -0.2847  0.1387 -0.0436
   27MOL0     C 3519   4.271   8.477   8.952 -0.0797 -0.0889 -0.5455
   27MOL0     C 3520   4.159   8.420   9.037  0.7196 -0.4353  0.0390
   27MOL0     C 3521   4.080   8.314   8.956 -0.2590  0.2333 -0.3080
   27MOL0     C 3522   3.950   8.267   9.027  0.5314 -0.3927 -0.8379
   27MOL0     C 3523   3.890   8.153   8.953  0.2223 -0.0539 -0.1405
   27MOL0     C 3524   3.780   8.099   9.041  0.2793  0.8813  0.0669
   27MOL0     C 3525   3.653   8.192   9.049 -0.2778  0.3430 -0.0684
   27MOL0     C 3526   3.518   8.112   9.089 -0.1688 -0.0288  0.6424
   27MOL0     N 3527   3.414   8.209   9.110  0.1650 -0.0339  0.1195
   27MOL0     C 3528   3.344   8.265   9.003 -0.4930 -0.3856  0.0209
   27MOL0     C 3529   3.236   8.324   9.059  0.6044 -0.4187  0.1079
   27MOL0     C 3530   3.133   8.396   8.971 -0.5829 -0.4700  0.2443
   27MOL0     C 3531   3.170   8.539   8.936  0.7108 -0.0765 -0.1135
   27MOL0     C 3532   3.276   8.543   8.835  0.0768  0.0197 -1.2397
   27MOL0     C 3533   3.214   8.542   8.691 -0.3650  1.2532  0.0727
   27MOL0     O 3534   3.167   8.411   8.653 -0.6298 -0.6438  0.1633
   27MOL0     C 3535   3.099   8.399   8.536 -0.0508 -0.3608  2.2060
   27MOL0     C 3536   3.051   8.276   8.515  0.2559  0.4581 -0.0360
   27MOL0     C 3537   2.978   8.237   8.398 -0.2362 -0.0425  1.3132
   27MOL0     C 3538   2.925   8.090   8.388  0.0547 -0.2216 -0.6886
   27MOL0     C 3539   2.969   8.336   8.287  0.0685  0.2102  0.1533
   27MOL0     C 3540   2.880   8.327   8.166  0.1658 -0.5763 -0.3472
   27MOL0     O 3541   2.872   8.440   8.089 -0.2151 -0.2153  0.3332
   27MOL0     C 3542   2.800   8.453   7.972 -0.1558  0.9817 -0.6641
   27MOL0     C 3543   2.686   8.381   7.940  0.3013  0.1835 -0.3591
   27MOL0     C 3544   2.612   8.397   7.826  0.2260  0.1130 -0.9426
   27MOL0     C 3545   2.667   8.478   7.722  0.6802 -0.2946 -0.1750
   27MOL0     O 3546   2.626   8.474   7.591  0.1142  0.5149 -0.0114
   27MOL0     C 3547   2.482   8.466   7.568  0.4501 -0.1259 -0.4542
   27MOL0     C 3548   2.433   8.592   7.510  0.6833 -0.1393  0.0907
   27MOL0     C 3549   2.503   8.612   7.373 -0.4736  0.0361 -0.3836
   27MOL0     C 3550   2.444   8.731   7.290 -0.4606 -0.0052  0.4310
   27MOL0     C 3551   2.477   8.731   7.142 -0.3117 -0.3926  0.0686
   27MOL0     C 3552   2.476   8.872   7.076 -0.4174  0.7345 -0.3266
   27MOL0     C 3553   2.344   8.928   7.078  0.4168  0.1186  0.6600
   27MOL0     C 3554   2.353   9.061   6.994  0.8900 -0.1597 -0.1103
   27MOL0    Cl 3555   2.186   9.111   6.976  0.0068 -0.1805  0.0109
   27MOL0     C 3556   2.783   8.547   7.751  0.4246  0.0281  0.1729
   27MOL0     C 3557   2.849   8.541   7.875  0.4278 -0.4899 -0.6963
   27MOL0     O 3558   2.816   8.226   8.154  0.3057 -0.7528  0.0335
   27MOL0     C 3559   3.044   8.453   8.305 -0.6903  0.2137 -0.2125
   27MOL0     C 3560   3.103   8.484   8.426 -0.1868 -0.4369 -0.1481
   27MOL0     N 3561   3.247   8.305   9.197  0.7439  0.0589 -1.2343
   27MOL0     N 3562   3.352   8.236   9.228  0.1877 -0.9711  0.0479
   27MOL0     C 3563   4.443   8.787   9.035 -0.1241  0.1144  0.7751
   27MOL0     C 3564   4.534   8.876   8.994  0.1968 -0.6048  0.2912
   27MOL0     C 3565   4.930   9.028   8.851  0.6123 -1.2343  0.6239
   27MOL0     C 3566   5.056   9.024   8.906 -0.2709 -0.3220  0.0693
   27MOL0     C 3567   5.164   9.109   8.861  0.3573  0.0052 -0.6280
   27MOL0     C 3568   5.137   9.205   8.765 -0.2127 -0.0611  0.6280
   27MOL0     O 3569   5.235   9.292   8.706 -0.8149 -0.2656 -0.8477
   27MOL0     C 3570   5.261   9.277   8.570 -0.2653  0.0942  0.1527
   27MOL0     C 3571   5.318   9.139   8.543 -0.4111  1.2182  0.6027
   27MOL0     C 3572   5.455   9.111   8.608 -0.4400 -0.7727  0.2181
   27MOL0     C 3573   5.579   9.153   8.525  0.1291 -0.5185  0.3141
   27MOL0     C 3574   5.604   9.300   8.536 -0.3446  0.3871 -0.1364
   27MOL0     C 3575   5.626   9.419   8.555 -1.2172  0.8953  0.4999
   27MOL0     C 3576   5.005   9.209   8.710  0.1577  0.1086  0.2430
   27MOL0     C 3577   4.904   9.123   8.751  0.9527 -0.6999 -0.2691
   27MOL0     H 3578   4.667   8.724   8.726  1.6260  0.3356  0.6769
   27MOL0     H 3579   4.493   8.534   8.815 -0.4686 -1.7074  3.6939
   27MOL0     H 3580   4.229   8.550   8.883 -2.1513  0.0623  0.8014
   27MOL0     H 3581   4.317   8.401   8.889  0.9527  2.9472 -3.7460
   27MOL0     H 3582   4.195   8.377   9.132  1.4676 -0.5264 -0.2765
   27MOL0     H 3583   4.091   8.494   9.080  1.8351  0.4840  0.2542
   27MOL0     H 3584   4.064   8.364   8.860 -0.1488 -0.0303 -0.4640
   27MOL0     H 3585   4.133   8.222   8.929 -2.3432 -0.9744 -0.5186
   27MOL0     H 3586   3.972   8.238   9.131  1.0269  2.0405 -0.2025
   27MOL0     H 3587   3.881   8.353   9.034  0.8689 -0.1495 -0.4692
   27MOL0     H 3588   3.840   8.187   8.862 -0.2004 -0.1682  0.0480
   27MOL0     H 3589   3.970   8.079   8.940  0.8809  0.8382 -1.2802
   27MOL0     H 3590   3.751   8.003   8.997  0.2590  0.3454  1.2174
   27MOL0     H 3591   3.816   8.075   9.141  0.1225 -0.2177 -0.1246
   27MOL0     H 3592   3.671   8.265   9.128  0.0289 -1.7631  1.9124
   27MOL0     H 3593   3.647   8.243   8.952  2.0619  1.7134  0.4257
   27MOL0     H 3594   3.524   8.047   9.177 -4.5363  0.1684  1.2836
   27MOL0     H 3595   3.496   8.032   9.018  1.3094  0.1853 -0.1046
   27MOL0     H 3596   3.378   8.261   8.900  0.7746  0.6295  0.3791
   27MOL0     H 3597   3.096   8.331   8.890 -0.0088 -1.5594  0.8349
   27MOL0     H 3598   3.041   8.411   9.029 -1.4533  2.3416 -1.6486
   27MOL0     H 3599   3.192   8.586   9.032 -1.1304 -0.3398  0.4774
   27MOL0     H 3600   3.077   8.580   8.894 -0.5735 -2.3417  0.3274
   27MOL0     H 3601   3.338   8.453   8.840  0.4535  0.3088 -0.5352
   27MOL0     H 3602   3.345   8.627   8.839 -2.0115  1.7799  1.3926
   27MOL0     H 3603   3.300   8.562   8.627 -0.3633 -1.5586 -0.9637
   27MOL0     H 3604   3.142   8.619   8.663 -1.4535  0.2369 -0.0024
   27MOL0     H 3605   3.039   8.198   8.590  0.4675  0.1468 -0.3244
   27MOL0     H 3606   2.972   8.033   8.470  1.7729 -0.9838 -2.1257
   27MOL0     H 3607   2.816   8.091   8.389 -0.0073 -1.3223  1.5921
   27MOL0     H 3608   2.967   8.051   8.295 -0.0461  2.9196 -2.1895
   27MOL0     H 3609   2.646   8.314   8.015  1.7378  0.6533  0.9013
   27MOL0     H 3610   2.525   8.335   7.808  1.1945 -2.0546  1.3052
   27MOL0     H 3611   2.452   8.385   7.500  1.3907 -3.2498  2.5735
   27MOL0     H 3612   2.431   8.456   7.664  0.9167 -0.4321 -0.2366
   27MOL0     H 3613   2.324   8.596   7.502  0.5017  2.9967  2.1584
   27MOL0     H 3614   2.446   8.670   7.586 -1.3635 -1.6217  2.1071
   27MOL0     H 3615   2.502   8.522   7.311 -0.8319 -0.3270  0.1426
   27MOL0     H 3616   2.611   8.626   7.391  0.6674  1.0121 -5.9977
   27MOL0     H 3617   2.335   8.727   7.298 -0.3123 -0.8017  2.7106
   27MOL0     H 3618   2.489   8.819   7.337  0.4129  0.2019 -0.7340
   27MOL0     H 3619   2.414   8.663   7.084  0.4303 -0.1451 -1.0651
   27MOL0     H 3620   2.581   8.697   7.147 -0.1391  0.1482  0.2597
   27MOL0     H 3621   2.554   8.933   7.122  2.5423 -0.9116 -2.8154
   27MOL0     H 3622   2.511   8.860   6.973 -4.3487  1.8186 -2.0082
   27MOL0     H 3623   2.317   8.946   7.182 -1.4109 -0.9533  0.4257
   27MOL0     H 3624   2.269   8.861   7.035  1.4111  0.9140 -2.6694
   27MOL0     H 3625   2.391   9.053   6.892  0.9774  2.1596 -0.2990
   27MOL0     H 3626   2.416   9.137   7.041  3.2240 -0.8644 -1.8949
   27MOL0     H 3627   2.828   8.600   7.668  3.3749 -3.1189 -0.4692
   27MOL0     H 3628   2.943   8.590   7.899  0.8451  1.3811 -5.2701
   27MOL0     H 3629   3.056   8.524   8.224  2.2361  0.3594  0.2494
   27MOL0     H 3630   3.166   8.572   8.439 -1.6199  0.5464  0.3489
   27MOL0     H 3631   4.385   8.813   9.123  1.2238  0.0904  1.6970
   27MOL0     H 3632   4.519   8.971   9.045 -2.6417 -1.5490  1.4157
   27MOL0     H 3633   5.077   8.955   8.987 -0.1851  0.1693  0.4691
   27MOL0     H 3634   5.261   9.094   8.907 -0.4441 -4.7461  0.0370
   27MOL0     H 3635   5.173   9.303   8.510 -0.2734  0.1097  0.1711
   27MOL0     H 3636   5.345   9.343   8.545  1.6663 -1.0566  3.0860
   27MOL0     H 3637   5.330   9.129   8.435 -2.1450 -1.1137  0.5372
   27MOL0     H 3638   5.251   9.067   8.591  1.0104  0.2104  1.1579
   27MOL0     H 3639   5.460   9.002   8.602  1.0427 -0.6343 -2.0156
   27MOL0     H 3640   5.461   9.148   8.711 -1.8859  1.8009 -0.5571
   27MOL0     H 3641   5.565   9.136   8.418 -1.4534 -0.4810  0.4899
   27MOL0     H 3642   5.666   9.092   8.551  4.1090  3.5302 -2.0193
   27MOL0     H 3643   5.662   9.519   8.566  0.8537  0.1521  0.9673
   27MOL0     H 3644   4.982   9.286   8.638  0.6078  0.2688  0.2726
   27MOL0     H 3645   4.798   9.117   8.726  1.0823 -4.2793 -0.4023
   28MOL0     O 3646   8.001   0.077   0.427 -0.6396  0.2853 -0.6141
   28MOL0     C 3647   8.074   0.093   0.528 -0.1805 -0.5555  0.1280
   28MOL0     O 3648   8.033   0.099   0.655 -0.1674  0.0393 -0.4176
   28MOL0     C 3649   7.898   0.099   0.687 -0.3436  0.5897 -0.3875
   28MOL0     C 3650   7.792   0.033   0.617  0.8525  0.6442  0.9282
   28MOL0     C 3651   7.656   0.054   0.663  0.0223  0.4557 -0.4824
   28MOL0     C 3652   7.628   0.123   0.782  0.1184 -0.1383 -0.2883
   28MOL0     O 3653   7.493   0.137   0.824 -0.2068 -0.1278  0.2086
   28MOL0     C 3654   7.473   0.201   0.951 -0.3391  0.4875  0.0288
   28MOL0     C 3655   7.322   0.183   0.990 -0.0863  1.4941  0.6816
   28MOL0     C 3656   7.296   0.235   1.133  1.0272 -0.8466  0.9581
   28MOL0     C 3657   7.320   0.131   1.254  0.1219  0.1117  0.9739
   28MOL0     C 3658   7.317   0.203   1.384 -0.6221 -0.2861 -0.0932
   28MOL0     C 3659   7.179   0.247   1.417  0.2567  0.0564  1.1139
   28MOL0     C 3660   7.151   0.255   1.568 -0.3456 -0.4019 -0.9409
   28MOL0     C 3661   7.112   0.114   1.616  1.7910  0.6979 -0.9554
   28MOL0     N 3662   6.960   0.106   1.630  0.4701  0.0852  0.4980
   28MOL0     C 3663   6.867   0.128   1.527  0.6634  0.0245  0.0135
   28MOL0     C 3664   6.752   0.093   1.586 -0.2048 -0.3163  0.3262
   28MOL0     C 3665   6.618   0.109   1.524 -0.6561 -0.0110  0.4998
   28MOL0     C 3666   6.502   0.144   1.628  0.0063  0.4451  0.4617
   28MOL0     C 3667   6.362   0.094   1.595  0.3255 -0.5471 -0.3905
   28MOL0     C 3668   6.258   0.112   1.701  0.3919  0.6965 -0.5954
   28MOL0     O 3669   6.251   0.250   1.735 -0.5176 -0.7008 -0.4179
   28MOL0     C 3670   6.122   0.296   1.730  1.1459  0.0600  0.0103
   28MOL0     C 3671   6.034   0.255   1.827 -0.4408  0.6387  0.2221
   28MOL0     C 3672   5.904   0.302   1.842 -0.3786  0.2968 -0.2405
   28MOL0     C 3673   5.812   0.241   1.941  0.3714 -0.1280 -0.6464
   28MOL0     C 3674   5.862   0.400   1.755 -0.1158 -0.2073  0.1332
   28MOL0     C 3675   5.731   0.471   1.770  0.1272 -0.4077 -0.2679
   28MOL0     O 3676   5.688   0.546   1.663 -0.3204 -0.0078 -0.7822
   28MOL0     C 3677   5.575   0.610   1.689 -0.6265 -0.0969 -0.5289
   28MOL0     C 3678   5.452   0.544   1.655  0.2128  0.5809  0.1127
   28MOL0     C 3679   5.328   0.606   1.661  0.1096  0.1045 -0.1986
   28MOL0     C 3680   5.331   0.734   1.720  1.7879  0.6268 -0.0874
   28MOL0     O 3681   5.200   0.791   1.726 -0.4407  0.1447 -0.5799
   28MOL0     C 3682   5.191   0.940   1.729 -0.0377 -0.2059 -0.1334
   28MOL0     C 3683   5.053   0.988   1.698  0.2258  0.3921 -0.7069
   28MOL0     C 3684   5.023   1.123   1.761  0.1079 -0.2858 -0.1445
   28MOL0     C 3685   5.083   1.236   1.686  0.2004  0.1623  0.9216
   28MOL0     C 3686   5.020   1.374   1.734 -0.1219  0.1652 -0.8175
   28MOL0     C 3687   5.059   1.424   1.866  0.9126 -0.4349 -0.2825
   28MOL0     C 3688   4.930   1.446   1.954  0.0860  1.2660 -0.1364
   28MOL0     C 3689   4.952   1.470   2.100  0.3055  0.4986  0.2148
   28MOL0    Cl 3690   5.028   1.328   2.192  0.1374  0.0453 -0.4814
   28MOL0     C 3691   5.444   0.797   1.767  0.3449 -0.3196  0.5851
   28MOL0     C 3692   5.569   0.738   1.742 -0.0476  0.3254 -0.0992
   28MOL0     O 3693   5.675   0.467   1.883  0.0007 -0.7371  0.3618
   28MOL0     C 3694   5.954   0.449   1.657  0.0354  0.1575 -1.0712
   28MOL0     C 3695   6.085   0.395   1.643 -0.2714 -0.0772 -0.0426
   28MOL0     N 3696   6.782   0.053   1.712  1.3167  0.5686  1.3911
   28MOL0     N 3697   6.902   0.058   1.743 -0.4158  0.4883  0.4324
   28MOL0     C 3698   7.737   0.183   0.850 -1.1240 -0.2524 -0.0539
   28MOL0     C 3699   7.866   0.166   0.801 -0.1919 -0.0496 -0.7514
   28MOL0     C 3700   8.221   0.093   0.498  0.6339  0.3016  0.6100
   28MOL0     C 3701   8.318   0.071   0.602  1.3654 -0.4430  0.2933
   28MOL0     C 3702   8.462   0.081   0.573  0.0794 -0.1941 -0.5012
   28MOL0     C 3703   8.502   0.113   0.449  0.6331 -0.4174  1.1712
   28MOL0     O 3704   8.635   0.112   0.439 -1.0567  0.0623  0.2740
   28MOL0     C 3705   8.694   0.133   0.306  0.1274  0.4118  0.2668
   28MOL0     C 3706   8.719  -0.005   0.235 -0.4233 -0.0081 -0.5710
   28MOL0     C 3707   8.836  -0.019   0.133  1.2694 -0.0180 -0.2463
   28MOL0     C 3708   8.968  -0.051   0.201 -0.1264  0.3069 -0.1844
   28MOL0     C 3709   8.992  -0.193   0.231 -0.4807  0.2090 -0.1919
   28MOL0     C 3710   9.011  -0.311   0.251  0.0266  0.3013  0.3299
   28MOL0     C 3711   8.410   0.145   0.348  0.4190 -0.2104 -0.0556
   28MOL0     C 3712   8.273   0.134   0.375  0.9562 -0.0772 -0.1873
   28MOL0     H 3713   7.808  -0.016   0.521  0.5956 -0.6990  1.5527
   28MOL0     H 3714   7.571   0.011   0.612 -0.8895  0.0147  1.3133
   28MOL0     H 3715   7.535   0.161   1.032  0.1930 -0.9090 -1.0426
   28MOL0     H 3716   7.499   0.307   0.943  2.2939 -0.0668  0.2093
   28MOL0     H 3717   7.257   0.235   0.918  0.3770 -2.6729 -3.1988
   28MOL0     H 3718   7.290   0.079   0.992  2.7307  0.5610  0.7177
   28MOL0     H 3719   7.345   0.329   1.158  0.4320 -0.6516  1.4140
   28MOL0     H 3720   7.189   0.254   1.144  1.1621  0.4890  0.0853
   28MOL0     H 3721   7.235   0.063   1.242 -1.4388  2.0925  0.2556
   28MOL0     H 3722   7.415   0.078   1.242  0.0078  0.4754 -2.8645
   28MOL0     H 3723   7.355   0.132   1.458 -0.2563 -1.8868 -1.7452
   28MOL0     H 3724   7.386   0.288   1.368 -0.4658 -0.6784 -1.7696
   28MOL0     H 3725   7.155   0.348   1.381 -2.4768 -0.5529  1.0493
   28MOL0     H 3726   7.110   0.174   1.374  0.5827  0.6088 -0.4062
   28MOL0     H 3727   7.252   0.282   1.598 -0.2518 -0.2645 -1.3707
   28MOL0     H 3728   7.072   0.323   1.599 -0.5143 -1.3996  0.9646
   28MOL0     H 3729   7.153   0.100   1.717  0.3673  2.0419 -0.1534
   28MOL0     H 3730   7.150   0.039   1.546 -0.1360  0.1272 -1.4494
   28MOL0     H 3731   6.876   0.159   1.423  1.0815 -1.2344 -0.3428
   28MOL0     H 3732   6.631   0.188   1.449 -0.2087  1.5452  2.1619
   28MOL0     H 3733   6.597   0.017   1.468 -0.4206 -0.4749  1.1685
   28MOL0     H 3734   6.507   0.253   1.630 -0.5160  0.5848 -1.8975
   28MOL0     H 3735   6.531   0.110   1.728 -0.5633 -1.0676  0.1416
   28MOL0     H 3736   6.363  -0.013   1.570  0.4999 -1.5571  3.4011
   28MOL0     H 3737   6.332   0.149   1.505  0.2919 -2.1336 -1.3930
   28MOL0     H 3738   6.283   0.062   1.795 -3.3887  2.0238  1.3152
   28MOL0     H 3739   6.163   0.072   1.665  2.1900 -3.7645 -1.0997
   28MOL0     H 3740   6.068   0.188   1.905 -1.5278 -0.4414 -0.2053
   28MOL0     H 3741   5.863   0.168   2.004  1.6475  2.1058  1.0297
   28MOL0     H 3742   5.770   0.307   2.018  0.8853 -0.2549 -0.2560
   28MOL0     H 3743   5.729   0.183   1.899 -0.3134  0.6157 -0.3414
   28MOL0     H 3744   5.443   0.441   1.623 -3.5247 -0.3589  3.3988
   28MOL0     H 3745   5.239   0.558   1.622 -0.7285  0.8746  0.7159
   28MOL0     H 3746   5.224   0.984   1.823  0.9922 -1.3690  0.0855
   28MOL0     H 3747   5.261   0.974   1.652  4.4417 -3.2920  2.1493
   28MOL0     H 3748   5.038   0.983   1.589  0.7586 -2.5938 -0.7381
   28MOL0     H 3749   4.993   0.909   1.745  3.2353 -0.3295  2.3509
   28MOL0     H 3750   5.057   1.124   1.865 -0.4613 -1.1964  0.0545
   28MOL0     H 3751   4.914   1.127   1.774  0.1821 -2.2830  1.5223
   28MOL0     H 3752   5.192   1.231   1.693  0.3802  0.9009 -0.7454
   28MOL0     H 3753   5.049   1.216   1.584  1.1701 -2.6226  1.0568
   28MOL0     H 3754   4.910   1.367   1.729 -0.7032  3.4872  2.8086
   28MOL0     H 3755   5.061   1.452   1.669  0.7393 -0.6715 -1.2925
   28MOL0     H 3756   5.135   1.351   1.897  2.7873  1.1119 -1.0061
   28MOL0     H 3757   5.117   1.517   1.866  0.8136 -0.3701 -1.0316
   28MOL0     H 3758   4.863   1.359   1.947  4.3738 -2.5925  1.5474
   28MOL0     H 3759   4.873   1.528   1.910 -0.3738  1.4574  0.7798
   28MOL0     H 3760   4.855   1.502   2.138 -0.6653 -0.2529 -1.5328
   28MOL0     H 3761   5.021   1.555   2.110  0.3130  0.6231 -0.8238
   28MOL0     H 3762   5.441   0.891   1.821  2.0778 -2.1931  4.3075
   28MOL0     H 3763   5.666   0.784   1.759 -0.0736  0.4948 -0.4124
   28MOL0     H 3764   5.918   0.528   1.591 -1.0370 -2.9251 -4.5261
   28MOL0     H 3765   6.154   0.431   1.567 -0.0809  4.9734  2.1327
   28MOL0     H 3766   7.733   0.226   0.949  0.6079 -0.9038  0.3318
   28MOL0     H 3767   7.949   0.198   0.863 -0.1588 -1.4985 -0.0206
   28MOL0     H 3768   8.281   0.021   0.691 -1.2984 -1.5460 -1.3231
   28MOL0     H 3769   8.527   0.056   0.656  0.5313  0.4006 -0.6696
   28MOL0     H 3770   8.633   0.199   0.244  0.2828  1.0558  0.7930
   28MOL0     H 3771   8.796   0.171   0.320 -0.3055  1.9422 -0.5267
   28MOL0     H 3772   8.633  -0.024   0.169  1.0271 -0.0132 -2.5533
   28MOL0     H 3773   8.727  -0.087   0.307  1.5888  2.8560  2.7997
   28MOL0     H 3774   8.843   0.076   0.078 -0.3117  2.6688  3.7348
   28MOL0     H 3775   8.813  -0.105   0.069  2.5841 -1.3235  0.9614
   28MOL0     H 3776   8.976   0.005   0.295  0.6507 -0.6296  0.3274
   28MOL0     H 3777   9.044  -0.011   0.133 -1.8407  0.3290 -2.1652
   28MOL0     H 3778   9.010  -0.415   0.278  0.2684 -0.3740 -2.0445
   28MOL0     H 3779   8.433   0.186   0.250 -0.9436  0.5490 -0.0846
   28MOL0     H 3780   8.206   0.140   0.290 -1.3689 -2.5414  1.2905
   29MOL0     O 3781   4.538   2.225   9.612  0.1175  0.2104  0.6890
   29MOL0     C 3782   4.632   2.301   9.656  1.0127  0.1343  0.5659
   29MOL0     O 3783   4.620   2.375   9.759 -0.4899  0.5811 -0.2695
   29MOL0     C 3784   4.513   2.368   9.839 -0.8154  0.6084  0.3812
   29MOL0     C 3785   4.377   2.351   9.807  0.9174  0.1348  0.5486
   29MOL0     C 3786   4.275   2.365   9.894 -0.2175 -0.0131 -0.9437
   29MOL0     C 3787   4.301   2.378  10.026 -0.1675  0.0197  0.0579
   29MOL0     O 3788   4.195   2.386  10.112  0.2682 -0.4040 -1.1479
   29MOL0     C 3789   4.211   2.371  10.256  0.5326 -1.1516 -0.1962
   29MOL0     C 3790   4.274   2.231  10.290  0.7619 -0.3069 -0.4010
   29MOL0     C 3791   4.161   2.125  10.282 -0.2960 -0.3898 -0.9032
   29MOL0     C 3792   4.217   1.986  10.262  0.3469  0.0263  0.2237
   29MOL0     C 3793   4.117   1.869  10.278  0.1933  0.4435 -0.3182
   29MOL0     C 3794   4.065   1.849  10.419  0.7976 -0.3219 -0.6050
   29MOL0     C 3795   4.002   1.710  10.448 -0.6483  0.4885  0.3110
   29MOL0     C 3796   3.929   1.709  10.585 -0.1526 -0.3678  0.1487
   29MOL0     N 3797   3.786   1.732  10.581  0.1170  0.5074 -0.9103
   29MOL0     C 3798   3.699   1.661  10.501 -0.7849  0.0758 -0.1525
   29MOL0     C 3799   3.583   1.723  10.532  0.6696  0.1036 -0.1611
   29MOL0     C 3800   3.455   1.684  10.463 -0.1040  0.5339 -0.3417
   29MOL0     C 3801   3.341   1.749  10.547 -0.3411  0.0133  0.1202
   29MOL0     C 3802   3.210   1.701  10.492 -0.3222  0.0792  0.0804
   29MOL0     C 3803   3.086   1.757  10.577  0.6170  0.0540 -0.5152
   29MOL0     O 3804   3.077   1.677  10.704 -0.6449 -0.8116  0.1931
   29MOL0     C 3805   2.960   1.602  10.701 -0.2980  0.4867 -0.2521
   29MOL0     C 3806   2.967   1.465  10.737 -0.2729  0.2260 -0.2087
   29MOL0     C 3807   2.863   1.367  10.714  0.0844 -0.0717 -0.5433
   29MOL0     C 3808   2.892   1.224  10.741  0.0602 -0.6843 -1.1981
   29MOL0     C 3809   2.732   1.415  10.684 -0.4620  0.2620 -0.3024
   29MOL0     C 3810   2.613   1.329  10.676  0.3150  1.0316  0.1549
   29MOL0     O 3811   2.488   1.393  10.690 -0.4591 -0.5984 -0.1375
   29MOL0     C 3812   2.379   1.314  10.667  0.5282  0.3350 -0.1023
   29MOL0     C 3813   2.302   1.328  10.550  0.2632 -0.0852 -0.8435
   29MOL0     C 3814   2.194   1.235  10.536  0.3977  0.2298  0.5768
   29MOL0     C 3815   2.161   1.141  10.632  0.5415  0.2413  0.0987
   29MOL0     O 3816   2.046   1.069  10.616 -0.2986  1.0741 -0.2148
   29MOL0     C 3817   2.059   0.923  10.634 -0.1065 -1.5691  0.0641
   29MOL0     C 3818   1.921   0.866  10.647 -0.1821  0.8735  0.0027
   29MOL0     C 3819   1.882   0.865  10.795 -0.2372 -0.0059  0.1057
   29MOL0     C 3820   1.959   0.777  10.894 -0.0720 -0.8949  0.1989
   29MOL0     C 3821   1.869   0.733  11.013 -0.2796  0.3850  0.3241
   29MOL0     C 3822   1.931   0.665  11.127 -0.7497  0.5765 -0.1952
   29MOL0     C 3823   2.027   0.542  11.097 -1.4230 -0.5190 -0.0355
   29MOL0     C 3824   1.946   0.422  11.049 -0.2184  0.1618 -0.6613
   29MOL0    Cl 3825   2.044   0.276  11.009  0.2872 -0.1478  0.1300
   29MOL0     C 3826   2.226   1.138  10.747  0.0311  0.4698  0.3596
   29MOL0     C 3827   2.334   1.227  10.766  0.3266 -0.7631 -0.5203
   29MOL0     O 3828   2.632   1.213  10.635 -0.7064  0.2268 -0.5463
   29MOL0     C 3829   2.719   1.554  10.671  0.0579 -0.5089  0.2431
   29MOL0     C 3830   2.831   1.645  10.679 -0.0174 -0.2387  0.2208
   29MOL0     N 3831   3.605   1.805  10.639 -0.0393 -0.3391 -0.1036
   29MOL0     N 3832   3.727   1.818  10.668  0.1930 -0.1829 -0.1192
   29MOL0     C 3833   4.433   2.385  10.070  0.4391  0.7121  0.2033
   29MOL0     C 3834   4.537   2.382   9.977  0.6601  0.0371 -0.0239
   29MOL0     C 3835   4.756   2.305   9.590 -1.3170  0.3010  0.3434
   29MOL0     C 3836   4.785   2.219   9.486  0.0330 -0.4744  0.1647
   29MOL0     C 3837   4.899   2.231   9.416  0.3929  0.3856  0.6801
   29MOL0     C 3838   4.990   2.328   9.441  0.0753 -0.3835  0.4336
   29MOL0     O 3839   5.109   2.349   9.378  0.5538  0.4073 -0.1038
   29MOL0     C 3840   5.170   2.252   9.295 -0.0591 -0.1456  1.3740
   29MOL0     C 3841   5.308   2.308   9.234  0.2689  0.5171  0.0141
   29MOL0     C 3842   5.382   2.187   9.176 -0.0956 -0.0288  0.0717
   29MOL0     C 3843   5.461   2.215   9.048 -0.2273  1.2803  0.8767
   29MOL0     C 3844   5.592   2.270   9.067  1.1712  0.2663  0.0983
   29MOL0     C 3845   5.701   2.309   9.084 -1.4862  0.3444 -0.0025
   29MOL0     C 3846   4.961   2.421   9.539 -0.4352  0.2240  0.0190
   29MOL0     C 3847   4.847   2.413   9.612  0.6437  0.2220 -0.2457
   29MOL0     H 3848   4.354   2.325   9.704  0.2829 -0.3753  0.8101
   29MOL0     H 3849   4.174   2.380   9.856 -0.3263 -2.0336 -1.5863
   29MOL0     H 3850   4.278   2.448  10.295 -0.2075 -0.8770  0.5516
   29MOL0     H 3851   4.114   2.375  10.307  0.7426  1.3020  0.1476
   29MOL0     H 3852   4.347   2.213  10.211 -2.3399 -0.5888 -3.4303
   29MOL0     H 3853   4.316   2.232  10.391 -1.7470 -0.5934  0.7347
   29MOL0     H 3854   4.100   2.140  10.371 -0.2559  1.1160 -1.1036
   29MOL0     H 3855   4.094   2.141  10.198  0.4930 -0.3278 -1.5334
   29MOL0     H 3856   4.279   1.987  10.172 -0.4587 -1.2335 -0.3605
   29MOL0     H 3857   4.279   1.981  10.353  0.8184 -1.0176 -0.1380
   29MOL0     H 3858   4.039   1.898  10.208  0.6230 -0.1838 -1.0723
   29MOL0     H 3859   4.165   1.777  10.244  1.6086  1.4156 -1.0470
   29MOL0     H 3860   4.140   1.860  10.497 -1.5857 -5.1708  2.8858
   29MOL0     H 3861   3.990   1.926  10.442  1.2485 -0.5331  1.8878
   29MOL0     H 3862   3.929   1.694  10.368 -1.4248 -0.4737  1.1778
   29MOL0     H 3863   4.079   1.634  10.427 -1.9054 -0.4418 -1.1144
   29MOL0     H 3864   3.977   1.792  10.637 -2.0649  1.0023 -0.1737
   29MOL0     H 3865   3.955   1.621  10.645  1.5817 -0.5951 -0.8694
   29MOL0     H 3866   3.721   1.582  10.431  2.2456 -0.5934  1.3879
   29MOL0     H 3867   3.461   1.718  10.360  0.7523 -0.1841 -0.5427
   29MOL0     H 3868   3.445   1.575  10.459 -1.3351  0.6766 -3.2125
   29MOL0     H 3869   3.348   1.858  10.539  2.9902 -0.1252 -0.1407
   29MOL0     H 3870   3.354   1.728  10.653 -0.0972  2.9719  0.7394
   29MOL0     H 3871   3.199   1.592  10.492  3.0633 -0.3981 -1.7792
   29MOL0     H 3872   3.204   1.729  10.387 -2.2068 -0.1187  0.1020
   29MOL0     H 3873   3.004   1.757  10.506  0.8556  0.5391 -0.7965
   29MOL0     H 3874   3.094   1.862  10.607  0.8234 -0.1308  0.0957
   29MOL0     H 3875   3.064   1.425  10.766 -1.7952 -2.9605  0.9900
   29MOL0     H 3876   2.994   1.212  10.780  0.5786  3.4753 -0.7999
   29MOL0     H 3877   2.833   1.188  10.825 -2.1216  2.0827 -1.4064
   29MOL0     H 3878   2.880   1.165  10.649  0.2630 -0.7332 -1.1945
   29MOL0     H 3879   2.343   1.392  10.473  1.9094  4.8321  3.5091
   29MOL0     H 3880   2.126   1.242  10.452  1.8284  1.2007 -0.5553
   29MOL0     H 3881   2.111   0.888  10.544 -0.2186 -2.8692  0.4822
   29MOL0     H 3882   2.116   0.880  10.717  1.0374 -0.6321 -0.2098
   29MOL0     H 3883   1.853   0.931  10.591  0.8187  0.6388 -1.5531
   29MOL0     H 3884   1.926   0.765  10.607 -1.1236  0.6559  0.4178
   29MOL0     H 3885   1.774   0.849  10.791 -0.3097  0.7902 -2.8515
   29MOL0     H 3886   1.897   0.963  10.843  2.0777 -1.2102  2.1293
   29MOL0     H 3887   1.995   0.694  10.834  0.9695  2.0237 -3.6371
   29MOL0     H 3888   2.054   0.819  10.929  0.4875 -1.3722 -0.7169
   29MOL0     H 3889   1.782   0.679  10.975  0.1922  0.7475 -1.3567
   29MOL0     H 3890   1.821   0.827  11.044  2.5107  2.0673 -0.0840
   29MOL0     H 3891   1.990   0.740  11.180 -1.3083 -0.0459  1.3408
   29MOL0     H 3892   1.854   0.638  11.199  0.6732  2.2856  2.1111
   29MOL0     H 3893   2.076   0.516  11.191 -1.0215  1.1761  0.2612
   29MOL0     H 3894   2.112   0.560  11.031  0.3729 -1.9844  1.7513
   29MOL0     H 3895   1.887   0.447  10.960 -2.9407  2.1508  1.5509
   29MOL0     H 3896   1.867   0.402  11.122 -1.6612 -0.3197 -2.2896
   29MOL0     H 3897   2.195   1.066  10.822  0.0388 -0.2309 -0.3066
   29MOL0     H 3898   2.396   1.211  10.854  1.3933 -1.6271 -1.3980
   29MOL0     H 3899   2.619   1.591  10.650 -0.1196 -0.8254  0.5359
   29MOL0     H 3900   2.823   1.752  10.662 -1.2887  0.0394  2.2008
   29MOL0     H 3901   4.467   2.408  10.170  0.8497  0.8598  0.0346
   29MOL0     H 3902   4.637   2.393  10.017 -0.2328  3.1695  1.7116
   29MOL0     H 3903   4.721   2.137   9.457  0.6024 -0.6304 -0.7145
   29MOL0     H 3904   4.922   2.155   9.343  0.0566 -3.5538  4.2862
   29MOL0     H 3905   5.170   2.151   9.337 -1.6794 -0.3636  0.9078
   29MOL0     H 3906   5.117   2.239   9.200  1.3305  0.9501  0.4116
   29MOL0     H 3907   5.359   2.359   9.317 -1.3146 -0.7262  1.8496
   29MOL0     H 3908   5.301   2.387   9.158  0.9722 -1.4757 -2.2439
   29MOL0     H 3909   5.310   2.112   9.144 -1.3601  1.9809 -2.1044
   29MOL0     H 3910   5.435   2.137   9.257  1.9296  1.9243  0.0564
   29MOL0     H 3911   5.411   2.286   8.982  0.4754 -1.4806 -2.9577
   29MOL0     H 3912   5.470   2.118   8.999 -0.4505  1.1113  1.1709
   29MOL0     H 3913   5.807   2.325   9.085 -0.7463 -3.4086 -0.7468
   29MOL0     H 3914   5.035   2.500   9.554  1.6334 -1.4031 -1.1417
   29MOL0     H 3915   4.826   2.485   9.690 -3.1484 -0.8526 -0.0628
   30MOL0     O 3916   8.216   1.686   9.483  0.0747 -0.2723  0.0860
   30MOL0     C 3917   8.328   1.723   9.457 -1.1856  0.4040 -0.4211
   30MOL0     O 3918   8.361   1.847   9.422 -0.0725 -0.2540  0.8334
   30MOL0     C 3919   8.264   1.935   9.392  0.5048 -0.1356  0.4732
   30MOL0     C 3920   8.265   2.055   9.464 -0.1065 -0.5644  0.7321
   30MOL0     C 3921   8.173   2.150   9.430 -1.0527  0.2618 -0.1015
   30MOL0     C 3922   8.088   2.130   9.321  0.3122  0.2677 -0.1400
   30MOL0     O 3923   7.986   2.217   9.306  0.5308  1.4574  0.2900
   30MOL0     C 3924   8.021   2.329   9.229  0.7501 -0.5433  0.6787
   30MOL0     C 3925   7.942   2.457   9.267 -0.0162  0.1372  0.8682
   30MOL0     C 3926   7.987   2.576   9.199 -0.6372  0.4601  0.5332
   30MOL0     C 3927   7.901   2.693   9.249 -0.6708  0.3699 -0.2536
   30MOL0     C 3928   7.947   2.825   9.172 -0.0203 -0.1582  1.0424
   30MOL0     C 3929   8.087   2.866   9.209 -0.2838 -0.1746 -0.7052
   30MOL0     C 3930   8.135   3.001   9.138  0.1090 -0.0489 -0.4604
   30MOL0     C 3931   8.145   2.984   8.991 -1.0891  0.0418 -0.9330
   30MOL0     N 3932   8.223   2.860   8.954 -0.2944  0.1905  0.4475
   30MOL0     C 3933   8.356   2.837   8.975 -0.4060 -0.1718  1.0717
   30MOL0     C 3934   8.383   2.712   8.931  0.3337 -0.5576  0.1099
   30MOL0     C 3935   8.505   2.623   8.936 -1.6734  0.3322  0.0594
   30MOL0     C 3936   8.620   2.665   9.036  0.5187  0.0561  0.4212
   30MOL0     C 3937   8.705   2.545   9.071  0.6010 -0.3625 -0.6487
   30MOL0     C 3938   8.812   2.572   9.179 -0.8158 -0.7524  0.3366
   30MOL0     O 3939   8.911   2.666   9.122  0.4369 -0.3707  0.0210
   30MOL0     C 3940   9.014   2.610   9.052 -0.4450 -0.4520  0.1299
   30MOL0     C 3941   9.007   2.589   8.915 -0.3211 -0.5655 -0.2123
   30MOL0     C 3942   9.103   2.519   8.844 -0.4417 -0.5723  0.4322
   30MOL0     C 3943   9.073   2.506   8.697  0.8922 -1.1455 -0.9301
   30MOL0     C 3944   9.216   2.465   8.923  0.8541  1.2220  0.1590
   30MOL0     C 3945   9.321   2.381   8.855 -0.5797 -0.1209  0.4085
   30MOL0     O 3946   9.378   2.283   8.931 -0.2514 -1.2822  0.2878
   30MOL0     C 3947   9.488   2.209   8.880 -0.5868 -0.2278 -0.1578
   30MOL0     C 3948   9.608   2.208   8.952 -1.6215 -0.7368  0.1565
   30MOL0     C 3949   9.718   2.131   8.927 -0.2902  0.6963 -0.5898
   30MOL0     C 3950   9.701   2.039   8.828  0.5789  0.2146 -0.0812
   30MOL0     O 3951   9.800   1.955   8.801 -0.1329  0.3312 -0.1440
   30MOL0     C 3952   9.890   1.997   8.694  0.3296 -0.1823 -0.1231
   30MOL0     C 3953  10.041   1.992   8.727 -0.3795  0.4041  0.3150
   30MOL0     C 3954  10.083   1.853   8.779 -0.0021 -0.6241  0.5413
   30MOL0     C 3955  10.078   1.744   8.669  0.6723  0.1629 -0.0040
   30MOL0     C 3956  10.148   1.614   8.716  0.5225 -0.2309  0.1517
   30MOL0     C 3957  10.063   1.544   8.829 -0.0324 -0.5315  0.0716
   30MOL0     C 3958   9.923   1.506   8.798  0.6242 -0.5089  0.5726
   30MOL0     C 3959   9.869   1.399   8.891 -0.6724  0.1345 -0.2742
   30MOL0    Cl 3960   9.892   1.446   9.057  0.2134  0.1451  0.1731
   30MOL0     C 3961   9.575   2.028   8.760  0.0887  0.0609  0.2453
   30MOL0     C 3962   9.474   2.116   8.780 -0.0663 -0.0641  1.5803
   30MOL0     O 3963   9.357   2.417   8.745 -0.0113  0.2597 -0.6790
   30MOL0     C 3964   9.213   2.473   9.060 -0.0063 -0.8606 -0.4909
   30MOL0     C 3965   9.116   2.551   9.129  0.2000  0.5358  0.8351
   30MOL0     N 3966   8.270   2.656   8.878  0.2389  0.2657 -0.1315
   30MOL0     N 3967   8.174   2.749   8.888  0.2573  0.3767  0.3492
   30MOL0     C 3968   8.076   2.008   9.259 -0.1924  0.0222  0.1223
   30MOL0     C 3969   8.173   1.911   9.284 -0.0564  0.8616 -0.0080
   30MOL0     C 3970   8.428   1.613   9.456  0.8991  0.0135 -0.0527
   30MOL0     C 3971   8.381   1.480   9.453 -0.4968 -0.8527  0.5926
   30MOL0     C 3972   8.468   1.372   9.445 -0.4967 -0.3899  0.5680
   30MOL0     C 3973   8.607   1.396   9.448  0.4812 -0.3724 -0.7341
   30MOL0     O 3974   8.689   1.283   9.451 -0.4206 -0.7200  0.6473
   30MOL0     C 3975   8.826   1.305   9.430  0.0627  0.6615  0.0684
   30MOL0     C 3976   8.902   1.165   9.446 -0.0016 -0.4726  1.0399
   30MOL0     C 3977   8.886   1.073   9.325 -0.1766  0.8291 -0.2543
   30MOL0     C 3978   8.750   1.015   9.321  0.5333 -0.4658  0.3526
   30MOL0     C 3979   8.703   0.937   9.437 -0.4568  0.2460 -0.0510
   30MOL0     C 3980   8.674   0.872   9.536  0.2257  1.1090  0.2242
   30MOL0     C 3981   8.654   1.527   9.458 -0.3600 -0.1132 -0.1336
   30MOL0     C 3982   8.565   1.640   9.460  0.6778  0.4385 -0.4442
   30MOL0     H 3983   8.332   2.069   9.549 -2.3668 -3.2201  3.1593
   30MOL0     H 3984   8.176   2.244   9.484  0.6104 -0.3587  0.9888
   30MOL0     H 3985   8.129   2.347   9.236  0.9906 -1.9959  0.9163
   30MOL0     H 3986   7.990   2.292   9.131 -1.0502 -3.1933  2.1562
   30MOL0     H 3987   7.835   2.442   9.250 -0.5802  2.9508  1.4993
   30MOL0     H 3988   7.963   2.464   9.374 -0.5113  0.2791  0.9571
   30MOL0     H 3989   8.095   2.584   9.211 -0.2388 -0.4122 -1.8945
   30MOL0     H 3990   7.984   2.558   9.091 -1.9224 -1.8591  0.8936
   30MOL0     H 3991   7.802   2.667   9.211 -1.0681 -1.2920  1.7765
   30MOL0     H 3992   7.892   2.701   9.357  1.1552 -3.3923  0.3313
   30MOL0     H 3993   7.942   2.816   9.063 -1.7525  1.7019  0.9074
   30MOL0     H 3994   7.879   2.907   9.198 -2.2114 -0.5647 -2.7030
   30MOL0     H 3995   8.084   2.880   9.318 -2.4903 -2.2422 -0.3966
   30MOL0     H 3996   8.158   2.787   9.186 -3.7916 -3.5240 -1.1754
   30MOL0     H 3997   8.074   3.088   9.166 -0.1961 -0.8848  1.6005
   30MOL0     H 3998   8.233   3.030   9.176 -1.1468  3.6468  0.3941
   30MOL0     H 3999   8.180   3.080   8.953 -0.6433 -0.2660 -1.3151
   30MOL0     H 4000   8.046   2.976   8.945 -1.5027  1.9273 -0.4633
   30MOL0     H 4001   8.429   2.905   9.019 -0.3414  0.1468  0.4936
   30MOL0     H 4002   8.472   2.520   8.948  1.3022 -0.5395  1.7368
   30MOL0     H 4003   8.552   2.634   8.838  1.2563  0.9362  1.4051
   30MOL0     H 4004   8.561   2.689   9.125  0.9764 -3.0118  1.6946
   30MOL0     H 4005   8.691   2.743   9.006 -0.3168 -0.2491 -2.5951
   30MOL0     H 4006   8.769   2.503   8.993  0.5767  0.1391 -0.9412
   30MOL0     H 4007   8.632   2.469   9.098 -3.4098  3.0234 -0.8963
   30MOL0     H 4008   8.860   2.481   9.216  1.4583  0.5596  0.7884
   30MOL0     H 4009   8.765   2.616   9.267  0.2593  0.7054  0.2160
   30MOL0     H 4010   8.921   2.626   8.858  0.2680  3.4739  1.1895
   30MOL0     H 4011   8.993   2.441   8.661 -2.2427  1.6738  0.3790
   30MOL0     H 4012   9.030   2.602   8.666  1.1265 -0.0108  1.9611
   30MOL0     H 4013   9.160   2.483   8.636  1.9177 -2.7186  1.0225
   30MOL0     H 4014   9.618   2.286   9.026  0.2781  1.7207 -2.4343
   30MOL0     H 4015   9.812   2.140   8.981  0.3685  1.7139 -1.8523
   30MOL0     H 4016   9.870   1.933   8.608 -1.2144 -0.1392  0.1632
   30MOL0     H 4017   9.870   2.101   8.669  1.2705  0.6133  2.1045
   30MOL0     H 4018  10.098   2.009   8.635  1.0071 -3.3053  0.3223
   30MOL0     H 4019  10.052   2.063   8.809 -1.7159  2.5012 -1.2055
   30MOL0     H 4020  10.007   1.836   8.856  0.4716  0.7664  1.3528
   30MOL0     H 4021  10.185   1.867   8.816  0.8277 -2.5665 -0.8235
   30MOL0     H 4022   9.973   1.735   8.638  0.9712  0.6119 -1.2066
   30MOL0     H 4023  10.129   1.778   8.579  1.0588  0.1816  0.2214
   30MOL0     H 4024  10.248   1.631   8.756  1.0447  0.5974 -1.4100
   30MOL0     H 4025  10.167   1.545   8.633 -3.2290 -0.3534 -0.7719
   30MOL0     H 4026  10.129   1.460   8.853  0.7561 -0.6715 -2.2905
   30MOL0     H 4027  10.074   1.603   8.920  1.1195  1.2792 -1.1736
   30MOL0     H 4028   9.920   1.463   8.697 -2.1696 -2.8761  1.5137
   30MOL0     H 4029   9.861   1.596   8.794  3.3754  1.5035  0.3058
   30MOL0     H 4030   9.931   1.310   8.876 -2.0370 -0.4391 -2.9344
   30MOL0     H 4031   9.763   1.382   8.872 -0.5696 -1.1344  0.2102
   30MOL0     H 4032   9.569   1.946   8.688 -1.0644  1.0029 -0.7808
   30MOL0     H 4033   9.387   2.092   8.719  2.5235 -1.6780 -1.7681
   30MOL0     H 4034   9.281   2.426   9.131  0.7690 -0.0329 -0.6609
   30MOL0     H 4035   9.113   2.573   9.235 -3.2937 -1.3869  1.2908
   30MOL0     H 4036   7.997   2.001   9.186 -1.2221  0.5835  1.1576
   30MOL0     H 4037   8.172   1.819   9.226  3.6013  0.1659  0.7705
   30MOL0     H 4038   8.276   1.469   9.431 -0.6623  2.5241 -0.9032
   30MOL0     H 4039   8.434   1.270   9.434 -0.4654 -0.1561 -5.2904
   30MOL0     H 4040   8.843   1.344   9.329  0.0590 -0.8832 -0.5592
   30MOL0     H 4041   8.866   1.374   9.504  0.1613 -0.5121  1.1519
   30MOL0     H 4042   8.858   1.117   9.534 -1.2242 -0.6496  0.3582
   30MOL0     H 4043   9.011   1.171   9.454  0.3676  0.3703 -2.7474
   30MOL0     H 4044   8.957   0.990   9.340 -1.7518 -0.2963  1.3031
   30MOL0     H 4045   8.905   1.112   9.224  1.5784 -0.6066 -0.5385
   30MOL0     H 4046   8.753   0.944   9.238  0.5768  1.9670 -1.8721
   30MOL0     H 4047   8.667   1.081   9.295  0.2416 -1.4712 -1.4794
   30MOL0     H 4048   8.643   0.804   9.612 -1.0544  0.1629 -1.0838
   30MOL0     H 4049   8.760   1.553   9.457  0.3483 -2.5132  1.9369
   30MOL0     H 4050   8.605   1.741   9.472 -1.1251  1.0604  0.9037
   31MOL0     O 4051   9.516   9.768   0.175 -0.3888  0.7949 -0.4115
   31MOL0     C 4052   9.566   9.822   0.278 -0.5851  0.2274 -0.3339
   31MOL0     O 4053   9.567   9.953   0.300 -0.4822  0.7781  0.1649
   31MOL0     C 4054   9.502  10.041   0.210  0.0326  0.3388 -0.4659
   31MOL0     C 4055   9.380  10.021   0.157  1.0048  0.2032 -0.0512
   31MOL0     C 4056   9.322  10.119   0.081  0.3301  0.1964  0.7549
   31MOL0     C 4057   9.390  10.236   0.054  0.6184 -0.2496  0.8233
   31MOL0     O 4058   9.317  10.326  -0.023 -0.4413  0.0667 -1.1465
   31MOL0     C 4059   9.386  10.431  -0.092  0.0907 -0.3305 -0.0971
   31MOL0     C 4060   9.295  10.496  -0.194  0.5287 -0.1977  0.1991
   31MOL0     C 4061   9.264  10.399  -0.306 -0.0090  0.5501 -0.3407
   31MOL0     C 4062   9.149  10.438  -0.404  0.9627 -0.0044  0.5096
   31MOL0     C 4063   9.130  10.321  -0.508 -0.5980 -0.2824  1.0181
   31MOL0     C 4064   9.051  10.207  -0.447  0.6203 -0.5847  0.3603
   31MOL0     C 4065   9.019  10.095  -0.535  0.7126  0.8947 -0.3555
   31MOL0     C 4066   9.131   9.996  -0.569  0.1734 -0.1133  0.7921
   31MOL0     N 4067   9.200   9.925  -0.458  0.0874  0.0893  0.0495
   31MOL0     C 4068   9.284   9.976  -0.355  0.4345  0.3694 -0.0858
   31MOL0     C 4069   9.327   9.862  -0.291 -0.4084 -0.0954 -0.2268
   31MOL0     C 4070   9.424   9.852  -0.181 -1.0753  0.6292 -0.9555
   31MOL0     C 4071   9.520   9.735  -0.190  0.1395  1.1232 -0.3265
   31MOL0     C 4072   9.641   9.745  -0.284  0.1670  0.8873  0.9266
   31MOL0     C 4073   9.607   9.764  -0.435  0.2919 -0.6844  0.3723
   31MOL0     O 4074   9.739   9.778  -0.487  0.1602 -0.2486 -0.3566
   31MOL0     C 4075   9.754   9.750  -0.619 -0.2829 -0.0783 -1.1358
   31MOL0     C 4076   9.808   9.634  -0.666 -0.5447  0.0445  0.6552
   31MOL0     C 4077   9.840   9.606  -0.805  0.0809  0.3343  0.2303
   31MOL0     C 4078   9.895   9.466  -0.845  0.0248 -0.3379 -0.3398
   31MOL0     C 4079   9.819   9.708  -0.900  0.4593  0.9145  0.0344
   31MOL0     C 4080   9.868   9.704  -1.043 -0.2854 -0.0180 -0.7600
   31MOL0     O 4081   9.902   9.823  -1.097  0.2103 -0.0661  0.8128
   31MOL0     C 4082   9.953   9.814  -1.232  0.1582 -0.1851 -1.4343
   31MOL0     C 4083   9.861   9.838  -1.331 -0.1537  0.5238 -0.4532
   31MOL0     C 4084   9.892   9.830  -1.465  0.1448  0.3087  0.1507
   31MOL0     C 4085  10.023   9.799  -1.500 -0.1860 -0.8260  0.5770
   31MOL0     O 4086  10.039   9.799  -1.639 -0.0727  0.9214 -0.2402
   31MOL0     C 4087  10.173   9.820  -1.687 -0.4258 -0.0684 -0.1262
   31MOL0     C 4088  10.165   9.815  -1.841 -0.7077  0.5621 -0.4846
   31MOL0     C 4089  10.301   9.878  -1.915  0.0347 -0.2797  0.5697
   31MOL0     C 4090  10.438   9.811  -1.883 -0.7311 -0.5772  0.0319
   31MOL0     C 4091  10.545   9.854  -1.981 -0.0762  0.2170  0.1257
   31MOL0     C 4092  10.553   9.761  -2.098  0.2549 -0.4342 -0.4958
   31MOL0     C 4093  10.668   9.784  -2.182  0.2156 -0.3468  0.4822
   31MOL0     C 4094  10.647   9.711  -2.327 -0.0543 -0.0879 -0.4978
   31MOL0    Cl 4095  10.612   9.539  -2.287  0.1081 -0.4411 -0.1388
   31MOL0     C 4096  10.124   9.784  -1.401  0.4271 -0.6656  0.0602
   31MOL0     C 4097  10.090   9.782  -1.263  0.4953 -0.4904  0.0296
   31MOL0     O 4098   9.887   9.595  -1.092 -0.0033  0.8037 -0.2842
   31MOL0     C 4099   9.762   9.831  -0.853  0.0306  0.6362 -0.2735
   31MOL0     C 4100   9.732   9.846  -0.718 -0.2014 -0.1254 -0.2953
   31MOL0     N 4101   9.268   9.745  -0.355  0.0041  0.3360 -0.8298
   31MOL0     N 4102   9.195   9.787  -0.448 -0.6013  0.3300  0.2355
   31MOL0     C 4103   9.515  10.259   0.111 -0.2399  0.0084  0.3758
   31MOL0     C 4104   9.570  10.153   0.185 -1.0126 -1.2513 -0.4363
   31MOL0     C 4105   9.613   9.748   0.403  0.1040 -0.0629 -0.5440
   31MOL0     C 4106   9.590   9.612   0.403  0.6727 -0.5794  0.0061
   31MOL0     C 4107   9.621   9.536   0.516  1.1615  0.4891  0.9527
   31MOL0     C 4108   9.701   9.595   0.623 -0.1818 -0.6938  0.7751
   31MOL0     O 4109   9.755   9.536   0.732  0.1510  0.7682  0.1739
   31MOL0     C 4110   9.756   9.396   0.727 -0.3573  0.1722 -0.0432
   31MOL0     C 4111   9.834   9.350   0.848 -0.1439  0.6332  0.1834
   31MOL0     C 4112   9.986   9.339   0.819  0.1218 -0.2605 -0.3835
   31MOL0     C 4113  10.066   9.257   0.927  0.0485  0.1044 -0.0959
   31MOL0     C 4114  10.044   9.117   0.922 -0.9550  0.1973  0.1460
   31MOL0     C 4115  10.033   8.998   0.927  1.4168  0.8538 -0.6822
   31MOL0     C 4116   9.732   9.733   0.612 -0.5894 -0.5233 -0.5192
   31MOL0     C 4117   9.689   9.807   0.500  0.9296 -0.7442 -0.4016
   31MOL0     H 4118   9.329   9.925   0.165 -4.2703  2.4942 -1.4168
   31MOL0     H 4119   9.226  10.102   0.033  0.9893  1.0988 -0.9634
   31MOL0     H 4120   9.423  10.496  -0.012  0.7420 -1.2854  0.4064
   31MOL0     H 4121   9.464  10.378  -0.147  1.6267  0.1206  1.5357
   31MOL0     H 4122   9.203  10.533  -0.148  1.3619  1.9670  0.2639
   31MOL0     H 4123   9.341  10.590  -0.227 -0.4668  0.2851  0.1649
   31MOL0     H 4124   9.351  10.375  -0.368  2.6277  3.5039  1.9166
   31MOL0     H 4125   9.233  10.301  -0.267 -0.8529  0.9836  0.1163
   31MOL0     H 4126   9.057  10.458  -0.348  1.4289 -2.8815  2.5910
   31MOL0     H 4127   9.181  10.529  -0.455  4.2375  0.3586  2.8755
   31MOL0     H 4128   9.074  10.366  -0.592 -0.5894 -0.2727  1.0176
   31MOL0     H 4129   9.228  10.284  -0.538  1.7996  2.5443  4.5564
   31MOL0     H 4130   9.095  10.184  -0.349 -0.8720  3.1926  2.1334
   31MOL0     H 4131   8.962  10.252  -0.402  1.3834  0.8594  0.5036
   31MOL0     H 4132   8.939  10.038  -0.486  1.0618  2.0691  1.7182
   31MOL0     H 4133   8.972  10.136  -0.625 -0.2196  0.2335 -0.1907
   31MOL0     H 4134   9.206  10.046  -0.631 -0.1549 -0.2185  0.3008
   31MOL0     H 4135   9.085   9.927  -0.641 -0.1945  2.7854 -1.9652
   31MOL0     H 4136   9.298  10.076  -0.315  3.6646 -1.0403  2.7463
   31MOL0     H 4137   9.485   9.942  -0.177  1.3812 -0.9788  0.0566
   31MOL0     H 4138   9.370   9.835  -0.087  0.5660  0.6218  0.0236
   31MOL0     H 4139   9.460   9.649  -0.219 -1.3010  2.0370 -0.1943
   31MOL0     H 4140   9.565   9.713  -0.093  0.3944 -2.0493 -1.0675
   31MOL0     H 4141   9.702   9.658  -0.257  0.9095  0.6723 -1.2054
   31MOL0     H 4142   9.707   9.827  -0.255 -0.1501  1.4362  0.1416
   31MOL0     H 4143   9.550   9.856  -0.449  2.5885  1.0893  1.9318
   31MOL0     H 4144   9.558   9.675  -0.475  0.8375 -0.6953 -0.2913
   31MOL0     H 4145   9.823   9.559  -0.589  1.7087 -1.1590 -0.8506
   31MOL0     H 4146   9.825   9.425  -0.918  1.2307  1.2390 -2.4822
   31MOL0     H 4147   9.993   9.482  -0.890  0.4382  1.7239  1.1117
   31MOL0     H 4148   9.903   9.397  -0.760 -0.7815  0.7319  0.6498
   31MOL0     H 4149   9.760   9.840  -1.293 -0.4734 -1.0003 -1.1359
   31MOL0     H 4150   9.810   9.855  -1.531 -0.3707 -2.5904 -0.4549
   31MOL0     H 4151  10.212   9.919  -1.661 -1.1032  0.4592 -1.0548
   31MOL0     H 4152  10.241   9.743  -1.650 -0.0065  0.3256 -0.0695
   31MOL0     H 4153  10.166   9.710  -1.871  0.6982 -0.0055  1.3803
   31MOL0     H 4154  10.076   9.866  -1.878  0.5615  2.2574 -1.3977
   31MOL0     H 4155  10.300   9.985  -1.895 -2.5220 -0.1247 -0.1043
   31MOL0     H 4156  10.283   9.870  -2.023  0.1408 -0.6927  0.5795
   31MOL0     H 4157  10.474   9.854  -1.789  0.5039  0.7751 -1.0035
   31MOL0     H 4158  10.416   9.705  -1.869 -4.4161  0.3470  2.8442
   31MOL0     H 4159  10.640   9.865  -1.929 -0.9784  1.3209  1.6534
   31MOL0     H 4160  10.531   9.951  -2.030 -0.9190 -0.1537 -0.4041
   31MOL0     H 4161  10.577   9.661  -2.059  2.5231 -0.2134 -1.1756
   31MOL0     H 4162  10.460   9.774  -2.155  0.5568  1.1396 -0.6613
   31MOL0     H 4163  10.752   9.732  -2.135  0.4304  0.4404  0.9951
   31MOL0     H 4164  10.697   9.889  -2.196  1.0912 -0.8633 -2.0891
   31MOL0     H 4165  10.741   9.711  -2.382  0.8207  0.0417  0.9386
   31MOL0     H 4166  10.566   9.763  -2.380 -2.3319 -1.0991  1.7605
   31MOL0     H 4167  10.224   9.763  -1.436  0.5861 -0.7638  0.5593
   31MOL0     H 4168  10.158   9.757  -1.182 -0.1770 -0.8615  0.4892
   31MOL0     H 4169   9.759   9.919  -0.917  0.9067  1.2640  0.5242
   31MOL0     H 4170   9.714   9.945  -0.677 -0.0701 -1.0540  2.1507
   31MOL0     H 4171   9.581  10.342   0.087  1.5371 -1.8606 -1.6053
   31MOL0     H 4172   9.668  10.169   0.228 -1.1412 -1.5974 -0.0108
   31MOL0     H 4173   9.532   9.560   0.327  2.8526  0.3578 -2.4377
   31MOL0     H 4174   9.594   9.431   0.523 -3.0509  1.4979  3.0890
   31MOL0     H 4175   9.652   9.362   0.736  0.2101 -1.3804  1.0461
   31MOL0     H 4176   9.807   9.364   0.635  0.5677  0.5240  0.3366
   31MOL0     H 4177   9.800   9.251   0.880 -0.3164  0.9067  0.8860
   31MOL0     H 4178   9.821   9.425   0.927 -1.4823  0.0149  0.5821
   31MOL0     H 4179  10.027   9.440   0.817  0.5300 -0.4275 -0.5522
   31MOL0     H 4180  10.008   9.286   0.726  4.5099 -1.1556  0.9339
   31MOL0     H 4181  10.012   9.284   1.019  0.5856 -1.2090  0.6382
   31MOL0     H 4182  10.170   9.291   0.931 -0.9337  3.5639 -0.1816
   31MOL0     H 4183  10.037   8.892   0.913  0.9984  0.6931  0.3218
   31MOL0     H 4184   9.795   9.770   0.693 -0.9814  0.3461 -0.6057
   31MOL0     H 4185   9.729   9.907   0.483 -4.0205  1.6040 -0.0960
   32MOL0     O 4186   8.907   6.128   8.397  0.1922 -0.0191 -0.2160
   32MOL0     C 4187   9.016   6.162   8.345 -0.1784  0.2093 -0.5277
   32MOL0     O 4188   9.109   6.249   8.401  0.1352  0.4839 -0.0893
   32MOL0     C 4189   9.100   6.282   8.535 -0.0946 -0.4494 -0.8172
   32MOL0     C 4190   9.210   6.257   8.627 -0.1359 -0.0829  0.2108
   32MOL0     C 4191   9.193   6.301   8.759  0.2978 -0.0063 -0.4591
   32MOL0     C 4192   9.090   6.388   8.797  0.4907 -0.2251 -0.7458
   32MOL0     O 4193   9.072   6.438   8.923 -0.0407 -0.5092 -0.7290
   32MOL0     C 4194   8.992   6.366   9.011  0.2272  0.1551  0.2146
   32MOL0     C 4195   8.907   6.474   9.091  0.0101 -0.3148  0.0048
   32MOL0     C 4196   8.965   6.489   9.241  0.8883  0.1490 -0.7234
   32MOL0     C 4197   8.892   6.581   9.338  0.0024  0.3271 -0.5660
   32MOL0     C 4198   8.795   6.502   9.430  0.7475 -0.1085  0.0145
   32MOL0     C 4199   8.727   6.596   9.531  0.0362  0.5114  0.0507
   32MOL0     C 4200   8.582   6.563   9.564  0.0338 -0.5343  0.4510
   32MOL0     C 4201   8.549   6.423   9.610  0.1216 -0.4039  0.0191
   32MOL0     N 4202   8.624   6.391   9.731  0.9426  0.9829  0.2339
   32MOL0     C 4203   8.596   6.445   9.854 -0.3157 -0.5114 -0.0123
   32MOL0     C 4204   8.707   6.410   9.921  0.4504 -0.1353  0.1186
   32MOL0     C 4205   8.731   6.450  10.070 -0.2572  0.0262  0.3743
   32MOL0     C 4206   8.730   6.326  10.162  0.1893 -0.0124  0.3522
   32MOL0     C 4207   8.590   6.265  10.175 -0.5004  0.3121  0.0844
   32MOL0     C 4208   8.478   6.357  10.229 -0.7718  0.2540  1.5626
   32MOL0     O 4209   8.424   6.433  10.120  0.3155 -0.2016  0.1053
   32MOL0     C 4210   8.305   6.507  10.156 -1.0452 -0.1098  0.3853
   32MOL0     C 4211   8.266   6.566  10.281  0.2867  0.1980  0.2437
   32MOL0     C 4212   8.146   6.630  10.297  0.6784  0.0679 -1.2230
   32MOL0     C 4213   8.112   6.684  10.431  0.3914 -0.6854  0.3555
   32MOL0     C 4214   8.059   6.654  10.185 -0.5600 -0.1665 -0.4859
   32MOL0     C 4215   7.937   6.741  10.186 -0.7379 -0.1058  1.7517
   32MOL0     O 4216   7.878   6.768  10.068  0.1451 -0.3411  0.0299
   32MOL0     C 4217   7.757   6.831  10.088 -0.1739  0.1577  0.2851
   32MOL0     C 4218   7.764   6.973  10.082 -0.2730  1.2640  1.0041
   32MOL0     C 4219   7.648   7.041  10.085 -0.6712 -0.1994 -0.5495
   32MOL0     C 4220   7.527   6.983  10.110 -0.1516  0.0934 -0.4014
   32MOL0     O 4221   7.410   7.051  10.131  0.0223 -1.1839  0.4702
   32MOL0     C 4222   7.374   7.054  10.273  0.1408 -0.3276 -0.1866
   32MOL0     C 4223   7.254   7.165  10.297 -1.0031 -0.2760 -0.2690
   32MOL0     C 4224   7.124   7.135  10.225  0.3285  1.1806  0.5334
   32MOL0     C 4225   7.026   7.236  10.281  0.0465  0.3664  0.3686
   32MOL0     C 4226   6.896   7.254  10.189 -0.8837 -0.0338 -0.4686
   32MOL0     C 4227   6.830   7.392  10.220 -0.3925 -0.4109 -0.5007
   32MOL0     C 4228   6.679   7.383  10.184 -0.5467 -0.7384 -0.4284
   32MOL0     C 4229   6.616   7.533  10.209 -0.5726  0.5467  0.0582
   32MOL0    Cl 4230   6.453   7.555  10.119  0.1214 -0.3511 -0.0551
   32MOL0     C 4231   7.522   6.843  10.115 -0.1503 -0.1560  0.1626
   32MOL0     C 4232   7.635   6.768  10.093 -0.4624  0.3403 -0.4224
   32MOL0     O 4233   7.912   6.796  10.294 -0.1215 -0.8752 -0.4534
   32MOL0     C 4234   8.096   6.598  10.067 -0.8908 -0.0066 -0.6234
   32MOL0     C 4235   8.218   6.528  10.054  0.9196  0.2397 -0.1756
   32MOL0     N 4236   8.786   6.330   9.846  0.2272 -0.2458 -0.7888
   32MOL0     N 4237   8.734   6.326   9.726 -0.2493 -0.2451 -0.2303
   32MOL0     C 4238   8.986   6.410   8.706 -0.9657 -0.6653 -0.0029
   32MOL0     C 4239   8.991   6.354   8.581 -0.2255  0.8358 -1.0492
   32MOL0     C 4240   9.056   6.100   8.218  0.2133  2.3293 -0.0539
   32MOL0     C 4241   8.995   5.982   8.171 -0.1864  0.1378  0.5015
   32MOL0     C 4242   9.031   5.926   8.046  0.6549 -1.6089 -0.2334
   32MOL0     C 4243   9.133   5.983   7.966 -1.0349  0.1373  0.3563
   32MOL0     O 4244   9.167   5.919   7.845 -0.3156  0.0031  0.4076
   32MOL0     C 4245   9.305   5.923   7.808 -0.3300  0.7882 -1.4328
   32MOL0     C 4246   9.324   5.844   7.678 -0.5658 -0.6119  0.0499
   32MOL0     C 4247   9.325   5.690   7.693 -0.7911 -0.2281 -1.0486
   32MOL0     C 4248   9.369   5.619   7.566 -0.3350 -0.5412  0.1219
   32MOL0     C 4249   9.285   5.640   7.450  0.3576 -0.7194 -0.1792
   32MOL0     C 4250   9.200   5.670   7.362 -0.6964  0.0392  0.1074
   32MOL0     C 4251   9.197   6.107   8.016 -0.7256  0.2182  1.1528
   32MOL0     C 4252   9.152   6.165   8.136  0.6496  0.4465 -0.2111
   32MOL0     H 4253   9.303   6.212   8.594  0.5855  3.4172 -3.2318
   32MOL0     H 4254   9.268   6.279   8.834 -1.2594 -0.9759  0.9058
   32MOL0     H 4255   8.925   6.302   8.953  0.7833  1.6286 -2.2116
   32MOL0     H 4256   9.044   6.299   9.080 -1.7904 -0.5356  1.1617
   32MOL0     H 4257   8.902   6.574   9.047 -2.3022 -1.4387 -2.6100
   32MOL0     H 4258   8.803   6.441   9.084 -0.4503  1.0926 -0.0717
   32MOL0     H 4259   8.958   6.391   9.288 -0.8654  0.7723  0.4284
   32MOL0     H 4260   9.071   6.514   9.235  0.9841 -0.5700 -3.2148
   32MOL0     H 4261   8.959   6.628   9.410 -2.2728  2.1136  0.5143
   32MOL0     H 4262   8.839   6.664   9.291  1.8826  3.3585  2.2184
   32MOL0     H 4263   8.722   6.460   9.360  1.9874  0.0581 -1.4130
   32MOL0     H 4264   8.840   6.420   9.486 -1.8520 -0.5668  1.6465
   32MOL0     H 4265   8.776   6.584   9.629 -0.9575 -0.7038  0.4218
   32MOL0     H 4266   8.727   6.703   9.510 -2.4821  1.1732  2.6939
   32MOL0     H 4267   8.549   6.632   9.642  1.8418 -0.4394  1.1841
   32MOL0     H 4268   8.511   6.584   9.483 -1.2548 -0.4751  1.5605
   32MOL0     H 4269   8.568   6.354   9.528 -0.4759 -0.5360 -0.0139
   32MOL0     H 4270   8.442   6.412   9.631 -0.6730 -0.7540 -3.6257
   32MOL0     H 4271   8.515   6.502   9.900  1.6463  1.2370  1.4678
   32MOL0     H 4272   8.828   6.501  10.072 -0.5206  0.8130 -2.4643
   32MOL0     H 4273   8.654   6.522  10.099  0.2543  0.7716 -0.1024
   32MOL0     H 4274   8.771   6.364  10.256 -0.3607  0.5500  0.3781
   32MOL0     H 4275   8.791   6.247  10.118  1.5037 -0.2642  2.5332
   32MOL0     H 4276   8.599   6.180  10.243  1.8150  0.1072 -0.3861
   32MOL0     H 4277   8.553   6.231  10.077 -0.7323  2.3060 -0.5667
   32MOL0     H 4278   8.512   6.424  10.309  1.4216 -3.0365  3.6445
   32MOL0     H 4279   8.392   6.296  10.258 -1.2507  0.4708  0.6380
   32MOL0     H 4280   8.347   6.564  10.355  1.9031  1.6232 -1.3880
   32MOL0     H 4281   8.183   6.657  10.509 -0.7548  1.0504  2.1042
   32MOL0     H 4282   8.097   6.793  10.434 -3.1289 -1.0283 -0.3136
   32MOL0     H 4283   8.013   6.652  10.465  0.5486 -0.8662  0.6443
   32MOL0     H 4284   7.860   7.016  10.057 -1.9326  3.7737 -1.8133
   32MOL0     H 4285   7.642   7.149  10.092  1.0940  0.3125 -4.2417
   32MOL0     H 4286   7.348   6.952  10.303 -0.5544  0.7739  3.4206
   32MOL0     H 4287   7.459   7.096  10.327 -0.0396  0.8573 -0.8035
   32MOL0     H 4288   7.236   7.179  10.404 -3.2643  0.0891 -0.6575
   32MOL0     H 4289   7.304   7.258  10.266 -0.6221  1.2257  4.1829
   32MOL0     H 4290   7.091   7.032  10.243  1.1036  0.8382  0.0814
   32MOL0     H 4291   7.135   7.153  10.117 -1.4456  2.7785  0.5729
   32MOL0     H 4292   7.001   7.212  10.385  0.6807  3.3575  1.3114
   32MOL0     H 4293   7.082   7.328  10.300 -3.2396  2.7467 -0.4926
   32MOL0     H 4294   6.825   7.172  10.207 -1.0893  0.5602  1.7507
   32MOL0     H 4295   6.932   7.260  10.086 -2.0182  2.3600 -0.8006
   32MOL0     H 4296   6.841   7.414  10.326 -1.5414 -5.3794  0.9002
   32MOL0     H 4297   6.883   7.474  10.169 -0.9602  1.2099  1.3871
   32MOL0     H 4298   6.632   7.294  10.229 -1.0574 -0.0615  0.4126
   32MOL0     H 4299   6.679   7.362  10.077  5.0490 -1.5095 -0.5564
   32MOL0     H 4300   6.678   7.608  10.158 -0.0886 -0.1176 -0.3451
   32MOL0     H 4301   6.610   7.566  10.313 -0.1006  1.4951 -0.1994
   32MOL0     H 4302   7.421   6.805  10.129 -1.7311  1.9593 -3.8757
   32MOL0     H 4303   7.631   6.660  10.090 -0.1148  0.2885  0.6509
   32MOL0     H 4304   8.041   6.622   9.976 -1.1649  2.0764  0.0423
   32MOL0     H 4305   8.231   6.474   9.960  1.1718 -0.3151  0.1717
   32MOL0     H 4306   8.896   6.468   8.727  0.2286  1.2200  0.1920
   32MOL0     H 4307   8.901   6.360   8.520 -0.3669  2.3313 -0.7465
   32MOL0     H 4308   8.913   5.937   8.228  0.6751 -1.1439  0.7799
   32MOL0     H 4309   8.973   5.852   7.992 -0.2004 -0.2836 -1.1843
   32MOL0     H 4310   9.334   6.026   7.786  0.9658  0.8312  0.2235
   32MOL0     H 4311   9.375   5.887   7.885 -1.4357  3.7802  1.2275
   32MOL0     H 4312   9.417   5.881   7.634 -1.8323  1.1782 -1.2248
   32MOL0     H 4313   9.249   5.865   7.602  0.4386  0.6504 -0.6137
   32MOL0     H 4314   9.227   5.657   7.728 -0.4360 -2.6991 -2.1315
   32MOL0     H 4315   9.399   5.663   7.769 -2.7367 -0.2414  0.9454
   32MOL0     H 4316   9.360   5.510   7.574  2.2888 -0.8521 -0.0935
   32MOL0     H 4317   9.471   5.650   7.538 -0.0051  0.1792  1.9968
   32MOL0     H 4318   9.148   5.695   7.272  2.4837  1.2076 -1.5725
   32MOL0     H 4319   9.263   6.171   7.958 -0.7725  0.1548  1.0290
   32MOL0     H 4320   9.195   6.257   8.175 -0.0157 -0.5758  3.2388
   33MOL0     O 4321   2.830  10.189  10.955  0.6407 -0.7563  0.3403
   33MOL0     C 4322   2.847  10.119  10.849  0.3272  0.1070 -0.5454
   33MOL0     O 4323   2.757  10.026  10.798  0.1310 -0.6404 -0.4774
   33MOL0     C 4324   2.632  10.004  10.857  0.0139 -0.0217 -0.9295
   33MOL0     C 4325   2.550  10.097  10.922 -0.2623 -1.2718  0.1762
   33MOL0     C 4326   2.419  10.063  10.964  0.5379  0.7609  0.7144
   33MOL0     C 4327   2.378   9.927  10.953  0.5371 -0.6366  0.2516
   33MOL0     O 4328   2.252   9.885  10.977  0.5414 -0.0020 -0.2248
   33MOL0     C 4329   2.246   9.793  11.095 -0.8193 -0.3759  0.7452
   33MOL0     C 4330   2.126   9.710  11.094  0.4009  0.1572 -0.2909
   33MOL0     C 4331   2.094   9.667  10.956  0.2038 -1.2810  0.5769
   33MOL0     C 4332   1.997   9.552  10.943 -0.0645 -0.9598 -0.6032
   33MOL0     C 4333   1.967   9.507  10.800  0.2460 -0.0186 -0.8230
   33MOL0     C 4334   1.894   9.603  10.708  1.0391 -0.0963  0.3283
   33MOL0     C 4335   1.737   9.609  10.730 -0.8345 -0.1833 -0.6359
   33MOL0     C 4336   1.659   9.711  10.650  1.3553 -0.6255  0.2714
   33MOL0     N 4337   1.689   9.854  10.692 -0.5301 -0.3409 -0.5068
   33MOL0     C 4338   1.798   9.929  10.647 -0.3972 -0.7478  0.4782
   33MOL0     C 4339   1.801  10.044  10.725  0.5210 -0.3482 -0.0778
   33MOL0     C 4340   1.890  10.165  10.724 -0.8404  0.8322 -0.0585
   33MOL0     C 4341   1.966  10.188  10.858  0.3265  0.1765  0.1661
   33MOL0     C 4342   2.066  10.296  10.866 -0.0716 -0.0168 -0.1216
   33MOL0     C 4343   2.191  10.291  10.775 -0.3203  0.0596  0.0007
   33MOL0     O 4344   2.263  10.416  10.781  0.3929 -0.2663  0.3357
   33MOL0     C 4345   2.398  10.410  10.758 -0.0847  0.2892 -0.2194
   33MOL0     C 4346   2.479  10.513  10.809  1.0303 -0.1447  0.7115
   33MOL0     C 4347   2.613  10.517  10.786  0.3433  0.1377  0.3847
   33MOL0     C 4348   2.687  10.648  10.827 -0.1603  0.0485 -0.1021
   33MOL0     C 4349   2.668  10.420  10.696 -0.1316 -0.1926 -0.4318
   33MOL0     C 4350   2.805  10.436  10.645 -0.7739 -0.2094 -0.1945
   33MOL0     O 4351   2.898  10.522  10.699  0.0589  0.2020  0.4004
   33MOL0     C 4352   3.031  10.531  10.660 -0.1282  0.1214  0.4258
   33MOL0     C 4353   3.116  10.603  10.749 -0.2773  0.3585  0.2619
   33MOL0     C 4354   3.250  10.621  10.714 -0.0808  0.5745 -0.2200
   33MOL0     C 4355   3.298  10.573  10.598 -0.6092 -1.2378  0.7155
   33MOL0     O 4356   3.429  10.599  10.578 -0.7398 -0.0610 -0.8596
   33MOL0     C 4357   3.470  10.628  10.445 -0.3924  0.5368  0.5221
   33MOL0     C 4358   3.591  10.735  10.457  0.3261  0.5391  0.2095
   33MOL0     C 4359   3.658  10.747  10.324  0.6922  0.0922 -0.5039
   33MOL0     C 4360   3.766  10.858  10.324  1.0086  0.4017  0.1374
   33MOL0     C 4361   3.766  10.918  10.180 -0.0772 -1.2781  0.3468
   33MOL0     C 4362   3.893  11.003  10.173  0.0673  0.2948 -0.1860
   33MOL0     C 4363   3.901  11.091  10.044  0.6464 -0.5769 -0.6785
   33MOL0     C 4364   4.030  11.177  10.041 -0.5021 -1.1557 -0.5395
   33MOL0    Cl 4365   4.060  11.279  10.182  0.2857 -0.0733 -0.0971
   33MOL0     C 4366   3.224  10.492  10.511  0.3970  0.7134 -1.5943
   33MOL0     C 4367   3.088  10.475  10.542  0.4011 -1.1208  0.0684
   33MOL0     O 4368   2.825  10.354  10.559  0.0066  0.3606  0.0292
   33MOL0     C 4369   2.584  10.313  10.648 -0.8913  0.2280  0.3602
   33MOL0     C 4370   2.447  10.313  10.680  0.4346 -0.4924  0.3388
   33MOL0     N 4371   1.691  10.025  10.813 -0.9455 -0.5193  0.3744
   33MOL0     N 4372   1.626   9.919  10.794  0.4341 -0.8026  0.1689
   33MOL0     C 4373   2.460   9.832  10.903 -0.0930 -0.6059  0.3616
   33MOL0     C 4374   2.582   9.874  10.862  0.1658 -0.2957 -0.7357
   33MOL0     C 4375   2.972  10.152  10.774 -0.4485  0.6605  0.1850
   33MOL0     C 4376   3.020  10.086  10.651  0.2896 -0.4100 -0.5598
   33MOL0     C 4377   3.146  10.112  10.602 -1.5845  0.1184 -0.3781
   33MOL0     C 4378   3.242  10.199  10.663  1.2415 -0.1640  0.2065
   33MOL0     O 4379   3.370  10.230  10.621  0.6915  0.0629  0.1258
   33MOL0     C 4380   3.411  10.175  10.498 -0.4061 -0.7619  0.3863
   33MOL0     C 4381   3.554  10.216  10.462 -0.0531  0.0818 -0.0903
   33MOL0     C 4382   3.638  10.099  10.438  0.4396 -0.0805 -0.1318
   33MOL0     C 4383   3.753  10.133  10.353  0.1355  0.0680 -0.7228
   33MOL0     C 4384   3.843  10.019  10.332  0.0730 -0.4117  0.0207
   33MOL0     C 4385   3.892   9.910  10.323 -0.6869  0.6028  0.0492
   33MOL0     C 4386   3.193  10.264  10.772  0.5224  0.5569  0.1476
   33MOL0     C 4387   3.063  10.229  10.830 -0.1308  0.0370 -0.2418
   33MOL0     H 4388   2.577  10.202  10.935  0.6914 -1.6924  1.9331
   33MOL0     H 4389   2.354  10.139  11.006 -2.6468  0.0943 -2.5835
   33MOL0     H 4390   2.337   9.733  11.092 -0.2640  0.5035 -0.9312
   33MOL0     H 4391   2.248   9.848  11.189 -0.5072 -3.5419  2.7460
   33MOL0     H 4392   2.163   9.623  11.150  4.0587  1.7133 -0.0063
   33MOL0     H 4393   2.049   9.757  11.155  0.6979 -0.3052  0.4515
   33MOL0     H 4394   2.063   9.752  10.895  1.8239 -0.9051  0.2192
   33MOL0     H 4395   2.188   9.623  10.921  0.4865  0.6526 -1.2822
   33MOL0     H 4396   2.040   9.472  11.003  1.0532  0.7629  1.0406
   33MOL0     H 4397   1.905   9.594  10.985  0.5090  0.2589 -0.5079
   33MOL0     H 4398   2.066   9.481  10.761  0.7840 -0.8798  0.9961
   33MOL0     H 4399   1.922   9.407  10.792  0.9641 -0.2523 -2.4965
   33MOL0     H 4400   1.935   9.703  10.723 -0.1755  0.7682 -1.5927
   33MOL0     H 4401   1.908   9.563  10.607 -0.6028 -1.8705  0.7502
   33MOL0     H 4402   1.700   9.507  10.712 -1.1813 -0.0071 -0.9579
   33MOL0     H 4403   1.709   9.623  10.834 -1.0867  1.3145 -0.8846
   33MOL0     H 4404   1.554   9.683  10.660  2.1151 -3.3615  1.4834
   33MOL0     H 4405   1.689   9.698  10.546  1.3265 -0.0750  0.1917
   33MOL0     H 4406   1.874   9.900  10.575 -0.5028  0.6405 -0.2210
   33MOL0     H 4407   1.964  10.157  10.645 -1.1195  0.9140 -0.3304
   33MOL0     H 4408   1.822  10.250  10.711 -0.2224  1.2287 -0.7524
   33MOL0     H 4409   2.010  10.092  10.888  1.7461  0.7663  0.0216
   33MOL0     H 4410   1.900  10.208  10.943  2.3321 -1.6451  2.3018
   33MOL0     H 4411   2.099  10.289  10.970 -0.2751 -2.9316 -0.1693
   33MOL0     H 4412   2.020  10.395  10.857  2.5443  2.0657  5.3134
   33MOL0     H 4413   2.164  10.266  10.672 -0.9848 -1.1985  0.4548
   33MOL0     H 4414   2.251  10.205  10.807  1.6131  0.7869 -1.5003
   33MOL0     H 4415   2.420  10.589  10.860 -3.3995 -2.3249 -0.6136
   33MOL0     H 4416   2.614  10.716  10.872 -1.0793  2.1586 -4.3232
   33MOL0     H 4417   2.768  10.626  10.897  0.9739 -1.8463 -1.9081
   33MOL0     H 4418   2.726  10.693  10.736  1.3239  1.9484  1.3801
   33MOL0     H 4419   3.071  10.639  10.842  0.7709 -0.6739  1.1966
   33MOL0     H 4420   3.323  10.678  10.771 -0.7875  0.4354  0.8598
   33MOL0     H 4421   3.504  10.533  10.403 -0.8160  0.6180 -0.0202
   33MOL0     H 4422   3.384  10.671  10.392  0.6896  0.0419 -1.7549
   33MOL0     H 4423   3.546  10.833  10.476 -1.3290 -0.1173 -0.0932
   33MOL0     H 4424   3.664  10.704  10.531  1.0124  0.2942 -0.5569
   33MOL0     H 4425   3.584  10.778  10.249 -0.0274  3.4371  1.3853
   33MOL0     H 4426   3.704  10.655  10.287  5.4509  1.9447  0.0291
   33MOL0     H 4427   3.727  10.948  10.373 -1.5403  0.8576 -2.3852
   33MOL0     H 4428   3.860  10.823  10.367  1.6349 -1.0829 -2.2528
   33MOL0     H 4429   3.680  10.981  10.160 -1.0983 -2.3203  1.3313
   33MOL0     H 4430   3.777  10.834  10.110 -0.3666 -1.0117 -0.0171
   33MOL0     H 4431   3.897  11.062  10.265  1.0453  0.2350 -0.1887
   33MOL0     H 4432   3.978  10.936  10.189 -1.0781 -0.4479  4.1599
   33MOL0     H 4433   3.813  11.156  10.058  1.1158 -0.4188  2.0999
   33MOL0     H 4434   3.901  11.023   9.959  1.4292 -2.4511  0.7714
   33MOL0     H 4435   4.011  11.244   9.956 -2.8257  0.8151  1.3867
   33MOL0     H 4436   4.117  11.113  10.021  1.0673  1.8942 -5.0125
   33MOL0     H 4437   3.257  10.462  10.412  1.7267 -0.3018 -0.8620
   33MOL0     H 4438   3.019  10.418  10.482 -0.6982 -1.5243  1.6397
   33MOL0     H 4439   2.623  10.239  10.579 -3.4475 -0.8798  0.0067
   33MOL0     H 4440   2.380  10.247  10.626 -0.8803  1.6859 -0.8732
   33MOL0     H 4441   2.439   9.726  10.891  1.5030 -0.9175  0.2145
   33MOL0     H 4442   2.641   9.798  10.813  0.7705 -1.0097  1.0130
   33MOL0     H 4443   2.952  10.014  10.606 -2.7351 -0.4672  3.5553
   33MOL0     H 4444   3.184  10.057  10.516  1.1334 -0.1537  0.9110
   33MOL0     H 4445   3.406  10.066  10.513  2.7157 -0.8756  1.4926
   33MOL0     H 4446   3.348  10.218  10.420  1.7858 -0.0829 -1.0923
   33MOL0     H 4447   3.603  10.282  10.534 -1.7895  1.9041 -0.5075
   33MOL0     H 4448   3.547  10.270  10.367 -1.6432 -2.9938 -1.8982
   33MOL0     H 4449   3.590  10.008  10.398 -0.9142 -0.1485  1.5253
   33MOL0     H 4450   3.678  10.079  10.538  2.1726  3.5184  0.0408
   33MOL0     H 4451   3.809  10.217  10.396 -2.2869  1.7249 -0.6075
   33MOL0     H 4452   3.735  10.154  10.247 -0.2933 -2.6448 -1.2437
   33MOL0     H 4453   3.937   9.817  10.294 -1.6166  0.3646 -0.6469
   33MOL0     H 4454   3.258  10.335  10.821  1.5310 -0.1011 -0.1778
   33MOL0     H 4455   3.038  10.278  10.923 -2.9563 -1.2139 -0.2433
   34MOL0     O 4456   5.196   5.018   4.078  0.5584 -0.4102  1.5888
   34MOL0     C 4457   5.102   5.073   4.018  0.0299  0.6600 -0.3479
   34MOL0     O 4458   5.083   5.070   3.882  0.2509  0.3702  0.2986
   34MOL0     C 4459   5.161   4.999   3.798 -0.7895  0.6842  0.4343
   34MOL0     C 4460   5.231   4.880   3.832 -0.1010  0.3740 -0.2328
   34MOL0     C 4461   5.306   4.816   3.734 -0.3299 -0.1413  0.1881
   34MOL0     C 4462   5.320   4.864   3.605 -0.6674  0.1307 -0.2483
   34MOL0     O 4463   5.395   4.783   3.518  0.9381  0.0501 -0.5917
   34MOL0     C 4464   5.403   4.799   3.378  0.0547 -0.4695  0.1276
   34MOL0     C 4465   5.517   4.903   3.344  0.5083 -0.1593  0.0887
   34MOL0     C 4466   5.654   4.840   3.373  0.4196 -0.0993 -0.1303
   34MOL0     C 4467   5.703   4.878   3.521  0.3672  0.3450  0.8526
   34MOL0     C 4468   5.852   4.825   3.532 -1.1248  0.9599 -0.0413
   34MOL0     C 4469   5.856   4.669   3.551  0.2892  0.4847 -0.3424
   34MOL0     C 4470   5.996   4.632   3.540 -0.7912  0.4482  0.2282
   34MOL0     C 4471   6.036   4.489   3.568 -0.0457 -0.5019  1.1490
   34MOL0     N 4472   6.021   4.423   3.443 -0.7035 -0.1427  0.2614
   34MOL0     C 4473   5.930   4.322   3.433 -0.7980  0.9584  0.2343
   34MOL0     C 4474   5.963   4.269   3.322 -0.8190  0.4243 -1.2072
   34MOL0     C 4475   5.889   4.153   3.277 -0.4004  0.2995  0.9692
   34MOL0     C 4476   5.742   4.155   3.292  0.2683  0.0963  0.0671
   34MOL0     C 4477   5.672   4.054   3.194 -1.2290  0.4954 -0.3796
   34MOL0     C 4478   5.674   4.084   3.048  0.4798 -0.0688  1.2919
   34MOL0     O 4479   5.654   4.228   3.028  0.1215 -0.4598 -0.7005
   34MOL0     C 4480   5.714   4.274   2.916  0.1961  0.0423 -0.8338
   34MOL0     C 4481   5.654   4.272   2.789 -0.0179  0.1824 -0.1772
   34MOL0     C 4482   5.710   4.319   2.676  0.1244 -0.6313  0.1595
   34MOL0     C 4483   5.619   4.328   2.557 -0.7625  0.7821  0.7998
   34MOL0     C 4484   5.835   4.390   2.687  0.7068  1.2919 -0.8540
   34MOL0     C 4485   5.918   4.440   2.576 -0.9476  0.4482 -0.3226
   34MOL0     O 4486   6.052   4.489   2.601  0.9301 -0.5504 -1.1381
   34MOL0     C 4487   6.123   4.543   2.497  0.0127 -0.6147 -0.1658
   34MOL0     C 4488   6.151   4.683   2.488 -0.4595 -0.4353 -0.1754
   34MOL0     C 4489   6.231   4.730   2.381 -0.1166  1.4913  0.2570
   34MOL0     C 4490   6.266   4.647   2.284 -0.7934  0.3611  1.0193
   34MOL0     O 4491   6.326   4.696   2.168  0.0211  0.4346  0.1007
   34MOL0     C 4492   6.379   4.829   2.173 -0.2552 -0.2548 -0.4646
   34MOL0     C 4493   6.453   4.871   2.048 -0.3751  0.0785 -1.1136
   34MOL0     C 4494   6.555   4.993   2.072  0.2083  0.7146  0.6878
   34MOL0     C 4495   6.673   4.931   2.133 -0.4836 -0.1516  0.1263
   34MOL0     C 4496   6.758   5.033   2.190 -0.6508 -0.0720  0.2240
   34MOL0     C 4497   6.814   5.146   2.106  0.0091  0.2100 -0.9940
   34MOL0     C 4498   6.873   5.103   1.973 -0.2142 -0.2710 -0.3845
   34MOL0     C 4499   6.963   5.204   1.905 -0.3880 -0.0318  1.0687
   34MOL0    Cl 4500   6.879   5.363   1.906  0.1771 -0.0880 -0.4312
   34MOL0     C 4501   6.233   4.513   2.287 -0.0108  0.9448  0.8270
   34MOL0     C 4502   6.170   4.455   2.396  0.2176 -0.2636 -0.5012
   34MOL0     O 4503   5.866   4.433   2.468 -0.1786 -0.3495 -0.3613
   34MOL0     C 4504   5.892   4.401   2.814 -0.4492  0.7655 -0.3751
   34MOL0     C 4505   5.839   4.337   2.921 -0.5028 -0.0740  0.3058
   34MOL0     N 4506   6.074   4.325   3.262 -0.4893 -0.1381  0.1439
   34MOL0     N 4507   6.111   4.421   3.343  0.1538 -0.7929  0.1989
   34MOL0     C 4508   5.247   4.979   3.566  0.3391 -0.2009 -0.1510
   34MOL0     C 4509   5.176   5.047   3.667  0.2630 -0.0868  0.3083
   34MOL0     C 4510   5.001   5.142   4.100 -0.4476 -0.0996 -0.1549
   34MOL0     C 4511   4.878   5.171   4.044 -0.6491 -0.2514 -0.2634
   34MOL0     C 4512   4.779   5.233   4.123  0.0805  0.0572 -0.1639
   34MOL0     C 4513   4.796   5.234   4.269 -0.9351 -0.8921  0.4396
   34MOL0     O 4514   4.702   5.287   4.355  0.5109  0.2244  0.6224
   34MOL0     C 4515   4.634   5.188   4.436  0.3678 -0.8071 -0.2280
   34MOL0     C 4516   4.550   5.269   4.544 -0.7328 -0.4789  0.4339
   34MOL0     C 4517   4.638   5.335   4.644 -1.1369 -0.5011 -0.4516
   34MOL0     C 4518   4.553   5.436   4.736  0.0819 -0.2459 -0.4176
   34MOL0     C 4519   4.642   5.498   4.841  0.3440 -0.3344  0.1004
   34MOL0     C 4520   4.717   5.545   4.927  0.3384 -0.5939 -0.4509
   34MOL0     C 4521   4.924   5.193   4.315  0.1756 -0.1331 -0.3409
   34MOL0     C 4522   5.020   5.145   4.238  0.5081  0.7035  0.1598
   34MOL0     H 4523   5.212   4.819   3.920  1.1306 -3.5348 -2.4256
   34MOL0     H 4524   5.359   4.729   3.772  0.4704  0.2640  0.0123
   34MOL0     H 4525   5.429   4.708   3.323 -2.6699  0.3887 -2.9522
   34MOL0     H 4526   5.317   4.855   3.339 -1.3212 -2.4956  0.1202
   34MOL0     H 4527   5.513   4.942   3.241  0.0014  0.5871  0.3845
   34MOL0     H 4528   5.497   4.996   3.398 -2.1609  1.2322 -2.9082
   34MOL0     H 4529   5.651   4.731   3.358  1.7960  0.0175 -1.6996
   34MOL0     H 4530   5.723   4.870   3.293  0.0650 -2.2961 -1.3594
   34MOL0     H 4531   5.715   4.986   3.535  2.4331  0.5066 -1.3891
   34MOL0     H 4532   5.632   4.840   3.595 -0.6324  5.1954  2.7691
   34MOL0     H 4533   5.899   4.847   3.435 -3.1954  1.8230 -0.9177
   34MOL0     H 4534   5.909   4.878   3.609  3.0879  0.7402 -2.7098
   34MOL0     H 4535   5.823   4.650   3.654  2.9976  1.0469  0.7262
   34MOL0     H 4536   5.799   4.615   3.475 -0.2779 -1.2944  1.2681
   34MOL0     H 4537   6.044   4.652   3.444  0.7034 -1.7910  0.4295
   34MOL0     H 4538   6.043   4.692   3.619  1.1445  0.1683 -0.6401
   34MOL0     H 4539   5.956   4.455   3.635  0.4493 -2.9427  0.6093
   34MOL0     H 4540   6.136   4.464   3.606  0.0652 -0.4414  0.8957
   34MOL0     H 4541   5.842   4.296   3.492 -2.2096 -2.5540 -3.0161
   34MOL0     H 4542   5.932   4.123   3.181  2.2192  0.4686  2.0088
   34MOL0     H 4543   5.924   4.067   3.336 -3.3394 -1.6494  0.1197
   34MOL0     H 4544   5.696   4.254   3.284  2.4174  1.2045  0.6652
   34MOL0     H 4545   5.728   4.119   3.394  1.0756  0.0261  0.1557
   34MOL0     H 4546   5.569   4.037   3.226 -1.4697 -3.4688 -2.6626
   34MOL0     H 4547   5.716   3.954   3.201  2.1232  1.8971  1.0664
   34MOL0     H 4548   5.594   4.019   3.013 -2.2988  3.1862  1.0419
   34MOL0     H 4549   5.771   4.049   3.010 -0.4266 -1.1760 -0.0731
   34MOL0     H 4550   5.563   4.218   2.768  0.3451  0.5587 -3.2056
   34MOL0     H 4551   5.603   4.427   2.513 -2.5217 -0.3736 -1.3130
   34MOL0     H 4552   5.677   4.287   2.474  1.2139  2.6769  1.1307
   34MOL0     H 4553   5.526   4.273   2.566 -0.7388  0.4855 -0.6157
   34MOL0     H 4554   6.132   4.753   2.568  3.2820 -0.9635  1.3803
   34MOL0     H 4555   6.266   4.833   2.376  0.1655  1.6183  2.9617
   34MOL0     H 4556   6.304   4.907   2.186 -0.8266 -1.0727  1.5364
   34MOL0     H 4557   6.441   4.841   2.262  0.9031 -0.3881 -1.2280
   34MOL0     H 4558   6.514   4.784   2.020  1.6693  1.1671 -0.2860
   34MOL0     H 4559   6.383   4.897   1.968  0.8011  3.0404 -1.3216
   34MOL0     H 4560   6.497   5.070   2.124  0.2788  1.5011 -0.3673
   34MOL0     H 4561   6.573   5.028   1.970 -0.8304 -3.4914 -1.1616
   34MOL0     H 4562   6.644   4.859   2.211 -0.7542  2.3443  2.5082
   34MOL0     H 4563   6.721   4.878   2.051 -2.6312 -0.7190 -0.8436
   34MOL0     H 4564   6.843   4.983   2.239  0.8626  0.5974 -1.5890
   34MOL0     H 4565   6.706   5.085   2.272  1.8687  0.8897  1.3319
   34MOL0     H 4566   6.734   5.220   2.101 -0.3608  0.0714  1.5863
   34MOL0     H 4567   6.899   5.192   2.158  0.5173 -1.2596 -0.4682
   34MOL0     H 4568   6.783   5.085   1.914 -0.0488  2.3696 -1.6121
   34MOL0     H 4569   6.932   5.011   1.978  0.4646  0.2086  0.6279
   34MOL0     H 4570   6.987   5.176   1.802  2.8727  3.3040  0.7130
   34MOL0     H 4571   7.057   5.226   1.956  2.9573  1.2301 -4.8047
   34MOL0     H 4572   6.249   4.452   2.200  0.2881  1.2451  0.6704
   34MOL0     H 4573   6.153   4.349   2.412  2.4028 -0.4202  1.3171
   34MOL0     H 4574   5.986   4.452   2.828  1.1881 -1.8597 -1.2119
   34MOL0     H 4575   5.900   4.330   3.011 -1.9307 -2.3208  1.1739
   34MOL0     H 4576   5.258   5.023   3.468 -0.4426 -1.8388 -1.0169
   34MOL0     H 4577   5.138   5.147   3.651 -3.7888 -1.4327  0.3091
   34MOL0     H 4578   4.862   5.152   3.938 -0.5814  0.1961 -0.3574
   34MOL0     H 4579   4.687   5.274   4.083  1.3377  1.2665 -1.9237
   34MOL0     H 4580   4.565   5.132   4.372 -2.1514  2.2696 -0.4422
   34MOL0     H 4581   4.707   5.127   4.490 -1.9572 -1.8663  1.9134
   34MOL0     H 4582   4.492   5.192   4.596  0.4282 -1.5976  0.1324
   34MOL0     H 4583   4.478   5.330   4.489  0.1155  0.3575  0.2279
   34MOL0     H 4584   4.718   5.392   4.596 -1.9957  2.1105  0.9902
   34MOL0     H 4585   4.700   5.263   4.698  0.1388  2.8531  2.9849
   34MOL0     H 4586   4.476   5.380   4.790  0.8108 -0.1549  0.7494
   34MOL0     H 4587   4.500   5.518   4.686 -5.1486 -1.2432  2.7146
   34MOL0     H 4588   4.786   5.588   4.998  2.6018 -0.3450 -2.6731
   34MOL0     H 4589   4.945   5.189   4.421  0.1447  0.6979 -0.2956
   34MOL0     H 4590   5.103   5.084   4.273  0.6542 -0.1953 -1.6110
   35MOL0     O 4591   5.818   8.757   7.313 -0.1211 -0.4673  0.6687
   35MOL0     C 4592   5.936   8.801   7.325 -0.2967 -0.0029  0.3234
   35MOL0     O 4593   5.980   8.870   7.439 -0.8976 -0.3865 -0.6266
   35MOL0     C 4594   5.882   8.920   7.529 -0.3262  0.3747  0.2916
   35MOL0     C 4595   5.752   8.987   7.486  0.1294 -0.0166 -0.0574
   35MOL0     C 4596   5.662   9.038   7.585 -0.9060 -0.1578 -0.2501
   35MOL0     C 4597   5.692   9.027   7.722 -0.4472  1.1617 -0.0619
   35MOL0     O 4598   5.609   9.064   7.827  0.4071 -0.0068 -0.1659
   35MOL0     C 4599   5.544   9.192   7.800  0.3451  0.3826 -0.4117
   35MOL0     C 4600   5.445   9.207   7.932 -1.1670 -0.9289  0.7231
   35MOL0     C 4601   5.347   9.095   7.939  0.0567  0.2700 -0.2506
   35MOL0     C 4602   5.274   9.089   8.070  0.1735  0.1963 -0.2763
   35MOL0     C 4603   5.160   9.192   8.060  0.3640 -0.5492  0.2870
   35MOL0     C 4604   5.086   9.234   8.177 -0.2672  0.0938  0.3327
   35MOL0     C 4605   5.003   9.118   8.244  0.7340  0.1213  0.0346
   35MOL0     C 4606   4.891   9.054   8.149 -0.1937 -1.2518 -0.0762
   35MOL0     N 4607   4.791   8.970   8.222 -0.8898 -0.6100 -0.7124
   35MOL0     C 4608   4.728   9.009   8.336  1.0763 -0.1492 -0.3505
   35MOL0     C 4609   4.638   8.914   8.357 -0.3015 -0.6201 -0.0469
   35MOL0     C 4610   4.540   8.896   8.473  0.1019  0.9498 -0.4977
   35MOL0     C 4611   4.414   8.970   8.449 -0.2529  0.1948  1.0911
   35MOL0     C 4612   4.312   8.889   8.360 -0.2626  0.5716  0.1908
   35MOL0     C 4613   4.256   8.773   8.421 -0.4974  0.4605 -0.8637
   35MOL0     O 4614   4.134   8.791   8.489 -0.3463 -0.0276 -0.1969
   35MOL0     C 4615   4.033   8.700   8.505 -0.0446  0.2817  0.0075
   35MOL0     C 4616   3.917   8.756   8.548  0.1930  0.0117 -0.4655
   35MOL0     C 4617   3.803   8.676   8.579 -1.3271 -0.4836 -0.2203
   35MOL0     C 4618   3.680   8.747   8.635 -0.2430 -1.2157  0.0371
   35MOL0     C 4619   3.805   8.535   8.567  0.1107  0.5378  1.6555
   35MOL0     C 4620   3.706   8.439   8.621  0.4800  0.2802 -0.5691
   35MOL0     O 4621   3.704   8.308   8.565  0.1096 -0.1334 -0.3330
   35MOL0     C 4622   3.609   8.215   8.611  0.3553 -0.2027 -0.4221
   35MOL0     C 4623   3.645   8.083   8.637  0.3059 -0.7089  0.9675
   35MOL0     C 4624   3.561   7.991   8.704  0.4915 -1.0893  0.1319
   35MOL0     C 4625   3.423   8.034   8.726 -0.4573  0.0508  0.2204
   35MOL0     O 4626   3.333   7.958   8.800  0.3764 -0.7988  0.5031
   35MOL0     C 4627   3.321   7.822   8.775 -0.2797  0.5318  0.0557
   35MOL0     C 4628   3.275   7.784   8.634 -0.5291 -0.3954  0.4003
   35MOL0     C 4629   3.119   7.805   8.616  0.0348  1.3991  0.8158
   35MOL0     C 4630   3.079   7.722   8.488 -0.4853  0.3462  0.7661
   35MOL0     C 4631   2.942   7.658   8.510 -0.3713  0.7931 -0.6514
   35MOL0     C 4632   2.827   7.738   8.515  0.3179  0.7035 -0.6200
   35MOL0     C 4633   2.704   7.666   8.583 -0.2859  0.0491 -0.5177
   35MOL0     C 4634   2.609   7.618   8.477 -0.2187  0.0458 -0.1677
   35MOL0    Cl 4635   2.476   7.528   8.544 -0.2158 -0.2964 -0.0944
   35MOL0     C 4636   3.379   8.158   8.678  0.2604 -0.2762 -0.3371
   35MOL0     C 4637   3.469   8.248   8.622 -0.4144 -0.0683 -0.3797
   35MOL0     O 4638   3.615   8.481   8.697 -0.8354 -0.4758 -0.8457
   35MOL0     C 4639   3.925   8.480   8.503 -0.0760 -0.8186 -0.4776
   35MOL0     C 4640   4.040   8.563   8.481 -0.7957 -0.3650  0.3067
   35MOL0     N 4641   4.635   8.824   8.251  0.0995 -0.2285  0.2357
   35MOL0     N 4642   4.735   8.853   8.173  0.5809  0.0052  0.1482
   35MOL0     C 4643   5.808   8.957   7.760  0.1330 -0.7143 -0.0609
   35MOL0     C 4644   5.904   8.910   7.666  0.8299 -0.2344 -0.2698
   35MOL0     C 4645   6.042   8.773   7.217 -0.9815 -0.2353 -0.0859
   35MOL0     C 4646   6.171   8.829   7.231 -0.1466 -0.5661  1.0086
   35MOL0     C 4647   6.273   8.801   7.139 -0.7124  0.0855  0.0618
   35MOL0     C 4648   6.245   8.730   7.021 -0.2733  0.4548 -0.6088
   35MOL0     O 4649   6.328   8.711   6.917 -0.0750  1.0820  0.2664
   35MOL0     C 4650   6.470   8.712   6.931  0.6329  0.2674  0.3817
   35MOL0     C 4651   6.532   8.828   6.856  0.3436  0.3032  0.1326
   35MOL0     C 4652   6.507   8.841   6.704 -0.4141 -0.0773  0.2115
   35MOL0     C 4653   6.603   8.947   6.642  0.9956  0.0574  0.9231
   35MOL0     C 4654   6.741   8.886   6.623  0.3637 -0.2584 -0.6154
   35MOL0     C 4655   6.854   8.836   6.633 -0.1558  0.4582 -0.5502
   35MOL0     C 4656   6.115   8.670   7.005 -0.4224 -0.1093  0.7372
   35MOL0     C 4657   6.012   8.693   7.106 -0.1511 -0.1949  0.6615
   35MOL0     H 4658   5.740   8.997   7.379 -1.1403  1.4579  0.1946
   35MOL0     H 4659   5.569   9.087   7.557 -1.3965  0.7905  2.6604
   35MOL0     H 4660   5.617   9.273   7.803  1.3851 -0.5601  1.4448
   35MOL0     H 4661   5.481   9.185   7.710  1.9568 -0.7483 -1.5158
   35MOL0     H 4662   5.504   9.221   8.023 -1.0307  0.0312  0.5047
   35MOL0     H 4663   5.400   9.307   7.924 -0.2434 -0.5153  0.6341
   35MOL0     H 4664   5.280   9.095   7.852 -0.5533  0.0418  0.2080
   35MOL0     H 4665   5.409   9.006   7.924  0.9890  0.7172  0.8265
   35MOL0     H 4666   5.241   8.986   8.084  1.0605 -0.2657 -1.4650
   35MOL0     H 4667   5.347   9.114   8.148 -0.2011 -2.3089  0.9731
   35MOL0     H 4668   5.199   9.289   8.028 -2.9213  0.7510 -0.2279
   35MOL0     H 4669   5.080   9.167   7.991 -1.1767 -0.3553  1.9110
   35MOL0     H 4670   5.162   9.276   8.244  1.7122 -1.6458 -0.7151
   35MOL0     H 4671   5.014   9.313   8.155  0.3416  0.7539  0.6809
   35MOL0     H 4672   5.064   9.036   8.284 -0.0922 -0.6116 -0.1742
   35MOL0     H 4673   4.953   9.172   8.325 -2.1459  3.3307 -3.5451
   35MOL0     H 4674   4.938   8.977   8.086  1.0014 -0.4606 -0.1931
   35MOL0     H 4675   4.844   9.131   8.088 -0.7862  0.4943  2.4495
   35MOL0     H 4676   4.758   9.083   8.410  0.6781 -0.9704  0.6523
   35MOL0     H 4677   4.526   8.791   8.500  0.4885  1.8955  4.2974
   35MOL0     H 4678   4.586   8.928   8.567 -1.4081 -2.9427  1.8003
   35MOL0     H 4679   4.447   9.066   8.409  1.4830 -1.5284 -2.0118
   35MOL0     H 4680   4.369   8.985   8.548 -1.2589  0.6281  0.5765
   35MOL0     H 4681   4.363   8.854   8.270 -0.3426 -0.4181  0.5169
   35MOL0     H 4682   4.239   8.959   8.317 -1.2848  0.0963  1.0958
   35MOL0     H 4683   4.329   8.732   8.492  0.0705 -1.0991 -2.2923
   35MOL0     H 4684   4.245   8.692   8.349 -1.7278 -0.0349 -0.1519
   35MOL0     H 4685   3.919   8.864   8.553  3.0265  0.0032 -0.0449
   35MOL0     H 4686   3.593   8.703   8.585 -0.8241 -0.8677  0.7251
   35MOL0     H 4687   3.673   8.747   8.744  1.5477  4.2687  0.4341
   35MOL0     H 4688   3.684   8.854   8.613  2.3081 -0.8219  1.9794
   35MOL0     H 4689   3.749   8.067   8.612  0.2404  0.9853 -0.6342
   35MOL0     H 4690   3.612   7.901   8.739  1.7030 -0.2066  0.7004
   35MOL0     H 4691   3.423   7.785   8.790  0.2751  1.6332 -0.8611
   35MOL0     H 4692   3.256   7.779   8.851 -0.2990 -1.2702 -0.9143
   35MOL0     H 4693   3.320   7.846   8.557  0.4933 -3.6876 -1.8629
   35MOL0     H 4694   3.312   7.684   8.609 -3.4195 -1.2520 -0.9055
   35MOL0     H 4695   3.088   7.909   8.602 -2.9683  0.6520  1.2021
   35MOL0     H 4696   3.060   7.773   8.702  1.6809 -3.3993  0.4851
   35MOL0     H 4697   3.076   7.786   8.400  1.7813 -1.1442 -0.4956
   35MOL0     H 4698   3.159   7.650   8.470 -0.1254  0.9324  0.0024
   35MOL0     H 4699   2.956   7.609   8.606 -0.1540  0.2315 -0.9700
   35MOL0     H 4700   2.914   7.582   8.437 -0.5539 -0.6079  0.8230
   35MOL0     H 4701   2.851   7.830   8.569  1.8584  1.4363 -2.4044
   35MOL0     H 4702   2.808   7.772   8.412 -0.3465  0.8722 -0.4483
   35MOL0     H 4703   2.649   7.734   8.648 -0.1473 -0.1522 -0.1865
   35MOL0     H 4704   2.741   7.583   8.644  1.1489  2.1026  1.5902
   35MOL0     H 4705   2.657   7.555   8.401  1.9370  0.4424  0.8182
   35MOL0     H 4706   2.570   7.713   8.439  0.3705  2.0822  3.8401
   35MOL0     H 4707   3.273   8.180   8.684  0.0101 -0.9293 -1.8985
   35MOL0     H 4708   3.440   8.347   8.587  0.4311  0.1125 -0.6031
   35MOL0     H 4709   3.935   8.376   8.474  2.4361 -1.0965  1.1467
   35MOL0     H 4710   4.133   8.520   8.446 -0.0612  2.0211 -0.9004
   35MOL0     H 4711   5.824   8.948   7.867 -1.1056 -0.5443  0.1508
   35MOL0     H 4712   5.998   8.867   7.697  0.1670 -1.6466 -0.1375
   35MOL0     H 4713   6.196   8.892   7.316  0.8131  0.9423 -0.3340
   35MOL0     H 4714   6.369   8.845   7.162  0.7340 -3.2836  1.0497
   35MOL0     H 4715   6.499   8.720   7.036  0.6504 -1.9976  0.5804
   35MOL0     H 4716   6.511   8.618   6.893 -3.5879 -0.5028 -2.9857
   35MOL0     H 4717   6.640   8.829   6.868  0.3194 -1.3238  0.6625
   35MOL0     H 4718   6.485   8.920   6.894 -2.0173  0.2472 -2.3605
   35MOL0     H 4719   6.403   8.874   6.690 -0.5211 -0.8382 -1.0049
   35MOL0     H 4720   6.516   8.740   6.663 -3.7468 -0.4892  0.2001
   35MOL0     H 4721   6.601   9.038   6.703  0.9670  1.7510 -1.4776
   35MOL0     H 4722   6.573   8.973   6.540  1.3725 -0.4642  0.6729
   35MOL0     H 4723   6.945   8.781   6.645 -0.4625 -0.1023 -0.8063
   35MOL0     H 4724   6.100   8.600   6.924 -0.1063  1.8823 -1.1318
   35MOL0     H 4725   5.917   8.640   7.095 -0.0363 -1.1276  3.4846
   36MOL0     O 4726  11.224   5.172  10.126  0.1380 -0.0631  0.6562
   36MOL0     C 4727  11.221   5.055  10.160 -0.6984  0.5745  0.6723
   36MOL0     O 4728  11.290   4.955  10.094  0.7254 -0.3604  0.4122
   36MOL0     C 4729  11.364   4.982   9.985 -0.3504 -0.6501  0.5832
   36MOL0     C 4730  11.449   5.096   9.981 -0.0571  1.1051 -0.1375
   36MOL0     C 4731  11.537   5.111   9.871  0.2034 -0.1245  0.6829
   36MOL0     C 4732  11.534   5.027   9.757 -0.1316  0.7610 -0.8971
   36MOL0     O 4733  11.608   5.040   9.643 -0.6321  0.7537 -0.3796
   36MOL0     C 4734  11.626   5.174   9.589 -0.4279  0.5803  0.1917
   36MOL0     C 4735  11.532   5.194   9.463  0.6982 -1.1901  0.5514
   36MOL0     C 4736  11.389   5.130   9.463  0.3158  0.0813 -0.2618
   36MOL0     C 4737  11.337   5.148   9.326  0.6201  0.0235  0.0203
   36MOL0     C 4738  11.188   5.103   9.320  0.6103  0.2295 -0.9223
   36MOL0     C 4739  11.092   5.126   9.191 -0.1910  0.1230 -0.2294
   36MOL0     C 4740  11.084   5.271   9.144 -0.8137  0.2064  0.6905
   36MOL0     C 4741  11.001   5.356   9.250 -0.5743  0.3720 -0.6209
   36MOL0     N 4742  10.972   5.497   9.212  0.3028  0.0811  0.8696
   36MOL0     C 4743  11.011   5.613   9.269 -0.5703 -0.7700  0.2673
   36MOL0     C 4744  10.969   5.719   9.187 -0.6471  0.0296 -0.2792
   36MOL0     C 4745  10.982   5.866   9.214  0.2194  0.2159 -0.9497
   36MOL0     C 4746  10.863   5.941   9.260 -0.7654 -1.1363  0.1509
   36MOL0     C 4747  10.848   5.934   9.417  0.3837  0.0560  0.1858
   36MOL0     C 4748  10.927   6.043   9.498  0.8803  1.2879 -0.0970
   36MOL0     O 4749  11.063   6.008   9.497  0.1464 -0.5214  0.1166
   36MOL0     C 4750  11.130   6.041   9.610  0.0418  0.1046  0.1679
   36MOL0     C 4751  11.126   6.172   9.663 -0.5376  0.2422 -0.2010
   36MOL0     C 4752  11.195   6.207   9.781 -0.7069 -1.1058 -0.0604
   36MOL0     C 4753  11.188   6.354   9.829  0.7080  0.6601 -0.0447
   36MOL0     C 4754  11.273   6.110   9.842  0.7379  0.1575 -0.3256
   36MOL0     C 4755  11.340   6.121   9.973 -0.2377  0.1698 -0.4502
   36MOL0     O 4756  11.319   6.224  10.055  0.0202  0.1284 -0.4693
   36MOL0     C 4757  11.365   6.240  10.186  0.5566 -0.6743 -0.4769
   36MOL0     C 4758  11.297   6.344  10.257  0.0398 -0.1725 -0.6009
   36MOL0     C 4759  11.317   6.362  10.393  0.4849  0.0151 -0.2871
   36MOL0     C 4760  11.409   6.291  10.462 -1.4559  0.9531 -0.4221
   36MOL0     O 4761  11.425   6.298  10.595  0.2371  0.7738  0.4056
   36MOL0     C 4762  11.536   6.390  10.632  0.3229  0.7218 -0.6769
   36MOL0     C 4763  11.487   6.528  10.681  0.0169 -0.0946  0.4674
   36MOL0     C 4764  11.372   6.521  10.781  0.6699  0.5085 -0.0565
   36MOL0     C 4765  11.315   6.657  10.831 -0.4842 -0.8543  0.2215
   36MOL0     C 4766  11.264   6.762  10.728 -0.5077  0.6499  0.1958
   36MOL0     C 4767  11.144   6.705  10.652 -0.4637  0.5105  0.1034
   36MOL0     C 4768  11.012   6.658  10.731 -0.4548 -0.4372  0.1551
   36MOL0     C 4769  10.931   6.576  10.643 -0.6718  0.7208  0.3946
   36MOL0    Cl 4770  10.822   6.678  10.540 -0.1813 -0.2491 -0.0672
   36MOL0     C 4771  11.477   6.188  10.391  0.3209  0.2037 -0.5902
   36MOL0     C 4772  11.459   6.166  10.250 -0.2767  0.2434 -0.1951
   36MOL0     O 4773  11.404   6.025  10.012  0.7405 -0.0792 -0.3579
   36MOL0     C 4774  11.280   5.982   9.779 -0.6318  0.0233  0.4130
   36MOL0     C 4775  11.212   5.942   9.669  0.2516 -0.2555 -0.6359
   36MOL0     N 4776  10.903   5.658   9.082  0.3478 -0.9878  0.4241
   36MOL0     N 4777  10.904   5.533   9.099 -0.1765 -0.2556 -0.2039
   36MOL0     C 4778  11.440   4.919   9.765  0.0519  0.6266 -0.4213
   36MOL0     C 4779  11.360   4.891   9.878  0.5804 -1.5104  0.3030
   36MOL0     C 4780  11.166   5.032  10.296  0.4308  0.3991 -0.8632
   36MOL0     C 4781  11.212   4.927  10.368  0.2358 -0.5603 -0.3125
   36MOL0     C 4782  11.176   4.900  10.498  0.1196  0.4123 -1.2133
   36MOL0     C 4783  11.087   4.991  10.570  0.1150  0.6592 -0.0655
   36MOL0     O 4784  11.049   4.954  10.697 -0.0040  0.0895  0.4331
   36MOL0     C 4785  11.005   5.057  10.784  0.0326  0.6803 -0.7767
   36MOL0     C 4786  11.127   5.135  10.845  0.5029  0.2605 -0.7514
   36MOL0     C 4787  11.219   5.037  10.909 -0.5760 -0.9514  0.0334
   36MOL0     C 4788  11.321   5.115  10.986 -0.8521 -0.2663  0.0048
   36MOL0     C 4789  11.297   5.136  11.132  0.6485  0.0453  0.0843
   36MOL0     C 4790  11.284   5.154  11.253  0.3839 -0.3049  0.7064
   36MOL0     C 4791  11.042   5.103  10.494 -0.2628 -0.2489 -1.0339
   36MOL0     C 4792  11.084   5.123  10.365  1.5276  0.8697  0.0416
   36MOL0     H 4793  11.450   5.152  10.074  1.4562  0.2400  0.4008
   36MOL0     H 4794  11.609   5.192   9.880  0.3548 -0.3066  1.1341
   36MOL0     H 4795  11.593   5.254   9.655 -0.2918 -0.4842  1.6130
   36MOL0     H 4796  11.731   5.191   9.567 -0.0658 -0.8179  0.6983
   36MOL0     H 4797  11.515   5.302   9.450 -2.5893 -1.7217 -0.4303
   36MOL0     H 4798  11.581   5.166   9.370  1.0421 -0.3273  0.4619
   36MOL0     H 4799  11.405   5.029   9.500  1.0088 -0.2375 -1.3803
   36MOL0     H 4800  11.321   5.180   9.532  1.3021  2.1460 -0.7042
   36MOL0     H 4801  11.348   5.255   9.305  0.2950  0.7844  3.1777
   36MOL0     H 4802  11.395   5.095   9.250 -1.3522  3.3944 -4.2447
   36MOL0     H 4803  11.193   4.996   9.337 -1.8090  0.4148  1.7213
   36MOL0     H 4804  11.135   5.149   9.404  0.7064 -0.2547 -0.5992
   36MOL0     H 4805  11.120   5.062   9.108 -0.3978  1.7012 -1.5742
   36MOL0     H 4806  10.990   5.097   9.219 -1.6156  1.0681 -3.9053
   36MOL0     H 4807  11.182   5.309   9.113 -1.0757 -0.9791 -1.8180
   36MOL0     H 4808  11.020   5.276   9.056 -1.8803 -1.1874  1.3648
   36MOL0     H 4809  11.053   5.352   9.346  1.1599 -1.2789 -1.5731
   36MOL0     H 4810  10.903   5.309   9.265 -0.9108  0.9428 -0.9706
   36MOL0     H 4811  11.074   5.603   9.357  1.8012 -0.5799 -1.3084
   36MOL0     H 4812  11.070   5.905   9.266 -0.3524  0.3696 -0.0737
   36MOL0     H 4813  10.998   5.897   9.111  1.2714 -0.6248 -1.0631
   36MOL0     H 4814  10.771   5.906   9.213 -2.2853  1.6233  0.8653
   36MOL0     H 4815  10.863   6.044   9.224 -2.9375 -1.8112 -2.0771
   36MOL0     H 4816  10.876   5.836   9.459 -0.2436 -1.1631 -2.0803
   36MOL0     H 4817  10.745   5.965   9.439  0.7442  1.4207  0.0105
   36MOL0     H 4818  10.877   6.035   9.595  0.6210 -0.8061 -0.3630
   36MOL0     H 4819  10.899   6.136   9.447 -0.6709 -1.2659 -4.3955
   36MOL0     H 4820  11.063   6.251   9.625 -1.6490  0.4365  1.8974
   36MOL0     H 4821  11.270   6.388   9.893 -0.6789  1.0674  1.5858
   36MOL0     H 4822  11.167   6.412   9.739  3.0352  2.3533  0.4131
   36MOL0     H 4823  11.103   6.367   9.897  0.0147 -0.7676 -0.6039
   36MOL0     H 4824  11.226   6.407  10.205  0.5785 -1.6991 -3.3694
   36MOL0     H 4825  11.255   6.438  10.439  0.2693  1.1468 -2.3244
   36MOL0     H 4826  11.595   6.346  10.712  0.8127  1.7912 -0.4380
   36MOL0     H 4827  11.603   6.407  10.547  2.9088  0.5524  1.2282
   36MOL0     H 4828  11.570   6.589  10.719  1.9301 -1.3034 -1.5831
   36MOL0     H 4829  11.443   6.579  10.595  2.1511 -1.6424 -1.6528
   36MOL0     H 4830  11.413   6.463  10.864  2.5825  2.9345  0.7966
   36MOL0     H 4831  11.292   6.465  10.730  0.7838  1.4785 -1.3687
   36MOL0     H 4832  11.231   6.644  10.900 -1.0140  0.3632 -0.1650
   36MOL0     H 4833  11.394   6.708  10.887 -1.1368  0.1410  0.2472
   36MOL0     H 4834  11.348   6.773  10.659 -1.3468 -1.3966 -1.2505
   36MOL0     H 4835  11.245   6.864  10.764  1.2871  1.6843 -1.5400
   36MOL0     H 4836  11.121   6.769  10.567  1.7673  0.3829 -0.6539
   36MOL0     H 4837  11.178   6.614  10.603 -1.9430 -1.3788  2.3554
   36MOL0     H 4838  10.966   6.754  10.759  1.3109  1.0326 -1.6364
   36MOL0     H 4839  11.022   6.607  10.827  0.3699 -0.2928  0.1608
   36MOL0     H 4840  10.880   6.498  10.701  2.5653 -2.0221 -0.1303
   36MOL0     H 4841  10.983   6.513  10.570 -1.8242  1.2347 -0.9019
   36MOL0     H 4842  11.549   6.121  10.437 -0.7467 -0.8112 -0.3426
   36MOL0     H 4843  11.515   6.086  10.201  2.7996  2.0037  0.2220
   36MOL0     H 4844  11.351   5.911   9.822  0.0738 -0.4432 -1.4130
   36MOL0     H 4845  11.229   5.852   9.611  0.2367  0.6605 -2.1048
   36MOL0     H 4846  11.452   4.857   9.677  0.9889  0.2995 -0.0765
   36MOL0     H 4847  11.289   4.809   9.881  1.7305 -2.4966  1.8780
   36MOL0     H 4848  11.289   4.866  10.322  0.7341  0.5796 -1.0416
   36MOL0     H 4849  11.195   4.801  10.538 -0.2091  0.5602 -0.6828
   36MOL0     H 4850  10.943   5.127  10.728 -0.4427  0.6820 -0.2578
   36MOL0     H 4851  10.948   5.022  10.871  0.8484  0.7189 -0.2123
   36MOL0     H 4852  11.089   5.201  10.923  1.0961 -0.6562  0.3349
   36MOL0     H 4853  11.170   5.195  10.763  1.9314 -1.7169 -1.5239
   36MOL0     H 4854  11.270   4.987  10.827 -0.7529  1.8902 -1.9654
   36MOL0     H 4855  11.163   4.966  10.970 -2.3695 -0.5856 -1.1229
   36MOL0     H 4856  11.346   5.201  10.924  1.0904  0.8949  2.2231
   36MOL0     H 4857  11.411   5.053  10.993 -0.1708  0.8124  1.1547
   36MOL0     H 4858  11.282   5.179  11.358  1.1527  0.3574  0.5758
   36MOL0     H 4859  10.976   5.178  10.535  2.5419  0.5691  2.6182
   36MOL0     H 4860  11.048   5.215  10.321  1.1922  0.6860 -0.0691
   37MOL0     O 4861   8.585   6.536   3.459 -0.2155 -0.2350  0.4829
   37MOL0     C 4862   8.605   6.430   3.522  0.0347 -0.4176  0.8082
   37MOL0     O 4863   8.530   6.387   3.630  0.1994 -0.3165 -0.3194
   37MOL0     C 4864   8.401   6.442   3.653 -0.3545  0.1371 -0.0523
   37MOL0     C 4865   8.313   6.435   3.548 -0.1668  1.1302  0.8735
   37MOL0     C 4866   8.186   6.486   3.557  0.0761  0.0612 -0.0954
   37MOL0     C 4867   8.148   6.537   3.680 -0.5483 -0.1147  0.3322
   37MOL0     O 4868   8.026   6.580   3.719  0.3714 -0.0592 -0.5005
   37MOL0     C 4869   7.905   6.551   3.650  0.4275  0.0196  0.7385
   37MOL0     C 4870   7.780   6.593   3.726 -1.0049 -0.5528  0.1504
   37MOL0     C 4871   7.666   6.515   3.665  0.4463 -0.0286 -0.0274
   37MOL0     C 4872   7.530   6.549   3.734  0.5450  0.0103  0.0817
   37MOL0     C 4873   7.420   6.464   3.667 -0.6638  0.7656  0.0909
   37MOL0     C 4874   7.430   6.310   3.678  0.1401 -0.4088 -0.5751
   37MOL0     C 4875   7.423   6.275   3.823  0.0537  0.0068 -0.7804
   37MOL0     C 4876   7.395   6.128   3.857  0.1922 -0.2981  0.5577
   37MOL0     N 4877   7.256   6.113   3.869  0.6189 -0.0020  0.7531
   37MOL0     C 4878   7.180   6.143   3.976 -0.4490 -0.5665  0.1025
   37MOL0     C 4879   7.047   6.138   3.928 -0.6089 -0.0948  0.6253
   37MOL0     C 4880   6.921   6.151   4.013 -0.7211  0.1914 -0.5740
   37MOL0     C 4881   6.853   6.026   4.068  0.5932  0.1434  0.2993
   37MOL0     C 4882   6.782   5.942   3.968 -1.2048 -0.4795  0.1878
   37MOL0     C 4883   6.663   6.009   3.897 -0.4737  0.1868 -1.2893
   37MOL0     O 4884   6.557   5.901   3.890  0.1146 -0.5425 -0.2760
   37MOL0     C 4885   6.434   5.941   3.850 -0.6359 -0.0864  0.2703
   37MOL0     C 4886   6.387   6.069   3.823  0.9393 -0.5003 -0.1485
   37MOL0     C 4887   6.250   6.094   3.789 -0.1710  0.2734  0.2386
   37MOL0     C 4888   6.218   6.235   3.759 -0.0242 -1.0196 -0.1158
   37MOL0     C 4889   6.161   5.984   3.772 -0.0764 -0.7577  0.5613
   37MOL0     C 4890   6.019   5.999   3.738  0.2868  0.4781 -0.2037
   37MOL0     O 4891   5.947   5.877   3.754  0.2267 -0.0169 -0.9282
   37MOL0     C 4892   5.811   5.870   3.739  0.3765  0.1884  0.1668
   37MOL0     C 4893   5.722   5.956   3.796  0.1460  0.3628  1.0978
   37MOL0     C 4894   5.589   5.956   3.760  0.1388  0.7215 -0.0183
   37MOL0     C 4895   5.539   5.888   3.651 -0.3208 -0.4297 -0.3281
   37MOL0     O 4896   5.413   5.898   3.603  0.4224  0.5832 -0.5070
   37MOL0     C 4897   5.321   6.009   3.636  0.0082 -0.0750 -0.0874
   37MOL0     C 4898   5.171   6.010   3.587 -0.3432  0.8721 -0.5445
   37MOL0     C 4899   5.170   6.010   3.438  0.1446 -0.3167  0.5989
   37MOL0     C 4900   5.031   5.957   3.386  0.7799  0.4204 -0.5276
   37MOL0     C 4901   5.007   5.973   3.234  0.4800 -0.2514 -0.1280
   37MOL0     C 4902   4.881   5.898   3.180  0.7682 -0.2061 -0.2863
   37MOL0     C 4903   4.920   5.768   3.111  0.3687  0.2563  0.3790
   37MOL0     C 4904   4.943   5.650   3.209 -0.1713  0.3354 -0.1035
   37MOL0    Cl 4905   4.814   5.641   3.316  0.1804  0.3797  0.2178
   37MOL0     C 4906   5.632   5.791   3.589 -0.4297 -0.4603 -0.1959
   37MOL0     C 4907   5.769   5.789   3.626  0.1053  0.7182 -0.1434
   37MOL0     O 4908   5.962   6.100   3.715 -0.1516  0.2272  0.4308
   37MOL0     C 4909   6.216   5.856   3.794  0.8759 -0.7114  0.7020
   37MOL0     C 4910   6.351   5.835   3.829  0.1540  0.0448  0.1285
   37MOL0     N 4911   7.046   6.101   3.792  0.2963  0.0517 -0.6921
   37MOL0     N 4912   7.173   6.090   3.763  0.5860  0.0012  0.1569
   37MOL0     C 4913   8.238   6.538   3.782  0.4725  0.4636  0.3719
   37MOL0     C 4914   8.366   6.494   3.773 -0.0049  0.5003 -1.0615
   37MOL0     C 4915   8.717   6.343   3.492  0.1066 -0.2571 -0.0879
   37MOL0     C 4916   8.776   6.353   3.363  0.0375 -0.6510  0.3877
   37MOL0     C 4917   8.883   6.282   3.319  0.0654  0.4930 -0.2113
   37MOL0     C 4918   8.943   6.194   3.409 -1.3061  0.4834  0.0155
   37MOL0     O 4919   9.055   6.135   3.361  0.7048 -0.3228 -0.1969
   37MOL0     C 4920   9.176   6.161   3.427 -0.3321  0.1383  0.1314
   37MOL0     C 4921   9.289   6.148   3.319  1.0119  0.0485  0.0433
   37MOL0     C 4922   9.308   6.009   3.261  0.0762 -0.4663  0.8400
   37MOL0     C 4923   9.389   6.005   3.137 -0.3539 -0.1744 -0.0078
   37MOL0     C 4924   9.522   6.073   3.139  0.2781 -0.2756 -0.5397
   37MOL0     C 4925   9.632   6.130   3.148 -0.4229  0.3062 -0.2126
   37MOL0     C 4926   8.888   6.175   3.537  0.2461  0.2325  1.2481
   37MOL0     C 4927   8.772   6.251   3.579  0.2806 -0.4064 -0.7288
   37MOL0     H 4928   8.358   6.406   3.453  0.2727 -0.5729  1.5643
   37MOL0     H 4929   8.117   6.471   3.474  1.5158 -1.2303 -1.1186
   37MOL0     H 4930   7.895   6.595   3.551  1.7688 -0.4256  0.3809
   37MOL0     H 4931   7.911   6.442   3.643  1.4882  0.0810  0.4760
   37MOL0     H 4932   7.805   6.575   3.831  4.5367  0.7625 -0.6401
   37MOL0     H 4933   7.760   6.700   3.716  2.0442  0.0669 -0.1701
   37MOL0     H 4934   7.661   6.551   3.562 -2.1485  0.4046  0.1831
   37MOL0     H 4935   7.682   6.407   3.661  1.8767  0.1930 -0.8339
   37MOL0     H 4936   7.531   6.528   3.841 -0.9247 -1.7669 -0.2152
   37MOL0     H 4937   7.515   6.657   3.726 -1.7904 -0.2838 -0.1618
   37MOL0     H 4938   7.320   6.492   3.700 -1.7870 -0.2977 -2.1414
   37MOL0     H 4939   7.424   6.496   3.562  1.8534 -0.0639 -0.1264
   37MOL0     H 4940   7.346   6.271   3.619 -2.0015  0.0874  1.9763
   37MOL0     H 4941   7.518   6.273   3.625 -0.9440 -1.3688 -1.7952
   37MOL0     H 4942   7.520   6.309   3.862  0.2884 -1.4350 -0.0188
   37MOL0     H 4943   7.345   6.334   3.872 -0.2595 -0.6178 -0.5201
   37MOL0     H 4944   7.440   6.088   3.948  0.1078 -1.4781  0.1091
   37MOL0     H 4945   7.436   6.075   3.771  2.2546  1.9903  0.0198
   37MOL0     H 4946   7.201   6.162   4.081  1.7058  1.7633 -0.6516
   37MOL0     H 4947   6.954   6.197   4.107  0.6759 -1.3560 -0.2603
   37MOL0     H 4948   6.858   6.222   3.958 -2.9590 -1.6056 -0.4810
   37MOL0     H 4949   6.786   6.057   4.149  0.7931 -2.3033  1.4774
   37MOL0     H 4950   6.923   5.951   4.105 -1.3643 -1.0217  1.7890
   37MOL0     H 4951   6.751   5.852   4.021 -2.1996  0.9183  2.1258
   37MOL0     H 4952   6.859   5.914   3.897  0.0440  1.9296  0.4885
   37MOL0     H 4953   6.706   6.057   3.808 -1.1161  3.8733  0.2046
   37MOL0     H 4954   6.628   6.094   3.956  1.1556  0.1801 -0.2489
   37MOL0     H 4955   6.468   6.141   3.818  1.8737 -1.1650  3.1540
   37MOL0     H 4956   6.142   6.259   3.834 -0.2561  0.9072 -0.9176
   37MOL0     H 4957   6.300   6.304   3.778 -1.9534  1.3424  0.0205
   37MOL0     H 4958   6.179   6.240   3.657  1.3802 -0.5948 -0.6528
   37MOL0     H 4959   5.757   6.016   3.880  0.9269 -1.3553  2.0605
   37MOL0     H 4960   5.524   6.025   3.812 -0.7228  1.0756 -1.5326
   37MOL0     H 4961   5.306   6.023   3.743 -0.9890 -2.3292  0.1150
   37MOL0     H 4962   5.374   6.097   3.598  1.1519 -0.8623 -0.3788
   37MOL0     H 4963   5.145   5.911   3.627  2.8734  0.5801  1.1059
   37MOL0     H 4964   5.128   6.095   3.641 -0.2492  0.2332  0.5634
   37MOL0     H 4965   5.247   5.936   3.411  0.3357  0.5746 -1.4845
   37MOL0     H 4966   5.188   6.101   3.380 -1.3384 -1.3155 -1.5746
   37MOL0     H 4967   5.018   5.853   3.419 -1.4828  0.6067 -0.6568
   37MOL0     H 4968   4.958   6.022   3.435  0.3263  0.7798 -1.6414
   37MOL0     H 4969   5.098   5.927   3.195  0.6106 -0.6814  0.6485
   37MOL0     H 4970   5.008   6.080   3.213  1.1738 -0.6520 -2.3821
   37MOL0     H 4971   4.817   5.885   3.268  1.7330 -2.8702  0.1145
   37MOL0     H 4972   4.835   5.969   3.110  4.4187  3.8324  0.9148
   37MOL0     H 4973   4.994   5.783   3.032 -0.8715  0.6564 -0.7333
   37MOL0     H 4974   4.828   5.740   3.059  0.7880 -0.9405  0.2418
   37MOL0     H 4975   5.033   5.666   3.268 -0.6259  1.3747  0.3407
   37MOL0     H 4976   4.937   5.555   3.156 -2.8299  1.7815 -2.7140
   37MOL0     H 4977   5.594   5.722   3.514  0.5325  0.6029 -1.7213
   37MOL0     H 4978   5.829   5.724   3.564  1.8941  1.2649  0.9226
   37MOL0     H 4979   6.150   5.770   3.798  0.6113 -0.6056 -0.7766
   37MOL0     H 4980   6.393   5.739   3.857  4.8526  2.1561  1.3510
   37MOL0     H 4981   8.190   6.575   3.872 -2.1199  4.4067 -2.2908
   37MOL0     H 4982   8.433   6.508   3.857 -0.9953 -0.5847 -0.0621
   37MOL0     H 4983   8.744   6.426   3.290 -0.1829  0.6110  1.6840
   37MOL0     H 4984   8.923   6.280   3.218  0.8879  0.1339  0.1052
   37MOL0     H 4985   9.188   6.260   3.473  0.7883 -0.0085  0.1785
   37MOL0     H 4986   9.188   6.087   3.507 -0.7839 -1.3386 -1.1034
   37MOL0     H 4987   9.388   6.170   3.359 -0.0915 -0.3571  3.2493
   37MOL0     H 4988   9.258   6.218   3.241 -1.9700 -2.6487 -1.4060
   37MOL0     H 4989   9.208   5.978   3.228 -0.6718  0.6352  1.9828
   37MOL0     H 4990   9.347   5.937   3.333  0.7306 -1.7783 -0.7438
   37MOL0     H 4991   9.350   6.059   3.051  1.0517 -0.7047 -1.0213
   37MOL0     H 4992   9.405   5.902   3.104  1.0161  0.3301 -1.0370
   37MOL0     H 4993   9.733   6.166   3.148 -1.0883  2.3265 -1.6729
   37MOL0     H 4994   8.930   6.098   3.602 -2.8000 -2.3023  0.4624
   37MOL0     H 4995   8.733   6.239   3.679  2.4255  0.0370  0.2150
   38MOL0     O 4996   1.478   5.989   1.163  1.0261 -0.3983 -0.7474
   38MOL0     C 4997   1.467   5.985   1.290 -0.0458 -0.9066  0.2933
   38MOL0     O 4998   1.371   6.060   1.359 -0.5834 -0.1801  0.3789
   38MOL0     C 4999   1.271   6.107   1.283 -0.7694 -0.2237  0.2747
   38MOL0     C 5000   1.154   6.034   1.258  0.5351  0.8519 -0.6317
   38MOL0     C 5001   1.059   6.083   1.169 -0.0660  0.4845  0.4036
   38MOL0     C 5002   1.078   6.201   1.099  0.0515  0.1836 -0.5000
   38MOL0     O 5003   0.975   6.245   1.018  0.5013 -0.3697 -0.7531
   38MOL0     C 5004   0.856   6.263   1.100 -0.8232  0.3137  0.2923
   38MOL0     C 5005   0.768   6.373   1.032 -0.4031  0.0951 -0.0232
   38MOL0     C 5006   0.652   6.406   1.113  0.7926  0.0031  0.0292
   38MOL0     C 5007   0.566   6.286   1.144 -1.2452  0.3686 -0.3814
   38MOL0     C 5008   0.422   6.317   1.162  0.1856  0.5542  0.4090
   38MOL0     C 5009   0.343   6.210   1.242  0.2613  0.5022  0.1946
   38MOL0     C 5010   0.322   6.077   1.162 -0.4490  0.2932 -0.0847
   38MOL0     C 5011   0.224   5.995   1.245 -0.3485  0.1987 -0.0681
   38MOL0     N 5012   0.181   5.872   1.171  0.5479 -0.6735 -0.1226
   38MOL0     C 5013   0.102   5.871   1.061 -0.0259 -0.3449  0.2997
   38MOL0     C 5014   0.084   5.744   1.021 -0.0183  0.0490 -0.2923
   38MOL0     C 5015   0.010   5.688   0.905 -0.1296  0.9232 -0.8779
   38MOL0     C 5016   0.098   5.617   0.796  1.0772 -0.0691  0.0134
   38MOL0     C 5017   0.144   5.478   0.837 -0.2271 -0.6283 -0.4514
   38MOL0     C 5018   0.218   5.395   0.724 -1.0503 -0.1032  0.3532
   38MOL0     O 5019   0.338   5.460   0.692 -0.2506  0.1831 -0.7321
   38MOL0     C 5020   0.446   5.424   0.773 -1.2155  0.3235  0.3392
   38MOL0     C 5021   0.565   5.459   0.727 -0.8235  1.2379  0.0991
   38MOL0     C 5022   0.684   5.431   0.799  0.0884  0.0606  0.7877
   38MOL0     C 5023   0.803   5.484   0.746 -0.6152  0.3625  0.3921
   38MOL0     C 5024   0.673   5.360   0.920 -0.4482  1.0844 -0.4276
   38MOL0     C 5025   0.789   5.328   1.007 -1.0173 -0.3125 -0.1851
   38MOL0     O 5026   0.905   5.268   0.956 -0.0185 -0.1556 -0.4386
   38MOL0     C 5027   0.998   5.206   1.039  0.1101  0.2052  1.0739
   38MOL0     C 5028   0.962   5.101   1.127  0.5178  0.0919  0.6456
   38MOL0     C 5029   1.063   5.041   1.210 -0.1675 -0.0311  0.1681
   38MOL0     C 5030   1.201   5.072   1.201 -0.2141 -0.4009  0.2239
   38MOL0     O 5031   1.296   5.030   1.293 -0.0629 -0.6181  0.6695
   38MOL0     C 5032   1.269   4.991   1.423 -0.0667  0.0070  0.2908
   38MOL0     C 5033   1.390   4.951   1.500 -0.4733  0.2407  0.5720
   38MOL0     C 5034   1.356   4.901   1.639 -0.0991  0.9240 -0.3363
   38MOL0     C 5035   1.463   4.812   1.692  0.5381 -0.2874  0.4543
   38MOL0     C 5036   1.442   4.787   1.849  0.5628  0.7481  0.0845
   38MOL0     C 5037   1.535   4.671   1.901 -0.0256 -0.4075  0.7023
   38MOL0     C 5038   1.508   4.535   1.839 -0.3539 -0.1902  0.2740
   38MOL0     C 5039   1.593   4.427   1.896  0.3345 -0.1238 -0.0783
   38MOL0    Cl 5040   1.761   4.439   1.838  0.2088 -0.1106 -0.1907
   38MOL0     C 5041   1.228   5.167   1.101 -0.2090  0.5334 -0.4141
   38MOL0     C 5042   1.137   5.231   1.023 -0.0762 -0.9668  0.0670
   38MOL0     O 5043   0.773   5.368   1.120  0.2263  0.0356  0.0014
   38MOL0     C 5044   0.547   5.326   0.967  0.5537  0.3160  0.2226
   38MOL0     C 5045   0.434   5.354   0.888  0.4530 -0.4600 -0.9745
   38MOL0     N 5046   0.143   5.663   1.121 -0.1481 -0.7279  0.0527
   38MOL0     N 5047   0.201   5.741   1.207 -0.9728  0.0252 -0.7361
   38MOL0     C 5048   1.190   6.280   1.124 -0.4163  0.6483  0.7764
   38MOL0     C 5049   1.285   6.230   1.215 -0.2723 -0.1661 -0.5120
   38MOL0     C 5050   1.567   5.900   1.361 -0.7129  0.9068 -0.0588
   38MOL0     C 5051   1.689   5.852   1.302  0.5948 -0.5636 -0.4063
   38MOL0     C 5052   1.783   5.779   1.373  0.0385  0.1569  0.0951
   38MOL0     C 5053   1.750   5.737   1.502  0.2523  0.5180 -0.0387
   38MOL0     O 5054   1.849   5.664   1.562  0.3385 -0.9031  0.4954
   38MOL0     C 5055   1.866   5.660   1.709  0.1390  0.3588  0.0839
   38MOL0     C 5056   1.909   5.794   1.771  0.3247  0.0654  0.0416
   38MOL0     C 5057   2.052   5.848   1.730  0.6254  0.1255  0.0556
   38MOL0     C 5058   2.074   5.980   1.791 -0.7575 -0.2143  0.0161
   38MOL0     C 5059   2.202   6.041   1.770  0.1621  0.2428  0.7714
   38MOL0     C 5060   2.319   6.079   1.772  0.1655 -0.2974 -0.4014
   38MOL0     C 5061   1.632   5.785   1.559  0.6179 -0.1144 -0.2159
   38MOL0     C 5062   1.536   5.864   1.490 -0.5461  0.5981 -0.2010
   38MOL0     H 5063   1.159   5.935   1.303  3.9020  0.7031 -1.0360
   38MOL0     H 5064   0.975   6.017   1.149  2.1108 -1.5753 -2.8919
   38MOL0     H 5065   0.807   6.166   1.101  1.8131 -1.1443 -1.4367
   38MOL0     H 5066   0.903   6.298   1.192 -1.4951  2.0150  0.0378
   38MOL0     H 5067   0.831   6.461   1.014  0.2924 -0.7180 -1.8379
   38MOL0     H 5068   0.733   6.326   0.939 -0.1807  0.0119 -0.0654
   38MOL0     H 5069   0.697   6.449   1.203  2.8204  1.5818 -1.6337
   38MOL0     H 5070   0.595   6.483   1.060  1.8483 -0.5085 -1.9619
   38MOL0     H 5071   0.576   6.200   1.077 -3.2006 -1.4473  1.5071
   38MOL0     H 5072   0.609   6.241   1.235  1.5160  2.5478 -0.4906
   38MOL0     H 5073   0.411   6.412   1.214 -0.0025  2.1797 -2.4384
   38MOL0     H 5074   0.372   6.337   1.067 -2.5446  2.4787  2.1138
   38MOL0     H 5075   0.392   6.189   1.337  2.5560 -1.6429 -1.3382
   38MOL0     H 5076   0.245   6.250   1.269 -0.5113 -2.6666  2.7281
   38MOL0     H 5077   0.290   6.090   1.058 -1.4393 -0.2803  0.1333
   38MOL0     H 5078   0.418   6.024   1.159 -0.0053  1.0535 -3.3872
   38MOL0     H 5079   0.135   6.054   1.272 -1.2073  0.8267 -3.7142
   38MOL0     H 5080   0.277   5.974   1.338 -1.2520  2.0147  0.9161
   38MOL0     H 5081   0.059   5.951   1.001  2.4451  0.5022 -0.4713
   38MOL0     H 5082  -0.060   5.618   0.952  0.1165  1.5824  0.4918
   38MOL0     H 5083  -0.045   5.765   0.850 -0.3139 -0.9068 -3.4652
   38MOL0     H 5084   0.181   5.684   0.774  0.4442  0.8727  0.4379
   38MOL0     H 5085   0.031   5.612   0.710  0.4536 -1.9204  0.5552
   38MOL0     H 5086   0.054   5.422   0.864  0.2761 -1.5216 -0.5888
   38MOL0     H 5087   0.207   5.497   0.924  2.5349 -1.6887 -2.1010
   38MOL0     H 5088   0.156   5.401   0.635 -1.3372 -0.5184  0.5233
   38MOL0     H 5089   0.219   5.289   0.751  0.0039  0.1032  1.1908
   38MOL0     H 5090   0.571   5.515   0.634 -1.2883 -0.2664 -0.8707
   38MOL0     H 5091   0.849   5.539   0.828  0.9852 -0.8917  0.3722
   38MOL0     H 5092   0.863   5.400   0.709 -0.8356 -0.0454  0.9542
   38MOL0     H 5093   0.791   5.558   0.666 -0.8138 -0.1751 -0.0848
   38MOL0     H 5094   0.862   5.072   1.155 -0.4669  3.4711  1.0714
   38MOL0     H 5095   1.035   4.980   1.295  0.4197 -2.8838 -1.5331
   38MOL0     H 5096   1.206   5.071   1.464 -2.7963  0.0546 -3.4468
   38MOL0     H 5097   1.198   4.908   1.413  1.4798 -1.8919  3.3379
   38MOL0     H 5098   1.438   4.870   1.446  1.5901  0.8115  1.4351
   38MOL0     H 5099   1.469   5.027   1.493 -0.0651 -0.2413 -0.2366
   38MOL0     H 5100   1.260   4.851   1.650  1.2904 -1.7988  0.4200
   38MOL0     H 5101   1.350   4.988   1.705  1.5284  0.6280  0.2673
   38MOL0     H 5102   1.475   4.726   1.625 -0.3526  0.6387 -0.9531
   38MOL0     H 5103   1.561   4.861   1.695  1.2473 -1.6041 -0.2910
   38MOL0     H 5104   1.340   4.748   1.856  1.1085 -0.4225  2.9173
   38MOL0     H 5105   1.447   4.877   1.912 -1.2957  0.4168  0.7563
   38MOL0     H 5106   1.638   4.705   1.884 -0.8097  0.3988 -3.6569
   38MOL0     H 5107   1.540   4.667   2.010  0.6565  0.2557  0.7013
   38MOL0     H 5108   1.528   4.525   1.732 -1.4201 -0.3361  0.0762
   38MOL0     H 5109   1.409   4.497   1.868  0.9243 -3.2509  1.0190
   38MOL0     H 5110   1.562   4.332   1.853  0.3023 -0.4925  0.7501
   38MOL0     H 5111   1.587   4.407   2.003  0.8142 -0.3507 -0.0931
   38MOL0     H 5112   1.332   5.199   1.100 -0.5836  1.8905  1.0196
   38MOL0     H 5113   1.171   5.316   0.966  2.3580 -0.3105  2.2868
   38MOL0     H 5114   0.531   5.264   1.054 -2.5301  0.0485 -0.4203
   38MOL0     H 5115   0.338   5.325   0.930 -0.4405  1.4063 -1.6312
   38MOL0     H 5116   1.209   6.373   1.072 -5.3813  1.5435  0.0887
   38MOL0     H 5117   1.359   6.300   1.249 -1.2901 -0.9172  3.7920
   38MOL0     H 5118   1.725   5.881   1.204  2.8050 -3.9241 -0.7408
   38MOL0     H 5119   1.874   5.749   1.322 -0.3644 -0.5575 -0.2253
   38MOL0     H 5120   1.777   5.626   1.763  0.6423 -1.9306 -0.4297
   38MOL0     H 5121   1.946   5.587   1.717  0.0351 -0.0817 -2.2765
   38MOL0     H 5122   1.903   5.781   1.879 -2.5259  1.7028  0.1803
   38MOL0     H 5123   1.825   5.865   1.766 -1.5362 -1.9367  0.9873
   38MOL0     H 5124   2.058   5.854   1.621  3.8620 -0.5975  0.0890
   38MOL0     H 5125   2.123   5.772   1.763  2.1219  1.3428 -0.2718
   38MOL0     H 5126   2.062   5.969   1.899 -0.2626 -1.0650 -0.0050
   38MOL0     H 5127   2.001   6.059   1.769  0.0348  1.3942  2.6559
   38MOL0     H 5128   2.421   6.110   1.779 -0.1302  1.0109 -1.5141
   38MOL0     H 5129   1.595   5.762   1.659  0.2202  0.2633 -0.2712
   38MOL0     H 5130   1.442   5.896   1.534 -0.7745 -1.4565  0.9624
   39MOL0     O 5131  10.509   0.606  10.643  0.0439  0.4016  0.6140
   39MOL0     C 5132  10.632   0.586  10.648  0.4089 -0.1012  0.0856
   39MOL0     O 5133  10.691   0.488  10.721  0.2646  0.4569  0.2292
   39MOL0     C 5134  10.614   0.423  10.810  0.6742 -0.0291 -0.0487
   39MOL0     C 5135  10.583   0.480  10.931 -1.3089 -0.9765 -0.2438
   39MOL0     C 5136  10.523   0.405  11.031  0.1555 -0.0067 -0.8349
   39MOL0     C 5137  10.471   0.274  11.003 -0.7868 -0.3866 -0.0940
   39MOL0     O 5138  10.372   0.226  11.091 -0.2283  0.0300 -0.1208
   39MOL0     C 5139  10.419   0.133  11.187 -0.7078  0.5926 -0.7727
   39MOL0     C 5140  10.330   0.009  11.197  0.0964  0.0685  0.1334
   39MOL0     C 5141  10.272  -0.047  11.064  0.8878 -0.1102 -0.5062
   39MOL0     C 5142  10.148  -0.137  11.097 -0.6380 -0.5108 -0.0218
   39MOL0     C 5143  10.130  -0.241  10.997 -1.0283 -0.4110 -0.3458
   39MOL0     C 5144  10.042  -0.353  11.054 -0.4620 -1.0595 -0.6681
   39MOL0     C 5145  10.010  -0.478  10.961  0.1305  0.2065  0.1176
   39MOL0     C 5146   9.908  -0.448  10.864  0.1811  0.5803  0.3167
   39MOL0     N 5147   9.785  -0.407  10.941 -0.0881  0.7712  0.4844
   39MOL0     C 5148   9.697  -0.301  10.895 -0.5109  0.8888  0.0570
   39MOL0     C 5149   9.590  -0.311  10.969  1.0579  0.0122 -0.2943
   39MOL0     C 5150   9.467  -0.216  10.951 -0.0889 -0.1625 -0.0495
   39MOL0     C 5151   9.405  -0.264  10.816 -0.3702  0.0127 -0.0021
   39MOL0     C 5152   9.267  -0.208  10.781  0.5246  0.2594 -0.0625
   39MOL0     C 5153   9.245  -0.227  10.639 -0.0017  0.0722 -0.1872
   39MOL0     O 5154   9.253  -0.364  10.608  0.3181  0.4080 -0.5015
   39MOL0     C 5155   9.208  -0.399  10.483 -1.3468  0.2666  0.2091
   39MOL0     C 5156   9.239  -0.332  10.371  0.2805  0.3879  1.3665
   39MOL0     C 5157   9.181  -0.364  10.252 -1.1878  0.3847  0.4580
   39MOL0     C 5158   9.198  -0.264  10.139  0.1163  0.3392  0.1303
   39MOL0     C 5159   9.104  -0.482  10.250  0.3767 -0.8362  0.1678
   39MOL0     C 5160   9.027  -0.515  10.123 -0.2390 -0.6670 -0.1218
   39MOL0     O 5161   8.920  -0.436  10.095  0.2612 -0.3638  0.3811
   39MOL0     C 5162   8.831  -0.467   9.996  0.4331  0.2097  0.2638
   39MOL0     C 5163   8.852  -0.533   9.877  0.2634 -0.7628  0.5400
   39MOL0     C 5164   8.748  -0.550   9.780 -0.3197  0.1290 -0.6630
   39MOL0     C 5165   8.620  -0.513   9.819  0.2063  0.0187  1.3746
   39MOL0     O 5166   8.511  -0.564   9.744  0.8580 -0.0043 -0.4094
   39MOL0     C 5167   8.520  -0.589   9.600  0.0897 -0.1394 -0.2025
   39MOL0     C 5168   8.549  -0.736   9.576  0.4941  1.0281 -0.2775
   39MOL0     C 5169   8.427  -0.829   9.606 -0.2550  0.4488 -0.6768
   39MOL0     C 5170   8.428  -0.966   9.533  0.2164  0.2826  0.1528
   39MOL0     C 5171   8.320  -1.068   9.579 -0.7120  0.2351  0.2608
   39MOL0     C 5172   8.183  -1.013   9.547 -0.0566 -0.1003 -0.0681
   39MOL0     C 5173   8.148  -0.984   9.397  0.0934 -0.0719  0.0312
   39MOL0     C 5174   8.006  -0.928   9.356 -0.2019  0.4449  0.5556
   39MOL0    Cl 5175   7.949  -0.805   9.458  0.0368 -0.0289  0.3117
   39MOL0     C 5176   8.597  -0.454   9.940 -0.5236  0.2860 -0.2746
   39MOL0     C 5177   8.701  -0.428  10.024  0.7999 -0.2367 -0.0804
   39MOL0     O 5178   9.060  -0.618  10.066  0.1242 -0.0530 -0.5787
   39MOL0     C 5179   9.082  -0.565  10.361 -1.0291  0.1355  0.1198
   39MOL0     C 5180   9.137  -0.519  10.476  0.6028 -0.9045 -0.2369
   39MOL0     N 5181   9.602  -0.413  11.051 -0.0945 -0.4260 -0.9917
   39MOL0     N 5182   9.713  -0.469  11.039 -0.1477  0.2205 -0.9345
   39MOL0     C 5183  10.499   0.215  10.875  0.0201 -0.1221  0.3149
   39MOL0     C 5184  10.575   0.293  10.785  0.0236  0.0640  0.0755
   39MOL0     C 5185  10.719   0.666  10.567  1.1380 -0.3040 -0.0727
   39MOL0     C 5186  10.685   0.800  10.527 -0.2451  0.5844  0.2867
   39MOL0     C 5187  10.760   0.883  10.445 -0.7951  0.5311 -0.9423
   39MOL0     C 5188  10.889   0.825  10.407  0.1108 -0.4777 -0.6279
   39MOL0     O 5189  10.979   0.889  10.324 -0.6277  0.7351  1.0585
   39MOL0     C 5190  10.971   1.033  10.326 -0.3279 -1.0477  0.2162
   39MOL0     C 5191  11.113   1.093  10.319  0.8286  0.0499 -0.7287
   39MOL0     C 5192  11.208   1.041  10.440  0.3356  0.4616  0.7542
   39MOL0     C 5193  11.330   1.125  10.444 -0.5263 -0.2957  0.4054
   39MOL0     C 5194  11.436   1.062  10.515  0.7013  0.4574 -0.2521
   39MOL0     C 5195  11.526   1.009  10.576  0.3229 -0.0744  1.0590
   39MOL0     C 5196  10.930   0.693  10.439  1.1728 -0.3100 -0.0950
   39MOL0     C 5197  10.842   0.615  10.519 -0.2575  0.3888  0.1464
   39MOL0     H 5198  10.612   0.580  10.963 -0.3000 -1.8432  1.7848
   39MOL0     H 5199  10.493   0.447  11.127  0.1890  2.4857 -1.8221
   39MOL0     H 5200  10.523   0.103  11.169 -0.2424  1.1122  0.8294
   39MOL0     H 5201  10.430   0.181  11.285  1.4796 -2.7561  0.8276
   39MOL0     H 5202  10.388  -0.061  11.259 -4.6761 -0.2372  4.9560
   39MOL0     H 5203  10.242   0.040  11.253 -0.9957  0.4642 -1.7107
   39MOL0     H 5204  10.227   0.035  11.007 -0.6056 -0.0462  0.6956
   39MOL0     H 5205  10.347  -0.089  10.996 -0.9270 -2.3029 -1.3069
   39MOL0     H 5206  10.164  -0.165  11.202 -2.2984  0.2246  0.4612
   39MOL0     H 5207  10.056  -0.078  11.100  0.2200  1.1535 -2.6160
   39MOL0     H 5208  10.098  -0.201  10.901  0.9118 -0.3712 -1.0234
   39MOL0     H 5209  10.231  -0.275  10.970  0.0177  0.6840  1.9494
   39MOL0     H 5210  10.083  -0.393  11.147 -0.7918 -0.0712 -0.0759
   39MOL0     H 5211   9.958  -0.294  11.092  0.8496  0.2059  0.3950
   39MOL0     H 5212  10.099  -0.498  10.900 -0.3962  0.9386 -0.9194
   39MOL0     H 5213   9.978  -0.570  11.012 -0.0280 -1.6789 -3.0882
   39MOL0     H 5214   9.894  -0.535  10.800  1.0891 -1.3035  2.5150
   39MOL0     H 5215   9.947  -0.359  10.814  0.8627  0.2921  0.3271
   39MOL0     H 5216   9.694  -0.232  10.812 -2.1539  1.6561  0.7145
   39MOL0     H 5217   9.400  -0.216  11.037  0.9416  4.5017  1.0276
   39MOL0     H 5218   9.503  -0.114  10.941  1.8187 -0.7498  0.3883
   39MOL0     H 5219   9.397  -0.372  10.828 -0.3178 -0.0577 -0.5752
   39MOL0     H 5220   9.474  -0.261  10.732  3.8373  3.2315  3.1274
   39MOL0     H 5221   9.270  -0.101  10.801  4.6686  0.4047 -0.6314
   39MOL0     H 5222   9.198  -0.256  10.852  2.2673 -0.1791  1.4273
   39MOL0     H 5223   9.331  -0.186  10.586  0.5650 -0.4890  0.2865
   39MOL0     H 5224   9.154  -0.177  10.604 -0.4088 -0.9430 -0.6115
   39MOL0     H 5225   9.296  -0.240  10.381 -0.3031  0.7780  1.2075
   39MOL0     H 5226   9.147  -0.303  10.050  0.0455  1.1593 -0.2022
   39MOL0     H 5227   9.164  -0.166  10.176 -0.8774 -0.2556  0.8478
   39MOL0     H 5228   9.302  -0.245  10.111  0.7204  2.2784  3.1431
   39MOL0     H 5229   8.949  -0.577   9.853  0.6508  0.9141 -1.2663
   39MOL0     H 5230   8.774  -0.583   9.679 -0.3747  1.5830 -1.1706
   39MOL0     H 5231   8.423  -0.556   9.561 -0.6765 -1.3451  0.6139
   39MOL0     H 5232   8.596  -0.521   9.560 -0.9194  0.2752 -1.4686
   39MOL0     H 5233   8.577  -0.766   9.474  0.4170 -5.6843  1.2418
   39MOL0     H 5234   8.638  -0.770   9.630  0.4403 -0.0917 -0.8567
   39MOL0     H 5235   8.339  -0.772   9.576 -1.0150 -0.7922 -0.8757
   39MOL0     H 5236   8.422  -0.852   9.713  1.1609 -1.5129 -0.9752
   39MOL0     H 5237   8.431  -0.941   9.427  2.9694  1.2874  0.3825
   39MOL0     H 5238   8.524  -1.017   9.552 -0.5744 -0.7237  1.6738
   39MOL0     H 5239   8.340  -1.095   9.683 -0.2436 -1.9674 -0.3448
   39MOL0     H 5240   8.338  -1.162   9.526  0.0992 -0.7210  2.1221
   39MOL0     H 5241   8.104  -1.072   9.593 -1.9348  1.8450 -0.6535
   39MOL0     H 5242   8.171  -0.915   9.596  1.8739  0.5131 -0.7052
   39MOL0     H 5243   8.163  -1.070   9.331 -1.8176  0.9628 -1.8750
   39MOL0     H 5244   8.229  -0.916   9.369  1.8233 -0.9772  2.5534
   39MOL0     H 5245   7.941  -1.015   9.350  1.2112 -0.5595 -3.7237
   39MOL0     H 5246   8.010  -0.888   9.255 -4.8230  1.1597  0.4279
   39MOL0     H 5247   8.497  -0.427   9.973 -0.1986  1.1267  0.0614
   39MOL0     H 5248   8.681  -0.374  10.116  2.7904 -2.9576  2.1550
   39MOL0     H 5249   9.014  -0.649  10.351 -2.2025  0.9175  1.2296
   39MOL0     H 5250   9.121  -0.573  10.569  4.6155 -1.0009  0.5649
   39MOL0     H 5251  10.461   0.118  10.846 -3.0973 -0.7001  5.1181
   39MOL0     H 5252  10.606   0.249  10.691  2.0319  0.8841  0.3096
   39MOL0     H 5253  10.591   0.842  10.562  0.4365  1.2096  1.4327
   39MOL0     H 5254  10.723   0.981  10.415  0.9286  1.3694 -0.4544
   39MOL0     H 5255  10.919   1.070  10.237  1.0980 -0.8523 -0.5765
   39MOL0     H 5256  10.918   1.073  10.413 -0.7184 -3.6772  1.2806
   39MOL0     H 5257  11.104   1.202  10.320 -0.1969 -0.0069 -1.8920
   39MOL0     H 5258  11.162   1.068  10.225 -0.6326 -2.2297 -0.9588
   39MOL0     H 5259  11.242   0.938  10.423 -0.4037  0.8105 -4.4148
   39MOL0     H 5260  11.155   1.055  10.535 -0.2944  1.4938  0.2647
   39MOL0     H 5261  11.323   1.228  10.480  1.6485 -0.0950  0.3839
   39MOL0     H 5262  11.378   1.135  10.347 -0.1071  0.5083  0.6841
   39MOL0     H 5263  11.611   0.969  10.629  1.3575 -0.4094 -0.7800
   39MOL0     H 5264  11.026   0.649  10.416  2.9356  2.3411  1.6348
   39MOL0     H 5265  10.877   0.519  10.557 -2.2730 -1.1532 -1.6305
   40MOL0     O 5266  10.777   9.685   6.075 -0.5031 -0.0270  0.6313
   40MOL0     C 5267  10.806   9.717   5.962 -0.9875  0.0657  0.7544
   40MOL0     O 5268  10.720   9.781   5.872  0.5239 -0.0487 -0.4275
   40MOL0     C 5269  10.580   9.783   5.898 -0.3519  0.3437  0.1901
   40MOL0     C 5270  10.509   9.879   5.833  0.1375  1.1511 -0.9357
   40MOL0     C 5271  10.365   9.881   5.844 -0.5478 -0.3226  0.2064
   40MOL0     C 5272  10.296   9.808   5.940  0.1643  0.3152  0.1042
   40MOL0     O 5273  10.166   9.828   5.974  0.3873  0.5310  0.2785
   40MOL0     C 5274  10.098   9.720   6.041 -0.5847  1.2740  0.4090
   40MOL0     C 5275   9.945   9.736   6.047  0.9328 -0.7123 -0.2600
   40MOL0     C 5276   9.901   9.774   5.900  0.4315  0.4118 -0.3301
   40MOL0     C 5277   9.752   9.788   5.887 -0.3861  0.0529 -0.1174
   40MOL0     C 5278   9.713   9.784   5.738 -0.0481 -0.0180  0.6688
   40MOL0     C 5279   9.568   9.848   5.720  0.2364 -1.2288  0.3156
   40MOL0     C 5280   9.523   9.862   5.570 -0.2549 -0.7113  0.5383
   40MOL0     C 5281   9.372   9.921   5.557  0.5541 -0.3232 -0.4466
   40MOL0     N 5282   9.327   9.940   5.420 -0.4701  0.4039  0.3288
   40MOL0     C 5283   9.399   9.934   5.302  0.6911  0.8849 -0.8210
   40MOL0     C 5284   9.318   9.960   5.200 -0.7943 -0.0149  0.1790
   40MOL0     C 5285   9.350   9.995   5.060  0.2196  0.2108 -0.0896
   40MOL0     C 5286   9.400   9.879   4.972  0.4842 -0.2302  0.0109
   40MOL0     C 5287   9.288   9.792   4.922 -0.8397  0.1489 -0.4582
   40MOL0     C 5288   9.220   9.835   4.791 -0.2673 -0.0587  0.0251
   40MOL0     O 5289   9.161   9.710   4.739 -0.5659  0.4314  0.4147
   40MOL0     C 5290   9.131   9.720   4.603 -0.5271  0.2688 -0.2221
   40MOL0     C 5291   9.104   9.605   4.526  0.7463 -0.2344 -0.6410
   40MOL0     C 5292   9.066   9.600   4.397  0.2978 -0.0787 -0.1733
   40MOL0     C 5293   9.040   9.467   4.328  0.2855 -0.3112  0.2790
   40MOL0     C 5294   9.060   9.720   4.320  0.9164 -0.4290 -0.1638
   40MOL0     C 5295   9.011   9.735   4.179  0.1377 -0.3943 -0.2794
   40MOL0     O 5296   8.969   9.864   4.142  0.0641  0.6150 -0.1062
   40MOL0     C 5297   8.935   9.899   4.016 -0.1589  0.0079 -0.5644
   40MOL0     C 5298   8.802   9.906   3.986 -0.8538 -0.1001 -0.1815
   40MOL0     C 5299   8.756   9.944   3.862  0.2162  0.5514 -0.1306
   40MOL0     C 5300   8.856   9.972   3.765  0.0660 -0.2883 -0.7599
   40MOL0     O 5301   8.821  10.029   3.643 -0.2864 -1.1059 -0.8784
   40MOL0     C 5302   8.689  10.086   3.625  0.3320  0.0262 -0.1782
   40MOL0     C 5303   8.674  10.170   3.500 -0.8045 -0.2711 -0.3116
   40MOL0     C 5304   8.759  10.296   3.492 -0.3202 -0.2676  0.0668
   40MOL0     C 5305   8.756  10.364   3.347 -0.4907  0.0660 -0.0945
   40MOL0     C 5306   8.842  10.294   3.235 -0.0741 -0.9791 -0.0596
   40MOL0     C 5307   8.832  10.345   3.089  0.2099  0.0106 -0.4544
   40MOL0     C 5308   8.937  10.263   3.006  0.0659 -0.2676  0.4423
   40MOL0     C 5309   8.947  10.292   2.857  0.2782 -0.0682 -0.2585
   40MOL0    Cl 5310   9.020  10.451   2.822 -0.0883  0.0003 -0.6701
   40MOL0     C 5311   8.990   9.969   3.791  0.1354  0.8204  0.1885
   40MOL0     C 5312   9.033   9.920   3.918 -0.2536  0.9887  0.1791
   40MOL0     O 5313   9.001   9.637   4.108 -0.2357  0.0939  0.0041
   40MOL0     C 5314   9.105   9.835   4.392  0.5217  0.5185  0.2576
   40MOL0     C 5315   9.134   9.839   4.528  0.3094 -0.8269  0.5604
   40MOL0     N 5316   9.191   9.956   5.255 -0.1984 -0.5267 -0.3645
   40MOL0     N 5317   9.198   9.946   5.387 -0.3327 -0.0569 -0.3367
   40MOL0     C 5318  10.370   9.708   6.007 -0.2524  0.1473 -0.9230
   40MOL0     C 5319  10.508   9.697   5.987 -0.2769 -0.8090  0.1103
   40MOL0     C 5320  10.944   9.691   5.912  0.0234  0.3804  1.2415
   40MOL0     C 5321  11.047   9.640   5.994  0.7432 -0.3126  0.5527
   40MOL0     C 5322  11.172   9.604   5.941 -0.8215 -0.2196 -0.3307
   40MOL0     C 5323  11.193   9.607   5.802  0.1272  0.3438 -0.6165
   40MOL0     O 5324  11.307   9.570   5.737 -0.1270 -0.0275  0.0128
   40MOL0     C 5325  11.433   9.605   5.796  0.5788  0.1265  0.6478
   40MOL0     C 5326  11.458   9.754   5.794  0.9100  1.0908 -0.3423
   40MOL0     C 5327  11.602   9.778   5.769  0.5764  0.0801 -0.4411
   40MOL0     C 5328  11.653   9.875   5.881  0.4207 -0.5333 -0.5131
   40MOL0     C 5329  11.795   9.906   5.866 -0.0523 -0.2283  0.3015
   40MOL0     C 5330  11.911   9.912   5.846 -0.2338  0.6002 -0.1772
   40MOL0     C 5331  11.089   9.648   5.726  0.8705 -0.6133  0.7645
   40MOL0     C 5332  10.976   9.703   5.776  0.0853  0.1949  0.1594
   40MOL0     H 5333  10.553   9.947   5.761  1.4648  1.1804 -0.1280
   40MOL0     H 5334  10.324   9.954   5.776  0.6546 -2.2590 -2.8208
   40MOL0     H 5335  10.110   9.630   5.980 -0.2240 -0.4954  2.9377
   40MOL0     H 5336  10.135   9.695   6.141 -0.2916  0.2900  0.0656
   40MOL0     H 5337   9.888   9.647   6.076 -1.7877  1.1735  0.6653
   40MOL0     H 5338   9.914   9.808   6.124 -0.3228 -2.8448  1.3492
   40MOL0     H 5339   9.945   9.869   5.869 -1.7739  1.4678 -0.4741
   40MOL0     H 5340   9.929   9.689   5.837  2.1228 -0.6137  1.7055
   40MOL0     H 5341   9.698   9.706   5.936 -0.8966 -0.3437 -1.3064
   40MOL0     H 5342   9.712   9.883   5.922 -0.1833 -0.1210  0.6155
   40MOL0     H 5343   9.786   9.842   5.681 -0.8806  1.7671  1.3435
   40MOL0     H 5344   9.714   9.682   5.699  2.0034  0.0779  0.3524
   40MOL0     H 5345   9.483   9.791   5.760 -0.5968  0.2611  0.7352
   40MOL0     H 5346   9.562   9.952   5.753 -0.0408 -0.9287 -0.6438
   40MOL0     H 5347   9.595   9.934   5.529 -1.4150 -0.4260 -1.0848
   40MOL0     H 5348   9.523   9.766   5.517 -5.0807 -0.5149 -0.2715
   40MOL0     H 5349   9.373  10.016   5.611  0.0159 -1.1400  1.0702
   40MOL0     H 5350   9.291   9.866   5.605 -2.0840  2.8313 -0.9403
   40MOL0     H 5351   9.506   9.944   5.311  0.8003  0.5948 -1.7213
   40MOL0     H 5352   9.270  10.047   5.007  1.2476 -0.4358 -2.4076
   40MOL0     H 5353   9.429  10.070   5.061  0.1123  0.3238  0.2394
   40MOL0     H 5354   9.471   9.820   5.030  3.8220  1.4285 -2.1052
   40MOL0     H 5355   9.458   9.915   4.887 -1.2150  0.8684 -0.7429
   40MOL0     H 5356   9.218   9.782   5.006 -0.6337  0.5362 -0.2359
   40MOL0     H 5357   9.330   9.691   4.913 -2.8104 -0.7043 -0.5846
   40MOL0     H 5358   9.303   9.872   4.730  1.8979 -1.3285  2.0635
   40MOL0     H 5359   9.150   9.917   4.811 -1.8095 -1.3074  0.0061
   40MOL0     H 5360   9.104   9.513   4.583 -0.6728  0.1858  0.0746
   40MOL0     H 5361   8.939   9.471   4.286  0.5110 -0.7506 -0.3235
   40MOL0     H 5362   9.105   9.443   4.244 -0.1414 -0.3186 -0.0502
   40MOL0     H 5363   9.051   9.386   4.402 -1.6440 -1.4389 -0.5971
   40MOL0     H 5364   8.730   9.879   4.063 -2.2601 -0.9274 -1.7323
   40MOL0     H 5365   8.651   9.961   3.844 -0.1586  1.5842  2.5303
   40MOL0     H 5366   8.622  10.001   3.614 -1.6571  1.5248 -0.3737
   40MOL0     H 5367   8.647  10.149   3.705  3.5702  0.9032  0.9868
   40MOL0     H 5368   8.716  10.114   3.416 -0.3902  1.3523 -1.2387
   40MOL0     H 5369   8.572  10.186   3.466 -0.0831  2.3435 -1.5474
   40MOL0     H 5370   8.864  10.271   3.509  0.3895 -0.7374 -4.0293
   40MOL0     H 5371   8.727  10.368   3.568  2.8405  2.2200 -0.7205
   40MOL0     H 5372   8.655  10.376   3.308 -1.0120 -0.7161  1.0024
   40MOL0     H 5373   8.801  10.463   3.361  2.5999 -1.3803  1.1544
   40MOL0     H 5374   8.812  10.188   3.235 -0.1620 -0.9627 -1.3117
   40MOL0     H 5375   8.947  10.299   3.266 -0.4362  0.8503  0.9968
   40MOL0     H 5376   8.734  10.324   3.044 -0.0818  0.1291  0.1133
   40MOL0     H 5377   8.867  10.448   3.077 -0.9301  0.6052  0.9910
   40MOL0     H 5378   8.928  10.154   3.016 -2.3069 -0.2266 -0.5584
   40MOL0     H 5379   9.037  10.280   3.046 -0.6473  0.0428  2.2347
   40MOL0     H 5380   8.845  10.286   2.816  0.6052  3.3181 -1.9422
   40MOL0     H 5381   9.017  10.216   2.821  0.0192  0.4042 -1.8346
   40MOL0     H 5382   9.057   9.988   3.708  0.7030  0.3595  0.5328
   40MOL0     H 5383   9.134   9.895   3.946 -0.5831 -0.8293 -0.1348
   40MOL0     H 5384   9.104   9.928   4.337  0.1387  1.1755  1.3362
   40MOL0     H 5385   9.153   9.940   4.564 -1.2074 -0.4409  0.3753
   40MOL0     H 5386  10.323   9.636   6.072 -1.5647  1.5949 -0.1914
   40MOL0     H 5387  10.558   9.615   6.037  5.0469  0.8466 -1.8006
   40MOL0     H 5388  11.018   9.641   6.098 -0.3372 -1.2155  0.2794
   40MOL0     H 5389  11.240   9.564   6.015  1.0991  1.1827 -1.2387
   40MOL0     H 5390  11.448   9.552   5.891  2.4737 -0.2229  0.1905
   40MOL0     H 5391  11.511   9.559   5.734  0.2486 -3.4459  2.5930
   40MOL0     H 5392  11.418   9.799   5.886 -0.7343  1.6976 -1.3039
   40MOL0     H 5393  11.399   9.796   5.712 -1.6091 -3.3405 -1.1212
   40MOL0     H 5394  11.617   9.812   5.666  1.4458  0.4420 -0.2083
   40MOL0     H 5395  11.666   9.690   5.769 -0.8140 -0.9714  0.9775
   40MOL0     H 5396  11.648   9.819   5.975  2.4269  0.8959  0.5072
   40MOL0     H 5397  11.583   9.959   5.882 -3.2911 -3.1915 -3.3788
   40MOL0     H 5398  12.015   9.935   5.836  0.2970 -1.9689 -1.4521
   40MOL0     H 5399  11.112   9.667   5.622  1.0773 -2.6889  0.4023
   40MOL0     H 5400  10.897   9.753   5.720  0.2764 -2.6537 -2.9956
   41MOL0     O 5401   6.004   8.622   7.958 -0.4935  0.3715  0.0826
   41MOL0     C 5402   6.126   8.613   7.962 -0.3589  0.1988 -0.4410
   41MOL0     O 5403   6.208   8.627   8.073  0.1803  0.0972 -0.1390
   41MOL0     C 5404   6.151   8.657   8.195  0.2649  0.9537 -0.8762
   41MOL0     C 5405   6.061   8.569   8.242 -0.8469  0.0271 -0.1006
   41MOL0     C 5406   5.994   8.599   8.359  0.9331  0.5362  0.0427
   41MOL0     C 5407   6.038   8.707   8.440 -0.3212  0.6012 -0.0937
   41MOL0     O 5408   5.985   8.714   8.567  0.0129 -0.5105 -0.2521
   41MOL0     C 5409   5.841   8.750   8.566  0.5902 -0.0770 -0.1465
   41MOL0     C 5410   5.766   8.677   8.674 -0.8174 -0.6371  0.0493
   41MOL0     C 5411   5.644   8.754   8.716  0.5742 -0.1148 -0.4255
   41MOL0     C 5412   5.557   8.658   8.797  0.1803 -0.4913 -0.3818
   41MOL0     C 5413   5.437   8.731   8.870 -0.1211 -0.0082  0.0116
   41MOL0     C 5414   5.313   8.748   8.798 -0.0778 -0.4608 -0.2100
   41MOL0     C 5415   5.251   8.613   8.785  0.0207  0.1216  0.1897
   41MOL0     C 5416   5.104   8.649   8.750  0.2551 -0.3762 -0.6882
   41MOL0     N 5417   5.004   8.535   8.742 -0.5476  0.6530 -0.2688
   41MOL0     C 5418   4.941   8.473   8.850  0.4626  0.2967  0.3954
   41MOL0     C 5419   4.878   8.367   8.792  0.0805  0.2715  0.1563
   41MOL0     C 5420   4.777   8.291   8.864 -0.0903 -0.1759 -0.1525
   41MOL0     C 5421   4.782   8.141   8.821  0.0717  0.1812 -0.7361
   41MOL0     C 5422   4.713   8.060   8.926  0.5679 -0.1184  0.0567
   41MOL0     C 5423   4.567   8.023   8.885 -0.4558 -0.3464 -0.4609
   41MOL0     O 5424   4.470   8.122   8.905  0.7035 -0.4012  0.1149
   41MOL0     C 5425   4.388   8.118   9.016 -0.0501 -0.7448 -0.0856
   41MOL0     C 5426   4.416   8.205   9.117  0.3072 -1.1187  0.5603
   41MOL0     C 5427   4.349   8.202   9.245 -0.1752 -0.7846  0.2803
   41MOL0     C 5428   4.403   8.301   9.357 -0.6098  0.8826  0.3500
   41MOL0     C 5429   4.245   8.104   9.263  1.2075  0.3366  0.2151
   41MOL0     C 5430   4.166   8.083   9.388 -0.3842  0.3571  0.4996
   41MOL0     O 5431   4.102   7.960   9.399  0.3711  0.1793 -0.6897
   41MOL0     C 5432   4.030   7.923   9.512 -0.6451  0.9724 -0.0171
   41MOL0     C 5433   4.024   7.989   9.632  0.3043 -0.0769 -0.2362
   41MOL0     C 5434   3.962   7.934   9.749 -0.5412 -0.7128  0.0622
   41MOL0     C 5435   3.897   7.805   9.734 -0.0913  0.3440  0.6351
   41MOL0     O 5436   3.841   7.739   9.842  0.0845  0.1255 -0.2266
   41MOL0     C 5437   3.892   7.785   9.967  0.1755  1.2123 -0.1270
   41MOL0     C 5438   3.836   7.684  10.076 -1.1532 -0.2587  0.4082
   41MOL0     C 5439   3.880   7.738  10.214  0.2923 -0.1170  0.0231
   41MOL0     C 5440   3.788   7.676  10.322  0.5030  0.0226 -0.3195
   41MOL0     C 5441   3.817   7.726  10.459  0.4971 -0.2031 -0.8151
   41MOL0     C 5442   3.702   7.667  10.543  0.4128 -0.1562 -0.6757
   41MOL0     C 5443   3.737   7.668  10.690 -0.2125  0.3068 -0.2728
   41MOL0     C 5444   3.634   7.607  10.789  0.9585  0.7085  0.4150
   41MOL0    Cl 5445   3.655   7.705  10.941  0.1193  0.1967 -0.0718
   41MOL0     C 5446   3.911   7.736   9.610  0.2704  0.3865  0.5695
   41MOL0     C 5447   3.975   7.796   9.500  0.5305  0.0526 -0.5833
   41MOL0     O 5448   4.146   8.181   9.457 -0.7907 -0.3181  0.5543
   41MOL0     C 5449   4.233   8.008   9.162  0.7774  0.6751 -0.1431
   41MOL0     C 5450   4.296   8.018   9.041 -0.5955  0.9162  0.2563
   41MOL0     N 5451   4.940   8.352   8.666  0.1323  0.7144 -0.2299
   41MOL0     N 5452   4.998   8.463   8.629 -0.4200  0.2416 -0.3535
   41MOL0     C 5453   6.136   8.795   8.392  0.1735  0.6268  0.5944
   41MOL0     C 5454   6.186   8.769   8.263  0.1575 -0.8056  0.1819
   41MOL0     C 5455   6.183   8.597   7.829 -1.7799 -0.0914  0.4999
   41MOL0     C 5456   6.108   8.599   7.701  0.3505  0.4082  0.1228
   41MOL0     C 5457   6.166   8.571   7.577  0.3543 -0.3539  0.5418
   41MOL0     C 5458   6.310   8.553   7.566 -0.2356  0.1656 -0.0222
   41MOL0     O 5459   6.383   8.546   7.447  0.7320 -0.4026  0.2985
   41MOL0     C 5460   6.314   8.520   7.329  0.0890  0.7963 -0.8320
   41MOL0     C 5461   6.273   8.378   7.315  0.0525  0.2694 -0.1918
   41MOL0     C 5462   6.181   8.362   7.196 -0.4347  0.0334  0.0700
   41MOL0     C 5463   6.112   8.223   7.199 -0.1219  0.2007  0.5837
   41MOL0     C 5464   6.199   8.111   7.199  0.2938 -0.0052  0.4890
   41MOL0     C 5465   6.298   8.043   7.185 -0.7458  0.3289  0.6434
   41MOL0     C 5466   6.384   8.559   7.682  0.1119  0.2486 -0.9903
   41MOL0     C 5467   6.322   8.580   7.811 -0.5396 -0.0126  0.3165
   41MOL0     H 5468   6.031   8.486   8.179  0.2239 -1.8562  1.7139
   41MOL0     H 5469   5.913   8.538   8.397 -2.0887  2.9394 -2.0408
   41MOL0     H 5470   5.820   8.856   8.579  1.4900  0.0204  0.6239
   41MOL0     H 5471   5.798   8.727   8.468 -0.2309  0.5254  0.0699
   41MOL0     H 5472   5.739   8.575   8.646  1.9381 -1.0353 -1.5200
   41MOL0     H 5473   5.830   8.660   8.761 -0.5345  1.1941  0.2338
   41MOL0     H 5474   5.668   8.845   8.771  2.4951 -0.0335 -1.3153
   41MOL0     H 5475   5.580   8.787   8.633 -0.6906 -3.0930 -0.7765
   41MOL0     H 5476   5.525   8.575   8.733 -0.3066  1.3350 -2.6610
   41MOL0     H 5477   5.624   8.605   8.865  1.1442 -0.5825 -1.3616
   41MOL0     H 5478   5.419   8.668   8.957 -2.3936  1.9844  1.1139
   41MOL0     H 5479   5.465   8.831   8.905 -1.0888 -0.1828  1.3361
   41MOL0     H 5480   5.248   8.814   8.856  2.2257  1.0339  0.8233
   41MOL0     H 5481   5.333   8.786   8.697  1.3195  0.0725  0.2445
   41MOL0     H 5482   5.306   8.551   8.713  1.5500 -1.4253  2.5420
   41MOL0     H 5483   5.255   8.554   8.877  2.5754 -0.5755 -0.2846
   41MOL0     H 5484   5.109   8.701   8.653 -1.6754 -0.5850 -0.9440
   41MOL0     H 5485   5.060   8.715   8.826  2.0916 -1.1245  1.1085
   41MOL0     H 5486   4.915   8.518   8.945 -0.2840  1.3988 -0.3150
   41MOL0     H 5487   4.784   8.299   8.973 -2.3739 -0.6457  0.0814
   41MOL0     H 5488   4.678   8.331   8.839  0.3600  2.8218  2.2065
   41MOL0     H 5489   4.886   8.107   8.813 -0.5744 -2.5088  1.0629
   41MOL0     H 5490   4.733   8.132   8.724 -0.9281  0.6851 -0.2963
   41MOL0     H 5491   4.716   8.100   9.028 -2.8865 -3.0628  1.5462
   41MOL0     H 5492   4.781   7.974   8.932  0.5873  0.0037  3.3782
   41MOL0     H 5493   4.536   7.931   8.935 -2.9094  1.2255  1.1328
   41MOL0     H 5494   4.574   8.000   8.778 -1.6841  0.4044 -0.7226
   41MOL0     H 5495   4.500   8.272   9.104  0.1671 -0.4459  2.7917
   41MOL0     H 5496   4.504   8.336   9.334  0.5375 -2.1779  0.2297
   41MOL0     H 5497   4.335   8.386   9.359 -4.8629 -2.1638 -0.3612
   41MOL0     H 5498   4.406   8.242   9.450 -1.7534  0.7119  0.2912
   41MOL0     H 5499   4.061   8.090   9.647  0.8824 -0.0635 -1.6366
   41MOL0     H 5500   3.969   7.986   9.843  0.6368  0.1383 -0.4633
   41MOL0     H 5501   4.000   7.784   9.986 -0.0163  1.4583  1.0718
   41MOL0     H 5502   3.851   7.884   9.988  0.0176  0.6689  2.5581
   41MOL0     H 5503   3.727   7.680  10.067 -1.0869 -2.0259 -0.1060
   41MOL0     H 5504   3.874   7.588  10.039 -1.8590 -0.8619  1.1803
   41MOL0     H 5505   3.866   7.847  10.218 -1.3934 -0.3457  2.4474
   41MOL0     H 5506   3.986   7.727  10.238  0.6691  4.4250  1.3034
   41MOL0     H 5507   3.681   7.690  10.304 -0.7836 -2.6317  3.7278
   41MOL0     H 5508   3.805   7.568  10.324 -1.5914 -0.3447  2.0559
   41MOL0     H 5509   3.827   7.834  10.452  0.9553 -0.3590 -4.1138
   41MOL0     H 5510   3.909   7.673  10.487 -0.2750 -0.2726  1.8679
   41MOL0     H 5511   3.616   7.729  10.515 -0.7907 -0.8943  1.1720
   41MOL0     H 5512   3.678   7.566  10.508 -3.0421 -0.2190  1.4254
   41MOL0     H 5513   3.758   7.769  10.727  3.7986 -0.6127  0.4363
   41MOL0     H 5514   3.830   7.614  10.714 -0.2885  0.3220  0.0569
   41MOL0     H 5515   3.660   7.502  10.808  2.3509  1.0054  0.2710
   41MOL0     H 5516   3.532   7.620  10.754  0.4643 -0.7207  1.2299
   41MOL0     H 5517   3.852   7.645   9.597  0.4341 -0.0087  2.2409
   41MOL0     H 5518   3.987   7.743   9.406 -1.3702 -0.7810 -0.3916
   41MOL0     H 5519   4.175   7.917   9.172  2.5652 -1.2363 -4.4808
   41MOL0     H 5520   4.287   7.942   8.965 -0.6046  0.6822  0.4913
   41MOL0     H 5521   6.188   8.869   8.452  3.1634  0.3749 -1.4895
   41MOL0     H 5522   6.258   8.827   8.206 -1.4280 -0.9286 -2.0944
   41MOL0     H 5523   6.000   8.606   7.693  0.3212 -1.1654 -1.5025
   41MOL0     H 5524   6.104   8.568   7.488  1.3322 -1.4940 -0.1344
   41MOL0     H 5525   6.231   8.592   7.325  0.0402  0.7579 -0.5124
   41MOL0     H 5526   6.375   8.530   7.238 -0.7734 -3.8342 -2.2043
   41MOL0     H 5527   6.223   8.345   7.407  2.3343 -4.8403 -0.4854
   41MOL0     H 5528   6.368   8.325   7.308  0.1492  0.6774 -4.0705
   41MOL0     H 5529   6.243   8.380   7.107  0.7354  0.5824  0.9660
   41MOL0     H 5530   6.106   8.441   7.197 -2.5133 -1.8602  0.2617
   41MOL0     H 5531   6.058   8.215   7.104  1.5891  1.2249 -0.5257
   41MOL0     H 5532   6.039   8.224   7.280 -2.7992  0.1458 -1.6870
   41MOL0     H 5533   6.380   7.974   7.189  0.0598  1.0259 -1.7804
   41MOL0     H 5534   6.491   8.542   7.692 -0.0358 -0.0234  0.1740
   41MOL0     H 5535   6.387   8.580   7.898  3.4168 -0.6377 -2.3751
   42MOL0     O 5536   3.594   5.716  10.030  0.2457 -0.4245 -0.4086
   42MOL0     C 5537   3.566   5.827   9.995  0.5243  0.4615  1.1169
   42MOL0     O 5538   3.590   5.878   9.871 -0.4513  0.8182 -0.6325
   42MOL0     C 5539   3.663   5.799   9.783  0.4315  0.1162  0.0062
   42MOL0     C 5540   3.603   5.755   9.664 -0.1052  0.7512  0.3795
   42MOL0     C 5541   3.655   5.675   9.569  0.4251 -0.3952  0.5018
   42MOL0     C 5542   3.792   5.648   9.585 -0.4949  0.1260 -0.6618
   42MOL0     O 5543   3.856   5.594   9.481 -0.7292  0.0681  0.8473
   42MOL0     C 5544   3.880   5.667   9.367  0.4532  0.0249 -0.0544
   42MOL0     C 5545   4.007   5.635   9.282 -0.1665  0.2663  0.2434
   42MOL0     C 5546   4.000   5.721   9.158  0.7178 -0.7549  0.3544
   42MOL0     C 5547   4.129   5.690   9.075 -0.8069 -0.0562 -0.2349
   42MOL0     C 5548   4.120   5.766   8.940  0.4652  1.1502 -0.6035
   42MOL0     C 5549   4.254   5.815   8.875  0.2999 -0.6077 -0.5800
   42MOL0     C 5550   4.334   5.700   8.803 -0.3232 -0.2864 -0.4194
   42MOL0     C 5551   4.426   5.763   8.699 -0.1420  0.0874  0.5136
   42MOL0     N 5552   4.357   5.783   8.563  0.3048 -0.2689 -0.2909
   42MOL0     C 5553   4.318   5.684   8.475  0.0143 -1.0095  0.1695
   42MOL0     C 5554   4.262   5.763   8.377 -0.3630 -0.5419 -1.1747
   42MOL0     C 5555   4.196   5.729   8.246  0.3044 -0.7140  0.5577
   42MOL0     C 5556   4.293   5.722   8.129 -1.0280  0.2274  0.3012
   42MOL0     C 5557   4.371   5.584   8.115  0.0917 -0.0181  0.3710
   42MOL0     C 5558   4.461   5.588   7.982 -0.1214  0.4770  0.3810
   42MOL0     O 5559   4.492   5.452   7.952  0.4439  0.8961 -0.0337
   42MOL0     C 5560   4.567   5.426   7.838 -0.4043  0.6657 -1.0034
   42MOL0     C 5561   4.627   5.523   7.759 -0.3586 -0.4849  0.6770
   42MOL0     C 5562   4.691   5.499   7.635 -0.5951 -0.0852  0.4075
   42MOL0     C 5563   4.731   5.622   7.556  0.1700 -0.0855  0.6800
   42MOL0     C 5564   4.703   5.365   7.591  0.9642  0.4556 -0.6158
   42MOL0     C 5565   4.767   5.326   7.464 -0.7721  0.3530 -0.0459
   42MOL0     O 5566   4.739   5.203   7.407 -0.8554 -0.0466  0.1525
   42MOL0     C 5567   4.827   5.154   7.304  0.7497 -0.0031  0.3655
   42MOL0     C 5568   4.960   5.160   7.311 -0.7377  0.3685  0.9027
   42MOL0     C 5569   5.037   5.122   7.199 -0.3191 -0.4735 -0.2159
   42MOL0     C 5570   4.984   5.063   7.079 -0.9940 -0.0281 -0.0647
   42MOL0     O 5571   5.074   5.027   6.972  0.0046 -0.1360 -1.0825
   42MOL0     C 5572   5.011   4.964   6.859  0.0690 -0.0894  0.0089
   42MOL0     C 5573   5.081   4.839   6.822  0.9150 -0.1159  0.1234
   42MOL0     C 5574   5.207   4.812   6.908 -0.1345 -0.0544 -0.9583
   42MOL0     C 5575   5.276   4.694   6.855 -0.2987  0.3243 -0.2293
   42MOL0     C 5576   5.365   4.628   6.961 -0.0074  0.5247 -0.4178
   42MOL0     C 5577   5.451   4.510   6.898  0.6729  0.0850 -0.7697
   42MOL0     C 5578   5.473   4.393   6.996 -0.5652 -0.6162  0.0573
   42MOL0     C 5579   5.580   4.426   7.107  0.4685 -0.5523 -0.4154
   42MOL0    Cl 5580   5.744   4.465   7.048  0.3087  0.0926 -0.3983
   42MOL0     C 5581   4.842   5.051   7.083  0.1264 -0.2826 -0.3169
   42MOL0     C 5582   4.767   5.100   7.194 -0.8436 -0.3954  0.1787
   42MOL0     O 5583   4.873   5.390   7.439  0.7109 -0.1843 -0.5069
   42MOL0     C 5584   4.664   5.265   7.682  0.3841  0.6301  0.0612
   42MOL0     C 5585   4.587   5.295   7.800 -1.0090 -0.6785  0.7109
   42MOL0     N 5586   4.287   5.900   8.406 -0.5348  0.2574  0.5086
   42MOL0     N 5587   4.328   5.913   8.527  0.8039  0.5153  0.4048
   42MOL0     C 5588   3.858   5.697   9.698 -0.1130  0.1531 -0.1323
   42MOL0     C 5589   3.795   5.762   9.804  0.8186  0.2481  0.0494
   42MOL0     C 5590   3.511   5.907  10.100 -0.1729 -0.5132 -0.4457
   42MOL0     C 5591   3.566   5.908  10.231 -0.5503  1.1613  0.3707
   42MOL0     C 5592   3.503   5.983  10.330 -0.6107 -0.1620  0.1078
   42MOL0     C 5593   3.390   6.061  10.305 -0.7392 -0.1520  0.4523
   42MOL0     O 5594   3.348   6.134  10.410  0.1952  0.3323  0.4043
   42MOL0     C 5595   3.235   6.216  10.396 -0.5004  0.1073  0.3986
   42MOL0     C 5596   3.291   6.356  10.370 -0.0536 -0.3225  0.0263
   42MOL0     C 5597   3.402   6.408  10.464 -0.2252 -0.2457  0.5262
   42MOL0     C 5598   3.365   6.406  10.619 -0.2008 -0.6669 -0.6229
   42MOL0     C 5599   3.264   6.500  10.667  0.1390  0.0805 -0.3830
   42MOL0     C 5600   3.172   6.572  10.716 -0.4074  0.2446  0.1487
   42MOL0     C 5601   3.337   6.054  10.173  0.8547  0.0085  0.0769
   42MOL0     C 5602   3.401   5.982  10.071  1.3737 -0.3099 -0.6846
   42MOL0     H 5603   3.500   5.785   9.644  0.5007  1.0275 -2.8391
   42MOL0     H 5604   3.584   5.642   9.494 -1.2781  1.0520  1.4005
   42MOL0     H 5605   3.788   5.661   9.309  0.7034  1.6915 -0.6812
   42MOL0     H 5606   3.890   5.773   9.394  2.1753 -0.3693  1.0355
   42MOL0     H 5607   4.095   5.664   9.340 -0.8627 -0.3594  1.6600
   42MOL0     H 5608   4.005   5.527   9.265 -0.0222  0.3958 -0.6730
   42MOL0     H 5609   3.913   5.702   9.094  0.5890  0.1935  0.2307
   42MOL0     H 5610   3.997   5.828   9.182  1.9003  0.0362 -2.5690
   42MOL0     H 5611   4.225   5.703   9.127 -2.1524 -0.5008  2.5550
   42MOL0     H 5612   4.123   5.582   9.059 -0.6235  0.2527 -2.8265
   42MOL0     H 5613   4.088   5.688   8.870  0.9823  0.5743 -0.2032
   42MOL0     H 5614   4.040   5.841   8.946 -1.4719 -0.9292  2.0160
   42MOL0     H 5615   4.221   5.875   8.790 -0.8561  0.3641  0.5298
   42MOL0     H 5616   4.314   5.872   8.946  0.3706  1.7399 -2.4156
   42MOL0     H 5617   4.395   5.658   8.884  0.1462  2.8953  1.0406
   42MOL0     H 5618   4.265   5.627   8.760  1.4133 -0.6894 -2.6843
   42MOL0     H 5619   4.519   5.706   8.686  0.7630  1.9378 -2.0918
   42MOL0     H 5620   4.451   5.864   8.734  1.2268  0.4773 -1.4216
   42MOL0     H 5621   4.328   5.577   8.487 -1.1947 -1.1287  0.1544
   42MOL0     H 5622   4.140   5.636   8.259 -0.7415 -0.2847 -0.6803
   42MOL0     H 5623   4.116   5.801   8.227 -0.8285 -2.2684 -0.9304
   42MOL0     H 5624   4.369   5.799   8.150 -1.4035  0.2726  1.5836
   42MOL0     H 5625   4.240   5.742   8.036  0.6340 -0.7457 -0.8931
   42MOL0     H 5626   4.303   5.499   8.124  1.4077 -0.8298  4.4225
   42MOL0     H 5627   4.444   5.574   8.195 -2.2964 -0.6622  2.5989
   42MOL0     H 5628   4.555   5.643   7.987 -0.6502  1.4174  0.3065
   42MOL0     H 5629   4.392   5.623   7.905  0.1715  1.1122  0.3978
   42MOL0     H 5630   4.620   5.629   7.781 -2.8336  0.4323 -3.4494
   42MOL0     H 5631   4.672   5.643   7.466  1.6209  4.1265  0.4874
   42MOL0     H 5632   4.705   5.707   7.620 -3.7312 -1.0708  0.6886
   42MOL0     H 5633   4.836   5.628   7.526  0.1315 -2.1371 -0.0222
   42MOL0     H 5634   5.001   5.184   7.408 -0.5485 -0.5700  1.0630
   42MOL0     H 5635   5.143   5.147   7.199 -0.0637 -1.2916 -2.7474
   42MOL0     H 5636   4.908   4.928   6.871 -0.0446  0.2931  0.1840
   42MOL0     H 5637   5.014   5.023   6.768 -1.5662 -0.0402 -0.0448
   42MOL0     H 5638   5.007   4.760   6.828  2.2502 -1.4372 -0.2682
   42MOL0     H 5639   5.112   4.834   6.717  1.6889 -0.2396  0.3484
   42MOL0     H 5640   5.181   4.805   7.014  0.7226  0.5541 -0.6923
   42MOL0     H 5641   5.275   4.897   6.891  0.0984 -0.3679 -1.6409
   42MOL0     H 5642   5.203   4.618   6.824  0.2504 -0.7053  0.9174
   42MOL0     H 5643   5.330   4.715   6.762 -0.0758 -0.4161 -0.2734
   42MOL0     H 5644   5.309   4.580   7.042  4.5154 -0.6622  2.3921
   42MOL0     H 5645   5.438   4.694   7.008  1.6860 -1.9327  0.6539
   42MOL0     H 5646   5.399   4.469   6.810  0.9112  0.8666 -1.2864
   42MOL0     H 5647   5.547   4.544   6.857  2.1044  1.1982  3.1474
   42MOL0     H 5648   5.517   4.310   6.940 -2.6799 -1.9620  0.2719
   42MOL0     H 5649   5.377   4.363   7.039  1.1391  0.1837  5.2245
   42MOL0     H 5650   5.590   4.332   7.162  0.5390  0.6719  1.7409
   42MOL0     H 5651   5.560   4.510   7.174  4.6533 -0.4268  0.9486
   42MOL0     H 5652   4.787   5.012   6.998  0.0240  1.9690 -1.3580
   42MOL0     H 5653   4.658   5.099   7.200 -0.8552  0.7789  0.3029
   42MOL0     H 5654   4.685   5.166   7.642  1.2100  0.6490  0.4193
   42MOL0     H 5655   4.541   5.213   7.853 -0.3297 -0.7967  1.1267
   42MOL0     H 5656   3.965   5.681   9.699  0.5218  3.3716  2.1178
   42MOL0     H 5657   3.843   5.807   9.891 -3.3004  4.9305  0.3509
   42MOL0     H 5658   3.646   5.838  10.256 -2.6699 -0.3739  3.5459
   42MOL0     H 5659   3.539   5.973  10.432  1.0962 -0.7864 -0.5176
   42MOL0     H 5660   3.163   6.193  10.317  0.4035  1.5963 -0.9157
   42MOL0     H 5661   3.179   6.211  10.490  1.5748 -0.8855  1.6442
   42MOL0     H 5662   3.213   6.430  10.393  2.1656  1.6370  1.8177
   42MOL0     H 5663   3.324   6.371  10.267 -1.1126  0.5156 -0.2133
   42MOL0     H 5664   3.415   6.511  10.429  0.6426 -1.5740 -3.5248
   42MOL0     H 5665   3.495   6.355  10.443 -1.5444 -1.5047 -2.8136
   42MOL0     H 5666   3.460   6.420  10.671  0.3672 -3.1718 -0.8827
   42MOL0     H 5667   3.321   6.312  10.651 -3.2714  0.9126  0.1449
   42MOL0     H 5668   3.083   6.621  10.751 -0.5793 -0.7121  1.1083
   42MOL0     H 5669   3.253   6.120  10.151 -1.4690 -1.1451  4.3573
   42MOL0     H 5670   3.372   5.974   9.967  1.5532 -0.9365 -0.6885
   43MOL0     O 5671   9.871   8.046   0.931 -0.1488  0.1037 -0.4541
   43MOL0     C 5672   9.892   8.081   0.811  0.0651  0.2296  0.3073
   43MOL0     O 5673   9.987   8.029   0.730  0.1517 -0.1402 -0.0153
   43MOL0     C 5674  10.065   7.933   0.782  0.6444  0.5306 -0.1811
   43MOL0     C 5675  10.023   7.807   0.828 -0.2502  0.4484 -0.1366
   43MOL0     C 5676  10.128   7.710   0.857  0.2747  0.0012 -0.1747
   43MOL0     C 5677  10.261   7.738   0.854 -0.3658 -0.2452  1.1763
   43MOL0     O 5678  10.348   7.639   0.884 -0.1265  0.5450  0.3663
   43MOL0     C 5679  10.387   7.576   0.761  0.2927  0.2199 -0.2299
   43MOL0     C 5680  10.433   7.433   0.798  0.4191  0.1856  0.2451
   43MOL0     C 5681  10.574   7.442   0.863 -0.4896 -0.6746  0.6631
   43MOL0     C 5682  10.693   7.430   0.755 -0.1311  0.6892 -0.1031
   43MOL0     C 5683  10.831   7.433   0.823 -0.2796  0.2059  0.4930
   43MOL0     C 5684  10.874   7.590   0.854  0.3780 -0.1291 -0.1161
   43MOL0     C 5685  10.984   7.598   0.961  0.1330  0.7439  0.5374
   43MOL0     C 5686  11.024   7.746   0.974  0.0000 -0.1961  0.5061
   43MOL0     N 5687  11.132   7.762   1.070  0.6553  0.0282  0.3660
   43MOL0     C 5688  11.258   7.802   1.035  0.3452  0.0732 -0.2488
   43MOL0     C 5689  11.326   7.804   1.154 -1.1185  0.2100 -0.4455
   43MOL0     C 5690  11.470   7.817   1.189  0.5522 -0.1938  1.0637
   43MOL0     C 5691  11.526   7.678   1.243  0.2330  0.4642  1.1817
   43MOL0     C 5692  11.677   7.672   1.218  0.6532 -0.4612 -0.7624
   43MOL0     C 5693  11.750   7.785   1.277 -0.3964 -1.3244  0.9574
   43MOL0     O 5694  11.896   7.782   1.257 -0.3645 -0.1467  0.5546
   43MOL0     C 5695  11.955   7.905   1.287  1.1280  0.9762  0.0566
   43MOL0     C 5696  12.082   7.904   1.233 -0.1715  0.2406 -0.3292
   43MOL0     C 5697  12.164   8.027   1.253  0.6320  0.2602 -0.2042
   43MOL0     C 5698  12.306   8.024   1.218  0.5815  0.0702  0.1378
   43MOL0     C 5699  12.105   8.134   1.316 -0.1993 -0.2930 -0.3978
   43MOL0     C 5700  12.181   8.260   1.340 -1.0717 -0.4239 -0.3786
   43MOL0     O 5701  12.280   8.288   1.258 -0.4509 -0.3728  0.9168
   43MOL0     C 5702  12.325   8.415   1.236 -1.5763  0.7671  0.0158
   43MOL0     C 5703  12.328   8.453   1.102  0.3926  0.0728  1.3931
   43MOL0     C 5704  12.387   8.574   1.052  0.1477 -0.3178 -0.1669
   43MOL0     C 5705  12.454   8.662   1.150  0.3624 -0.3965 -0.0988
   43MOL0     O 5706  12.530   8.772   1.114  0.5053  0.3231  0.6743
   43MOL0     C 5707  12.652   8.801   1.198 -0.3217  0.7842  1.1490
   43MOL0     C 5708  12.746   8.889   1.117 -0.2397 -0.2856 -0.0397
   43MOL0     C 5709  12.810   8.820   0.988 -0.0494  0.4435 -0.4344
   43MOL0     C 5710  12.929   8.894   0.931  0.3413 -0.5190 -0.3235
   43MOL0     C 5711  12.986   8.791   0.822  0.4251  0.1443 -0.1251
   43MOL0     C 5712  13.107   8.713   0.871 -0.6019 -0.0120  0.7508
   43MOL0     C 5713  13.137   8.603   0.770 -0.1794  0.5860 -0.2758
   43MOL0     C 5714  13.283   8.561   0.786 -0.4063  0.3315 -0.4042
   43MOL0    Cl 5715  13.300   8.413   0.701 -0.3079  0.0973 -0.1634
   43MOL0     C 5716  12.446   8.623   1.287  0.3393  0.2675  0.2318
   43MOL0     C 5717  12.372   8.506   1.332 -0.1443  0.8850 -0.2931
   43MOL0     O 5718  12.143   8.337   1.430  0.4967 -0.2467  0.4476
   43MOL0     C 5719  11.976   8.126   1.366 -0.1845 -0.1404  0.3469
   43MOL0     C 5720  11.904   8.008   1.356  0.3228 -0.0464 -0.2953
   43MOL0     N 5721  11.242   7.761   1.256 -0.1589 -0.1091  0.4587
   43MOL0     N 5722  11.128   7.734   1.207 -0.5109  0.2319  0.0411
   43MOL0     C 5723  10.303   7.863   0.802  0.6433 -0.7580  0.1515
   43MOL0     C 5724  10.202   7.960   0.773 -0.1485 -0.3008  0.1157
   43MOL0     C 5725   9.799   8.186   0.755 -0.2183 -0.0522  0.9421
   43MOL0     C 5726   9.823   8.253   0.630  0.4176  0.6743  0.7292
   43MOL0     C 5727   9.724   8.313   0.559  0.5549 -0.0236 -0.7244
   43MOL0     C 5728   9.600   8.332   0.621  0.1485 -0.3553  0.8621
   43MOL0     O 5729   9.506   8.406   0.552 -0.4218 -0.5764  0.7300
   43MOL0     C 5730   9.386   8.461   0.614 -0.5450  0.6659 -0.0353
   43MOL0     C 5731   9.330   8.580   0.543  0.5960 -0.0427 -0.5210
   43MOL0     C 5732   9.202   8.632   0.616 -0.2722 -0.0173 -0.5170
   43MOL0     C 5733   9.108   8.716   0.532  0.9672  0.8714 -0.4978
   43MOL0     C 5734   9.184   8.838   0.497 -0.0619 -0.5074  1.0706
   43MOL0     C 5735   9.254   8.936   0.459  0.0390  0.0812 -0.0922
   43MOL0     C 5736   9.577   8.287   0.755 -0.8042  0.8261 -0.8593
   43MOL0     C 5737   9.678   8.216   0.820  0.3325 -0.1158  0.3349
   43MOL0     H 5738   9.920   7.773   0.830 -0.3373  0.2468 -3.2744
   43MOL0     H 5739  10.094   7.614   0.896 -2.5931  0.4653 -1.3305
   43MOL0     H 5740  10.306   7.564   0.689  0.8264  1.8261 -1.1459
   43MOL0     H 5741  10.471   7.627   0.712  0.5085  0.0298 -0.0577
   43MOL0     H 5742  10.357   7.393   0.866 -2.6876  3.5140 -0.9794
   43MOL0     H 5743  10.442   7.369   0.710 -1.5033  0.6302 -0.3146
   43MOL0     H 5744  10.590   7.530   0.926  0.1046 -0.1206 -0.2282
   43MOL0     H 5745  10.596   7.358   0.929  0.9940 -0.8939 -0.0813
   43MOL0     H 5746  10.666   7.343   0.693 -0.5680  0.3156  0.5949
   43MOL0     H 5747  10.681   7.521   0.697 -0.5414  0.4496 -0.4000
   43MOL0     H 5748  10.827   7.377   0.917 -2.6441 -2.7925 -1.2132
   43MOL0     H 5749  10.909   7.379   0.768 -0.7036 -1.3616  1.3767
   43MOL0     H 5750  10.936   7.627   0.772  0.6076 -0.7607 -0.2361
   43MOL0     H 5751  10.789   7.654   0.878 -0.9271 -1.0129 -2.1527
   43MOL0     H 5752  10.950   7.552   1.054  1.1989 -0.7668  0.2219
   43MOL0     H 5753  11.064   7.534   0.922 -1.5017 -0.2274 -1.4210
   43MOL0     H 5754  10.934   7.796   1.011 -0.1921  0.6318 -0.9851
   43MOL0     H 5755  11.045   7.792   0.877  1.5716  1.6282  1.6294
   43MOL0     H 5756  11.288   7.841   0.939  1.2252  0.0662  0.0148
   43MOL0     H 5757  11.525   7.850   1.100  1.1479  1.8685  2.1244
   43MOL0     H 5758  11.487   7.889   1.270 -1.9454 -1.3168  2.6904
   43MOL0     H 5759  11.485   7.594   1.188 -0.0173  1.1926  0.2317
   43MOL0     H 5760  11.510   7.670   1.351  1.5875 -2.4606  1.2404
   43MOL0     H 5761  11.701   7.652   1.113  1.4732 -2.1152 -0.2882
   43MOL0     H 5762  11.714   7.582   1.268  4.4603  1.6017  0.5649
   43MOL0     H 5763  11.718   7.789   1.382 -0.2441 -1.4713  1.0093
   43MOL0     H 5764  11.721   7.874   1.221 -0.0444 -2.4008 -0.9971
   43MOL0     H 5765  12.102   7.821   1.166 -1.0154 -0.8761  0.7667
   43MOL0     H 5766  12.362   8.079   1.294  1.9274  0.4100 -1.0648
   43MOL0     H 5767  12.348   7.924   1.205 -3.7503 -2.1387  1.0923
   43MOL0     H 5768  12.325   8.069   1.120  1.6690 -3.2210 -1.3127
   43MOL0     H 5769  12.296   8.380   1.029 -1.5724  0.1539  2.1243
   43MOL0     H 5770  12.401   8.591   0.946 -0.0114 -0.8983 -0.2854
   43MOL0     H 5771  12.635   8.841   1.299 -0.8726  0.9535  0.9958
   43MOL0     H 5772  12.708   8.708   1.209  0.2512  0.3067 -3.6659
   43MOL0     H 5773  12.692   8.982   1.098  2.5842  1.5241  0.2975
   43MOL0     H 5774  12.819   8.914   1.195  1.1059  2.4555 -2.0331
   43MOL0     H 5775  12.730   8.815   0.914 -2.9756 -0.3194  2.5232
   43MOL0     H 5776  12.843   8.718   1.011 -0.9774 -0.1484 -1.6111
   43MOL0     H 5777  12.902   8.987   0.880 -1.8806 -0.8639  0.1184
   43MOL0     H 5778  12.997   8.939   1.003  0.0926 -1.0114  0.2315
   43MOL0     H 5779  13.016   8.837   0.727  1.9642 -2.8809 -1.2291
   43MOL0     H 5780  12.906   8.730   0.780 -0.3102  3.0744 -3.5092
   43MOL0     H 5781  13.194   8.779   0.874 -1.2070  1.4307 -4.1341
   43MOL0     H 5782  13.078   8.662   0.963 -3.2525 -0.3477 -0.1834
   43MOL0     H 5783  13.116   8.629   0.666 -0.2208  1.3712 -0.0759
   43MOL0     H 5784  13.067   8.519   0.784  0.1135  0.3448 -0.2557
   43MOL0     H 5785  13.312   8.544   0.890  4.6284 -2.0006 -1.8662
   43MOL0     H 5786  13.351   8.635   0.742  1.0956 -0.8594 -0.1489
   43MOL0     H 5787  12.483   8.682   1.370  2.7941  1.7708 -1.7624
   43MOL0     H 5788  12.365   8.481   1.437 -1.3123  3.4855  0.3299
   43MOL0     H 5789  11.925   8.209   1.415 -1.7385  3.4028 -6.0379
   43MOL0     H 5790  11.814   7.999   1.416 -0.4783  1.6876 -1.1735
   43MOL0     H 5791  10.410   7.877   0.787  0.3487 -1.0557 -3.1088
   43MOL0     H 5792  10.216   8.059   0.731  0.7402 -0.9669 -1.2536
   43MOL0     H 5793   9.922   8.243   0.586 -0.5355 -1.2827 -1.1643
   43MOL0     H 5794   9.745   8.346   0.458 -0.1885 -1.8757 -1.5392
   43MOL0     H 5795   9.316   8.376   0.613 -1.2205  1.1398  2.1838
   43MOL0     H 5796   9.409   8.487   0.717  1.0159 -0.3740 -0.0793
   43MOL0     H 5797   9.309   8.559   0.438  1.2478 -0.4912 -0.5683
   43MOL0     H 5798   9.405   8.660   0.543 -1.7216  2.2842  0.0738
   43MOL0     H 5799   9.241   8.683   0.705  0.6620 -1.2742 -0.1924
   43MOL0     H 5800   9.155   8.541   0.652  3.0615 -0.8911  2.1591
   43MOL0     H 5801   9.011   8.737   0.577  0.3237 -2.1083 -0.3204
   43MOL0     H 5802   9.084   8.660   0.441 -3.1099 -1.7020  1.8868
   43MOL0     H 5803   9.284   9.032   0.422 -0.8189  1.7072  3.1009
   43MOL0     H 5804   9.482   8.307   0.802 -0.4660  0.3805  0.0273
   43MOL0     H 5805   9.662   8.163   0.914 -1.1126  0.0931  0.2390
   44MOL0     O 5806   4.417  10.437  10.000  0.0693 -0.4637  0.1878
   44MOL0     C 5807   4.419  10.549  10.052 -0.0414  0.0142 -1.1857
   44MOL0     O 5808   4.316  10.609  10.114  0.5307  0.1442 -0.8023
   44MOL0     C 5809   4.193  10.548  10.107 -0.0902  0.3842  0.2413
   44MOL0     C 5810   4.120  10.502  10.218  0.3680 -0.7789  0.2375
   44MOL0     C 5811   3.989  10.446  10.207 -0.4102 -0.4570  0.3570
   44MOL0     C 5812   3.918  10.436  10.084 -1.0147 -0.0827 -0.0028
   44MOL0     O 5813   3.788  10.384  10.073 -0.3535  0.5020 -0.1880
   44MOL0     C 5814   3.743  10.348   9.936  0.9256  0.2681  0.1777
   44MOL0     C 5815   3.592  10.301   9.947 -0.7053  0.4544 -0.4861
   44MOL0     C 5816   3.517  10.415  10.024 -0.4852  1.2164 -0.9216
   44MOL0     C 5817   3.533  10.551   9.942 -0.3216  0.0079  0.5077
   44MOL0     C 5818   3.425  10.650   9.985  0.2439 -0.2181 -1.5902
   44MOL0     C 5819   3.455  10.800   9.981 -0.4428 -0.4213  0.3086
   44MOL0     C 5820   3.365  10.880  10.069 -0.4259 -0.6158  0.7628
   44MOL0     C 5821   3.387  11.030  10.069 -0.5272 -0.1215 -0.5115
   44MOL0     N 5822   3.350  11.084   9.936  0.5497  0.2430  0.6140
   44MOL0     C 5823   3.220  11.116   9.894 -0.3788 -0.8134 -0.0285
   44MOL0     C 5824   3.240  11.166   9.768  0.3331 -0.3989  0.5523
   44MOL0     C 5825   3.115  11.213   9.695 -0.5260  0.9252  0.6851
   44MOL0     C 5826   3.049  11.332   9.756 -0.1546  0.2026  0.6240
   44MOL0     C 5827   3.002  11.422   9.644  0.2655  0.4922  0.4010
   44MOL0     C 5828   2.943  11.550   9.705  0.2208  0.2309  0.0661
   44MOL0     O 5829   2.874  11.630   9.602  0.0634  0.1341 -0.2277
   44MOL0     C 5830   2.745  11.588   9.569 -0.5850 -0.0337 -0.7528
   44MOL0     C 5831   2.689  11.671   9.474 -0.2521  0.1270 -0.0699
   44MOL0     C 5832   2.557  11.661   9.434  0.6045  0.0961  0.0747
   44MOL0     C 5833   2.505  11.759   9.338 -0.9464  0.3556  0.7341
   44MOL0     C 5834   2.477  11.559   9.487 -0.2236  0.4010  0.4277
   44MOL0     C 5835   2.333  11.526   9.432 -0.9563 -0.3369  0.4686
   44MOL0     O 5836   2.279  11.415   9.504  1.1141  0.7952 -0.3882
   44MOL0     C 5837   2.187  11.334   9.439  0.4242 -0.5182 -0.1802
   44MOL0     C 5838   2.200  11.293   9.305 -0.5672 -0.2417 -0.5335
   44MOL0     C 5839   2.102  11.232   9.220 -0.3631  0.0278  0.4041
   44MOL0     C 5840   1.972  11.208   9.266 -0.1864  0.2468  0.0810
   44MOL0     O 5841   1.897  11.126   9.183  0.5747 -0.0540 -0.1778
   44MOL0     C 5842   1.806  11.037   9.253 -0.4998 -0.3495  1.4952
   44MOL0     C 5843   1.742  10.935   9.152  0.9113 -0.6374  0.8693
   44MOL0     C 5844   1.586  10.951   9.133  0.3337  0.9453  0.1848
   44MOL0     C 5845   1.513  10.821   9.170 -0.2691  0.3662 -0.3449
   44MOL0     C 5846   1.530  10.719   9.059 -0.1489  0.7264  0.2223
   44MOL0     C 5847   1.472  10.580   9.103 -0.1450  0.5317 -0.5010
   44MOL0     C 5848   1.515  10.479   9.002 -0.0239 -0.1361 -0.3442
   44MOL0     C 5849   1.450  10.348   9.043  0.1349 -0.1689  0.8791
   44MOL0    Cl 5850   1.520  10.232   8.916 -0.0201 -0.2526  0.4922
   44MOL0     C 5851   1.937  11.265   9.398 -0.7671 -0.3343  0.5580
   44MOL0     C 5852   2.044  11.318   9.481 -0.2414 -0.0284 -0.2619
   44MOL0     O 5853   2.297  11.570   9.326 -0.2539 -0.2560 -0.0129
   44MOL0     C 5854   2.531  11.479   9.586  0.2562 -0.8677 -0.1947
   44MOL0     C 5855   2.662  11.490   9.631  0.7904 -0.8543 -0.0567
   44MOL0     N 5856   3.369  11.174   9.736 -0.4698 -0.7741  0.4779
   44MOL0     N 5857   3.438  11.118   9.837 -0.1092 -0.8920 -0.1127
   44MOL0     C 5858   3.982  10.493   9.982  0.1257 -0.9320 -0.7314
   44MOL0     C 5859   4.123  10.534   9.987  0.3409  0.2693  1.1646
   44MOL0     C 5860   4.541  10.630  10.054 -0.8739 -0.5874  0.1669
   44MOL0     C 5861   4.645  10.604   9.958  0.1807 -0.5237  0.4248
   44MOL0     C 5862   4.755  10.683   9.965  0.2242  0.7650 -0.6123
   44MOL0     C 5863   4.765  10.798  10.043  0.0258 -0.4855  0.4155
   44MOL0     O 5864   4.882  10.878  10.029 -0.2272 -0.2226  0.5282
   44MOL0     C 5865   5.001  10.808  10.015 -0.9450 -0.1460  0.0235
   44MOL0     C 5866   5.122  10.911  10.035 -0.7678  0.1998 -0.8337
   44MOL0     C 5867   5.101  11.039   9.947 -0.3110  0.1497 -0.2544
   44MOL0     C 5868   5.041  11.160  10.020  0.7268  0.4603  0.5398
   44MOL0     C 5869   5.144  11.235  10.091 -0.4353  0.4335 -0.5692
   44MOL0     C 5870   5.236  11.289  10.158 -0.1682  0.7259 -0.5041
   44MOL0     C 5871   4.653  10.839  10.119 -0.7429 -0.4663  0.0991
   44MOL0     C 5872   4.549  10.751  10.129  0.0841 -0.9794  0.2306
   44MOL0     H 5873   4.151  10.519  10.321 -0.9997 -1.2647  0.7427
   44MOL0     H 5874   3.932  10.420  10.297 -0.7371 -0.3471  0.1848
   44MOL0     H 5875   3.735  10.432   9.866 -2.1749  0.1207  0.1947
   44MOL0     H 5876   3.805  10.267   9.895 -1.0324 -0.1787 -2.1687
   44MOL0     H 5877   3.544  10.285   9.849 -3.0425  0.4754  0.5945
   44MOL0     H 5878   3.582  10.206  10.001 -4.3372  0.6864 -0.4924
   44MOL0     H 5879   3.410  10.395  10.022 -0.6119  1.8349 -0.5205
   44MOL0     H 5880   3.543  10.416  10.130  0.8227 -2.6433 -1.0442
   44MOL0     H 5881   3.632  10.590   9.970 -0.5399  0.7975  0.2060
   44MOL0     H 5882   3.528  10.534   9.834  0.3375 -0.4277  0.5396
   44MOL0     H 5883   3.323  10.626   9.951 -0.3976  2.0477 -1.4058
   44MOL0     H 5884   3.418  10.626  10.092  0.9450  0.5707 -1.3634
   44MOL0     H 5885   3.559  10.811  10.014 -0.0722 -1.6782 -0.3534
   44MOL0     H 5886   3.453  10.831   9.876 -1.3438  0.3478  0.5502
   44MOL0     H 5887   3.265  10.870  10.027  0.5016  2.5393 -2.7926
   44MOL0     H 5888   3.375  10.848  10.173 -2.3544  0.6989  1.4179
   44MOL0     H 5889   3.492  11.057  10.085 -0.6252 -1.2520  2.5787
   44MOL0     H 5890   3.335  11.077  10.152  0.6171  0.5077 -0.1221
   44MOL0     H 5891   3.123  11.106   9.941 -0.2495 -2.1019 -0.0058
   44MOL0     H 5892   3.155  11.237   9.596 -0.6040  0.8269  0.6297
   44MOL0     H 5893   3.050  11.126   9.682  1.0327  0.0520 -2.3177
   44MOL0     H 5894   3.119  11.383   9.822 -0.5613  0.1169  1.1291
   44MOL0     H 5895   2.970  11.296   9.822 -2.9079  2.8637 -0.9517
   44MOL0     H 5896   2.945  11.362   9.572  3.4923 -1.6180 -0.6289
   44MOL0     H 5897   3.079  11.455   9.574 -1.9171 -1.1445 -3.0983
   44MOL0     H 5898   3.023  11.605   9.755  1.1976 -1.3710  0.3194
   44MOL0     H 5899   2.873  11.523   9.784 -0.8936 -2.0212 -1.5910
   44MOL0     H 5900   2.764  11.740   9.436  0.0513  0.2177  0.6884
   44MOL0     H 5901   2.506  11.710   9.240  0.6997  0.8251  0.4875
   44MOL0     H 5902   2.409  11.797   9.373 -1.3665 -0.8260  0.9017
   44MOL0     H 5903   2.567  11.850   9.344  1.2259 -1.1329  2.5255
   44MOL0     H 5904   2.295  11.299   9.252  1.5480 -1.9112  2.7054
   44MOL0     H 5905   2.142  11.199   9.125 -2.0887  1.8650 -1.0491
   44MOL0     H 5906   1.869  10.986   9.326  0.7599  0.0813  0.7449
   44MOL0     H 5907   1.730  11.105   9.292 -1.8989  0.4479 -2.1813
   44MOL0     H 5908   1.802  10.931   9.060 -0.6572 -1.9400 -0.1496
   44MOL0     H 5909   1.765  10.835   9.189  0.4604 -0.4566  1.6633
   44MOL0     H 5910   1.555  10.973   9.030 -0.2676 -2.0274 -0.3716
   44MOL0     H 5911   1.553  11.031   9.200  1.8694  2.4650 -0.7889
   44MOL0     H 5912   1.558  10.793   9.266 -1.1066  1.2552  0.3235
   44MOL0     H 5913   1.406  10.835   9.188 -0.8526 -0.5374 -2.7583
   44MOL0     H 5914   1.638  10.713   9.043 -0.0764 -0.9096  1.1933
   44MOL0     H 5915   1.475  10.762   8.974 -0.7683  0.2246  0.3620
   44MOL0     H 5916   1.516  10.554   9.199 -0.3842  0.2240 -0.4734
   44MOL0     H 5917   1.363  10.581   9.116 -0.1280 -2.3732  0.6384
   44MOL0     H 5918   1.624  10.478   8.996  0.0915 -0.7282  1.2292
   44MOL0     H 5919   1.473  10.508   8.906 -2.0321 -2.7367 -0.3762
   44MOL0     H 5920   1.342  10.359   9.030  0.2376 -1.3518 -1.6189
   44MOL0     H 5921   1.484  10.321   9.143 -1.8409  1.2445  1.9987
   44MOL0     H 5922   1.837  11.259   9.439 -0.8308 -0.0409  0.4546
   44MOL0     H 5923   2.016  11.361   9.576 -4.8655 -3.7275  0.4315
   44MOL0     H 5924   2.480  11.393   9.629 -1.0362 -1.2147 -2.2667
   44MOL0     H 5925   2.697  11.428   9.712  1.7289  2.0446  1.9343
   44MOL0     H 5926   3.936  10.526   9.889 -2.2916  0.6920  0.9134
   44MOL0     H 5927   4.180  10.565   9.900 -0.9788 -1.1710 -0.2842
   44MOL0     H 5928   4.637  10.512   9.900  1.0899  0.1087 -0.7399
   44MOL0     H 5929   4.843  10.658   9.906  0.7207  0.1226  0.3622
   44MOL0     H 5930   5.003  10.736  10.097 -0.2371  3.1736  3.1876
   44MOL0     H 5931   5.020  10.764   9.917  1.4211  0.3737  0.1718
   44MOL0     H 5932   5.215  10.860  10.009 -0.5931  0.4029 -0.6159
   44MOL0     H 5933   5.132  10.925  10.143 -0.9710 -1.0104 -0.6491
   44MOL0     H 5934   5.029  11.012   9.869 -1.8196  1.7546  0.5288
   44MOL0     H 5935   5.191  11.071   9.893  1.0033 -1.1300  1.0749
   44MOL0     H 5936   4.965  11.131  10.093 -0.0374  1.3721  0.1269
   44MOL0     H 5937   4.998  11.232   9.950  1.1522 -2.0097 -2.4761
   44MOL0     H 5938   5.322  11.329  10.207 -0.1640  0.1668 -0.0440
   44MOL0     H 5939   4.664  10.936  10.167  5.1779 -0.6672 -0.0888
   44MOL0     H 5940   4.464  10.784  10.186  0.5994 -2.2843  1.8316
   45MOL0     O 5941   9.999   1.845   5.443  0.1651 -0.0887 -0.3876
   45MOL0     C 5942  10.009   1.968   5.432  0.7771  0.3048  1.0745
   45MOL0     O 5943   9.901   2.049   5.427  0.4756  0.2726  0.0179
   45MOL0     C 5944   9.771   2.011   5.468 -0.3103 -0.1613  0.9350
   45MOL0     C 5945   9.666   2.061   5.389 -0.5230 -0.9511  0.5008
   45MOL0     C 5946   9.530   2.037   5.415 -0.7652  0.5380 -0.3449
   45MOL0     C 5947   9.500   1.961   5.530 -0.1545 -1.1407  0.5055
   45MOL0     O 5948   9.367   1.941   5.556 -0.0345 -0.1725  0.2198
   45MOL0     C 5949   9.331   1.819   5.618 -0.1525  0.1433 -0.6215
   45MOL0     C 5950   9.182   1.799   5.596 -0.5351 -0.5780  0.5389
   45MOL0     C 5951   9.158   1.741   5.454  0.0122 -0.3185 -0.2013
   45MOL0     C 5952   9.000   1.746   5.418 -0.5693  0.1241  0.4355
   45MOL0     C 5953   8.991   1.694   5.271  0.2602 -0.3758  0.9614
   45MOL0     C 5954   8.987   1.552   5.253 -0.7708  0.1057 -0.5472
   45MOL0     C 5955   8.959   1.494   5.118 -0.2283 -0.4129  0.2777
   45MOL0     C 5956   8.959   1.339   5.106  0.1977 -0.4096  0.5747
   45MOL0     N 5957   8.829   1.292   5.156 -0.1597 -0.3689 -0.2079
   45MOL0     C 5958   8.791   1.290   5.289  0.7145  0.6952  0.0430
   45MOL0     C 5959   8.649   1.289   5.282 -0.7147 -0.1902 -0.1654
   45MOL0     C 5960   8.561   1.270   5.407 -0.5188 -0.0478  0.0787
   45MOL0     C 5961   8.487   1.392   5.436 -1.5016 -0.3779 -0.2524
   45MOL0     C 5962   8.401   1.364   5.560 -0.1759  0.4379 -0.2373
   45MOL0     C 5963   8.373   1.489   5.638  0.6857 -0.1861 -0.7149
   45MOL0     O 5964   8.319   1.442   5.765 -0.2327 -0.2903  0.4260
   45MOL0     C 5965   8.242   1.531   5.840 -0.4186 -0.3179 -0.0908
   45MOL0     C 5966   8.246   1.672   5.829  0.7207 -0.1643 -0.1085
   45MOL0     C 5967   8.155   1.747   5.911 -0.4895 -0.5757 -0.3445
   45MOL0     C 5968   8.172   1.901   5.893 -0.0487  0.0288  0.3172
   45MOL0     C 5969   8.061   1.679   5.997 -0.9827 -0.2620  0.0804
   45MOL0     C 5970   7.947   1.743   6.062  0.5593 -1.2343  0.1630
   45MOL0     O 5971   7.895   1.676   6.176  0.4630 -0.7145  0.9636
   45MOL0     C 5972   7.789   1.742   6.243 -0.6267  0.5267 -0.4882
   45MOL0     C 5973   7.787   1.880   6.274 -0.0147  0.2654 -0.5927
   45MOL0     C 5974   7.672   1.929   6.340 -0.5979  0.5544  0.2552
   45MOL0     C 5975   7.562   1.854   6.353  0.0208  0.2896 -0.2269
   45MOL0     O 5976   7.457   1.923   6.406 -0.3900  0.5962  0.0868
   45MOL0     C 5977   7.329   1.874   6.387  0.0143 -0.0596  0.2114
   45MOL0     C 5978   7.239   1.969   6.470 -0.5400  0.7137 -0.4284
   45MOL0     C 5979   7.104   1.894   6.483  1.0409  0.2948 -0.2386
   45MOL0     C 5980   7.011   1.969   6.583  0.4970  0.3781 -0.2888
   45MOL0     C 5981   6.856   1.949   6.550 -0.0501 -0.3335  0.2554
   45MOL0     C 5982   6.770   1.969   6.674 -0.1738 -0.9897  0.2875
   45MOL0     C 5983   6.706   2.108   6.692  0.2532 -0.6445  0.8010
   45MOL0     C 5984   6.629   2.168   6.567  0.3786  0.1671 -0.6284
   45MOL0    Cl 5985   6.482   2.071   6.535  0.0131  0.0433  0.3015
   45MOL0     C 5986   7.566   1.716   6.330 -0.3937 -0.1853  0.1834
   45MOL0     C 5987   7.676   1.664   6.270 -0.9475  0.3016 -1.0352
   45MOL0     O 5988   7.896   1.844   6.015  0.2431 -0.5365  0.1243
   45MOL0     C 5989   8.070   1.543   6.018  0.7499 -0.1159  0.2461
   45MOL0     C 5990   8.153   1.474   5.935 -0.0644 -0.6346 -0.0190
   45MOL0     N 5991   8.606   1.279   5.150 -0.0551  0.7305 -0.4985
   45MOL0     N 5992   8.713   1.290   5.075 -0.5042  0.3167  0.4107
   45MOL0     C 5993   9.604   1.901   5.607  0.6032  0.2839  0.0387
   45MOL0     C 5994   9.736   1.924   5.574  0.1598  0.7668  0.3933
   45MOL0     C 5995  10.131   2.025   5.393  0.9019 -1.2694  0.5770
   45MOL0     C 5996  10.140   2.166   5.411  0.2913 -0.2609  0.0562
   45MOL0     C 5997  10.256   2.243   5.379  0.4442  1.0283 -0.0235
   45MOL0     C 5998  10.362   2.184   5.316  0.6473 -0.9067  0.3893
   45MOL0     O 5999  10.466   2.270   5.279 -0.2398  0.2473 -0.3843
   45MOL0     C 6000  10.587   2.227   5.204  0.6467 -0.2757  0.3326
   45MOL0     C 6001  10.665   2.353   5.159 -1.1148  0.1804  0.1785
   45MOL0     C 6002  10.702   2.348   5.008  0.2491 -0.2919 -0.6362
   45MOL0     C 6003  10.807   2.456   4.970 -0.1540  0.1191 -0.4567
   45MOL0     C 6004  10.944   2.429   5.024  0.6336 -0.6074  0.6206
   45MOL0     C 6005  11.058   2.411   5.070  0.4797 -0.0625 -0.2171
   45MOL0     C 6006  10.357   2.040   5.307  0.6606 -0.3252  0.6137
   45MOL0     C 6007  10.241   1.964   5.338 -0.8326 -0.2616 -0.8795
   45MOL0     H 6008   9.698   2.128   5.310  2.2671 -2.2690  0.4164
   45MOL0     H 6009   9.446   2.072   5.355 -0.6805 -0.2111 -0.9250
   45MOL0     H 6010   9.381   1.730   5.580  1.9342  1.5902 -1.4557
   45MOL0     H 6011   9.352   1.823   5.726 -1.8116  0.6354 -0.2874
   45MOL0     H 6012   9.137   1.721   5.658 -0.9584 -0.0143  0.9502
   45MOL0     H 6013   9.133   1.896   5.611  0.4947  0.1065 -0.3107
   45MOL0     H 6014   9.217   1.803   5.386 -0.8382 -0.2765 -0.9186
   45MOL0     H 6015   9.186   1.635   5.451 -0.0391 -0.2980 -2.1237
   45MOL0     H 6016   8.946   1.682   5.488 -1.0108 -1.8096 -1.5454
   45MOL0     H 6017   8.972   1.850   5.436 -0.1178  0.6537 -1.6102
   45MOL0     H 6018   8.904   1.738   5.221  1.7619 -1.2117 -2.7036
   45MOL0     H 6019   9.082   1.735   5.226 -0.0938  1.4507  1.8082
   45MOL0     H 6020   9.084   1.521   5.293 -1.1759  2.2851  2.4902
   45MOL0     H 6021   8.908   1.519   5.321 -0.1748 -0.8171 -0.2776
   45MOL0     H 6022   8.869   1.544   5.082 -0.5856  2.1673  4.1013
   45MOL0     H 6023   9.042   1.522   5.054  1.8582 -2.8576  1.6896
   45MOL0     H 6024   9.038   1.302   5.173  0.8451  2.4236  1.5080
   45MOL0     H 6025   8.986   1.319   5.002 -0.4468  0.6020  0.2004
   45MOL0     H 6026   8.858   1.297   5.374 -0.0579  6.7467  0.5784
   45MOL0     H 6027   8.498   1.184   5.387  1.3183 -1.6243  0.7829
   45MOL0     H 6028   8.627   1.238   5.488 -1.0436 -0.4815  0.3323
   45MOL0     H 6029   8.436   1.434   5.349  3.9004  2.8380 -2.3407
   45MOL0     H 6030   8.561   1.466   5.468  2.4567 -4.3820  0.9184
   45MOL0     H 6031   8.462   1.310   5.634  0.4182  1.5826  0.1417
   45MOL0     H 6032   8.318   1.299   5.533 -0.5189  0.8496 -0.1844
   45MOL0     H 6033   8.294   1.545   5.587 -0.3960 -2.0832 -1.2390
   45MOL0     H 6034   8.464   1.548   5.647  0.6389 -0.0368 -1.2207
   45MOL0     H 6035   8.300   1.711   5.743  1.2435 -1.4600 -0.4001
   45MOL0     H 6036   8.199   1.954   5.985  1.6200 -1.7680  0.9188
   45MOL0     H 6037   8.262   1.923   5.835 -0.0458  1.2631  0.7518
   45MOL0     H 6038   8.081   1.928   5.839 -0.1558 -3.4178 -1.4772
   45MOL0     H 6039   7.880   1.936   6.267 -0.9711  2.2286  1.1580
   45MOL0     H 6040   7.657   2.032   6.371 -4.3672 -0.4566  2.4386
   45MOL0     H 6041   7.304   1.875   6.280  0.6413 -1.7840  0.0107
   45MOL0     H 6042   7.324   1.773   6.428 -0.3838  0.1534  0.6919
   45MOL0     H 6043   7.287   1.997   6.564 -2.3639 -1.5825  1.3023
   45MOL0     H 6044   7.224   2.057   6.407 -0.1754  0.9161 -0.2382
   45MOL0     H 6045   7.119   1.788   6.508 -0.1710 -0.1030 -1.1047
   45MOL0     H 6046   7.051   1.894   6.387 -0.2666  0.9502  0.4607
   45MOL0     H 6047   7.025   1.942   6.688 -1.8878 -4.6882 -0.9362
   45MOL0     H 6048   7.039   2.074   6.573  2.2979  0.0288  0.6655
   45MOL0     H 6049   6.841   1.846   6.515 -2.2089  1.1104 -3.7927
   45MOL0     H 6050   6.821   2.006   6.463  2.9086 -1.7637 -2.0565
   45MOL0     H 6051   6.691   1.893   6.679 -0.7688 -0.4188 -0.2991
   45MOL0     H 6052   6.820   1.968   6.772 -0.2041 -1.0486  0.3019
   45MOL0     H 6053   6.787   2.181   6.704  0.5374 -0.7549 -0.2674
   45MOL0     H 6054   6.632   2.105   6.772 -0.9925 -3.5631 -0.3044
   45MOL0     H 6055   6.690   2.186   6.478 -0.8491  2.3626 -1.1092
   45MOL0     H 6056   6.603   2.273   6.587  0.3859  0.0270  0.1348
   45MOL0     H 6057   7.485   1.646   6.345 -2.8208  1.6785 -2.9724
   45MOL0     H 6058   7.680   1.557   6.250  1.6183  0.6838 -3.2301
   45MOL0     H 6059   8.005   1.487   6.085 -1.0088  0.6743 -0.7026
   45MOL0     H 6060   8.142   1.366   5.938  0.1750 -0.6664 -0.2808
   45MOL0     H 6061   9.582   1.838   5.693  0.3390  0.2172 -0.0762
   45MOL0     H 6062   9.811   1.868   5.629 -1.3827 -1.4906  0.3362
   45MOL0     H 6063  10.064   2.225   5.460 -1.9414 -0.8618 -2.4652
   45MOL0     H 6064  10.248   2.348   5.406 -1.7914  0.5721  1.3772
   45MOL0     H 6065  10.645   2.169   5.277  0.6414 -1.8794 -0.8891
   45MOL0     H 6066  10.561   2.172   5.113  1.1991  0.6823 -0.4250
   45MOL0     H 6067  10.753   2.346   5.223 -1.6091  1.7543  1.0789
   45MOL0     H 6068  10.617   2.444   5.194 -0.1386  0.1089  1.7879
   45MOL0     H 6069  10.617   2.367   4.942  1.8579  1.3858 -2.3451
   45MOL0     H 6070  10.743   2.251   4.979 -0.7205  0.0737 -3.6059
   45MOL0     H 6071  10.774   2.550   5.016  1.2262  0.0173  0.8023
   45MOL0     H 6072  10.822   2.462   4.862  1.8710  1.5718 -0.1477
   45MOL0     H 6073  11.157   2.396   5.109  0.0659 -1.5694  0.3325
   45MOL0     H 6074  10.431   1.991   5.245  1.4693  0.9948  0.5001
   45MOL0     H 6075  10.252   1.859   5.310  0.3923  0.2630 -2.5668
   46MOL0     O 6076   5.608   8.925   1.551  0.3901 -0.3576  0.5638
   46MOL0     C 6077   5.521   8.958   1.631  0.5227  0.1313 -0.4782
   46MOL0     O 6078   5.488   9.078   1.665  0.1752  0.5729  0.9490
   46MOL0     C 6079   5.549   9.188   1.619 -0.0273 -0.2377 -0.5635
   46MOL0     C 6080   5.544   9.297   1.708 -0.6714 -0.9519 -0.1720
   46MOL0     C 6081   5.605   9.422   1.676  0.9875  0.5695 -0.0963
   46MOL0     C 6082   5.677   9.439   1.562 -0.3222 -0.0676  0.6990
   46MOL0     O 6083   5.740   9.565   1.549 -0.2809 -0.3187  0.6586
   46MOL0     C 6084   5.834   9.583   1.440  0.7263 -0.9264  0.0037
   46MOL0     C 6085   5.952   9.502   1.460 -0.8143  0.2914 -0.3788
   46MOL0     C 6086   6.063   9.568   1.373  0.2122 -0.0894  0.6187
   46MOL0     C 6087   6.074   9.519   1.226  0.3785 -0.7958 -0.3010
   46MOL0     C 6088   6.192   9.581   1.152  0.6711 -1.3618  0.0840
   46MOL0     C 6089   6.179   9.542   1.008 -0.3799  0.4558 -0.1305
   46MOL0     C 6090   6.291   9.608   0.920  0.0397  0.6971 -0.3034
   46MOL0     C 6091   6.324   9.513   0.803 -0.4142 -0.5285  0.1973
   46MOL0     N 6092   6.463   9.559   0.756 -0.0535  0.2530 -0.8897
   46MOL0     C 6093   6.583   9.507   0.790 -0.0909 -0.0856 -1.0114
   46MOL0     C 6094   6.673   9.577   0.710  0.7492 -0.2479  0.2515
   46MOL0     C 6095   6.819   9.576   0.709 -0.3481  0.1655  0.2874
   46MOL0     C 6096   6.899   9.520   0.591 -0.0741  0.4994  1.0024
   46MOL0     C 6097   6.867   9.371   0.558  1.6118  0.0259  0.3485
   46MOL0     C 6098   6.974   9.272   0.593 -0.7354 -0.6136 -0.4187
   46MOL0     O 6099   7.028   9.272   0.732  0.1215  0.0917  1.0223
   46MOL0     C 6100   6.967   9.195   0.821 -0.0985  0.3145 -0.4798
   46MOL0     C 6101   6.847   9.135   0.811  0.0989 -0.5897  0.1683
   46MOL0     C 6102   6.802   9.040   0.906  0.0829 -0.2341  0.6568
   46MOL0     C 6103   6.672   8.965   0.868 -0.7468 -0.2139  0.2464
   46MOL0     C 6104   6.884   9.013   1.020  0.1883  0.0318 -0.4617
   46MOL0     C 6105   6.850   8.912   1.124 -0.1556  0.3936  0.4453
   46MOL0     O 6106   6.957   8.857   1.198  0.0640  0.1093  0.3841
   46MOL0     C 6107   6.919   8.754   1.281 -0.2479 -0.9760  0.0446
   46MOL0     C 6108   6.875   8.633   1.235  0.6812  0.2883 -0.2811
   46MOL0     C 6109   6.845   8.531   1.313  0.4460 -0.3151  0.2156
   46MOL0     C 6110   6.846   8.552   1.453 -0.6116 -0.2777 -0.7854
   46MOL0     O 6111   6.810   8.448   1.534  0.5209  0.1206  0.1607
   46MOL0     C 6112   6.794   8.456   1.678  0.0404  0.2138  0.3170
   46MOL0     C 6113   6.656   8.520   1.709 -1.0747 -0.0612 -0.0904
   46MOL0     C 6114   6.645   8.525   1.863  0.3314  0.0616  0.5538
   46MOL0     C 6115   6.509   8.580   1.911 -0.3507 -0.3086  0.4388
   46MOL0     C 6116   6.478   8.554   2.062  0.8669 -0.0457 -0.0782
   46MOL0     C 6117   6.576   8.601   2.171 -0.4584 -0.0003 -1.0970
   46MOL0     C 6118   6.590   8.756   2.162  0.4110  0.6498  0.7280
   46MOL0     C 6119   6.708   8.801   2.242  0.2483  0.0755 -0.1434
   46MOL0    Cl 6120   6.678   8.972   2.291 -0.0036 -0.2531  0.0225
   46MOL0     C 6121   6.884   8.679   1.505  0.3785  0.0268 -0.7320
   46MOL0     C 6122   6.925   8.778   1.418 -0.4129 -0.9743  0.0487
   46MOL0     O 6123   6.735   8.880   1.142 -0.5413  0.0769  0.1571
   46MOL0     C 6124   7.004   9.072   1.030 -0.0045 -0.2496  0.8178
   46MOL0     C 6125   7.045   9.160   0.929 -0.5845  0.2656  0.8292
   46MOL0     N 6126   6.608   9.657   0.616  0.2312 -0.0365  0.2107
   46MOL0     N 6127   6.486   9.655   0.655  0.1843 -0.0386 -0.1190
   46MOL0     C 6128   5.674   9.339   1.465 -0.8724 -0.3099 -0.3755
   46MOL0     C 6129   5.606   9.214   1.500 -0.5178  0.4192  0.9201
   46MOL0     C 6130   5.438   8.849   1.691  0.0060  0.4022 -0.4310
   46MOL0     C 6131   5.347   8.882   1.789  0.1226  0.0828 -0.1525
   46MOL0     C 6132   5.277   8.773   1.854  0.6149 -1.0827  0.4753
   46MOL0     C 6133   5.292   8.641   1.812 -0.7249 -0.0319 -1.1514
   46MOL0     O 6134   5.216   8.533   1.858 -0.2280 -0.3885 -0.0036
   46MOL0     C 6135   5.111   8.562   1.956 -0.7503  0.0901 -0.5539
   46MOL0     C 6136   5.155   8.536   2.104  0.0234  0.4125 -0.2685
   46MOL0     C 6137   5.027   8.523   2.189  0.0105  0.1595  0.3595
   46MOL0     C 6138   5.046   8.448   2.326  0.5547 -1.3665  0.4702
   46MOL0     C 6139   4.912   8.419   2.382 -0.4111 -0.1243 -0.0981
   46MOL0     C 6140   4.803   8.390   2.425  0.2332  0.2792  0.2042
   46MOL0     C 6141   5.382   8.621   1.710  0.4954  0.7653 -0.6320
   46MOL0     C 6142   5.455   8.716   1.654 -0.8833  0.1372  0.6405
   46MOL0     H 6143   5.492   9.297   1.803  1.8245  1.3170  1.3410
   46MOL0     H 6144   5.588   9.504   1.745 -0.4450  0.2681 -0.0574
   46MOL0     H 6145   5.792   9.563   1.340  0.6580  2.5446 -0.7849
   46MOL0     H 6146   5.852   9.689   1.423  3.8919 -1.0656  1.8282
   46MOL0     H 6147   5.977   9.507   1.566  0.9245 -0.5225 -0.7096
   46MOL0     H 6148   5.938   9.399   1.426  0.9157  0.7706 -2.8308
   46MOL0     H 6149   6.057   9.677   1.380 -0.4740 -0.2379  3.3881
   46MOL0     H 6150   6.163   9.547   1.412 -0.1556  1.3682  2.4479
   46MOL0     H 6151   6.090   9.411   1.232 -1.8214 -1.1187  0.5176
   46MOL0     H 6152   5.973   9.540   1.188  1.5329  2.2425 -2.0879
   46MOL0     H 6153   6.189   9.689   1.169  2.6328 -1.5601  2.3133
   46MOL0     H 6154   6.290   9.542   1.184  2.8251 -2.8878 -6.7422
   46MOL0     H 6155   6.179   9.435   0.985 -0.9333  0.5618 -0.6537
   46MOL0     H 6156   6.078   9.567   0.975 -1.1870 -0.5890  1.3991
   46MOL0     H 6157   6.262   9.705   0.879 -0.4394  0.5419 -0.3377
   46MOL0     H 6158   6.379   9.617   0.985 -0.5888  0.0881  0.6462
   46MOL0     H 6159   6.240   9.515   0.732 -1.5547 -2.9577  1.3745
   46MOL0     H 6160   6.343   9.409   0.831 -2.4947 -1.5613 -1.7943
   46MOL0     H 6161   6.618   9.447   0.874  1.5117  0.8506 -0.9805
   46MOL0     H 6162   6.847   9.678   0.735 -1.4098  0.4369  0.4429
   46MOL0     H 6163   6.854   9.514   0.792  1.1120  0.0030 -0.4206
   46MOL0     H 6164   7.005   9.533   0.611  0.6203 -2.4090 -0.2730
   46MOL0     H 6165   6.889   9.567   0.493 -1.2333 -1.9556 -0.1606
   46MOL0     H 6166   6.849   9.359   0.451  0.2090  2.8597  0.1769
   46MOL0     H 6167   6.780   9.339   0.615 -1.5309  1.8631 -3.0146
   46MOL0     H 6168   7.061   9.306   0.536  0.1785  1.1297  1.8287
   46MOL0     H 6169   6.954   9.167   0.570 -0.0894 -0.5211 -1.4623
   46MOL0     H 6170   6.784   9.138   0.723  0.4886 -0.5776 -0.1133
   46MOL0     H 6171   6.643   8.965   0.763  0.6898 -1.9248 -0.1962
   46MOL0     H 6172   6.692   8.860   0.889 -0.9848 -0.3055  0.0184
   46MOL0     H 6173   6.585   8.989   0.930  0.6831 -1.8554  3.1037
   46MOL0     H 6174   6.903   8.607   1.133  3.3912  0.7768  0.2680
   46MOL0     H 6175   6.820   8.440   1.260  2.0153 -0.9102  0.4477
   46MOL0     H 6176   6.797   8.353   1.715 -2.0903 -0.1374 -0.3872
   46MOL0     H 6177   6.876   8.511   1.725 -0.4882  1.4123 -0.1253
   46MOL0     H 6178   6.649   8.621   1.666 -2.9430 -0.4686 -0.8456
   46MOL0     H 6179   6.579   8.456   1.664 -1.5497 -0.0517  0.6982
   46MOL0     H 6180   6.725   8.587   1.903 -1.1129  2.3558  0.0578
   46MOL0     H 6181   6.645   8.423   1.902 -1.3215  0.2716  1.1744
   46MOL0     H 6182   6.509   8.688   1.894 -1.9642 -0.3542  0.0440
   46MOL0     H 6183   6.442   8.538   1.836 -1.5657  0.6986  0.9370
   46MOL0     H 6184   6.447   8.450   2.070  1.6494 -0.1490  2.1943
   46MOL0     H 6185   6.391   8.612   2.094  1.6585  0.2779  1.6044
   46MOL0     H 6186   6.531   8.588   2.270 -1.1463 -0.5522 -1.4836
   46MOL0     H 6187   6.675   8.555   2.176 -0.4749  0.0751  0.5581
   46MOL0     H 6188   6.494   8.800   2.193 -0.1737 -0.9772  1.3094
   46MOL0     H 6189   6.613   8.774   2.057 -0.6510 -0.7269  0.2347
   46MOL0     H 6190   6.797   8.797   2.178  1.6039 -0.5706  1.7070
   46MOL0     H 6191   6.726   8.734   2.326 -2.2798  0.5495  0.8740
   46MOL0     H 6192   6.885   8.703   1.610 -1.3788  1.3742 -0.9867
   46MOL0     H 6193   6.970   8.868   1.459 -1.4025  1.0336 -2.9268
   46MOL0     H 6194   7.075   9.045   1.109  0.5183 -2.0954 -0.2126
   46MOL0     H 6195   7.147   9.188   0.951 -0.0260  1.0685 -2.3912
   46MOL0     H 6196   5.724   9.347   1.369 -2.3412  0.3146 -1.1204
   46MOL0     H 6197   5.606   9.141   1.420 -0.8717  1.4053 -0.0079
   46MOL0     H 6198   5.342   8.983   1.827 -1.0211 -0.4100  1.0755
   46MOL0     H 6199   5.221   8.815   1.937  1.6337 -1.7757  1.5375
   46MOL0     H 6200   5.062   8.659   1.947  0.3601  0.9571  1.9132
   46MOL0     H 6201   5.032   8.491   1.931 -1.7602  0.5184  1.2501
   46MOL0     H 6202   5.185   8.631   2.150 -0.4077 -0.6209  2.3525
   46MOL0     H 6203   5.222   8.450   2.114 -1.6118 -1.2230 -2.4885
   46MOL0     H 6204   4.951   8.465   2.136 -0.6482  0.5897  0.8131
   46MOL0     H 6205   4.983   8.619   2.218 -1.2834 -0.2810 -0.0736
   46MOL0     H 6206   5.092   8.518   2.397  1.0551 -1.4931  0.2726
   46MOL0     H 6207   5.108   8.359   2.316  2.8611  0.4113 -4.0306
   46MOL0     H 6208   4.710   8.362   2.472  0.1907 -1.4669 -0.8527
   46MOL0     H 6209   5.382   8.524   1.661  0.1063  1.7484 -2.7086
   46MOL0     H 6210   5.532   8.676   1.589  0.0909  0.5217  1.5436
   47MOL0     O 6211   1.411   2.209  11.023 -0.0615 -0.3776  0.1329
   47MOL0     C 6212   1.501   2.300  11.032  0.3838  0.8253  0.8312
   47MOL0     O 6213   1.532   2.366  11.142  0.7082  0.6468 -0.5022
   47MOL0     C 6214   1.521   2.302  11.264 -0.4001 -0.1859  0.0447
   47MOL0     C 6215   1.570   2.175  11.298 -0.4308  0.0894  0.4895
   47MOL0     C 6216   1.542   2.120  11.417 -0.0225 -0.3029 -0.6756
   47MOL0     C 6217   1.471   2.190  11.515  0.0400  0.7410 -0.3100
   47MOL0     O 6218   1.439   2.115  11.624  0.3465 -0.7855  0.5409
   47MOL0     C 6219   1.298   2.093  11.635  0.1393 -0.2004  0.1436
   47MOL0     C 6220   1.273   1.972  11.727  0.2130 -0.0293  0.8904
   47MOL0     C 6221   1.322   1.843  11.668  0.5662 -0.3028 -0.2387
   47MOL0     C 6222   1.254   1.784  11.545  0.4052 -0.5324  0.7750
   47MOL0     C 6223   1.325   1.658  11.493 -0.4953 -0.8627 -0.5698
   47MOL0     C 6224   1.448   1.683  11.404 -0.5381 -1.1155  0.5795
   47MOL0     C 6225   1.519   1.554  11.364  0.0152  0.4631  0.3039
   47MOL0     C 6226   1.635   1.519  11.449 -0.2696 -0.3052 -0.0257
   47MOL0     N 6227   1.760   1.598  11.425  0.4273  0.1943 -0.0318
   47MOL0     C 6228   1.815   1.675  11.524  0.2669  0.7345  0.1639
   47MOL0     C 6229   1.942   1.712  11.479  0.8857  1.0058  0.1400
   47MOL0     C 6230   2.053   1.768  11.556 -0.2716 -0.6819 -0.2277
   47MOL0     C 6231   2.074   1.709  11.693 -0.3367 -0.0595 -0.8361
   47MOL0     C 6232   2.205   1.759  11.744  0.0881 -0.3518 -0.2387
   47MOL0     C 6233   2.226   1.691  11.884 -0.6387 -0.2694  0.3768
   47MOL0     O 6234   2.353   1.725  11.942  0.1097  0.1500  0.1217
   47MOL0     C 6235   2.464   1.683  11.872  0.3889  0.0676 -0.0419
   47MOL0     C 6236   2.580   1.752  11.886 -0.4918 -0.4698 -0.2208
   47MOL0     C 6237   2.701   1.727  11.823  0.7061 -0.1733 -1.1097
   47MOL0     C 6238   2.822   1.820  11.844 -0.5456  0.0892  0.5052
   47MOL0     C 6239   2.704   1.605  11.758 -0.6847 -0.6743 -0.0464
   47MOL0     C 6240   2.826   1.564  11.684  0.6363  0.1685  0.0590
   47MOL0     O 6241   2.804   1.531  11.554  0.1687  0.7697  0.5276
   47MOL0     C 6242   2.908   1.524  11.460 -0.6150 -0.1417 -0.0458
   47MOL0     C 6243   2.938   1.406  11.395 -0.5136 -0.2385 -0.1417
   47MOL0     C 6244   3.032   1.406  11.293 -0.0294  0.1435  0.5802
   47MOL0     C 6245   3.107   1.525  11.249  0.9982 -0.3984 -0.1302
   47MOL0     O 6246   3.192   1.522  11.141 -0.0439  0.2262 -0.0921
   47MOL0     C 6247   3.236   1.633  11.062 -0.3476  0.7524 -1.2099
   47MOL0     C 6248   3.346   1.578  10.971 -0.4908  0.5661 -0.5836
   47MOL0     C 6249   3.475   1.548  11.031  0.0050  0.4932 -0.4152
   47MOL0     C 6250   3.563   1.477  10.928 -0.6686  0.8807  0.9273
   47MOL0     C 6251   3.709   1.448  10.990 -0.1076 -1.0675 -0.1627
   47MOL0     C 6252   3.768   1.327  10.915  0.6724  0.1530  0.1552
   47MOL0     C 6253   3.819   1.363  10.773  0.4844 -0.3199 -0.5334
   47MOL0     C 6254   3.829   1.237  10.699 -0.7843  0.6371 -0.3652
   47MOL0    Cl 6255   3.938   1.281  10.580  0.1416  0.2834 -0.0648
   47MOL0     C 6256   3.088   1.637  11.331  0.7177 -1.0671 -1.0728
   47MOL0     C 6257   2.994   1.629  11.433  0.0236  0.0955 -0.0969
   47MOL0     O 6258   2.937   1.574  11.732 -0.0178  0.0594 -0.4066
   47MOL0     C 6259   2.598   1.522  11.757 -0.7287 -0.1316  0.4633
   47MOL0     C 6260   2.489   1.557  11.817  0.8690  0.5942  0.1014
   47MOL0     N 6261   1.953   1.659  11.359  0.0370 -0.1967  0.2278
   47MOL0     N 6262   1.848   1.586  11.324 -0.0604  0.5373 -0.1697
   47MOL0     C 6263   1.441   2.327  11.490  0.1742  0.1661  0.0229
   47MOL0     C 6264   1.465   2.374  11.359 -0.5761  0.2840 -0.9149
   47MOL0     C 6265   1.578   2.331  10.903 -0.8141 -0.2658  0.7318
   47MOL0     C 6266   1.675   2.430  10.903  0.4399 -0.4812 -0.5869
   47MOL0     C 6267   1.759   2.458  10.789  0.1504  0.0350  0.6945
   47MOL0     C 6268   1.733   2.387  10.669 -0.2584  0.9392  0.0752
   47MOL0     O 6269   1.798   2.396  10.553  0.2054 -0.4637  0.5019
   47MOL0     C 6270   1.884   2.510  10.532 -1.0015 -0.2159  0.6032
   47MOL0     C 6271   2.030   2.495  10.592 -0.0457  0.0084  0.8088
   47MOL0     C 6272   2.093   2.367  10.538 -0.5133 -0.5738 -0.5004
   47MOL0     C 6273   2.147   2.377  10.395  0.7574 -0.3482  0.7512
   47MOL0     C 6274   2.274   2.458  10.370 -0.5147  0.6626 -1.1058
   47MOL0     C 6275   2.373   2.533  10.357  0.5409 -0.7907  0.4921
   47MOL0     C 6276   1.634   2.289  10.672 -0.5126  0.7000 -0.5335
   47MOL0     C 6277   1.555   2.269  10.785  0.6961 -0.6427  0.5896
   47MOL0     H 6278   1.627   2.112  11.231 -2.2221 -0.6345 -0.4326
   47MOL0     H 6279   1.581   2.020  11.434  2.7110  1.0540  2.1761
   47MOL0     H 6280   1.243   2.180  11.673  1.7891 -1.1104  5.3447
   47MOL0     H 6281   1.265   2.079  11.531  0.0016  2.9362 -0.3273
   47MOL0     H 6282   1.303   1.996  11.829  2.3373  2.0251 -0.1283
   47MOL0     H 6283   1.165   1.952  11.730  0.0039  0.5658 -0.9116
   47MOL0     H 6284   1.430   1.855  11.654  0.9061  0.6015  2.5008
   47MOL0     H 6285   1.310   1.775  11.752 -1.1324 -1.1725 -1.1293
   47MOL0     H 6286   1.159   1.739  11.576  1.4678 -1.8833  2.2443
   47MOL0     H 6287   1.244   1.862  11.468  3.5470 -1.0121 -0.2730
   47MOL0     H 6288   1.351   1.596  11.579 -1.3428  0.9221  1.0776
   47MOL0     H 6289   1.241   1.615  11.438 -1.0148  0.9744 -1.2877
   47MOL0     H 6290   1.428   1.725  11.305  0.5662 -0.6070  0.5435
   47MOL0     H 6291   1.520   1.753  11.450  2.1039 -3.0571 -0.3538
   47MOL0     H 6292   1.455   1.466  11.377  2.0187 -1.0693  0.4235
   47MOL0     H 6293   1.547   1.561  11.259  1.2581 -0.9190  0.4945
   47MOL0     H 6294   1.661   1.419  11.414 -0.6644 -0.0696 -1.0207
   47MOL0     H 6295   1.612   1.511  11.556  2.5706  0.2962  0.7057
   47MOL0     H 6296   1.776   1.705  11.621 -0.5608  0.5587 -0.1064
   47MOL0     H 6297   2.140   1.750  11.492 -0.3319  0.3145 -0.6115
   47MOL0     H 6298   2.023   1.874  11.559  1.0821 -0.2907  0.5749
   47MOL0     H 6299   2.070   1.600  11.691 -0.7295 -0.0619 -3.3042
   47MOL0     H 6300   1.993   1.744  11.758  3.4433  2.5391  2.9988
   47MOL0     H 6301   2.210   1.867  11.759 -1.2839 -0.3640  0.4922
   47MOL0     H 6302   2.282   1.722  11.677 -0.5311 -0.9588 -0.6332
   47MOL0     H 6303   2.215   1.583  11.873  0.7880 -0.5942  1.7058
   47MOL0     H 6304   2.146   1.723  11.951 -1.4855 -0.9917 -0.2708
   47MOL0     H 6305   2.573   1.843  11.945  1.6118 -1.4177  1.6359
   47MOL0     H 6306   2.807   1.905  11.911 -0.4965  1.0312 -0.6530
   47MOL0     H 6307   2.892   1.753  11.895 -0.6354  0.5601  1.2594
   47MOL0     H 6308   2.863   1.844  11.746 -0.9381 -2.1986 -0.2968
   47MOL0     H 6309   2.872   1.324  11.421 -0.6729 -1.7838 -4.6226
   47MOL0     H 6310   3.034   1.320  11.227 -1.2502  0.3086  0.2945
   47MOL0     H 6311   3.147   1.667  11.007 -1.8249  0.1421  0.7080
   47MOL0     H 6312   3.276   1.707  11.132  0.1810 -0.9563  0.3606
   47MOL0     H 6313   3.303   1.491  10.920 -0.2591 -0.9776  1.7172
   47MOL0     H 6314   3.375   1.645  10.890  2.2627 -1.2854 -1.2569
   47MOL0     H 6315   3.474   1.510  11.134 -1.4004 -0.5726 -0.7911
   47MOL0     H 6316   3.527   1.643  11.047  2.4262 -1.0030  1.2763
   47MOL0     H 6317   3.521   1.378  10.907  1.9250 -0.3809  1.2761
   47MOL0     H 6318   3.553   1.523  10.829 -4.4739 -1.1586  0.1379
   47MOL0     H 6319   3.710   1.422  11.096  3.0609  0.2834  0.2497
   47MOL0     H 6320   3.770   1.539  10.988  1.7977 -2.2645  0.9862
   47MOL0     H 6321   3.852   1.290  10.973  1.6112 -0.7069 -1.6659
   47MOL0     H 6322   3.699   1.243  10.905  1.8417 -0.7221 -0.8225
   47MOL0     H 6323   3.919   1.405  10.784  1.0002 -1.1427 -1.8652
   47MOL0     H 6324   3.755   1.441  10.732 -2.2033 -1.0541  1.9482
   47MOL0     H 6325   3.733   1.210  10.655  0.0680 -0.8350 -1.4187
   47MOL0     H 6326   3.863   1.157  10.765 -1.3524  1.8654  1.4987
   47MOL0     H 6327   3.160   1.715  11.308  1.3352 -1.2255  0.2639
   47MOL0     H 6328   2.998   1.714  11.501  1.0875  0.2205 -0.3050
   47MOL0     H 6329   2.589   1.431  11.699 -0.2925 -1.6882  2.7356
   47MOL0     H 6330   2.413   1.479  11.824  0.2704  1.1590 -0.0352
   47MOL0     H 6331   1.397   2.395  11.562  0.7628  0.8300 -0.2325
   47MOL0     H 6332   1.436   2.477  11.343 -1.4208  0.5766  1.9182
   47MOL0     H 6333   1.692   2.462  11.005 -1.1411 -3.6417  0.7973
   47MOL0     H 6334   1.831   2.538  10.791  0.3427 -0.0234 -1.4419
   47MOL0     H 6335   1.903   2.546  10.431 -0.4567 -0.6763  0.5356
   47MOL0     H 6336   1.851   2.604  10.576 -3.5662  0.2190 -2.0076
   47MOL0     H 6337   2.012   2.483  10.699 -2.6613  0.5957  0.5251
   47MOL0     H 6338   2.097   2.580  10.581  1.2582 -1.0199  0.5470
   47MOL0     H 6339   2.010   2.296  10.534  1.0831 -2.6054  0.2729
   47MOL0     H 6340   2.168   2.327  10.607 -0.2549  2.4569  1.1328
   47MOL0     H 6341   2.074   2.426  10.330  3.7548  1.5632 -1.4669
   47MOL0     H 6342   2.145   2.275  10.354 -2.4963  0.7232 -2.2546
   47MOL0     H 6343   2.449   2.604  10.332 -1.2465  0.8895 -0.4383
   47MOL0     H 6344   1.612   2.238  10.579 -1.3012 -0.5575  0.3150
   47MOL0     H 6345   1.481   2.191  10.778  0.9841 -0.7918 -1.0214
   48MOL0     O 6346   3.715   5.938   8.016  0.4413  0.0423  0.2549
   48MOL0     C 6347   3.678   5.829   8.063 -0.7915  0.5495  0.1146
   48MOL0     O 6348   3.558   5.801   8.114  0.3994  0.3201 -0.2711
   48MOL0     C 6349   3.487   5.911   8.148  1.5684  0.1036 -0.4867
   48MOL0     C 6350   3.350   5.906   8.106 -0.5089 -0.2799 -0.5037
   48MOL0     C 6351   3.261   6.009   8.152 -0.2965  0.0662 -0.1617
   48MOL0     C 6352   3.301   6.111   8.242 -0.8420  0.0985 -0.4983
   48MOL0     O 6353   3.209   6.203   8.287  0.6025 -0.3453  0.3307
   48MOL0     C 6354   3.230   6.254   8.423  0.7272 -0.3081  0.2712
   48MOL0     C 6355   3.241   6.410   8.430 -0.5839 -0.2825  0.2766
   48MOL0     C 6356   3.384   6.469   8.410 -0.4037 -0.1097  0.1355
   48MOL0     C 6357   3.412   6.529   8.273 -0.1641 -0.7768 -0.2522
   48MOL0     C 6358   3.562   6.554   8.263 -0.7120  0.1325 -0.8632
   48MOL0     C 6359   3.613   6.684   8.343 -0.0065  0.0975 -0.5885
   48MOL0     C 6360   3.773   6.682   8.361  0.0075 -0.9175  0.6536
   48MOL0     C 6361   3.839   6.714   8.215  0.2194  0.7498 -0.7813
   48MOL0     N 6362   3.979   6.741   8.222  0.2093 -0.2330  0.4601
   48MOL0     C 6363   4.071   6.677   8.305 -0.2069 -0.4900 -0.5163
   48MOL0     C 6364   4.186   6.755   8.303 -1.3813 -0.5975 -0.0309
   48MOL0     C 6365   4.312   6.743   8.386 -0.4058 -0.5785 -0.3328
   48MOL0     C 6366   4.430   6.822   8.332  0.2085 -0.6370  0.0264
   48MOL0     C 6367   4.470   6.772   8.183  0.1226  0.1563 -0.2079
   48MOL0     C 6368   4.600   6.830   8.151 -0.2569  0.2671 -0.1086
   48MOL0     O 6369   4.698   6.748   8.220 -0.2678  0.0512  1.1816
   48MOL0     C 6370   4.821   6.799   8.244 -0.3748  0.1363  0.0034
   48MOL0     C 6371   4.873   6.906   8.171  0.7013 -0.2473 -0.1335
   48MOL0     C 6372   5.009   6.946   8.192  0.2087 -0.1452 -0.5049
   48MOL0     C 6373   5.052   7.082   8.126  0.5068 -0.4350 -0.2076
   48MOL0     C 6374   5.093   6.860   8.276  0.6871  0.0414  1.1347
   48MOL0     C 6375   5.231   6.902   8.316  0.1634  0.6526 -0.6970
   48MOL0     O 6376   5.291   7.008   8.251  0.0086  0.5535 -0.0007
   48MOL0     C 6377   5.414   7.044   8.284 -1.9088 -0.6378  0.5847
   48MOL0     C 6378   5.425   7.179   8.302 -0.1033  0.3053  0.4076
   48MOL0     C 6379   5.540   7.226   8.355 -0.8300  0.2129  0.1912
   48MOL0     C 6380   5.640   7.135   8.396 -1.2016  0.5112 -0.5510
   48MOL0     O 6381   5.761   7.174   8.449  0.5111  0.2629  0.6064
   48MOL0     C 6382   5.799   7.305   8.485  0.5901 -0.9102  1.1218
   48MOL0     C 6383   5.950   7.321   8.485 -0.2652  0.5172 -0.4309
   48MOL0     C 6384   5.993   7.463   8.474  0.3500 -0.6433 -0.0326
   48MOL0     C 6385   6.145   7.486   8.490  0.6161 -0.6308  0.2301
   48MOL0     C 6386   6.189   7.639   8.493  0.1675  0.0195 -0.0534
   48MOL0     C 6387   6.312   7.659   8.582 -0.2958  0.1011 -1.0189
   48MOL0     C 6388   6.371   7.806   8.575  0.4683 -0.1204  0.3398
   48MOL0     C 6389   6.513   7.810   8.612 -0.5718  0.1660 -0.3790
   48MOL0    Cl 6390   6.584   7.977   8.554  0.0772  0.1767 -0.0397
   48MOL0     C 6391   5.632   7.001   8.369  0.6700 -0.1288  0.3713
   48MOL0     C 6392   5.521   6.952   8.312  0.4020  0.0699  0.6240
   48MOL0     O 6393   5.287   6.835   8.405 -0.1086  0.3622 -0.6491
   48MOL0     C 6394   5.035   6.755   8.341 -0.1005  0.1828  0.8403
   48MOL0     C 6395   4.904   6.720   8.322  0.6907 -0.9029  0.1238
   48MOL0     N 6396   4.162   6.866   8.231 -0.6565  0.3139  0.0294
   48MOL0     N 6397   4.031   6.867   8.202  0.2521  0.6387 -1.2762
   48MOL0     C 6398   3.429   6.117   8.275 -0.1395  0.4762  0.3406
   48MOL0     C 6399   3.525   6.020   8.237 -0.1989  0.3880 -0.0271
   48MOL0     C 6400   3.780   5.724   8.061  0.5113  0.4679 -0.8483
   48MOL0     C 6401   3.762   5.603   8.137 -0.0641  0.6953  0.4313
   48MOL0     C 6402   3.850   5.488   8.116 -0.0431 -1.3649 -0.1437
   48MOL0     C 6403   3.960   5.496   8.030 -0.6342 -0.5762 -0.4687
   48MOL0     O 6404   4.046   5.389   8.007  0.0602 -0.5998  0.5419
   48MOL0     C 6405   4.154   5.400   7.903  0.7230  0.3667 -1.2098
   48MOL0     C 6406   4.098   5.356   7.761 -0.0252  0.1333 -0.0016
   48MOL0     C 6407   4.029   5.211   7.760  0.2126  0.2423  0.0960
   48MOL0     C 6408   4.121   5.092   7.789 -0.6381 -0.4616  0.2726
   48MOL0     C 6409   4.049   4.965   7.817  0.6874 -0.6323  0.4110
   48MOL0     C 6410   3.982   4.864   7.823 -0.3229 -0.4172 -0.5141
   48MOL0     C 6411   3.988   5.623   7.971 -0.2346  0.2259  0.3337
   48MOL0     C 6412   3.897   5.729   7.981  0.8436 -0.0570 -0.5216
   48MOL0     H 6413   3.306   5.824   8.050  1.0426 -2.3782  1.2211
   48MOL0     H 6414   3.167   6.028   8.100  1.0588  1.7044 -2.2236
   48MOL0     H 6415   3.139   6.237   8.483  0.0829  0.6458 -0.3956
   48MOL0     H 6416   3.315   6.220   8.482 -0.1045 -2.3552  0.3991
   48MOL0     H 6417   3.177   6.448   8.350  0.4919  0.2710 -0.3466
   48MOL0     H 6418   3.204   6.446   8.527  1.2230 -2.6855  1.9718
   48MOL0     H 6419   3.397   6.538   8.493  0.7712 -1.9621  1.5615
   48MOL0     H 6420   3.458   6.390   8.425 -2.2645 -1.8387  0.6222
   48MOL0     H 6421   3.386   6.465   8.188  1.3715  1.4438 -2.5593
   48MOL0     H 6422   3.361   6.624   8.255  0.5177 -0.4912 -0.7210
   48MOL0     H 6423   3.625   6.467   8.286 -0.3094  0.4654 -0.6881
   48MOL0     H 6424   3.567   6.583   8.158 -2.7268  0.2633 -0.9631
   48MOL0     H 6425   3.576   6.776   8.296  3.6987  0.9800 -2.1182
   48MOL0     H 6426   3.580   6.686   8.447  3.3419 -1.0824  0.6222
   48MOL0     H 6427   3.801   6.751   8.441  1.6701 -2.0793  1.1295
   48MOL0     H 6428   3.817   6.583   8.379  3.8108  0.4270 -0.4575
   48MOL0     H 6429   3.791   6.801   8.168 -0.5320  0.1432 -1.1569
   48MOL0     H 6430   3.824   6.628   8.150  1.0341 -0.1769  0.2169
   48MOL0     H 6431   4.055   6.584   8.358 -4.1816  0.8196  0.9571
   48MOL0     H 6432   4.293   6.773   8.490  1.2008  0.1309 -0.2035
   48MOL0     H 6433   4.347   6.640   8.391  1.7448  0.1248  0.7668
   48MOL0     H 6434   4.505   6.832   8.410 -0.2083  2.5394  0.1602
   48MOL0     H 6435   4.391   6.922   8.310  2.9714  0.4288 -0.4633
   48MOL0     H 6436   4.395   6.803   8.109 -1.7132  0.3026  1.6256
   48MOL0     H 6437   4.471   6.663   8.174 -0.3174  0.2885 -2.5606
   48MOL0     H 6438   4.602   6.931   8.191 -1.3150 -0.1653  1.1087
   48MOL0     H 6439   4.620   6.837   8.044  4.2958  0.7917  0.5692
   48MOL0     H 6440   4.811   6.970   8.110 -0.7594  2.1474  3.4873
   48MOL0     H 6441   4.965   7.129   8.079  0.8398 -2.2581 -2.8779
   48MOL0     H 6442   5.104   7.142   8.202  1.8346 -2.7881  0.8306
   48MOL0     H 6443   5.117   7.058   8.041 -2.6609 -0.6538 -2.7705
   48MOL0     H 6444   5.348   7.253   8.279  1.1218  0.9541 -1.9378
   48MOL0     H 6445   5.536   7.334   8.366 -0.6700  0.5996 -2.8007
   48MOL0     H 6446   5.760   7.370   8.406  0.2315 -3.2660 -0.7367
   48MOL0     H 6447   5.757   7.342   8.579  3.1952  0.3947  1.8845
   48MOL0     H 6448   5.999   7.271   8.569 -0.4778  2.5405  0.9523
   48MOL0     H 6449   5.986   7.265   8.397 -1.7773  4.3868 -3.8601
   48MOL0     H 6450   5.940   7.512   8.557  0.9441 -2.1775  1.2954
   48MOL0     H 6451   5.969   7.491   8.371 -0.1726 -1.1632 -0.0560
   48MOL0     H 6452   6.174   7.436   8.583 -5.1309  0.9807  3.4107
   48MOL0     H 6453   6.189   7.433   8.405 -0.4568 -1.2485  0.0398
   48MOL0     H 6454   6.102   7.699   8.521 -1.2220 -1.1990 -1.5682
   48MOL0     H 6455   6.214   7.666   8.390 -0.4741  0.3941 -0.1179
   48MOL0     H 6456   6.280   7.642   8.685 -0.2961 -0.9728 -1.1838
   48MOL0     H 6457   6.380   7.578   8.555  0.8969 -0.5087  3.1185
   48MOL0     H 6458   6.332   7.883   8.642  1.5761  1.1718 -0.4453
   48MOL0     H 6459   6.345   7.847   8.477  1.4224 -0.2006  0.0431
   48MOL0     H 6460   6.572   7.736   8.558 -0.3281  0.5521 -0.6444
   48MOL0     H 6461   6.529   7.797   8.719 -1.7344 -1.3346 -0.3414
   48MOL0     H 6462   5.717   6.937   8.390 -1.1692 -1.9443  3.0453
   48MOL0     H 6463   5.515   6.845   8.300  1.3634  0.1972 -1.4853
   48MOL0     H 6464   5.093   6.685   8.399  1.2669 -2.1034 -2.9018
   48MOL0     H 6465   4.852   6.638   8.369 -2.0791  0.3430 -0.5576
   48MOL0     H 6466   3.480   6.197   8.327  3.5313 -1.6631  0.4107
   48MOL0     H 6467   3.626   6.038   8.273  0.5743 -0.8003 -1.4727
   48MOL0     H 6468   3.672   5.581   8.192 -1.0250  0.8285 -1.0353
   48MOL0     H 6469   3.826   5.392   8.161  0.2622 -1.8740 -1.0367
   48MOL0     H 6470   4.205   5.495   7.889  0.0698  0.4360 -3.3573
   48MOL0     H 6471   4.237   5.339   7.943 -0.2506 -0.4075 -0.2970
   48MOL0     H 6472   4.180   5.364   7.689  1.4673  3.1563  1.7985
   48MOL0     H 6473   4.024   5.430   7.730 -0.6570 -0.6692 -0.4521
   48MOL0     H 6474   3.975   5.205   7.665 -1.0756  0.0058  0.8089
   48MOL0     H 6475   3.948   5.215   7.833  0.4906 -1.6879  0.5653
   48MOL0     H 6476   4.187   5.110   7.875  1.0597 -1.4555 -0.7694
   48MOL0     H 6477   4.180   5.078   7.699 -1.2011 -0.7714 -0.0566
   48MOL0     H 6478   3.931   4.769   7.815 -0.2996 -0.5810  0.9285
   48MOL0     H 6479   4.068   5.644   7.901  1.2452 -0.1990  1.8456
   48MOL0     H 6480   3.909   5.825   7.931 -0.5495  0.9439  0.9624
   49MOL0     O 6481   5.255   2.804   0.662  0.5190 -0.6489 -0.0356
   49MOL0     C 6482   5.162   2.734   0.621  0.2268  1.1318  0.0563
   49MOL0     O 6483   5.026   2.750   0.659 -0.0033  0.4460  0.6190
   49MOL0     C 6484   5.002   2.852   0.749  0.1027  0.7896 -0.1256
   49MOL0     C 6485   4.917   2.944   0.703  0.3407 -0.9283  0.2116
   49MOL0     C 6486   4.875   3.051   0.783  0.2894 -1.2004  0.0308
   49MOL0     C 6487   4.916   3.061   0.917  1.2893 -0.4630 -0.0929
   49MOL0     O 6488   4.851   3.155   0.994  0.0608 -0.0337 -0.2409
   49MOL0     C 6489   4.893   3.160   1.135  0.7638 -0.1155  0.3821
   49MOL0     C 6490   4.818   3.279   1.202 -0.0567  0.4553  0.4652
   49MOL0     C 6491   4.672   3.292   1.168  0.1411  0.7517  0.5748
   49MOL0     C 6492   4.603   3.399   1.248  0.5556 -0.9684  0.0043
   49MOL0     C 6493   4.454   3.398   1.222  0.2897  0.1603 -0.3943
   49MOL0     C 6494   4.382   3.283   1.305  0.1812 -0.3739  0.4198
   49MOL0     C 6495   4.237   3.301   1.291  0.3899  0.2255  0.3239
   49MOL0     C 6496   4.156   3.189   1.346 -0.3059  0.3802 -0.0105
   49MOL0     N 6497   4.008   3.214   1.354 -0.0451 -1.0098 -0.1850
   49MOL0     C 6498   3.946   3.308   1.437 -0.2744 -0.2496  0.1366
   49MOL0     C 6499   3.808   3.289   1.433 -0.6075  0.7627 -0.0965
   49MOL0     C 6500   3.696   3.376   1.493 -0.2677 -0.0978 -0.4604
   49MOL0     C 6501   3.663   3.501   1.409  0.6279 -0.4786 -0.7565
   49MOL0     C 6502   3.631   3.473   1.264  0.3578  0.4013  0.0343
   49MOL0     C 6503   3.508   3.382   1.254  0.7028 -0.6651  0.3292
   49MOL0     O 6504   3.389   3.466   1.266  0.3079  0.4582  0.0565
   49MOL0     C 6505   3.266   3.413   1.272  0.0195  0.0355 -0.3032
   49MOL0     C 6506   3.172   3.488   1.341 -0.4646 -0.6648 -1.1956
   49MOL0     C 6507   3.039   3.453   1.346  0.7569  1.2803 -0.3281
   49MOL0     C 6508   2.949   3.546   1.425  0.3338  0.0506  0.6986
   49MOL0     C 6509   2.998   3.321   1.287  0.6332  0.0204  0.3845
   49MOL0     C 6510   2.862   3.258   1.284  0.0923  0.5482  0.4042
   49MOL0     O 6511   2.771   3.346   1.294 -0.2134  0.1554 -0.1512
   49MOL0     C 6512   2.635   3.307   1.309 -0.1090 -0.1654 -0.8440
   49MOL0     C 6513   2.555   3.422   1.322  0.3451  0.2614  0.1676
   49MOL0     C 6514   2.426   3.417   1.374  0.4462  0.2159 -0.2469
   49MOL0     C 6515   2.373   3.298   1.409  0.0683  0.1037  0.3694
   49MOL0     O 6516   2.241   3.280   1.453  0.9836  0.3163 -0.1128
   49MOL0     C 6517   2.172   3.401   1.501  1.3572  0.0043 -0.3171
   49MOL0     C 6518   2.040   3.355   1.581 -0.0464 -0.9866  0.0476
   49MOL0     C 6519   2.062   3.256   1.688  0.5119 -0.2112 -0.2390
   49MOL0     C 6520   1.933   3.210   1.756  0.7949  0.5009 -0.9261
   49MOL0     C 6521   1.842   3.324   1.798  0.5823  1.1202  0.0139
   49MOL0     C 6522   1.718   3.282   1.875 -0.9051 -0.2172 -0.3052
   49MOL0     C 6523   1.621   3.404   1.865  0.3924 -0.0552 -0.1257
   49MOL0     C 6524   1.478   3.366   1.936  0.4074  0.1881  0.8854
   49MOL0    Cl 6525   1.483   3.319   2.104 -0.7888 -0.2555  0.4615
   49MOL0     C 6526   2.443   3.183   1.379 -0.5102  0.2588  0.1720
   49MOL0     C 6527   2.572   3.181   1.327 -0.9475 -0.0086 -0.3302
   49MOL0     O 6528   2.848   3.141   1.258 -0.3996  0.5720 -0.2539
   49MOL0     C 6529   3.103   3.245   1.226  0.6189 -0.1558 -0.0308
   49MOL0     C 6530   3.231   3.289   1.211 -0.0070  0.3521 -0.5834
   49MOL0     N 6531   3.788   3.177   1.356  0.2006  0.9303  1.0815
   49MOL0     N 6532   3.906   3.140   1.308  0.4940 -0.3273  0.5458
   49MOL0     C 6533   5.011   2.970   0.962 -0.1935 -0.2492 -1.0050
   49MOL0     C 6534   5.054   2.868   0.883  1.2122  0.0291 -0.3534
   49MOL0     C 6535   5.188   2.617   0.535 -0.5568 -1.1117  0.1971
   49MOL0     C 6536   5.321   2.591   0.482  0.0463 -0.0985  0.0997
   49MOL0     C 6537   5.348   2.496   0.381 -0.4383 -0.5046 -0.1156
   49MOL0     C 6538   5.246   2.403   0.348 -0.3950  0.3421  0.3346
   49MOL0     O 6539   5.284   2.314   0.247  0.2597 -0.2334 -0.5358
   49MOL0     C 6540   5.192   2.219   0.198 -0.1994  0.2372 -0.5913
   49MOL0     C 6541   5.107   2.294   0.102 -0.6181  0.2566  0.3551
   49MOL0     C 6542   5.019   2.196   0.021  0.0086 -0.2633  0.8226
   49MOL0     C 6543   4.979   2.260  -0.114 -0.1392 -0.3905 -0.0057
   49MOL0     C 6544   4.892   2.187  -0.207  0.6107  1.2037  1.0414
   49MOL0     C 6545   4.826   2.131  -0.295  0.7361 -0.8133 -0.4520
   49MOL0     C 6546   5.118   2.411   0.410  0.3779 -0.8155  0.4241
   49MOL0     C 6547   5.092   2.513   0.502 -0.8217 -0.4614 -0.6767
   49MOL0     H 6548   4.879   2.940   0.601 -1.5026 -0.4500  0.8354
   49MOL0     H 6549   4.809   3.125   0.738  0.5796 -0.9575 -0.0001
   49MOL0     H 6550   4.859   3.068   1.183 -1.5159  0.2014 -0.5005
   49MOL0     H 6551   5.002   3.162   1.147  0.5030  0.1252  3.5673
   49MOL0     H 6552   4.841   3.281   1.309 -1.1839  1.2231  0.7156
   49MOL0     H 6553   4.865   3.368   1.160 -2.7025  1.8015  0.1198
   49MOL0     H 6554   4.662   3.312   1.061 -1.2377  3.2873  1.0978
   49MOL0     H 6555   4.626   3.196   1.191  2.8365 -1.2659 -1.7593
   49MOL0     H 6556   4.638   3.402   1.351  4.2893  1.8991 -1.1169
   49MOL0     H 6557   4.635   3.496   1.207 -1.8588 -0.0448  0.1058
   49MOL0     H 6558   4.406   3.492   1.248 -0.7107 -1.0944  2.7206
   49MOL0     H 6559   4.425   3.381   1.118 -0.0338  1.8498 -0.5987
   49MOL0     H 6560   4.411   3.184   1.269  1.4970  0.3818 -0.7567
   49MOL0     H 6561   4.404   3.286   1.412  0.1475 -1.1072  0.4483
   49MOL0     H 6562   4.214   3.397   1.338 -1.2268 -0.1404  0.3340
   49MOL0     H 6563   4.224   3.306   1.182  2.3811  2.4536  0.1182
   49MOL0     H 6564   4.189   3.176   1.449 -0.2221 -2.4339 -0.3216
   49MOL0     H 6565   4.173   3.099   1.286  2.2534  1.3522 -0.8816
   49MOL0     H 6566   3.988   3.389   1.495  3.1724 -0.2605 -2.0972
   49MOL0     H 6567   3.603   3.320   1.502 -1.2734  0.7607 -3.9209
   49MOL0     H 6568   3.726   3.406   1.593 -0.2809  3.1952 -1.3209
   49MOL0     H 6569   3.744   3.575   1.415  0.8902 -0.8122  0.0565
   49MOL0     H 6570   3.575   3.548   1.453 -1.4557 -3.0481 -1.9363
   49MOL0     H 6571   3.720   3.427   1.220 -0.3980 -1.7665  0.6314
   49MOL0     H 6572   3.621   3.571   1.217  3.1569  0.7632  0.0208
   49MOL0     H 6573   3.498   3.297   1.322 -2.5538 -2.3732 -1.9961
   49MOL0     H 6574   3.504   3.335   1.155 -0.0795 -0.4386  0.2451
   49MOL0     H 6575   3.216   3.567   1.401  2.2938 -2.5321 -0.5797
   49MOL0     H 6576   2.999   3.586   1.514 -1.8286  1.2310  1.4536
   49MOL0     H 6577   2.909   3.622   1.357 -1.4389 -2.3738 -1.1341
   49MOL0     H 6578   2.865   3.494   1.472 -2.2487  0.4732 -2.9624
   49MOL0     H 6579   2.578   3.528   1.310 -1.1992  0.5914 -0.1585
   49MOL0     H 6580   2.358   3.500   1.388 -1.1465 -1.0439 -0.1705
   49MOL0     H 6581   2.238   3.461   1.564  0.3539  0.4430  0.3451
   49MOL0     H 6582   2.143   3.462   1.414 -1.7680 -0.5290  0.2311
   49MOL0     H 6583   2.004   3.455   1.609  0.0784 -0.4685 -1.5381
   49MOL0     H 6584   1.964   3.312   1.515  1.2209 -0.1926 -2.0432
   49MOL0     H 6585   2.123   3.299   1.768  1.7064 -3.4625  0.7922
   49MOL0     H 6586   2.110   3.166   1.647  0.5257 -0.9476  1.2915
   49MOL0     H 6587   1.877   3.152   1.682 -0.6853 -2.5936  2.3597
   49MOL0     H 6588   1.956   3.147   1.841  0.0097  0.6377 -0.6027
   49MOL0     H 6589   1.804   3.363   1.703  3.8943  0.3127 -1.8094
   49MOL0     H 6590   1.900   3.400   1.850  2.7412  1.0263 -2.0476
   49MOL0     H 6591   1.665   3.190   1.846  1.4741 -0.8589 -3.0530
   49MOL0     H 6592   1.749   3.267   1.978 -0.7156 -3.5836 -0.7358
   49MOL0     H 6593   1.603   3.438   1.763  0.5929  1.4264  0.3204
   49MOL0     H 6594   1.675   3.486   1.913 -1.5687  1.1300  0.1498
   49MOL0     H 6595   1.424   3.289   1.880 -0.5378  0.2067  1.7274
   49MOL0     H 6596   1.412   3.453   1.932 -1.4554 -0.9897  3.0994
   49MOL0     H 6597   2.400   3.084   1.392 -0.9093  0.1201 -1.9021
   49MOL0     H 6598   2.621   3.087   1.300 -1.5870  0.3898 -3.1644
   49MOL0     H 6599   3.080   3.147   1.184 -1.4802  0.7818 -1.2307
   49MOL0     H 6600   3.312   3.245   1.155  2.7529  3.9067  0.2616
   49MOL0     H 6601   5.062   2.978   1.057  2.3981 -1.0464 -2.2032
   49MOL0     H 6602   5.131   2.801   0.919  0.8546 -0.7513 -1.0101
   49MOL0     H 6603   5.398   2.656   0.524 -1.6791  1.9412  0.2533
   49MOL0     H 6604   5.448   2.481   0.342 -0.4164  2.0998 -1.2558
   49MOL0     H 6605   5.230   2.124   0.159 -2.1355 -1.8836  2.2896
   49MOL0     H 6606   5.121   2.181   0.273 -2.1568  2.3093 -1.2586
   49MOL0     H 6607   5.163   2.342   0.021 -2.7326 -0.8509 -1.8773
   49MOL0     H 6608   5.037   2.358   0.156 -1.9288 -2.1454  1.6444
   49MOL0     H 6609   4.922   2.187   0.070 -2.2707  3.6229 -2.2862
   49MOL0     H 6610   5.071   2.102   0.000 -1.9736 -1.0975 -0.7340
   49MOL0     H 6611   5.072   2.285  -0.166 -0.5054  2.9689  0.7446
   49MOL0     H 6612   4.920   2.350  -0.097  0.3608 -0.1352  0.3974
   49MOL0     H 6613   4.761   2.075  -0.360 -2.6547 -2.2205  3.6891
   49MOL0     H 6614   5.034   2.344   0.396 -0.7969  0.4450  1.1344
   49MOL0     H 6615   4.997   2.506   0.554  0.0872 -1.9896  0.8931
   50MOL0     O 6616   2.064   7.093   2.031 -0.2724  0.0352 -0.5671
   50MOL0     C 6617   2.151   7.003   2.022  0.5515 -0.6992  1.3786
   50MOL0     O 6618   2.279   7.010   2.064  0.2860 -0.1236  0.0537
   50MOL0     C 6619   2.327   7.122   2.123  0.6413 -0.6155 -0.0170
   50MOL0     C 6620   2.309   7.257   2.074 -0.6810  0.1957 -0.1153
   50MOL0     C 6621   2.364   7.362   2.147  1.1585 -0.2824 -1.2570
   50MOL0     C 6622   2.439   7.340   2.262  0.0288 -0.5341 -0.5071
   50MOL0     O 6623   2.488   7.455   2.330  0.9064  0.1240 -0.7553
   50MOL0     C 6624   2.514   7.425   2.470  1.0895 -0.0465  0.2269
   50MOL0     C 6625   2.554   7.553   2.543  0.6220 -0.1778  0.1988
   50MOL0     C 6626   2.551   7.529   2.694  0.0849  0.5134 -0.0803
   50MOL0     C 6627   2.655   7.617   2.768 -0.1240  0.6461 -0.5260
   50MOL0     C 6628   2.674   7.589   2.914 -0.2078  0.7004 -0.7115
   50MOL0     C 6629   2.750   7.716   2.977 -1.0525 -0.3959 -0.2391
   50MOL0     C 6630   2.795   7.688   3.116 -0.7010  0.2563  0.9635
   50MOL0     C 6631   2.814   7.816   3.189 -0.6979 -0.4662 -0.1134
   50MOL0     N 6632   2.883   7.798   3.318  0.1366 -0.1838  0.1729
   50MOL0     C 6633   3.024   7.811   3.336 -0.1247  1.1583  0.1118
   50MOL0     C 6634   3.038   7.846   3.466 -0.1745 -0.4713 -0.8241
   50MOL0     C 6635   3.157   7.893   3.542  0.7995 -0.2039  0.4338
   50MOL0     C 6636   3.269   7.803   3.583  0.1810  0.0984 -0.7980
   50MOL0     C 6637   3.336   7.706   3.485  0.5891  0.1731 -0.6457
   50MOL0     C 6638   3.437   7.784   3.410  0.1450 -0.1383  0.2860
   50MOL0     O 6639   3.553   7.800   3.494  0.0851 -0.6228 -0.2549
   50MOL0     C 6640   3.663   7.861   3.443 -0.6639  0.3658  0.2768
   50MOL0     C 6641   3.762   7.888   3.537 -0.4941 -0.3175  0.1648
   50MOL0     C 6642   3.875   7.960   3.511 -0.9333  0.3733 -0.1334
   50MOL0     C 6643   3.956   7.995   3.636 -0.0876 -0.1914  0.9834
   50MOL0     C 6644   3.898   8.002   3.375 -0.2567  0.7373  0.4933
   50MOL0     C 6645   4.022   8.073   3.344 -0.7589  1.3971  0.2813
   50MOL0     O 6646   4.140   8.048   3.419  0.5239  0.4166  0.0938
   50MOL0     C 6647   4.271   8.096   3.386  0.4209  0.8203 -0.0238
   50MOL0     C 6648   4.362   8.111   3.487 -0.6690  0.2710 -0.8685
   50MOL0     C 6649   4.493   8.142   3.454 -0.2444 -0.1811  0.1773
   50MOL0     C 6650   4.543   8.173   3.327  0.6157  0.0559  1.2744
   50MOL0     O 6651   4.682   8.203   3.310  0.4362 -0.1508  0.0463
   50MOL0     C 6652   4.738   8.164   3.181 -0.2255 -0.0390  0.3106
   50MOL0     C 6653   4.875   8.222   3.165  0.2473  0.0424 -0.7545
   50MOL0     C 6654   4.944   8.159   3.039 -0.3086 -0.0834  0.1661
   50MOL0     C 6655   4.940   8.006   3.044  0.0514  1.0858  0.1464
   50MOL0     C 6656   5.048   7.936   2.961  0.2927 -0.5395  0.5413
   50MOL0     C 6657   5.181   7.963   3.023 -0.3661 -0.6575  0.5629
   50MOL0     C 6658   5.294   7.883   2.954 -0.1060  0.6314 -0.5814
   50MOL0     C 6659   5.297   7.730   2.987 -0.9065  0.1123 -1.1059
   50MOL0    Cl 6660   5.450   7.633   2.924  0.2860 -0.1505  0.1004
   50MOL0     C 6661   4.442   8.163   3.226  0.1187 -0.3773 -0.5740
   50MOL0     C 6662   4.313   8.130   3.254  0.1200  0.5203  0.2920
   50MOL0     O 6663   4.022   8.133   3.241 -1.2022 -0.6854 -0.1419
   50MOL0     C 6664   3.801   7.982   3.279 -0.1349 -0.1925  0.0752
   50MOL0     C 6665   3.681   7.925   3.317  0.4747 -0.2974  0.0955
   50MOL0     N 6666   2.913   7.854   3.525  0.0263 -1.0899  0.2036
   50MOL0     N 6667   2.824   7.822   3.441  0.4591 -0.8262  0.6610
   50MOL0     C 6668   2.462   7.214   2.294 -1.3457  0.5593 -0.4862
   50MOL0     C 6669   2.405   7.105   2.236  0.6199  0.1651  1.2452
   50MOL0     C 6670   2.097   6.875   1.951 -0.7614  0.2952  0.6522
   50MOL0     C 6671   1.961   6.835   1.947 -0.2588 -0.4940 -1.1169
   50MOL0     C 6672   1.921   6.716   1.889 -0.2717 -0.2757  0.0544
   50MOL0     C 6673   2.015   6.631   1.819 -0.1521 -0.3274 -0.0984
   50MOL0     O 6674   1.985   6.514   1.750  0.2633 -0.0957  0.2417
   50MOL0     C 6675   1.845   6.462   1.777  0.5316  0.4035 -0.5314
   50MOL0     C 6676   1.810   6.364   1.661 -0.6555 -0.2589  0.1827
   50MOL0     C 6677   1.702   6.264   1.698  0.3496  0.4269  0.0917
   50MOL0     C 6678   1.681   6.148   1.592 -0.1491 -0.0322 -0.1657
   50MOL0     C 6679   1.652   6.211   1.461 -0.2969 -0.4317  0.1151
   50MOL0     C 6680   1.618   6.258   1.361  0.6103 -0.1185  0.0420
   50MOL0     C 6681   2.149   6.669   1.817  0.4915 -0.3929 -0.5077
   50MOL0     C 6682   2.187   6.794   1.883  0.5163  0.8474 -0.4731
   50MOL0     H 6683   2.258   7.277   1.980  2.2353  0.8730 -1.6722
   50MOL0     H 6684   2.333   7.462   2.122 -1.4860 -0.4210  0.9527
   50MOL0     H 6685   2.429   7.369   2.511  0.6363  1.5343  1.6021
   50MOL0     H 6686   2.592   7.350   2.482  1.7483  0.5110 -0.4434
   50MOL0     H 6687   2.657   7.581   2.517  0.9395 -2.0641 -0.7270
   50MOL0     H 6688   2.486   7.634   2.516 -0.3601 -0.4294  1.8393
   50MOL0     H 6689   2.455   7.554   2.741  0.1250  2.4843 -0.9520
   50MOL0     H 6690   2.575   7.424   2.711 -1.4434 -0.3289 -2.6472
   50MOL0     H 6691   2.752   7.622   2.716  0.0376 -0.6252 -0.3631
   50MOL0     H 6692   2.606   7.715   2.764  0.7091  1.2448  1.9836
   50MOL0     H 6693   2.581   7.604   2.969  0.9816  2.8618  0.8709
   50MOL0     H 6694   2.727   7.498   2.943  3.4514  3.4403  2.3758
   50MOL0     H 6695   2.838   7.740   2.917  1.8629 -1.0780  3.3924
   50MOL0     H 6696   2.683   7.803   2.978  0.0673  0.6901 -3.5686
   50MOL0     H 6697   2.734   7.623   3.179 -0.2513  0.0911  1.2280
   50MOL0     H 6698   2.890   7.634   3.113 -0.0846  1.0449  3.6740
   50MOL0     H 6699   2.717   7.863   3.210 -0.7101 -0.1758 -0.7742
   50MOL0     H 6700   2.871   7.888   3.130  2.1789 -0.4345  2.4722
   50MOL0     H 6701   3.112   7.784   3.278  0.7502 -0.0931  1.9053
   50MOL0     H 6702   3.200   7.979   3.490  2.8932 -0.8177  1.0465
   50MOL0     H 6703   3.121   7.936   3.636 -0.4566  2.1093 -1.0302
   50MOL0     H 6704   3.237   7.741   3.668 -0.1494 -0.8691 -1.6107
   50MOL0     H 6705   3.350   7.863   3.627  1.4952 -2.4816  0.5387
   50MOL0     H 6706   3.257   7.665   3.422 -1.4452 -0.6436  2.1921
   50MOL0     H 6707   3.371   7.617   3.538 -2.2490  0.5295  2.1859
   50MOL0     H 6708   3.405   7.882   3.373  3.0031  1.1837  0.9961
   50MOL0     H 6709   3.463   7.726   3.321  0.0809 -0.2756  0.3569
   50MOL0     H 6710   3.740   7.858   3.639  0.7185  0.6931  0.7586
   50MOL0     H 6711   4.062   7.971   3.629 -0.4621 -1.5763 -0.6976
   50MOL0     H 6712   3.947   8.103   3.653  4.0323  0.8250 -1.7019
   50MOL0     H 6713   3.920   7.933   3.719 -1.4369 -1.5410 -0.5365
   50MOL0     H 6714   4.349   8.073   3.588  3.3652  2.7747  0.8346
   50MOL0     H 6715   4.569   8.124   3.529  0.4794  1.4128 -0.1186
   50MOL0     H 6716   4.744   8.055   3.187 -2.8846 -0.2614  0.3308
   50MOL0     H 6717   4.681   8.185   3.090  0.5232 -1.2480 -0.4732
   50MOL0     H 6718   4.868   8.331   3.161  3.1816  0.3595  0.4562
   50MOL0     H 6719   4.936   8.196   3.252 -2.7700  2.4532  2.3826
   50MOL0     H 6720   5.050   8.185   3.042  0.1358 -1.7277  0.0247
   50MOL0     H 6721   4.884   8.196   2.956  1.5865 -2.3966 -2.3955
   50MOL0     H 6722   4.948   7.970   3.147 -1.1235 -1.5902 -0.6197
   50MOL0     H 6723   4.842   7.974   3.008 -0.0036 -0.9222  1.9094
   50MOL0     H 6724   5.052   7.978   2.860 -3.5084 -2.2293 -0.4991
   50MOL0     H 6725   5.024   7.829   2.964  2.1207 -1.0076 -0.0593
   50MOL0     H 6726   5.208   8.069   3.020 -2.2311 -0.1576 -2.3366
   50MOL0     H 6727   5.182   7.930   3.127  2.7829  1.5219  1.3671
   50MOL0     H 6728   5.385   7.928   2.994 -0.8308  1.0145  0.6775
   50MOL0     H 6729   5.278   7.888   2.846 -2.0043  1.4191 -0.3009
   50MOL0     H 6730   5.207   7.683   2.946 -2.4872 -0.1352  2.2545
   50MOL0     H 6731   5.304   7.725   3.096 -1.5331  0.2289 -1.0590
   50MOL0     H 6732   4.458   8.191   3.123 -2.0388  2.0132 -0.3557
   50MOL0     H 6733   4.240   8.130   3.174  0.2319  0.1340  0.1853
   50MOL0     H 6734   3.811   8.024   3.180  1.0925 -0.3262  0.1214
   50MOL0     H 6735   3.610   7.926   3.234 -0.8009  3.9999  0.9970
   50MOL0     H 6736   2.513   7.184   2.384 -2.9126 -0.4983  0.0931
   50MOL0     H 6737   2.427   7.001   2.260  0.1923 -0.4785 -0.9300
   50MOL0     H 6738   1.887   6.886   2.009  1.1854 -0.1951  0.4424
   50MOL0     H 6739   1.816   6.692   1.894  0.0758 -1.7819  0.7740
   50MOL0     H 6740   1.846   6.408   1.872 -3.5352  1.0504  0.0546
   50MOL0     H 6741   1.762   6.533   1.777 -0.9391 -1.2862 -0.1371
   50MOL0     H 6742   1.892   6.295   1.640 -0.4380  0.1653 -0.3952
   50MOL0     H 6743   1.793   6.416   1.566  1.9443 -0.0321 -0.2226
   50MOL0     H 6744   1.613   6.325   1.713  0.3093  0.2315  0.6837
   50MOL0     H 6745   1.728   6.218   1.794  0.5027  1.5297  0.6030
   50MOL0     H 6746   1.590   6.094   1.621 -0.4582 -0.0938 -1.1962
   50MOL0     H 6747   1.764   6.078   1.580  0.2840  0.2045  1.3107
   50MOL0     H 6748   1.616   6.289   1.258  2.0576 -1.7881 -0.5429
   50MOL0     H 6749   2.204   6.603   1.750 -1.4535 -1.9717 -0.6438
   50MOL0     H 6750   2.289   6.829   1.873  0.5496  0.7241 -0.5587
   51MOL0     O 6751   7.243   4.755  10.441  0.1146 -0.2753  0.0288
   51MOL0     C 6752   7.178   4.805  10.534  0.1681 -0.1529 -0.4624
   51MOL0     O 6753   7.146   4.749  10.656 -0.3118  0.2561  0.9663
   51MOL0     C 6754   7.126   4.613  10.663 -0.1423  0.6880 -0.1050
   51MOL0     C 6755   7.239   4.533  10.643 -0.1207  0.2335  0.2592
   51MOL0     C 6756   7.243   4.394  10.667 -0.7805 -0.2616 -0.1949
   51MOL0     C 6757   7.127   4.329  10.708 -0.1880 -0.5678 -0.2484
   51MOL0     O 6758   7.142   4.200  10.716 -0.1454  0.7886  0.2696
   51MOL0     C 6759   7.111   4.158  10.852  0.6509  0.2789  0.9125
   51MOL0     C 6760   7.101   4.003  10.855 -0.0445 -0.1311  0.1849
   51MOL0     C 6761   7.065   3.951  11.003  0.0154 -0.6247  1.1226
   51MOL0     C 6762   6.923   3.988  11.055 -0.0588  0.1029  0.0595
   51MOL0     C 6763   6.815   3.879  11.009 -0.5338 -0.3968  0.0040
   51MOL0     C 6764   6.683   3.907  11.054  0.3911  0.0585  0.0143
   51MOL0     C 6765   6.577   3.816  10.995 -0.4157 -0.0575 -0.7537
   51MOL0     C 6766   6.428   3.848  11.038 -1.4706 -0.3904 -0.5604
   51MOL0     N 6767   6.344   3.773  10.945  0.6117  0.5438  0.3307
   51MOL0     C 6768   6.273   3.829  10.844  0.1273  0.4239 -0.5582
   51MOL0     C 6769   6.198   3.734  10.786  0.2092 -0.0644  0.6591
   51MOL0     C 6770   6.092   3.749  10.681  0.6183 -0.1896  0.3202
   51MOL0     C 6771   5.957   3.794  10.741 -0.0564  0.3504 -0.7133
   51MOL0     C 6772   5.855   3.832  10.638 -0.3124  0.2472  0.2373
   51MOL0     C 6773   5.734   3.910  10.684 -0.2353 -0.6650 -0.3342
   51MOL0     O 6774   5.676   3.958  10.556 -0.2315 -0.0175  0.2295
   51MOL0     C 6775   5.546   3.921  10.526  0.7453  0.9630  0.0502
   51MOL0     C 6776   5.528   3.840  10.413 -0.1703 -0.0129  0.8745
   51MOL0     C 6777   5.393   3.816  10.365 -0.6304  0.4330 -0.5725
   51MOL0     C 6778   5.379   3.730  10.243  0.4292  0.2906  0.6225
   51MOL0     C 6779   5.286   3.869  10.435 -0.1097  0.3898  0.5764
   51MOL0     C 6780   5.146   3.861  10.389  0.2528  0.0083  0.2133
   51MOL0     O 6781   5.047   3.863  10.484 -0.7747 -0.2101  0.3162
   51MOL0     C 6782   4.919   3.847  10.447  0.0596  0.1327 -0.8399
   51MOL0     C 6783   4.847   3.754  10.527  0.2250 -0.0205 -0.0422
   51MOL0     C 6784   4.701   3.750  10.503  0.1185 -0.6194  0.3741
   51MOL0     C 6785   4.638   3.829  10.407 -0.3073  0.3712 -0.3124
   51MOL0     O 6786   4.512   3.795  10.384  0.0087  0.1326 -0.0677
   51MOL0     C 6787   4.470   3.799  10.242 -0.0380  0.7264 -0.0727
   51MOL0     C 6788   4.393   3.926  10.200 -0.1030 -0.6224 -0.5153
   51MOL0     C 6789   4.266   3.951  10.270 -0.1372  0.5419  0.1293
   51MOL0     C 6790   4.150   3.878  10.199 -0.2053  0.5667 -0.0567
   51MOL0     C 6791   4.021   3.944  10.227  0.2195 -0.0728 -1.0168
   51MOL0     C 6792   3.909   3.856  10.165  0.5795  0.1382  0.4261
   51MOL0     C 6793   3.771   3.921  10.183  0.0941  0.4175 -0.1358
   51MOL0     C 6794   3.716   3.991  10.064 -0.3565  0.1890  0.0428
   51MOL0    Cl 6795   3.793   4.134  10.029  0.2644 -0.5165 -0.2413
   51MOL0     C 6796   4.714   3.923  10.336  0.8321 -0.4834 -0.6959
   51MOL0     C 6797   4.853   3.930  10.354  0.7812 -0.1565 -0.4381
   51MOL0     O 6798   5.124   3.831  10.277  1.0464  0.2051 -0.3811
   51MOL0     C 6799   5.305   3.948  10.551 -0.1588 -0.6441  0.6303
   51MOL0     C 6800   5.439   3.969  10.600  0.1630  0.2495  0.2390
   51MOL0     N 6801   6.225   3.618  10.852 -0.1349 -0.2082  0.1569
   51MOL0     N 6802   6.311   3.641  10.946  0.6817 -0.2884  0.6187
   51MOL0     C 6803   7.008   4.410  10.734  0.4579  0.2830  0.5233
   51MOL0     C 6804   7.016   4.552  10.717  0.5007 -0.3689  0.8762
   51MOL0     C 6805   7.143   4.953  10.529  0.3934 -0.1828 -0.1373
   51MOL0     C 6806   7.091   5.030  10.638 -0.4274 -0.0565 -0.0150
   51MOL0     C 6807   7.050   5.161  10.628  0.1984 -1.2054  0.3231
   51MOL0     C 6808   7.081   5.226  10.501 -0.8640  0.2048 -0.4420
   51MOL0     O 6809   7.049   5.361  10.494 -0.5594  0.4461 -0.4521
   51MOL0     C 6810   7.069   5.430  10.370  0.4092 -0.5372  0.6145
   51MOL0     C 6811   7.050   5.586  10.366  0.2359  0.1961 -0.5411
   51MOL0     C 6812   7.164   5.646  10.447  1.6666 -0.9050 -0.7096
   51MOL0     C 6813   7.117   5.744  10.553 -0.1374  0.6187  0.5032
   51MOL0     C 6814   7.043   5.863  10.503 -0.2205  0.5350 -0.2402
   51MOL0     C 6815   6.987   5.968  10.477  0.1921 -0.2573 -0.0927
   51MOL0     C 6816   7.151   5.156  10.398  0.3750  0.0729  0.5641
   51MOL0     C 6817   7.177   5.025  10.411 -0.0943 -1.7649  0.4247
   51MOL0     H 6818   7.327   4.582  10.604 -0.3505 -0.2458 -0.9322
   51MOL0     H 6819   7.331   4.333  10.645 -0.0908  0.3806  0.6925
   51MOL0     H 6820   7.180   4.193  10.929 -0.2515 -0.3723  2.0526
   51MOL0     H 6821   7.013   4.197  10.880 -1.0980 -1.6662 -1.9034
   51MOL0     H 6822   7.022   3.971  10.786  1.0264 -0.0512 -1.1173
   51MOL0     H 6823   7.194   3.960  10.819  0.0751  1.7276 -1.9340
   51MOL0     H 6824   7.088   3.845  11.017 -1.6595 -0.8424  2.6384
   51MOL0     H 6825   7.138   3.997  11.069  0.4581 -0.9661  0.8753
   51MOL0     H 6826   6.920   3.990  11.164 -2.3963 -5.3049  0.3829
   51MOL0     H 6827   6.884   4.086  11.025 -0.2419 -0.0792 -0.3076
   51MOL0     H 6828   6.816   3.874  10.900 -2.0033  2.5254 -0.2392
   51MOL0     H 6829   6.839   3.780  11.048 -1.8586 -0.7166  0.0730
   51MOL0     H 6830   6.682   3.900  11.163 -0.4725  2.1577  0.1799
   51MOL0     H 6831   6.654   4.010  11.034 -3.5766 -0.0618  3.6573
   51MOL0     H 6832   6.585   3.814  10.886 -4.0622  0.1857 -1.1794
   51MOL0     H 6833   6.592   3.714  11.030 -1.4987  0.1530  0.4221
   51MOL0     H 6834   6.408   3.955  11.027 -0.4598 -0.3691 -2.7587
   51MOL0     H 6835   6.422   3.812  11.141  2.2625 -3.4332 -1.1504
   51MOL0     H 6836   6.277   3.935  10.818  2.0477 -0.0236 -2.3846
   51MOL0     H 6837   6.128   3.820  10.606 -1.6998  0.3014 -0.3994
   51MOL0     H 6838   6.088   3.656  10.624  3.7330 -0.0832 -0.2277
   51MOL0     H 6839   5.967   3.888  10.797 -3.3601  0.8800 -0.8161
   51MOL0     H 6840   5.921   3.722  10.815 -0.2040 -1.4835 -2.4955
   51MOL0     H 6841   5.825   3.748  10.575  2.3169 -0.6522  0.0631
   51MOL0     H 6842   5.903   3.890  10.558  0.8118 -0.8522  0.0829
   51MOL0     H 6843   5.760   3.997  10.745  1.4811 -0.1227 -1.7609
   51MOL0     H 6844   5.673   3.836  10.739  0.7084 -1.5027 -0.3830
   51MOL0     H 6845   5.613   3.792  10.366 -0.5195  0.2045  0.0007
   51MOL0     H 6846   5.290   3.668  10.256  0.4379  0.1289 -0.0743
   51MOL0     H 6847   5.369   3.798  10.158  1.6022 -1.5781 -1.1060
   51MOL0     H 6848   5.471   3.678  10.215  0.3033  0.0950  0.5777
   51MOL0     H 6849   4.876   3.700  10.616 -1.6653  3.7712  3.1931
   51MOL0     H 6850   4.645   3.674  10.557 -0.2393  1.9747  4.0230
   51MOL0     H 6851   4.560   3.785  10.181  0.5075 -1.9305  1.1867
   51MOL0     H 6852   4.412   3.709  10.221 -0.3179  1.4591 -2.8401
   51MOL0     H 6853   4.454   4.016  10.207  0.8682 -1.1189 -2.1581
   51MOL0     H 6854   4.375   3.916  10.093 -0.4434 -0.6461 -0.4550
   51MOL0     H 6855   4.249   4.060  10.273  1.5175  1.0497 -3.6197
   51MOL0     H 6856   4.269   3.917  10.374 -1.7964  3.7010  1.3739
   51MOL0     H 6857   4.161   3.873  10.090 -0.3591  1.5234 -0.1280
   51MOL0     H 6858   4.137   3.776  10.234 -2.9652  0.8890  0.0685
   51MOL0     H 6859   4.016   4.045  10.186 -0.4050  0.1072 -0.5104
   51MOL0     H 6860   3.985   3.947  10.330 -1.0719 -2.3017 -1.3391
   51MOL0     H 6861   3.934   3.841  10.059  0.7519  1.3726  0.2793
   51MOL0     H 6862   3.901   3.759  10.214  0.0496 -0.9012 -1.6190
   51MOL0     H 6863   3.783   3.988  10.268 -0.7216  0.2164  0.1536
   51MOL0     H 6864   3.705   3.841  10.218 -0.7809  1.3321  0.3408
   51MOL0     H 6865   3.610   4.016  10.074 -0.1889  2.2595 -2.3007
   51MOL0     H 6866   3.721   3.929   9.974  0.2965  0.7569 -0.3299
   51MOL0     H 6867   4.666   3.972  10.252  2.1041 -1.8965 -2.3401
   51MOL0     H 6868   4.896   4.007  10.291  0.5330  0.3574  0.0178
   51MOL0     H 6869   5.231   3.999  10.611  0.4355  3.6313 -1.8745
   51MOL0     H 6870   5.456   4.012  10.699  2.4491 -2.1017  0.9779
   51MOL0     H 6871   6.919   4.371  10.782  0.3054 -0.1227 -0.0731
   51MOL0     H 6872   6.935   4.609  10.761  2.2249  1.2457  2.1152
   51MOL0     H 6873   7.061   4.978  10.728  2.2154 -0.1938  0.8906
   51MOL0     H 6874   6.989   5.222  10.693 -2.9744  1.4764 -4.5038
   51MOL0     H 6875   7.172   5.409  10.337  0.2198 -1.6663  0.7065
   51MOL0     H 6876   6.991   5.383  10.310 -0.6177  1.8254 -0.0346
   51MOL0     H 6877   6.949   5.613  10.400  0.9506  0.0942  1.7638
   51MOL0     H 6878   7.060   5.623  10.263 -0.9227  0.5622 -0.5468
   51MOL0     H 6879   7.223   5.699  10.372 -1.0047 -0.3216 -2.5408
   51MOL0     H 6880   7.219   5.567  10.499  0.1905 -1.2356  0.4442
   51MOL0     H 6881   7.202   5.777  10.614 -2.0841  1.5927  2.8705
   51MOL0     H 6882   7.050   5.690  10.621 -1.4102 -0.7243 -1.7316
   51MOL0     H 6883   6.927   6.057  10.472 -2.2261 -1.6454  1.9303
   51MOL0     H 6884   7.170   5.197  10.299 -2.8233  0.7096  0.1249
   51MOL0     H 6885   7.209   4.966  10.326 -0.8662 -2.1888  0.4260
   52MOL0     O 6886   6.942   5.756   5.187  0.1663  0.8673  0.3216
   52MOL0     C 6887   6.900   5.792   5.074 -0.6947 -0.3800  0.2986
   52MOL0     O 6888   6.970   5.788   4.965 -0.4480  0.1571 -0.7152
   52MOL0     C 6889   7.078   5.705   4.958  0.0319 -0.7050  0.2824
   52MOL0     C 6890   7.195   5.768   4.917 -0.9336  0.9154 -0.8267
   52MOL0     C 6891   7.303   5.690   4.883  0.3841  0.5875  1.2138
   52MOL0     C 6892   7.300   5.554   4.894 -0.0405 -0.1821 -0.5186
   52MOL0     O 6893   7.411   5.486   4.869 -0.5139  0.5413  0.1646
   52MOL0     C 6894   7.434   5.368   4.947  0.3602  0.2579 -0.1956
   52MOL0     C 6895   7.481   5.409   5.101  0.7407  0.6896 -0.2405
   52MOL0     C 6896   7.548   5.277   5.164  1.0472 -0.6120 -0.4156
   52MOL0     C 6897   7.686   5.250   5.118  0.6972  0.1599 -0.5479
   52MOL0     C 6898   7.792   5.354   5.157 -0.0933  0.1623 -0.7980
   52MOL0     C 6899   7.938   5.309   5.114  0.2263 -0.5420 -0.0538
   52MOL0     C 6900   8.040   5.430   5.105  0.1968 -0.0963 -0.6857
   52MOL0     C 6901   8.171   5.403   5.038 -0.6700  0.3223  0.3264
   52MOL0     N 6902   8.164   5.404   4.892  0.2219 -0.4023 -0.3340
   52MOL0     C 6903   8.116   5.504   4.805  0.4143  0.1853  0.2085
   52MOL0     C 6904   8.111   5.444   4.690  0.1111 -0.0335  0.1762
   52MOL0     C 6905   8.052   5.511   4.566 -1.2760  0.0552  0.0075
   52MOL0     C 6906   7.914   5.576   4.572 -0.4560  0.5066  0.0668
   52MOL0     C 6907   7.795   5.470   4.578  0.0968 -0.1527  0.9294
   52MOL0     C 6908   7.660   5.536   4.581  0.1016  1.0576  0.0472
   52MOL0     O 6909   7.641   5.632   4.480 -0.5876 -0.7753  0.8495
   52MOL0     C 6910   7.516   5.678   4.463 -0.3111  0.1536 -0.2685
   52MOL0     C 6911   7.510   5.778   4.363  0.2345 -0.6249 -0.1559
   52MOL0     C 6912   7.391   5.839   4.321 -0.7022 -0.7146 -0.3237
   52MOL0     C 6913   7.405   5.943   4.206  0.2727  0.4102 -0.3800
   52MOL0     C 6914   7.271   5.794   4.382  0.2030 -0.0256  0.5258
   52MOL0     C 6915   7.142   5.827   4.324  0.1379 -0.1147 -1.3388
   52MOL0     O 6916   7.051   5.729   4.322  0.1943 -0.6924  0.3751
   52MOL0     C 6917   6.916   5.741   4.323  0.2224 -0.6263 -0.3581
   52MOL0     C 6918   6.851   5.860   4.355 -0.1752 -0.7169  0.6112
   52MOL0     C 6919   6.721   5.876   4.363  0.4645 -0.1636 -0.6017
   52MOL0     C 6920   6.632   5.775   4.315 -0.5669  0.2655  0.6615
   52MOL0     O 6921   6.495   5.792   4.327  0.8366 -0.0735 -0.0227
   52MOL0     C 6922   6.446   5.860   4.211  0.4731 -0.5314 -0.0359
   52MOL0     C 6923   6.301   5.911   4.246 -0.3459 -0.2472 -0.1812
   52MOL0     C 6924   6.263   6.033   4.162  0.0710 -0.0179 -0.9867
   52MOL0     C 6925   6.125   6.097   4.189  0.2324 -0.2344 -0.8785
   52MOL0     C 6926   6.093   6.231   4.121  0.4393 -0.1841  0.4500
   52MOL0     C 6927   5.998   6.319   4.215  0.2267  0.0479  0.1126
   52MOL0     C 6928   5.961   6.453   4.137 -0.7248 -0.5379  0.6582
   52MOL0     C 6929   5.856   6.543   4.188 -0.3862  0.6610 -0.3229
   52MOL0    Cl 6930   5.930   6.638   4.326 -0.2710  0.2251 -0.0106
   52MOL0     C 6931   6.697   5.655   4.268  0.0015 -0.1061  0.3590
   52MOL0     C 6932   6.836   5.635   4.280  0.0525  0.0068  0.4340
   52MOL0     O 6933   7.124   5.947   4.295 -0.2318  0.1687 -0.4253
   52MOL0     C 6934   7.276   5.710   4.497  0.2714  0.9928  0.6220
   52MOL0     C 6935   7.398   5.657   4.538 -1.1204  0.8564  0.0951
   52MOL0     N 6936   8.156   5.319   4.696  0.0259 -0.2518 -0.5729
   52MOL0     N 6937   8.193   5.296   4.813  0.0341  0.8320  0.7064
   52MOL0     C 6938   7.182   5.494   4.936 -0.3780  0.8808  0.3030
   52MOL0     C 6939   7.071   5.563   4.971 -0.7003 -0.5059 -0.3846
   52MOL0     C 6940   6.767   5.857   5.069  0.5276  0.0187  0.6846
   52MOL0     C 6941   6.741   5.963   4.985  0.2494 -0.2636 -0.2636
   52MOL0     C 6942   6.617   6.042   4.999  0.2406  0.4826  0.5268
   52MOL0     C 6943   6.519   5.999   5.085  0.3638  0.0649 -0.1379
   52MOL0     O 6944   6.408   6.078   5.089  0.0662  0.0667  0.8854
   52MOL0     C 6945   6.329   6.077   5.209  0.5656 -1.1036  0.1247
   52MOL0     C 6946   6.238   6.197   5.228 -0.2891 -0.2719 -0.1577
   52MOL0     C 6947   6.320   6.332   5.231  0.3298  0.2516 -0.6743
   52MOL0     C 6948   6.335   6.401   5.099 -0.6846 -0.5591 -0.3017
   52MOL0     C 6949   6.419   6.517   5.127 -0.1966 -0.5984 -0.3297
   52MOL0     C 6950   6.497   6.610   5.135  0.0492 -0.2129  0.1390
   52MOL0     C 6951   6.544   5.890   5.174 -0.5673 -0.0183  0.5012
   52MOL0     C 6952   6.674   5.825   5.169  0.3084 -1.1076 -0.5933
   52MOL0     H 6953   7.197   5.876   4.918 -0.7485  1.0003  2.7126
   52MOL0     H 6954   7.396   5.738   4.853  1.3614 -1.0860  1.4510
   52MOL0     H 6955   7.347   5.302   4.947 -1.0488  1.8685  2.8795
   52MOL0     H 6956   7.508   5.310   4.891  0.5698 -1.6022  1.8747
   52MOL0     H 6957   7.546   5.496   5.094  2.0180 -0.2193  0.0093
   52MOL0     H 6958   7.387   5.434   5.152  0.1897 -0.7040 -0.5258
   52MOL0     H 6959   7.542   5.298   5.271 -2.4785 -0.2822 -0.5546
   52MOL0     H 6960   7.489   5.187   5.144 -0.1927  0.1127 -0.1243
   52MOL0     H 6961   7.705   5.159   5.175 -3.2768 -0.8335 -0.5181
   52MOL0     H 6962   7.689   5.229   5.010  1.3524  0.1119 -0.5253
   52MOL0     H 6963   7.775   5.451   5.109 -1.2066 -0.2903 -1.3439
   52MOL0     H 6964   7.797   5.372   5.265 -2.0762  1.3404 -0.8581
   52MOL0     H 6965   7.971   5.238   5.189  1.1619 -1.8270 -1.6209
   52MOL0     H 6966   7.922   5.268   5.014 -2.9194 -0.0006  0.1472
   52MOL0     H 6967   7.996   5.515   5.053 -2.6807 -1.3803 -0.5541
   52MOL0     H 6968   8.066   5.464   5.205  0.5515  2.9142 -1.6926
   52MOL0     H 6969   8.209   5.308   5.078  2.1904  0.1036 -2.4892
   52MOL0     H 6970   8.245   5.477   5.071  0.0150 -1.1620  2.3904
   52MOL0     H 6971   8.077   5.602   4.831  0.7775 -0.0060  1.5318
   52MOL0     H 6972   8.123   5.580   4.519 -3.0481  1.9720  0.0043
   52MOL0     H 6973   8.043   5.431   4.492  3.3681 -1.7405  1.0888
   52MOL0     H 6974   7.902   5.641   4.485 -0.9462  2.7424  1.7042
   52MOL0     H 6975   7.910   5.631   4.667 -0.6223  0.3762  0.1376
   52MOL0     H 6976   7.809   5.412   4.669  2.4158  1.3726  1.6327
   52MOL0     H 6977   7.811   5.398   4.498 -2.5272 -1.4005  1.4166
   52MOL0     H 6978   7.645   5.590   4.676  0.8899 -0.4907  1.0981
   52MOL0     H 6979   7.591   5.452   4.572  1.1970  0.3154 -2.0448
   52MOL0     H 6980   7.598   5.801   4.304 -1.1872 -0.9073 -2.5473
   52MOL0     H 6981   7.507   5.984   4.212  0.6017 -0.5753  3.1780
   52MOL0     H 6982   7.367   5.900   4.113 -0.3956  0.3945 -0.1029
   52MOL0     H 6983   7.343   6.030   4.227 -2.7516 -1.4584 -0.9566
   52MOL0     H 6984   6.921   5.931   4.396  1.1991  0.2018 -2.9256
   52MOL0     H 6985   6.680   5.973   4.392 -0.6770 -0.8373  0.1024
   52MOL0     H 6986   6.504   5.947   4.178  1.7982 -0.3276  2.5940
   52MOL0     H 6987   6.434   5.794   4.124  2.3625 -1.6637  0.5071
   52MOL0     H 6988   6.234   5.825   4.238  0.4196 -0.7151 -2.1600
   52MOL0     H 6989   6.309   5.944   4.350  0.2291 -0.8599 -0.0288
   52MOL0     H 6990   6.275   5.997   4.060  1.5281 -1.6016 -0.3143
   52MOL0     H 6991   6.333   6.115   4.178  0.0547 -0.0365 -0.8182
   52MOL0     H 6992   6.041   6.033   4.162  0.5916 -0.9078 -0.4241
   52MOL0     H 6993   6.120   6.105   4.298  1.3706  0.7775 -0.8855
   52MOL0     H 6994   6.044   6.213   4.025 -0.5265  0.6281  0.7752
   52MOL0     H 6995   6.189   6.280   4.103  1.1722 -1.1997  1.4387
   52MOL0     H 6996   5.907   6.266   4.245  0.0941  1.0624  1.5887
   52MOL0     H 6997   6.054   6.359   4.299 -0.0055  3.3394 -1.1397
   52MOL0     H 6998   5.933   6.431   4.033 -3.1369 -1.2060  1.3885
   52MOL0     H 6999   6.053   6.512   4.135  2.2410 -4.6902 -0.7151
   52MOL0     H 7000   5.791   6.474   4.242  0.7488 -0.1525  0.0610
   52MOL0     H 7001   5.805   6.604   4.113 -1.8547 -0.4803 -0.2974
   52MOL0     H 7002   6.638   5.568   4.241 -2.2585  1.0240  1.3451
   52MOL0     H 7003   6.886   5.541   4.260  1.1705  0.2127  2.0627
   52MOL0     H 7004   7.187   5.674   4.547  0.5502  0.4684  0.7444
   52MOL0     H 7005   7.388   5.592   4.623 -0.0733  1.9427  1.0909
   52MOL0     H 7006   7.173   5.387   4.953  0.8408  0.3994 -1.6787
   52MOL0     H 7007   6.987   5.508   5.012  1.2488 -0.9306  3.5504
   52MOL0     H 7008   6.809   6.001   4.910  1.2691 -0.4423  0.5489
   52MOL0     H 7009   6.608   6.127   4.933 -3.8753 -0.8460 -0.8981
   52MOL0     H 7010   6.257   5.994   5.206  1.3695 -1.9636  2.3630
   52MOL0     H 7011   6.403   6.071   5.290  1.1034  0.8466 -0.1765
   52MOL0     H 7012   6.181   6.174   5.318  0.3427 -0.3668  0.2154
   52MOL0     H 7013   6.162   6.198   5.148  0.0209 -1.3571 -0.4861
   52MOL0     H 7014   6.419   6.309   5.271  0.6170  2.9205  0.3100
   52MOL0     H 7015   6.261   6.394   5.299 -0.1690  1.3289 -2.0291
   52MOL0     H 7016   6.245   6.431   5.046 -0.2486 -1.1050 -1.3828
   52MOL0     H 7017   6.395   6.331   5.039  1.3543  2.4043 -1.9381
   52MOL0     H 7018   6.565   6.693   5.138  0.6147 -0.5551 -1.7953
   52MOL0     H 7019   6.491   5.874   5.268 -0.5238  2.4709  1.0256
   52MOL0     H 7020   6.684   5.768   5.260 -1.3891 -0.5684 -0.0348
   53MOL0     O 7021   9.581   1.543   5.626 -0.5419  0.5471 -0.4089
   53MOL0     C 7022   9.611   1.426   5.589  0.1583  0.1089  0.0793
   53MOL0     O 7023   9.526   1.316   5.577  0.3310 -0.3644 -0.5401
   53MOL0     C 7024   9.393   1.344   5.593 -0.0152  0.3710  0.2706
   53MOL0     C 7025   9.334   1.405   5.698 -0.1442 -0.6712 -0.3444
   53MOL0     C 7026   9.194   1.421   5.708 -0.5665  0.6454  0.6543
   53MOL0     C 7027   9.107   1.366   5.605 -0.2506  0.5035 -0.1474
   53MOL0     O 7028   8.971   1.372   5.617 -0.2406  0.6673  0.1616
   53MOL0     C 7029   8.915   1.478   5.704  0.1436  0.5461  0.2964
   53MOL0     C 7030   8.768   1.498   5.691 -0.4842  0.1710  0.8763
   53MOL0     C 7031   8.713   1.617   5.770 -0.1271 -1.2194 -0.1367
   53MOL0     C 7032   8.725   1.745   5.685 -0.5449  0.6200  0.6214
   53MOL0     C 7033   8.627   1.851   5.729 -0.0460  0.3255  0.3846
   53MOL0     C 7034   8.657   1.981   5.650  0.0303  1.0868  0.1324
   53MOL0     C 7035   8.543   2.083   5.671  0.5884  0.1691 -0.1545
   53MOL0     C 7036   8.525   2.194   5.564  0.1408 -0.1357  0.3946
   53MOL0     N 7037   8.401   2.261   5.576 -0.7458  0.8696 -0.0760
   53MOL0     C 7038   8.328   2.282   5.691  0.1481 -0.7577  0.1400
   53MOL0     C 7039   8.199   2.298   5.652 -0.7717  0.8444  0.6496
   53MOL0     C 7040   8.095   2.316   5.760  0.0452  0.3722 -0.8563
   53MOL0     C 7041   7.964   2.351   5.684  0.4752  0.1154 -0.6797
   53MOL0     C 7042   7.942   2.492   5.625 -0.9395  0.3517  0.4694
   53MOL0     C 7043   7.950   2.596   5.732 -0.0047  0.7914 -0.3295
   53MOL0     O 7044   8.074   2.623   5.774  0.3734 -0.1447 -0.6716
   53MOL0     C 7045   8.081   2.709   5.879 -0.2985 -0.0594  0.3117
   53MOL0     C 7046   7.978   2.790   5.927 -0.4503 -0.0501  0.0058
   53MOL0     C 7047   7.998   2.874   6.040 -0.6025  0.0956  0.5136
   53MOL0     C 7048   7.892   2.979   6.058 -0.3455 -0.3295  0.1354
   53MOL0     C 7049   8.114   2.861   6.115 -0.2494  0.9069  0.1276
   53MOL0     C 7050   8.154   2.935   6.241  0.4096  0.4804  0.1232
   53MOL0     O 7051   8.287   2.945   6.270  0.3872 -0.3747 -0.1141
   53MOL0     C 7052   8.325   3.024   6.370 -0.0427 -0.5276  0.7390
   53MOL0     C 7053   8.311   2.969   6.502 -0.3313  0.5618 -0.1217
   53MOL0     C 7054   8.350   3.044   6.614 -0.0436 -0.7372 -0.2076
   53MOL0     C 7055   8.409   3.172   6.600 -0.1911  0.5726 -1.0715
   53MOL0     O 7056   8.431   3.249   6.712 -0.1877  0.4874 -0.0507
   53MOL0     C 7057   8.469   3.386   6.718  0.5006  0.0882  0.1278
   53MOL0     C 7058   8.460   3.432   6.866  0.1545 -1.1421  0.9878
   53MOL0     C 7059   8.572   3.358   6.946  0.3329 -0.1611  0.1209
   53MOL0     C 7060   8.571   3.415   7.085 -0.8815 -1.1083 -0.2535
   53MOL0     C 7061   8.672   3.374   7.184 -0.2984  0.0441  0.1043
   53MOL0     C 7062   8.649   3.426   7.324 -0.9863 -0.1654  0.9228
   53MOL0     C 7063   8.638   3.574   7.327  0.1034  0.2524 -0.4193
   53MOL0     C 7064   8.638   3.619   7.474 -0.0471 -0.7133 -0.0913
   53MOL0    Cl 7065   8.787   3.591   7.577  0.1518 -0.0053 -0.0153
   53MOL0     C 7066   8.423   3.222   6.466 -0.2515  0.2179  0.1778
   53MOL0     C 7067   8.387   3.151   6.350  0.2776 -0.3324  0.3559
   53MOL0     O 7068   8.064   2.989   6.300 -0.2968  0.4562 -0.9857
   53MOL0     C 7069   8.215   2.783   6.063 -0.8680 -0.0606  0.1459
   53MOL0     C 7070   8.196   2.699   5.955  0.2686  0.5230  0.3597
   53MOL0     N 7071   8.195   2.278   5.509  0.4178  0.5684  0.4220
   53MOL0     N 7072   8.311   2.258   5.469 -0.9548  0.2715  0.0455
   53MOL0     C 7073   9.173   1.308   5.495  0.1549 -0.6849 -0.2979
   53MOL0     C 7074   9.312   1.292   5.490  0.3810  0.3198 -0.6184
   53MOL0     C 7075   9.756   1.395   5.568  0.0147 -0.3733 -0.1325
   53MOL0     C 7076   9.842   1.481   5.510 -0.1053 -0.0752  1.2671
   53MOL0     C 7077   9.974   1.444   5.489  0.1201 -0.8625  0.5621
   53MOL0     C 7078  10.022   1.320   5.523  0.1128 -0.6850 -0.2345
   53MOL0     O 7079  10.157   1.300   5.520 -0.3007 -0.6351 -0.0578
   53MOL0     C 7080  10.222   1.170   5.524 -0.5264  0.3370 -0.5113
   53MOL0     C 7081  10.163   1.082   5.415  0.4279 -0.1787  0.5555
   53MOL0     C 7082  10.217   0.935   5.429 -0.6340 -1.0630 -0.3354
   53MOL0     C 7083  10.118   0.847   5.366 -0.2350  0.3427 -0.4997
   53MOL0     C 7084   9.984   0.844   5.432 -0.3124  0.0786  0.5092
   53MOL0     C 7085   9.884   0.830   5.495 -0.2742  0.6395 -0.4544
   53MOL0     C 7086   9.935   1.238   5.594 -0.5558 -0.1243 -0.5541
   53MOL0     C 7087   9.802   1.267   5.619 -0.2729 -0.6586  0.1984
   53MOL0     H 7088   9.395   1.442   5.779 -1.7804  1.3502  0.0524
   53MOL0     H 7089   9.153   1.467   5.797  0.4065 -0.8597  1.9493
   53MOL0     H 7090   8.939   1.452   5.808  1.7362 -0.2293 -0.2274
   53MOL0     H 7091   8.976   1.565   5.679  4.3068 -2.0312  0.5073
   53MOL0     H 7092   8.744   1.507   5.584  0.5547  1.7315  0.7453
   53MOL0     H 7093   8.733   1.399   5.723  2.9452 -1.3230  0.4447
   53MOL0     H 7094   8.616   1.580   5.804 -0.5449 -2.3796 -2.4066
   53MOL0     H 7095   8.769   1.633   5.863 -1.3469  2.0996  0.1861
   53MOL0     H 7096   8.831   1.770   5.693 -0.9104  2.3498  0.5176
   53MOL0     H 7097   8.710   1.719   5.580  3.3101 -1.3770  0.3878
   53MOL0     H 7098   8.522   1.823   5.724  0.3465 -1.0937 -0.3937
   53MOL0     H 7099   8.651   1.874   5.833  1.3022  1.3491 -0.1211
   53MOL0     H 7100   8.748   2.018   5.697  0.4777 -0.4882  0.5718
   53MOL0     H 7101   8.678   1.956   5.546  0.3147  0.4332  0.3416
   53MOL0     H 7102   8.450   2.026   5.681  0.4254  0.8808  4.1770
   53MOL0     H 7103   8.554   2.137   5.765  0.6939 -2.4995  1.4612
   53MOL0     H 7104   8.514   2.149   5.465  2.4151  1.1051 -0.4888
   53MOL0     H 7105   8.609   2.263   5.555  1.7865 -1.8854  1.5678
   53MOL0     H 7106   8.360   2.282   5.795  0.0234  1.4068  0.2302
   53MOL0     H 7107   8.089   2.220   5.813  3.1591  0.2288 -0.5754
   53MOL0     H 7108   8.124   2.388   5.838  0.6701 -0.6075 -0.1550
   53MOL0     H 7109   7.877   2.338   5.749  2.1803 -2.6560  1.2894
   53MOL0     H 7110   7.954   2.276   5.605 -1.3484  1.6301 -1.9794
   53MOL0     H 7111   7.843   2.497   5.577 -0.2128 -0.7138 -1.2154
   53MOL0     H 7112   8.016   2.508   5.547  0.0969 -0.5221  1.2502
   53MOL0     H 7113   7.885   2.558   5.811 -0.4345  1.9966 -0.0823
   53MOL0     H 7114   7.913   2.695   5.705  0.5308  1.1012  0.0489
   53MOL0     H 7115   7.888   2.798   5.866 -0.2120 -2.9136 -0.8861
   53MOL0     H 7116   7.834   2.983   5.965  0.6434 -2.9438 -0.6879
   53MOL0     H 7117   7.820   2.951   6.136  2.3593  0.7843  3.2530
   53MOL0     H 7118   7.919   3.082   6.083 -1.7697 -0.0154  0.4379
   53MOL0     H 7119   8.264   2.872   6.512  1.0701 -0.9266 -5.1134
   53MOL0     H 7120   8.337   3.000   6.713  0.5968 -3.3673 -1.2323
   53MOL0     H 7121   8.572   3.390   6.681  2.0454 -5.2057  2.8175
   53MOL0     H 7122   8.403   3.450   6.658  0.7821 -1.8921 -2.4963
   53MOL0     H 7123   8.482   3.538   6.878 -2.8146 -0.3445  0.2973
   53MOL0     H 7124   8.357   3.422   6.904  0.1094 -0.6332  1.0053
   53MOL0     H 7125   8.667   3.360   6.892 -0.1228 -1.7386 -0.8130
   53MOL0     H 7126   8.525   3.261   6.964  0.5742 -0.3336 -0.1692
   53MOL0     H 7127   8.592   3.516   7.050  0.8981 -1.2304  0.3421
   53MOL0     H 7128   8.472   3.421   7.129 -0.9734 -0.2833 -0.5607
   53MOL0     H 7129   8.776   3.388   7.152 -0.6414  0.8015 -0.7204
   53MOL0     H 7130   8.663   3.265   7.184  2.7394 -0.2974  0.7979
   53MOL0     H 7131   8.560   3.372   7.359  0.1125 -2.8439 -0.0814
   53MOL0     H 7132   8.741   3.407   7.379  0.1686  3.3081  0.4294
   53MOL0     H 7133   8.543   3.614   7.293 -0.7324 -0.2561  1.2165
   53MOL0     H 7134   8.725   3.620   7.280  0.2862 -0.5173 -0.8564
   53MOL0     H 7135   8.546   3.579   7.517  0.1909 -0.2881  0.8416
   53MOL0     H 7136   8.617   3.726   7.462  1.8048 -0.1143  1.4898
   53MOL0     H 7137   8.464   3.321   6.454  0.4974 -0.4133 -4.3030
   53MOL0     H 7138   8.402   3.175   6.245 -2.4333  0.3573  0.0635
   53MOL0     H 7139   8.311   2.774   6.114 -0.8126 -1.3866 -0.1722
   53MOL0     H 7140   8.272   2.624   5.937 -1.4135 -1.1082 -0.2531
   53MOL0     H 7141   9.103   1.286   5.415 -1.0714  3.8035 -0.7359
   53MOL0     H 7142   9.354   1.245   5.402  1.1699 -1.1108  0.4710
   53MOL0     H 7143   9.807   1.578   5.478 -2.2568 -1.4000 -0.8361
   53MOL0     H 7144  10.043   1.508   5.435  1.4562 -0.4632  2.6139
   53MOL0     H 7145  10.330   1.176   5.511 -0.5791 -1.0362 -1.8655
   53MOL0     H 7146  10.213   1.112   5.616  1.4857  0.6900 -0.0448
   53MOL0     H 7147  10.181   1.121   5.315  0.9319  2.2156  1.5164
   53MOL0     H 7148  10.054   1.083   5.423  0.4430  3.0431  1.7963
   53MOL0     H 7149  10.233   0.905   5.533  0.2239 -2.3374 -0.8142
   53MOL0     H 7150  10.308   0.923   5.370 -0.7303 -0.3735 -0.6330
   53MOL0     H 7151  10.154   0.744   5.370  1.4607  0.8633 -1.1610
   53MOL0     H 7152  10.112   0.875   5.260 -0.4721 -0.0291 -0.5836
   53MOL0     H 7153   9.791   0.804   5.540  1.0137 -2.8804  0.4756
   53MOL0     H 7154   9.954   1.132   5.608 -2.7739 -0.5387 -0.2930
   53MOL0     H 7155   9.737   1.186   5.652  2.6712 -2.6795  1.4335
   54MOL0     O 7156   0.926   5.118   6.612 -0.1449  0.0429  0.3470
   54MOL0     C 7157   1.004   5.105   6.517  0.3336  0.5771  0.4787
   54MOL0     O 7158   1.144   5.103   6.529  0.0155  0.7925  0.0601
   54MOL0     C 7159   1.219   5.140   6.638  0.4101  0.7799  0.8400
   54MOL0     C 7160   1.171   5.144   6.773  0.0514  0.6803  0.7750
   54MOL0     C 7161   1.239   5.215   6.871  0.8795 -0.3702 -0.0119
   54MOL0     C 7162   1.370   5.263   6.837  0.8918 -0.6810  0.0642
   54MOL0     O 7163   1.434   5.310   6.946 -0.5633  0.4342  0.6576
   54MOL0     C 7164   1.556   5.383   6.926 -0.8590 -0.3522  0.8227
   54MOL0     C 7165   1.605   5.433   7.061  0.3374  0.4616  0.5094
   54MOL0     C 7166   1.578   5.583   7.108  0.2122  0.2961 -0.4712
   54MOL0     C 7167   1.434   5.607   7.140 -0.1038  0.3718 -0.4962
   54MOL0     C 7168   1.409   5.734   7.218  0.7905  0.7733  0.2045
   54MOL0     C 7169   1.454   5.734   7.363 -0.2607  0.3059  0.0744
   54MOL0     C 7170   1.373   5.838   7.445  0.0724 -0.2286  0.7130
   54MOL0     C 7171   1.441   5.889   7.569 -0.7903  0.7305  0.0275
   54MOL0     N 7172   1.479   5.786   7.665 -0.2530  0.2286 -0.2584
   54MOL0     C 7173   1.563   5.681   7.654  0.7041 -0.0072 -0.7070
   54MOL0     C 7174   1.570   5.622   7.777 -0.0709  0.2728  0.2048
   54MOL0     C 7175   1.650   5.493   7.810  0.9528 -0.0769 -0.1082
   54MOL0     C 7176   1.550   5.377   7.851  0.8458  0.2945 -1.2303
   54MOL0     C 7177   1.511   5.395   8.000  0.9316 -0.8556  0.0820
   54MOL0     C 7178   1.436   5.270   8.043 -0.6766  0.7267  0.1324
   54MOL0     O 7179   1.376   5.288   8.173 -0.7241 -0.3049 -0.6054
   54MOL0     C 7180   1.260   5.219   8.216  0.1034  0.7136  0.4018
   54MOL0     C 7181   1.181   5.138   8.132 -0.1837 -0.4600 -0.4455
   54MOL0     C 7182   1.061   5.065   8.167  0.7903 -0.3832 -0.0283
   54MOL0     C 7183   0.973   5.000   8.055 -0.9157  0.8022 -0.5129
   54MOL0     C 7184   1.016   5.071   8.304  0.0543  0.1858  0.3267
   54MOL0     C 7185   0.905   4.986   8.351 -0.8098  0.0623 -0.3736
   54MOL0     O 7186   0.867   5.019   8.473  0.1509 -0.4880 -0.2205
   54MOL0     C 7187   0.754   4.974   8.538  0.2132  0.1630  0.0979
   54MOL0     C 7188   0.639   4.904   8.476 -0.0827 -0.1892  0.2962
   54MOL0     C 7189   0.523   4.874   8.544  0.1633 -0.1701 -0.2104
   54MOL0     C 7190   0.519   4.891   8.683  0.3390 -0.0462  1.0543
   54MOL0     O 7191   0.400   4.863   8.753 -0.3019  0.1868  0.3262
   54MOL0     C 7192   0.401   4.842   8.897  0.0346  0.0101 -0.1197
   54MOL0     C 7193   0.256   4.827   8.936  0.2834  0.3012 -0.3562
   54MOL0     C 7194   0.248   4.784   9.082 -0.1734  0.1096 -0.8490
   54MOL0     C 7195   0.297   4.873   9.196  0.6283  0.6170  0.5433
   54MOL0     C 7196   0.327   4.799   9.320 -0.0426 -0.6312 -0.1810
   54MOL0     C 7197   0.205   4.793   9.412  0.5564  0.2258  0.1315
   54MOL0     C 7198   0.244   4.701   9.531  0.2080 -0.3836  0.1873
   54MOL0     C 7199   0.354   4.758   9.623 -0.3450  0.0142  0.1007
   54MOL0    Cl 7200   0.328   4.661   9.773 -0.0393 -0.3951 -0.6667
   54MOL0     C 7201   0.626   4.966   8.740  0.2565  0.0502 -0.0465
   54MOL0     C 7202   0.742   5.004   8.668 -0.1052 -0.6003 -0.6175
   54MOL0     O 7203   0.846   4.906   8.283  1.1670  0.0589  0.2894
   54MOL0     C 7204   1.107   5.138   8.392 -0.9088 -0.2393  0.3697
   54MOL0     C 7205   1.225   5.215   8.351 -0.0032  0.6428  1.0700
   54MOL0     N 7206   1.492   5.701   7.865 -0.7968  0.2887 -0.1553
   54MOL0     N 7207   1.442   5.796   7.796 -0.0373  0.0274  0.1563
   54MOL0     C 7208   1.427   5.249   6.704  0.2619  0.4902  0.5047
   54MOL0     C 7209   1.346   5.185   6.604 -0.6683 -0.1417 -0.3357
   54MOL0     C 7210   0.943   5.067   6.382 -0.0031  0.4003  0.0177
   54MOL0     C 7211   1.019   5.021   6.281  0.2180 -0.4239 -0.0751
   54MOL0     C 7212   0.957   4.977   6.165  0.5042  0.0430 -0.9951
   54MOL0     C 7213   0.823   4.963   6.144  0.0865 -1.3479  0.2435
   54MOL0     O 7214   0.783   4.895   6.030  0.3100 -0.3372  0.2688
   54MOL0     C 7215   0.643   4.888   6.010  0.6417 -0.3308  0.3593
   54MOL0     C 7216   0.615   4.814   5.868  0.0338  0.2692 -0.0278
   54MOL0     C 7217   0.703   4.696   5.828 -0.0573  0.5458 -0.6162
   54MOL0     C 7218   0.690   4.647   5.686  0.3171  0.2518  0.2621
   54MOL0     C 7219   0.564   4.587   5.656 -0.3254  0.8517  0.6460
   54MOL0     C 7220   0.459   4.526   5.638 -0.2512 -0.1403 -0.5175
   54MOL0     C 7221   0.739   5.006   6.252  0.2262 -0.2406 -0.1398
   54MOL0     C 7222   0.808   5.051   6.369 -0.2390  0.0044 -0.6405
   54MOL0     H 7223   1.074   5.102   6.799 -1.5659  3.1021 -0.8731
   54MOL0     H 7224   1.196   5.248   6.965  2.2426 -1.2651  0.9581
   54MOL0     H 7225   1.628   5.313   6.882 -0.1843  1.1176 -0.5125
   54MOL0     H 7226   1.549   5.469   6.860  1.2722 -0.6433  0.1322
   54MOL0     H 7227   1.583   5.366   7.145  1.4456 -0.2734  0.2238
   54MOL0     H 7228   1.713   5.430   7.047  0.7928  1.3225  3.2982
   54MOL0     H 7229   1.646   5.612   7.188 -0.4964  2.0878 -0.4638
   54MOL0     H 7230   1.627   5.637   7.026  0.8891 -2.3068 -1.8655
   54MOL0     H 7231   1.381   5.614   7.045 -0.9692  1.6806  0.0542
   54MOL0     H 7232   1.391   5.528   7.202 -1.5197  0.6528 -1.0961
   54MOL0     H 7233   1.450   5.823   7.169  0.4985  3.1110  3.8121
   54MOL0     H 7234   1.300   5.739   7.230  0.9564  1.1908  1.7369
   54MOL0     H 7235   1.428   5.642   7.417 -1.6785  1.3425  1.2473
   54MOL0     H 7236   1.561   5.756   7.373 -0.2427 -0.7695  4.0589
   54MOL0     H 7237   1.359   5.931   7.390 -2.6747 -0.7135  0.4933
   54MOL0     H 7238   1.282   5.791   7.482 -1.9176  3.1375  0.4381
   54MOL0     H 7239   1.388   5.971   7.618  0.5487  0.6827  1.6585
   54MOL0     H 7240   1.532   5.942   7.538 -0.3314 -0.4143 -0.6634
   54MOL0     H 7241   1.623   5.655   7.567  2.2293  0.9508  0.0202
   54MOL0     H 7242   1.718   5.463   7.729 -0.2264 -2.6559 -0.2375
   54MOL0     H 7243   1.722   5.518   7.889 -0.8852 -0.3398  1.7501
   54MOL0     H 7244   1.593   5.279   7.829  1.2116  0.4346 -1.1579
   54MOL0     H 7245   1.458   5.387   7.794 -0.2631 -1.5271  0.1445
   54MOL0     H 7246   1.449   5.483   8.021 -0.5848 -2.0139  0.6771
   54MOL0     H 7247   1.607   5.400   8.053  1.3257  2.6367 -0.7376
   54MOL0     H 7248   1.505   5.185   8.046  1.2468  2.2338  0.5608
   54MOL0     H 7249   1.356   5.249   7.972 -0.3568  1.2241 -0.3892
   54MOL0     H 7250   1.205   5.134   8.026 -0.3123 -1.5152 -0.4516
   54MOL0     H 7251   1.002   5.017   7.951 -2.6546 -2.7470 -1.7310
   54MOL0     H 7252   0.981   4.893   8.076  0.4524  1.0679  0.4081
   54MOL0     H 7253   0.874   5.047   8.057 -1.4867 -0.3998  0.6294
   54MOL0     H 7254   0.626   4.890   8.369  0.3446  2.7816 -0.2281
   54MOL0     H 7255   0.438   4.836   8.487 -0.1454  1.6352 -1.0232
   54MOL0     H 7256   0.440   4.743   8.922 -1.7539 -0.5053  0.7776
   54MOL0     H 7257   0.457   4.921   8.949 -1.0401  0.4616  0.3920
   54MOL0     H 7258   0.202   4.922   8.930 -1.0385 -0.2489  1.7013
   54MOL0     H 7259   0.216   4.742   8.880 -1.7463 -1.2642  3.1367
   54MOL0     H 7260   0.269   4.677   9.093 -0.6186  0.0556 -0.4917
   54MOL0     H 7261   0.142   4.771   9.106  1.2506 -3.5630  6.1629
   54MOL0     H 7262   0.385   4.927   9.161  0.3487  0.4685 -0.4225
   54MOL0     H 7263   0.214   4.943   9.213 -0.5883 -1.2504  2.7571
   54MOL0     H 7264   0.398   4.859   9.378 -1.0206  2.0475 -1.5794
   54MOL0     H 7265   0.367   4.700   9.299  1.2257  0.2016 -1.9687
   54MOL0     H 7266   0.181   4.892   9.453 -0.1435  0.3395 -0.5320
   54MOL0     H 7267   0.110   4.760   9.369 -0.4622  0.1986  2.2750
   54MOL0     H 7268   0.270   4.600   9.500 -0.5093  0.0064 -1.8838
   54MOL0     H 7269   0.158   4.683   9.597  0.1964 -1.7261 -0.1735
   54MOL0     H 7270   0.346   4.866   9.636 -0.8063 -0.2395  2.2244
   54MOL0     H 7271   0.455   4.738   9.587 -0.6118  1.3592 -1.5212
   54MOL0     H 7272   0.627   4.994   8.845  1.3826 -0.9596  0.2373
   54MOL0     H 7273   0.828   5.037   8.726 -0.9280 -1.0804  0.9460
   54MOL0     H 7274   1.085   5.139   8.499  1.5103  2.6031  1.0070
   54MOL0     H 7275   1.283   5.266   8.428 -1.6501 -0.7464  3.3605
   54MOL0     H 7276   1.531   5.268   6.680 -0.1030  2.2007  0.2077
   54MOL0     H 7277   1.379   5.164   6.503 -1.7166 -0.6484 -0.5814
   54MOL0     H 7278   1.128   5.019   6.283  0.2175 -0.4267  1.5265
   54MOL0     H 7279   1.024   4.926   6.096  1.4138  0.8753 -0.7564
   54MOL0     H 7280   0.594   4.823   6.082 -1.5303  3.2945  2.4773
   54MOL0     H 7281   0.589   4.982   6.024 -0.5822 -0.8615 -0.6111
   54MOL0     H 7282   0.622   4.884   5.785 -1.0698  1.3341  0.7480
   54MOL0     H 7283   0.509   4.786   5.869  0.7766 -2.9943  0.6788
   54MOL0     H 7284   0.690   4.608   5.892 -1.9338  1.0963 -0.1682
   54MOL0     H 7285   0.808   4.725   5.838  0.4125 -0.9460 -1.0488
   54MOL0     H 7286   0.764   4.572   5.656 -1.1608 -0.9265 -0.5383
   54MOL0     H 7287   0.713   4.730   5.620  0.1213  0.8563  0.9414
   54MOL0     H 7288   0.367   4.483   5.605  0.7892 -2.4721 -0.6049
   54MOL0     H 7289   0.631   5.001   6.248  0.2191  0.5148 -1.7658
   54MOL0     H 7290   0.744   5.075   6.453 -0.7160 -1.7309 -0.4548
   55MOL0     O 7291   6.999   1.750  10.170  0.3157  0.2555 -0.3854
   55MOL0     C 7292   6.957   1.841  10.236 -0.6413 -0.8815  0.1550
   55MOL0     O 7293   6.836   1.854  10.292  0.1326  0.0325 -0.0076
   55MOL0     C 7294   6.723   1.820  10.209 -0.0589 -0.0743 -0.5266
   55MOL0     C 7295   6.595   1.822  10.267 -0.7040 -0.1075 -0.2736
   55MOL0     C 7296   6.485   1.789  10.203  0.3213  0.3569 -0.5858
   55MOL0     C 7297   6.479   1.760  10.066 -0.3727  0.5176  0.2481
   55MOL0     O 7298   6.367   1.720  10.003  0.6172 -0.1924  0.0420
   55MOL0     C 7299   6.242   1.720  10.070  0.4455 -0.2245  0.1884
   55MOL0     C 7300   6.126   1.673   9.978  0.0267 -0.1794 -0.0617
   55MOL0     C 7301   5.986   1.672  10.043  0.4273 -0.1896  0.2200
   55MOL0     C 7302   5.886   1.649   9.936 -0.1766  0.2260  0.9179
   55MOL0     C 7303   5.753   1.606   9.988 -0.4508  0.0260 -0.5823
   55MOL0     C 7304   5.653   1.575   9.875  0.2000  0.6446  0.6566
   55MOL0     C 7305   5.512   1.545   9.933  0.4341 -0.3157 -0.5298
   55MOL0     C 7306   5.398   1.559   9.835  0.1958  0.1490 -0.0140
   55MOL0     N 7307   5.367   1.426   9.787 -0.2214 -0.6733 -1.1184
   55MOL0     C 7308   5.347   1.306   9.859  0.0038 -0.7088 -0.5206
   55MOL0     C 7309   5.355   1.216   9.761  0.1991  0.5181  0.4173
   55MOL0     C 7310   5.358   1.066   9.773 -0.0762 -0.4580  0.3337
   55MOL0     C 7311   5.213   1.024   9.812 -0.0927  0.5035  0.4632
   55MOL0     C 7312   5.213   0.871   9.811 -0.9521  0.2929 -0.9374
   55MOL0     C 7313   5.192   0.822   9.668  0.4820  0.5121  0.9089
   55MOL0     O 7314   5.056   0.798   9.639  0.6698  0.1137 -0.0523
   55MOL0     C 7315   5.008   0.755   9.515 -0.4976 -0.0182  0.4403
   55MOL0     C 7316   4.868   0.759   9.486  0.0930  0.1484 -0.2035
   55MOL0     C 7317   4.811   0.712   9.368  0.3591  0.7105 -0.4392
   55MOL0     C 7318   4.655   0.698   9.375 -0.7802  0.2656 -0.0349
   55MOL0     C 7319   4.893   0.667   9.262 -0.0586  0.0057  0.7166
   55MOL0     C 7320   4.838   0.629   9.130 -0.8847 -0.3039 -0.1483
   55MOL0     O 7321   4.933   0.557   9.057 -1.1148 -0.2107 -0.0094
   55MOL0     C 7322   4.898   0.508   8.940  0.8789  0.9921  0.5222
   55MOL0     C 7323   4.966   0.537   8.828  0.1025 -0.1463  0.9288
   55MOL0     C 7324   4.951   0.463   8.715  0.2774 -1.0025  0.4914
   55MOL0     C 7325   4.870   0.353   8.703 -0.5246  0.7416  0.4147
   55MOL0     O 7326   4.865   0.286   8.586  0.0764  1.1059  0.4554
   55MOL0     C 7327   4.796   0.157   8.571 -0.2192 -1.3040  1.0640
   55MOL0     C 7328   4.898   0.053   8.624  1.0293  1.0156  0.0089
   55MOL0     C 7329   4.836  -0.087   8.631 -0.0895  0.2200 -0.3217
   55MOL0     C 7330   4.710  -0.103   8.715  0.3359  1.3062  0.1248
   55MOL0     C 7331   4.659  -0.242   8.708 -0.3739 -0.6295  0.1133
   55MOL0     C 7332   4.527  -0.253   8.785  0.1361 -0.2918 -0.8435
   55MOL0     C 7333   4.470  -0.401   8.776 -0.3369 -0.6790 -0.2625
   55MOL0     C 7334   4.324  -0.398   8.816 -0.1046  0.8590  0.5373
   55MOL0    Cl 7335   4.263  -0.571   8.837 -0.1071  0.2724 -0.0171
   55MOL0     C 7336   4.789   0.326   8.814 -0.6811 -0.2023 -0.5245
   55MOL0     C 7337   4.799   0.408   8.933 -0.3532 -1.2038  0.5247
   55MOL0     O 7338   4.732   0.666   9.084  0.2741 -0.5358 -0.5367
   55MOL0     C 7339   5.036   0.673   9.282  0.2195  0.2673 -1.0768
   55MOL0     C 7340   5.090   0.731   9.402  0.9194  0.7240 -0.4710
   55MOL0     N 7341   5.372   1.273   9.638 -0.9106  0.0420 -0.0148
   55MOL0     N 7342   5.383   1.396   9.657 -0.4869 -0.1869 -0.1021
   55MOL0     C 7343   6.600   1.745  10.005  0.0313 -0.3716  0.5513
   55MOL0     C 7344   6.721   1.780  10.074  0.0316  0.3431  0.7272
   55MOL0     C 7345   7.043   1.955  10.265 -0.4802 -0.1128 -0.6013
   55MOL0     C 7346   6.999   2.072  10.331  0.3583 -0.3775  0.2800
   55MOL0     C 7347   7.090   2.162  10.393 -0.7498 -1.1203  0.6898
   55MOL0     C 7348   7.231   2.151  10.374 -0.1024  0.8675  1.0750
   55MOL0     O 7349   7.315   2.249  10.421 -0.8059 -0.2529  0.2574
   55MOL0     C 7350   7.341   2.344  10.317  0.7660 -0.4971  0.4565
   55MOL0     C 7351   7.220   2.432  10.276  0.2024 -1.1014  0.3356
   55MOL0     C 7352   7.243   2.577  10.243 -0.5946 -0.3456  0.5478
   55MOL0     C 7353   7.324   2.658  10.358 -0.2097  0.0898 -0.4376
   55MOL0     C 7354   7.372   2.797  10.319 -0.1260 -0.5302 -0.7227
   55MOL0     C 7355   7.423   2.909  10.298  0.0795  0.8314  0.4747
   55MOL0     C 7356   7.268   2.048  10.289  0.5302 -0.4449  0.9116
   55MOL0     C 7357   7.182   1.948  10.235  0.4705  0.3450  0.5144
   55MOL0     H 7358   6.605   1.848  10.372  1.3271  0.3626 -0.5367
   55MOL0     H 7359   6.391   1.802  10.255 -0.0209  2.9456 -1.7068
   55MOL0     H 7360   6.247   1.661  10.162 -2.9095  3.9168  3.5073
   55MOL0     H 7361   6.213   1.817  10.113  0.2496  0.7971 -2.1030
   55MOL0     H 7362   6.125   1.737   9.890  1.9233 -0.4560 -0.3422
   55MOL0     H 7363   6.149   1.568   9.959  1.1113 -0.0090  0.1902
   55MOL0     H 7364   5.972   1.589  10.113  0.1504 -2.3076 -2.1846
   55MOL0     H 7365   5.971   1.769  10.091  2.3978 -0.5317  1.6202
   55MOL0     H 7366   5.870   1.734   9.869 -2.7289 -1.2978 -0.6051
   55MOL0     H 7367   5.913   1.571   9.864 -0.6808  0.6348  0.2684
   55MOL0     H 7368   5.763   1.518  10.053  0.7638 -0.2002 -1.0640
   55MOL0     H 7369   5.721   1.693  10.046  1.4625 -1.6315  3.3118
   55MOL0     H 7370   5.654   1.657   9.803  1.1312 -0.1202 -0.2396
   55MOL0     H 7371   5.691   1.486   9.823  1.1543  1.5357 -0.2179
   55MOL0     H 7372   5.527   1.444   9.972  6.0721  0.6785  0.6834
   55MOL0     H 7373   5.499   1.615  10.016 -1.7341  0.4856 -1.4689
   55MOL0     H 7374   5.429   1.621   9.751 -0.6333 -0.1916 -0.5909
   55MOL0     H 7375   5.311   1.606   9.882 -0.2105 -0.1091 -0.4848
   55MOL0     H 7376   5.338   1.275   9.963 -1.9098  1.1906 -0.0521
   55MOL0     H 7377   5.389   1.019   9.679 -1.1499  0.8574 -0.7396
   55MOL0     H 7378   5.421   1.043   9.859 -1.3416 -0.7791  1.2097
   55MOL0     H 7379   5.144   1.059   9.735  1.0676  1.6594 -0.0964
   55MOL0     H 7380   5.187   1.070   9.908  0.7786 -0.6190  1.2566
   55MOL0     H 7381   5.144   0.832   9.886  0.6764  1.1773  1.0966
   55MOL0     H 7382   5.311   0.836   9.843 -0.0214  3.4852  0.0733
   55MOL0     H 7383   5.230   0.720   9.658 -1.3706 -0.1297  0.0461
   55MOL0     H 7384   5.241   0.883   9.592 -0.7042 -0.4683 -0.6908
   55MOL0     H 7385   4.800   0.799   9.560 -1.6955 -2.2472 -0.4043
   55MOL0     H 7386   4.614   0.635   9.296  1.8776 -1.1461 -0.3935
   55MOL0     H 7387   4.603   0.672   9.467 -0.3414 -0.1991  0.0862
   55MOL0     H 7388   4.614   0.799   9.364  4.1175  2.6722  1.1887
   55MOL0     H 7389   5.040   0.615   8.819 -0.8962  0.6189 -1.4308
   55MOL0     H 7390   5.022   0.497   8.640  0.9586 -0.5397  1.3206
   55MOL0     H 7391   4.697   0.153   8.618 -0.1181 -1.7449  1.2370
   55MOL0     H 7392   4.770   0.145   8.465  0.2449 -1.5645  0.9799
   55MOL0     H 7393   4.979   0.052   8.552 -1.6011  2.3430 -3.2388
   55MOL0     H 7394   4.921   0.080   8.727 -0.5363 -0.0910  0.7080
   55MOL0     H 7395   4.909  -0.156   8.673 -0.8436  1.0212  2.5323
   55MOL0     H 7396   4.821  -0.136   8.534 -0.6778  2.9135 -1.6958
   55MOL0     H 7397   4.738  -0.089   8.820  0.2081  0.5338  0.2717
   55MOL0     H 7398   4.629  -0.032   8.693 -0.4684  0.2493 -0.4270
   55MOL0     H 7399   4.739  -0.308   8.743  1.2570 -0.0107 -2.2209
   55MOL0     H 7400   4.640  -0.260   8.602  3.5587 -3.4448 -0.3396
   55MOL0     H 7401   4.545  -0.229   8.890  0.4441 -3.1968 -0.1558
   55MOL0     H 7402   4.456  -0.174   8.755 -1.8570 -1.2122  1.1378
   55MOL0     H 7403   4.524  -0.468   8.843  0.4002  0.6483  0.4926
   55MOL0     H 7404   4.485  -0.440   8.674 -3.1471  0.6878 -1.3179
   55MOL0     H 7405   4.259  -0.347   8.744 -0.0152 -1.0948 -0.9986
   55MOL0     H 7406   4.316  -0.352   8.915 -0.9640  0.1751  0.8065
   55MOL0     H 7407   4.721   0.241   8.813 -1.0249 -0.0400  2.3129
   55MOL0     H 7408   4.745   0.392   9.025 -2.2175 -1.1040 -0.5055
   55MOL0     H 7409   5.103   0.630   9.208  0.3609  0.2026 -0.9110
   55MOL0     H 7410   5.197   0.729   9.423  0.8412 -4.5205  0.9020
   55MOL0     H 7411   6.601   1.717   9.900  1.3523  2.0630 -0.1516
   55MOL0     H 7412   6.815   1.759  10.024  1.4875  3.0974  2.0944
   55MOL0     H 7413   6.893   2.093  10.336  0.0889 -0.6032 -2.8629
   55MOL0     H 7414   7.052   2.248  10.446 -2.8747  0.4181 -2.9540
   55MOL0     H 7415   7.431   2.400  10.343  1.9927 -1.4117 -1.5624
   55MOL0     H 7416   7.374   2.290  10.228  1.0464  0.8773 -0.3107
   55MOL0     H 7417   7.149   2.429  10.359 -1.4590 -0.6941 -1.0161
   55MOL0     H 7418   7.174   2.390  10.186  1.3891 -0.7915 -0.4379
   55MOL0     H 7419   7.142   2.618  10.231 -0.8749 -1.1493  0.0327
   55MOL0     H 7420   7.291   2.587  10.145  0.1859  0.8518  1.0308
   55MOL0     H 7421   7.404   2.599  10.404 -2.7300 -1.9452  1.6298
   55MOL0     H 7422   7.250   2.672  10.437  0.8921  1.1347  0.4591
   55MOL0     H 7423   7.478   2.999  10.284  1.8608  0.1616  2.5418
   55MOL0     H 7424   7.373   2.038  10.263 -0.2883 -1.4059 -2.5255
   55MOL0     H 7425   7.212   1.874  10.162 -3.9884  1.3056 -2.7205
   56MOL0     O 7426   2.974   3.392  10.364 -0.7134 -0.1061  0.1954
   56MOL0     C 7427   3.014   3.396  10.250 -0.1879 -0.3625 -0.0726
   56MOL0     O 7428   3.150   3.382  10.215 -0.1212  0.1978  0.8944
   56MOL0     C 7429   3.248   3.368  10.302 -0.2781  0.6499  0.3681
   56MOL0     C 7430   3.258   3.461  10.407  0.5329 -0.0262 -1.2102
   56MOL0     C 7431   3.358   3.452  10.506  0.2889 -0.7760  0.6811
   56MOL0     C 7432   3.445   3.349  10.495  0.1830 -0.9091  1.3830
   56MOL0     O 7433   3.534   3.334  10.597 -0.5590  0.6253  0.0338
   56MOL0     C 7434   3.661   3.257  10.591 -1.1717  0.1482  0.6485
   56MOL0     C 7435   3.780   3.320  10.517  0.2182 -0.7810 -0.1782
   56MOL0     C 7436   3.775   3.471  10.525 -0.1251  0.6476  0.2247
   56MOL0     C 7437   3.818   3.526  10.661 -0.2949 -0.5923 -1.2417
   56MOL0     C 7438   3.831   3.681  10.666  0.3638 -0.2998 -0.5415
   56MOL0     C 7439   3.693   3.749  10.643 -0.2097 -0.2765 -0.4896
   56MOL0     C 7440   3.706   3.890  10.609  0.8458 -0.5505  0.5007
   56MOL0     C 7441   3.570   3.965  10.615 -0.0273 -0.3390  0.3021
   56MOL0     N 7442   3.477   3.956  10.505  0.5634  1.1868  0.7169
   56MOL0     C 7443   3.362   3.878  10.498 -0.5547 -0.7193  0.1926
   56MOL0     C 7444   3.311   3.904  10.382  0.0700  0.6336 -0.2790
   56MOL0     C 7445   3.189   3.841  10.328  1.2117 -0.5076  0.2627
   56MOL0     C 7446   3.210   3.772  10.193 -0.3560  0.1339  0.3136
   56MOL0     C 7447   3.078   3.736  10.127 -0.1260  0.5191  0.0396
   56MOL0     C 7448   2.993   3.853  10.078 -0.5264  0.6517  0.0988
   56MOL0     O 7449   2.898   3.788  10.001 -0.3969  0.5476 -0.2899
   56MOL0     C 7450   2.826   3.869   9.923 -0.2409  0.5317  0.3597
   56MOL0     C 7451   2.828   4.005   9.923 -0.2238  0.1886 -0.0516
   56MOL0     C 7452   2.766   4.083   9.829  0.6533  0.0580 -0.0405
   56MOL0     C 7453   2.786   4.237   9.849  0.3647  0.2987 -0.3677
   56MOL0     C 7454   2.683   4.016   9.731 -0.0185 -0.4878  0.4893
   56MOL0     C 7455   2.614   4.081   9.629  0.2633  0.1829  0.3180
   56MOL0     O 7456   2.598   4.216   9.646  0.0918  0.5430  0.2402
   56MOL0     C 7457   2.572   4.304   9.540 -0.4788 -0.1217 -0.1480
   56MOL0     C 7458   2.454   4.312   9.467  0.3359  0.1644  0.0598
   56MOL0     C 7459   2.441   4.403   9.363 -0.3639  0.0839 -0.3886
   56MOL0     C 7460   2.537   4.488   9.325 -0.5252  0.0559  0.2801
   56MOL0     O 7461   2.514   4.555   9.203  0.1280  0.6593  0.0004
   56MOL0     C 7462   2.594   4.667   9.168  0.1956 -0.1351 -0.4575
   56MOL0     C 7463   2.535   4.735   9.042 -0.1369 -0.4302  0.8001
   56MOL0     C 7464   2.638   4.834   8.973 -0.1965  0.5567 -0.4366
   56MOL0     C 7465   2.565   4.905   8.855 -0.6389  0.2168 -0.3185
   56MOL0     C 7466   2.664   4.949   8.743  0.1303 -0.0486 -0.7635
   56MOL0     C 7467   2.601   4.969   8.610 -0.1536  0.0075  0.3285
   56MOL0     C 7468   2.513   5.093   8.601 -1.2090  0.2671 -1.0155
   56MOL0     C 7469   2.593   5.220   8.619  0.1199  0.6736  0.2236
   56MOL0    Cl 7470   2.489   5.357   8.595  0.3564 -0.3289  0.1144
   56MOL0     C 7471   2.651   4.494   9.404 -0.7358  0.0218 -1.1954
   56MOL0     C 7472   2.669   4.399   9.505 -0.5745 -0.1597  0.1568
   56MOL0     O 7473   2.558   4.021   9.540 -0.7390  0.5985  0.4637
   56MOL0     C 7474   2.676   3.878   9.732 -0.4798 -0.0496 -0.5456
   56MOL0     C 7475   2.746   3.806   9.828 -0.9413  0.8061 -0.6564
   56MOL0     N 7476   3.398   3.980  10.310 -0.4530  1.1931  0.2444
   56MOL0     N 7477   3.503   4.002  10.382  0.4088 -0.4890 -0.0111
   56MOL0     C 7478   3.448   3.260  10.383 -0.1199 -0.0291  0.8263
   56MOL0     C 7479   3.351   3.274  10.283  0.9764 -0.2664  0.8003
   56MOL0     C 7480   2.913   3.416  10.148 -0.0895  0.9496  0.5390
   56MOL0     C 7481   2.935   3.401  10.004 -0.1748  0.2249 -0.2091
   56MOL0     C 7482   2.833   3.406   9.909 -0.4782  0.9697  0.4525
   56MOL0     C 7483   2.704   3.438   9.942 -0.2868 -0.2941 -0.3889
   56MOL0     O 7484   2.611   3.455   9.841  0.4357  0.0768 -0.9695
   56MOL0     C 7485   2.483   3.534   9.865  0.5791 -0.3400  0.4386
   56MOL0     C 7486   2.359   3.451   9.900  0.1961 -0.9497 -0.2317
   56MOL0     C 7487   2.245   3.538   9.957 -1.3014  0.0003  1.3964
   56MOL0     C 7488   2.117   3.464   9.979  0.1397  0.2458  0.5827
   56MOL0     C 7489   2.006   3.539  10.031  0.0354  0.7522  0.2645
   56MOL0     C 7490   1.917   3.604  10.085  0.7459  0.6665 -0.1533
   56MOL0     C 7491   2.676   3.445  10.079  0.8281 -0.8067  0.0261
   56MOL0     C 7492   2.773   3.444  10.180 -0.1072  0.4342 -0.3060
   56MOL0     H 7493   3.190   3.546  10.405 -0.0551 -0.4750 -0.6825
   56MOL0     H 7494   3.356   3.535  10.575  1.2364  0.5622 -0.8528
   56MOL0     H 7495   3.692   3.249  10.695 -0.9762 -1.7057  0.4831
   56MOL0     H 7496   3.653   3.156  10.549  2.3506  0.9490 -2.4102
   56MOL0     H 7497   3.873   3.294  10.568  1.3199  2.7990 -0.0668
   56MOL0     H 7498   3.779   3.289  10.413 -0.5921 -1.3202 -0.0121
   56MOL0     H 7499   3.842   3.496  10.442 -1.7273 -1.3259 -1.7832
   56MOL0     H 7500   3.676   3.514  10.504 -1.1639 -0.3083  2.8358
   56MOL0     H 7501   3.747   3.497  10.738  0.0081 -0.7408 -1.0165
   56MOL0     H 7502   3.916   3.482  10.683  0.7488  0.7909 -2.8734
   56MOL0     H 7503   3.881   3.716  10.757  0.3377 -1.1097 -0.2073
   56MOL0     H 7504   3.891   3.699  10.576  1.4980 -0.8168  0.0731
   56MOL0     H 7505   3.646   3.712  10.551 -1.1170 -3.3597  1.0829
   56MOL0     H 7506   3.627   3.726  10.726 -0.8590  0.7777 -0.6931
   56MOL0     H 7507   3.769   3.929  10.689 -0.5554  2.5237  0.2477
   56MOL0     H 7508   3.763   3.898  10.516 -0.6692 -1.2137 -0.5329
   56MOL0     H 7509   3.576   4.070  10.644 -1.4963 -1.2673  4.5820
   56MOL0     H 7510   3.512   3.922  10.697  2.1607 -0.6643  1.7491
   56MOL0     H 7511   3.325   3.808  10.571 -0.4492 -1.2935 -0.2920
   56MOL0     H 7512   3.148   3.765  10.396 -2.7245 -0.3982 -1.6941
   56MOL0     H 7513   3.116   3.922  10.317  2.2490  0.6453  1.4498
   56MOL0     H 7514   3.274   3.684  10.205 -1.8087 -1.0384 -0.3387
   56MOL0     H 7515   3.261   3.845  10.128  1.2719 -1.2480 -0.0282
   56MOL0     H 7516   3.019   3.677  10.198 -0.7243 -2.9931 -3.1077
   56MOL0     H 7517   3.106   3.674  10.042  1.2420  0.2977  0.6208
   56MOL0     H 7518   3.063   3.918  10.025  0.8285  1.0789  2.2510
   56MOL0     H 7519   2.954   3.912  10.161 -0.0116 -0.0903  0.8891
   56MOL0     H 7520   2.868   4.061  10.007 -2.4634 -0.1385  1.3426
   56MOL0     H 7521   2.844   4.260   9.939 -1.7750 -1.9159  1.7093
   56MOL0     H 7522   2.817   4.289   9.758 -0.0357 -2.3747 -2.1478
   56MOL0     H 7523   2.689   4.278   9.875  0.2077 -1.0460  1.3310
   56MOL0     H 7524   2.372   4.243   9.482 -0.1626  0.6594 -0.3711
   56MOL0     H 7525   2.350   4.386   9.305  0.9519 -0.5856 -2.3549
   56MOL0     H 7526   2.594   4.743   9.246 -2.3380 -0.6714  0.1302
   56MOL0     H 7527   2.698   4.640   9.146  0.6472  0.0483  1.3120
   56MOL0     H 7528   2.506   4.667   8.962  2.0177 -0.6474  0.1403
   56MOL0     H 7529   2.437   4.781   9.059 -0.9524 -0.8626 -2.2130
   56MOL0     H 7530   2.715   4.771   8.928  0.9237  1.6356 -0.0974
   56MOL0     H 7531   2.685   4.899   9.047  0.9583 -0.2345 -0.4538
   56MOL0     H 7532   2.484   4.847   8.810  1.0719 -1.3564 -1.4662
   56MOL0     H 7533   2.514   4.997   8.887  1.7023  1.3539  0.3684
   56MOL0     H 7534   2.732   4.865   8.727  1.0615  0.8956 -1.8941
   56MOL0     H 7535   2.732   5.032   8.760  0.4591 -0.4121 -0.2778
   56MOL0     H 7536   2.690   4.993   8.551 -0.1086 -0.1990  0.3104
   56MOL0     H 7537   2.545   4.881   8.576 -2.1260  1.4484 -0.3636
   56MOL0     H 7538   2.441   5.078   8.683  1.7067 -1.4707  1.4324
   56MOL0     H 7539   2.463   5.088   8.503 -1.2845  0.8427 -1.0075
   56MOL0     H 7540   2.675   5.226   8.546  1.7202  1.1500  1.9882
   56MOL0     H 7541   2.636   5.236   8.718  5.2234 -0.5282 -1.4779
   56MOL0     H 7542   2.727   4.567   9.379  1.1475 -1.4475 -0.0413
   56MOL0     H 7543   2.757   4.407   9.569 -1.2036  1.4151  0.8954
   56MOL0     H 7544   2.612   3.820   9.665 -0.8324  1.1940 -1.3229
   56MOL0     H 7545   2.748   3.697   9.826 -0.0744  0.6893  2.1018
   56MOL0     H 7546   3.497   3.164  10.393  2.0016  0.4038 -3.0830
   56MOL0     H 7547   3.346   3.197  10.207  0.0067 -3.1198  3.5162
   56MOL0     H 7548   3.032   3.368   9.968 -1.1618 -0.6087 -2.2386
   56MOL0     H 7549   2.858   3.393   9.804  0.3006  0.8597  0.6460
   56MOL0     H 7550   2.490   3.611   9.942  1.4987 -1.8274  1.9182
   56MOL0     H 7551   2.450   3.587   9.776 -2.0753  0.9370  2.0435
   56MOL0     H 7552   2.367   3.374   9.977  2.5444  1.2176  1.8838
   56MOL0     H 7553   2.316   3.403   9.811 -0.0434 -0.5397 -0.3404
   56MOL0     H 7554   2.219   3.607   9.876 -0.8379 -1.1927  0.1819
   56MOL0     H 7555   2.283   3.601  10.038  0.2776  1.1653 -0.1813
   56MOL0     H 7556   2.131   3.369  10.031 -0.5682 -0.2605 -0.1275
   56MOL0     H 7557   2.095   3.420   9.881  1.2983  2.4223 -0.7229
   56MOL0     H 7558   1.832   3.651  10.130 -0.2098 -1.1164  0.0030
   56MOL0     H 7559   2.573   3.472  10.099  0.6915  1.9063 -3.4686
   56MOL0     H 7560   2.757   3.461  10.286 -0.6794  1.9482 -0.6105
   57MOL0     O 7561   2.301   3.402   3.531 -0.4181 -0.3193  0.6080
   57MOL0     C 7562   2.200   3.464   3.526  0.0267 -0.2120 -0.0360
   57MOL0     O 7563   2.157   3.552   3.630 -0.1520 -0.1487  0.3144
   57MOL0     C 7564   2.231   3.567   3.748 -0.3902 -0.1711  1.0228
   57MOL0     C 7565   2.306   3.685   3.762 -0.1046 -0.2850 -0.2509
   57MOL0     C 7566   2.372   3.700   3.879  0.5216  0.1359  0.4463
   57MOL0     C 7567   2.381   3.601   3.981  0.1897  0.3980  0.2111
   57MOL0     O 7568   2.458   3.628   4.094  0.2886 -0.2203  0.0977
   57MOL0     C 7569   2.514   3.523   4.176  0.3857  0.1414  0.1947
   57MOL0     C 7570   2.610   3.578   4.277  0.9953  0.7699 -0.2010
   57MOL0     C 7571   2.724   3.481   4.316 -0.4069 -0.4824  0.2463
   57MOL0     C 7572   2.660   3.363   4.398 -0.6028  0.3383 -0.4314
   57MOL0     C 7573   2.764   3.292   4.486 -0.0093  0.1541  0.1065
   57MOL0     C 7574   2.681   3.194   4.585  0.2065  0.4944  0.4958
   57MOL0     C 7575   2.614   3.070   4.519  0.1612  0.6733  0.3645
   57MOL0     C 7576   2.725   2.959   4.486  0.1352 -0.4176  0.8987
   57MOL0     N 7577   2.774   2.883   4.597  0.3329  0.2512 -0.1777
   57MOL0     C 7578   2.700   2.783   4.657 -0.0983 -0.7889  0.3933
   57MOL0     C 7579   2.790   2.717   4.729 -0.9289 -0.4264  0.5519
   57MOL0     C 7580   2.748   2.599   4.798 -0.0882  0.5355  0.0912
   57MOL0     C 7581   2.738   2.480   4.700  0.2635  0.1350  0.3452
   57MOL0     C 7582   2.671   2.358   4.772 -1.5008  0.2328  0.0914
   57MOL0     C 7583   2.534   2.372   4.835 -0.1648  0.0932  0.4096
   57MOL0     O 7584   2.484   2.242   4.877 -0.8085  0.8842  0.1493
   57MOL0     C 7585   2.557   2.168   4.957 -0.2142  0.5100  0.2810
   57MOL0     C 7586   2.646   2.074   4.908  0.3670  0.1772 -0.2523
   57MOL0     C 7587   2.738   1.992   4.980 -0.4402 -0.1685  0.3712
   57MOL0     C 7588   2.834   1.907   4.897 -0.3764 -0.2753  0.0295
   57MOL0     C 7589   2.734   1.999   5.118 -0.1551 -0.1175 -0.4385
   57MOL0     C 7590   2.825   1.917   5.192 -0.0539 -0.6913  0.0613
   57MOL0     O 7591   2.945   1.902   5.141 -0.4634  0.0055 -0.4347
   57MOL0     C 7592   3.046   1.840   5.216 -0.3229 -0.4416  0.8874
   57MOL0     C 7593   3.063   1.705   5.190 -0.2295 -0.2081  0.4555
   57MOL0     C 7594   3.169   1.635   5.248 -0.2478  0.1853  0.2665
   57MOL0     C 7595   3.255   1.696   5.337  0.2722  1.0113  0.2657
   57MOL0     O 7596   3.338   1.625   5.421  0.4500  0.0552  0.2198
   57MOL0     C 7597   3.298   1.593   5.560  0.6096  0.8111  0.6605
   57MOL0     C 7598   3.140   1.581   5.566  0.5338 -0.3052 -0.2007
   57MOL0     C 7599   3.095   1.553   5.712 -0.8131  0.3092  0.6109
   57MOL0     C 7600   2.940   1.550   5.710  0.2022 -0.1108  0.4435
   57MOL0     C 7601   2.885   1.527   5.854  0.1547 -0.0615 -0.2039
   57MOL0     C 7602   2.777   1.436   5.858  0.4744 -0.5629  0.3213
   57MOL0     C 7603   2.805   1.289   5.835 -0.1624 -0.5852  0.2246
   57MOL0     C 7604   2.666   1.216   5.845 -0.4477 -0.0190  0.0337
   57MOL0    Cl 7605   2.568   1.252   5.708  0.1636 -0.1428  0.3975
   57MOL0     C 7606   3.234   1.823   5.364  0.0885 -0.2087 -1.3297
   57MOL0     C 7607   3.138   1.902   5.299  0.5096  0.3638 -0.8034
   57MOL0     O 7608   2.788   1.879   5.303 -0.6321  0.3121 -0.3176
   57MOL0     C 7609   2.637   2.096   5.171 -0.6615 -0.3495  0.5303
   57MOL0     C 7610   2.552   2.183   5.094 -0.0693 -0.1196 -0.4197
   57MOL0     N 7611   2.919   2.773   4.723 -0.1878 -0.7199  0.1829
   57MOL0     N 7612   2.903   2.865   4.635  0.0472 -0.1239  0.3354
   57MOL0     C 7613   2.322   3.476   3.961 -0.0293  0.4580 -0.7551
   57MOL0     C 7614   2.247   3.458   3.841  0.0012 -0.9718 -0.2641
   57MOL0     C 7615   2.112   3.464   3.411  0.6394 -0.8804  0.1988
   57MOL0     C 7616   1.980   3.509   3.425 -0.7420  0.4784 -0.3033
   57MOL0     C 7617   1.892   3.523   3.322  0.3522 -0.0469  0.1445
   57MOL0     C 7618   1.943   3.500   3.195  0.3437  0.1846  0.4852
   57MOL0     O 7619   1.852   3.528   3.100  0.7086  0.3713  0.2457
   57MOL0     C 7620   1.863   3.665   3.057  0.1460 -0.6387  0.2024
   57MOL0     C 7621   1.943   3.690   2.938  0.6933 -0.5856  0.4648
   57MOL0     C 7622   1.864   3.674   2.804  1.2093  0.5297 -0.4442
   57MOL0     C 7623   1.956   3.696   2.682 -0.4938  0.0226 -1.3184
   57MOL0     C 7624   2.034   3.576   2.643 -0.3967 -0.3778 -0.0823
   57MOL0     C 7625   2.113   3.487   2.621  0.4829 -0.6783  1.0308
   57MOL0     C 7626   2.063   3.437   3.170 -0.3548  0.7655  0.4396
   57MOL0     C 7627   2.151   3.418   3.285 -0.1826  0.3800  0.6826
   57MOL0     H 7628   2.284   3.774   3.703  2.6513 -0.2893 -1.4470
   57MOL0     H 7629   2.419   3.796   3.900 -0.0202  0.2633  1.0871
   57MOL0     H 7630   2.435   3.467   4.227 -2.8349  3.2104 -0.9853
   57MOL0     H 7631   2.565   3.456   4.106  0.6828  2.1533 -1.6519
   57MOL0     H 7632   2.651   3.671   4.235 -1.3001  1.5113 -0.9614
   57MOL0     H 7633   2.542   3.599   4.360  0.0941 -1.9036 -0.1629
   57MOL0     H 7634   2.785   3.462   4.227 -1.3611  4.3123 -1.7270
   57MOL0     H 7635   2.797   3.520   4.387 -1.3988 -0.3744  1.2384
   57MOL0     H 7636   2.585   3.410   4.462  0.5040  1.7297 -0.1044
   57MOL0     H 7637   2.618   3.296   4.322  0.5482 -0.3405 -0.4925
   57MOL0     H 7638   2.843   3.235   4.436  1.1185  1.9494 -0.2581
   57MOL0     H 7639   2.815   3.361   4.555  0.2110  1.6257 -1.4699
   57MOL0     H 7640   2.752   3.158   4.660  1.3375 -1.1999 -1.2809
   57MOL0     H 7641   2.607   3.249   4.643  0.9425 -0.1637  2.1131
   57MOL0     H 7642   2.544   3.030   4.593  0.8090 -0.9967  0.1210
   57MOL0     H 7643   2.558   3.091   4.428  0.9129 -1.5780 -0.7003
   57MOL0     H 7644   2.813   3.002   4.438  0.2201  0.6701  2.0096
   57MOL0     H 7645   2.673   2.892   4.415  0.4942  0.8047 -0.5766
   57MOL0     H 7646   2.596   2.754   4.650 -0.2303 -0.2357  0.0324
   57MOL0     H 7647   2.826   2.580   4.872  1.6270  2.5834 -1.0674
   57MOL0     H 7648   2.654   2.622   4.848 -0.3071  1.1054 -0.5658
   57MOL0     H 7649   2.841   2.455   4.673  0.2711 -0.3400  0.8046
   57MOL0     H 7650   2.671   2.508   4.618 -1.4553  1.3814  2.0972
   57MOL0     H 7651   2.739   2.312   4.844 -0.2876 -0.2421 -1.3208
   57MOL0     H 7652   2.658   2.287   4.690 -0.5085 -2.1202  1.8577
   57MOL0     H 7653   2.469   2.411   4.756  1.3631  1.7569 -0.0934
   57MOL0     H 7654   2.531   2.449   4.913 -1.4908  0.4640  0.0263
   57MOL0     H 7655   2.638   2.057   4.801  2.0518  2.9119 -0.9027
   57MOL0     H 7656   2.930   1.958   4.888  0.0207 -1.0222 -0.0709
   57MOL0     H 7657   2.848   1.814   4.952 -1.7463  0.1477  1.1528
   57MOL0     H 7658   2.795   1.872   4.800 -4.5441 -0.9204  1.7045
   57MOL0     H 7659   3.002   1.665   5.110 -1.5376  3.2428 -0.4823
   57MOL0     H 7660   3.185   1.529   5.233  0.3554  0.7164 -4.4103
   57MOL0     H 7661   3.344   1.498   5.588  1.6623  1.3502  0.7674
   57MOL0     H 7662   3.343   1.661   5.632  2.0523  1.8394 -1.1302
   57MOL0     H 7663   3.095   1.676   5.535  3.2631  1.6599  1.4234
   57MOL0     H 7664   3.106   1.497   5.505 -0.5042  0.7109 -1.0677
   57MOL0     H 7665   3.142   1.622   5.783 -0.7926  2.0080 -1.0022
   57MOL0     H 7666   3.131   1.452   5.735 -0.6546 -0.6377 -3.1333
   57MOL0     H 7667   2.904   1.643   5.665 -0.9993 -0.9330 -0.3405
   57MOL0     H 7668   2.903   1.469   5.647 -1.6432  0.8606  0.2215
   57MOL0     H 7669   2.865   1.624   5.901  2.1533 -0.6400  2.0175
   57MOL0     H 7670   2.967   1.482   5.909  2.5755  1.1255 -2.5627
   57MOL0     H 7671   2.743   1.445   5.962  1.5068  2.0555  0.5135
   57MOL0     H 7672   2.697   1.466   5.791 -0.9838 -4.3365  0.1156
   57MOL0     H 7673   2.870   1.252   5.915  0.1225 -0.0210  0.2590
   57MOL0     H 7674   2.853   1.274   5.738 -1.6920  0.7140 -0.7976
   57MOL0     H 7675   2.613   1.250   5.935 -2.9665 -1.3209 -0.8554
   57MOL0     H 7676   2.682   1.108   5.853 -2.7578 -0.3904  0.3737
   57MOL0     H 7677   3.292   1.874   5.439 -1.7900 -0.3549  0.3039
   57MOL0     H 7678   3.108   2.005   5.314  0.7391  0.4751 -1.0912
   57MOL0     H 7679   2.639   2.115   5.278 -1.2783 -0.1360  0.5079
   57MOL0     H 7680   2.492   2.260   5.142  0.9408 -0.8905  2.2900
   57MOL0     H 7681   2.333   3.395   4.033  0.5771  1.0414 -0.1659
   57MOL0     H 7682   2.201   3.362   3.823 -0.9918 -0.9030  1.6895
   57MOL0     H 7683   1.943   3.533   3.524 -0.5761 -0.2633 -0.0536
   57MOL0     H 7684   1.792   3.556   3.349 -0.1802 -1.0659 -0.5393
   57MOL0     H 7685   1.759   3.685   3.031  0.7852 -0.7809 -2.7762
   57MOL0     H 7686   1.893   3.729   3.140 -0.6069 -3.2016  2.6288
   57MOL0     H 7687   2.019   3.615   2.916  2.0351  1.4958 -2.8872
   57MOL0     H 7688   1.991   3.789   2.946  0.3421 -0.3904  0.1802
   57MOL0     H 7689   1.784   3.749   2.807 -0.1378 -0.8460  1.9823
   57MOL0     H 7690   1.818   3.575   2.791 -1.0931  1.4539  0.1010
   57MOL0     H 7691   2.007   3.791   2.702  4.7092 -3.0644  2.5108
   57MOL0     H 7692   1.883   3.712   2.601 -0.3258 -0.6313 -1.6028
   57MOL0     H 7693   2.188   3.413   2.602  0.9091 -0.3100  1.2313
   57MOL0     H 7694   2.092   3.404   3.071 -0.4589  0.1403  0.6164
   57MOL0     H 7695   2.238   3.353   3.288 -0.2228  0.3392  1.1662
   58MOL0     O 7696   1.675   0.138   4.141 -0.2173 -0.0307  0.3702
   58MOL0     C 7697   1.760   0.132   4.230  0.1807  0.8231  0.1457
   58MOL0     O 7698   1.735   0.165   4.363 -0.1320 -0.0250 -0.1469
   58MOL0     C 7699   1.612   0.218   4.401  0.0344  0.0042 -0.5543
   58MOL0     C 7700   1.483   0.176   4.360  0.0807 -0.0397  0.8801
   58MOL0     C 7701   1.365   0.237   4.409 -1.1522 -0.2971 -0.3028
   58MOL0     C 7702   1.375   0.335   4.505  0.1552  0.9155  0.0510
   58MOL0     O 7703   1.273   0.397   4.571  0.0272 -0.7412 -1.2253
   58MOL0     C 7704   1.148   0.333   4.581  0.3712 -0.1632  0.1707
   58MOL0     C 7705   1.048   0.415   4.651  0.1537  0.1335 -0.9214
   58MOL0     C 7706   0.903   0.378   4.609  0.0943  0.6179 -0.3539
   58MOL0     C 7707   0.846   0.253   4.695  0.5237  0.2327  0.0868
   58MOL0     C 7708   0.703   0.218   4.630  0.2643 -0.5263  0.4130
   58MOL0     C 7709   0.626   0.111   4.711 -0.2644  0.3145 -0.1488
   58MOL0     C 7710   0.605   0.137   4.863  0.3369 -0.2203  0.2382
   58MOL0     C 7711   0.477   0.053   4.920  0.5817  0.3840 -0.2248
   58MOL0     N 7712   0.488  -0.091   4.874 -0.1740 -0.3465  1.4751
   58MOL0     C 7713   0.386  -0.146   4.796 -0.0020 -0.3786  0.0140
   58MOL0     C 7714   0.432  -0.273   4.779 -0.2248  0.5937  0.2529
   58MOL0     C 7715   0.349  -0.385   4.716 -0.4136  0.2187  0.0163
   58MOL0     C 7716   0.432  -0.451   4.598  0.5240  0.2640 -0.1174
   58MOL0     C 7717   0.452  -0.364   4.477  0.2659 -0.3931  0.5367
   58MOL0     C 7718   0.545  -0.405   4.363 -0.3750  0.0478 -0.1408
   58MOL0     O 7719   0.673  -0.419   4.429  0.5793  0.3778  0.8774
   58MOL0     C 7720   0.785  -0.458   4.350 -0.8688 -0.2268 -0.0571
   58MOL0     C 7721   0.806  -0.416   4.212 -0.3918 -0.1767  0.0235
   58MOL0     C 7722   0.917  -0.458   4.131  0.6194 -0.2692  0.1413
   58MOL0     C 7723   0.906  -0.439   3.981  0.5983  0.3842  0.7125
   58MOL0     C 7724   1.013  -0.541   4.195 -0.2145 -0.3311 -0.2283
   58MOL0     C 7725   1.134  -0.590   4.129 -0.3201 -0.1933  1.4348
   58MOL0     O 7726   1.214  -0.676   4.203  0.9036  0.5106 -0.3892
   58MOL0     C 7727   1.323  -0.737   4.156 -0.0628  0.1911  0.6017
   58MOL0     C 7728   1.451  -0.679   4.177 -0.5932 -0.3442  0.2820
   58MOL0     C 7729   1.569  -0.750   4.139  0.5410  0.2157  0.0720
   58MOL0     C 7730   1.554  -0.871   4.067 -0.5214 -0.3281 -0.9617
   58MOL0     O 7731   1.676  -0.935   4.047  0.0143 -0.2752 -0.0456
   58MOL0     C 7732   1.682  -1.012   3.926 -0.6228  0.2321  0.1245
   58MOL0     C 7733   1.799  -1.111   3.908 -0.7940 -0.0962  0.8195
   58MOL0     C 7734   1.932  -1.039   3.878  0.0750  0.0246  0.6162
   58MOL0     C 7735   1.972  -0.937   3.987 -0.4282 -0.6347  0.4269
   58MOL0     C 7736   2.116  -0.885   3.963  0.3661 -0.3805  0.4792
   58MOL0     C 7737   2.180  -0.794   4.068  0.0950  0.4720 -0.1046
   58MOL0     C 7738   2.313  -0.731   4.022  0.6279 -0.6971  0.2574
   58MOL0     C 7739   2.397  -0.665   4.127  0.2687 -0.4724 -0.2100
   58MOL0    Cl 7740   2.487  -0.780   4.252 -0.1380  0.1458  0.5068
   58MOL0     C 7741   1.424  -0.927   4.054 -0.2090 -0.3550 -0.5520
   58MOL0     C 7742   1.311  -0.857   4.096 -0.9398 -0.5852 -0.3664
   58MOL0     O 7743   1.160  -0.548   4.009  0.1020  0.0599  0.1230
   58MOL0     C 7744   1.003  -0.569   4.334  0.5769 -0.4250  0.3857
   58MOL0     C 7745   0.881  -0.540   4.406  0.0427  0.4084 -0.2967
   58MOL0     N 7746   0.553  -0.298   4.847 -0.1530 -0.1810 -0.0903
   58MOL0     N 7747   0.580  -0.184   4.907 -0.3589  0.5288  0.6032
   58MOL0     C 7748   1.500   0.369   4.546 -0.1899  0.1960 -0.1709
   58MOL0     C 7749   1.616   0.308   4.504 -0.9412  0.0238 -0.2604
   58MOL0     C 7750   1.892   0.100   4.196 -1.0341  0.0677 -0.7345
   58MOL0     C 7751   1.923   0.041   4.075 -0.2832 -0.3630 -0.0397
   58MOL0     C 7752   2.050  -0.005   4.039  0.0071 -0.5390  0.0010
   58MOL0     C 7753   2.165   0.014   4.119  0.5239 -0.1225 -0.5423
   58MOL0     O 7754   2.291  -0.032   4.081 -0.1729 -0.1754  0.7502
   58MOL0     C 7755   2.396  -0.055   4.187  0.1415  0.4558 -0.0102
   58MOL0     C 7756   2.516  -0.117   4.127  0.2759  0.0959  0.1306
   58MOL0     C 7757   2.626  -0.110   4.231 -0.1817  0.0413  0.6754
   58MOL0     C 7758   2.739  -0.203   4.193  0.2594  0.3187 -0.6441
   58MOL0     C 7759   2.709  -0.347   4.214 -0.8553 -0.6017  0.6845
   58MOL0     C 7760   2.674  -0.464   4.209  0.9044  0.1936  0.5904
   58MOL0     C 7761   2.130   0.070   4.246 -0.2498  0.6355 -0.2876
   58MOL0     C 7762   2.000   0.107   4.284  0.5542 -0.1422 -0.0161
   58MOL0     H 7763   1.477   0.104   4.279 -0.5260  1.2666 -0.2766
   58MOL0     H 7764   1.266   0.195   4.395 -1.9770  0.8620  1.6637
   58MOL0     H 7765   1.108   0.311   4.482  0.9366 -0.2473 -0.0410
   58MOL0     H 7766   1.163   0.237   4.630  0.6590 -0.5582 -0.6739
   58MOL0     H 7767   1.057   0.418   4.760 -0.7837  0.8992 -0.8508
   58MOL0     H 7768   1.064   0.518   4.616  1.8110  1.7594  3.8000
   58MOL0     H 7769   0.836   0.461   4.631  0.7012  0.9148  0.4294
   58MOL0     H 7770   0.903   0.361   4.501 -1.0920 -2.1484 -0.0148
   58MOL0     H 7771   0.905   0.161   4.689  3.7838  2.1338  0.6223
   58MOL0     H 7772   0.834   0.275   4.801  1.6325  0.6904  0.1188
   58MOL0     H 7773   0.644   0.309   4.635  0.8611 -0.1620  0.9713
   58MOL0     H 7774   0.736   0.190   4.529  0.4411 -1.0661  0.6158
   58MOL0     H 7775   0.524   0.105   4.671  0.1938  0.0958 -1.3097
   58MOL0     H 7776   0.667   0.011   4.691 -1.8916 -0.5454  0.6073
   58MOL0     H 7777   0.696   0.103   4.912  1.6248 -0.7660 -2.3655
   58MOL0     H 7778   0.587   0.245   4.870  0.3164 -0.3131  2.1183
   58MOL0     H 7779   0.376   0.092   4.902 -1.5849 -2.4107  4.0141
   58MOL0     H 7780   0.471   0.049   5.029 -3.6557  0.1161 -0.2888
   58MOL0     H 7781   0.295  -0.105   4.755  0.6073  1.3530  0.3011
   58MOL0     H 7782   0.308  -0.460   4.784  1.6848 -1.7210 -0.7290
   58MOL0     H 7783   0.269  -0.335   4.661 -2.3498 -1.2238  1.3966
   58MOL0     H 7784   0.377  -0.540   4.565  2.3401  0.0666 -2.9781
   58MOL0     H 7785   0.525  -0.483   4.645  0.0369  0.7020  1.2096
   58MOL0     H 7786   0.500  -0.274   4.517  2.7682 -0.5372 -1.8619
   58MOL0     H 7787   0.353  -0.344   4.433  0.9701  1.4276 -0.2996
   58MOL0     H 7788   0.556  -0.337   4.279 -0.8191  1.0781  0.6146
   58MOL0     H 7789   0.505  -0.499   4.323 -0.4950 -0.8542  1.9234
   58MOL0     H 7790   0.733  -0.357   4.158  0.6009 -0.1515 -1.3499
   58MOL0     H 7791   0.817  -0.377   3.964 -1.8733 -1.6645  4.6128
   58MOL0     H 7792   0.997  -0.396   3.936 -0.5578  0.7492 -1.4517
   58MOL0     H 7793   0.891  -0.528   3.919  2.0362 -0.6054  1.7549
   58MOL0     H 7794   1.456  -0.581   4.224 -0.7664  0.8533 -2.0664
   58MOL0     H 7795   1.655  -0.689   4.164  0.8576 -0.3196  0.3222
   58MOL0     H 7796   1.599  -1.083   3.921  0.7342 -1.5772  1.6138
   58MOL0     H 7797   1.687  -0.941   3.844  2.5769 -0.7750 -0.7122
   58MOL0     H 7798   1.815  -1.171   3.998 -0.0778 -1.3776 -0.1409
   58MOL0     H 7799   1.778  -1.183   3.829  0.5318 -1.1192  1.3618
   58MOL0     H 7800   1.929  -0.992   3.779  2.0425  1.2919  1.0932
   58MOL0     H 7801   2.008  -1.117   3.871  2.1897  1.8394  2.1075
   58MOL0     H 7802   1.898  -0.857   3.988  0.0785 -0.1579  1.2675
   58MOL0     H 7803   1.977  -0.984   4.086  0.1607  0.0989  0.7612
   58MOL0     H 7804   2.097  -0.823   3.874  0.1316  1.1251  1.5371
   58MOL0     H 7805   2.170  -0.978   3.945 -3.2984 -2.5263 -0.6449
   58MOL0     H 7806   2.106  -0.714   4.078  0.2032  0.3745  2.0347
   58MOL0     H 7807   2.192  -0.848   4.163 -0.3343  1.9882  0.8531
   58MOL0     H 7808   2.292  -0.656   3.945  0.0743 -0.7335  0.3692
   58MOL0     H 7809   2.391  -0.799   3.985  0.4152 -0.9753  0.3214
   58MOL0     H 7810   2.341  -0.585   4.178  3.3263  1.7102  0.0116
   58MOL0     H 7811   2.472  -0.604   4.077  0.8154 -2.5815 -2.0999
   58MOL0     H 7812   1.404  -1.028   4.020 -2.6200  0.2978 -1.2734
   58MOL0     H 7813   1.217  -0.912   4.089  0.2772 -2.7808 -0.6155
   58MOL0     H 7814   1.085  -0.620   4.384 -0.2691 -1.5622  0.6272
   58MOL0     H 7815   0.867  -0.565   4.510 -0.0908  1.6026 -0.0123
   58MOL0     H 7816   1.506   0.459   4.606  0.6315  0.4257 -0.5781
   58MOL0     H 7817   1.711   0.345   4.540  0.2820 -2.1471 -1.0751
   58MOL0     H 7818   1.847   0.020   4.001 -1.0344  1.4468  0.1543
   58MOL0     H 7819   2.071  -0.066   3.952  3.9724  1.3886 -0.6112
   58MOL0     H 7820   2.432   0.043   4.219  1.6159  0.1560 -0.6703
   58MOL0     H 7821   2.362  -0.119   4.269 -0.2712  2.1106  1.1569
   58MOL0     H 7822   2.527  -0.069   4.030 -0.8724  1.3576  0.5877
   58MOL0     H 7823   2.490  -0.221   4.104 -0.3341 -0.0017  1.1817
   58MOL0     H 7824   2.584  -0.147   4.325 -1.9046  0.9387  0.3121
   58MOL0     H 7825   2.659  -0.007   4.248 -0.5743  0.6165 -1.6390
   58MOL0     H 7826   2.825  -0.173   4.254  1.9353 -0.6143 -2.4309
   58MOL0     H 7827   2.762  -0.192   4.087  3.7523  2.6845  0.1746
   58MOL0     H 7828   2.647  -0.566   4.195 -0.7963  0.7156 -0.1195
   58MOL0     H 7829   2.207   0.093   4.320 -0.7786 -2.1645  1.2772
   58MOL0     H 7830   1.985   0.158   4.379 -0.1295  1.0639 -0.7397
   59MOL0     O 7831   7.243   1.689   0.561  0.9137  0.1744  0.7825
   59MOL0     C 7832   7.237   1.586   0.627 -0.6742 -0.0500 -0.0855
   59MOL0     O 7833   7.118   1.512   0.637 -0.0727  0.5766  0.2193
   59MOL0     C 7834   7.010   1.590   0.596 -0.0570  0.2951 -0.6412
   59MOL0     C 7835   6.962   1.589   0.467 -1.2138  0.1064 -0.4276
   59MOL0     C 7836   6.875   1.677   0.408 -0.4887  0.6662 -0.1007
   59MOL0     C 7837   6.806   1.762   0.501 -0.6008  0.7966 -0.0870
   59MOL0     O 7838   6.706   1.828   0.436  0.1217  0.5989 -0.8804
   59MOL0     C 7839   6.645   1.928   0.523  0.2305  0.0585  0.5715
   59MOL0     C 7840   6.572   2.035   0.440 -0.6780 -0.5277  0.5266
   59MOL0     C 7841   6.529   2.001   0.299 -0.0613  0.3377 -0.1065
   59MOL0     C 7842   6.475   2.126   0.225  0.4566  0.0639  0.3748
   59MOL0     C 7843   6.450   2.115   0.076 -0.1603 -0.7503  0.3500
   59MOL0     C 7844   6.572   2.104  -0.020 -0.6439 -0.2502  0.1423
   59MOL0     C 7845   6.637   1.967  -0.038 -0.3359  0.1776  0.6979
   59MOL0     C 7846   6.544   1.861  -0.110  0.6934 -0.0552  0.4468
   59MOL0     N 7847   6.493   1.760  -0.013  0.3297 -0.3584  0.2891
   59MOL0     C 7848   6.564   1.710   0.099  0.1287  0.0291 -0.0211
   59MOL0     C 7849   6.467   1.668   0.182  0.4791 -0.1001  0.2306
   59MOL0     C 7850   6.500   1.605   0.319  0.6682  0.9447  0.1575
   59MOL0     C 7851   6.513   1.446   0.293  0.1589 -0.2776 -0.3365
   59MOL0     C 7852   6.543   1.367   0.424 -0.0490 -0.0562 -0.0207
   59MOL0     C 7853   6.446   1.380   0.541  0.3189 -0.6098  0.9119
   59MOL0     O 7854   6.463   1.269   0.623 -0.0504  0.5450 -0.8436
   59MOL0     C 7855   6.349   1.216   0.693  0.7244  0.2016  0.5849
   59MOL0     C 7856   6.362   1.083   0.740  0.3355  0.4218 -0.7152
   59MOL0     C 7857   6.249   1.016   0.793 -0.7560 -0.3968  1.0408
   59MOL0     C 7858   6.272   0.875   0.843  0.1063  0.4671 -0.0599
   59MOL0     C 7859   6.122   1.079   0.794 -0.2964  0.1251  0.3821
   59MOL0     C 7860   5.996   1.006   0.841 -0.0999 -0.5449  0.2679
   59MOL0     O 7861   5.909   1.088   0.916 -0.3473  0.2214 -0.3885
   59MOL0     C 7862   5.801   1.032   0.976 -0.0871 -0.5969  0.0995
   59MOL0     C 7863   5.803   0.944   1.088 -0.2733  0.4836 -0.3181
   59MOL0     C 7864   5.682   0.892   1.141  0.4647  0.2026 -0.3320
   59MOL0     C 7865   5.560   0.945   1.092 -0.0977 -0.0278  0.4095
   59MOL0     O 7866   5.442   0.912   1.146  0.5352 -0.4270 -0.2512
   59MOL0     C 7867   5.416   0.933   1.290 -0.1593 -0.3441 -0.1358
   59MOL0     C 7868   5.293   0.861   1.352  0.7572 -0.5295  0.5808
   59MOL0     C 7869   5.158   0.930   1.323 -0.0259  0.5105 -0.0616
   59MOL0     C 7870   5.041   0.837   1.352  0.5770 -0.3233 -0.2740
   59MOL0     C 7871   4.903   0.902   1.373  0.4652 -0.1649 -0.6765
   59MOL0     C 7872   4.802   0.806   1.430  0.6142  1.4619 -0.0993
   59MOL0     C 7873   4.763   0.696   1.328 -0.4065 -0.0613  0.4887
   59MOL0     C 7874   4.625   0.637   1.351  0.0225  0.0506 -0.8526
   59MOL0    Cl 7875   4.485   0.754   1.323  0.3958 -0.3940  0.0894
   59MOL0     C 7876   5.558   1.034   0.987  1.4005 -0.2907 -0.5644
   59MOL0     C 7877   5.674   1.073   0.926  0.2001 -0.1744 -0.6482
   59MOL0     O 7878   5.976   0.887   0.807 -0.1123 -0.2331  0.1364
   59MOL0     C 7879   6.120   1.215   0.757  0.8728 -0.1896 -0.8875
   59MOL0     C 7880   6.221   1.279   0.692 -0.7657  0.0996 -0.1541
   59MOL0     N 7881   6.339   1.703   0.123  0.3020 -0.5761 -0.5446
   59MOL0     N 7882   6.353   1.752   0.007  0.0431 -0.6475 -0.0085
   59MOL0     C 7883   6.843   1.761   0.635  0.5711  0.0389 -0.5856
   59MOL0     C 7884   6.940   1.669   0.686  0.5580  0.4270  0.0898
   59MOL0     C 7885   7.361   1.531   0.681  0.9285  0.6590 -0.3061
   59MOL0     C 7886   7.361   1.469   0.810 -0.1389  0.1217 -0.3178
   59MOL0     C 7887   7.475   1.401   0.850 -0.6608 -1.0840 -0.5062
   59MOL0     C 7888   7.601   1.419   0.780  0.7518  0.6166 -0.7149
   59MOL0     O 7889   7.723   1.371   0.822  0.1679  0.1954 -0.2368
   59MOL0     C 7890   7.720   1.311   0.956 -0.4861 -0.1446  0.0971
   59MOL0     C 7891   7.863   1.307   1.005  0.5972 -0.3974  0.0556
   59MOL0     C 7892   7.958   1.207   0.953 -0.4854  0.1496  0.5538
   59MOL0     C 7893   8.082   1.207   1.039  0.1561 -0.4617  0.1905
   59MOL0     C 7894   8.209   1.169   0.968  0.8443  0.0736 -0.8643
   59MOL0     C 7895   8.305   1.149   0.902 -0.8252 -0.2634  0.0218
   59MOL0     C 7896   7.603   1.479   0.657 -0.3541 -0.2886  0.1283
   59MOL0     C 7897   7.485   1.541   0.614  0.6208  0.4810  0.4568
   59MOL0     H 7898   7.028   1.538   0.397 -0.4640 -2.3539  1.9011
   59MOL0     H 7899   6.850   1.683   0.302  0.9845  0.7247 -0.4683
   59MOL0     H 7900   6.579   1.877   0.594 -2.4545 -1.0401 -2.4950
   59MOL0     H 7901   6.727   1.977   0.577  0.5538  0.4254 -0.2302
   59MOL0     H 7902   6.489   2.064   0.505 -0.3047  2.8845 -0.3543
   59MOL0     H 7903   6.645   2.116   0.434  0.4109 -1.5862 -3.7028
   59MOL0     H 7904   6.611   1.945   0.253 -0.7674 -1.2797  0.5629
   59MOL0     H 7905   6.440   1.939   0.303 -0.0568  0.3424  3.9961
   59MOL0     H 7906   6.374   2.142   0.263  0.6066  1.8880  0.1208
   59MOL0     H 7907   6.530   2.217   0.252  1.7989 -0.2428 -1.1569
   59MOL0     H 7908   6.387   2.026   0.066  1.3388 -1.9326  1.0048
   59MOL0     H 7909   6.394   2.206   0.053  1.6752  0.5449  0.8034
   59MOL0     H 7910   6.536   2.122  -0.122  0.6049 -2.5783 -0.7709
   59MOL0     H 7911   6.648   2.178   0.010 -0.9857 -0.3461  1.2795
   59MOL0     H 7912   6.717   1.989  -0.109  0.5081  0.3920  1.6996
   59MOL0     H 7913   6.686   1.941   0.056 -1.6652 -2.8097  0.6634
   59MOL0     H 7914   6.578   1.815  -0.204  1.1941 -0.1176  0.6563
   59MOL0     H 7915   6.468   1.925  -0.155  0.1174  0.4262  2.0595
   59MOL0     H 7916   6.672   1.714   0.112  0.0001  0.5415  0.9165
   59MOL0     H 7917   6.591   1.642   0.367  2.4896  0.1084 -2.4521
   59MOL0     H 7918   6.416   1.628   0.386  0.6203 -1.6413  1.0896
   59MOL0     H 7919   6.586   1.429   0.213  1.4047 -1.2492  0.9478
   59MOL0     H 7920   6.421   1.397   0.257  0.2207  0.7612 -1.9884
   59MOL0     H 7921   6.646   1.399   0.443 -0.0124  1.2343 -2.1310
   59MOL0     H 7922   6.550   1.259   0.408  0.0554  0.1050 -1.1002
   59MOL0     H 7923   6.346   1.373   0.496  0.0486 -1.2018  1.5822
   59MOL0     H 7924   6.456   1.476   0.593  4.1399 -0.1558 -0.3541
   59MOL0     H 7925   6.461   1.037   0.741 -0.4617 -1.3835  0.5812
   59MOL0     H 7926   6.238   0.805   0.766 -3.2603  3.7414 -1.8792
   59MOL0     H 7927   6.367   0.849   0.892 -1.7148 -2.6876  2.2150
   59MOL0     H 7928   6.204   0.857   0.927  0.2413 -1.2037 -0.2670
   59MOL0     H 7929   5.897   0.907   1.129 -0.0406  0.2467 -1.0397
   59MOL0     H 7930   5.669   0.817   1.218  2.4194  2.0757  2.0235
   59MOL0     H 7931   5.498   0.915   1.360 -1.7833  0.6347  2.1514
   59MOL0     H 7932   5.399   1.041   1.296  1.5484  0.0206 -1.2828
   59MOL0     H 7933   5.279   0.758   1.317 -2.5269  0.2785 -0.8665
   59MOL0     H 7934   5.315   0.867   1.459 -2.5897 -0.6915  1.4000
   59MOL0     H 7935   5.157   0.957   1.217  2.6309  3.0536  0.4209
   59MOL0     H 7936   5.146   1.021   1.383 -0.2598  0.3955  0.0675
   59MOL0     H 7937   5.041   0.765   1.270  0.4314 -0.6364 -0.0053
   59MOL0     H 7938   5.072   0.782   1.442 -1.2718 -0.7215  0.1693
   59MOL0     H 7939   4.863   0.941   1.280 -0.4416  0.6274  0.0286
   59MOL0     H 7940   4.913   0.992   1.434 -0.0378  0.2090 -1.1423
   59MOL0     H 7941   4.849   0.767   1.521 -0.0254 -1.5265 -0.9448
   59MOL0     H 7942   4.714   0.866   1.454 -0.2756 -0.0007  0.4288
   59MOL0     H 7943   4.826   0.606   1.331 -2.7318 -1.8055  0.0401
   59MOL0     H 7944   4.771   0.727   1.224  0.5422 -0.0383  0.5611
   59MOL0     H 7945   4.626   0.591   1.450  1.7420  0.3491 -0.6993
   59MOL0     H 7946   4.617   0.552   1.283 -1.0328 -0.6572  0.1308
   59MOL0     H 7947   5.463   1.072   0.952  2.3459 -0.1709 -3.2925
   59MOL0     H 7948   5.661   1.128   0.834  0.0627  0.1058 -0.4638
   59MOL0     H 7949   6.021   1.259   0.745  1.1599 -0.2106 -4.2050
   59MOL0     H 7950   6.202   1.376   0.647 -1.2077  1.6212  3.0199
   59MOL0     H 7951   6.793   1.822   0.710 -1.3920 -0.2823 -1.5858
   59MOL0     H 7952   6.975   1.679   0.788  0.6660 -0.2094  0.1202
   59MOL0     H 7953   7.267   1.461   0.865  0.5888 -1.2105  0.8082
   59MOL0     H 7954   7.478   1.346   0.943 -1.2135 -1.8007 -0.8994
   59MOL0     H 7955   7.657   1.367   1.025 -1.2563  0.7785 -1.2965
   59MOL0     H 7956   7.683   1.208   0.948 -0.4219 -0.0963 -0.9639
   59MOL0     H 7957   7.846   1.284   1.111 -1.9164  0.3133 -0.1166
   59MOL0     H 7958   7.905   1.408   1.002  2.7837 -1.2660 -1.0273
   59MOL0     H 7959   7.976   1.228   0.847 -2.7334 -2.0962 -0.3800
   59MOL0     H 7960   7.919   1.106   0.968  0.2940  0.0646  2.2145
   59MOL0     H 7961   8.067   1.132   1.117 -0.0078 -2.5032 -1.7421
   59MOL0     H 7962   8.094   1.309   1.077 -0.3993 -0.0251 -0.7681
   59MOL0     H 7963   8.391   1.146   0.838  0.0592  1.4029  1.0387
   59MOL0     H 7964   7.691   1.490   0.594  0.0248 -0.7944  0.5621
   59MOL0     H 7965   7.489   1.598   0.522 -0.8081  0.7013  0.5008
   60MOL0     O 7966   7.900   9.234   0.224 -0.1481  0.3605 -0.4844
   60MOL0     C 7967   7.950   9.343   0.198 -0.3553 -0.7613 -0.3436
   60MOL0     O 7968   7.884   9.460   0.194  0.1003  0.2460  0.7784
   60MOL0     C 7969   7.749   9.457   0.186 -0.9148  0.8258  0.6542
   60MOL0     C 7970   7.687   9.481   0.059  0.1043 -1.0192  0.6062
   60MOL0     C 7971   7.546   9.485   0.064 -0.7259  0.5305  0.6090
   60MOL0     C 7972   7.463   9.467   0.180 -1.6499  0.9012  0.3415
   60MOL0     O 7973   7.339   9.483   0.152 -0.1857 -0.6950 -0.2631
   60MOL0     C 7974   7.249   9.498   0.264  0.0821  0.3740  0.4494
   60MOL0     C 7975   7.100   9.525   0.220  0.2355 -0.0538  0.9483
   60MOL0     C 7976   7.051   9.411   0.135  0.7065  0.4090  0.4279
   60MOL0     C 7977   6.903   9.423   0.129 -0.1462 -0.8065  0.4677
   60MOL0     C 7978   6.832   9.322   0.037 -0.2882 -0.2927  0.7751
   60MOL0     C 7979   6.720   9.368  -0.055 -0.6695 -0.0236  0.3457
   60MOL0     C 7980   6.588   9.383   0.020  0.2500  0.2115  0.1009
   60MOL0     C 7981   6.481   9.472  -0.039 -1.2735 -0.8148 -0.1908
   60MOL0     N 7982   6.357   9.451   0.030 -0.5498  0.8700 -0.4853
   60MOL0     C 7983   6.270   9.544   0.080  0.1800  0.2866 -0.2787
   60MOL0     C 7984   6.151   9.479   0.098 -0.5331  0.6109  0.5622
   60MOL0     C 7985   6.024   9.526   0.152 -0.4189 -0.6061 -0.2488
   60MOL0     C 7986   5.918   9.496   0.041 -0.7319 -0.4410 -0.1351
   60MOL0     C 7987   5.843   9.365   0.067  0.4091  1.3561 -0.0736
   60MOL0     C 7988   5.693   9.382   0.056  0.1185  0.8846 -0.0750
   60MOL0     O 7989   5.637   9.444   0.168  0.3916 -0.1763  0.4034
   60MOL0     C 7990   5.569   9.561   0.160  0.3372  0.2778 -0.0570
   60MOL0     C 7991   5.539   9.629   0.040 -0.0032 -1.0855 -0.0519
   60MOL0     C 7992   5.465   9.754   0.037 -0.1075  0.3538 -0.7508
   60MOL0     C 7993   5.427   9.808  -0.093 -0.2955 -0.2612 -0.3764
   60MOL0     C 7994   5.444   9.823   0.163  0.4253 -0.3386  0.1059
   60MOL0     C 7995   5.375   9.951   0.187  0.0683 -1.0502  0.2676
   60MOL0     O 7996   5.371  10.009   0.311 -0.5411  0.1322 -0.0428
   60MOL0     C 7997   5.303  10.122   0.338  0.1543 -0.5609  0.3338
   60MOL0     C 7998   5.173  10.131   0.376 -0.3254 -0.3604  0.5398
   60MOL0     C 7999   5.115  10.249   0.400 -0.6103 -0.4797  0.0394
   60MOL0     C 8000   5.176  10.376   0.372 -1.0871 -0.3769 -0.1016
   60MOL0     O 8001   5.098  10.490   0.369  0.0209  0.6323 -0.2850
   60MOL0     C 8002   5.047  10.518   0.241 -0.5728  0.9811  0.0287
   60MOL0     C 8003   4.901  10.519   0.223  0.8828 -0.6772 -1.0317
   60MOL0     C 8004   4.837  10.383   0.196 -0.9258 -0.1983 -0.1352
   60MOL0     C 8005   4.725  10.339   0.296 -0.4752  0.3592 -0.0329
   60MOL0     C 8006   4.679  10.196   0.263  0.4296 -0.7773  0.4676
   60MOL0     C 8007   4.593  10.176   0.136  0.1859  0.2166 -0.5121
   60MOL0     C 8008   4.565  10.025   0.121  0.0046  0.1670 -0.7680
   60MOL0     C 8009   4.444  10.001   0.024 -0.0222 -0.0531 -0.1778
   60MOL0    Cl 8010   4.480  10.086  -0.122  0.0605  0.0925  0.1823
   60MOL0     C 8011   5.313  10.371   0.342 -0.1358  0.1189 -0.3160
   60MOL0     C 8012   5.375  10.245   0.326 -0.1780  0.0864  0.5790
   60MOL0     O 8013   5.314   9.997   0.095  0.3224  0.0826  0.2175
   60MOL0     C 8014   5.490   9.756   0.282 -0.3277 -0.5987  0.6518
   60MOL0     C 8015   5.539   9.629   0.278 -0.3681 -0.3851 -0.5997
   60MOL0     N 8016   6.164   9.349   0.057  0.7375  0.2474  0.5820
   60MOL0     N 8017   6.284   9.335   0.012 -0.1281  0.4001 -0.4714
   60MOL0     C 8018   7.537   9.442   0.301 -1.0339 -0.0674  0.1234
   60MOL0     C 8019   7.679   9.452   0.303 -0.1661 -0.1975  0.3130
   60MOL0     C 8020   8.102   9.336   0.193 -0.3604  0.4219  0.5355
   60MOL0     C 8021   8.170   9.215   0.234  0.2527 -0.8090  0.0916
   60MOL0     C 8022   8.310   9.207   0.225 -0.1418 -0.5418  0.5312
   60MOL0     C 8023   8.380   9.329   0.193 -0.8649  1.1207  0.0244
   60MOL0     O 8024   8.519   9.319   0.204 -0.2837 -0.5927 -0.3458
   60MOL0     C 8025   8.598   9.408   0.123 -0.3614 -0.3808 -0.8467
   60MOL0     C 8026   8.740   9.351   0.089  0.9171 -0.0831  0.1195
   60MOL0     C 8027   8.742   9.233  -0.004 -0.3452  0.4010 -0.0963
   60MOL0     C 8028   8.753   9.282  -0.149 -0.2468  0.1982 -0.6261
   60MOL0     C 8029   8.694   9.186  -0.252  0.0845  0.3653 -0.1136
   60MOL0     C 8030   8.649   9.124  -0.340 -0.2322  0.3446  0.2886
   60MOL0     C 8031   8.315   9.448   0.164 -0.0034  0.0657  0.3724
   60MOL0     C 8032   8.176   9.451   0.159  0.4301 -1.1636 -1.0335
   60MOL0     H 8033   7.743   9.487  -0.034 -2.9468 -2.4973 -1.5171
   60MOL0     H 8034   7.496   9.497  -0.032  2.5847  0.0082 -1.3484
   60MOL0     H 8035   7.242   9.407   0.324 -1.9036  0.6341  0.7045
   60MOL0     H 8036   7.295   9.564   0.338 -0.1474 -1.9204  2.7738
   60MOL0     H 8037   7.041   9.542   0.310  2.1615 -0.1580  2.2965
   60MOL0     H 8038   7.094   9.612   0.155  0.1861 -1.5967 -1.2143
   60MOL0     H 8039   7.094   9.399   0.036  1.8147  1.5063  0.7520
   60MOL0     H 8040   7.076   9.317   0.185 -1.4542 -1.2004 -1.3267
   60MOL0     H 8041   6.856   9.410   0.227 -5.4339  1.1603 -1.4432
   60MOL0     H 8042   6.876   9.526   0.102 -1.4441 -0.7010  2.0186
   60MOL0     H 8043   6.904   9.279  -0.033 -2.3974 -1.1247 -0.9826
   60MOL0     H 8044   6.801   9.235   0.095 -3.0608 -2.5172 -3.5112
   60MOL0     H 8045   6.754   9.464  -0.094  0.5535  0.2676  2.0104
   60MOL0     H 8046   6.714   9.284  -0.125 -2.3585 -0.3274  0.8080
   60MOL0     H 8047   6.540   9.285   0.017 -0.1842  0.4052  0.4680
   60MOL0     H 8048   6.600   9.419   0.123 -0.2272 -0.5688  0.4348
   60MOL0     H 8049   6.482   9.452  -0.147 -0.1566 -0.0746 -0.3271
   60MOL0     H 8050   6.509   9.575  -0.016  0.1969 -1.9945  4.2898
   60MOL0     H 8051   6.298   9.645   0.108  0.3830  0.8162 -2.2213
   60MOL0     H 8052   6.005   9.474   0.247 -0.5237  0.0421  0.0874
   60MOL0     H 8053   6.036   9.632   0.176 -2.6004 -0.5631  0.9222
   60MOL0     H 8054   5.968   9.499  -0.056 -1.7972 -0.2084 -0.6848
   60MOL0     H 8055   5.853   9.584   0.036  0.5432  0.6469  1.3947
   60MOL0     H 8056   5.873   9.337   0.168 -2.2015 -0.7598  0.2447
   60MOL0     H 8057   5.879   9.290  -0.005  0.8122  2.4448 -1.0275
   60MOL0     H 8058   5.639   9.287   0.050 -1.4016  1.1453  4.8781
   60MOL0     H 8059   5.682   9.433  -0.040  0.5605  0.7011 -0.2274
   60MOL0     H 8060   5.557   9.586  -0.058  0.6249 -2.6978  0.7383
   60MOL0     H 8061   5.319   9.795  -0.104 -0.7171  1.7743  0.8705
   60MOL0     H 8062   5.452   9.914  -0.088 -1.1218 -0.0634 -0.2122
   60MOL0     H 8063   5.489   9.768  -0.174  0.5883  1.6100 -0.6880
   60MOL0     H 8064   5.109  10.044   0.382  2.6038 -2.6151  1.2162
   60MOL0     H 8065   5.013  10.264   0.433  0.0588  2.7379  1.0255
   60MOL0     H 8066   5.071  10.625   0.237  1.2579  0.5986 -0.2184
   60MOL0     H 8067   5.101  10.473   0.157  0.2416  2.4033 -0.2567
   60MOL0     H 8068   4.846  10.559   0.309  0.5854 -2.9452 -0.0851
   60MOL0     H 8069   4.886  10.583   0.136 -3.0857 -0.2179 -0.2238
   60MOL0     H 8070   4.912  10.309   0.165 -0.6855  1.4423 -4.0277
   60MOL0     H 8071   4.778  10.387   0.105  0.2838  0.1514 -0.9292
   60MOL0     H 8072   4.762  10.344   0.399 -0.2648  2.2349 -0.1613
   60MOL0     H 8073   4.637  10.400   0.276 -0.0750 -0.0611 -3.6962
   60MOL0     H 8074   4.613  10.170   0.347 -1.5106 -0.8748 -0.9995
   60MOL0     H 8075   4.768  10.133   0.265  0.0567 -1.4079  4.1056
   60MOL0     H 8076   4.505  10.236   0.156  1.9331  2.2717  1.5419
   60MOL0     H 8077   4.647  10.217   0.050  1.0831  1.2323  0.5104
   60MOL0     H 8078   4.545   9.980   0.219 -0.9118 -0.4831 -1.2356
   60MOL0     H 8079   4.657   9.978   0.087  2.5237  2.9831  1.6295
   60MOL0     H 8080   4.351  10.046   0.059  0.7703  0.9843  0.6028
   60MOL0     H 8081   4.425   9.896  -0.002 -1.4259 -0.3245  1.7466
   60MOL0     H 8082   5.378  10.458   0.338  1.3795 -0.9945 -0.8289
   60MOL0     H 8083   5.480  10.238   0.301  0.8871 -0.1129  4.5440
   60MOL0     H 8084   5.472   9.804   0.377 -3.4774  1.6722 -0.9035
   60MOL0     H 8085   5.566   9.584   0.373  1.2002 -2.1832 -1.8025
   60MOL0     H 8086   7.486   9.432   0.396 -1.7435  1.1073 -0.1057
   60MOL0     H 8087   7.728   9.445   0.399 -3.0295  1.6053  2.0696
   60MOL0     H 8088   8.118   9.125   0.267 -0.7225 -1.0214 -1.8980
   60MOL0     H 8089   8.384   9.129   0.242  2.5634  2.0412  1.4815
   60MOL0     H 8090   8.538   9.433   0.035 -0.5283  0.4816 -0.4951
   60MOL0     H 8091   8.603   9.503   0.176  0.8672 -0.4252 -0.8609
   60MOL0     H 8092   8.787   9.325   0.185  2.4618  2.0358  0.0090
   60MOL0     H 8093   8.797   9.439   0.057 -1.1393  2.0060  1.7972
   60MOL0     H 8094   8.651   9.174   0.011  0.8061 -1.6175 -0.6824
   60MOL0     H 8095   8.828   9.173   0.027 -0.7297  0.7573  1.7728
   60MOL0     H 8096   8.856   9.311  -0.172 -0.8306  1.7169 -1.4401
   60MOL0     H 8097   8.696   9.375  -0.146  0.2080  0.5065 -1.2664
   60MOL0     H 8098   8.619   9.065  -0.424  1.6171  1.0747 -0.9748
   60MOL0     H 8099   8.379   9.533   0.143 -0.2325  0.5592  1.6287
   60MOL0     H 8100   8.126   9.538   0.119 -3.5324 -1.4494  2.5093
   61MOL0     O 8101   3.255   5.968   0.741 -0.1298  0.3194  0.2192
   61MOL0     C 8102   3.215   5.911   0.641  0.0108  0.7184 -0.3877
   61MOL0     O 8103   3.093   5.848   0.617 -0.2313  0.4333 -0.4073
   61MOL0     C 8104   2.980   5.902   0.676 -1.2712  0.2395  0.5944
   61MOL0     C 8105   2.964   6.038   0.684  0.6083 -0.3348  0.2065
   61MOL0     C 8106   2.844   6.096   0.730 -0.0883 -0.4809 -0.4088
   61MOL0     C 8107   2.739   6.019   0.774 -0.0439 -0.2132 -0.2948
   61MOL0     O 8108   2.639   6.088   0.829 -0.2965 -0.9251 -0.5896
   61MOL0     C 8109   2.548   6.011   0.909  0.6608  1.0260  0.3942
   61MOL0     C 8110   2.424   6.105   0.932  0.0571  0.4576 -0.3734
   61MOL0     C 8111   2.345   6.138   0.806 -0.7169  0.6917  0.3242
   61MOL0     C 8112   2.240   6.248   0.825  0.5364  0.3577 -0.6399
   61MOL0     C 8113   2.160   6.283   0.707  0.5956 -0.2283 -0.8139
   61MOL0     C 8114   2.067   6.409   0.732 -0.0150  0.6383  0.7570
   61MOL0     C 8115   2.013   6.469   0.600  0.9984 -0.0340  0.2373
   61MOL0     C 8116   1.910   6.578   0.639  0.2872  0.1791  0.0075
   61MOL0     N 8117   1.851   6.642   0.520 -0.2492  0.7074  0.3370
   61MOL0     C 8118   1.786   6.574   0.422 -0.4288  0.3259 -0.0028
   61MOL0     C 8119   1.730   6.668   0.342 -0.5857 -0.6187 -0.3045
   61MOL0     C 8120   1.657   6.672   0.210  0.4844 -0.2496 -0.0794
   61MOL0     C 8121   1.525   6.588   0.230  0.2110  0.8401 -0.5302
   61MOL0     C 8122   1.429   6.628   0.346 -0.0355 -0.0415 -0.7075
   61MOL0     C 8123   1.330   6.515   0.394  0.4436 -0.2367  0.6711
   61MOL0     O 8124   1.246   6.478   0.286  0.0448  0.0446  0.5001
   61MOL0     C 8125   1.154   6.562   0.242  1.1626 -0.5082 -0.1790
   61MOL0     C 8126   1.063   6.618   0.329  0.0901  0.1760 -0.6024
   61MOL0     C 8127   0.954   6.694   0.281  0.2617  0.3579  0.8831
   61MOL0     C 8128   0.854   6.741   0.384 -0.7583 -0.2684 -0.3481
   61MOL0     C 8129   0.939   6.719   0.140 -0.2931 -0.2059 -0.1115
   61MOL0     C 8130   0.831   6.803   0.080 -0.3836 -0.6852  0.1532
   61MOL0     O 8131   0.818   6.793  -0.056 -0.2961  0.3139 -0.0759
   61MOL0     C 8132   0.709   6.866  -0.105  0.1258  0.8367 -0.2781
   61MOL0     C 8133   0.709   7.007  -0.124 -0.2901 -0.6281 -0.4108
   61MOL0     C 8134   0.602   7.078  -0.168 -0.1686 -0.2260  0.2768
   61MOL0     C 8135   0.492   7.005  -0.209  0.2111 -0.3566  1.0214
   61MOL0     O 8136   0.381   7.050  -0.277  0.4461 -0.2510  0.7372
   61MOL0     C 8137   0.368   7.189  -0.313  1.0631  0.0210  0.0008
   61MOL0     C 8138   0.330   7.196  -0.460  0.1999 -0.0050 -0.3502
   61MOL0     C 8139   0.194   7.125  -0.497  0.1741 -0.2706  0.2931
   61MOL0     C 8140   0.138   7.171  -0.636 -0.3707 -0.2789 -0.3600
   61MOL0     C 8141   0.002   7.093  -0.655 -0.8961  1.0099  0.4900
   61MOL0     C 8142  -0.045   7.108  -0.800 -0.3934  0.9140  0.0349
   61MOL0     C 8143  -0.110   7.246  -0.831 -0.4357  0.2116  0.1570
   61MOL0     C 8144  -0.157   7.277  -0.977  0.0419 -0.4320 -0.1470
   61MOL0    Cl 8145  -0.191   7.448  -0.973 -0.2985  0.4297  0.4554
   61MOL0     C 8146   0.497   6.861  -0.195  0.2957 -0.0747  0.2857
   61MOL0     C 8147   0.591   6.789  -0.135 -0.0856 -0.9897 -0.1871
   61MOL0     O 8148   0.769   6.886   0.151  0.1915 -0.7420 -0.4524
   61MOL0     C 8149   1.033   6.658   0.052  0.2077  1.2929  0.7111
   61MOL0     C 8150   1.136   6.577   0.103 -0.4353 -0.9253  0.2311
   61MOL0     N 8151   1.745   6.786   0.409 -0.1528 -0.7059  0.3334
   61MOL0     N 8152   1.823   6.769   0.512 -0.5345 -0.6029 -0.2902
   61MOL0     C 8153   2.763   5.879   0.786  0.1421 -0.6235  0.9216
   61MOL0     C 8154   2.879   5.823   0.730  0.5001  0.2964  0.2713
   61MOL0     C 8155   3.323   5.878   0.536 -0.8592 -0.3269  0.3118
   61MOL0     C 8156   3.448   5.934   0.544 -0.2396  0.3068  0.0044
   61MOL0     C 8157   3.560   5.910   0.468 -0.0503  0.3774  0.2885
   61MOL0     C 8158   3.545   5.821   0.367 -0.1946  0.3998 -0.6420
   61MOL0     O 8159   3.639   5.792   0.272  0.2088 -0.0492 -0.1999
   61MOL0     C 8160   3.777   5.825   0.303  0.1910  0.4229 -0.0037
   61MOL0     C 8161   3.850   5.825   0.167 -0.4175 -0.1436 -0.5979
   61MOL0     C 8162   3.765   5.893   0.067 -0.6293 -0.2079  0.8848
   61MOL0     C 8163   3.837   5.934  -0.062  0.3787  0.2495 -0.3593
   61MOL0     C 8164   3.967   6.007  -0.031  0.1405  0.1949 -0.0793
   61MOL0     C 8165   4.080   6.039  -0.018 -0.0191 -0.3617 -0.4830
   61MOL0     C 8166   3.423   5.772   0.340 -0.0613  0.6198  0.6601
   61MOL0     C 8167   3.310   5.794   0.428 -0.1299  0.5639  0.4094
   61MOL0     H 8168   3.047   6.105   0.662  0.0709  0.5524  0.8042
   61MOL0     H 8169   2.833   6.204   0.728 -0.0595 -0.4804 -0.5324
   61MOL0     H 8170   2.503   5.929   0.852 -2.1307  1.2601  2.0674
   61MOL0     H 8171   2.596   5.976   1.001  1.5931  2.5744  0.5469
   61MOL0     H 8172   2.346   6.067   0.998 -0.3599  1.3220 -0.3521
   61MOL0     H 8173   2.463   6.198   0.973 -0.2879 -0.2259  1.5979
   61MOL0     H 8174   2.409   6.163   0.722 -2.0071 -0.1965 -0.9710
   61MOL0     H 8175   2.299   6.045   0.772  2.2799  0.4813 -3.9444
   61MOL0     H 8176   2.179   6.221   0.912  1.3347 -5.6120 -1.5509
   61MOL0     H 8177   2.296   6.335   0.860  0.7054 -1.3482  4.0783
   61MOL0     H 8178   2.214   6.302   0.614 -1.0108  1.2930 -1.5006
   61MOL0     H 8179   2.093   6.198   0.697  1.4392 -1.0368  0.1317
   61MOL0     H 8180   1.985   6.381   0.798 -0.6530  2.6185  0.8724
   61MOL0     H 8181   2.119   6.486   0.790 -1.5866  1.6753  0.8499
   61MOL0     H 8182   2.092   6.507   0.534 -0.3819  0.7227 -1.0467
   61MOL0     H 8183   1.958   6.390   0.548 -1.0187 -0.0572  2.2451
   61MOL0     H 8184   1.941   6.651   0.714  0.9207  0.0166 -0.0898
   61MOL0     H 8185   1.832   6.520   0.689  1.2100 -0.5109  0.6835
   61MOL0     H 8186   1.779   6.469   0.396  0.2922  0.4052 -0.5484
   61MOL0     H 8187   1.624   6.768   0.171  2.0991  0.3564 -0.0003
   61MOL0     H 8188   1.722   6.634   0.131  1.9369  0.4808  0.7261
   61MOL0     H 8189   1.569   6.489   0.251  0.0432  1.0825  1.1138
   61MOL0     H 8190   1.478   6.586   0.132  0.9017 -2.0259 -0.9176
   61MOL0     H 8191   1.376   6.713   0.302 -1.4945 -1.0467 -0.9374
   61MOL0     H 8192   1.490   6.658   0.432 -0.5623 -2.5880  0.6582
   61MOL0     H 8193   1.268   6.552   0.476 -0.3596 -1.9275  0.8583
   61MOL0     H 8194   1.380   6.433   0.446  1.1188  0.7957  1.6935
   61MOL0     H 8195   1.065   6.607   0.437  2.3291 -2.6592 -0.8033
   61MOL0     H 8196   0.881   6.847   0.393 -0.1681 -0.4974  0.7664
   61MOL0     H 8197   0.754   6.716   0.348 -1.2448 -2.4052  2.1697
   61MOL0     H 8198   0.861   6.687   0.479  1.2253  0.1166 -0.2250
   61MOL0     H 8199   0.799   7.065  -0.103 -0.4182 -0.5908  0.0415
   61MOL0     H 8200   0.619   7.185  -0.177 -0.8645 -0.2087 -1.1311
   61MOL0     H 8201   0.285   7.229  -0.254  2.0804  1.5810  0.4539
   61MOL0     H 8202   0.461   7.245  -0.306  2.2674 -2.0576  1.4775
   61MOL0     H 8203   0.312   7.301  -0.485  0.3363 -0.5689 -3.1664
   61MOL0     H 8204   0.421   7.154  -0.504  2.8929  1.4968  3.2784
   61MOL0     H 8205   0.125   7.137  -0.413  0.2626  2.3411  0.0623
   61MOL0     H 8206   0.217   7.018  -0.502 -0.5323 -0.4217  0.2237
   61MOL0     H 8207   0.113   7.277  -0.636  1.0697  0.0741 -1.1868
   61MOL0     H 8208   0.214   7.143  -0.709  0.5416 -1.1326  0.8797
   61MOL0     H 8209  -0.074   7.130  -0.586 -2.6087 -0.3910 -0.5659
   61MOL0     H 8210   0.013   6.986  -0.633  0.8786  1.2970  1.1964
   61MOL0     H 8211   0.036   7.087  -0.871 -0.6099  1.9624 -0.5420
   61MOL0     H 8212  -0.129   7.042  -0.822 -0.3181  1.5665 -2.4548
   61MOL0     H 8213  -0.030   7.319  -0.821 -2.3011  2.2895  0.5884
   61MOL0     H 8214  -0.191   7.266  -0.760  0.2703  0.9333  0.7782
   61MOL0     H 8215  -0.241   7.211  -0.999  0.5781 -1.6024  1.1268
   61MOL0     H 8216  -0.081   7.250  -1.051 -1.6609 -2.9849 -1.1149
   61MOL0     H 8217   0.411   6.803  -0.229 -0.2335  0.6481  0.3707
   61MOL0     H 8218   0.600   6.681  -0.129 -0.5787 -1.0667 -0.7993
   61MOL0     H 8219   1.028   6.671  -0.055 -1.9080  0.6398  0.6792
   61MOL0     H 8220   1.197   6.533   0.026  1.4404  2.8655 -0.7232
   61MOL0     H 8221   2.694   5.807   0.829  1.9910 -2.0871  1.5744
   61MOL0     H 8222   2.897   5.716   0.740  1.1346  0.0681 -2.4385
   61MOL0     H 8223   3.464   6.008   0.622  0.0023  2.1468 -1.7036
   61MOL0     H 8224   3.652   5.949   0.508  0.5643 -2.1638  1.5986
   61MOL0     H 8225   3.781   5.923   0.351 -2.9636 -1.0990  3.9378
   61MOL0     H 8226   3.830   5.750   0.364  3.1421  1.8842 -0.5949
   61MOL0     H 8227   3.862   5.719   0.140  0.9815 -1.0309  2.9202
   61MOL0     H 8228   3.951   5.863   0.183  0.8007 -2.4726 -2.1907
   61MOL0     H 8229   3.705   5.968   0.119 -0.3876 -0.6791  1.8853
   61MOL0     H 8230   3.694   5.817   0.032 -2.6400  1.4055  1.3007
   61MOL0     H 8231   3.783   6.007  -0.123 -0.5834 -0.3735 -0.2646
   61MOL0     H 8232   3.845   5.846  -0.127 -1.4036 -1.3700  1.4879
   61MOL0     H 8233   4.176   6.085  -0.009 -1.2972  2.0302  2.3429
   61MOL0     H 8234   3.412   5.707   0.254  1.2364  1.2036  0.0342
   61MOL0     H 8235   3.214   5.745   0.411  0.9300 -1.0702 -1.2438
   62MOL0     O 8236   4.355   5.151   0.893  1.0318 -0.3448  0.7180
   62MOL0     C 8237   4.292   5.249   0.851 -0.3988  0.6734  0.5324
   62MOL0     O 8238   4.337   5.380   0.850  0.1003 -0.6374 -0.3353
   62MOL0     C 8239   4.463   5.406   0.888 -0.7010  0.3366  0.1895
   62MOL0     C 8240   4.478   5.510   0.978  0.3602 -0.1768  0.2224
   62MOL0     C 8241   4.603   5.545   1.030 -0.9581  0.5917 -0.3411
   62MOL0     C 8242   4.718   5.471   0.997 -0.1850  0.9125  0.6874
   62MOL0     O 8243   4.833   5.495   1.066 -0.4225  0.1014 -0.3173
   62MOL0     C 8244   4.944   5.411   1.026 -0.2760 -0.5917  0.1851
   62MOL0     C 8245   5.076   5.480   1.071 -0.4984 -1.2113 -0.6191
   62MOL0     C 8246   5.194   5.384   1.055  0.3212  0.1292  0.8445
   62MOL0     C 8247   5.194   5.253   1.139  1.0462  1.4228 -0.5462
   62MOL0     C 8248   5.326   5.182   1.130 -0.3867 -0.3087 -0.0708
   62MOL0     C 8249   5.302   5.045   1.216 -0.7917  0.6384  0.0087
   62MOL0     C 8250   5.429   4.962   1.223 -1.2563  0.0753 -0.3996
   62MOL0     C 8251   5.460   4.892   1.093 -0.2373 -0.3639  0.7182
   62MOL0     N 8252   5.561   4.782   1.096  0.1383 -0.4916  0.2422
   62MOL0     C 8253   5.689   4.798   1.148  0.2090 -0.3244 -0.0274
   62MOL0     C 8254   5.740   4.677   1.164 -0.3699  0.3304 -0.1454
   62MOL0     C 8255   5.878   4.638   1.208 -0.2425 -0.4661  0.1905
   62MOL0     C 8256   5.902   4.648   1.364  0.1301 -0.1147  0.1853
   62MOL0     C 8257   6.029   4.579   1.399 -0.9352 -0.4700  0.5991
   62MOL0     C 8258   6.153   4.649   1.346  0.6396 -0.4355 -0.0756
   62MOL0     O 8259   6.199   4.585   1.226 -0.2055 -0.6806  0.9573
   62MOL0     C 8260   6.322   4.513   1.238  0.7166  0.0893 -0.6324
   62MOL0     C 8261   6.436   4.584   1.223 -0.3786  0.1443  0.3694
   62MOL0     C 8262   6.563   4.527   1.252  1.2479 -0.0660 -0.0439
   62MOL0     C 8263   6.682   4.605   1.221  0.5085  0.0120 -0.4169
   62MOL0     C 8264   6.567   4.393   1.301 -0.2384 -0.1604 -0.4640
   62MOL0     C 8265   6.691   4.314   1.328 -0.4432 -0.9646  0.7954
   62MOL0     O 8266   6.704   4.206   1.241  0.1409  0.9488 -0.5617
   62MOL0     C 8267   6.833   4.170   1.224  0.1198  1.0458 -0.1142
   62MOL0     C 8268   6.886   4.049   1.261 -0.0605 -0.1425  0.6065
   62MOL0     C 8269   7.022   4.016   1.235  0.5746 -0.0275 -1.2409
   62MOL0     C 8270   7.103   4.105   1.175 -0.5794  0.1514 -0.9363
   62MOL0     O 8271   7.233   4.055   1.161  0.4341 -0.1035 -0.3756
   62MOL0     C 8272   7.321   4.156   1.201 -0.3246 -0.1699  0.2185
   62MOL0     C 8273   7.423   4.196   1.098  0.0725 -0.1796  0.9198
   62MOL0     C 8274   7.354   4.199   0.953  0.2011  1.4896  0.1820
   62MOL0     C 8275   7.456   4.230   0.841  0.2284  0.0180  0.5096
   62MOL0     C 8276   7.387   4.287   0.709  0.4351  0.4346 -0.1578
   62MOL0     C 8277   7.351   4.443   0.733 -0.2484 -1.2585  0.1299
   62MOL0     C 8278   7.338   4.521   0.599 -0.8024  0.2367 -0.1538
   62MOL0     C 8279   7.467   4.560   0.536 -0.3582 -0.8739  0.1851
   62MOL0    Cl 8280   7.418   4.691   0.419  0.2577 -0.2717  0.0940
   62MOL0     C 8281   7.051   4.222   1.121 -0.0459 -0.1967 -0.0439
   62MOL0     C 8282   6.917   4.252   1.148  0.2167 -0.8128 -0.2340
   62MOL0     O 8283   6.775   4.353   1.409  0.7999 -0.9177 -0.3054
   62MOL0     C 8284   6.448   4.324   1.296  1.0700  0.2598 -0.3559
   62MOL0     C 8285   6.322   4.378   1.266  0.3985 -0.1084 -0.9910
   62MOL0     N 8286   5.643   4.587   1.119 -0.1400 -1.1363  0.8849
   62MOL0     N 8287   5.536   4.648   1.084  0.3512 -0.0324 -0.0541
   62MOL0     C 8288   4.703   5.367   0.903 -0.3039  0.4418 -0.4037
   62MOL0     C 8289   4.577   5.341   0.848  0.2174  1.0431  0.0252
   62MOL0     C 8290   4.159   5.220   0.812  0.2073 -0.4545  0.5059
   62MOL0     C 8291   4.075   5.109   0.849 -0.9394  0.0019  0.4681
   62MOL0     C 8292   3.950   5.078   0.788  0.2102 -0.3653 -0.4402
   62MOL0     C 8293   3.890   5.166   0.696 -0.6590 -0.0416  0.8089
   62MOL0     O 8294   3.765   5.150   0.652 -0.5900 -0.4320  1.0525
   62MOL0     C 8295   3.672   5.227   0.725  0.7538  0.1814  0.4907
   62MOL0     C 8296   3.584   5.118   0.798  0.7013  0.5850  0.3870
   62MOL0     C 8297   3.468   5.065   0.704 -1.7959  0.3863 -0.0378
   62MOL0     C 8298   3.402   4.953   0.790  0.3126  0.0582 -0.1120
   62MOL0     C 8299   3.268   4.929   0.732  0.0558  0.1115 -0.2191
   62MOL0     C 8300   3.155   4.901   0.686  0.0274 -1.6426  0.2745
   62MOL0     C 8301   3.974   5.263   0.644  0.4247  0.6673 -0.5837
   62MOL0     C 8302   4.102   5.300   0.701  0.5830 -0.3196 -0.7702
   62MOL0     H 8303   4.389   5.566   1.004  0.6065  2.2937 -3.5194
   62MOL0     H 8304   4.598   5.625   1.104 -2.6842  0.1722  0.0392
   62MOL0     H 8305   4.943   5.314   1.077  0.3101 -1.9585 -2.2553
   62MOL0     H 8306   4.949   5.403   0.917  0.9780 -2.0904  0.3025
   62MOL0     H 8307   5.079   5.569   1.008 -2.9755 -0.3748  0.3309
   62MOL0     H 8308   5.076   5.500   1.178  0.3550  1.4324 -1.0533
   62MOL0     H 8309   5.203   5.364   0.948  1.9915  0.2835  0.9163
   62MOL0     H 8310   5.287   5.433   1.086  1.4959 -1.3383 -0.1698
   62MOL0     H 8311   5.180   5.282   1.243  0.2675  1.1434 -0.5665
   62MOL0     H 8312   5.123   5.174   1.111 -2.1536  1.2685  6.0023
   62MOL0     H 8313   5.356   5.160   1.027 -0.4778  2.9736 -0.9299
   62MOL0     H 8314   5.397   5.252   1.173 -1.3970  0.5046  0.3230
   62MOL0     H 8315   5.265   5.074   1.315 -1.4183  0.5087 -0.1838
   62MOL0     H 8316   5.227   4.980   1.171 -0.3022  0.1029 -0.0463
   62MOL0     H 8317   5.512   5.033   1.232 -2.2467  1.4250 -1.3696
   62MOL0     H 8318   5.424   4.897   1.311 -0.4811 -1.7132 -1.6267
   62MOL0     H 8319   5.494   4.972   1.026  1.1506 -0.0911  1.7034
   62MOL0     H 8320   5.362   4.869   1.049 -0.2980 -1.1143  1.2241
   62MOL0     H 8321   5.728   4.896   1.176 -3.9669  2.1843 -1.9585
   62MOL0     H 8322   5.899   4.539   1.168  0.3777 -0.0128 -0.6388
   62MOL0     H 8323   5.956   4.706   1.171  0.8308 -0.9800  1.4452
   62MOL0     H 8324   5.820   4.605   1.421  0.7027  0.2315  1.2933
   62MOL0     H 8325   5.912   4.751   1.400  0.3611 -0.6420  1.6978
   62MOL0     H 8326   6.021   4.477   1.362  1.5922 -0.4363 -0.1597
   62MOL0     H 8327   6.033   4.583   1.509  2.8530  1.2956  0.5639
   62MOL0     H 8328   6.232   4.649   1.422  0.9674  0.4869 -0.3997
   62MOL0     H 8329   6.130   4.752   1.315  0.0976 -0.5752 -0.1484
   62MOL0     H 8330   6.425   4.686   1.187 -5.0122  0.6921  2.6852
   62MOL0     H 8331   6.726   4.634   1.317 -1.7620  4.9554 -0.5592
   62MOL0     H 8332   6.755   4.545   1.166 -0.4777 -0.0415 -1.7311
   62MOL0     H 8333   6.656   4.692   1.160  0.8283  0.4750  0.0912
   62MOL0     H 8334   6.818   3.976   1.304  0.9481 -1.5938 -0.1893
   62MOL0     H 8335   7.056   3.914   1.251 -2.4366 -0.5990  3.4411
   62MOL0     H 8336   7.281   4.256   1.221  0.7234  0.3458 -0.2026
   62MOL0     H 8337   7.371   4.128   1.294 -0.0059  2.6854  0.9992
   62MOL0     H 8338   7.474   4.292   1.109  4.6196 -1.7835 -2.7722
   62MOL0     H 8339   7.499   4.118   1.092 -1.9924 -2.2710  0.2346
   62MOL0     H 8340   7.275   4.275   0.948 -1.8839 -0.5415  0.7507
   62MOL0     H 8341   7.315   4.098   0.943  2.7310  0.3205  1.2617
   62MOL0     H 8342   7.536   4.301   0.860  3.0165 -2.6384 -0.5681
   62MOL0     H 8343   7.511   4.141   0.810  0.5853  0.8710 -1.4625
   62MOL0     H 8344   7.295   4.238   0.678 -0.1693  0.4822  1.4891
   62MOL0     H 8345   7.458   4.286   0.626 -0.6598  0.7836 -1.1189
   62MOL0     H 8346   7.249   4.452   0.773 -0.0566  0.6986  0.2654
   62MOL0     H 8347   7.421   4.491   0.802  0.0202  0.2089 -1.1159
   62MOL0     H 8348   7.298   4.617   0.633 -1.6230 -0.1797  0.0704
   62MOL0     H 8349   7.269   4.477   0.526 -2.0773  0.5285  0.8491
   62MOL0     H 8350   7.522   4.477   0.489  0.6380 -0.2905  0.2742
   62MOL0     H 8351   7.545   4.592   0.606  1.6741 -2.5938 -1.1671
   62MOL0     H 8352   7.115   4.297   1.075  0.9693  1.0712  3.1184
   62MOL0     H 8353   6.876   4.347   1.116  2.0024 -0.1167 -0.5809
   62MOL0     H 8354   6.441   4.216   1.283 -2.4618  0.6062 -3.2251
   62MOL0     H 8355   6.235   4.313   1.268  1.7648 -2.1101 -2.5512
   62MOL0     H 8356   4.780   5.299   0.868  0.1486  0.8781 -0.2463
   62MOL0     H 8357   4.566   5.259   0.778  2.8931 -0.0279  0.7358
   62MOL0     H 8358   4.117   5.050   0.930 -0.3243  0.7021  0.6736
   62MOL0     H 8359   3.885   4.996   0.815 -2.4547  0.8708 -2.6434
   62MOL0     H 8360   3.707   5.289   0.808  0.7597  1.4668 -0.4504
   62MOL0     H 8361   3.610   5.290   0.661  0.7715  2.6833  2.7864
   62MOL0     H 8362   3.553   5.168   0.890 -0.8298 -0.9895  0.7850
   62MOL0     H 8363   3.638   5.031   0.837 -0.1013 -0.6964 -1.2185
   62MOL0     H 8364   3.523   5.018   0.621 -0.7137  1.7956 -0.1449
   62MOL0     H 8365   3.409   5.148   0.664  1.1517  1.1535 -3.2658
   62MOL0     H 8366   3.398   4.978   0.897  0.5714 -0.6108  0.0544
   62MOL0     H 8367   3.463   4.866   0.765  2.0910  1.4411 -0.8111
   62MOL0     H 8368   3.056   4.879   0.654 -0.5430  0.5817  0.3456
   62MOL0     H 8369   3.934   5.330   0.568  0.6735  2.9948  1.2019
   62MOL0     H 8370   4.145   5.396   0.673 -0.4754 -0.4929 -3.2112
   63MOL0     O 8371   6.185  11.405   7.074  0.0351 -0.8968  0.4318
   63MOL0     C 8372   6.236  11.512   7.066 -1.6818 -1.1244  0.5133
   63MOL0     O 8373   6.170  11.629   7.095  0.2374  0.5747  0.0351
   63MOL0     C 8374   6.031  11.640   7.120  0.2891  0.9388  0.6983
   63MOL0     C 8375   5.936  11.575   7.034 -0.3309 -0.4642  0.2478
   63MOL0     C 8376   5.800  11.565   7.063 -0.1698  0.1310 -1.4413
   63MOL0     C 8377   5.754  11.635   7.177  0.1943 -0.3176  0.6893
   63MOL0     O 8378   5.613  11.647   7.185 -0.2668 -0.6049  0.4928
   63MOL0     C 8379   5.559  11.644   7.314  0.3369  0.2547 -0.3794
   63MOL0     C 8380   5.401  11.662   7.303 -0.6494 -0.9502 -0.0824
   63MOL0     C 8381   5.328  11.720   7.438  0.1050  0.6521 -0.2641
   63MOL0     C 8382   5.183  11.729   7.424  0.7188 -0.2946  0.1498
   63MOL0     C 8383   5.117  11.725   7.562 -0.2984 -0.2462 -0.9201
   63MOL0     C 8384   4.969  11.764   7.544  0.2235  0.5760 -0.0051
   63MOL0     C 8385   4.895  11.742   7.675  0.5809  0.4284 -1.0581
   63MOL0     C 8386   4.750  11.786   7.666  0.0081  0.7377 -0.3923
   63MOL0     N 8387   4.685  11.710   7.560 -0.8238  0.1581 -0.5866
   63MOL0     C 8388   4.604  11.602   7.570 -0.1579  0.1424 -0.4117
   63MOL0     C 8389   4.551  11.583   7.444  0.1093  0.8747  0.1229
   63MOL0     C 8390   4.475  11.465   7.378 -0.7355 -0.2341 -0.0614
   63MOL0     C 8391   4.326  11.486   7.371  0.5749 -0.4934  0.6616
   63MOL0     C 8392   4.249  11.376   7.294 -0.1131  0.0858  0.7693
   63MOL0     C 8393   4.101  11.416   7.281  0.3542 -0.1053  0.0127
   63MOL0     O 8394   4.041  11.436   7.413  0.5710  0.9390  0.2538
   63MOL0     C 8395   3.900  11.433   7.420 -0.1470 -0.3472  0.1989
   63MOL0     C 8396   3.833  11.478   7.535 -0.5965  0.9450 -0.2488
   63MOL0     C 8397   3.693  11.465   7.558 -0.1158  0.1956 -0.4737
   63MOL0     C 8398   3.647  11.496   7.714 -1.1564 -0.3765 -0.2159
   63MOL0     C 8399   3.611  11.420   7.451  0.1749 -0.5387  0.3894
   63MOL0     C 8400   3.465  11.395   7.470 -0.1338  0.0350  0.9133
   63MOL0     O 8401   3.397  11.385   7.353 -0.3916  0.2348  0.0483
   63MOL0     C 8402   3.258  11.388   7.346  0.4736  0.5924  0.5776
   63MOL0     C 8403   3.190  11.448   7.232 -0.6917  0.0550  0.2903
   63MOL0     C 8404   3.051  11.419   7.212 -0.7269  1.1340  0.2078
   63MOL0     C 8405   2.982  11.336   7.288  0.8108  0.3283 -0.0190
   63MOL0     O 8406   2.856  11.318   7.249 -0.3815  0.2695  0.0867
   63MOL0     C 8407   2.788  11.212   7.306 -0.0171  0.3119 -0.1573
   63MOL0     C 8408   2.819  11.076   7.236  0.1525  0.3767 -0.4719
   63MOL0     C 8409   2.735  10.962   7.285  0.2782  0.3066 -0.5994
   63MOL0     C 8410   2.592  10.977   7.244  1.8739  0.5612 -0.0851
   63MOL0     C 8411   2.512  10.853   7.271 -0.2713  0.9570  0.0863
   63MOL0     C 8412   2.542  10.742   7.173  0.3143 -1.1943  0.5147
   63MOL0     C 8413   2.467  10.615   7.198  0.3858 -0.2450 -0.1760
   63MOL0     C 8414   2.531  10.564   7.329  0.8126  0.0729 -0.1973
   63MOL0    Cl 8415   2.698  10.500   7.320  0.1546  0.4640  0.3151
   63MOL0     C 8416   3.038  11.289   7.404 -0.0699 -0.3947 -0.0938
   63MOL0     C 8417   3.175  11.315   7.429  0.6351 -0.3422  0.0127
   63MOL0     O 8418   3.412  11.398   7.585 -0.2582  0.6265 -0.5320
   63MOL0     C 8419   3.676  11.391   7.323  0.5060 -0.3706  0.0487
   63MOL0     C 8420   3.814  11.400   7.307  0.2390  0.5420  0.6774
   63MOL0     N 8421   4.607  11.680   7.363 -0.4797  0.0312  0.1511
   63MOL0     N 8422   4.677  11.757   7.433 -0.1963  0.5941  0.3510
   63MOL0     C 8423   5.852  11.699   7.262  0.1557 -0.5968  0.2150
   63MOL0     C 8424   5.994  11.710   7.232 -0.7612  0.1602 -1.1060
   63MOL0     C 8425   6.372  11.523   7.023 -0.0604 -0.7533  0.4035
   63MOL0     C 8426   6.451  11.405   7.017 -0.3631 -1.0137 -0.4548
   63MOL0     C 8427   6.588  11.410   6.970  1.1167 -0.8792 -0.2724
   63MOL0     C 8428   6.645  11.528   6.928 -0.3777  0.1188  0.8888
   63MOL0     O 8429   6.779  11.529   6.893  1.0759  0.5903 -0.2083
   63MOL0     C 8430   6.859  11.635   6.957 -0.7735 -0.5893  0.7814
   63MOL0     C 8431   6.921  11.704   6.839  0.4719 -0.5503  1.1755
   63MOL0     C 8432   7.045  11.634   6.779 -0.2783  0.7873  0.4934
   63MOL0     C 8433   7.171  11.658   6.865 -0.5599 -0.1842 -0.1083
   63MOL0     C 8434   7.246  11.774   6.816 -0.1163  0.4203  0.0211
   63MOL0     C 8435   7.308  11.868   6.773  0.7643 -0.8858 -0.8145
   63MOL0     C 8436   6.561  11.646   6.913  0.8257 -0.3948 -0.5111
   63MOL0     C 8437   6.430  11.645   6.975 -1.7048  0.5799  0.7543
   63MOL0     H 8438   5.977  11.512   6.956 -0.6398 -0.6978  0.2736
   63MOL0     H 8439   5.725  11.524   6.996 -1.9206  2.4998 -1.0636
   63MOL0     H 8440   5.582  11.547   7.360 -1.3580 -0.1362 -0.2662
   63MOL0     H 8441   5.601  11.715   7.385 -1.6478  0.8023  0.3159
   63MOL0     H 8442   5.382  11.729   7.219 -1.2084  1.2330  1.6994
   63MOL0     H 8443   5.361  11.563   7.276 -0.9583 -0.9833  0.4846
   63MOL0     H 8444   5.349  11.654   7.523 -1.9891 -1.4358 -1.2699
   63MOL0     H 8445   5.378  11.816   7.455  4.1365 -0.8822 -2.0816
   63MOL0     H 8446   5.171  11.826   7.375  0.8008  1.0532  2.5951
   63MOL0     H 8447   5.150  11.652   7.354 -1.2628 -0.1719  0.8790
   63MOL0     H 8448   5.119  11.627   7.612 -4.6793  1.8629  4.3952
   63MOL0     H 8449   5.161  11.806   7.620  0.7714 -0.1781 -1.7970
   63MOL0     H 8450   4.965  11.868   7.514  0.4000  0.1314 -1.6372
   63MOL0     H 8451   4.933  11.699   7.464  1.5103  0.0638 -0.1954
   63MOL0     H 8452   4.894  11.635   7.699 -0.5420  0.2291 -1.9087
   63MOL0     H 8453   4.934  11.797   7.761 -2.8773  3.0235 -0.9221
   63MOL0     H 8454   4.752  11.892   7.638 -3.0709  0.3569 -2.4866
   63MOL0     H 8455   4.694  11.782   7.759 -1.2494  3.2146 -0.9557
   63MOL0     H 8456   4.588  11.534   7.653 -1.8038  2.8209  1.6288
   63MOL0     H 8457   4.505  11.450   7.274 -1.7064 -3.2520 -0.0184
   63MOL0     H 8458   4.492  11.381   7.446 -4.7454 -1.7897 -0.6835
   63MOL0     H 8459   4.301  11.571   7.306 -0.2048 -0.6543  0.7358
   63MOL0     H 8460   4.281  11.519   7.466  1.3656 -1.7928  1.5231
   63MOL0     H 8461   4.253  11.284   7.353 -1.3569  0.1389  0.9540
   63MOL0     H 8462   4.288  11.368   7.193  1.3689 -1.2634  1.4055
   63MOL0     H 8463   4.046  11.337   7.230  0.5661 -0.0590 -0.2869
   63MOL0     H 8464   4.099  11.515   7.235 -2.6300  0.7849  1.8069
   63MOL0     H 8465   3.898  11.507   7.616 -2.9342 -2.8104  3.3209
   63MOL0     H 8466   3.579  11.416   7.746 -1.0087 -0.6339 -0.5423
   63MOL0     H 8467   3.729  11.502   7.786 -0.9792  2.5225 -0.5449
   63MOL0     H 8468   3.592  11.591   7.713  1.0511  1.0035 -2.0142
   63MOL0     H 8469   3.240  11.527   7.177 -0.0468  0.3371  1.2447
   63MOL0     H 8470   3.015  11.469   7.123  0.4247  1.5092 -0.0568
   63MOL0     H 8471   2.801  11.208   7.414  0.6494 -1.6338 -0.2641
   63MOL0     H 8472   2.680  11.229   7.301 -0.3489 -0.8756  1.9901
   63MOL0     H 8473   2.808  11.074   7.127  2.0969  0.1738 -0.6902
   63MOL0     H 8474   2.924  11.051   7.254  0.2162  0.0547 -1.2254
   63MOL0     H 8475   2.741  10.948   7.394 -3.5300 -0.6544 -0.3544
   63MOL0     H 8476   2.766  10.867   7.240 -4.4396 -1.3049 -1.0737
   63MOL0     H 8477   2.548  11.062   7.297  0.9735  0.0139  0.0827
   63MOL0     H 8478   2.602  10.984   7.136 -1.0109 -2.1138 -0.6770
   63MOL0     H 8479   2.404  10.874   7.276 -0.2471  1.0353  5.1024
   63MOL0     H 8480   2.539  10.831   7.374  0.6416  0.4431 -0.2540
   63MOL0     H 8481   2.509  10.776   7.074  0.8050  0.3680  0.8551
   63MOL0     H 8482   2.647  10.715   7.158  0.5810 -0.2177  0.5174
   63MOL0     H 8483   2.475  10.538   7.121  2.2866  0.5952 -0.8760
   63MOL0     H 8484   2.361  10.634   7.219 -0.0062 -2.3994  0.0196
   63MOL0     H 8485   2.468  10.480   7.361 -0.6502  2.2716  3.2890
   63MOL0     H 8486   2.529  10.621   7.423  1.8174 -2.2031  1.2901
   63MOL0     H 8487   2.984  11.240   7.484 -0.3342  0.7795  0.4616
   63MOL0     H 8488   3.214  11.267   7.518  1.8037  0.8517  0.1717
   63MOL0     H 8489   3.619  11.348   7.242  1.5049 -1.6993  0.0264
   63MOL0     H 8490   3.857  11.385   7.208  0.0974 -0.3775  0.7461
   63MOL0     H 8491   5.821  11.745   7.355  0.3669 -0.8598  0.4184
   63MOL0     H 8492   6.073  11.747   7.297  0.1831 -0.9276 -1.6144
   63MOL0     H 8493   6.410  11.306   7.036 -0.5598 -1.5118 -3.0406
   63MOL0     H 8494   6.643  11.317   6.978 -1.2602 -2.2654  1.3025
   63MOL0     H 8495   6.797  11.710   7.007 -0.3651  1.2983 -1.3472
   63MOL0     H 8496   6.931  11.585   7.022  0.4460  0.3929  0.2426
   63MOL0     H 8497   6.942  11.809   6.862 -0.1146 -0.2603  0.4353
   63MOL0     H 8498   6.846  11.708   6.759  1.4383  2.4227  0.2918
   63MOL0     H 8499   7.058  11.676   6.679 -2.5545 -0.0427 -0.2287
   63MOL0     H 8500   7.025  11.527   6.764  2.0192  0.2174  1.1245
   63MOL0     H 8501   7.225  11.564   6.858  1.8432  1.0757  0.3876
   63MOL0     H 8502   7.144  11.688   6.967  0.8026 -1.6291  0.7131
   63MOL0     H 8503   7.359  11.946   6.720 -2.3253  0.7690 -1.6101
   63MOL0     H 8504   6.602  11.734   6.863 -1.6457  1.4634  0.5039
   63MOL0     H 8505   6.376  11.739   6.976 -2.1179  0.3770  3.5679
   64MOL0     O 8506   4.592   9.265   8.622 -0.4505  0.8315  0.3230
   64MOL0     C 8507   4.524   9.347   8.560 -1.2251 -0.0156  0.3285
   64MOL0     O 8508   4.390   9.363   8.563 -0.4055 -0.7790 -0.0010
   64MOL0     C 8509   4.329   9.280   8.652 -0.3149 -0.7292 -0.7050
   64MOL0     C 8510   4.355   9.283   8.793 -0.7287 -0.4253  0.1323
   64MOL0     C 8511   4.287   9.196   8.874  1.0729  0.2363  0.4241
   64MOL0     C 8512   4.195   9.101   8.822  0.1063  0.4546 -0.1552
   64MOL0     O 8513   4.150   9.016   8.924 -0.3476 -0.3130  0.3028
   64MOL0     C 8514   4.042   8.919   8.893 -0.4562  0.2216 -0.0890
   64MOL0     C 8515   4.008   8.831   9.011 -0.5186 -0.4898  0.3175
   64MOL0     C 8516   3.861   8.799   9.011 -0.1439  0.0539  0.3807
   64MOL0     C 8517   3.814   8.681   9.095 -0.1793  0.8501 -0.5713
   64MOL0     C 8518   3.657   8.661   9.091  0.6273  0.2591  0.2487
   64MOL0     C 8519   3.597   8.597   9.222 -0.2428  0.0055  0.3650
   64MOL0     C 8520   3.442   8.590   9.224  0.0832 -0.5334 -0.3456
   64MOL0     C 8521   3.395   8.542   9.360  1.0525 -0.6708 -0.0051
   64MOL0     N 8522   3.415   8.635   9.472 -0.4465  0.1879  0.1982
   64MOL0     C 8523   3.527   8.657   9.552 -0.1248  0.3161  0.1392
   64MOL0     C 8524   3.494   8.765   9.633 -0.6422  1.0261 -0.2384
   64MOL0     C 8525   3.582   8.808   9.741  0.0577 -0.1025  0.0874
   64MOL0     C 8526   3.717   8.842   9.689  0.1219  0.9547 -0.1636
   64MOL0     C 8527   3.726   8.934   9.569  0.7495  0.2522  0.0171
   64MOL0     C 8528   3.873   8.977   9.553 -0.0605 -0.3850 -0.8129
   64MOL0     O 8529   3.899   9.013   9.417 -0.2371  0.7063  0.4247
   64MOL0     C 8530   3.981   9.121   9.383 -0.8388  0.0658  0.2222
   64MOL0     C 8531   4.072   9.179   9.468  0.0231  0.0649  0.5845
   64MOL0     C 8532   4.169   9.278   9.423 -0.1385 -0.7013  0.1953
   64MOL0     C 8533   4.279   9.325   9.514 -0.9639  0.0922  0.2916
   64MOL0     C 8534   4.158   9.327   9.286 -0.3981 -0.4797 -0.0436
   64MOL0     C 8535   4.262   9.409   9.214  0.0934  0.2679  0.1976
   64MOL0     O 8536   4.226   9.527   9.168 -0.6243  0.0717 -0.4598
   64MOL0     C 8537   4.312   9.586   9.081 -0.2130  1.5258  0.5980
   64MOL0     C 8538   4.295   9.556   8.946  0.7297 -0.1486  1.1541
   64MOL0     C 8539   4.372   9.630   8.851  0.3343  0.4155 -0.0241
   64MOL0     C 8540   4.473   9.720   8.893  0.1260  0.4646  0.1739
   64MOL0     O 8541   4.538   9.788   8.802 -0.1001  0.1672 -0.8346
   64MOL0     C 8542   4.548   9.932   8.811 -0.6733 -0.0926  0.3779
   64MOL0     C 8543   4.610   9.988   8.684  0.2232  0.4746  0.5539
   64MOL0     C 8544   4.569   9.928   8.554 -0.0184  0.5498 -0.4465
   64MOL0     C 8545   4.612  10.017   8.443 -0.2436 -0.6026 -0.1200
   64MOL0     C 8546   4.587   9.959   8.299  0.7289 -0.7835 -1.2544
   64MOL0     C 8547   4.591  10.074   8.192 -0.1905 -0.0307  0.2092
   64MOL0     C 8548   4.591  10.019   8.049 -0.0619  0.0212  0.2834
   64MOL0     C 8549   4.663  10.122   7.959  1.0183  0.5809  0.1778
   64MOL0    Cl 8550   4.834  10.076   7.975 -0.0446 -0.4102 -0.1334
   64MOL0     C 8551   4.496   9.730   9.029  0.8591  0.1744 -0.1982
   64MOL0     C 8552   4.408   9.675   9.129  0.4252 -0.2287 -0.9286
   64MOL0     O 8553   4.375   9.357   9.222 -0.1600 -0.7557 -0.1786
   64MOL0     C 8554   4.060   9.272   9.206 -0.2449 -0.8454 -0.4973
   64MOL0     C 8555   3.974   9.172   9.251 -0.2944  0.5324 -0.4221
   64MOL0     N 8556   3.365   8.796   9.606  0.0447  0.0327  0.3076
   64MOL0     N 8557   3.318   8.732   9.503  0.5823 -0.1182  0.6649
   64MOL0     C 8558   4.158   9.107   8.688  0.2871  0.2470 -0.0892
   64MOL0     C 8559   4.223   9.200   8.611 -0.4101 -0.2913  0.3770
   64MOL0     C 8560   4.598   9.437   8.476 -0.0578  0.4378 -0.2574
   64MOL0     C 8561   4.526   9.518   8.378 -0.0458 -0.2276  0.0703
   64MOL0     C 8562   4.601   9.596   8.281 -0.3488  0.4068 -1.2064
   64MOL0     C 8563   4.740   9.589   8.275  0.0245 -1.2717  0.0658
   64MOL0     O 8564   4.802   9.655   8.172  1.2031 -0.3807 -0.1175
   64MOL0     C 8565   4.943   9.663   8.161  1.0922  0.2775  0.4919
   64MOL0     C 8566   4.987   9.764   8.054 -0.2665  0.2966 -0.1846
   64MOL0     C 8567   5.141   9.762   8.037 -0.0248 -0.3478  0.1603
   64MOL0     C 8568   5.186   9.663   7.934 -0.1222  1.1288 -0.3861
   64MOL0     C 8569   5.163   9.717   7.798  0.1803  0.3964 -0.5676
   64MOL0     C 8570   5.121   9.757   7.692  0.4413 -0.8757  0.1044
   64MOL0     C 8571   4.806   9.501   8.362 -1.0484  0.4563  0.0472
   64MOL0     C 8572   4.743   9.432   8.472  0.2042  0.1769  0.1332
   64MOL0     H 8573   4.427   9.349   8.840 -1.5174  1.5670 -1.2997
   64MOL0     H 8574   4.314   9.211   8.978  0.6837 -1.2597  0.7556
   64MOL0     H 8575   3.957   8.983   8.867  1.4217  2.8137 -0.2895
   64MOL0     H 8576   4.061   8.858   8.804  1.7636  1.4955 -0.5576
   64MOL0     H 8577   4.073   8.744   9.026 -0.2315 -1.2377 -4.0078
   64MOL0     H 8578   4.021   8.891   9.102 -0.5642  2.2400 -1.3706
   64MOL0     H 8579   3.808   8.892   9.032 -0.4420  0.6576 -2.5310
   64MOL0     H 8580   3.823   8.768   8.913 -3.8683 -2.2992  2.3547
   64MOL0     H 8581   3.865   8.596   9.049  0.4760  1.5564 -1.1767
   64MOL0     H 8582   3.857   8.678   9.196 -0.0628 -2.5835 -0.6290
   64MOL0     H 8583   3.614   8.761   9.082  2.2765  0.8705 -1.7029
   64MOL0     H 8584   3.623   8.613   8.999  0.5527  0.5898  0.1022
   64MOL0     H 8585   3.650   8.502   9.226  2.3535  1.3668  0.9919
   64MOL0     H 8586   3.623   8.653   9.313  0.0594 -0.3105  0.4744
   64MOL0     H 8587   3.405   8.689   9.197 -0.8065 -0.5436  0.8048
   64MOL0     H 8588   3.409   8.524   9.143  1.2333 -3.4834  1.4197
   64MOL0     H 8589   3.433   8.450   9.405  2.7671  0.3260  0.6925
   64MOL0     H 8590   3.287   8.529   9.357  0.9560 -0.0772  0.5556
   64MOL0     H 8591   3.609   8.590   9.575 -1.1448  0.2041  4.4030
   64MOL0     H 8592   3.537   8.892   9.796 -1.7209 -1.1326  0.2896
   64MOL0     H 8593   3.591   8.733   9.819  3.5511 -0.6040 -0.6340
   64MOL0     H 8594   3.773   8.750   9.674  1.2372  1.5738  0.0695
   64MOL0     H 8595   3.766   8.897   9.770  2.8405  1.5815 -2.0930
   64MOL0     H 8596   3.655   9.017   9.576 -2.3382 -2.0327 -1.5801
   64MOL0     H 8597   3.693   8.870   9.487  3.1508 -1.8966  0.6044
   64MOL0     H 8598   3.937   8.893   9.579  1.4471  1.4375  1.7845
   64MOL0     H 8599   3.883   9.057   9.627  2.0241  0.1752 -1.6337
   64MOL0     H 8600   4.081   9.132   9.566 -1.0148 -0.3360  0.5006
   64MOL0     H 8601   4.378   9.303   9.473 -1.4319  0.0078 -0.8503
   64MOL0     H 8602   4.268   9.433   9.526 -4.1930 -0.2462  1.2709
   64MOL0     H 8603   4.272   9.283   9.614  2.0296 -5.9402 -1.5338
   64MOL0     H 8604   4.229   9.475   8.918  1.6679 -1.0484  1.4973
   64MOL0     H 8605   4.351   9.618   8.745 -2.2039  3.5324 -0.0379
   64MOL0     H 8606   4.449   9.979   8.813 -0.4044  0.5267  2.7719
   64MOL0     H 8607   4.595   9.963   8.905 -0.7401  2.8160 -0.4370
   64MOL0     H 8608   4.600  10.096   8.675 -3.4650  0.3359  1.3415
   64MOL0     H 8609   4.716   9.966   8.693  0.1839 -1.0269 -1.9352
   64MOL0     H 8610   4.460   9.935   8.551 -0.2269 -2.1146 -1.2267
   64MOL0     H 8611   4.601   9.825   8.537  1.8500  1.5582 -3.8025
   64MOL0     H 8612   4.564  10.115   8.439  1.8783  0.4528 -1.0950
   64MOL0     H 8613   4.719  10.038   8.439 -0.6591  1.4030 -2.5521
   64MOL0     H 8614   4.486   9.919   8.291  0.3097 -0.6023  1.6705
   64MOL0     H 8615   4.650   9.873   8.274 -0.6476 -1.9174 -0.9209
   64MOL0     H 8616   4.501  10.131   8.215 -0.6916 -0.8416  0.3101
   64MOL0     H 8617   4.686  10.125   8.211 -0.8564  0.4174  2.7300
   64MOL0     H 8618   4.488  10.018   8.014 -0.8696  0.1075  2.5507
   64MOL0     H 8619   4.623   9.914   8.045  1.5889  0.3500  2.6564
   64MOL0     H 8620   4.644  10.224   7.992 -0.0041  0.0137  1.4365
   64MOL0     H 8621   4.632  10.113   7.855  0.8501  1.7057  0.1230
   64MOL0     H 8622   4.567   9.803   9.066  0.8816 -0.4009  0.9217
   64MOL0     H 8623   4.421   9.709   9.231  0.7962 -0.7389 -0.7953
   64MOL0     H 8624   4.035   9.313   9.109 -1.6564  0.4678  0.3834
   64MOL0     H 8625   3.892   9.128   9.194 -1.0758  2.2856 -0.7177
   64MOL0     H 8626   4.092   9.024   8.663 -0.3819 -0.1246  2.5484
   64MOL0     H 8627   4.201   9.204   8.504 -0.8091  0.4115  0.4784
   64MOL0     H 8628   4.417   9.521   8.374  0.0207  1.8132 -1.5811
   64MOL0     H 8629   4.544   9.661   8.215 -1.9630  1.5280  1.1421
   64MOL0     H 8630   4.992   9.697   8.253 -0.5191  2.5322  0.6126
   64MOL0     H 8631   4.972   9.558   8.154 -0.4161 -0.0742 -1.0739
   64MOL0     H 8632   4.949   9.862   8.085 -0.5424 -0.5816  2.4861
   64MOL0     H 8633   4.944   9.739   7.957 -2.0072 -2.5354  1.1545
   64MOL0     H 8634   5.201   9.745   8.127  0.8657 -1.6602 -0.6438
   64MOL0     H 8635   5.175   9.863   8.010  1.1759 -0.4028  1.3330
   64MOL0     H 8636   5.125   9.574   7.952  0.1291  0.7630 -1.2838
   64MOL0     H 8637   5.293   9.642   7.946 -0.6268 -0.7816  1.4678
   64MOL0     H 8638   5.062   9.788   7.608  0.7233  1.4163  0.6871
   64MOL0     H 8639   4.908   9.475   8.337 -2.1614 -2.8150 -1.6909
   64MOL0     H 8640   4.796   9.366   8.539 -0.9630 -0.5937  0.3196
   65MOL0     O 8641   7.069   8.229   3.691  0.1620  0.5711  0.2500
   65MOL0     C 8642   7.176   8.192   3.752 -0.4527 -0.1447 -0.8910
   65MOL0     O 8643   7.183   8.100   3.853 -0.2502  0.6927  0.9242
   65MOL0     C 8644   7.069   8.037   3.874  0.2048  0.9549 -0.4334
   65MOL0     C 8645   7.050   7.913   3.811  0.2389 -0.1553 -0.1560
   65MOL0     C 8646   6.930   7.845   3.837 -0.2408 -0.5355  0.3537
   65MOL0     C 8647   6.836   7.901   3.926 -0.1084 -0.3293 -0.8559
   65MOL0     O 8648   6.725   7.823   3.937  0.7439  0.1070  0.3840
   65MOL0     C 8649   6.615   7.876   4.026 -0.4038 -0.0484 -0.3768
   65MOL0     C 8650   6.531   7.750   4.065  0.1691 -0.1350 -0.5854
   65MOL0     C 8651   6.608   7.616   4.097 -1.6601 -0.2222 -0.4421
   65MOL0     C 8652   6.712   7.644   4.206 -0.0892  0.1120 -0.8576
   65MOL0     C 8653   6.822   7.536   4.225 -0.1684 -0.5719 -0.6610
   65MOL0     C 8654   6.928   7.544   4.108 -0.2599  0.4131 -0.5881
   65MOL0     C 8655   7.072   7.504   4.151  0.7825  0.1570 -0.0580
   65MOL0     C 8656   7.165   7.534   4.034  0.0102  1.1044  0.7035
   65MOL0     N 8657   7.152   7.457   3.914 -0.0120 -0.2699 -0.1396
   65MOL0     C 8658   7.244   7.358   3.872  0.0107 -0.9980  0.4487
   65MOL0     C 8659   7.185   7.313   3.757 -0.4951 -0.3928  0.2515
   65MOL0     C 8660   7.254   7.233   3.661 -0.5521  0.2815  0.3876
   65MOL0     C 8661   7.356   7.324   3.597 -0.1261 -0.5181  0.0956
   65MOL0     C 8662   7.440   7.239   3.503 -0.6415 -0.2947  0.4952
   65MOL0     C 8663   7.533   7.331   3.420 -1.2395  0.3303  0.6807
   65MOL0     O 8664   7.585   7.246   3.316  0.4635  0.5347 -0.4404
   65MOL0     C 8665   7.672   7.310   3.228  0.0479 -1.1231  0.1893
   65MOL0     C 8666   7.677   7.456   3.221  0.1620  0.1745  0.6154
   65MOL0     C 8667   7.737   7.520   3.114  0.1057 -0.0358 -0.2868
   65MOL0     C 8668   7.719   7.672   3.116 -0.3232  0.3599 -1.2362
   65MOL0     C 8669   7.794   7.438   3.008  0.2676  0.1397 -0.7005
   65MOL0     C 8670   7.850   7.502   2.882  0.9043  0.3235 -0.2880
   65MOL0     O 8671   7.841   7.413   2.776  0.2752 -0.2442 -1.0328
   65MOL0     C 8672   7.923   7.419   2.668 -0.3322 -0.3904 -0.4658
   65MOL0     C 8673   8.002   7.311   2.653 -0.1701 -0.1106  0.1443
   65MOL0     C 8674   8.104   7.322   2.560 -0.0835 -0.6451 -0.0537
   65MOL0     C 8675   8.113   7.433   2.466 -1.2658  0.9131 -0.2561
   65MOL0     O 8676   8.205   7.437   2.366 -0.4168  0.0391 -0.1723
   65MOL0     C 8677   8.343   7.399   2.382 -0.0576 -0.3341  0.2398
   65MOL0     C 8678   8.405   7.379   2.246  0.1735  0.0689 -0.2508
   65MOL0     C 8679   8.552   7.339   2.286  0.3672  0.2164 -0.4546
   65MOL0     C 8680   8.638   7.382   2.165 -0.5356 -0.4418 -0.3722
   65MOL0     C 8681   8.787   7.350   2.190 -0.8428 -1.1217  0.3006
   65MOL0     C 8682   8.874   7.368   2.061 -0.8136 -1.0629  0.5984
   65MOL0     C 8683   9.021   7.368   2.099  0.1791  0.3931 -0.1994
   65MOL0     C 8684   9.093   7.502   2.066 -0.2361 -0.8451 -0.2578
   65MOL0    Cl 8685   9.076   7.562   1.889  0.0573  0.2058  0.3257
   65MOL0     C 8686   8.021   7.530   2.476 -0.1974 -0.4626 -0.3317
   65MOL0     C 8687   7.928   7.527   2.574 -0.4908 -0.2271 -0.2833
   65MOL0     O 8688   7.888   7.617   2.875  0.6143 -0.2375  0.0453
   65MOL0     C 8689   7.795   7.302   3.022 -0.7541 -0.0721  0.3726
   65MOL0     C 8690   7.717   7.238   3.118 -0.3622 -0.5087 -0.4469
   65MOL0     N 8691   7.069   7.380   3.735  0.2233  0.2201  0.1550
   65MOL0     N 8692   7.049   7.471   3.823 -0.2457  0.5288  0.1870
   65MOL0     C 8693   6.859   8.023   3.985 -0.3766 -0.5838 -0.3652
   65MOL0     C 8694   6.974   8.094   3.954  0.1955  0.0271 -0.7108
   65MOL0     C 8695   7.296   8.263   3.706  0.5736 -0.0600 -0.0076
   65MOL0     C 8696   7.292   8.358   3.603 -0.1972 -0.0704 -0.0727
   65MOL0     C 8697   7.413   8.424   3.565  0.0674  0.3617  0.7767
   65MOL0     C 8698   7.537   8.386   3.617 -0.3888  0.1550  0.3770
   65MOL0     O 8699   7.659   8.429   3.572 -0.2872 -0.5610 -0.3667
   65MOL0     C 8700   7.667   8.493   3.439  0.2827  0.2214  0.5756
   65MOL0     C 8701   7.663   8.392   3.329 -0.8460 -0.1540  0.5344
   65MOL0     C 8702   7.685   8.452   3.183  0.1480 -0.8790  0.1474
   65MOL0     C 8703   7.820   8.522   3.164 -0.3042 -0.4822 -0.7584
   65MOL0     C 8704   7.933   8.434   3.202  0.4454 -0.7712 -0.3413
   65MOL0     C 8705   8.024   8.363   3.230  0.8868 -0.3368  0.4332
   65MOL0     C 8706   7.540   8.286   3.711  0.5158  0.3047 -0.9714
   65MOL0     C 8707   7.423   8.233   3.761 -0.8171 -0.4447  0.0829
   65MOL0     H 8708   7.129   7.869   3.750  2.3742  0.8667  1.7132
   65MOL0     H 8709   6.921   7.749   3.787  3.1946 -1.2624  0.9413
   65MOL0     H 8710   6.653   7.903   4.125  0.2107 -0.3792 -0.5149
   65MOL0     H 8711   6.556   7.961   3.989 -0.0692 -0.6528 -2.4687
   65MOL0     H 8712   6.460   7.785   4.141  0.3540  2.0149 -1.3434
   65MOL0     H 8713   6.472   7.718   3.979 -1.0558  1.3913 -0.3670
   65MOL0     H 8714   6.524   7.554   4.128 -1.5227  0.5150  1.6052
   65MOL0     H 8715   6.643   7.578   4.001 -1.9534  2.0292 -1.4963
   65MOL0     H 8716   6.772   7.735   4.193  2.9860 -1.4032  1.4472
   65MOL0     H 8717   6.671   7.654   4.307  2.0058 -0.4021  0.1027
   65MOL0     H 8718   6.879   7.568   4.312 -1.4408 -1.9413  0.7331
   65MOL0     H 8719   6.790   7.432   4.237  1.6600 -1.1664 -0.5740
   65MOL0     H 8720   6.898   7.468   4.035 -0.9424 -1.2129  1.2730
   65MOL0     H 8721   6.925   7.643   4.061  1.3405  1.9120  2.2150
   65MOL0     H 8722   7.107   7.567   4.233 -0.8423  3.1797 -1.5301
   65MOL0     H 8723   7.086   7.397   4.170 -1.8057  0.0173  1.5062
   65MOL0     H 8724   7.267   7.522   4.071 -0.3062 -0.7775  1.0694
   65MOL0     H 8725   7.151   7.637   4.001 -1.3659 -0.2107 -3.5039
   65MOL0     H 8726   7.345   7.340   3.908  0.6900  0.7818 -0.4288
   65MOL0     H 8727   7.299   7.146   3.709 -1.7183  0.8239  2.6099
   65MOL0     H 8728   7.186   7.199   3.582 -1.7629 -2.9604  2.6355
   65MOL0     H 8729   7.418   7.373   3.673 -1.5685  1.2616  0.1735
   65MOL0     H 8730   7.302   7.398   3.538  3.2237 -0.1600 -2.8898
   65MOL0     H 8731   7.378   7.172   3.443  0.5544 -0.3738 -0.7089
   65MOL0     H 8732   7.505   7.170   3.557  0.5364 -0.4640 -1.0448
   65MOL0     H 8733   7.616   7.359   3.486 -0.1175  0.0804 -0.5896
   65MOL0     H 8734   7.479   7.414   3.375  0.1389 -0.5241 -2.8528
   65MOL0     H 8735   7.627   7.524   3.289 -1.9328 -0.3251 -0.3331
   65MOL0     H 8736   7.813   7.725   3.103  0.8251 -1.5814 -1.2043
   65MOL0     H 8737   7.648   7.698   3.037 -4.4942  0.2322  2.0934
   65MOL0     H 8738   7.677   7.709   3.210 -0.8581 -0.7604 -1.0106
   65MOL0     H 8739   7.987   7.233   2.726  2.2277  0.3400  1.2202
   65MOL0     H 8740   8.182   7.247   2.552 -0.4127 -1.0111  0.1450
   65MOL0     H 8741   8.396   7.482   2.429  1.2916 -1.1131  0.1336
   65MOL0     H 8742   8.362   7.317   2.452  3.3599  0.8518  0.8621
   65MOL0     H 8743   8.357   7.300   2.187 -0.9895  0.9353 -0.4896
   65MOL0     H 8744   8.406   7.469   2.183 -1.2440  0.0406 -0.3459
   65MOL0     H 8745   8.540   7.231   2.300 -3.6234  0.6654  1.2065
   65MOL0     H 8746   8.592   7.380   2.379  1.9286  1.4662 -1.6313
   65MOL0     H 8747   8.607   7.336   2.072 -0.1569  1.0049 -1.2470
   65MOL0     H 8748   8.635   7.490   2.145 -2.0631 -0.7940 -2.2634
   65MOL0     H 8749   8.806   7.246   2.217  3.3290 -0.5428  0.3627
   65MOL0     H 8750   8.824   7.420   2.266  1.9984 -0.5167 -1.4821
   65MOL0     H 8751   8.835   7.301   1.983 -0.3991 -1.2304  0.5306
   65MOL0     H 8752   8.858   7.472   2.032  4.3682  0.4549  2.1268
   65MOL0     H 8753   9.070   7.289   2.041  0.7394  0.9519 -0.5020
   65MOL0     H 8754   9.036   7.362   2.207  0.6891 -0.9627 -0.3227
   65MOL0     H 8755   9.192   7.504   2.111 -0.8561  1.5952  1.2410
   65MOL0     H 8756   9.055   7.580   2.134 -0.6071 -2.3566  1.3313
   65MOL0     H 8757   8.031   7.615   2.409  2.6961 -0.3413  0.0906
   65MOL0     H 8758   7.862   7.614   2.571  0.9920  0.9230 -0.7046
   65MOL0     H 8759   7.840   7.235   2.949  0.0204  0.1793  0.6085
   65MOL0     H 8760   7.717   7.130   3.110  2.5414 -0.8437  2.2498
   65MOL0     H 8761   6.783   8.066   4.049 -0.2777  0.6963 -1.0630
   65MOL0     H 8762   6.986   8.198   3.983 -1.4256  0.4107 -1.3288
   65MOL0     H 8763   7.199   8.381   3.552 -0.2839  0.6370  0.3861
   65MOL0     H 8764   7.408   8.492   3.480  1.3166 -2.4052 -1.7229
   65MOL0     H 8765   7.590   8.570   3.427  0.3632  0.3058  0.6013
   65MOL0     H 8766   7.758   8.553   3.433  0.4729 -0.0874  0.3305
   65MOL0     H 8767   7.565   8.343   3.337 -2.1718  2.1562 -0.4057
   65MOL0     H 8768   7.746   8.322   3.342  0.5284  1.0059 -1.4571
   65MOL0     H 8769   7.609   8.525   3.156  2.2999  1.2018 -0.5758
   65MOL0     H 8770   7.679   8.368   3.113 -0.0329 -0.3076 -0.5198
   65MOL0     H 8771   7.819   8.617   3.218  0.8435  1.0092 -3.1717
   65MOL0     H 8772   7.830   8.550   3.058 -1.4862  1.6623 -0.3573
   65MOL0     H 8773   8.119   8.316   3.243  0.7892 -1.0602 -1.2437
   65MOL0     H 8774   7.641   8.256   3.740 -0.6614 -2.2650  0.8726
   65MOL0     H 8775   7.434   8.152   3.833 -0.5445 -1.3318 -0.9245
   66MOL0     O 8776   5.886   3.686   3.705 -0.3527 -0.7214  0.5246
   66MOL0     C 8777   5.854   3.755   3.795  0.6184 -0.1944  0.8858
   66MOL0     O 8778   5.941   3.846   3.848 -0.2009  0.5552 -0.3253
   66MOL0     C 8779   6.050   3.890   3.785  0.4131  0.8943  0.6900
   66MOL0     C 8780   6.171   3.910   3.858  0.1244 -0.3586  0.6181
   66MOL0     C 8781   6.280   3.982   3.804  0.1454  0.7455 -0.2761
   66MOL0     C 8782   6.268   4.027   3.674 -0.2098 -0.0061  0.2176
   66MOL0     O 8783   6.382   4.097   3.624  0.4509 -0.0523 -0.1685
   66MOL0     C 8784   6.372   4.179   3.512 -0.5622  0.9382 -0.6608
   66MOL0     C 8785   6.425   4.315   3.559  0.5880 -0.2678 -0.4420
   66MOL0     C 8786   6.576   4.335   3.550 -0.9476  0.1910 -0.0062
   66MOL0     C 8787   6.632   4.480   3.584  0.1157  0.6043  0.2170
   66MOL0     C 8788   6.608   4.518   3.732  0.8923 -0.3916  0.5617
   66MOL0     C 8789   6.654   4.658   3.781  0.0450  0.0049 -0.8297
   66MOL0     C 8790   6.612   4.689   3.933 -0.6367 -0.2864  0.1673
   66MOL0     C 8791   6.490   4.785   3.959 -0.2856  1.0984 -1.3985
   66MOL0     N 8792   6.482   4.903   3.867  1.3024 -0.1504 -0.6879
   66MOL0     C 8793   6.570   5.008   3.872  0.3806  0.1199 -0.4685
   66MOL0     C 8794   6.511   5.106   3.798 -0.6312  1.3986  0.0475
   66MOL0     C 8795   6.548   5.255   3.790 -0.4363  0.8833 -1.0390
   66MOL0     C 8796   6.511   5.313   3.923 -0.1171  0.2403 -0.3486
   66MOL0     C 8797   6.536   5.464   3.934  0.3219 -0.9775  0.7747
   66MOL0     C 8798   6.673   5.512   3.893 -0.2827  0.3458 -0.3843
   66MOL0     O 8799   6.765   5.469   3.990  0.0052 -1.0205  0.1095
   66MOL0     C 8800   6.901   5.488   3.976 -1.0837  0.0482  1.0054
   66MOL0     C 8801   6.987   5.384   4.001 -0.3591  0.6457  0.2670
   66MOL0     C 8802   7.126   5.401   3.986  0.8689  0.5268 -0.1438
   66MOL0     C 8803   7.211   5.287   4.017 -0.4813  1.0298  0.0442
   66MOL0     C 8804   7.182   5.527   3.943  0.4909  0.1266  0.3870
   66MOL0     C 8805   7.331   5.551   3.926 -1.2453  0.3206  0.5918
   66MOL0     O 8806   7.428   5.455   3.907 -0.1067 -0.0920  0.2148
   66MOL0     C 8807   7.557   5.493   3.941  0.1828  0.2867 -0.5921
   66MOL0     C 8808   7.653   5.503   3.843  0.0353 -0.4533  0.8417
   66MOL0     C 8809   7.780   5.533   3.885 -0.8178 -0.1977 -0.5567
   66MOL0     C 8810   7.819   5.560   4.019 -0.3190 -0.1319 -0.0098
   66MOL0     O 8811   7.948   5.577   4.058 -0.8491  0.0600  0.8308
   66MOL0     C 8812   7.978   5.640   4.183  0.0494 -0.0652 -0.0479
   66MOL0     C 8813   8.124   5.684   4.178 -0.1542  0.0638 -0.2021
   66MOL0     C 8814   8.145   5.823   4.115 -0.5684  0.3104  0.6721
   66MOL0     C 8815   8.288   5.851   4.116  0.0670  0.0567  0.2412
   66MOL0     C 8816   8.319   5.996   4.075 -0.2407  0.5003  0.6431
   66MOL0     C 8817   8.465   6.024   4.063 -1.2528  0.5136  0.3925
   66MOL0     C 8818   8.488   6.166   4.021  0.3400  0.3117 -0.5190
   66MOL0     C 8819   8.638   6.185   3.997 -0.0800 -0.3181 -0.1619
   66MOL0    Cl 8820   8.677   6.362   3.963 -0.4650 -0.1524  0.0323
   66MOL0     C 8821   7.725   5.544   4.123  0.5271 -0.5773  0.3329
   66MOL0     C 8822   7.592   5.511   4.079 -0.2512  0.4197  0.9794
   66MOL0     O 8823   7.362   5.672   3.926 -0.0100  0.0404  0.2981
   66MOL0     C 8824   7.081   5.624   3.915 -0.1879 -0.1787 -0.6330
   66MOL0     C 8825   6.943   5.609   3.928 -0.6649  0.4815  0.1135
   66MOL0     N 8826   6.381   5.061   3.760  0.5176  0.1114 -0.7226
   66MOL0     N 8827   6.366   4.940   3.795 -0.5242  0.7861 -0.0792
   66MOL0     C 8828   6.164   3.990   3.594  0.2417 -0.8001 -0.0450
   66MOL0     C 8829   6.059   3.928   3.649  0.7648  0.2225 -0.2332
   66MOL0     C 8830   5.715   3.740   3.832 -0.5344  0.4630 -0.3395
   66MOL0     C 8831   5.666   3.800   3.948  0.5606 -0.0567 -1.2998
   66MOL0     C 8832   5.536   3.789   4.000  0.1026  0.2017  0.9874
   66MOL0     C 8833   5.453   3.689   3.942  0.7828  0.6763  0.4478
   66MOL0     O 8834   5.325   3.655   3.987  0.3938 -0.2830 -0.8236
   66MOL0     C 8835   5.271   3.751   4.080 -0.3291 -0.3567  0.1450
   66MOL0     C 8836   5.121   3.718   4.097  1.3138  0.1394 -0.1615
   66MOL0     C 8837   5.032   3.738   3.978  0.1733 -0.5912 -0.5023
   66MOL0     C 8838   4.932   3.856   4.016 -1.0932 -0.1942  0.2219
   66MOL0     C 8839   4.827   3.881   3.915 -0.0275 -0.2934  0.9074
   66MOL0     C 8840   4.746   3.901   3.819 -0.5447 -0.5718 -0.2557
   66MOL0     C 8841   5.503   3.607   3.839  0.3020 -0.0071  0.7118
   66MOL0     C 8842   5.630   3.630   3.786  0.0552 -0.2722 -0.0421
   66MOL0     H 8843   6.170   3.891   3.965 -1.9186 -0.7232  0.5819
   66MOL0     H 8844   6.371   4.008   3.858  0.7084 -0.5550 -0.5624
   66MOL0     H 8845   6.419   4.138   3.422  1.0146  2.0337 -0.3784
   66MOL0     H 8846   6.267   4.196   3.486 -2.1316 -2.4379  2.5971
   66MOL0     H 8847   6.382   4.384   3.485 -1.4824 -2.7868 -1.7570
   66MOL0     H 8848   6.397   4.340   3.662  2.2855 -0.6360  0.1514
   66MOL0     H 8849   6.623   4.264   3.618 -1.2906 -1.6653 -1.6404
   66MOL0     H 8850   6.609   4.312   3.448 -0.4957 -2.2264  0.6245
   66MOL0     H 8851   6.740   4.474   3.564  0.0144 -2.5472  0.1099
   66MOL0     H 8852   6.584   4.547   3.513  2.0338  0.7267 -1.0508
   66MOL0     H 8853   6.507   4.499   3.770 -0.0214 -1.5185 -2.1849
   66MOL0     H 8854   6.669   4.451   3.794  1.3449 -0.2251  0.3073
   66MOL0     H 8855   6.762   4.670   3.771  0.1274  0.4626  0.3538
   66MOL0     H 8856   6.611   4.723   3.705 -2.4019  0.0694  0.5102
   66MOL0     H 8857   6.584   4.606   3.999  0.6224  0.5795  1.8861
   66MOL0     H 8858   6.703   4.735   3.973  0.1748  0.7489 -2.6071
   66MOL0     H 8859   6.483   4.812   4.064  1.8961 -1.4340 -0.4940
   66MOL0     H 8860   6.402   4.727   3.930  1.0220 -1.8398  0.1157
   66MOL0     H 8861   6.669   5.010   3.916 -0.5572 -2.0629  2.0243
   66MOL0     H 8862   6.655   5.271   3.772  0.3940 -0.7406  1.8664
   66MOL0     H 8863   6.484   5.306   3.718 -1.6115 -0.3332 -0.9006
   66MOL0     H 8864   6.571   5.262   3.999 -0.4733  0.1122 -0.1508
   66MOL0     H 8865   6.405   5.293   3.945 -0.7799  1.8401 -1.8821
   66MOL0     H 8866   6.522   5.491   4.039  1.6789 -0.3669  0.8176
   66MOL0     H 8867   6.460   5.519   3.877 -0.2807 -3.9342 -1.5188
   66MOL0     H 8868   6.675   5.621   3.886  2.4546  0.3495 -0.7661
   66MOL0     H 8869   6.702   5.485   3.791  0.6624  2.7537 -0.8175
   66MOL0     H 8870   6.945   5.288   4.027  1.7051 -1.0741 -2.3145
   66MOL0     H 8871   7.151   5.198   4.037 -0.9241  1.7229  2.0397
   66MOL0     H 8872   7.289   5.266   3.944  0.4970 -0.1687  1.3744
   66MOL0     H 8873   7.277   5.303   4.103  2.2718  0.7250 -1.8605
   66MOL0     H 8874   7.634   5.499   3.736  3.0971 -0.5900  0.2061
   66MOL0     H 8875   7.859   5.549   3.813  2.0890  1.0218  2.6370
   66MOL0     H 8876   7.916   5.729   4.199 -2.7916 -2.1206  1.2718
   66MOL0     H 8877   7.966   5.566   4.263  0.5379 -0.4626 -0.3296
   66MOL0     H 8878   8.167   5.678   4.278  0.9738 -0.0330 -0.6707
   66MOL0     H 8879   8.186   5.611   4.125 -0.0863  0.3329 -0.4967
   66MOL0     H 8880   8.104   5.894   4.187 -2.2519  1.0286 -0.9451
   66MOL0     H 8881   8.098   5.839   4.018 -0.2395 -1.0709  0.2572
   66MOL0     H 8882   8.332   5.848   4.216  2.6092  3.5737 -0.5866
   66MOL0     H 8883   8.343   5.778   4.055  2.8556  2.2953 -0.1590
   66MOL0     H 8884   8.278   6.063   4.151 -1.0290  1.5014 -0.6080
   66MOL0     H 8885   8.275   6.020   3.977 -0.4168  0.1007  0.6225
   66MOL0     H 8886   8.521   5.995   4.152  2.6778 -0.2254 -2.0745
   66MOL0     H 8887   8.506   5.967   3.979  0.5973  2.0174  0.2217
   66MOL0     H 8888   8.449   6.231   4.100 -0.3489 -0.3263 -0.3209
   66MOL0     H 8889   8.429   6.181   3.930 -0.8153 -1.2935 -0.0806
   66MOL0     H 8890   8.660   6.123   3.910 -2.4708  0.8327 -1.7187
   66MOL0     H 8891   8.701   6.150   4.079  0.8613 -0.1518 -0.7947
   66MOL0     H 8892   7.745   5.566   4.227 -0.8962  0.1699  0.4636
   66MOL0     H 8893   7.514   5.492   4.151 -0.7077  1.6176  0.8135
   66MOL0     H 8894   7.117   5.725   3.894  0.3686 -0.1664  0.3402
   66MOL0     H 8895   6.877   5.693   3.909  1.2731  2.0362 -0.0585
   66MOL0     H 8896   6.162   4.006   3.487 -2.4005 -1.4401 -0.1717
   66MOL0     H 8897   5.980   3.908   3.578  1.7822 -2.7310 -0.6793
   66MOL0     H 8898   5.728   3.879   3.990  0.8909 -1.6043  1.3752
   66MOL0     H 8899   5.495   3.852   4.078 -2.2730 -0.5444  0.4137
   66MOL0     H 8900   5.308   3.741   4.182 -3.1833  3.7284  1.8230
   66MOL0     H 8901   5.282   3.850   4.037  0.0589 -0.8575 -0.9535
   66MOL0     H 8902   5.092   3.793   4.171  0.6138 -0.5896  0.3142
   66MOL0     H 8903   5.116   3.613   4.127  0.4426 -0.1461 -1.2310
   66MOL0     H 8904   4.977   3.645   3.964 -0.6210  0.2840 -4.3100
   66MOL0     H 8905   5.077   3.768   3.883 -0.7274  0.6156 -0.5828
   66MOL0     H 8906   4.983   3.952   4.019 -0.1349 -0.4779 -3.1346
   66MOL0     H 8907   4.887   3.831   4.112 -0.4376 -0.9793  0.3442
   66MOL0     H 8908   4.660   3.924   3.759 -0.2559  0.6640 -0.2209
   66MOL0     H 8909   5.440   3.525   3.804 -0.8710  1.1772 -0.0645
   66MOL0     H 8910   5.666   3.555   3.716  0.2180 -2.5925  2.3833
   67MOL0     O 8911   3.139   4.632   7.501 -0.4065 -1.0883  0.2358
   67MOL0     C 8912   3.162   4.660   7.621 -0.0165  0.0571 -0.5090
   67MOL0     O 8913   3.282   4.673   7.687 -0.0178 -0.2749 -1.1471
   67MOL0     C 8914   3.400   4.670   7.624  0.1979  0.1256 -1.0448
   67MOL0     C 8915   3.430   4.618   7.500 -0.4074  1.5035 -0.1833
   67MOL0     C 8916   3.555   4.616   7.446 -0.9581  0.6508  0.0659
   67MOL0     C 8917   3.660   4.658   7.524 -0.4611  0.4184 -0.0391
   67MOL0     O 8918   3.795   4.636   7.482  0.5236 -0.0600 -0.3142
   67MOL0     C 8919   3.815   4.529   7.388 -0.0896  0.1015 -0.0627
   67MOL0     C 8920   3.948   4.458   7.414 -0.2503  0.7257 -0.3292
   67MOL0     C 8921   3.948   4.380   7.549  0.2553  0.7241 -0.6303
   67MOL0     C 8922   3.871   4.255   7.560  0.3820  0.5192  0.1252
   67MOL0     C 8923   3.921   4.161   7.660 -0.3194  0.5879  1.1436
   67MOL0     C 8924   3.832   4.037   7.664  0.3766 -0.1705 -0.5949
   67MOL0     C 8925   3.912   3.923   7.735 -0.7058 -0.3411 -0.1768
   67MOL0     C 8926   3.810   3.816   7.768  0.3925  0.6454 -1.0658
   67MOL0     N 8927   3.844   3.722   7.877  0.1598  0.5344  0.7529
   67MOL0     C 8928   3.943   3.623   7.872  0.5481  1.2454  0.1090
   67MOL0     C 8929   3.935   3.562   7.992 -1.0702 -0.9064 -0.3237
   67MOL0     C 8930   4.032   3.448   8.037  0.1064  0.3380  1.3190
   67MOL0     C 8931   3.983   3.310   7.988 -0.2810 -0.2235 -0.5711
   67MOL0     C 8932   4.100   3.211   7.994 -0.5575  0.0323  0.9014
   67MOL0     C 8933   4.102   3.140   8.135  0.3644  0.1932  1.0231
   67MOL0     O 8934   4.141   3.244   8.227 -0.1395  0.5293  0.4537
   67MOL0     C 8935   4.258   3.258   8.300  0.0001 -1.1335 -0.5970
   67MOL0     C 8936   4.262   3.358   8.397  0.0738  0.2978 -0.6921
   67MOL0     C 8937   4.372   3.379   8.487  0.4060  0.1573 -0.2061
   67MOL0     C 8938   4.360   3.496   8.582 -0.0674 -0.4741  0.2530
   67MOL0     C 8939   4.486   3.306   8.458  0.6984  0.4877  0.2596
   67MOL0     C 8940   4.611   3.323   8.536 -0.1155 -0.6849  0.2507
   67MOL0     O 8941   4.726   3.277   8.473 -0.8261  0.2276 -0.1355
   67MOL0     C 8942   4.851   3.307   8.521  0.4782 -0.0893  0.3057
   67MOL0     C 8943   4.958   3.244   8.461 -0.7102 -0.3051  0.0311
   67MOL0     C 8944   5.089   3.282   8.491 -0.3703 -0.7598 -0.5649
   67MOL0     C 8945   5.113   3.389   8.588  0.1428  0.7102  1.0642
   67MOL0     O 8946   5.237   3.424   8.617 -0.6221 -0.1530 -0.8814
   67MOL0     C 8947   5.252   3.541   8.696  1.0450 -1.0901 -0.4619
   67MOL0     C 8948   5.388   3.575   8.723 -0.6315 -0.1579  0.1944
   67MOL0     C 8949   5.468   3.474   8.813 -0.4980  0.0052 -0.3597
   67MOL0     C 8950   5.516   3.344   8.747 -0.5350  0.3746  0.0742
   67MOL0     C 8951   5.569   3.249   8.850 -0.3553  0.5467  0.2716
   67MOL0     C 8952   5.549   3.103   8.816  0.5891  0.9275 -0.1570
   67MOL0     C 8953   5.605   3.015   8.931 -0.3181  0.2665 -0.1003
   67MOL0     C 8954   5.563   2.870   8.906 -0.1311 -0.6718 -0.1468
   67MOL0    Cl 8955   5.602   2.797   8.745 -0.4204 -0.0611 -0.0937
   67MOL0     C 8956   5.003   3.459   8.635 -0.3068  0.7892 -0.1951
   67MOL0     C 8957   4.874   3.415   8.604 -0.0453 -0.0673 -0.1122
   67MOL0     O 8958   4.598   3.356   8.651 -0.2494  0.2516  0.0039
   67MOL0     C 8959   4.487   3.206   8.350  0.3453 -1.0883 -0.1022
   67MOL0     C 8960   4.372   3.183   8.273 -0.2321  0.3787 -0.0112
   67MOL0     N 8961   3.823   3.613   8.060  0.2094  0.1931  0.5249
   67MOL0     N 8962   3.774   3.707   7.991  0.1626 -0.7826  0.2232
   67MOL0     C 8963   3.634   4.719   7.648 -0.1231 -0.4331  0.6203
   67MOL0     C 8964   3.505   4.719   7.705 -0.0718 -0.0927  0.6491
   67MOL0     C 8965   3.039   4.695   7.696 -0.3838  0.2232 -0.3029
   67MOL0     C 8966   3.022   4.664   7.829  0.2049  0.8349  0.3993
   67MOL0     C 8967   2.899   4.701   7.895  0.2842 -0.2449 -0.7551
   67MOL0     C 8968   2.795   4.771   7.827  0.1715 -0.2619  1.0081
   67MOL0     O 8969   2.685   4.828   7.885  0.4966 -1.2723 -0.0355
   67MOL0     C 8970   2.658   4.812   8.020  0.7784  0.0576 -0.2555
   67MOL0     C 8971   2.728   4.921   8.095  0.6136  0.1520 -1.1437
   67MOL0     C 8972   2.741   4.913   8.249 -0.2752 -0.9470  0.2843
   67MOL0     C 8973   2.833   5.025   8.299 -0.0366 -0.8127  0.2253
   67MOL0     C 8974   2.799   5.165   8.258  0.3183  0.1430  0.2120
   67MOL0     C 8975   2.771   5.274   8.227 -0.2009 -0.4932  0.0906
   67MOL0     C 8976   2.815   4.787   7.689 -0.3915 -0.8881  1.1435
   67MOL0     C 8977   2.935   4.750   7.628  0.0780 -0.7761 -0.2477
   67MOL0     H 8978   3.357   4.576   7.431 -1.2113  1.3376  0.7404
   67MOL0     H 8979   3.574   4.548   7.363  3.5016 -1.8825  2.7332
   67MOL0     H 8980   3.740   4.449   7.382 -0.4270  0.4107  0.0370
   67MOL0     H 8981   3.801   4.589   7.297 -3.1962  0.2501  0.3938
   67MOL0     H 8982   3.986   4.401   7.330  0.3579 -1.8025  1.5465
   67MOL0     H 8983   4.013   4.546   7.424 -0.3536  0.6341  1.6742
   67MOL0     H 8984   4.052   4.353   7.570  0.5094  0.5126 -2.0245
   67MOL0     H 8985   3.914   4.450   7.625 -1.6381  0.9808 -1.6441
   67MOL0     H 8986   3.764   4.277   7.571 -0.4796 -1.2034 -3.2860
   67MOL0     H 8987   3.873   4.208   7.460  0.3185 -0.0349  0.3792
   67MOL0     H 8988   4.020   4.132   7.622 -0.1818 -1.0693  2.6334
   67MOL0     H 8989   3.946   4.214   7.752 -1.3162  0.7010  1.3569
   67MOL0     H 8990   3.746   4.065   7.726  0.4381  2.8032 -1.6854
   67MOL0     H 8991   3.780   4.014   7.570 -0.4513 -1.5766  0.1821
   67MOL0     H 8992   3.984   3.886   7.662 -2.0133  0.9772 -2.2243
   67MOL0     H 8993   3.958   3.969   7.823 -0.0451  1.5609 -1.4700
   67MOL0     H 8994   3.790   3.765   7.673  3.2243  2.0431 -2.5272
   67MOL0     H 8995   3.716   3.860   7.804  0.1566 -0.9439  0.3933
   67MOL0     H 8996   4.008   3.595   7.790 -1.8324  0.1047 -1.5179
   67MOL0     H 8997   4.135   3.469   8.006  0.0665 -0.5177  0.5536
   67MOL0     H 8998   4.049   3.440   8.145  4.0244  1.7124  0.9732
   67MOL0     H 8999   3.955   3.308   7.882  0.7845 -1.2476 -0.8444
   67MOL0     H 9000   3.895   3.277   8.043  0.3678 -0.8575  0.1059
   67MOL0     H 9001   4.198   3.255   7.974  2.0521 -4.5259  2.2317
   67MOL0     H 9002   4.077   3.133   7.921 -0.3777  0.3128  0.5387
   67MOL0     H 9003   4.164   3.052   8.152  0.9242  0.4050  0.1199
   67MOL0     H 9004   4.002   3.100   8.156 -0.3156 -0.1182 -2.2701
   67MOL0     H 9005   4.180   3.429   8.398 -0.8697 -0.5620  3.6807
   67MOL0     H 9006   4.271   3.557   8.567 -1.3430 -2.6129 -1.5975
   67MOL0     H 9007   4.353   3.463   8.686  0.0098  0.4135  0.5483
   67MOL0     H 9008   4.451   3.556   8.567 -1.3320  1.4809  0.1102
   67MOL0     H 9009   4.940   3.165   8.389 -0.0036 -1.3229  0.9360
   67MOL0     H 9010   5.163   3.219   8.443  0.7492 -0.7037  1.0006
   67MOL0     H 9011   5.211   3.629   8.646  1.1316 -1.7538 -1.7425
   67MOL0     H 9012   5.204   3.524   8.792 -1.2503 -1.3284 -1.5859
   67MOL0     H 9013   5.441   3.594   8.629 -1.3812 -0.2029 -0.2468
   67MOL0     H 9014   5.392   3.672   8.773  3.0345  0.5012 -1.0852
   67MOL0     H 9015   5.393   3.444   8.886  1.0976 -0.4763  1.1437
   67MOL0     H 9016   5.550   3.522   8.867  0.3013 -2.7074  0.9894
   67MOL0     H 9017   5.433   3.304   8.686 -1.3763  2.0141  0.0644
   67MOL0     H 9018   5.595   3.372   8.677 -0.7946  0.8947 -0.0196
   67MOL0     H 9019   5.512   3.267   8.942 -3.1623 -1.4571 -0.9516
   67MOL0     H 9020   5.677   3.266   8.852 -0.2208 -0.2598  0.3298
   67MOL0     H 9021   5.446   3.070   8.803  1.5618 -2.2284 -0.6420
   67MOL0     H 9022   5.604   3.078   8.725 -0.7622  3.3872 -1.7479
   67MOL0     H 9023   5.558   3.045   9.025 -0.6205 -0.4176 -0.0280
   67MOL0     H 9024   5.714   3.011   8.938 -0.0909 -0.1432 -2.8604
   67MOL0     H 9025   5.457   2.871   8.936  0.3090 -2.7402  1.7178
   67MOL0     H 9026   5.617   2.821   8.988  0.3016  0.8570  0.5148
   67MOL0     H 9027   5.010   3.559   8.679 -0.1101  0.5804  0.2618
   67MOL0     H 9028   4.791   3.468   8.651 -1.4971 -2.7046  0.5004
   67MOL0     H 9029   4.576   3.148   8.327  0.7476  0.1107 -1.7841
   67MOL0     H 9030   4.363   3.121   8.185 -0.7353  2.0904 -1.2268
   67MOL0     H 9031   3.712   4.763   7.708  2.7309 -0.5031 -2.7173
   67MOL0     H 9032   3.475   4.738   7.808  0.2633 -1.3217  0.9885
   67MOL0     H 9033   3.098   4.617   7.889 -0.4392 -2.3006 -1.0643
   67MOL0     H 9034   2.898   4.680   8.001 -0.2177  0.1847 -0.6692
   67MOL0     H 9035   2.554   4.821   8.054  1.7313  5.2157  2.3224
   67MOL0     H 9036   2.689   4.712   8.051 -0.3212  0.1553  1.3169
   67MOL0     H 9037   2.677   5.014   8.069  0.4151 -0.3613 -2.7113
   67MOL0     H 9038   2.827   4.941   8.053 -0.0352 -1.3290 -3.6246
   67MOL0     H 9039   2.788   4.815   8.258  1.1474 -0.6393 -2.4273
   67MOL0     H 9040   2.645   4.918   8.300 -1.0757 -1.5433 -1.1113
   67MOL0     H 9041   2.932   5.010   8.254  0.3382  1.3913  0.1959
   67MOL0     H 9042   2.855   5.026   8.406  0.7898  1.2873  0.0944
   67MOL0     H 9043   2.747   5.370   8.186  2.7266  0.4314  0.2688
   67MOL0     H 9044   2.741   4.836   7.627  1.2514 -1.1943 -1.1821
   67MOL0     H 9045   2.955   4.771   7.523  2.4168 -0.0987  0.2773
   68MOL0     O 9046   6.830   1.195   2.241  0.2259  0.4385 -0.2941
   68MOL0     C 9047   6.841   1.258   2.349 -0.1861 -0.8674 -0.1021
   68MOL0     O 9048   6.950   1.297   2.417 -0.1905  0.4418 -1.0440
   68MOL0     C 9049   7.071   1.276   2.370  0.2022 -0.8877 -0.2024
   68MOL0     C 9050   7.156   1.391   2.355  1.0744  1.5163 -0.0612
   68MOL0     C 9051   7.289   1.380   2.316  0.3650  0.3438  0.5969
   68MOL0     C 9052   7.332   1.262   2.255  0.1513 -0.0834 -0.2024
   68MOL0     O 9053   7.449   1.269   2.183  0.2776 -0.8391  0.0680
   68MOL0     C 9054   7.508   1.149   2.147  0.1684 -0.4135 -0.8805
   68MOL0     C 9055   7.647   1.183   2.101 -0.0067  0.2261 -0.0240
   68MOL0     C 9056   7.747   1.067   2.107  0.0130  0.3495  0.0116
   68MOL0     C 9057   7.889   1.117   2.084  0.3959 -0.6554  1.0132
   68MOL0     C 9058   7.991   1.002   2.090  0.9671 -0.2154  0.5435
   68MOL0     C 9059   8.080   0.995   1.959  0.7080  0.2093  0.0447
   68MOL0     C 9060   8.158   0.860   1.964  0.2123  0.4799  0.0509
   68MOL0     C 9061   8.256   0.829   1.845  0.5601 -0.9613 -0.8563
   68MOL0     N 9062   8.323   0.699   1.868  0.5716  0.1118 -0.9509
   68MOL0     C 9063   8.282   0.572   1.824 -0.8996  0.0385  0.2201
   68MOL0     C 9064   8.393   0.488   1.833  1.1250  0.3006 -0.2087
   68MOL0     C 9065   8.415   0.356   1.758 -0.4237 -0.4906 -0.5947
   68MOL0     C 9066   8.324   0.324   1.642  0.0855 -0.4041  0.3473
   68MOL0     C 9067   8.350   0.184   1.587  0.1254  0.5768 -1.0657
   68MOL0     C 9068   8.268   0.076   1.652  0.0797 -1.0346  0.3229
   68MOL0     O 9069   8.238   0.098   1.788  0.2820 -0.9421 -0.3378
   68MOL0     C 9070   8.124   0.045   1.845 -0.4727 -1.4405 -0.7167
   68MOL0     C 9071   8.043   0.119   1.931 -0.6188 -0.0578  0.2228
   68MOL0     C 9072   7.936   0.056   1.996  0.8379  0.5491 -0.5113
   68MOL0     C 9073   7.865   0.138   2.095  0.6759 -0.2744 -0.4809
   68MOL0     C 9074   7.901  -0.086   1.970 -0.2076 -0.2538  0.2114
   68MOL0     C 9075   7.797  -0.170   2.031  0.8251 -0.6220 -0.2278
   68MOL0     O 9076   7.693  -0.108   2.087 -0.4353 -0.6047  0.0166
   68MOL0     C 9077   7.593  -0.177   2.162 -0.8147  0.5550  0.0327
   68MOL0     C 9078   7.558  -0.303   2.136 -0.1042 -0.4370 -0.6452
   68MOL0     C 9079   7.461  -0.370   2.214 -0.5843  0.0683  0.4531
   68MOL0     C 9080   7.397  -0.299   2.320 -0.1864  0.4681 -0.6264
   68MOL0     O 9081   7.311  -0.357   2.410 -0.3431  0.6126 -0.1970
   68MOL0     C 9082   7.271  -0.494   2.401  0.7609 -0.3394  0.5491
   68MOL0     C 9083   7.116  -0.521   2.396 -0.0298  0.8019 -0.1968
   68MOL0     C 9084   7.046  -0.449   2.508  0.0645  0.3080 -0.4428
   68MOL0     C 9085   6.891  -0.462   2.511  0.3058  0.6969 -0.1548
   68MOL0     C 9086   6.853  -0.392   2.643 -0.7316 -0.6219 -0.0919
   68MOL0     C 9087   6.711  -0.406   2.697 -0.8158  0.1465  0.4765
   68MOL0     C 9088   6.678  -0.544   2.740  0.5416 -0.1646  0.5809
   68MOL0     C 9089   6.538  -0.560   2.801 -1.0727  0.3445 -0.9243
   68MOL0    Cl 9090   6.421  -0.544   2.671  0.0883  0.0816 -0.0816
   68MOL0     C 9091   7.424  -0.165   2.336 -0.7343 -0.2329 -1.2271
   68MOL0     C 9092   7.523  -0.097   2.258  0.1961 -0.0739  0.5336
   68MOL0     O 9093   7.816  -0.287   2.042 -0.7827 -0.2466  1.1630
   68MOL0     C 9094   7.980  -0.151   1.872 -0.2986 -0.5993 -0.9827
   68MOL0     C 9095   8.090  -0.089   1.814 -0.4297 -0.6752 -0.1247
   68MOL0     N 9096   8.493   0.564   1.890 -0.2094  0.2055 -0.6407
   68MOL0     N 9097   8.449   0.686   1.901  0.4651  0.1064 -0.1782
   68MOL0     C 9098   7.243   1.152   2.259  0.6184  0.1936 -0.3602
   68MOL0     C 9099   7.115   1.163   2.309  0.5486  0.7304  0.4921
   68MOL0     C 9100   6.705   1.295   2.408 -0.4299  0.3089 -0.4685
   68MOL0     C 9101   6.707   1.335   2.547  0.5983  0.2215 -0.3118
   68MOL0     C 9102   6.590   1.361   2.614  0.8608 -0.5260 -0.1631
   68MOL0     C 9103   6.468   1.319   2.559  0.9770 -0.4896  0.2494
   68MOL0     O 9104   6.352   1.352   2.619  0.1001 -0.5256 -0.2663
   68MOL0     C 9105   6.252   1.423   2.551  0.9117  0.0265  0.3210
   68MOL0     C 9106   6.270   1.577   2.566  0.2064 -0.4249 -1.0181
   68MOL0     C 9107   6.167   1.656   2.486  0.1314  0.5093  0.0723
   68MOL0     C 9108   6.020   1.619   2.503 -0.4715 -0.0541  0.4530
   68MOL0     C 9109   5.971   1.620   2.641  0.9037 -1.0852 -0.4768
   68MOL0     C 9110   5.925   1.604   2.754  0.4061  0.2603  0.8854
   68MOL0     C 9111   6.464   1.262   2.426  0.5238 -0.3424 -0.1771
   68MOL0     C 9112   6.578   1.260   2.354 -1.0341 -0.0162  0.0069
   68MOL0     H 9113   7.141   1.485   2.407  1.3133 -0.7561  4.6011
   68MOL0     H 9114   7.357   1.464   2.314  0.1206  0.5362  0.3823
   68MOL0     H 9115   7.511   1.072   2.225  0.6806 -2.4463 -2.7907
   68MOL0     H 9116   7.454   1.109   2.061 -1.0307  0.0256 -0.3681
   68MOL0     H 9117   7.642   1.227   2.001  1.3962 -1.8991 -1.1241
   68MOL0     H 9118   7.695   1.252   2.172 -0.1227 -1.3086  1.6188
   68MOL0     H 9119   7.742   1.003   2.195 -0.2077 -0.4624 -0.5704
   68MOL0     H 9120   7.709   0.996   2.033 -0.7605 -0.8552  1.5135
   68MOL0     H 9121   7.892   1.170   1.989  1.4966 -1.8398  0.3562
   68MOL0     H 9122   7.917   1.197   2.153  1.9213 -0.4602  0.1977
   68MOL0     H 9123   8.042   1.008   2.186  0.7251 -1.1620  0.7415
   68MOL0     H 9124   7.940   0.905   2.085 -3.4916  1.9172 -0.7096
   68MOL0     H 9125   8.023   1.002   1.866 -1.8127 -1.8521  1.3110
   68MOL0     H 9126   8.150   1.079   1.959 -1.0954  1.8024  1.3422
   68MOL0     H 9127   8.214   0.850   2.057 -1.5986  1.9881  1.3821
   68MOL0     H 9128   8.079   0.785   1.968  0.0372  0.6065 -0.7780
   68MOL0     H 9129   8.338   0.902   1.849  4.2438 -4.5581 -3.0650
   68MOL0     H 9130   8.203   0.825   1.750  0.2103  1.8754 -0.8898
   68MOL0     H 9131   8.182   0.565   1.781 -0.2010  3.2163 -2.4326
   68MOL0     H 9132   8.511   0.355   1.706 -1.0709 -1.7614 -1.8221
   68MOL0     H 9133   8.423   0.274   1.830  0.3844  1.0465  1.1607
   68MOL0     H 9134   8.348   0.395   1.563 -1.8835  0.9886  0.9093
   68MOL0     H 9135   8.217   0.338   1.663  0.2099  0.1044  0.6749
   68MOL0     H 9136   8.455   0.161   1.609  0.1697 -0.0038 -1.8378
   68MOL0     H 9137   8.353   0.186   1.478  2.2921  0.0409 -1.0721
   68MOL0     H 9138   8.327  -0.014   1.634 -0.1275 -1.1065 -0.0024
   68MOL0     H 9139   8.170   0.071   1.604  0.4229 -1.8066 -0.3209
   68MOL0     H 9140   8.083   0.216   1.961 -0.0816 -0.4863  0.9377
   68MOL0     H 9141   7.904   0.117   2.194  0.5588  2.3111  0.1990
   68MOL0     H 9142   7.870   0.243   2.065 -0.5972 -0.3832 -1.1709
   68MOL0     H 9143   7.758   0.121   2.114  1.3727 -0.8189  3.9684
   68MOL0     H 9144   7.604  -0.342   2.046  1.0832 -0.4692 -0.0332
   68MOL0     H 9145   7.441  -0.472   2.185 -1.1350  0.8085 -2.0222
   68MOL0     H 9146   7.299  -0.539   2.305  0.8895  3.1370 -1.1993
   68MOL0     H 9147   7.320  -0.547   2.484  0.8211  0.3560  0.9628
   68MOL0     H 9148   7.078  -0.509   2.294 -2.2633 -0.6644  0.4016
   68MOL0     H 9149   7.091  -0.625   2.416 -1.3253  1.1312 -0.0317
   68MOL0     H 9150   7.071  -0.346   2.481  1.5762 -0.0973 -0.7209
   68MOL0     H 9151   7.084  -0.475   2.607 -0.5315 -0.1124 -0.3272
   68MOL0     H 9152   6.846  -0.408   2.427  2.1413  2.2424 -0.1982
   68MOL0     H 9153   6.864  -0.568   2.510 -5.0736  1.7442  1.4236
   68MOL0     H 9154   6.868  -0.289   2.610 -2.2517 -0.2547  0.2844
   68MOL0     H 9155   6.912  -0.423   2.730 -1.2217  0.9991  0.8757
   68MOL0     H 9156   6.702  -0.334   2.779  1.6022  0.0873  0.8561
   68MOL0     H 9157   6.640  -0.375   2.619  0.9575  1.3382 -0.7463
   68MOL0     H 9158   6.754  -0.577   2.811  1.4057  2.0346  0.7744
   68MOL0     H 9159   6.698  -0.614   2.659 -0.4599  0.3967 -0.1777
   68MOL0     H 9160   6.500  -0.483   2.868 -0.0121  2.6090 -2.7988
   68MOL0     H 9161   6.538  -0.659   2.848 -2.1207  0.3647 -0.8681
   68MOL0     H 9162   7.363  -0.112   2.409  2.5884  1.3165  0.6430
   68MOL0     H 9163   7.548   0.006   2.281  0.7986 -0.6765  2.9367
   68MOL0     H 9164   7.957  -0.252   1.839  0.2549 -1.5792  1.4480
   68MOL0     H 9165   8.154  -0.140   1.743 -0.4921 -2.5638  1.1019
   68MOL0     H 9166   7.268   1.059   2.209  0.6434 -1.4611  2.5739
   68MOL0     H 9167   7.048   1.077   2.302  1.8231 -0.2804  0.2470
   68MOL0     H 9168   6.799   1.350   2.602 -1.0842  3.3373  1.9298
   68MOL0     H 9169   6.580   1.379   2.721 -1.6934 -1.7442 -0.1176
   68MOL0     H 9170   6.256   1.412   2.442 -1.8810 -3.8194  0.4111
   68MOL0     H 9171   6.160   1.375   2.587  1.3812 -0.7074  0.5695
   68MOL0     H 9172   6.372   1.606   2.536  0.4503 -0.8333 -0.5923
   68MOL0     H 9173   6.260   1.594   2.673  0.8702 -0.4168 -0.9513
   68MOL0     H 9174   6.193   1.646   2.380 -1.1004 -0.7355 -0.1283
   68MOL0     H 9175   6.184   1.758   2.523  0.3347 -0.2217  2.1308
   68MOL0     H 9176   6.016   1.517   2.463  0.2693 -0.1911  0.7010
   68MOL0     H 9177   5.963   1.691   2.444  0.0841  0.3256  0.3721
   68MOL0     H 9178   5.871   1.579   2.843 -2.6343  3.0126  0.0062
   68MOL0     H 9179   6.369   1.243   2.378 -0.4699  2.0827  0.6754
   68MOL0     H 9180   6.566   1.236   2.248  1.2773  0.1849 -0.3524
   69MOL0     O 9181   2.491   2.940   5.693  0.8118 -0.0041  0.2436
   69MOL0     C 9182   2.394   2.940   5.617  0.2424  0.0384  0.2175
   69MOL0     O 9183   2.364   3.026   5.516  0.3131 -0.5825 -0.2269
   69MOL0     C 9184   2.443   3.138   5.508  0.0106  0.3134  0.3743
   69MOL0     C 9185   2.566   3.142   5.446  0.0295 -0.2183 -0.6918
   69MOL0     C 9186   2.637   3.265   5.415  0.3952  0.2968  0.4837
   69MOL0     C 9187   2.581   3.384   5.462 -0.3719  0.1160  0.2627
   69MOL0     O 9188   2.633   3.507   5.440 -0.1159  0.3391  0.4213
   69MOL0     C 9189   2.730   3.529   5.334  0.7643 -0.2049  0.0705
   69MOL0     C 9190   2.720   3.673   5.281  0.3763  0.6910  0.5064
   69MOL0     C 9191   2.832   3.713   5.188 -0.3528  0.7504  0.0290
   69MOL0     C 9192   2.933   3.795   5.261 -0.6483  0.1787 -0.0564
   69MOL0     C 9193   3.059   3.798   5.176 -0.5368  0.8259  0.2495
   69MOL0     C 9194   3.159   3.873   5.266 -1.2789 -0.3187 -0.5059
   69MOL0     C 9195   3.308   3.820   5.248  0.2393  0.5238 -0.1665
   69MOL0     C 9196   3.321   3.677   5.314  0.2653  0.5591 -1.0797
   69MOL0     N 9197   3.464   3.649   5.339  0.1898  0.5839 -0.0630
   69MOL0     C 9198   3.555   3.584   5.258  0.2868  0.1719  0.4318
   69MOL0     C 9199   3.674   3.572   5.330  1.1760 -0.0507  0.3496
   69MOL0     C 9200   3.803   3.509   5.281 -0.0578  0.2358 -0.2932
   69MOL0     C 9201   3.909   3.627   5.276  0.6171  0.5860  0.1605
   69MOL0     C 9202   4.013   3.598   5.163 -0.1141  0.0687 -0.3055
   69MOL0     C 9203   4.104   3.714   5.147 -0.0177  0.1528  0.2099
   69MOL0     O 9204   4.039   3.834   5.096  0.7543 -1.2944 -0.2076
   69MOL0     C 9205   4.106   3.956   5.108  0.6322 -0.5312 -0.6051
   69MOL0     C 9206   4.033   4.079   5.092 -0.2374  0.4021 -0.0993
   69MOL0     C 9207   4.100   4.197   5.081  0.1296  0.2588 -0.9651
   69MOL0     C 9208   4.021   4.320   5.049  0.2394 -0.2940  0.0885
   69MOL0     C 9209   4.232   4.211   5.124 -0.0141 -0.6298 -0.0525
   69MOL0     C 9210   4.312   4.330   5.118 -0.5705  0.1677  0.3065
   69MOL0     O 9211   4.429   4.323   5.186 -0.2921  0.3037  0.4550
   69MOL0     C 9212   4.537   4.390   5.137 -0.2326 -0.1804  0.0064
   69MOL0     C 9213   4.582   4.368   5.010  0.3524 -0.1738  0.6594
   69MOL0     C 9214   4.704   4.424   4.963  0.4877  0.4195  0.1155
   69MOL0     C 9215   4.782   4.498   5.055 -0.6948 -0.0484 -0.1628
   69MOL0     O 9216   4.919   4.540   5.034  0.7817  0.0222  0.3073
   69MOL0     C 9217   4.934   4.614   4.909 -0.1224  0.7907 -0.2377
   69MOL0     C 9218   4.977   4.757   4.949  0.6519  1.8652 -0.0375
   69MOL0     C 9219   5.107   4.778   5.017 -0.6874  0.2135  0.3357
   69MOL0     C 9220   5.129   4.918   5.082 -0.3642 -0.1205  0.2374
   69MOL0     C 9221   5.258   4.882   5.175 -0.0142  0.1163  0.0374
   69MOL0     C 9222   5.352   5.003   5.189  0.2219  0.9186 -0.3286
   69MOL0     C 9223   5.479   4.970   5.275 -0.9318 -0.4423  0.1437
   69MOL0     C 9224   5.559   5.094   5.304 -0.4664  0.2569 -0.1978
   69MOL0    Cl 9225   5.470   5.213   5.395 -0.3244 -0.0528  0.2930
   69MOL0     C 9226   4.733   4.527   5.178  0.2121  0.0171 -0.0988
   69MOL0     C 9227   4.607   4.484   5.219 -0.7924  0.4770 -0.0128
   69MOL0     O 9228   4.289   4.428   5.045 -0.1393 -0.1016 -0.3896
   69MOL0     C 9229   4.307   4.091   5.154  0.5442 -0.3752 -0.3382
   69MOL0     C 9230   4.242   3.967   5.134  1.0155 -0.0414 -0.7334
   69MOL0     N 9231   3.657   3.623   5.456 -0.0878 -0.7072  0.0482
   69MOL0     N 9232   3.528   3.656   5.465  0.2527 -0.0545  0.5055
   69MOL0     C 9233   2.464   3.384   5.538  0.2535 -0.7572  0.7843
   69MOL0     C 9234   2.395   3.265   5.553  0.1139 -0.2648 -0.0603
   69MOL0     C 9235   2.303   2.821   5.621 -0.8095  0.4546  0.1873
   69MOL0     C 9236   2.288   2.751   5.736  0.9316 -0.1428 -1.1559
   69MOL0     C 9237   2.201   2.640   5.759  0.0117  0.2824  0.6724
   69MOL0     C 9238   2.135   2.605   5.641 -0.4303  0.9016 -0.5459
   69MOL0     O 9239   2.040   2.499   5.637  0.2262 -0.6909  0.1199
   69MOL0     C 9240   2.004   2.425   5.754 -0.6330 -0.0447 -0.3960
   69MOL0     C 9241   1.919   2.302   5.711 -0.6930 -0.0048 -0.8013
   69MOL0     C 9242   1.840   2.242   5.823  0.3586 -0.1298 -0.5293
   69MOL0     C 9243   1.746   2.123   5.778 -0.1926 -0.8687  0.1889
   69MOL0     C 9244   1.625   2.167   5.705 -0.2893  0.1493  0.0441
   69MOL0     C 9245   1.537   2.209   5.635  0.4670  1.0284 -0.1959
   69MOL0     C 9246   2.147   2.681   5.519  0.9023  0.4027 -0.0366
   69MOL0     C 9247   2.229   2.786   5.511  0.0434  0.6417 -0.2742
   69MOL0     H 9248   2.601   3.045   5.412 -1.0669 -0.9653  0.2373
   69MOL0     H 9249   2.725   3.252   5.353 -0.7159 -1.7988 -0.7752
   69MOL0     H 9250   2.832   3.507   5.366  1.4375  1.1922 -1.0401
   69MOL0     H 9251   2.702   3.453   5.260  1.6720 -1.1927  0.7100
   69MOL0     H 9252   2.623   3.692   5.234  1.1920  0.0810 -1.5484
   69MOL0     H 9253   2.728   3.743   5.365 -2.7938  1.9556 -0.1207
   69MOL0     H 9254   2.881   3.626   5.143  2.2613  1.2959  1.5837
   69MOL0     H 9255   2.790   3.772   5.106 -2.3524  0.1708  0.5866
   69MOL0     H 9256   2.907   3.896   5.294 -0.4058  0.7482 -1.5302
   69MOL0     H 9257   2.963   3.741   5.351 -0.9829 -0.5932 -0.3980
   69MOL0     H 9258   3.103   3.703   5.145  2.1862  1.1844  2.5840
   69MOL0     H 9259   3.047   3.838   5.075  1.6289 -0.0516 -0.4171
   69MOL0     H 9260   3.147   3.979   5.242 -1.0386 -0.6096 -1.9981
   69MOL0     H 9261   3.131   3.866   5.372  0.6133 -2.1729 -0.0610
   69MOL0     H 9262   3.323   3.815   5.140 -3.3217  1.5353 -0.8539
   69MOL0     H 9263   3.388   3.882   5.290 -1.0088  0.4635  2.5088
   69MOL0     H 9264   3.283   3.600   5.246 -0.9041  1.1351 -1.1062
   69MOL0     H 9265   3.272   3.678   5.412  2.4781  0.9946  0.0871
   69MOL0     H 9266   3.533   3.541   5.161  1.5850  0.6695 -0.1115
   69MOL0     H 9267   3.832   3.428   5.348 -0.1080  1.2224  0.9655
   69MOL0     H 9268   3.788   3.455   5.187 -0.3978 -0.5615  0.2030
   69MOL0     H 9269   3.952   3.651   5.374 -2.3409 -1.6474  2.2056
   69MOL0     H 9270   3.858   3.719   5.249 -1.3359 -0.9666 -1.7799
   69MOL0     H 9271   3.961   3.576   5.069 -2.2139  1.7064  0.4046
   69MOL0     H 9272   4.071   3.514   5.204 -2.7729 -0.0949  3.6689
   69MOL0     H 9273   4.165   3.682   5.061 -3.0757 -3.0303 -0.9917
   69MOL0     H 9274   4.167   3.737   5.234 -1.5048  1.0876  1.0740
   69MOL0     H 9275   3.929   4.073   5.063  0.1812 -1.4549 -1.4974
   69MOL0     H 9276   4.046   4.357   4.949 -0.1284  1.7969  0.7206
   69MOL0     H 9277   3.914   4.297   5.052  0.1672 -0.7199 -2.8338
   69MOL0     H 9278   4.039   4.408   5.111 -0.7731  1.3608 -1.8259
   69MOL0     H 9279   4.520   4.308   4.944 -1.7322  1.8116  0.7232
   69MOL0     H 9280   4.736   4.398   4.862 -0.9625 -1.4343  0.0782
   69MOL0     H 9281   5.014   4.574   4.846  1.0715  3.7204 -0.7512
   69MOL0     H 9282   4.843   4.606   4.849 -0.7033 -4.1712  0.8748
   69MOL0     H 9283   4.971   4.824   4.863 -0.9401  1.8183  0.0056
   69MOL0     H 9284   4.903   4.790   5.023 -0.3065 -0.8013  0.3098
   69MOL0     H 9285   5.177   4.767   4.934 -0.7868 -0.5399  0.3389
   69MOL0     H 9286   5.125   4.700   5.092  0.3234  0.6365  0.5539
   69MOL0     H 9287   5.148   4.999   5.011 -2.4610 -0.2580 -0.5405
   69MOL0     H 9288   5.042   4.940   5.144 -1.4155  1.5980 -1.7078
   69MOL0     H 9289   5.318   4.798   5.139 -1.9637 -1.0808 -0.5893
   69MOL0     H 9290   5.219   4.846   5.271 -0.4654 -1.6441 -0.7669
   69MOL0     H 9291   5.395   5.024   5.090  4.1543  3.0764  1.5825
   69MOL0     H 9292   5.298   5.096   5.209  0.3448  0.7942  0.6155
   69MOL0     H 9293   5.539   4.900   5.215 -3.2472 -2.3786 -0.0845
   69MOL0     H 9294   5.455   4.917   5.368 -2.1611  1.5060  1.0101
   69MOL0     H 9295   5.587   5.137   5.208 -2.6551  0.6752 -0.6965
   69MOL0     H 9296   5.641   5.074   5.374 -1.6064  0.3799  1.2215
   69MOL0     H 9297   4.797   4.575   5.251  1.1166 -2.0373  0.5595
   69MOL0     H 9298   4.566   4.513   5.315 -1.7935 -0.8122 -0.0160
   69MOL0     H 9299   4.410   4.094   5.187  0.4707  0.7592 -0.2012
   69MOL0     H 9300   4.311   3.884   5.144 -0.6754 -1.2558  2.2036
   69MOL0     H 9301   2.414   3.479   5.558  0.7138 -0.1004 -1.0531
   69MOL0     H 9302   2.301   3.267   5.606  0.4235 -1.6793  0.6023
   69MOL0     H 9303   2.335   2.786   5.827 -3.4877 -1.1893  1.8352
   69MOL0     H 9304   2.193   2.593   5.856 -0.0046  0.2061  0.6336
   69MOL0     H 9305   2.095   2.392   5.806 -0.1462  2.4550  0.4620
   69MOL0     H 9306   1.951   2.493   5.822  0.1383 -1.8262  2.1649
   69MOL0     H 9307   1.976   2.229   5.653 -2.3507 -2.5850  0.5986
   69MOL0     H 9308   1.847   2.343   5.639 -0.3982 -2.3731 -2.5587
   69MOL0     H 9309   1.788   2.327   5.867 -1.4449 -1.6801  0.5081
   69MOL0     H 9310   1.908   2.206   5.901  0.3977  0.4712 -0.2838
   69MOL0     H 9311   1.708   2.057   5.856 -1.4371  1.4283  1.6450
   69MOL0     H 9312   1.811   2.069   5.708  2.0335 -1.4386  2.5553
   69MOL0     H 9313   1.456   2.257   5.583 -0.6434 -1.8114 -1.3031
   69MOL0     H 9314   2.097   2.632   5.436  0.3874 -1.0000  1.0435
   69MOL0     H 9315   2.235   2.833   5.414  3.1184 -1.1537 -1.0583
   70MOL0     O 9316  10.263   2.091   1.060 -0.3597 -0.1474 -0.2375
   70MOL0     C 9317  10.313   2.051   0.956 -0.3383 -0.3210  0.0044
   70MOL0     O 9318  10.245   2.031   0.837 -0.5146  0.2939  0.3074
   70MOL0     C 9319  10.113   2.033   0.850  0.0331 -0.9867  0.5095
   70MOL0     C 9320  10.049   1.949   0.937 -0.7504  0.1274  0.4230
   70MOL0     C 9321   9.913   1.931   0.921  0.6974 -0.1050 -0.9886
   70MOL0     C 9322   9.837   1.990   0.814  0.2410 -0.8656 -0.1760
   70MOL0     O 9323   9.702   1.961   0.805 -0.1899  0.1003  0.0628
   70MOL0     C 9324   9.665   1.918   0.672  0.2639  0.1064  0.6953
   70MOL0     C 9325   9.589   2.029   0.612  0.0843  0.3697  0.4554
   70MOL0     C 9326   9.521   1.990   0.483 -0.0568  0.4797  0.4654
   70MOL0     C 9327   9.438   1.868   0.490  0.8144  0.7175  0.6658
   70MOL0     C 9328   9.338   1.846   0.377  0.0700 -0.0858  0.1090
   70MOL0     C 9329   9.215   1.944   0.369 -1.6864  0.0148  0.5608
   70MOL0     C 9330   9.159   1.991   0.501 -0.0069 -0.0317 -1.4025
   70MOL0     C 9331   9.065   1.892   0.574 -0.2277  0.0054 -0.9714
   70MOL0     N 9332   8.952   1.862   0.481  0.2806  0.7362 -0.4047
   70MOL0     C 9333   8.883   1.944   0.406 -0.5297  0.3368  0.4640
   70MOL0     C 9334   8.804   1.868   0.323 -0.0402 -0.8312 -0.0416
   70MOL0     C 9335   8.707   1.929   0.230  0.1507 -0.0223  0.1626
   70MOL0     C 9336   8.572   1.971   0.304  0.5177 -0.4002  0.3722
   70MOL0     C 9337   8.481   1.850   0.352 -0.8816  0.0943 -0.3042
   70MOL0     C 9338   8.340   1.898   0.381  0.3850  0.1258 -0.0652
   70MOL0     O 9339   8.263   1.778   0.407  0.1786  0.2247 -0.4229
   70MOL0     C 9340   8.124   1.786   0.384 -1.3157  0.1636  0.1912
   70MOL0     C 9341   8.049   1.899   0.365 -0.0339  0.1152 -0.1901
   70MOL0     C 9342   7.913   1.900   0.357  0.3850  0.3766  0.1822
   70MOL0     C 9343   7.838   2.026   0.349 -1.0078  0.0476 -0.3984
   70MOL0     C 9344   7.846   1.775   0.348  0.0561 -0.2474  0.6155
   70MOL0     C 9345   7.702   1.764   0.351 -0.5610  0.6505  0.7225
   70MOL0     O 9346   7.654   1.701   0.241 -0.2104 -0.8130 -0.8096
   70MOL0     C 9347   7.524   1.712   0.201  0.3430  0.7993  0.0751
   70MOL0     C 9348   7.422   1.789   0.252  0.3699 -0.1159  0.0867
   70MOL0     C 9349   7.293   1.777   0.205  0.3281 -0.7655  0.7155
   70MOL0     C 9350   7.262   1.699   0.101 -0.2451  0.4130  0.5413
   70MOL0     O 9351   7.135   1.699   0.043  0.4534 -0.0413 -0.3331
   70MOL0     C 9352   7.086   1.561   0.034  0.0732  0.0187  0.0490
   70MOL0     C 9353   6.930   1.534   0.030 -0.9299 -0.8913 -0.4652
   70MOL0     C 9354   6.858   1.544  -0.106  0.3071 -0.1985  0.2302
   70MOL0     C 9355   6.876   1.688  -0.158  0.5886  0.3783  0.4550
   70MOL0     C 9356   6.828   1.707  -0.304  0.3351  0.7509  0.1379
   70MOL0     C 9357   6.900   1.626  -0.419  0.3899 -0.5314  0.3958
   70MOL0     C 9358   7.053   1.642  -0.421 -0.1023 -0.0259 -0.0185
   70MOL0     C 9359   7.097   1.574  -0.555 -0.8857  0.1066  0.6150
   70MOL0    Cl 9360   7.266   1.628  -0.566  0.4231  0.4562 -0.1650
   70MOL0     C 9361   7.366   1.635   0.036 -0.2583  0.1123 -0.1728
   70MOL0     C 9362   7.493   1.628   0.093 -0.5706 -0.9107  0.6897
   70MOL0     O 9363   7.642   1.790   0.452  0.4292 -0.9497  0.2215
   70MOL0     C 9364   7.921   1.661   0.365 -0.5839  0.2490  0.5439
   70MOL0     C 9365   8.057   1.661   0.377 -0.5063  0.0354  0.2051
   70MOL0     N 9366   8.808   1.735   0.357  0.3383  0.5605  0.7970
   70MOL0     N 9367   8.896   1.733   0.453  0.5442 -0.6186  0.5071
   70MOL0     C 9368   9.907   2.084   0.736  0.5736 -0.3499 -1.3090
   70MOL0     C 9369  10.037   2.103   0.755 -0.8078 -0.1567 -0.5072
   70MOL0     C 9370  10.462   2.081   0.935  0.0903  0.7287 -0.2783
   70MOL0     C 9371  10.520   2.034   0.821  0.3306  0.4575  0.2569
   70MOL0     C 9372  10.657   2.040   0.799  0.7258 -0.0117 -0.4040
   70MOL0     C 9373  10.741   2.100   0.901  0.1025  0.3084 -0.5427
   70MOL0     O 9374  10.879   2.092   0.876  0.0443  0.0989 -0.5256
   70MOL0     C 9375  10.950   2.181   0.970  0.8885 -0.3093 -0.1749
   70MOL0     C 9376  11.101   2.185   0.941  0.5495  0.7317  0.5259
   70MOL0     C 9377  11.169   2.255   0.828  0.1023 -0.8579 -0.2032
   70MOL0     C 9378  11.096   2.274   0.694  0.1577  0.8011  0.0333
   70MOL0     C 9379  11.201   2.321   0.602  0.9207  0.7102  0.1282
   70MOL0     C 9380  11.294   2.373   0.549  0.2079 -0.7863 -0.7461
   70MOL0     C 9381  10.683   2.155   1.009 -0.0975 -0.0795  0.2017
   70MOL0     C 9382  10.544   2.145   1.032  0.7848 -0.2832 -0.4569
   70MOL0     H 9383  10.119   1.898   1.003  1.0800  0.6885 -1.0116
   70MOL0     H 9384   9.849   1.864   0.978 -0.3229  2.2337  0.8055
   70MOL0     H 9385   9.753   1.886   0.615 -0.0672 -0.5424  0.5467
   70MOL0     H 9386   9.605   1.827   0.682  1.0327 -0.2662  2.3195
   70MOL0     H 9387   9.516   2.065   0.685 -2.8284  3.3243 -3.4597
   70MOL0     H 9388   9.661   2.109   0.594 -1.1748  1.5578  0.5894
   70MOL0     H 9389   9.455   2.068   0.445  2.2410  2.4003  0.1824
   70MOL0     H 9390   9.593   1.979   0.402 -2.3708  1.2352 -1.8344
   70MOL0     H 9391   9.493   1.773   0.486 -2.8326 -1.5752 -0.0258
   70MOL0     H 9392   9.374   1.872   0.579 -1.4404  0.5263 -0.8540
   70MOL0     H 9393   9.383   1.819   0.280  0.1925  0.6147 -0.0293
   70MOL0     H 9394   9.290   1.753   0.410 -1.1925 -0.0645 -1.5323
   70MOL0     H 9395   9.236   2.036   0.313  2.2663 -0.8071  0.4364
   70MOL0     H 9396   9.147   1.891   0.301  0.5067  2.2935 -3.8610
   70MOL0     H 9397   9.235   2.024   0.572 -0.6518 -0.6879 -0.3661
   70MOL0     H 9398   9.091   2.073   0.475 -2.4743 -0.3551  2.9708
   70MOL0     H 9399   9.026   1.926   0.670 -1.2231 -1.1399 -0.9380
   70MOL0     H 9400   9.130   1.805   0.589 -2.6543 -1.8411 -0.5076
   70MOL0     H 9401   8.893   2.052   0.413  0.6050  0.2398  0.4245
   70MOL0     H 9402   8.756   2.002   0.166  0.8805  0.3581  1.1268
   70MOL0     H 9403   8.678   1.842   0.171 -0.1054  1.1330 -1.4741
   70MOL0     H 9404   8.518   2.021   0.222  0.4484 -3.1096 -1.3682
   70MOL0     H 9405   8.585   2.040   0.388 -0.0442 -2.2916  2.0845
   70MOL0     H 9406   8.525   1.805   0.441 -0.8070  2.2583  0.8099
   70MOL0     H 9407   8.489   1.782   0.266 -0.5551  0.8913 -0.9203
   70MOL0     H 9408   8.317   1.967   0.299 -1.4316  1.2956  1.3386
   70MOL0     H 9409   8.355   1.956   0.473  2.3442 -1.3982  0.6432
   70MOL0     H 9410   8.101   1.991   0.386 -1.5503  0.6885  1.3778
   70MOL0     H 9411   7.739   2.011   0.305 -0.9712  4.1228 -2.2886
   70MOL0     H 9412   7.836   2.070   0.449 -0.1295  0.3186 -0.4952
   70MOL0     H 9413   7.891   2.094   0.281  3.5673  0.4504  3.0823
   70MOL0     H 9414   7.448   1.857   0.333 -0.5580  0.5081 -0.1303
   70MOL0     H 9415   7.204   1.825   0.244 -0.6308  1.4043 -3.5038
   70MOL0     H 9416   7.131   1.511  -0.052  2.4196 -2.7834  2.6559
   70MOL0     H 9417   7.112   1.506   0.125 -0.6382  1.0198  0.8814
   70MOL0     H 9418   6.908   1.433   0.066 -0.4784 -0.1247  2.1854
   70MOL0     H 9419   6.888   1.592   0.112  1.2656 -3.2592  2.5566
   70MOL0     H 9420   6.752   1.522  -0.095  0.1805 -0.3599 -1.0906
   70MOL0     H 9421   6.894   1.468  -0.176 -0.6678 -3.5419  3.1146
   70MOL0     H 9422   6.826   1.757  -0.088 -2.4683 -0.0653 -1.0858
   70MOL0     H 9423   6.979   1.723  -0.163  0.7230 -0.1432 -2.5227
   70MOL0     H 9424   6.854   1.811  -0.325 -0.6299  0.9387 -0.1877
   70MOL0     H 9425   6.721   1.693  -0.320  0.1041  2.9248 -0.5782
   70MOL0     H 9426   6.875   1.520  -0.414 -3.2207  0.1554  0.3469
   70MOL0     H 9427   6.846   1.647  -0.512 -1.8237 -0.1128  1.6883
   70MOL0     H 9428   7.097   1.593  -0.333 -0.6731 -1.3723 -0.4540
   70MOL0     H 9429   7.086   1.746  -0.419  1.9131 -0.5876 -0.8724
   70MOL0     H 9430   7.042   1.605  -0.644  2.5764 -0.0140 -1.7827
   70MOL0     H 9431   7.086   1.466  -0.564 -2.2923  0.1025  2.0716
   70MOL0     H 9432   7.350   1.582  -0.057 -3.4032  0.3593  0.1239
   70MOL0     H 9433   7.563   1.555   0.055  0.9042  1.3824 -1.2992
   70MOL0     H 9434   7.862   1.570   0.372 -1.3161  0.7945  1.8435
   70MOL0     H 9435   8.122   1.577   0.395 -1.2166 -0.2206  1.7850
   70MOL0     H 9436   9.849   2.138   0.662  1.4808 -0.2814 -1.9759
   70MOL0     H 9437  10.093   2.166   0.686 -0.7341  0.0164 -0.2876
   70MOL0     H 9438  10.452   1.982   0.754 -2.4237  2.1708  1.5368
   70MOL0     H 9439  10.704   2.016   0.704 -1.4714  2.7059 -2.3501
   70MOL0     H 9440  10.918   2.286   0.968 -2.9520 -1.2057  2.7460
   70MOL0     H 9441  10.949   2.147   1.074  0.1976 -0.4786 -0.2288
   70MOL0     H 9442  11.127   2.079   0.945 -2.0126  0.0057 -0.1552
   70MOL0     H 9443  11.135   2.227   1.036  0.2692  0.5063  0.7235
   70MOL0     H 9444  11.275   2.234   0.812  1.0577  2.2558  1.1058
   70MOL0     H 9445  11.170   2.355   0.873  2.0599  0.0987 -2.1596
   70MOL0     H 9446  11.029   2.360   0.696 -1.4066 -0.3815 -0.1730
   70MOL0     H 9447  11.053   2.184   0.650  2.9173  0.8220 -3.0886
   70MOL0     H 9448  11.384   2.409   0.503  1.6351 -0.8348  1.8011
   70MOL0     H 9449  10.738   2.224   1.071 -0.1109  3.0389 -2.9694
   70MOL0     H 9450  10.495   2.198   1.113 -0.7529  0.8981 -2.0745
   71MOL0     O 9451   8.033   3.984   6.703 -0.5935  0.8926  1.0907
   71MOL0     C 9452   7.987   3.942   6.811  0.3967 -0.0556 -0.9310
   71MOL0     O 9453   7.910   3.832   6.832  0.1792  0.1083  0.3062
   71MOL0     C 9454   7.850   3.777   6.722 -1.0882 -0.1066 -0.5740
   71MOL0     C 9455   7.757   3.830   6.642  0.2896  0.8617  0.3798
   71MOL0     C 9456   7.738   3.778   6.511 -0.4634 -0.0032  0.2654
   71MOL0     C 9457   7.824   3.673   6.462 -0.2987 -0.7808 -0.5611
   71MOL0     O 9458   7.822   3.646   6.325  0.0052 -0.0334  0.1122
   71MOL0     C 9459   7.909   3.547   6.276 -0.6874  0.1361 -0.0464
   71MOL0     C 9460   7.843   3.400   6.271 -0.2195 -0.0682 -0.0992
   71MOL0     C 9461   7.719   3.393   6.184  0.5795 -0.8827 -0.6164
   71MOL0     C 9462   7.629   3.273   6.187  0.5337 -0.3764  0.0773
   71MOL0     C 9463   7.544   3.250   6.064  0.4770 -0.5583  0.2141
   71MOL0     C 9464   7.469   3.125   6.095 -0.9231 -0.5761  0.0386
   71MOL0     C 9465   7.370   3.087   5.981 -0.2079 -0.3703 -0.2241
   71MOL0     C 9466   7.269   2.987   6.042 -0.7646  0.1166 -0.7008
   71MOL0     N 9467   7.175   2.936   5.943 -0.9263  0.2264 -0.9171
   71MOL0     C 9468   7.209   2.889   5.823 -0.0304  0.9339 -0.7564
   71MOL0     C 9469   7.092   2.880   5.761 -0.2000  0.1899  0.3566
   71MOL0     C 9470   7.055   2.843   5.619 -0.3780  0.3594  0.4477
   71MOL0     C 9471   6.910   2.798   5.596  0.0994  0.3696 -0.3194
   71MOL0     C 9472   6.815   2.917   5.593  0.1698  0.2782  1.0111
   71MOL0     C 9473   6.669   2.856   5.611  0.3205  0.1689  0.0537
   71MOL0     O 9474   6.572   2.955   5.594 -0.3964  0.3857 -0.4737
   71MOL0     C 9475   6.451   2.946   5.660  0.4611  0.2504 -0.2533
   71MOL0     C 9476   6.408   3.065   5.713  0.6423 -0.3134  0.4404
   71MOL0     C 9477   6.299   3.065   5.813 -0.4354  0.4257  0.5949
   71MOL0     C 9478   6.270   3.196   5.883  0.7689 -0.6430  0.2276
   71MOL0     C 9479   6.222   2.954   5.833  0.9916  0.5674 -0.2704
   71MOL0     C 9480   6.103   2.945   5.916 -0.1925 -0.1649  0.4731
   71MOL0     O 9481   6.090   2.823   5.976 -0.5057  0.8313  0.5550
   71MOL0     C 9482   5.971   2.791   6.041  0.6233  0.4078  0.9658
   71MOL0     C 9483   5.836   2.816   5.991 -0.1072 -0.5624  0.1216
   71MOL0     C 9484   5.734   2.765   6.067  0.4687 -0.4205  0.0681
   71MOL0     C 9485   5.750   2.688   6.184  0.4619 -0.0138 -0.5020
   71MOL0     O 9486   5.639   2.628   6.244 -0.1916 -0.1842  0.5865
   71MOL0     C 9487   5.684   2.498   6.297 -0.6628 -0.7636  0.4267
   71MOL0     C 9488   5.554   2.418   6.314 -0.0342  0.8075 -0.2252
   71MOL0     C 9489   5.493   2.367   6.188  0.5247  0.2221  0.8246
   71MOL0     C 9490   5.366   2.281   6.206 -0.9088  0.2984 -0.1923
   71MOL0     C 9491   5.304   2.212   6.082 -0.1142 -0.1147  0.3389
   71MOL0     C 9492   5.273   2.311   5.966 -0.4250 -0.1660 -0.4969
   71MOL0     C 9493   5.233   2.223   5.851  0.1386  0.2142 -0.4912
   71MOL0     C 9494   5.177   2.313   5.735  0.9675  0.2297 -0.7785
   71MOL0    Cl 9495   5.009   2.354   5.774 -0.1868  0.2078 -0.3171
   71MOL0     C 9496   5.884   2.675   6.231 -0.0322  0.8523  1.4784
   71MOL0     C 9497   5.992   2.728   6.158 -0.7262  0.5380 -0.3609
   71MOL0     O 9498   6.030   3.040   5.931  0.1704 -0.9173 -0.4430
   71MOL0     C 9499   6.260   2.835   5.772 -0.0474  0.7777 -0.0840
   71MOL0     C 9500   6.380   2.824   5.691  0.1459 -0.3246 -0.7301
   71MOL0     N 9501   6.994   2.921   5.848 -0.3192  0.1446 -0.7487
   71MOL0     N 9502   7.049   2.968   5.958  0.3998 -0.3184  0.2924
   71MOL0     C 9503   7.899   3.605   6.557 -0.7709 -1.3683 -0.4579
   71MOL0     C 9504   7.914   3.661   6.681  0.8463 -0.4625  0.1531
   71MOL0     C 9505   8.031   4.024   6.935  0.6267  0.9729  0.1013
   71MOL0     C 9506   8.033   3.964   7.063 -0.2431 -0.5511  0.4526
   71MOL0     C 9507   8.072   4.044   7.171  0.6503  0.2593  0.1099
   71MOL0     C 9508   8.109   4.174   7.159  0.7695 -1.3048  0.2683
   71MOL0     O 9509   8.121   4.241   7.281  0.2949  0.6729 -0.1901
   71MOL0     C 9510   8.152   4.376   7.281 -0.4779 -0.7490 -0.0842
   71MOL0     C 9511   8.156   4.436   7.424 -0.4796  0.1321  0.2771
   71MOL0     C 9512   8.246   4.348   7.519  0.4205  0.6543 -0.1674
   71MOL0     C 9513   8.387   4.297   7.463  0.9718 -0.1903  0.7596
   71MOL0     C 9514   8.484   4.404   7.467  0.0064  0.2343  0.8489
   71MOL0     C 9515   8.537   4.509   7.465  0.4287 -0.0676  0.0410
   71MOL0     C 9516   8.122   4.230   7.033 -0.6252 -0.3912  0.1911
   71MOL0     C 9517   8.087   4.151   6.916  0.2101 -0.0474 -0.9943
   71MOL0     H 9518   7.694   3.915   6.667 -1.5410 -0.6886  1.2524
   71MOL0     H 9519   7.674   3.828   6.439 -0.3611  1.5662  1.2027
   71MOL0     H 9520   7.930   3.571   6.171  1.3131  0.2437  0.3288
   71MOL0     H 9521   8.008   3.557   6.322 -0.4949  0.4210 -0.5040
   71MOL0     H 9522   7.919   3.337   6.223  0.5821 -0.2433  1.3380
   71MOL0     H 9523   7.804   3.360   6.365  0.9982 -3.3382 -0.8432
   71MOL0     H 9524   7.656   3.479   6.208  1.3648 -0.9577  2.0776
   71MOL0     H 9525   7.756   3.411   6.083  2.9853  0.3007  0.3975
   71MOL0     H 9526   7.694   3.185   6.193 -0.9294 -1.5656 -0.7402
   71MOL0     H 9527   7.562   3.278   6.273 -0.5284 -1.3511 -0.6507
   71MOL0     H 9528   7.482   3.338   6.041  4.6480  2.4615 -0.6704
   71MOL0     H 9529   7.615   3.229   5.983  2.0689  0.7266  1.2130
   71MOL0     H 9530   7.541   3.044   6.112 -0.1917  0.5447  2.7682
   71MOL0     H 9531   7.428   3.140   6.195  3.5236  0.1946  1.9984
   71MOL0     H 9532   7.326   3.180   5.944  0.9410  0.2367 -0.1163
   71MOL0     H 9533   7.416   3.042   5.894 -0.7587 -2.4380  0.5009
   71MOL0     H 9534   7.209   3.028   6.123 -2.8505  0.9163 -2.5387
   71MOL0     H 9535   7.323   2.901   6.081 -3.4982 -0.9152  1.0677
   71MOL0     H 9536   7.311   2.876   5.787  0.8688  0.8412  1.6040
   71MOL0     H 9537   7.088   2.922   5.551 -1.9404 -1.1545 -2.2427
   71MOL0     H 9538   7.114   2.756   5.588  0.7786  1.5952 -0.9337
   71MOL0     H 9539   6.882   2.725   5.673  3.4668  1.0758  1.7832
   71MOL0     H 9540   6.901   2.746   5.500 -0.3661  0.1634 -0.1702
   71MOL0     H 9541   6.834   2.988   5.512  1.9911  0.4121  1.5191
   71MOL0     H 9542   6.845   2.992   5.666 -1.0789  0.7342  1.0929
   71MOL0     H 9543   6.661   2.818   5.713 -1.5636 -0.9262 -0.4471
   71MOL0     H 9544   6.651   2.779   5.535  1.8766 -1.3741  1.1727
   71MOL0     H 9545   6.481   3.144   5.700  0.6554 -0.7225 -2.9756
   71MOL0     H 9546   6.172   3.233   5.850  0.0956 -1.7779  0.8908
   71MOL0     H 9547   6.265   3.186   5.992 -0.8269  1.0570  0.3657
   71MOL0     H 9548   6.340   3.278   5.866 -0.5133  1.5759  4.1380
   71MOL0     H 9549   5.821   2.870   5.899  0.5073  3.2050  2.0344
   71MOL0     H 9550   5.633   2.794   6.041 -0.0121 -0.6879  1.5779
   71MOL0     H 9551   5.755   2.449   6.231 -0.9010  0.9050 -1.1561
   71MOL0     H 9552   5.718   2.519   6.399 -2.8121  2.7319  0.5764
   71MOL0     H 9553   5.559   2.330   6.378 -0.4082 -0.9286 -2.4465
   71MOL0     H 9554   5.488   2.489   6.365  1.0514  0.1182  2.2754
   71MOL0     H 9555   5.568   2.311   6.131  1.0903  2.4395 -0.7558
   71MOL0     H 9556   5.474   2.451   6.120 -2.0633  1.3109  2.7152
   71MOL0     H 9557   5.383   2.216   6.292 -2.2690 -0.2061 -0.2843
   71MOL0     H 9558   5.299   2.361   6.238  0.7715  2.6694 -2.1879
   71MOL0     H 9559   5.211   2.169   6.121 -1.2507  2.7032  0.9255
   71MOL0     H 9560   5.374   2.137   6.045  1.5270  1.7648 -0.5174
   71MOL0     H 9561   5.191   2.377   5.994  2.5026  3.1364  0.9762
   71MOL0     H 9562   5.362   2.371   5.946 -0.7671  1.7031  2.7712
   71MOL0     H 9563   5.160   2.142   5.865  0.7218 -0.7872 -2.8127
   71MOL0     H 9564   5.321   2.168   5.818 -1.3472 -1.7460 -1.3991
   71MOL0     H 9565   5.184   2.260   5.640 -2.7958 -3.5689  0.6819
   71MOL0     H 9566   5.236   2.405   5.741  0.8910  0.2131  0.6479
   71MOL0     H 9567   5.903   2.613   6.318  3.6608 -1.1858 -0.5799
   71MOL0     H 9568   6.087   2.707   6.205 -1.1796 -1.0334 -0.1025
   71MOL0     H 9569   6.197   2.747   5.772 -1.4198  1.7413  0.2820
   71MOL0     H 9570   6.410   2.726   5.655  1.3431  0.4969 -2.0879
   71MOL0     H 9571   7.964   3.519   6.549  1.0964  0.1847 -3.5017
   71MOL0     H 9572   7.980   3.604   6.746  2.0125  2.1792  1.4164
   71MOL0     H 9573   8.014   3.859   7.082 -0.0116 -0.6672  0.0469
   71MOL0     H 9574   8.069   3.998   7.270  1.4353  0.5591  0.2841
   71MOL0     H 9575   8.256   4.390   7.251  0.1961 -2.8013  1.1400
   71MOL0     H 9576   8.081   4.433   7.220 -1.2827 -1.9286 -0.2816
   71MOL0     H 9577   8.053   4.436   7.460 -1.2516 -1.0495 -1.7577
   71MOL0     H 9578   8.203   4.535   7.424 -0.8744  0.3298 -0.5719
   71MOL0     H 9579   8.197   4.265   7.571  1.3211 -0.0205 -0.3665
   71MOL0     H 9580   8.258   4.404   7.613 -0.9362  0.0493  0.3913
   71MOL0     H 9581   8.378   4.259   7.361  1.7282  4.8259 -1.4613
   71MOL0     H 9582   8.401   4.223   7.543 -0.6798  0.4926  1.7478
   71MOL0     H 9583   8.576   4.609   7.464 -2.1774  1.0240  0.3782
   71MOL0     H 9584   8.153   4.331   7.007 -0.8567 -1.0141 -2.8957
   71MOL0     H 9585   8.105   4.187   6.816 -0.5670  2.1540 -0.4039
   72MOL0     O 9586   2.551   6.761   2.600 -0.0346 -0.2686  0.0706
   72MOL0     C 9587   2.606   6.830   2.517  0.7555  0.3855  0.1361
   72MOL0     O 9588   2.711   6.931   2.535  0.4461  0.2999  0.0796
   72MOL0     C 9589   2.726   6.959   2.675 -0.7197  0.1933 -0.0864
   72MOL0     C 9590   2.625   6.980   2.763  1.2395 -0.0116  0.5433
   72MOL0     C 9591   2.649   6.996   2.896  0.9228 -0.0830 -0.5927
   72MOL0     C 9592   2.773   6.973   2.954 -0.0318  0.9384 -0.2076
   72MOL0     O 9593   2.796   6.993   3.087 -0.2515  0.3703  0.0736
   72MOL0     C 9594   2.689   7.000   3.178 -0.0570 -1.0188  0.0791
   72MOL0     C 9595   2.751   6.991   3.321  0.2638  0.1294 -0.0019
   72MOL0     C 9596   2.809   6.860   3.356 -0.4119  0.1154  0.2286
   72MOL0     C 9597   2.722   6.739   3.342  0.6741 -0.5219  0.2411
   72MOL0     C 9598   2.753   6.620   3.443  0.4755  0.1509  0.6543
   72MOL0     C 9599   2.665   6.486   3.428  0.7849  0.1402  0.6912
   72MOL0     C 9600   2.734   6.390   3.338 -0.2568 -0.1788  0.4118
   72MOL0     C 9601   2.666   6.255   3.344 -0.1220 -0.3597  0.4058
   72MOL0     N 9602   2.527   6.264   3.304  0.5659  0.0938 -0.9124
   72MOL0     C 9603   2.420   6.248   3.385  0.0824 -0.2517  0.4508
   72MOL0     C 9604   2.321   6.215   3.298  0.0036 -0.3059  0.0777
   72MOL0     C 9605   2.182   6.191   3.362  0.2919 -0.0792 -1.1723
   72MOL0     C 9606   2.125   6.301   3.441 -0.0542 -0.4861  0.2523
   72MOL0     C 9607   2.042   6.259   3.565  0.2805  0.0439  0.2719
   72MOL0     C 9608   1.924   6.361   3.577  0.5650 -0.3483  0.1300
   72MOL0     O 9609   1.852   6.343   3.695 -0.0933 -0.2392  0.0953
   72MOL0     C 9610   1.767   6.439   3.728  0.0577  0.5361  0.6947
   72MOL0     C 9611   1.810   6.566   3.778  1.1999 -1.1485 -1.1448
   72MOL0     C 9612   1.713   6.670   3.784 -0.5061  0.0985 -0.9538
   72MOL0     C 9613   1.774   6.797   3.824 -0.2064 -0.2984 -0.5055
   72MOL0     C 9614   1.577   6.650   3.752  0.8773  0.0017  0.7912
   72MOL0     C 9615   1.466   6.745   3.772 -0.3327  0.6934  0.5554
   72MOL0     O 9616   1.348   6.689   3.748  0.9322  0.3326  0.3274
   72MOL0     C 9617   1.218   6.742   3.766 -0.2299 -0.6095  0.0961
   72MOL0     C 9618   1.114   6.657   3.741  0.0566  0.1373  0.6831
   72MOL0     C 9619   0.983   6.703   3.746 -0.6409 -0.2268  0.3854
   72MOL0     C 9620   0.953   6.835   3.765  0.8462  0.0066 -0.6668
   72MOL0     O 9621   0.818   6.861   3.766  0.3543  0.1003 -0.3964
   72MOL0     C 9622   0.780   6.995   3.759 -0.3274 -0.1919 -0.1875
   72MOL0     C 9623   0.628   7.008   3.784  0.0327 -0.1228  0.9041
   72MOL0     C 9624   0.581   6.955   3.920 -0.4148  0.1128 -0.2325
   72MOL0     C 9625   0.641   7.034   4.036  0.2169 -0.4985 -0.3401
   72MOL0     C 9626   0.571   6.995   4.169 -0.7373 -0.5013 -0.1273
   72MOL0     C 9627   0.651   7.053   4.284 -0.2144 -0.8523  0.3250
   72MOL0     C 9628   0.566   7.058   4.414 -0.3486  0.1128 -0.0837
   72MOL0     C 9629   0.536   6.917   4.467  0.2823  0.7208 -0.1273
   72MOL0    Cl 9630   0.472   6.930   4.626 -0.3393  0.4699 -0.7357
   72MOL0     C 9631   1.060   6.923   3.779  0.1115 -0.2376 -0.6139
   72MOL0     C 9632   1.192   6.879   3.777 -0.5277 -0.4472 -0.5047
   72MOL0     O 9633   1.484   6.848   3.831  0.3534  0.2082  0.3446
   72MOL0     C 9634   1.542   6.517   3.725 -0.0610 -1.3085 -1.4123
   72MOL0     C 9635   1.635   6.413   3.696  0.1292 -0.2721  0.0806
   72MOL0     N 9636   2.370   6.206   3.168 -0.0193  0.9288 -0.6790
   72MOL0     N 9637   2.492   6.240   3.173 -0.5884 -1.1022 -0.2961
   72MOL0     C 9638   2.879   6.945   2.863 -0.4045  0.1870  0.0383
   72MOL0     C 9639   2.856   6.945   2.725 -0.0653 -0.6404  0.8038
   72MOL0     C 9640   2.571   6.785   2.376 -0.0055 -0.6063 -0.8489
   72MOL0     C 9641   2.646   6.838   2.271 -0.1049  0.2799 -0.2910
   72MOL0     C 9642   2.630   6.795   2.142 -0.1570 -0.3172 -0.7013
   72MOL0     C 9643   2.535   6.699   2.105 -0.7421 -0.3908  0.1164
   72MOL0     O 9644   2.503   6.671   1.976 -0.1666  0.6466 -0.1180
   72MOL0     C 9645   2.603   6.652   1.880 -0.1868  0.5518  0.5548
   72MOL0     C 9646   2.617   6.781   1.789 -0.2997 -0.2474 -0.3691
   72MOL0     C 9647   2.700   6.757   1.661 -0.0120 -0.0560  1.0903
   72MOL0     C 9648   2.845   6.758   1.681 -0.4937 -0.0842 -0.5600
   72MOL0     C 9649   2.911   6.890   1.685 -0.5191  0.2038  0.1100
   72MOL0     C 9650   2.974   6.991   1.656 -0.0589 -1.0063  0.2831
   72MOL0     C 9651   2.459   6.636   2.201 -0.3218 -0.2460 -0.6377
   72MOL0     C 9652   2.475   6.687   2.339 -0.3291  0.9037  0.2465
   72MOL0     H 9653   2.525   6.992   2.721  0.8666 -0.7518  1.1984
   72MOL0     H 9654   2.564   7.033   2.954  0.4396 -1.0876 -0.6462
   72MOL0     H 9655   2.627   7.087   3.152  2.7568  1.5724  1.4827
   72MOL0     H 9656   2.626   6.912   3.165  0.5975 -1.2862 -1.6054
   72MOL0     H 9657   2.819   7.074   3.339  0.7067 -0.4512  1.1221
   72MOL0     H 9658   2.667   6.997   3.391 -1.5355  2.2436 -2.1550
   72MOL0     H 9659   2.904   6.854   3.303 -0.9092  0.5519 -0.7360
   72MOL0     H 9660   2.829   6.868   3.463 -0.0173  2.2923  0.0269
   72MOL0     H 9661   2.623   6.781   3.362 -0.1608 -1.8460 -0.8755
   72MOL0     H 9662   2.725   6.708   3.237 -1.3460  0.0098 -0.0056
   72MOL0     H 9663   2.858   6.593   3.433  1.2638  3.6043 -2.2011
   72MOL0     H 9664   2.726   6.650   3.545 -2.0383  0.5543 -0.0548
   72MOL0     H 9665   2.666   6.438   3.526  2.2689  0.2139  0.7265
   72MOL0     H 9666   2.567   6.514   3.388  0.1865 -0.8618  1.4243
   72MOL0     H 9667   2.740   6.422   3.234  3.8905 -1.1332  0.1866
   72MOL0     H 9668   2.832   6.372   3.382  0.0405 -0.9536 -0.5405
   72MOL0     H 9669   2.669   6.212   3.445  0.9511 -0.1619  0.4727
   72MOL0     H 9670   2.725   6.194   3.275  3.0129  1.1647  1.5067
   72MOL0     H 9671   2.417   6.270   3.491 -0.3132 -3.1594  1.1026
   72MOL0     H 9672   2.108   6.162   3.287 -1.9528  0.3522  0.7907
   72MOL0     H 9673   2.209   6.103   3.420 -0.2286  0.9175  0.6562
   72MOL0     H 9674   2.062   6.355   3.370  0.6950  0.0191 -0.0410
   72MOL0     H 9675   2.200   6.376   3.468 -0.2323 -0.3681  0.4290
   72MOL0     H 9676   2.105   6.249   3.654 -0.4440 -1.9347  0.6112
   72MOL0     H 9677   1.985   6.167   3.553 -0.9395  0.4743  2.3313
   72MOL0     H 9678   1.858   6.344   3.491  0.6672  1.8077 -0.4444
   72MOL0     H 9679   1.957   6.464   3.564  0.9496 -0.6080 -1.0664
   72MOL0     H 9680   1.906   6.592   3.821 -0.9090  2.5058  1.9574
   72MOL0     H 9681   1.882   6.795   3.837 -0.1610  2.5523  0.1548
   72MOL0     H 9682   1.745   6.876   3.754  0.9787 -1.5554 -2.5016
   72MOL0     H 9683   1.727   6.823   3.920  0.6482  1.6709 -0.5754
   72MOL0     H 9684   1.128   6.550   3.728 -1.5969  0.0136 -0.3498
   72MOL0     H 9685   0.907   6.631   3.716 -1.0133  1.4621 -3.2763
   72MOL0     H 9686   0.829   7.054   3.837 -1.5388  1.7485 -0.8256
   72MOL0     H 9687   0.808   7.038   3.662 -1.6308 -1.0810 -0.9949
   72MOL0     H 9688   0.595   7.106   3.749  1.6491  0.5220  1.0869
   72MOL0     H 9689   0.584   6.935   3.714  0.0149  0.3460  0.4202
   72MOL0     H 9690   0.615   6.851   3.930 -0.8568 -0.2304 -2.0058
   72MOL0     H 9691   0.472   6.947   3.913 -0.6987 -1.4473  3.6477
   72MOL0     H 9692   0.746   7.005   4.035  0.7116  0.7969  2.7496
   72MOL0     H 9693   0.642   7.139   4.005  0.9984 -0.7486 -1.2100
   72MOL0     H 9694   0.575   6.887   4.186 -1.0817 -0.2290  2.0228
   72MOL0     H 9695   0.468   7.032   4.162  0.2361  2.6292  0.3584
   72MOL0     H 9696   0.744   6.998   4.298 -0.0436 -0.0902  2.5075
   72MOL0     H 9697   0.679   7.154   4.253 -0.9798 -0.9414 -0.7137
   72MOL0     H 9698   0.483   7.128   4.407 -0.1269  0.8452  3.2790
   72MOL0     H 9699   0.630   7.108   4.487 -1.5178  1.9916 -0.2812
   72MOL0     H 9700   0.634   6.869   4.474 -1.2562 -2.4413  2.0632
   72MOL0     H 9701   0.474   6.853   4.404 -0.8786 -1.6433  3.1472
   72MOL0     H 9702   1.043   7.029   3.792  0.9558 -0.0938 -0.6087
   72MOL0     H 9703   1.264   6.958   3.795 -2.4368  1.0739  0.8689
   72MOL0     H 9704   1.439   6.494   3.703 -0.8833  1.8368 -1.3142
   72MOL0     H 9705   1.605   6.315   3.661  1.1776 -0.1479 -1.2715
   72MOL0     H 9706   2.977   6.933   2.906 -0.2743  0.3388 -0.2105
   72MOL0     H 9707   2.940   6.925   2.660  1.2910 -0.8382  2.5283
   72MOL0     H 9708   2.712   6.920   2.295  0.1365  0.0984 -0.3263
   72MOL0     H 9709   2.695   6.836   2.065 -1.4425  0.4579 -1.4187
   72MOL0     H 9710   2.705   6.646   1.921 -0.5513 -0.9198  1.2991
   72MOL0     H 9711   2.596   6.553   1.835  2.4269  0.5805 -0.0986
   72MOL0     H 9712   2.666   6.862   1.843  1.2955 -1.5104  0.1649
   72MOL0     H 9713   2.514   6.814   1.769  0.6012  0.7987 -3.8805
   72MOL0     H 9714   2.677   6.830   1.583 -1.9699 -3.0678 -1.4313
   72MOL0     H 9715   2.675   6.659   1.619  1.2581 -0.4408  1.2020
   72MOL0     H 9716   2.892   6.700   1.601 -2.9802  0.6051 -2.6628
   72MOL0     H 9717   2.870   6.716   1.779 -0.5244  0.7882 -0.1681
   72MOL0     H 9718   3.032   7.075   1.624 -0.3307 -0.9301 -0.0098
   72MOL0     H 9719   2.383   6.568   2.163 -1.0900 -0.3556  0.9883
   72MOL0     H 9720   2.424   6.635   2.419  2.2386 -1.5727  0.4213
   73MOL0     O 9721   5.982   6.559   7.608  0.4271 -0.8712  0.8275
   73MOL0     C 9722   6.040   6.457   7.635  0.2575 -0.7753  0.8081
   73MOL0     O 9723   6.180   6.434   7.617 -0.6284 -0.7440 -0.1994
   73MOL0     C 9724   6.247   6.540   7.557  0.1972 -0.9713 -0.5381
   73MOL0     C 9725   6.234   6.683   7.568  0.3297 -0.1962  0.0354
   73MOL0     C 9726   6.316   6.775   7.497 -0.6176  0.4349 -1.0858
   73MOL0     C 9727   6.418   6.726   7.407  0.0543  0.3680 -0.5203
   73MOL0     O 9728   6.499   6.809   7.336 -0.4912  0.8088  0.0968
   73MOL0     C 9729   6.538   6.920   7.403  0.0869  0.9614  0.2989
   73MOL0     C 9730   6.678   6.961   7.345 -0.1838 -0.2621 -0.4458
   73MOL0     C 9731   6.658   7.046   7.224  0.1217  1.0536  0.3964
   73MOL0     C 9732   6.791   7.090   7.175  0.6969  0.4954  0.0452
   73MOL0     C 9733   6.766   7.152   7.040 -0.2163  0.1805 -0.3871
   73MOL0     C 9734   6.874   7.249   7.007 -0.6889  0.1676  0.5232
   73MOL0     C 9735   6.835   7.320   6.878 -0.0290  0.1573  0.4710
   73MOL0     C 9736   6.729   7.427   6.889  0.0587  0.4541  0.6302
   73MOL0     N 9737   6.687   7.469   6.753  0.9997 -0.6275 -0.5260
   73MOL0     C 9738   6.553   7.452   6.704 -0.7993  0.1496 -0.6091
   73MOL0     C 9739   6.565   7.508   6.579 -0.1355 -0.2050 -0.1117
   73MOL0     C 9740   6.445   7.534   6.487  0.1898 -0.2419 -0.5419
   73MOL0     C 9741   6.348   7.644   6.550 -0.5140  0.3385  0.6072
   73MOL0     C 9742   6.218   7.668   6.474 -0.9548 -0.3289 -0.6998
   73MOL0     C 9743   6.148   7.539   6.449 -0.6276  0.3650 -0.0330
   73MOL0     O 9744   6.116   7.474   6.571  0.0700 -0.2272  0.5585
   73MOL0     C 9745   6.028   7.365   6.571  0.9796  0.3226 -0.7030
   73MOL0     C 9746   5.953   7.344   6.692  0.0508  0.3951 -0.8863
   73MOL0     C 9747   5.885   7.218   6.704  0.8561 -0.2459 -0.4865
   73MOL0     C 9748   5.814   7.202   6.840  0.0208  0.2112 -0.2135
   73MOL0     C 9749   5.883   7.124   6.602 -0.3310 -0.7082 -0.5185
   73MOL0     C 9750   5.811   6.998   6.617 -0.1452 -0.7258 -0.4142
   73MOL0     O 9751   5.844   6.909   6.718 -0.0398  0.0283  0.7431
   73MOL0     C 9752   5.787   6.784   6.719 -0.6634 -0.5370  0.0533
   73MOL0     C 9753   5.727   6.734   6.836 -1.3636  0.7595 -0.8615
   73MOL0     C 9754   5.705   6.603   6.845  0.5180  0.8093  1.0585
   73MOL0     C 9755   5.729   6.512   6.741  0.0938 -0.5991  0.4413
   73MOL0     O 9756   5.729   6.381   6.779  0.1596  0.5685 -0.5507
   73MOL0     C 9757   5.821   6.288   6.712  0.0226 -0.5814 -0.5273
   73MOL0     C 9758   5.827   6.148   6.777 -0.5854  1.0445 -0.1765
   73MOL0     C 9759   5.896   6.043   6.693  0.1406 -0.7674  0.5979
   73MOL0     C 9760   5.817   5.984   6.572  0.6641 -0.6242 -0.0181
   73MOL0     C 9761   5.916   5.910   6.484  0.2808 -0.3530  0.0310
   73MOL0     C 9762   6.033   5.983   6.416 -0.0835 -0.7767 -0.2518
   73MOL0     C 9763   6.068   5.926   6.280 -0.7390  0.4569 -0.3918
   73MOL0     C 9764   6.207   5.952   6.227  0.0068 -0.3141 -0.2798
   73MOL0    Cl 9765   6.216   6.104   6.143 -0.1589 -0.0254  0.0862
   73MOL0     C 9766   5.777   6.554   6.626  0.0866 -0.5772 -0.1381
   73MOL0     C 9767   5.799   6.696   6.609 -0.3177  0.6255 -0.3160
   73MOL0     O 9768   5.740   6.969   6.521 -0.7758  0.1139 -0.4722
   73MOL0     C 9769   5.953   7.155   6.487 -0.1562 -0.4368  0.4462
   73MOL0     C 9770   6.019   7.276   6.465  0.3948 -0.2678  0.0489
   73MOL0     N 9771   6.693   7.551   6.551  0.7307  0.6395 -0.6760
   73MOL0     N 9772   6.768   7.523   6.659 -0.3019 -0.1499  0.0919
   73MOL0     C 9773   6.427   6.585   7.392  0.2940 -0.0110 -0.5510
   73MOL0     C 9774   6.346   6.500   7.464 -0.0069  0.7958 -1.4645
   73MOL0     C 9775   5.969   6.341   7.667 -0.6591 -0.2053 -0.3773
   73MOL0     C 9776   5.836   6.332   7.622  0.2837 -0.5621 -0.0091
   73MOL0     C 9777   5.761   6.215   7.638  0.1125  0.0425  0.5965
   73MOL0     C 9778   5.827   6.107   7.699  1.0145 -0.1563 -0.0658
   73MOL0     O 9779   5.769   5.986   7.704 -0.2084 -0.3323 -0.9772
   73MOL0     C 9780   5.697   5.948   7.580 -0.2733 -0.6673  0.0912
   73MOL0     C 9781   5.717   5.795   7.569 -0.7001  0.1797 -0.7836
   73MOL0     C 9782   5.640   5.719   7.679  0.5346  0.4443 -0.3854
   73MOL0     C 9783   5.653   5.568   7.670 -0.1963 -0.5145 -0.4457
   73MOL0     C 9784   5.619   5.496   7.797 -0.0114  0.0701  0.2012
   73MOL0     C 9785   5.568   5.437   7.888  0.5502  0.7168 -0.9103
   73MOL0     C 9786   5.945   6.129   7.770  0.2264 -0.0491  0.8444
   73MOL0     C 9787   6.019   6.243   7.744  0.6935 -0.0928 -0.4029
   73MOL0     H 9788   6.149   6.714   7.628  0.1044 -1.8662  0.6503
   73MOL0     H 9789   6.305   6.882   7.508  0.2536  0.4793 -0.5843
   73MOL0     H 9790   6.468   7.001   7.380  1.7963  2.1293 -1.1678
   73MOL0     H 9791   6.551   6.898   7.509 -2.4191  0.3352  0.5321
   73MOL0     H 9792   6.743   7.005   7.421  0.9356 -2.2473 -0.1654
   73MOL0     H 9793   6.733   6.874   7.306 -1.9959 -2.0876  0.8389
   73MOL0     H 9794   6.592   7.003   7.148 -0.2556  2.1629  0.0851
   73MOL0     H 9795   6.601   7.133   7.257 -2.0604 -0.8435  1.9656
   73MOL0     H 9796   6.843   7.155   7.247  0.5195  0.1561  0.4862
   73MOL0     H 9797   6.856   7.004   7.157 -1.8988 -1.2754 -1.5714
   73MOL0     H 9798   6.774   7.065   6.973  1.2036 -0.3644  0.4423
   73MOL0     H 9799   6.673   7.209   7.032  0.2744  1.4651  2.1517
   73MOL0     H 9800   6.887   7.319   7.090 -1.6443 -0.4749  1.2346
   73MOL0     H 9801   6.966   7.192   6.995  0.8986  3.0739 -2.4747
   73MOL0     H 9802   6.923   7.376   6.846 -1.5009  1.8782 -0.7726
   73MOL0     H 9803   6.817   7.242   6.804  0.9924  1.2724 -0.9876
   73MOL0     H 9804   6.773   7.517   6.933  0.8546  0.7234 -0.6318
   73MOL0     H 9805   6.642   7.398   6.949 -0.7160 -1.3518 -1.2283
   73MOL0     H 9806   6.477   7.401   6.762  1.7721 -1.4279  1.6232
   73MOL0     H 9807   6.464   7.564   6.384 -3.5510 -0.4103 -1.4394
   73MOL0     H 9808   6.389   7.440   6.478 -2.0120  1.0741 -1.3546
   73MOL0     H 9809   6.403   7.738   6.566 -0.8282  0.4360  1.1177
   73MOL0     H 9810   6.318   7.608   6.649 -0.0150  2.6713  1.6967
   73MOL0     H 9811   6.238   7.706   6.373  0.3864  0.7369 -0.0777
   73MOL0     H 9812   6.157   7.731   6.539  0.0988  0.6722 -0.6363
   73MOL0     H 9813   6.202   7.474   6.379  2.8754  4.0114 -1.1221
   73MOL0     H 9814   6.061   7.571   6.392  0.2759 -1.8445 -2.9143
   73MOL0     H 9815   5.958   7.421   6.768 -0.8714 -0.1990 -0.2040
   73MOL0     H 9816   5.727   7.267   6.854 -0.8722 -0.5212 -1.9327
   73MOL0     H 9817   5.760   7.108   6.856 -0.8243  1.2102  3.8538
   73MOL0     H 9818   5.886   7.205   6.922  2.5367  1.0427 -2.3192
   73MOL0     H 9819   5.703   6.801   6.918 -0.5891 -1.8238  1.6793
   73MOL0     H 9820   5.669   6.558   6.937 -0.1984 -0.1937  0.3088
   73MOL0     H 9821   5.793   6.275   6.607  1.0332  0.1890 -0.9095
   73MOL0     H 9822   5.920   6.336   6.709  0.4155 -1.2644  0.7341
   73MOL0     H 9823   5.891   6.165   6.864  0.2489  1.9949 -0.9511
   73MOL0     H 9824   5.730   6.113   6.813  0.2617  0.0803  1.2878
   73MOL0     H 9825   5.925   5.958   6.756  0.1919 -0.8544  0.4570
   73MOL0     H 9826   5.983   6.090   6.646 -0.2433 -4.5781 -4.9950
   73MOL0     H 9827   5.744   5.911   6.606  0.1498  0.5493  1.5281
   73MOL0     H 9828   5.767   6.066   6.518 -1.6739 -2.8573 -1.4544
   73MOL0     H 9829   5.850   5.861   6.413  0.5584 -1.4224  0.4938
   73MOL0     H 9830   5.958   5.823   6.535 -0.7424 -1.4950 -1.0255
   73MOL0     H 9831   6.010   6.087   6.391 -0.5730 -0.7066  0.4752
   73MOL0     H 9832   6.125   5.979   6.475  0.8383 -4.3880 -1.7032
   73MOL0     H 9833   5.996   5.951   6.202 -0.8708  1.4447  0.0397
   73MOL0     H 9834   6.064   5.817   6.290 -0.7895  0.4102 -0.8769
   73MOL0     H 9835   6.226   5.876   6.151 -0.3954 -1.5582  0.8203
   73MOL0     H 9836   6.295   5.952   6.292  0.5662  0.7392 -1.0157
   73MOL0     H 9837   5.790   6.482   6.546 -2.7341 -2.5317  0.9900
   73MOL0     H 9838   5.839   6.719   6.510  1.5895  1.6864  0.6423
   73MOL0     H 9839   5.958   7.076   6.414  2.2335 -1.6189  1.7531
   73MOL0     H 9840   6.058   7.294   6.365 -1.4687  0.0079 -0.6754
   73MOL0     H 9841   6.506   6.543   7.331  0.5118 -1.7862  0.9069
   73MOL0     H 9842   6.359   6.394   7.440  1.9012  0.1585  1.8553
   73MOL0     H 9843   5.780   6.410   7.571 -0.6916  0.1007  1.9798
   73MOL0     H 9844   5.675   6.193   7.576  1.1162 -1.4000 -0.3452
   73MOL0     H 9845   5.589   5.959   7.589 -0.3432 -0.3328 -0.9693
   73MOL0     H 9846   5.746   5.993   7.493  1.1028  1.3804  1.8324
   73MOL0     H 9847   5.824   5.784   7.588 -1.0474  0.1413  1.4431
   73MOL0     H 9848   5.690   5.755   7.471 -1.0727 -1.1797 -0.1485
   73MOL0     H 9849   5.537   5.747   7.654  0.4039 -1.3175 -2.0923
   73MOL0     H 9850   5.676   5.752   7.777 -1.4919 -0.2691  0.6572
   73MOL0     H 9851   5.754   5.542   7.639  0.5361 -1.0604  2.1299
   73MOL0     H 9852   5.582   5.531   7.595  1.5607 -1.2257 -1.8164
   73MOL0     H 9853   5.529   5.388   7.974 -1.4620  0.8451 -1.6968
   73MOL0     H 9854   5.992   6.043   7.817  2.6800 -0.4711 -2.1083
   73MOL0     H 9855   6.117   6.245   7.792  0.5901 -0.4534 -0.1725
   74MOL0     O 9856  11.226   0.808  11.175 -0.0491  0.0048 -0.5296
   74MOL0     C 9857  11.224   0.697  11.120  0.5206 -0.5685 -0.2007
   74MOL0     O 9858  11.134   0.665  11.021  0.6021 -0.7250 -0.6758
   74MOL0     C 9859  11.050   0.758  10.972  0.1677 -0.2783 -0.6085
   74MOL0     C 9860  11.046   0.795  10.837 -0.5627 -1.1791  1.0671
   74MOL0     C 9861  10.947   0.876  10.781  0.3507  0.2298  0.0831
   74MOL0     C 9862  10.842   0.922  10.860 -0.3098  0.5080  0.5691
   74MOL0     O 9863  10.749   1.003  10.795  0.6631  0.1401  0.5458
   74MOL0     C 9864  10.671   1.089  10.876  0.8806 -0.8903  0.3674
   74MOL0     C 9865  10.520   1.069  10.869 -0.1318 -0.2482  0.0106
   74MOL0     C 9866  10.495   0.918  10.888 -0.6374 -0.2072  0.2360
   74MOL0     C 9867  10.356   0.897  10.955 -0.7180  0.5968 -0.5072
   74MOL0     C 9868  10.308   0.755  10.924 -0.8503 -0.3498  0.2255
   74MOL0     C 9869  10.184   0.725  10.995  0.4505 -0.0859  0.3545
   74MOL0     C 9870  10.124   0.592  10.936  0.2279 -0.1976  0.5873
   74MOL0     C 9871  10.209   0.470  10.960 -0.6315 -0.1392 -0.3793
   74MOL0     N 9872  10.136   0.362  10.901  0.1163 -0.0536 -0.1225
   74MOL0     C 9873  10.181   0.281  10.797  0.0446  0.0930  0.2274
   74MOL0     C 9874  10.105   0.173  10.797 -0.2659 -0.0531  0.3252
   74MOL0     C 9875  10.140   0.053  10.709 -0.2699 -0.4817 -0.0223
   74MOL0     C 9876  10.020  -0.031  10.658 -0.2515  0.3618 -0.3866
   74MOL0     C 9877   9.918   0.051  10.578 -0.5616 -0.9851  0.1803
   74MOL0     C 9878   9.787  -0.030  10.560 -0.3949 -0.0187  0.5568
   74MOL0     O 9879   9.712  -0.053  10.679  0.0134 -0.3408 -0.2758
   74MOL0     C 9880   9.638   0.047  10.733  1.0452  0.2234  0.0832
   74MOL0     C 9881   9.681   0.096  10.859  1.0125  0.8894 -0.0596
   74MOL0     C 9882   9.627   0.212  10.924 -1.3932  1.0057  0.3298
   74MOL0     C 9883   9.685   0.260  11.059  1.0672  0.6048 -0.2624
   74MOL0     C 9884   9.511   0.272  10.865  0.6317  0.2144 -0.1778
   74MOL0     C 9885   9.427   0.377  10.932  0.0652  0.8475  0.5962
   74MOL0     O 9886   9.477   0.445  11.036  0.9546 -0.1611 -1.2065
   74MOL0     C 9887   9.394   0.522  11.112  0.4667 -0.5151 -0.3871
   74MOL0     C 9888   9.380   0.668  11.097 -0.2155  0.5879  0.0317
   74MOL0     C 9889   9.295   0.740  11.185  0.0519 -0.1627  0.2771
   74MOL0     C 9890   9.222   0.673  11.275  0.2862 -0.1513  0.1389
   74MOL0     O 9891   9.129   0.748  11.341 -0.9677 -0.6877 -0.5270
   74MOL0     C 9892   9.102   0.724  11.483 -0.4694  0.1287 -0.1285
   74MOL0     C 9893   9.155   0.830  11.583  0.5720 -0.4120  0.0245
   74MOL0     C 9894   9.128   0.805  11.728 -0.0228 -1.5540  0.3639
   74MOL0     C 9895   9.181   0.929  11.811  0.4091  0.2405  0.1409
   74MOL0     C 9896   9.059   1.031  11.840 -0.0776 -0.0314 -1.2811
   74MOL0     C 9897   8.966   0.964  11.950 -0.5711  0.1029  0.1536
   74MOL0     C 9898   8.860   1.070  12.004  0.3593 -0.5602 -0.1079
   74MOL0     C 9899   8.774   1.008  12.107 -0.4250 -0.0781  0.3000
   74MOL0    Cl 9900   8.660   1.125  12.170 -0.1016 -0.1644  0.2220
   74MOL0     C 9901   9.227   0.537  11.288 -0.5330 -0.3067 -0.4985
   74MOL0     C 9902   9.313   0.457  11.215  0.2573 -0.5003  0.6283
   74MOL0     O 9903   9.315   0.388  10.887  0.2348  0.6079 -0.3527
   74MOL0     C 9904   9.460   0.217  10.743 -0.8615  0.0432 -0.2143
   74MOL0     C 9905   9.529   0.106  10.684  0.4042  0.4754 -0.1000
   74MOL0     N 9906   9.999   0.194  10.893 -0.1249  0.3840  0.1742
   74MOL0     N 9907  10.034   0.298  10.966 -1.0919  1.5060 -0.0225
   74MOL0     C 9908  10.841   0.878  10.998  0.8225  0.7969 -0.1752
   74MOL0     C 9909  10.940   0.796  11.048 -0.1495  1.3793  0.5433
   74MOL0     C 9910  11.331   0.598  11.142 -0.7499 -0.8257 -0.0441
   74MOL0     C 9911  11.330   0.469  11.095 -0.3963  0.2508  0.5295
   74MOL0     C 9912  11.450   0.394  11.125 -0.1451  0.9160  0.3176
   74MOL0     C 9913  11.558   0.442  11.193  0.6735  0.1516 -0.0274
   74MOL0     O 9914  11.663   0.357  11.212 -0.5334  0.1774 -0.8134
   74MOL0     C 9915  11.794   0.407  11.243 -0.5379  0.0459  0.7339
   74MOL0     C 9916  11.840   0.408  11.388 -0.2501 -0.5970  0.8035
   74MOL0     C 9917  11.970   0.333  11.404 -0.4522 -0.5504  0.1604
   74MOL0     C 9918  11.938   0.192  11.414 -0.0319  0.4522  0.5485
   74MOL0     C 9919  11.899   0.145  11.542  0.2856 -0.1266 -0.4376
   74MOL0     C 9920  11.881   0.089  11.650  0.2214  0.4190 -0.5197
   74MOL0     C 9921  11.552   0.574  11.241  0.1341  0.6018  0.0075
   74MOL0     C 9922  11.442   0.648  11.212 -0.2285  0.5419 -0.2197
   74MOL0     H 9923  11.129   0.772  10.770 -2.7003  0.0920 -2.3203
   74MOL0     H 9924  10.958   0.908  10.678 -0.8075  0.8602  0.1283
   74MOL0     H 9925  10.713   1.106  10.975 -2.1819  2.5541  1.2955
   74MOL0     H 9926  10.686   1.183  10.822  1.8163 -1.4078 -0.3075
   74MOL0     H 9927  10.480   1.129  10.951 -2.6752  0.8498 -1.8953
   74MOL0     H 9928  10.473   1.106  10.778  0.2447  2.9544  0.9754
   74MOL0     H 9929  10.502   0.882  10.785 -1.2029 -0.2087  0.1954
   74MOL0     H 9930  10.578   0.883  10.949  1.1399  1.3353 -1.1887
   74MOL0     H 9931  10.371   0.920  11.061  1.1206  0.1487 -0.6294
   74MOL0     H 9932  10.281   0.966  10.916 -0.3980  0.0306 -2.2061
   74MOL0     H 9933  10.299   0.734  10.817 -2.6214  0.5536  0.1533
   74MOL0     H 9934  10.391   0.697  10.965  1.6034  2.0149 -1.0284
   74MOL0     H 9935  10.208   0.723  11.102  0.3500 -1.2524  0.3644
   74MOL0     H 9936  10.109   0.801  10.973  0.1857 -1.0033 -2.1815
   74MOL0     H 9937  10.023   0.578  10.977  0.9051 -0.8081  2.1212
   74MOL0     H 9938  10.109   0.604  10.828 -0.5980 -1.1172  0.5813
   74MOL0     H 9939  10.217   0.459  11.068  0.6438 -3.3471 -0.6750
   74MOL0     H 9940  10.308   0.469  10.913  0.2554 -1.1917  1.4471
   74MOL0     H 9941  10.278   0.293  10.748  0.9473  0.1354  1.9538
   74MOL0     H 9942  10.208   0.086  10.630 -0.1842  0.8013  0.5670
   74MOL0     H 9943  10.210  -0.008  10.767  3.0708  0.9030 -2.3023
   74MOL0     H 9944   9.984  -0.078  10.750  1.7496  0.0457  0.2737
   74MOL0     H 9945  10.045  -0.114  10.592 -2.8500 -0.4890 -0.4305
   74MOL0     H 9946   9.959   0.067  10.478  0.3070 -0.1359  0.6490
   74MOL0     H 9947   9.896   0.150  10.619 -4.0508 -0.2515 -2.9917
   74MOL0     H 9948   9.820  -0.129  10.527  1.2703  1.1619 -1.6326
   74MOL0     H 9949   9.734   0.013  10.475 -1.6943 -0.4117  1.1496
   74MOL0     H 9950   9.771   0.056  10.905  1.7770 -1.3249 -3.0940
   74MOL0     H 9951   9.772   0.201  11.090 -0.0123  0.0414  1.8643
   74MOL0     H 9952   9.718   0.364  11.052 -0.9204  1.1550 -3.5735
   74MOL0     H 9953   9.613   0.244  11.139 -0.0482 -0.5149 -1.4341
   74MOL0     H 9954   9.443   0.716  11.023 -1.4971  0.4928 -1.1692
   74MOL0     H 9955   9.290   0.847  11.167 -2.1785 -0.3691 -0.6566
   74MOL0     H 9956   8.993   0.730  11.495 -0.3774 -0.5440  1.1212
   74MOL0     H 9957   9.125   0.623  11.519 -4.5258 -0.6553  0.7700
   74MOL0     H 9958   9.261   0.824  11.557  0.3212 -3.0119 -0.7029
   74MOL0     H 9959   9.111   0.929  11.564 -3.1857 -1.8295  0.5005
   74MOL0     H 9960   9.189   0.720  11.758 -0.3752 -1.5635  1.0815
   74MOL0     H 9961   9.023   0.787  11.754  0.5188 -1.6096  2.6979
   74MOL0     H 9962   9.239   0.898  11.898 -0.0027 -2.7130 -0.5359
   74MOL0     H 9963   9.258   0.976  11.749  0.3759 -0.4058 -0.3986
   74MOL0     H 9964   9.016   1.059  11.743 -0.0767  0.7900 -1.0509
   74MOL0     H 9965   9.101   1.120  11.888 -2.0014 -0.0163  0.5148
   74MOL0     H 9966   8.912   0.882  11.902  1.9856 -1.2316 -0.5981
   74MOL0     H 9967   9.020   0.932  12.040  0.0290  0.5090 -0.0625
   74MOL0     H 9968   8.777   1.096  11.938  0.1202  0.0306  0.4166
   74MOL0     H 9969   8.904   1.165  12.038  2.6897 -0.8341 -2.0386
   74MOL0     H 9970   8.829   0.977  12.196 -2.4911 -1.3120  1.2390
   74MOL0     H 9971   8.723   0.921  12.063  0.1994 -0.5011  0.4029
   74MOL0     H 9972   9.172   0.482  11.364  0.3424 -0.3394  0.1266
   74MOL0     H 9973   9.331   0.350  11.223  1.3288 -0.3894 -0.2060
   74MOL0     H 9974   9.369   0.254  10.696 -1.7220 -0.4233  0.9945
   74MOL0     H 9975   9.507   0.075  10.582 -1.5675  1.2113  0.0731
   74MOL0     H 9976  10.756   0.906  11.060 -1.8240 -0.6006 -2.8898
   74MOL0     H 9977  10.931   0.756  11.148  2.2533 -2.7388 -0.6364
   74MOL0     H 9978  11.237   0.431  11.054 -0.9498  2.0298  0.0439
   74MOL0     H 9979  11.445   0.288  11.101 -2.2314  0.3678  2.7895
   74MOL0     H 9980  11.863   0.353  11.177 -2.4128 -1.3870 -0.1469
   74MOL0     H 9981  11.800   0.509  11.203  0.2733 -1.4723 -3.6244
   74MOL0     H 9982  11.766   0.377  11.462 -2.2708  2.6464  0.3280
   74MOL0     H 9983  11.859   0.508  11.428  2.7694 -0.7994  0.1405
   74MOL0     H 9984  12.031   0.360  11.491  1.6517  0.8469 -1.6388
   74MOL0     H 9985  12.046   0.350  11.327  0.2544  0.3830  1.0374
   74MOL0     H 9986  12.031   0.143  11.386 -0.9176 -0.0057 -1.7977
   74MOL0     H 9987  11.855   0.152  11.355 -0.0254 -0.8310  1.3713
   74MOL0     H 9988  11.861   0.031  11.737 -1.3442 -0.5240 -1.4630
   74MOL0     H 9989  11.638   0.605  11.300  0.4883 -1.8530  0.9227
   74MOL0     H 9990  11.438   0.744  11.262 -2.6713  0.9262 -1.0261
   75MOL0     O 9991   2.478   2.746   1.539 -0.0440 -0.0956 -0.3769
   75MOL0     C 9992   2.505   2.781   1.428  0.0359 -0.3260  0.4236
   75MOL0     O 9993   2.415   2.844   1.344 -0.4296  0.1824  0.2550
   75MOL0     C 9994   2.277   2.849   1.370 -0.6431  0.5422  0.2415
   75MOL0     C 9995   2.192   2.829   1.262  0.1524  1.3240 -0.3433
   75MOL0     C 9996   2.051   2.831   1.275  0.1877 -0.5379  0.1647
   75MOL0     C 9997   1.994   2.848   1.404  0.3217 -0.0837  0.4365
   75MOL0     O 9998   1.853   2.851   1.412 -0.7211 -0.4088  0.0473
   75MOL0     C 9999   1.802   2.952   1.496 -0.1714 -1.1111  0.0748
   75MOL0     C10000   1.647   2.966   1.486 -0.1121 -0.2371 -0.2452
   75MOL0     C10001   1.597   3.086   1.567  1.3579 -0.4057 -0.7698
   75MOL0     C10002   1.448   3.114   1.527  0.4729 -0.0960  0.2044
   75MOL0     C10003   1.445   3.238   1.424  0.2141  0.5654  0.1661
   75MOL0     C10004   1.456   3.373   1.500 -0.0924  0.6419  0.4493
   75MOL0     C10005   1.386   3.483   1.413  0.5647 -0.7918  0.1170
   75MOL0     C10006   1.472   3.539   1.295 -0.0477 -0.2130  0.0867
   75MOL0     N10007   1.592   3.608   1.333  0.1746  0.0653  0.6328
   75MOL0     C10008   1.689   3.636   1.234  0.0006 -0.3897  0.1668
   75MOL0     C10009   1.794   3.703   1.298  0.5597  0.4093  0.0223
   75MOL0     C10010   1.913   3.755   1.230  0.7841 -1.0043 -0.5331
   75MOL0     C10011   2.002   3.655   1.167  0.2662 -0.4426 -0.0701
   75MOL0     C10012   2.137   3.719   1.137 -0.1008 -0.7757 -0.0200
   75MOL0     C10013   2.219   3.630   1.045 -0.5749  0.6321  0.0192
   75MOL0     O10014   2.358   3.679   1.054 -0.3980 -0.4507 -1.0769
   75MOL0     C10015   2.421   3.741   0.945 -0.3600  0.1337 -0.2891
   75MOL0     C10016   2.561   3.771   0.961 -0.8155 -0.3530 -0.3200
   75MOL0     C10017   2.627   3.838   0.861  0.1190 -0.5977  0.2741
   75MOL0     C10018   2.771   3.884   0.885  0.3184 -0.2369  0.3928
   75MOL0     C10019   2.558   3.878   0.742 -0.2813  0.6591  0.2417
   75MOL0     C10020   2.624   3.941   0.633  0.0203 -0.9729  0.5389
   75MOL0     O10021   2.598   3.891   0.514 -0.3138 -0.1060  0.4882
   75MOL0     C10022   2.629   3.942   0.396  0.4943  0.3123  0.6158
   75MOL0     C10023   2.521   3.940   0.307  0.6911 -0.3604  0.6510
   75MOL0     C10024   2.544   3.995   0.181  0.0950 -0.7674 -0.0214
   75MOL0     C10025   2.673   4.047   0.139  0.9592  0.7199 -0.7890
   75MOL0     O10026   2.702   4.066   0.005  0.6509 -0.0201 -0.7271
   75MOL0     C10027   2.608   4.038  -0.093 -0.2776  0.5519  0.2431
   75MOL0     C10028   2.643   4.078  -0.240  0.1581  0.5921  0.0046
   75MOL0     C10029   2.657   4.228  -0.265  0.5695 -0.6169 -0.9792
   75MOL0     C10030   2.803   4.264  -0.287  0.5091  0.4155  0.5615
   75MOL0     C10031   2.825   4.416  -0.291  0.2774 -0.4105 -0.1647
   75MOL0     C10032   2.981   4.444  -0.298  0.4297  0.0131 -0.0326
   75MOL0     C10033   3.002   4.603  -0.276  0.4549  0.1033 -0.0908
   75MOL0     C10034   3.151   4.635  -0.254 -0.1032 -0.2830 -0.5667
   75MOL0    Cl10035   3.227   4.656  -0.413  0.4139  0.3704 -0.0832
   75MOL0     C10036   2.773   4.049   0.244  0.2366  0.1732 -1.0496
   75MOL0     C10037   2.753   4.002   0.368  1.0619 -0.0423 -0.1982
   75MOL0     O10038   2.692   4.039   0.652  0.4485 -0.0467  0.7386
   75MOL0     C10039   2.422   3.856   0.732 -0.1364  0.1252  0.4701
   75MOL0     C10040   2.353   3.787   0.829  0.5462  0.0858  0.3273
   75MOL0     N10041   1.756   3.707   1.433 -0.0452 -0.8159  0.4837
   75MOL0     N10042   1.636   3.662   1.446  0.3693  0.1112 -0.3251
   75MOL0     C10043   2.082   2.856   1.518  0.3148  0.3227  0.3046
   75MOL0     C10044   2.218   2.869   1.490 -0.3079  1.0096 -0.5031
   75MOL0     C10045   2.645   2.762   1.392 -0.9400  0.8916  0.3728
   75MOL0     C10046   2.704   2.828   1.282  0.0291  0.3864 -0.0139
   75MOL0     C10047   2.821   2.789   1.229 -0.3808 -0.9926  1.1014
   75MOL0     C10048   2.907   2.694   1.302  0.7368  0.7794  0.7350
   75MOL0     O10049   3.018   2.639   1.257 -0.7611 -0.2875  0.2543
   75MOL0     C10050   3.123   2.738   1.269  0.0285  0.9175 -0.4165
   75MOL0     C10051   3.254   2.673   1.215  1.2492  0.9025 -0.2308
   75MOL0     C10052   3.314   2.571   1.310  0.3548 -0.1119 -0.1559
   75MOL0     C10053   3.425   2.481   1.240  0.3129  0.2165 -1.0098
   75MOL0     C10054   3.489   2.388   1.333  0.0222 -0.2192  0.3120
   75MOL0     C10055   3.531   2.314   1.420 -0.3965 -0.6955  0.1567
   75MOL0     C10056   2.846   2.639   1.420 -0.6380 -0.8802 -0.5534
   75MOL0     C10057   2.715   2.665   1.464 -1.3523  0.3327 -0.0053
   75MOL0     H10058   2.234   2.818   1.162  0.2371 -3.2688 -0.0046
   75MOL0     H10059   1.986   2.807   1.191 -2.6859  0.6214  1.9051
   75MOL0     H10060   1.823   2.927   1.600  2.7210 -0.7885 -0.3504
   75MOL0     H10061   1.848   3.046   1.465 -3.1824  0.4655  0.0114
   75MOL0     H10062   1.618   2.995   1.385 -1.2588  2.2113  0.7170
   75MOL0     H10063   1.589   2.881   1.522 -0.9325  0.8889  1.1846
   75MOL0     H10064   1.582   3.058   1.671 -0.4565 -0.8747 -1.1242
   75MOL0     H10065   1.673   3.165   1.564  2.1937 -1.2231 -2.4609
   75MOL0     H10066   1.410   3.022   1.482 -2.3674  0.6477  0.8624
   75MOL0     H10067   1.382   3.137   1.611  1.7910 -1.4153  1.6749
   75MOL0     H10068   1.537   3.229   1.366  1.6419 -2.2537  2.5350
   75MOL0     H10069   1.358   3.230   1.358 -0.3520  0.5959  0.8826
   75MOL0     H10070   1.389   3.373   1.586 -1.9550 -2.4102 -0.8342
   75MOL0     H10071   1.553   3.409   1.536 -1.4711  3.8744  1.2762
   75MOL0     H10072   1.289   3.449   1.374  0.5755  1.4690 -2.1428
   75MOL0     H10073   1.371   3.563   1.487 -2.6576 -0.7629 -0.4185
   75MOL0     H10074   1.407   3.605   1.237 -1.1886 -1.6872 -0.3817
   75MOL0     H10075   1.508   3.460   1.229  2.0694  0.9229 -0.1922
   75MOL0     H10076   1.680   3.626   1.127  2.2643 -2.2865  0.0569
   75MOL0     H10077   1.888   3.834   1.158 -1.6454 -1.9066 -0.7937
   75MOL0     H10078   1.966   3.819   1.301  0.3998 -1.2341 -0.0332
   75MOL0     H10079   1.952   3.610   1.081 -2.5382 -0.2659  1.3561
   75MOL0     H10080   2.011   3.566   1.230  0.9682 -1.0850 -1.0590
   75MOL0     H10081   2.180   3.728   1.237 -0.8411  0.6582  0.1994
   75MOL0     H10082   2.117   3.817   1.094 -0.2949  0.2080  2.1919
   75MOL0     H10083   2.179   3.641   0.943 -0.4592  0.7292 -0.0169
   75MOL0     H10084   2.204   3.528   1.082 -2.9926  1.4981  1.6453
   75MOL0     H10085   2.617   3.730   1.044 -0.2501 -2.7780 -1.8312
   75MOL0     H10086   2.799   3.821   0.970 -0.6343 -2.4230 -0.8219
   75MOL0     H10087   2.823   3.860   0.792 -0.4009  1.2315 -0.4227
   75MOL0     H10088   2.774   3.991   0.908 -3.3771  0.0637  0.0509
   75MOL0     H10089   2.420   3.919   0.342  0.3608  2.9271  2.0664
   75MOL0     H10090   2.460   4.016   0.116  0.0544 -1.8712 -0.3297
   75MOL0     H10091   2.583   3.931  -0.096 -1.2723  0.7712 -3.1781
   75MOL0     H10092   2.512   4.089  -0.082 -1.6340 -0.8117 -3.4702
   75MOL0     H10093   2.739   4.041  -0.277 -1.2212 -0.3865 -2.8947
   75MOL0     H10094   2.565   4.044  -0.309 -1.2896 -0.4757  2.0640
   75MOL0     H10095   2.621   4.278  -0.174  3.5951  0.1720 -0.0673
   75MOL0     H10096   2.602   4.266  -0.351 -0.3523  2.1288  0.6944
   75MOL0     H10097   2.855   4.223  -0.200  0.7414 -1.1207 -0.2651
   75MOL0     H10098   2.847   4.216  -0.375  1.1191 -1.2642  1.7497
   75MOL0     H10099   2.789   4.448  -0.193 -1.6414 -3.9382  0.4384
   75MOL0     H10100   2.761   4.475  -0.357 -1.4201 -1.2124  0.7050
   75MOL0     H10101   3.040   4.391  -0.223  2.2834  0.8435 -0.8456
   75MOL0     H10102   3.019   4.429  -0.399 -0.3463  0.0924 -0.3470
   75MOL0     H10103   2.938   4.643  -0.196  1.1043 -1.0860  1.0712
   75MOL0     H10104   2.970   4.646  -0.371  2.0684  0.6160 -0.4301
   75MOL0     H10105   3.209   4.564  -0.195  0.2531 -0.6912 -1.4014
   75MOL0     H10106   3.158   4.737  -0.214  1.1347  0.1634 -1.8329
   75MOL0     H10107   2.874   4.078   0.219 -0.1195 -0.2225 -3.0919
   75MOL0     H10108   2.828   4.005   0.445  0.5441 -0.2630  0.3219
   75MOL0     H10109   2.375   3.900   0.644  4.0364 -2.2380 -3.3942
   75MOL0     H10110   2.245   3.785   0.817  0.3807  0.6829  1.5939
   75MOL0     H10111   2.052   2.870   1.621  0.6258  1.1239  0.2964
   75MOL0     H10112   2.270   2.883   1.585 -0.0954  1.7756 -0.7294
   75MOL0     H10113   2.649   2.897   1.219 -2.1380 -1.6249 -0.4823
   75MOL0     H10114   2.859   2.809   1.130  1.6624 -0.6720  1.9065
   75MOL0     H10115   3.090   2.822   1.207 -1.0319 -0.7261 -2.1811
   75MOL0     H10116   3.135   2.768   1.373  0.0635  0.5717 -0.3207
   75MOL0     H10117   3.336   2.745   1.216  1.5261  0.5915 -0.1391
   75MOL0     H10118   3.236   2.628   1.116  1.5977  2.5907 -1.1003
   75MOL0     H10119   3.237   2.499   1.339 -0.5665  0.9982  0.2096
   75MOL0     H10120   3.355   2.616   1.401  0.5514 -2.5087  1.0251
   75MOL0     H10121   3.510   2.541   1.206  0.2208  2.0730  1.7236
   75MOL0     H10122   3.387   2.425   1.154  0.5687 -1.7108  0.0667
   75MOL0     H10123   3.572   2.264   1.506  1.5983  1.4459  0.5379
   75MOL0     H10124   2.901   2.557   1.467  1.2040  0.5169 -0.1378
   75MOL0     H10125   2.677   2.616   1.553  0.7147 -1.3080  0.0573
   76MOL0     O10126   6.679   0.276   7.380  0.1524 -0.2261 -0.1533
   76MOL0     C10127   6.672   0.401   7.385 -0.0005 -0.0700 -0.6778
   76MOL0     O10128   6.772   0.489   7.399  0.5578 -0.1421 -0.0760
   76MOL0     C10129   6.892   0.422   7.400 -0.0719 -0.4402  0.1372
   76MOL0     C10130   6.975   0.437   7.508 -0.7542 -0.5078 -0.4511
   76MOL0     C10131   7.111   0.401   7.498 -0.2832 -0.4826  0.0434
   76MOL0     C10132   7.163   0.320   7.401 -0.3404 -0.3638 -0.1215
   76MOL0     O10133   7.296   0.284   7.390  0.5531  0.0615 -0.6194
   76MOL0     C10134   7.308   0.152   7.444 -1.1073 -0.3442 -0.3477
   76MOL0     C10135   7.457   0.128   7.467 -0.1585  0.7377  0.6717
   76MOL0     C10136   7.487  -0.014   7.505  0.2142 -0.4501 -0.3624
   76MOL0     C10137   7.443  -0.129   7.412  0.2252  0.0831 -0.3162
   76MOL0     C10138   7.525  -0.251   7.459  1.0065  0.4296 -0.2335
   76MOL0     C10139   7.501  -0.371   7.377 -0.4289  0.8520 -0.4101
   76MOL0     C10140   7.523  -0.499   7.465 -0.5896  0.8451 -0.2166
   76MOL0     C10141   7.671  -0.524   7.479  0.6394  0.1268 -0.6278
   76MOL0     N10142   7.698  -0.607   7.596 -0.5333 -0.4713  0.2892
   76MOL0     C10143   7.731  -0.558   7.720  0.0530  0.2528  0.3908
   76MOL0     C10144   7.707  -0.663   7.802  0.3920  0.1015 -0.2397
   76MOL0     C10145   7.732  -0.662   7.952  0.2129  0.3629 -0.3743
   76MOL0     C10146   7.703  -0.806   8.009 -0.6452  0.6666  0.6208
   76MOL0     C10147   7.754  -0.832   8.147  0.7149 -0.4559  1.1859
   76MOL0     C10148   7.655  -0.787   8.257 -0.6525 -0.6682 -0.4595
   76MOL0     O10149   7.705  -0.852   8.374 -0.0728 -0.1882  0.4674
   76MOL0     C10150   7.669  -0.792   8.492  0.3959  0.2670 -0.4921
   76MOL0     C10151   7.585  -0.867   8.576  0.3718  1.0867 -0.0825
   76MOL0     C10152   7.532  -0.817   8.698  0.4251 -0.4038  0.0642
   76MOL0     C10153   7.454  -0.916   8.775  0.0571  1.0627 -0.5642
   76MOL0     C10154   7.555  -0.685   8.731  0.1716  0.1673  1.0530
   76MOL0     C10155   7.508  -0.618   8.850 -1.1196 -0.3233 -0.5628
   76MOL0     O10156   7.506  -0.485   8.842 -0.3159 -0.7339 -0.2413
   76MOL0     C10157   7.432  -0.427   8.937  0.1888  0.1753 -0.1079
   76MOL0     C10158   7.503  -0.354   9.028 -0.1581 -0.6723 -0.2997
   76MOL0     C10159   7.435  -0.304   9.145 -0.0285 -0.8044 -0.5758
   76MOL0     C10160   7.296  -0.316   9.166 -1.0501  0.3474  0.7945
   76MOL0     O10161   7.255  -0.255   9.276  0.2507 -0.0955 -0.0191
   76MOL0     C10162   7.119  -0.208   9.290  0.3720 -0.0237  0.6666
   76MOL0     C10163   7.070  -0.084   9.212  0.4389 -0.6344 -0.7746
   76MOL0     C10164   7.151   0.038   9.252  0.1626 -1.0553  0.3281
   76MOL0     C10165   7.097   0.160   9.167 -0.2227  0.3311  0.3315
   76MOL0     C10166   7.106   0.283   9.255 -0.3382  0.0083  0.3869
   76MOL0     C10167   7.079   0.410   9.174 -0.1900  0.9737 -0.1067
   76MOL0     C10168   7.135   0.533   9.242  0.0774 -0.7354 -0.5234
   76MOL0     C10169   7.062   0.664   9.194  0.0853  0.9151 -1.0652
   76MOL0    Cl10170   7.122   0.696   9.037  0.0662 -0.0441 -0.3451
   76MOL0     C10171   7.232  -0.368   9.048  0.3019  0.0391 -0.5499
   76MOL0     C10172   7.296  -0.442   8.948  0.6462  0.7746 -0.1464
   76MOL0     O10173   7.485  -0.681   8.949  0.5588 -0.1540 -0.2110
   76MOL0     C10174   7.633  -0.605   8.636  0.5746  0.4995 -0.8652
   76MOL0     C10175   7.691  -0.661   8.525  0.1674  0.0495 -0.5058
   76MOL0     N10176   7.673  -0.772   7.723 -0.4450  0.3496  0.2988
   76MOL0     N10177   7.673  -0.740   7.601  0.2537 -0.5916 -0.1225
   76MOL0     C10178   7.078   0.303   7.285  0.6095  0.4955  0.9740
   76MOL0     C10179   6.946   0.348   7.294 -0.0370 -0.4304 -0.2912
   76MOL0     C10180   6.547   0.465   7.367  0.0977 -0.5199 -0.0074
   76MOL0     C10181   6.518   0.582   7.440  0.0362  0.3661  0.2670
   76MOL0     C10182   6.382   0.628   7.439 -0.0781  0.4384  0.1411
   76MOL0     C10183   6.283   0.565   7.362  0.1906  0.1750  0.4142
   76MOL0     O10184   6.147   0.598   7.363  0.4449 -0.4508  0.2507
   76MOL0     C10185   6.098   0.712   7.445 -0.6865 -0.2335  1.0335
   76MOL0     C10186   5.948   0.709   7.457  0.4005 -0.9126  0.0419
   76MOL0     C10187   5.889   0.826   7.541  0.9713  0.2127  0.1167
   76MOL0     C10188   5.922   0.971   7.492 -0.1645 -0.8527 -0.0797
   76MOL0     C10189   5.845   0.990   7.367  0.3324 -1.1033  0.7202
   76MOL0     C10190   5.773   1.013   7.274 -0.3843  0.3139  0.3930
   76MOL0     C10191   6.322   0.463   7.281 -0.1697  0.7588 -0.3395
   76MOL0     C10192   6.451   0.410   7.288  1.1904  0.3589  0.7287
   76MOL0     H10193   6.942   0.493   7.595  1.6257  2.1623 -1.1039
   76MOL0     H10194   7.185   0.415   7.577 -0.0791 -0.7849 -0.0894
   76MOL0     H10195   7.263   0.156   7.544  0.4737  3.2752  0.3578
   76MOL0     H10196   7.264   0.079   7.375 -0.8037  0.6755 -1.6634
   76MOL0     H10197   7.526   0.140   7.383 -0.6841  1.3289  0.3173
   76MOL0     H10198   7.487   0.189   7.552  3.2073  3.5759 -2.2179
   76MOL0     H10199   7.592  -0.025   7.532  0.0536 -0.2820  0.3586
   76MOL0     H10200   7.434  -0.027   7.600 -0.7310  0.9695 -0.6599
   76MOL0     H10201   7.334  -0.140   7.412 -0.0695  2.4551 -0.9515
   76MOL0     H10202   7.475  -0.110   7.309  1.6433  0.2430  0.1298
   76MOL0     H10203   7.632  -0.230   7.450  0.9867  0.7583  0.2776
   76MOL0     H10204   7.498  -0.263   7.564  2.3648  2.5958  0.4173
   76MOL0     H10205   7.399  -0.373   7.336 -0.4947 -0.1889 -0.2267
   76MOL0     H10206   7.575  -0.372   7.296  1.6968  6.1002  1.0959
   76MOL0     H10207   7.476  -0.485   7.562  0.1611 -3.0773  0.8885
   76MOL0     H10208   7.485  -0.591   7.420 -0.6282  0.7598 -0.0100
   76MOL0     H10209   7.724  -0.428   7.478 -2.0584  1.7062 -1.2363
   76MOL0     H10210   7.703  -0.586   7.394 -2.3183 -0.8233 -1.1537
   76MOL0     H10211   7.777  -0.461   7.735  0.9556  0.0928 -1.1158
   76MOL0     H10212   7.830  -0.619   7.973  0.7816 -1.5751  1.2950
   76MOL0     H10213   7.666  -0.610   8.022 -0.1804 -2.9332  1.9400
   76MOL0     H10214   7.767  -0.869   7.946 -2.1936  0.5718 -0.9110
   76MOL0     H10215   7.600  -0.838   7.993 -1.5003  3.0850  0.8795
   76MOL0     H10216   7.856  -0.797   8.168  1.6001 -2.7348  0.8795
   76MOL0     H10217   7.750  -0.941   8.152 -1.3465 -0.5080 -0.3368
   76MOL0     H10218   7.549  -0.807   8.237 -0.7270 -0.9966  0.2302
   76MOL0     H10219   7.652  -0.678   8.273  0.3671 -0.5300 -1.1133
   76MOL0     H10220   7.565  -0.969   8.545  0.9435  1.2133 -0.9076
   76MOL0     H10221   7.464  -1.019   8.739 -1.9853  0.1819  1.1936
   76MOL0     H10222   7.466  -0.907   8.884 -1.4999  4.3322 -0.5437
   76MOL0     H10223   7.350  -0.891   8.755 -1.6169 -4.3088  0.0054
   76MOL0     H10224   7.610  -0.342   9.011 -0.2145 -1.2873 -1.1561
   76MOL0     H10225   7.485  -0.255   9.228 -0.3105 -1.5642  0.0528
   76MOL0     H10226   7.053  -0.290   9.261  1.9142 -1.5494  1.2628
   76MOL0     H10227   7.107  -0.175   9.393  4.0117 -1.3136  1.6758
   76MOL0     H10228   7.082  -0.104   9.105  1.1471  1.1291 -1.0614
   76MOL0     H10229   6.965  -0.079   9.243  0.5549 -0.6889 -0.3696
   76MOL0     H10230   7.253   0.018   9.221  0.3786  0.3890  0.0401
   76MOL0     H10231   7.148   0.067   9.358  1.5718 -1.1324  0.4018
   76MOL0     H10232   7.152   0.181   9.075 -2.8285 -0.4494 -1.5117
   76MOL0     H10233   6.995   0.144   9.132  0.0925 -1.7080  0.2765
   76MOL0     H10234   7.206   0.287   9.300 -0.0888 -0.4186 -0.1247
   76MOL0     H10235   7.025   0.291   9.329 -0.1004  0.8256  0.5690
   76MOL0     H10236   7.114   0.402   9.071 -0.8080 -1.3662 -0.2064
   76MOL0     H10237   6.970   0.418   9.170 -0.0973  2.3237 -0.2779
   76MOL0     H10238   7.242   0.539   9.220 -0.2766  4.4109 -2.1703
   76MOL0     H10239   7.132   0.518   9.350  2.8150  0.8331 -0.1328
   76MOL0     H10240   7.089   0.752   9.254 -1.9582  0.7066  0.2589
   76MOL0     H10241   6.955   0.640   9.197  0.2651  0.2186  0.8954
   76MOL0     H10242   7.124  -0.375   9.053  0.4433 -1.8012  1.3031
   76MOL0     H10243   7.245  -0.490   8.865  5.0199 -0.8246 -2.2146
   76MOL0     H10244   7.661  -0.502   8.654  0.2468  0.2234  1.5199
   76MOL0     H10245   7.767  -0.609   8.468  0.2258  1.3568  0.7228
   76MOL0     H10246   7.118   0.246   7.202 -0.4538  1.1920 -0.0359
   76MOL0     H10247   6.894   0.335   7.199  0.5718 -0.6634 -0.6051
   76MOL0     H10248   6.603   0.622   7.495  0.5669 -0.7556  0.2922
   76MOL0     H10249   6.367   0.710   7.509 -1.3007 -0.4859  1.0205
   76MOL0     H10250   6.150   0.693   7.539 -0.8086  0.4713  1.2492
   76MOL0     H10251   6.144   0.798   7.394  0.8223 -0.2568  2.2758
   76MOL0     H10252   5.911   0.615   7.498 -2.3621  1.1762  2.8119
   76MOL0     H10253   5.893   0.710   7.362  1.0900  1.7598 -0.4227
   76MOL0     H10254   5.920   0.813   7.645  0.7965 -2.6000 -0.0930
   76MOL0     H10255   5.780   0.819   7.547  0.7337  3.0668  0.5179
   76MOL0     H10256   6.027   0.991   7.469 -0.5262 -0.6691 -1.6649
   76MOL0     H10257   5.890   1.040   7.571 -3.8238 -1.6211 -0.7369
   76MOL0     H10258   5.712   1.019   7.186  1.7144 -0.2662 -1.1900
   76MOL0     H10259   6.256   0.405   7.218 -0.8580  0.3040  0.7688
   76MOL0     H10260   6.469   0.324   7.224 -0.1909 -2.1408  3.4440
   77MOL0     O10261   5.984   8.909   6.463 -0.1413  0.0939  0.8864
   77MOL0     C10262   6.007   8.889   6.582 -0.6870  0.4503  0.5949
   77MOL0     O10263   5.946   8.796   6.659 -0.1666  0.3627  0.2556
   77MOL0     C10264   5.852   8.717   6.594 -0.7849 -0.0858 -0.2802
   77MOL0     C10265   5.894   8.605   6.523  0.2752  0.1742  1.0914
   77MOL0     C10266   5.796   8.515   6.470 -0.2728 -0.1557  0.1023
   77MOL0     C10267   5.660   8.545   6.465  0.1148  0.1543 -0.3933
   77MOL0     O10268   5.577   8.458   6.398  0.8316 -0.0139 -0.1399
   77MOL0     C10269   5.446   8.508   6.351 -0.0510  0.6822  0.1192
   77MOL0     C10270   5.394   8.428   6.240  0.2091  0.0442  0.4211
   77MOL0     C10271   5.247   8.452   6.200 -0.2869  0.3141  0.7299
   77MOL0     C10272   5.215   8.380   6.064  0.7401 -0.3669 -1.0281
   77MOL0     C10273   5.077   8.434   6.022  0.0320 -0.9663  0.2703
   77MOL0     C10274   5.052   8.407   5.881  0.2172  1.3655  0.7446
   77MOL0     C10275   4.930   8.484   5.841  0.8473  0.1153 -0.4807
   77MOL0     C10276   4.919   8.481   5.689  1.3466 -0.4387  0.3210
   77MOL0     N10277   4.791   8.542   5.645  0.1652 -0.8060 -0.2229
   77MOL0     C10278   4.705   8.479   5.559 -1.3680  0.7266 -1.1610
   77MOL0     C10279   4.613   8.568   5.529 -0.5242  0.4847  0.7001
   77MOL0     C10280   4.506   8.561   5.418 -0.4496 -0.2900  0.1625
   77MOL0     C10281   4.478   8.695   5.357 -0.0613 -0.3522 -0.3928
   77MOL0     C10282   4.432   8.688   5.215 -0.1977  0.1344 -0.5048
   77MOL0     C10283   4.341   8.795   5.175  0.5361 -0.4508 -0.4581
   77MOL0     O10284   4.202   8.757   5.223  0.0732 -0.8534  0.4611
   77MOL0     C10285   4.090   8.833   5.187  0.0929  0.3449 -0.4465
   77MOL0     C10286   3.974   8.819   5.267 -0.0623  0.5229  1.6169
   77MOL0     C10287   3.866   8.909   5.238  0.6061 -0.1084  0.2517
   77MOL0     C10288   3.757   8.909   5.350 -0.1501  0.0914  0.6285
   77MOL0     C10289   3.867   8.997   5.124 -0.2495 -0.1401 -0.3476
   77MOL0     C10290   3.753   9.081   5.088  0.5054  0.0982 -0.0195
   77MOL0     O10291   3.772   9.162   4.977 -0.0528  0.4134  0.0329
   77MOL0     C10292   3.693   9.272   4.971  0.0707 -0.4039  0.2034
   77MOL0     C10293   3.606   9.278   4.865 -0.4989 -0.8832 -0.1847
   77MOL0     C10294   3.535   9.396   4.845  0.3622  0.0417 -0.1938
   77MOL0     C10295   3.553   9.506   4.930 -0.1849 -0.6434 -0.2738
   77MOL0     O10296   3.474   9.617   4.904  0.0598  0.0967  0.1142
   77MOL0     C10297   3.491   9.740   4.978  0.0620 -0.1570 -0.9154
   77MOL0     C10298   3.434   9.865   4.920 -0.1090  0.9898 -0.1247
   77MOL0     C10299   3.285   9.868   4.900  0.3972  0.1095 -0.2622
   77MOL0     C10300   3.244   9.944   4.761  0.1923 -0.0151 -0.7876
   77MOL0     C10301   3.300  10.089   4.754 -0.4587 -0.7075  0.3271
   77MOL0     C10302   3.244  10.158   4.628  0.8926 -0.0426  0.0880
   77MOL0     C10303   3.294  10.307   4.628 -0.2696  0.6135  0.3825
   77MOL0     C10304   3.194  10.381   4.547  0.5336  0.6303  0.6916
   77MOL0    Cl10305   3.205  10.353   4.366  0.1140 -0.0066 -0.0152
   77MOL0     C10306   3.642   9.496   5.033  0.2164 -0.6298 -1.0404
   77MOL0     C10307   3.715   9.380   5.054 -0.0091 -0.6166  0.0640
   77MOL0     O10308   3.645   9.064   5.140 -0.8436  0.4627  0.6177
   77MOL0     C10309   3.983   8.999   5.050  0.5264 -0.7599 -1.3416
   77MOL0     C10310   4.093   8.917   5.078  0.3395  0.3365 -0.7187
   77MOL0     N10311   4.648   8.681   5.593 -0.1870  0.2533 -0.2727
   77MOL0     N10312   4.752   8.671   5.665 -0.2413  0.5851 -0.7341
   77MOL0     C10313   5.623   8.664   6.536  0.9788  0.4066 -0.6569
   77MOL0     C10314   5.719   8.748   6.599 -0.2403  0.3373  0.4512
   77MOL0     C10315   6.106   8.980   6.645  0.4860 -0.5298  0.0863
   77MOL0     C10316   6.155   9.087   6.577 -0.3525 -0.6935 -0.3158
   77MOL0     C10317   6.248   9.180   6.639  0.0928 -0.0584 -0.0829
   77MOL0     C10318   6.267   9.169   6.774 -0.0260 -0.4608  0.1499
   77MOL0     O10319   6.356   9.251   6.841 -0.5337 -0.3527 -0.3846
   77MOL0     C10320   6.336   9.397   6.832 -0.2433  0.2084 -0.0521
   77MOL0     C10321   6.464   9.452   6.763  0.5564  0.0426  0.4853
   77MOL0     C10322   6.448   9.601   6.727 -0.1729  0.3983 -0.0811
   77MOL0     C10323   6.412   9.593   6.573  0.7380 -0.5780 -0.0007
   77MOL0     C10324   6.284   9.540   6.547 -0.5183  1.4159 -0.3624
   77MOL0     C10325   6.175   9.499   6.536  0.0165  0.9913  0.0399
   77MOL0     C10326   6.219   9.064   6.846  0.7488 -0.3322 -0.2170
   77MOL0     C10327   6.148   8.963   6.783 -1.6906 -0.4139  0.3926
   77MOL0     H10328   6.001   8.587   6.515  0.5466  2.3297 -1.2960
   77MOL0     H10329   5.824   8.427   6.413  0.8819  1.3914 -1.8531
   77MOL0     H10330   5.376   8.502   6.435  0.9410 -3.3239  0.8786
   77MOL0     H10331   5.450   8.611   6.316 -2.1305 -0.1586 -3.0083
   77MOL0     H10332   5.451   8.457   6.152 -2.2958  1.1779 -0.9466
   77MOL0     H10333   5.407   8.323   6.268  0.2464  0.2059  1.0313
   77MOL0     H10334   5.180   8.396   6.265 -0.5375  0.7063  0.8089
   77MOL0     H10335   5.220   8.557   6.211  1.1447  0.6115  1.7181
   77MOL0     H10336   5.291   8.386   5.986  2.0117 -0.0600  0.1883
   77MOL0     H10337   5.202   8.275   6.092 -1.7539 -0.1256 -0.9695
   77MOL0     H10338   4.991   8.404   6.083 -1.1331  0.4220 -0.6458
   77MOL0     H10339   5.077   8.542   6.037 -1.7905 -1.1469  2.0665
   77MOL0     H10340   5.136   8.434   5.817 -1.3274  0.7045 -1.6996
   77MOL0     H10341   5.031   8.304   5.850 -2.3836  1.8313  0.7728
   77MOL0     H10342   4.851   8.434   5.898  2.5526 -1.1447  0.8980
   77MOL0     H10343   4.930   8.589   5.870 -0.0780 -0.4391  1.6735
   77MOL0     H10344   4.938   8.379   5.655  1.9749 -0.9214  1.9914
   77MOL0     H10345   5.008   8.533   5.653  0.7871 -0.2927 -0.8848
   77MOL0     H10346   4.720   8.378   5.523 -2.4722 -1.0994  2.9588
   77MOL0     H10347   4.530   8.495   5.335 -2.5879  0.4777 -1.1468
   77MOL0     H10348   4.416   8.534   5.474  0.1242  1.0730  1.8380
   77MOL0     H10349   4.568   8.756   5.344 -2.0330  2.3589 -2.5912
   77MOL0     H10350   4.401   8.748   5.414  0.7529 -0.5204  0.8848
   77MOL0     H10351   4.378   8.593   5.208  0.8615 -0.6165  0.9653
   77MOL0     H10352   4.511   8.682   5.140 -1.8948 -1.0118 -2.3221
   77MOL0     H10353   4.331   8.801   5.067 -1.3317 -2.3125 -0.4540
   77MOL0     H10354   4.371   8.892   5.217 -1.5164  0.3142 -0.6061
   77MOL0     H10355   3.963   8.749   5.349  1.2243 -0.9493  0.5806
   77MOL0     H10356   3.720   9.006   5.383  0.4924  0.5372  0.0853
   77MOL0     H10357   3.665   8.859   5.319 -0.7119  1.3653  0.1707
   77MOL0     H10358   3.797   8.857   5.438  1.4646  0.5565  0.2163
   77MOL0     H10359   3.618   9.198   4.792 -1.4473 -2.7379  1.5881
   77MOL0     H10360   3.465   9.415   4.765 -0.4896  3.0379  1.1173
   77MOL0     H10361   3.454   9.732   5.081  0.4582  1.3314 -0.6287
   77MOL0     H10362   3.600   9.744   4.984 -0.0497  2.3845  1.3418
   77MOL0     H10363   3.463   9.958   4.969 -2.0774  2.5370 -1.7101
   77MOL0     H10364   3.483   9.861   4.822  1.5079 -0.9978  0.6636
   77MOL0     H10365   3.235   9.930   4.975 -1.6674  0.9999 -2.2487
   77MOL0     H10366   3.245   9.766   4.904  0.7320 -0.0189  2.8781
   77MOL0     H10367   3.285   9.888   4.676  0.0721  0.9689 -1.5165
   77MOL0     H10368   3.135   9.951   4.769  0.3064 -0.5699  2.7222
   77MOL0     H10369   3.409  10.094   4.751 -0.3998  0.0621  2.3908
   77MOL0     H10370   3.270  10.144   4.843  2.4273  0.9278  0.3896
   77MOL0     H10371   3.268  10.118   4.529 -2.2137  1.5020 -1.4537
   77MOL0     H10372   3.135  10.155   4.640  1.0398 -0.6123  1.4712
   77MOL0     H10373   3.394  10.311   4.583 -0.4793  1.1265 -0.0616
   77MOL0     H10374   3.303  10.347   4.729  0.4283 -2.4068  1.6239
   77MOL0     H10375   3.221  10.486   4.561 -0.7463  1.1825 -0.7763
   77MOL0     H10376   3.092  10.362   4.583 -0.2999  0.2643 -1.7118
   77MOL0     H10377   3.664   9.581   5.097  1.6596 -1.3847 -0.4944
   77MOL0     H10378   3.799   9.381   5.123  2.4492 -2.8903 -2.5967
   77MOL0     H10379   3.976   9.059   4.959 -2.2301  1.2378  0.0410
   77MOL0     H10380   4.166   8.901   5.000  0.0112 -2.8828 -0.5117
   77MOL0     H10381   5.518   8.690   6.540  0.1344 -1.0056 -5.7674
   77MOL0     H10382   5.707   8.838   6.659  2.4920  0.8080  0.4004
   77MOL0     H10383   6.142   9.090   6.469  0.7253 -1.4495 -0.4716
   77MOL0     H10384   6.296   9.254   6.576  0.3869  0.9051  1.2166
   77MOL0     H10385   6.241   9.432   6.791 -0.6023 -1.6053 -0.8604
   77MOL0     H10386   6.340   9.440   6.932 -3.0470 -1.9629  1.1046
   77MOL0     H10387   6.486   9.391   6.675 -0.7640  1.6466 -1.0604
   77MOL0     H10388   6.549   9.459   6.830 -0.5066 -2.0962  2.1887
   77MOL0     H10389   6.544   9.653   6.735  1.4186 -2.1559 -1.4002
   77MOL0     H10390   6.375   9.654   6.788 -1.8743  0.6857 -2.2423
   77MOL0     H10391   6.489   9.543   6.513  2.3041 -1.2795  2.4527
   77MOL0     H10392   6.405   9.695   6.533  0.7269  0.1871  1.8889
   77MOL0     H10393   6.075   9.461   6.529 -0.0262  1.1286 -0.0917
   77MOL0     H10394   6.260   9.039   6.944 -1.5632 -3.5034  0.1023
   77MOL0     H10395   6.129   8.875   6.843  1.9536 -1.9282 -0.4022
   78MOL0     O10396   1.078   7.961   3.086 -0.0688 -0.7000 -0.3271
   78MOL0     C10397   0.976   7.896   3.070 -0.5581 -0.7077 -0.5848
   78MOL0     O10398   0.957   7.774   3.118 -0.3064 -0.1814  0.1144
   78MOL0     C10399   1.053   7.708   3.176 -0.1996  0.0903 -0.5062
   78MOL0     C10400   1.129   7.631   3.099 -0.0538 -0.3596  0.1714
   78MOL0     C10401   1.243   7.573   3.158 -0.2327 -0.0518  0.8081
   78MOL0     C10402   1.276   7.599   3.292 -0.2592  0.3797 -0.0826
   78MOL0     O10403   1.380   7.545   3.371  0.6033 -0.7231  0.7041
   78MOL0     C10404   1.450   7.446   3.304 -0.6813 -0.5493  0.1455
   78MOL0     C10405   1.555   7.397   3.409 -0.3305 -0.2970 -0.1809
   78MOL0     C10406   1.618   7.256   3.371 -0.0244  0.3630  0.2319
   78MOL0     C10407   1.703   7.195   3.492 -0.2556 -0.4667 -0.0775
   78MOL0     C10408   1.786   7.081   3.439 -0.4156  0.5246 -0.2768
   78MOL0     C10409   1.693   6.963   3.406  0.1897  0.1033  0.2470
   78MOL0     C10410   1.788   6.857   3.359 -0.6521 -0.9554 -0.1557
   78MOL0     C10411   1.713   6.748   3.287  0.3528 -1.1438  1.0231
   78MOL0     N10412   1.808   6.652   3.228  0.1765  0.1745  0.0034
   78MOL0     C10413   1.836   6.645   3.096 -0.3936  0.3987 -0.2393
   78MOL0     C10414   1.913   6.534   3.084 -0.3070 -0.2488  1.2532
   78MOL0     C10415   1.970   6.476   2.960 -0.5235  0.1115  0.2740
   78MOL0     C10416   2.057   6.352   2.958 -0.3064 -0.3994  0.5161
   78MOL0     C10417   2.107   6.313   2.826  0.5093 -0.2481  0.5410
   78MOL0     C10418   2.018   6.306   2.704 -0.7578 -0.5595  1.1450
   78MOL0     O10419   1.899   6.239   2.749  0.2419 -0.6142 -0.1680
   78MOL0     C10420   1.788   6.247   2.670  0.2767 -0.1035  0.0977
   78MOL0     C10421   1.674   6.197   2.725  0.4029  0.2003 -0.5580
   78MOL0     C10422   1.547   6.206   2.668  0.1070 -0.8667 -0.8159
   78MOL0     C10423   1.419   6.176   2.752  0.4018 -1.0130 -0.1401
   78MOL0     C10424   1.543   6.252   2.537  0.2093 -0.4683 -0.6048
   78MOL0     C10425   1.423   6.248   2.448  0.7871 -0.5322 -1.0245
   78MOL0     O10426   1.452   6.247   2.307  0.3979 -0.1310  0.6631
   78MOL0     C10427   1.350   6.190   2.233  0.3283 -0.5304  0.3207
   78MOL0     C10428   1.256   6.271   2.166  0.3009  0.1814 -0.2853
   78MOL0     C10429   1.149   6.208   2.094 -0.2493  0.7725  0.8433
   78MOL0     C10430   1.134   6.069   2.092 -0.2499  0.6037  0.5604
   78MOL0     O10431   1.043   5.994   2.011 -0.1594 -0.2228  0.0237
   78MOL0     C10432   0.932   6.057   1.949  0.0766 -0.7467  0.0106
   78MOL0     C10433   0.867   5.955   1.853 -1.3126 -0.2864 -0.0718
   78MOL0     C10434   0.732   5.973   1.791  0.4939 -0.3340  0.2947
   78MOL0     C10435   0.742   6.075   1.671  0.5265  0.3403 -0.7383
   78MOL0     C10436   0.601   6.117   1.620 -0.5691 -0.2132  0.7189
   78MOL0     C10437   0.496   6.015   1.571 -0.6022 -0.4864 -0.7168
   78MOL0     C10438   0.550   5.919   1.464  0.6959  0.5351  0.0954
   78MOL0     C10439   0.497   5.785   1.488 -0.7077  1.1113 -0.0434
   78MOL0    Cl10440   0.580   5.710   1.630 -0.2978  0.2921  0.2654
   78MOL0     C10441   1.224   5.990   2.155 -0.4253  0.6409  0.2972
   78MOL0     C10442   1.337   6.040   2.219  0.1912 -0.6945  1.3905
   78MOL0     O10443   1.304   6.244   2.497 -0.4976 -0.5450 -0.2174
   78MOL0     C10444   1.659   6.307   2.483  0.2944 -0.6261  0.0821
   78MOL0     C10445   1.780   6.303   2.546  0.2785 -0.5400 -0.1232
   78MOL0     N10446   1.927   6.476   3.209  0.3284  0.8991 -0.9320
   78MOL0     N10447   1.860   6.542   3.301  0.3056  0.4805  0.9869
   78MOL0     C10448   1.191   7.676   3.367 -0.1783 -0.2236 -0.1254
   78MOL0     C10449   1.084   7.740   3.309 -0.0359  0.1032 -1.2824
   78MOL0     C10450   0.871   7.955   2.990 -0.1816 -0.0159 -0.4459
   78MOL0     C10451   0.869   8.093   2.966  0.3492  0.0170  0.3445
   78MOL0     C10452   0.760   8.149   2.898 -0.6170  0.0733 -0.3584
   78MOL0     C10453   0.656   8.070   2.856  0.7182 -0.3485  0.4064
   78MOL0     O10454   0.564   8.132   2.776 -0.3522  0.4852  0.6583
   78MOL0     C10455   0.451   8.060   2.718 -0.2814 -0.2764  0.0135
   78MOL0     C10456   0.360   8.152   2.621 -0.7790  0.2261 -0.3753
   78MOL0     C10457   0.273   8.061   2.527  0.5327 -0.8358 -0.4841
   78MOL0     C10458   0.120   8.051   2.551  0.4163 -1.1463 -0.5224
   78MOL0     C10459   0.048   7.935   2.481  1.3989 -0.2971 -0.5164
   78MOL0     C10460  -0.017   7.868   2.407  0.0514 -0.6545  0.4354
   78MOL0     C10461   0.661   7.934   2.889  0.3701 -0.1291  1.2160
   78MOL0     C10462   0.767   7.874   2.951 -0.2486  0.9241  0.7861
   78MOL0     H10463   1.106   7.628   2.993 -0.9500  2.2706  0.2271
   78MOL0     H10464   1.302   7.513   3.089 -1.5552 -1.7248  1.0574
   78MOL0     H10465   1.372   7.374   3.279 -1.1930 -0.1131  0.4709
   78MOL0     H10466   1.502   7.473   3.212 -0.9080  0.0519  0.1948
   78MOL0     H10467   1.634   7.472   3.421 -0.2488 -0.4075 -0.0211
   78MOL0     H10468   1.507   7.391   3.507 -2.2414  2.3270 -0.8506
   78MOL0     H10469   1.541   7.184   3.342 -1.1187  1.0587  1.2803
   78MOL0     H10470   1.671   7.255   3.275  0.2743 -1.5171  0.3829
   78MOL0     H10471   1.768   7.274   3.531  0.5834  0.6917 -3.4117
   78MOL0     H10472   1.633   7.158   3.567 -1.8592 -1.1639 -1.8236
   78MOL0     H10473   1.837   7.122   3.352  2.9758  2.1357  2.2477
   78MOL0     H10474   1.869   7.056   3.507  1.1833  1.6029 -1.7402
   78MOL0     H10475   1.647   6.926   3.497  3.0546 -0.6256  1.4949
   78MOL0     H10476   1.612   6.990   3.338 -0.6471  0.1695  1.2486
   78MOL0     H10477   1.864   6.897   3.292 -0.3713 -2.6519 -0.9054
   78MOL0     H10478   1.843   6.819   3.446 -2.2773  2.2359  2.5265
   78MOL0     H10479   1.647   6.786   3.209 -0.2865  0.0813  2.1151
   78MOL0     H10480   1.647   6.700   3.359 -1.9044 -0.6452 -0.6076
   78MOL0     H10481   1.793   6.700   3.013 -5.6925 -1.9742  0.5410
   78MOL0     H10482   1.886   6.443   2.898  0.9982  0.9416 -2.3829
   78MOL0     H10483   2.018   6.555   2.902  0.1672 -2.3932 -2.9083
   78MOL0     H10484   1.992   6.273   2.995 -0.9695 -2.9493 -5.0545
   78MOL0     H10485   2.133   6.351   3.037 -0.9780  0.3449  1.1827
   78MOL0     H10486   2.145   6.212   2.847  2.3836  0.5417  1.1799
   78MOL0     H10487   2.187   6.382   2.797  0.0715  0.3035  0.6407
   78MOL0     H10488   2.063   6.272   2.610  0.2057 -0.2334  1.4803
   78MOL0     H10489   1.987   6.409   2.682 -1.3200 -1.1452 -1.0822
   78MOL0     H10490   1.681   6.142   2.818  1.7829 -0.5316 -1.0702
   78MOL0     H10491   1.367   6.264   2.790 -1.4270 -0.1460 -4.1090
   78MOL0     H10492   1.346   6.113   2.700 -1.2476  0.0124  0.8651
   78MOL0     H10493   1.450   6.118   2.839 -0.5116  1.4966  1.9636
   78MOL0     H10494   1.272   6.377   2.178  1.6718  0.0988 -1.1967
   78MOL0     H10495   1.074   6.274   2.051  0.3725  2.2974  1.9838
   78MOL0     H10496   0.860   6.094   2.022  1.7852  1.5606  0.6404
   78MOL0     H10497   0.971   6.143   1.894  1.6436  0.2462  2.4979
   78MOL0     H10498   0.941   5.946   1.773  0.4964  0.4697  1.4156
   78MOL0     H10499   0.867   5.863   1.913 -0.5816  0.4345  1.0957
   78MOL0     H10500   0.660   6.014   1.862 -0.6440  1.7471 -1.9108
   78MOL0     H10501   0.693   5.877   1.755  0.0352  0.4525 -1.4020
   78MOL0     H10502   0.785   6.167   1.710 -2.9009  1.4636  0.7843
   78MOL0     H10503   0.806   6.042   1.588  2.8700  2.2064  0.2109
   78MOL0     H10504   0.614   6.185   1.535 -0.3465  0.7010  1.4646
   78MOL0     H10505   0.550   6.165   1.704  1.4254 -1.1716  2.5614
   78MOL0     H10506   0.464   5.968   1.664  0.3759  2.2649  1.1572
   78MOL0     H10507   0.410   6.071   1.533  0.4836  1.9471  0.1673
   78MOL0     H10508   0.659   5.913   1.471  0.5528 -2.0150  0.9358
   78MOL0     H10509   0.514   5.952   1.366  0.0815  0.1441  0.1852
   78MOL0     H10510   0.524   5.717   1.407 -2.7792 -2.6468  2.1382
   78MOL0     H10511   0.388   5.781   1.484 -0.6425 -1.4179 -1.4985
   78MOL0     H10512   1.192   5.888   2.135  0.7479  0.2736  0.2431
   78MOL0     H10513   1.404   5.978   2.278  0.4245 -1.5761  0.2438
   78MOL0     H10514   1.657   6.350   2.383 -1.0101  2.4005  1.3014
   78MOL0     H10515   1.864   6.347   2.493 -0.0635  0.2185 -0.0464
   78MOL0     H10516   1.218   7.699   3.470  3.5138 -0.7384 -0.8238
   78MOL0     H10517   1.014   7.809   3.356  3.4119  1.8502  1.7708
   78MOL0     H10518   0.958   8.150   2.990 -0.4745  1.4195  0.1563
   78MOL0     H10519   0.762   8.251   2.863 -2.7998  0.0515 -0.6848
   78MOL0     H10520   0.499   7.980   2.662  1.7803  1.8405 -1.4686
   78MOL0     H10521   0.380   8.021   2.791 -1.6801 -1.1979 -1.7605
   78MOL0     H10522   0.426   8.200   2.549 -2.2774  0.6783 -1.4890
   78MOL0     H10523   0.303   8.228   2.676 -1.5170 -0.8768  0.4172
   78MOL0     H10524   0.322   7.966   2.550 -1.1228 -0.8492  4.0431
   78MOL0     H10525   0.290   8.077   2.420 -2.2485  0.2918 -0.8405
   78MOL0     H10526   0.080   8.146   2.514  1.2087 -0.6701 -0.1823
   78MOL0     H10527   0.100   8.050   2.659  2.5797 -0.6004 -0.0703
   78MOL0     H10528  -0.091   7.811   2.355 -2.2600 -0.5896  3.4095
   78MOL0     H10529   0.578   7.875   2.851  1.2240 -1.0064  0.6654
   78MOL0     H10530   0.771   7.767   2.968 -0.3189 -0.1472 -4.3058
   79MOL0     O10531   6.438   1.883  10.955  0.4978 -0.4258  0.5841
   79MOL0     C10532   6.407   1.989  10.896 -0.3570  1.1306  0.1638
   79MOL0     O10533   6.488   2.067  10.832 -0.1024 -0.9635 -0.5464
   79MOL0     C10534   6.631   2.051  10.848 -0.1541  0.3854  0.0306
   79MOL0     C10535   6.695   2.054  10.977 -0.5488  0.4204  0.1553
   79MOL0     C10536   6.832   2.028  10.986 -0.9484  0.0736 -0.8306
   79MOL0     C10537   6.917   1.997  10.875 -0.1136  0.6539  0.2281
   79MOL0     O10538   7.051   2.000  10.897 -0.2925 -0.2482 -0.6540
   79MOL0     C10539   7.129   2.048  10.794  0.3223  0.7862 -0.4119
   79MOL0     C10540   7.271   2.069  10.853 -0.3607  0.0441 -0.6516
   79MOL0     C10541   7.353   2.126  10.743  0.6483 -0.1199 -0.1360
   79MOL0     C10542   7.500   2.121  10.784  0.5449  0.8902  1.3877
   79MOL0     C10543   7.583   2.201  10.685 -1.2463  0.6166 -0.3994
   79MOL0     C10544   7.721   2.218  10.746  0.3975  0.2807  0.1265
   79MOL0     C10545   7.803   2.324  10.676 -0.3924 -1.0684 -0.2410
   79MOL0     C10546   7.868   2.258  10.549  0.7138  0.1840 -0.1323
   79MOL0     N10547   7.985   2.343  10.513 -0.2831 -0.1279  0.3743
   79MOL0     C10548   8.110   2.320  10.567  0.2742  0.3672 -0.1265
   79MOL0     C10549   8.179   2.429  10.520 -0.7825 -0.4672  0.3799
   79MOL0     C10550   8.317   2.463  10.567 -0.5624  0.3825 -1.1885
   79MOL0     C10551   8.422   2.368  10.499  0.0729  0.5409  0.0781
   79MOL0     C10552   8.563   2.378  10.549 -0.4080  0.0704 -0.5978
   79MOL0     C10553   8.635   2.250  10.507 -0.0058  0.3428 -0.8395
   79MOL0     O10554   8.753   2.265  10.584  0.2260  0.7230 -1.2974
   79MOL0     C10555   8.876   2.297  10.530  0.3679 -0.7103  0.0328
   79MOL0     C10556   8.983   2.245  10.582 -0.2902  0.7006  0.9401
   79MOL0     C10557   9.117   2.284  10.548 -0.6815  0.2721 -1.2168
   79MOL0     C10558   9.221   2.226  10.642  0.6450  0.9812  0.6540
   79MOL0     C10559   9.133   2.370  10.440 -0.4175  0.0620  1.0936
   79MOL0     C10560   9.268   2.387  10.372  0.6145  0.2394  0.0594
   79MOL0     O10561   9.268   2.415  10.236  0.5425 -0.1937 -0.3955
   79MOL0     C10562   9.385   2.433  10.167 -0.5202  0.5061  0.2902
   79MOL0     C10563   9.383   2.531  10.068  0.9520  0.5168 -0.3019
   79MOL0     C10564   9.496   2.563   9.992 -0.1991 -0.1385 -0.0791
   79MOL0     C10565   9.624   2.495  10.025  0.3796 -0.2659 -0.6326
   79MOL0     O10566   9.739   2.537   9.964 -0.1444  0.5373 -0.1997
   79MOL0     C10567   9.778   2.669  10.001  0.6145  0.6183 -0.6692
   79MOL0     C10568   9.907   2.708   9.928  0.3090  0.3566 -0.0541
   79MOL0     C10569   9.907   2.682   9.779 -1.1118 -0.9590 -0.1427
   79MOL0     C10570  10.049   2.738   9.733  0.5666 -0.2073 -0.6436
   79MOL0     C10571  10.046   2.757   9.578 -0.5173  0.5943 -0.0403
   79MOL0     C10572  10.182   2.755   9.505 -0.2420 -1.4823 -0.5180
   79MOL0     C10573  10.158   2.778   9.357 -0.5929 -0.0232  0.3139
   79MOL0     C10574  10.279   2.729   9.265  0.2190 -0.0492 -0.3448
   79MOL0    Cl10575  10.324   2.854   9.134  0.0345  0.1660 -0.0783
   79MOL0     C10576   9.631   2.399  10.124 -0.1029 -0.5991  0.6602
   79MOL0     C10577   9.513   2.363  10.189  0.4923  0.9007 -0.8067
   79MOL0     O10578   9.367   2.384  10.441  0.3264  0.4672 -0.3466
   79MOL0     C10579   9.023   2.431  10.382  1.0390 -0.4339  0.0660
   79MOL0     C10580   8.893   2.396  10.434 -0.1574  0.5436 -0.0125
   79MOL0     N10581   8.095   2.506  10.437  0.7981 -0.4699 -0.5839
   79MOL0     N10582   7.977   2.457  10.443 -0.5495  0.0860  0.7666
   79MOL0     C10583   6.849   1.984  10.748  0.9075  0.3293  0.5421
   79MOL0     C10584   6.710   2.013  10.736 -0.2221  0.9239  0.2933
   79MOL0     C10585   6.256   2.027  10.892 -0.8033  0.4696 -0.1087
   79MOL0     C10586   6.154   1.937  10.924 -0.3996  0.6152  0.6620
   79MOL0     C10587   6.022   1.965  10.917 -0.3095 -0.3713 -0.0547
   79MOL0     C10588   5.979   2.089  10.872  0.7423 -0.2898 -0.4639
   79MOL0     O10589   5.861   2.146  10.839  0.4596  0.5322  0.3836
   79MOL0     C10590   5.745   2.076  10.883  0.3582 -0.5834  0.1830
   79MOL0     C10591   5.710   1.980  10.758  0.2973 -0.1930 -0.8016
   79MOL0     C10592   5.573   1.925  10.788  0.7466 -0.0158 -0.6130
   79MOL0     C10593   5.562   1.858  10.920 -0.3169  0.5239 -0.3402
   79MOL0     C10594   5.457   1.758  10.919 -0.7263  0.1433 -0.0677
   79MOL0     C10595   5.392   1.659  10.942  0.3103  1.1023  0.2116
   79MOL0     C10596   6.084   2.179  10.847 -0.7455 -0.3822 -0.1372
   79MOL0     C10597   6.221   2.158  10.871 -0.2134 -0.2806  0.5252
   79MOL0     H10598   6.638   2.086  11.064 -0.7994  2.8860 -0.8340
   79MOL0     H10599   6.880   2.045  11.082 -3.2015  1.5073  0.1201
   79MOL0     H10600   7.126   1.979  10.709  1.7506  0.6904 -0.4059
   79MOL0     H10601   7.088   2.144  10.760 -0.5308  1.4218  2.1899
   79MOL0     H10602   7.273   2.132  10.942 -0.6452  1.8414 -1.8714
   79MOL0     H10603   7.314   1.972  10.879 -0.1157  0.3931  0.3107
   79MOL0     H10604   7.331   2.078  10.648  2.0259 -3.0451  0.8899
   79MOL0     H10605   7.337   2.232  10.723 -0.8550 -0.8071 -3.1472
   79MOL0     H10606   7.501   2.179  10.877 -0.7524  2.5275  0.4492
   79MOL0     H10607   7.541   2.020  10.792 -0.3945  0.2485 -1.1150
   79MOL0     H10608   7.583   2.141  10.593 -0.1450 -2.2694  1.3225
   79MOL0     H10609   7.534   2.296  10.664 -2.0764  0.1528 -0.5805
   79MOL0     H10610   7.716   2.257  10.848  1.5737  0.9251 -0.0452
   79MOL0     H10611   7.777   2.128  10.769  1.7080  0.9570 -0.3295
   79MOL0     H10612   7.750   2.416  10.650 -0.0906 -0.5213  1.0339
   79MOL0     H10613   7.888   2.359  10.735  1.3974 -0.1995 -3.1228
   79MOL0     H10614   7.799   2.253  10.464  1.0100 -1.9282 -0.3074
   79MOL0     H10615   7.898   2.155  10.573  3.1129  1.2982  2.2016
   79MOL0     H10616   8.146   2.251  10.642  1.0418 -0.5864 -1.3382
   79MOL0     H10617   8.338   2.568  10.545  1.1100 -0.0461 -1.7820
   79MOL0     H10618   8.322   2.446  10.675 -0.6607 -0.1902 -1.2728
   79MOL0     H10619   8.421   2.369  10.389  2.1912 -2.2659 -0.0817
   79MOL0     H10620   8.388   2.266  10.517  1.7837 -0.9153 -3.7455
   79MOL0     H10621   8.550   2.381  10.657 -3.6001  0.3786 -0.9109
   79MOL0     H10622   8.613   2.471  10.517 -0.1943  0.1246 -0.1228
   79MOL0     H10623   8.644   2.249  10.398  0.2977 -2.5189 -0.8641
   79MOL0     H10624   8.577   2.163  10.541  1.0703  0.3951  1.3099
   79MOL0     H10625   8.965   2.180  10.667  0.2367  0.9242  1.2324
   79MOL0     H10626   9.170   2.174  10.724 -0.7400  1.3806  0.0753
   79MOL0     H10627   9.278   2.161  10.576  0.2449  0.7030  0.5843
   79MOL0     H10628   9.289   2.297  10.691  3.3116 -1.0614  0.1274
   79MOL0     H10629   9.291   2.588  10.062 -0.0617 -1.1458 -1.0882
   79MOL0     H10630   9.487   2.635   9.911 -1.1400 -1.5174 -1.2686
   79MOL0     H10631   9.698   2.741   9.984 -0.0145  0.3843  1.1451
   79MOL0     H10632   9.799   2.662  10.108  0.3618 -2.1474 -0.7529
   79MOL0     H10633   9.920   2.814   9.953 -3.3709  0.9772 -0.2196
   79MOL0     H10634   9.991   2.656   9.974 -2.5784 -1.2505  3.9124
   79MOL0     H10635   9.830   2.736   9.723  0.8833 -0.2941 -2.4673
   79MOL0     H10636   9.902   2.575   9.757 -0.2096 -0.8477 -0.9612
   79MOL0     H10637  10.064   2.835   9.783  1.2901 -0.7731  0.2620
   79MOL0     H10638  10.126   2.668   9.767 -2.2963 -2.3020  2.1657
   79MOL0     H10639   9.993   2.846   9.542  0.3575  0.7175 -1.0595
   79MOL0     H10640   9.992   2.671   9.537  0.7143  0.2002 -0.8670
   79MOL0     H10641  10.244   2.838   9.541 -1.4216 -0.7149 -0.1969
   79MOL0     H10642  10.231   2.658   9.519  0.0697 -1.3672 -0.8129
   79MOL0     H10643  10.142   2.885   9.340  4.8002  1.3563  1.9569
   79MOL0     H10644  10.066   2.725   9.330 -0.1973 -0.3501 -0.4002
   79MOL0     H10645  10.245   2.634   9.223  1.1900 -0.9650  0.9220
   79MOL0     H10646  10.371   2.702   9.316 -0.5790 -0.6691  0.8060
   79MOL0     H10647   9.720   2.347  10.156 -0.6093 -0.1949  2.8939
   79MOL0     H10648   9.518   2.288  10.268 -1.5602 -0.0538 -1.4987
   79MOL0     H10649   9.029   2.493  10.293 -0.3952  1.3298  1.1165
   79MOL0     H10650   8.810   2.442  10.381 -0.4603  0.4673  0.3913
   79MOL0     H10651   6.901   1.958  10.656  0.8400 -0.5511  0.7490
   79MOL0     H10652   6.667   2.008  10.636  0.4885  1.4197 -0.0473
   79MOL0     H10653   6.176   1.832  10.936  0.2588  0.7125  0.3402
   79MOL0     H10654   5.945   1.889  10.925 -2.0792  1.1666 -1.6454
   79MOL0     H10655   5.758   2.016  10.973 -1.4170 -0.9652  0.2122
   79MOL0     H10656   5.665   2.144  10.915 -1.4148 -3.5018  2.3513
   79MOL0     H10657   5.786   1.902  10.742  2.3131  1.1158  1.6207
   79MOL0     H10658   5.690   2.048  10.674 -2.0064  0.5994  0.3002
   79MOL0     H10659   5.530   1.860  10.711 -2.9668 -1.5588  2.4533
   79MOL0     H10660   5.501   2.007  10.798 -1.5332 -1.8976 -0.5611
   79MOL0     H10661   5.529   1.924  11.001 -0.3183 -0.0236  0.1108
   79MOL0     H10662   5.657   1.814  10.949 -0.7151 -0.5398 -0.6166
   79MOL0     H10663   5.330   1.574  10.958  2.6785 -1.0525 -1.2411
   79MOL0     H10664   6.063   2.283  10.826 -1.5852 -0.0717  1.9764
   79MOL0     H10665   6.300   2.231  10.861 -2.4990  2.1290 -1.5661
   80MOL0     O10666   7.760   1.995   5.729 -0.2674  0.4554 -0.0700
   80MOL0     C10667   7.783   1.873   5.715 -0.3554 -0.0333 -0.4998
   80MOL0     O10668   7.694   1.774   5.741 -0.4964 -0.2402 -0.4428
   80MOL0     C10669   7.563   1.812   5.746 -0.0223  0.8966 -0.6009
   80MOL0     C10670   7.501   1.900   5.651 -0.2607 -0.7127 -0.3850
   80MOL0     C10671   7.366   1.940   5.672 -0.0932 -0.9964 -0.2877
   80MOL0     C10672   7.284   1.864   5.761 -0.1735  0.0539  0.0436
   80MOL0     O10673   7.149   1.881   5.753 -0.1187  0.7171 -0.0901
   80MOL0     C10674   7.059   1.802   5.832  0.9926 -0.0543  0.2928
   80MOL0     C10675   6.918   1.824   5.801  0.3526 -0.3807 -1.9046
   80MOL0     C10676   6.835   1.725   5.896  0.7540  0.0160  0.2158
   80MOL0     C10677   6.847   1.756   6.045  0.5993 -0.0106 -0.4794
   80MOL0     C10678   6.752   1.673   6.139  0.7282 -0.2185 -0.3153
   80MOL0     C10679   6.764   1.715   6.288  0.4658 -0.2113  0.3563
   80MOL0     C10680   6.649   1.654   6.368  0.1350 -0.2315  0.2107
   80MOL0     C10681   6.666   1.499   6.399  0.4616  0.7326 -0.4430
   80MOL0     N10682   6.773   1.485   6.498 -0.4317  1.0244  0.3040
   80MOL0     C10683   6.800   1.560   6.612 -0.0329 -0.4775  0.5120
   80MOL0     C10684   6.908   1.495   6.667  0.0350  0.0606 -0.2217
   80MOL0     C10685   6.981   1.531   6.797 -0.2459  0.9100 -0.3909
   80MOL0     C10686   6.984   1.421   6.897  0.5357 -0.8717 -0.8007
   80MOL0     C10687   6.842   1.354   6.925 -0.2626  0.1114  0.0945
   80MOL0     C10688   6.823   1.286   7.059  0.7523  0.7598 -0.0006
   80MOL0     O10689   6.699   1.214   7.068 -0.1959  0.9774  0.3623
   80MOL0     C10690   6.658   1.169   7.187  0.5438 -0.7340 -1.1320
   80MOL0     C10691   6.523   1.151   7.199  0.1342 -0.0421 -0.1781
   80MOL0     C10692   6.462   1.116   7.318  0.2258  0.4626  0.3625
   80MOL0     C10693   6.310   1.106   7.312 -0.2026  0.3893  0.6784
   80MOL0     C10694   6.539   1.075   7.433  0.2038  0.5966 -0.0352
   80MOL0     C10695   6.469   1.024   7.561  0.3729 -0.1453 -0.3403
   80MOL0     O10696   6.354   0.951   7.562 -0.7311 -0.4527 -0.7874
   80MOL0     C10697   6.302   0.899   7.675 -0.5429 -0.4715 -1.0427
   80MOL0     C10698   6.380   0.805   7.748  0.9694 -0.6206 -0.3666
   80MOL0     C10699   6.314   0.748   7.859  0.7771  1.1355  0.7471
   80MOL0     C10700   6.183   0.777   7.901 -0.6318 -0.0223  0.6152
   80MOL0     O10701   6.119   0.723   8.011  0.3094  0.5168 -0.3017
   80MOL0     C10702   6.191   0.635   8.107 -0.8003  0.5818  1.3461
   80MOL0     C10703   6.105   0.584   8.216 -0.1127 -0.8926  1.0933
   80MOL0     C10704   5.998   0.492   8.162  0.4819 -0.5842  0.7724
   80MOL0     C10705   5.911   0.439   8.264 -0.1664  0.1685 -0.4219
   80MOL0     C10706   5.822   0.322   8.214  0.1109  0.9086 -0.1234
   80MOL0     C10707   5.704   0.282   8.312  0.4136  0.0261  1.1923
   80MOL0     C10708   5.618   0.165   8.270 -0.5968  0.5629  0.0255
   80MOL0     C10709   5.531   0.117   8.384  0.1179 -0.0243 -0.2531
   80MOL0    Cl10710   5.416   0.243   8.449  0.0347  0.3440  0.0659
   80MOL0     C10711   6.115   0.873   7.824 -0.0329 -1.4100  0.7101
   80MOL0     C10712   6.179   0.934   7.711 -0.2002  0.7132 -0.7536
   80MOL0     O10713   6.521   1.066   7.662 -0.8301  0.2545  0.2652
   80MOL0     C10714   6.681   1.099   7.428  0.3876 -0.0250  0.6774
   80MOL0     C10715   6.737   1.149   7.307 -1.0369  0.2783  0.9422
   80MOL0     N10716   6.937   1.383   6.591 -0.1726  0.7027 -0.1640
   80MOL0     N10717   6.851   1.373   6.498 -0.2739 -0.3002 -0.1502
   80MOL0     C10718   7.351   1.778   5.850  0.2822 -0.4603  0.1456
   80MOL0     C10719   7.488   1.756   5.848  0.5660  0.4104 -0.2879
   80MOL0     C10720   7.907   1.849   5.649 -0.8401 -0.6922 -0.4426
   80MOL0     C10721   7.956   1.721   5.620 -0.1441  0.5977  0.2250
   80MOL0     C10722   8.076   1.702   5.552 -0.7096  0.0834 -0.4048
   80MOL0     C10723   8.153   1.806   5.506 -1.0831 -0.4152  0.3087
   80MOL0     O10724   8.269   1.773   5.439  0.3698 -0.1611  0.1325
   80MOL0     C10725   8.313   1.879   5.358  0.1090  0.8822  0.2164
   80MOL0     C10726   8.435   1.831   5.283  0.1493  0.0168 -1.1740
   80MOL0     C10727   8.415   1.715   5.192  0.1038  0.2921 -0.4533
   80MOL0     C10728   8.546   1.653   5.132  1.0054 -0.3485  0.6139
   80MOL0     C10729   8.639   1.757   5.095 -0.4418 -0.2082  0.1171
   80MOL0     C10730   8.720   1.840   5.051  0.2832  0.0603 -0.7120
   80MOL0     C10731   8.110   1.934   5.536  0.4361 -0.9273  0.0695
   80MOL0     C10732   7.985   1.953   5.600 -0.7099 -0.2800 -0.3174
   80MOL0     H10733   7.562   1.940   5.571 -0.2432 -2.0942 -1.1043
   80MOL0     H10734   7.324   2.022   5.614 -0.5687 -0.1640  1.1645
   80MOL0     H10735   7.081   1.696   5.813  1.0027 -0.3785  1.9661
   80MOL0     H10736   7.076   1.800   5.940  0.7443 -5.4531  0.5074
   80MOL0     H10737   6.890   1.923   5.836 -0.0764 -1.6756  1.8538
   80MOL0     H10738   6.893   1.829   5.694 -3.2169  0.2226 -1.1721
   80MOL0     H10739   6.733   1.752   5.868 -0.6367 -1.9050  2.9648
   80MOL0     H10740   6.849   1.621   5.863  0.6107  0.5929 -1.8064
   80MOL0     H10741   6.947   1.726   6.076  0.5113  1.0514  0.8995
   80MOL0     H10742   6.838   1.864   6.057  1.3036  0.2127 -1.8063
   80MOL0     H10743   6.648   1.669   6.104  0.2051 -2.1979  1.2952
   80MOL0     H10744   6.789   1.572   6.123  1.5802  0.3428 -2.1405
   80MOL0     H10745   6.862   1.694   6.332  0.1781 -1.8585  0.2592
   80MOL0     H10746   6.747   1.824   6.288  1.4105 -0.0511 -0.0656
   80MOL0     H10747   6.624   1.714   6.455 -1.9880 -0.5192 -0.1525
   80MOL0     H10748   6.556   1.651   6.311  0.6923 -1.6535 -0.6884
   80MOL0     H10749   6.695   1.435   6.315  0.1711  1.0953 -0.8221
   80MOL0     H10750   6.576   1.447   6.431 -0.2164  3.1608  1.9667
   80MOL0     H10751   6.740   1.645   6.642  1.5551  0.5914  0.8259
   80MOL0     H10752   7.085   1.555   6.771  0.0200 -0.5751 -0.7748
   80MOL0     H10753   6.926   1.614   6.842 -3.6877 -1.0261 -0.6696
   80MOL0     H10754   7.014   1.461   6.994 -0.1483 -2.2821  0.0191
   80MOL0     H10755   7.058   1.346   6.868  2.2762  0.2581  0.5573
   80MOL0     H10756   6.837   1.278   6.846  0.8990 -0.7435  0.8248
   80MOL0     H10757   6.756   1.422   6.916 -1.8930 -1.3753  2.9841
   80MOL0     H10758   6.824   1.358   7.141  0.9070 -0.0962  0.7660
   80MOL0     H10759   6.908   1.218   7.074  0.5166  0.4502 -0.0740
   80MOL0     H10760   6.460   1.184   7.117 -1.5295 -0.3672  0.9253
   80MOL0     H10761   6.279   1.003   7.331 -3.1042  1.3394  1.6873
   80MOL0     H10762   6.264   1.177   7.382 -2.9157 -0.1169 -0.4412
   80MOL0     H10763   6.282   1.136   7.211  2.3532  0.5262 -0.0399
   80MOL0     H10764   6.477   0.777   7.709  1.3074  1.5443 -1.2501
   80MOL0     H10765   6.375   0.670   7.903 -0.1765 -0.9013 -1.3606
   80MOL0     H10766   6.221   0.541   8.059 -1.3621  0.5944  0.9587
   80MOL0     H10767   6.274   0.702   8.132 -0.4381  0.5417  0.3123
   80MOL0     H10768   6.169   0.537   8.291  0.4681  0.0907  1.2293
   80MOL0     H10769   6.050   0.670   8.256 -1.4043 -1.7319  1.2088
   80MOL0     H10770   6.049   0.404   8.123  0.2758 -0.3427 -0.0433
   80MOL0     H10771   5.939   0.549   8.090 -0.2250  2.0108  3.2036
   80MOL0     H10772   5.960   0.389   8.347 -1.3527 -0.3358 -0.0029
   80MOL0     H10773   5.839   0.513   8.301 -1.8719 -0.7386 -1.7469
   80MOL0     H10774   5.884   0.233   8.198 -3.3780 -1.2983 -2.8259
   80MOL0     H10775   5.779   0.338   8.115 -0.1958  0.5864 -0.0428
   80MOL0     H10776   5.745   0.244   8.406 -2.5074 -1.9239  1.7957
   80MOL0     H10777   5.670   0.383   8.336  3.6696  1.3381  0.8193
   80MOL0     H10778   5.672   0.077   8.237 -0.8767  0.2443  0.4003
   80MOL0     H10779   5.562   0.202   8.183  1.0903  1.9230 -0.5379
   80MOL0     H10780   5.594   0.078   8.465 -0.3891 -0.8135 -0.2261
   80MOL0     H10781   5.472   0.030   8.354  0.6465  0.4912 -3.0935
   80MOL0     H10782   6.022   0.920   7.857  1.6110  2.2400  0.6514
   80MOL0     H10783   6.117   1.009   7.662 -0.3134  1.1844  0.0866
   80MOL0     H10784   6.752   1.087   7.509  0.1777  0.0754  0.8800
   80MOL0     H10785   6.845   1.147   7.308 -0.8829  1.3826 -2.4556
   80MOL0     H10786   7.293   1.728   5.926  0.4193  1.9109  1.9220
   80MOL0     H10787   7.547   1.693   5.915 -1.1600  0.3496  1.2655
   80MOL0     H10788   7.890   1.636   5.637  0.3108  0.7046  3.2390
   80MOL0     H10789   8.103   1.603   5.515 -1.6421  0.1534 -1.3118
   80MOL0     H10790   8.238   1.914   5.287  1.7502 -1.0418 -2.6536
   80MOL0     H10791   8.350   1.959   5.424  1.8501  1.2207 -1.1108
   80MOL0     H10792   8.516   1.804   5.351 -2.3791 -0.7296  1.7538
   80MOL0     H10793   8.472   1.912   5.220  0.1429 -1.1861 -2.8141
   80MOL0     H10794   8.344   1.737   5.112 -0.7585 -2.7245 -0.6603
   80MOL0     H10795   8.355   1.637   5.240 -1.8227  2.1471  0.2916
   80MOL0     H10796   8.525   1.584   5.050  0.3661 -0.2622  0.6990
   80MOL0     H10797   8.592   1.589   5.209  1.0395 -0.8953  0.1498
   80MOL0     H10798   8.781   1.909   4.997 -2.7623  2.8681 -0.8021
   80MOL0     H10799   8.170   2.020   5.508  0.2267 -0.8075 -0.0149
   80MOL0     H10800   7.960   2.058   5.610  0.6959 -0.0099  0.7153
   81MOL0     O10801   8.178   6.322   2.303 -0.7570 -0.1258  0.6998
   81MOL0     C10802   8.281   6.310   2.369  0.7224  0.6263 -0.3870
   81MOL0     O10803   8.309   6.373   2.487  0.8243  0.1957 -1.1750
   81MOL0     C10804   8.197   6.398   2.560 -0.2344  0.1959  0.3212
   81MOL0     C10805   8.128   6.511   2.542 -0.2751 -0.1628 -0.5203
   81MOL0     C10806   8.019   6.538   2.633 -0.8331  1.1541  0.9599
   81MOL0     C10807   7.981   6.454   2.735  0.7827 -0.0048  0.4204
   81MOL0     O10808   7.866   6.476   2.809  0.5176  0.4173 -0.2739
   81MOL0     C10809   7.833   6.397   2.923 -0.0903 -0.3169 -0.1366
   81MOL0     C10810   7.725   6.469   2.989  1.0562  0.8005  0.1012
   81MOL0     C10811   7.769   6.603   3.040  0.9423 -0.5827 -0.6515
   81MOL0     C10812   7.649   6.671   3.120 -0.7746 -0.5438  0.8118
   81MOL0     C10813   7.641   6.641   3.271  0.2713 -0.1906  0.2574
   81MOL0     C10814   7.498   6.678   3.325  0.5687 -0.5675  0.2924
   81MOL0     C10815   7.446   6.830   3.302 -0.6163  0.4167 -0.0606
   81MOL0     C10816   7.304   6.835   3.353  0.2464 -0.3038  0.5400
   81MOL0     N10817   7.232   6.964   3.318 -0.0230  0.1766  0.5435
   81MOL0     C10818   7.199   7.006   3.193 -0.9502  0.4810 -0.7117
   81MOL0     C10819   7.105   7.106   3.213 -0.0421 -0.4462  0.4726
   81MOL0     C10820   7.030   7.181   3.104  0.1108  0.6305  0.6512
   81MOL0     C10821   7.027   7.333   3.129 -0.5377 -0.3906 -0.1035
   81MOL0     C10822   7.165   7.396   3.126 -1.0568  0.5246  0.3120
   81MOL0     C10823   7.243   7.372   2.998 -1.4821 -0.3113  0.5002
   81MOL0     O10824   7.161   7.425   2.890  1.3137 -0.0330  0.3169
   81MOL0     C10825   7.226   7.454   2.773  0.5799 -0.7188 -0.1692
   81MOL0     C10826   7.328   7.554   2.779  0.0803 -0.6705  0.0777
   81MOL0     C10827   7.405   7.590   2.667  0.2578  0.0505 -0.6005
   81MOL0     C10828   7.500   7.698   2.702 -0.0120  0.4926  0.4662
   81MOL0     C10829   7.381   7.525   2.548  0.1941  1.1297  0.6251
   81MOL0     C10830   7.467   7.530   2.431  0.5919  0.2861  0.0403
   81MOL0     O10831   7.424   7.462   2.316  0.5696 -0.4433  0.0282
   81MOL0     C10832   7.470   7.487   2.184  0.6324 -0.4811 -0.6674
   81MOL0     C10833   7.481   7.612   2.125  0.3630 -0.1385 -0.3255
   81MOL0     C10834   7.502   7.626   1.993 -0.6759  0.2319 -0.6810
   81MOL0     C10835   7.529   7.506   1.912 -0.5428  0.6330 -0.9309
   81MOL0     O10836   7.553   7.508   1.784 -1.3083  0.7601 -0.0336
   81MOL0     C10837   7.565   7.633   1.718 -0.4520 -1.6627  0.4350
   81MOL0     C10838   7.586   7.620   1.573  0.3240 -0.0559 -0.1122
   81MOL0     C10839   7.722   7.564   1.524 -0.1542 -0.4450  0.5070
   81MOL0     C10840   7.828   7.672   1.528  0.7942 -0.7299  0.6109
   81MOL0     C10841   7.964   7.612   1.507 -0.6958 -0.8058  0.3041
   81MOL0     C10842   8.061   7.723   1.481  0.1578 -0.1725  0.5319
   81MOL0     C10843   8.207   7.683   1.449  1.0809 -0.0993 -0.4199
   81MOL0     C10844   8.266   7.786   1.364 -0.9839  0.1442  0.0196
   81MOL0    Cl10845   8.442   7.743   1.352 -0.1667 -0.3354 -0.0446
   81MOL0     C10846   7.504   7.383   1.966 -0.9260  0.1383 -0.1017
   81MOL0     C10847   7.482   7.377   2.105 -0.4185  1.6992 -0.3426
   81MOL0     O10848   7.567   7.600   2.433 -0.5613  0.1996 -0.1378
   81MOL0     C10849   7.275   7.435   2.541  0.0317  0.4997  0.0855
   81MOL0     C10850   7.198   7.404   2.650 -0.1019  0.2406  0.2654
   81MOL0     N10851   7.083   7.123   3.346 -0.4255 -0.4470  0.3540
   81MOL0     N10852   7.163   7.041   3.404 -0.8149 -0.2562 -1.0007
   81MOL0     C10853   8.065   6.345   2.748  1.0269  0.3808  1.0940
   81MOL0     C10854   8.173   6.307   2.664 -0.4472 -0.5058 -0.0495
   81MOL0     C10855   8.389   6.230   2.303 -0.0581 -0.6178 -0.6498
   81MOL0     C10856   8.483   6.150   2.373 -0.1356 -1.0278  0.3630
   81MOL0     C10857   8.583   6.079   2.310 -0.2230 -0.0722  0.1872
   81MOL0     C10858   8.600   6.083   2.173 -0.6117 -0.6943  1.7335
   81MOL0     O10859   8.707   6.006   2.128  0.5291  0.0378 -0.5489
   81MOL0     C10860   8.739   5.996   1.987 -0.3438 -0.6402  0.7546
   81MOL0     C10861   8.808   6.124   1.929  0.0565  0.0130 -0.1606
   81MOL0     C10862   8.943   6.142   1.999  0.2342  0.0741  0.2784
   81MOL0     C10863   9.026   6.237   1.912  0.4314 -0.2771  0.0623
   81MOL0     C10864   9.172   6.257   1.944  0.4339  0.0880 -0.1219
   81MOL0     C10865   9.288   6.282   1.970 -0.7968 -0.0324  0.4558
   81MOL0     C10866   8.510   6.168   2.102 -0.6087 -0.2796 -1.0814
   81MOL0     C10867   8.403   6.232   2.164 -0.6739  0.5399  0.3341
   81MOL0     H10868   8.153   6.583   2.465 -0.9960 -1.3754 -1.9225
   81MOL0     H10869   7.953   6.621   2.612 -0.2014  0.7799 -3.2425
   81MOL0     H10870   7.788   6.300   2.899 -0.2460 -1.5082  4.1987
   81MOL0     H10871   7.915   6.392   2.995 -1.1417 -3.1276  1.0220
   81MOL0     H10872   7.644   6.474   2.916 -0.1752  3.4016  1.5183
   81MOL0     H10873   7.694   6.404   3.072 -1.3320  0.4324 -1.0027
   81MOL0     H10874   7.855   6.596   3.107  0.6762  1.9609  0.0684
   81MOL0     H10875   7.801   6.667   2.957  2.0720 -2.3587 -1.6534
   81MOL0     H10876   7.662   6.780   3.122 -0.1913 -0.6011  0.3613
   81MOL0     H10877   7.558   6.644   3.067  0.3649  0.5780 -1.9215
   81MOL0     H10878   7.666   6.536   3.290 -1.2975 -0.3296  1.8041
   81MOL0     H10879   7.719   6.694   3.327 -0.3338  1.8484 -0.7649
   81MOL0     H10880   7.425   6.611   3.279  1.4850 -1.9004  0.7419
   81MOL0     H10881   7.490   6.664   3.433 -0.3266  1.8271  0.6094
   81MOL0     H10882   7.518   6.895   3.353  0.5051 -0.6013 -0.3034
   81MOL0     H10883   7.437   6.865   3.199  0.9308 -2.0878 -1.1530
   81MOL0     H10884   7.311   6.818   3.460 -0.6642 -0.9354  0.5132
   81MOL0     H10885   7.240   6.758   3.308  0.5286  0.0400 -0.4697
   81MOL0     H10886   7.243   6.963   3.104 -2.3042 -0.4575 -0.9607
   81MOL0     H10887   7.080   7.165   3.009  0.1884  2.4373  0.3567
   81MOL0     H10888   6.932   7.134   3.113  0.9961 -1.7377 -1.2227
   81MOL0     H10889   6.986   7.343   3.230 -0.9231 -3.4967  0.1327
   81MOL0     H10890   6.959   7.378   3.056 -0.8337 -2.0606 -0.8960
   81MOL0     H10891   7.229   7.355   3.205  1.2906  1.8665 -0.8017
   81MOL0     H10892   7.159   7.504   3.143  1.2240  0.2711  3.7495
   81MOL0     H10893   7.276   7.270   2.975  0.8802  0.8024 -1.5358
   81MOL0     H10894   7.336   7.427   3.013 -0.6624 -1.3385 -0.6021
   81MOL0     H10895   7.342   7.608   2.872 -2.2534  0.9021 -0.3689
   81MOL0     H10896   7.593   7.647   2.727 -0.2786 -1.8212 -2.7026
   81MOL0     H10897   7.525   7.767   2.621  0.0876  1.4098  1.2516
   81MOL0     H10898   7.462   7.766   2.779  1.8230  1.7185  0.3514
   81MOL0     H10899   7.457   7.703   2.179 -2.8734 -2.5451  2.7524
   81MOL0     H10900   7.505   7.725   1.947 -0.5806  1.7040  2.2648
   81MOL0     H10901   7.472   7.689   1.721 -0.4409 -1.5540 -0.7130
   81MOL0     H10902   7.644   7.689   1.768 -1.4439  0.2065 -0.0203
   81MOL0     H10903   7.518   7.540   1.541 -0.0951  0.5742 -0.8321
   81MOL0     H10904   7.554   7.716   1.530  1.9294  0.1280 -0.9726
   81MOL0     H10905   7.722   7.535   1.418  4.0609  2.0814 -0.4242
   81MOL0     H10906   7.756   7.483   1.588  0.3143 -2.1520 -1.7632
   81MOL0     H10907   7.815   7.740   1.444 -1.0132 -2.3732 -0.5255
   81MOL0     H10908   7.820   7.731   1.619  0.0607  0.4852 -0.2174
   81MOL0     H10909   7.953   7.546   1.421 -1.4889 -0.1619 -0.1007
   81MOL0     H10910   8.000   7.550   1.590  1.3677 -1.7854 -1.2489
   81MOL0     H10911   8.027   7.789   1.401 -3.6448 -1.1106  1.1628
   81MOL0     H10912   8.063   7.800   1.558 -0.9759 -0.0759  0.4829
   81MOL0     H10913   8.201   7.587   1.396  0.6468 -0.4556  0.2566
   81MOL0     H10914   8.262   7.670   1.542  0.5099 -0.2660 -0.0988
   81MOL0     H10915   8.272   7.880   1.418  0.8971  0.3211 -0.4083
   81MOL0     H10916   8.222   7.796   1.264 -2.8267 -3.3645  0.3235
   81MOL0     H10917   7.519   7.299   1.899  1.8584  0.8436 -0.4874
   81MOL0     H10918   7.479   7.282   2.158 -2.8155  1.4513 -0.7913
   81MOL0     H10919   7.244   7.374   2.457  0.0293  0.0052  0.4423
   81MOL0     H10920   7.116   7.334   2.651 -2.1124  2.4581  1.4253
   81MOL0     H10921   8.046   6.271   2.824 -1.2826  2.6317  2.8755
   81MOL0     H10922   8.233   6.217   2.674  0.2448 -0.0959 -0.4792
   81MOL0     H10923   8.469   6.165   2.480 -0.8832 -1.8334  0.3867
   81MOL0     H10924   8.659   6.017   2.356  0.5882  0.3461 -0.5785
   81MOL0     H10925   8.808   5.913   1.973  1.0148 -0.2473  4.0342
   81MOL0     H10926   8.645   5.995   1.931  1.8819 -0.9605 -3.2702
   81MOL0     H10927   8.747   6.211   1.952  2.1285  2.0482 -1.9486
   81MOL0     H10928   8.805   6.105   1.821  1.1055 -1.8817  0.0945
   81MOL0     H10929   8.995   6.047   1.984  0.3942  0.0766  0.7928
   81MOL0     H10930   8.956   6.159   2.107 -0.5973 -1.8015  0.7045
   81MOL0     H10931   8.982   6.336   1.926  1.1308  0.0303  0.1182
   81MOL0     H10932   9.015   6.212   1.806  0.1929 -0.8486  0.2216
   81MOL0     H10933   9.386   6.300   2.010 -0.6754  0.5006 -0.0781
   81MOL0     H10934   8.522   6.175   1.994  0.9629  1.3432 -0.8578
   81MOL0     H10935   8.339   6.294   2.102  0.8045 -0.6879 -2.6701
   82MOL0     O10936   0.458   2.754  10.449 -0.2851  0.6131 -0.4271
   82MOL0     C10937   0.526   2.656  10.474 -0.8459 -1.1397  0.1673
   82MOL0     O10938   0.481   2.528  10.499  0.4408 -0.2698  0.0567
   82MOL0     C10939   0.348   2.499  10.496 -0.4702  0.1450 -0.9971
   82MOL0     C10940   0.290   2.443  10.606  0.6822 -0.2558 -0.2052
   82MOL0     C10941   0.151   2.425  10.594 -0.2462  0.2421 -0.1430
   82MOL0     C10942   0.078   2.426  10.476  0.4707 -0.4390 -0.3620
   82MOL0     O10943  -0.051   2.390  10.464 -0.1037 -0.4357  0.4121
   82MOL0     C10944  -0.098   2.293  10.560  0.9387  0.0232 -0.8948
   82MOL0     C10945  -0.231   2.247  10.523 -0.5330  0.7471  0.2273
   82MOL0     C10946  -0.279   2.143  10.629 -0.1523  0.5432 -0.3407
   82MOL0     C10947  -0.192   2.015  10.638 -0.3556 -0.6089 -0.4232
   82MOL0     C10948  -0.104   2.006  10.763 -0.5962 -0.1644 -0.0077
   82MOL0     C10949  -0.202   1.996  10.888  0.0765 -0.8378  0.1828
   82MOL0     C10950  -0.144   2.090  10.996 -1.0417 -0.8909 -0.1879
   82MOL0     C10951  -0.196   2.059  11.138  0.1187  0.5543  0.6597
   82MOL0     N10952  -0.333   2.113  11.164 -0.1964  0.0954 -1.0585
   82MOL0     C10953  -0.377   2.199  11.264 -0.5454 -0.4747  0.3122
   82MOL0     C10954  -0.514   2.186  11.264 -0.1550  0.1967  0.0013
   82MOL0     C10955  -0.618   2.264  11.337  0.3094 -0.1719  0.2378
   82MOL0     C10956  -0.750   2.183  11.358  0.1737  0.0082  0.3371
   82MOL0     C10957  -0.870   2.276  11.365 -0.3777 -0.3224  0.5749
   82MOL0     C10958  -0.996   2.194  11.357  0.4731 -0.3052 -0.6381
   82MOL0     O10959  -1.121   2.274  11.369 -0.9155 -0.2308 -0.0637
   82MOL0     C10960  -1.243   2.216  11.331  0.5994 -0.1018 -0.4714
   82MOL0     C10961  -1.263   2.082  11.298 -0.4897  0.0402 -0.5904
   82MOL0     C10962  -1.392   2.031  11.251  0.0844  0.2329 -0.6018
   82MOL0     C10963  -1.397   1.881  11.226 -0.4944 -0.0549  0.4546
   82MOL0     C10964  -1.500   2.124  11.233  0.5897  0.6371  0.3531
   82MOL0     C10965  -1.630   2.088  11.178  0.7656 -0.1654  0.2895
   82MOL0     O10966  -1.642   1.992  11.086  0.9133  1.3565  1.3316
   82MOL0     C10967  -1.750   1.976  11.001 -0.1623 -0.0370  0.4229
   82MOL0     C10968  -1.804   1.847  10.996 -0.4916  1.3089 -0.4155
   82MOL0     C10969  -1.909   1.814  10.901  0.7823 -0.7257 -0.6136
   82MOL0     C10970  -1.963   1.920  10.819 -0.0616  0.4904  0.2550
   82MOL0     O10971  -2.076   1.904  10.742 -0.4962  0.4692 -0.3707
   82MOL0     C10972  -2.068   1.783  10.661  0.3275 -0.4920 -0.2072
   82MOL0     C10973  -2.198   1.783  10.577  0.0943 -0.1205  0.3036
   82MOL0     C10974  -2.310   1.719  10.653  0.4682  0.4265 -0.4585
   82MOL0     C10975  -2.432   1.726  10.562  0.5594 -0.0638  0.5808
   82MOL0     C10976  -2.542   1.638  10.623 -0.2984 -0.1803 -0.1190
   82MOL0     C10977  -2.667   1.635  10.533  0.2121  0.1457  0.5507
   82MOL0     C10978  -2.784   1.568  10.595 -0.2389 -0.9274  0.5729
   82MOL0     C10979  -2.907   1.590  10.508  1.0223 -0.1362 -0.1080
   82MOL0    Cl10980  -3.033   1.457  10.555  0.2232  0.2168 -0.1467
   82MOL0     C10981  -1.903   2.047  10.827 -0.6930  0.1503  0.2703
   82MOL0     C10982  -1.796   2.074  10.910 -0.2946  0.1725 -0.0603
   82MOL0     O10983  -1.727   2.152  11.220 -0.1458 -0.9611  0.0918
   82MOL0     C10984  -1.479   2.261  11.273  0.1005  0.8560 -0.6220
   82MOL0     C10985  -1.350   2.307  11.325 -0.4584  0.0681  0.5504
   82MOL0     N10986  -0.538   2.092  11.175 -0.0998  0.3135  0.7692
   82MOL0     N10987  -0.437   2.053  11.109  0.1158  0.5909 -0.2067
   82MOL0     C10988   0.145   2.477  10.362  1.7972  0.3653 -0.4905
   82MOL0     C10989   0.277   2.501  10.377  0.2541  0.3159  0.6651
   82MOL0     C10990   0.676   2.674  10.469  0.0543 -0.2345 -0.2918
   82MOL0     C10991   0.761   2.573  10.515 -0.1255  1.4122 -0.0531
   82MOL0     C10992   0.894   2.587  10.528 -0.6461 -0.7918  0.7487
   82MOL0     C10993   0.951   2.715  10.496 -0.0172  0.8856 -0.6077
   82MOL0     O10994   1.082   2.723  10.518 -0.2255 -0.1004  0.2602
   82MOL0     C10995   1.156   2.850  10.500  0.1903  0.4465  0.1412
   82MOL0     C10996   1.291   2.851  10.567  0.0283 -0.6416 -0.4461
   82MOL0     C10997   1.340   2.995  10.600  0.3739 -1.1261 -0.3295
   82MOL0     C10998   1.461   3.010  10.684  0.5353  0.9499 -0.1735
   82MOL0     C10999   1.561   2.919  10.644 -0.3141 -0.0373 -0.0402
   82MOL0     C11000   1.646   2.845  10.607  0.4819  0.4531  0.5713
   82MOL0     C11001   0.867   2.820  10.447  0.2907 -0.2987  0.6736
   82MOL0     C11002   0.730   2.802  10.432 -0.8349 -0.5234 -0.2236
   82MOL0     H11003   0.344   2.413  10.696 -2.5974  1.7541  2.7020
   82MOL0     H11004   0.111   2.394  10.690 -3.3897 -0.2622 -1.4704
   82MOL0     H11005  -0.025   2.212  10.576 -0.3437 -0.7624  1.6896
   82MOL0     H11006  -0.102   2.339  10.659 -0.6797 -1.7169 -0.0869
   82MOL0     H11007  -0.298   2.333  10.514 -1.0368  0.4885  1.3644
   82MOL0     H11008  -0.230   2.191  10.428  2.4475 -0.3805  0.8291
   82MOL0     H11009  -0.287   2.193  10.725 -0.6041  4.3724 -2.1952
   82MOL0     H11010  -0.381   2.119  10.596 -1.3321  0.8962  2.7473
   82MOL0     H11011  -0.258   1.928  10.628  1.0000 -1.5555 -1.4993
   82MOL0     H11012  -0.129   2.012  10.548  2.8054  0.5716  1.5634
   82MOL0     H11013  -0.041   1.916  10.759 -0.1045  0.1435  0.5722
   82MOL0     H11014  -0.044   2.098  10.767 -2.7557  1.2803  3.3562
   82MOL0     H11015  -0.307   2.024  10.875  0.2302  0.6036  1.7145
   82MOL0     H11016  -0.214   1.898  10.935  0.2533  0.8324  4.0776
   82MOL0     H11017  -0.035   2.092  10.992 -0.9239 -0.9156  1.8139
   82MOL0     H11018  -0.175   2.195  10.985 -2.3675 -1.2598 -0.1998
   82MOL0     H11019  -0.138   2.093  11.224 -0.5483  3.6810 -0.0123
   82MOL0     H11020  -0.192   1.950  11.149 -1.4339  0.4738  0.5667
   82MOL0     H11021  -0.314   2.259  11.328 -0.2510 -0.5373  0.0869
   82MOL0     H11022  -0.584   2.318  11.426 -0.7706  3.4769 -1.3729
   82MOL0     H11023  -0.641   2.342  11.264 -1.9520 -1.4494 -0.5095
   82MOL0     H11024  -0.744   2.136  11.456  2.5644  0.6920  0.5658
   82MOL0     H11025  -0.765   2.107  11.280  3.0439  0.0616 -0.3600
   82MOL0     H11026  -0.859   2.359  11.295  3.0880  0.5524  1.9282
   82MOL0     H11027  -0.877   2.324  11.464 -2.2636 -2.6692  1.6633
   82MOL0     H11028  -0.991   2.108  11.425  0.8118  0.1726 -0.0547
   82MOL0     H11029  -0.994   2.148  11.258  1.5178 -3.1099  0.5650
   82MOL0     H11030  -1.180   2.013  11.306  0.1679  0.5325 -2.5825
   82MOL0     H11031  -1.464   1.829  11.296 -1.6176  0.3754 -0.2760
   82MOL0     H11032  -1.437   1.866  11.125  1.2115 -1.5872 -0.0351
   82MOL0     H11033  -1.301   1.831  11.239 -1.4191 -1.3806  2.8160
   82MOL0     H11034  -1.775   1.773  11.070 -0.5466  2.4099  0.7268
   82MOL0     H11035  -1.952   1.714  10.900  2.0055 -1.2751 -1.8864
   82MOL0     H11036  -1.986   1.792  10.589 -0.7718  0.8068 -1.3494
   82MOL0     H11037  -2.077   1.688  10.715 -0.5378 -0.0520  0.4411
   82MOL0     H11038  -2.234   1.882  10.548 -1.8283 -1.7750 -3.9266
   82MOL0     H11039  -2.193   1.728  10.482  0.8687  1.3002 -0.5110
   82MOL0     H11040  -2.334   1.780  10.742 -1.1403 -0.5878 -0.1606
   82MOL0     H11041  -2.284   1.618  10.684  1.9483 -0.3723 -3.9135
   82MOL0     H11042  -2.466   1.830  10.560  0.7503  0.0907  3.0159
   82MOL0     H11043  -2.425   1.690  10.459 -1.2866 -1.0718  0.7713
   82MOL0     H11044  -2.565   1.682  10.721 -0.4639  3.3125 -1.5836
   82MOL0     H11045  -2.508   1.534  10.624 -2.1758 -1.0077 -3.8528
   82MOL0     H11046  -2.695   1.740  10.521  2.8658  0.8239 -0.3724
   82MOL0     H11047  -2.644   1.596  10.434  2.2309  0.6172  0.7913
   82MOL0     H11048  -2.808   1.613  10.691 -1.7324 -0.6898  0.1047
   82MOL0     H11049  -2.763   1.461  10.607  0.9675 -0.8554 -0.5971
   82MOL0     H11050  -2.886   1.575  10.402  1.2577  0.6770 -0.1890
   82MOL0     H11051  -2.942   1.693  10.522  5.1810  1.2068  2.1347
   82MOL0     H11052  -1.945   2.133  10.777  1.2411  1.1643  0.2660
   82MOL0     H11053  -1.749   2.172  10.905  1.1252 -0.4694  0.2857
   82MOL0     H11054  -1.557   2.336  11.256 -0.7625  0.1528  0.1412
   82MOL0     H11055  -1.342   2.411  11.353 -0.8083  0.8793 -2.0834
   82MOL0     H11056   0.081   2.491  10.275  0.5237  0.0971  0.3757
   82MOL0     H11057   0.323   2.546  10.290  0.1936 -5.0664 -2.5752
   82MOL0     H11058   0.713   2.480  10.544  0.0332  1.7687  1.4809
   82MOL0     H11059   0.949   2.498  10.557  0.1631 -0.8224 -0.7733
   82MOL0     H11060   1.163   2.853  10.391  0.0079 -1.0963  0.0662
   82MOL0     H11061   1.089   2.932  10.528 -0.3050  0.3182 -0.6374
   82MOL0     H11062   1.366   2.791  10.515 -1.2264 -3.4401  0.7683
   82MOL0     H11063   1.275   2.816  10.670  3.9747  2.4585  1.5104
   82MOL0     H11064   1.267   3.062  10.647 -0.5561 -1.6701 -0.9475
   82MOL0     H11065   1.356   3.044  10.504  4.4016 -1.0479  0.2339
   82MOL0     H11066   1.433   2.986  10.786 -1.4532  0.8029 -0.7084
   82MOL0     H11067   1.497   3.113  10.674 -0.3123  1.4737  1.8423
   82MOL0     H11068   1.703   2.768  10.559  0.9549 -0.4177  2.4382
   82MOL0     H11069   0.913   2.909  10.406  1.9087 -0.6030  1.7388
   82MOL0     H11070   0.668   2.884  10.398 -0.2175  0.0339 -0.0472
   83MOL0     O11071   7.413   2.298   0.375  0.6069 -0.2321 -1.0770
   83MOL0     C11072   7.330   2.205   0.367 -0.2991  0.1149 -0.5206
   83MOL0     O11073   7.308   2.142   0.255 -0.0875  0.1002  0.3929
   83MOL0     C11074   7.326   2.196   0.129  0.7517 -0.7882 -1.6069
   83MOL0     C11075   7.288   2.324   0.092 -0.8040  0.1185 -0.6108
   83MOL0     C11076   7.319   2.372  -0.037 -0.2823  0.3730  0.7491
   83MOL0     C11077   7.367   2.289  -0.133 -0.5097  0.2017 -0.0728
   83MOL0     O11078   7.418   2.331  -0.259  0.6596 -0.0938  0.4477
   83MOL0     C11079   7.415   2.463  -0.306 -1.3159 -0.1527 -0.0624
   83MOL0     C11080   7.443   2.468  -0.457 -0.4648 -0.1057 -0.5897
   83MOL0     C11081   7.419   2.613  -0.496  0.7118 -0.9336  0.2572
   83MOL0     C11082   7.451   2.635  -0.638  0.6069 -0.0221 -0.0649
   83MOL0     C11083   7.480   2.785  -0.650  0.5528  0.5931  0.6982
   83MOL0     C11084   7.357   2.868  -0.628 -0.0929  0.3339  0.1375
   83MOL0     C11085   7.262   2.902  -0.751 -1.1374 -0.4151  0.0608
   83MOL0     C11086   7.169   3.022  -0.723 -0.3551 -0.2577 -0.0278
   83MOL0     N11087   7.038   2.995  -0.788 -0.6127 -0.4747 -0.6190
   83MOL0     C11088   7.012   2.995  -0.920 -0.0765 -0.1224  0.1596
   83MOL0     C11089   6.891   2.941  -0.916  0.0373  0.9608 -0.0354
   83MOL0     C11090   6.824   2.901  -1.047 -0.0709  0.2052 -0.3262
   83MOL0     C11091   6.720   3.016  -1.074  0.0872 -0.3823  0.4164
   83MOL0     C11092   6.691   3.019  -1.220  0.8594 -1.1519 -0.5683
   83MOL0     C11093   6.615   2.899  -1.273  0.6202 -0.1810  0.4902
   83MOL0     O11094   6.503   2.860  -1.188  0.3665 -0.1503  0.1420
   83MOL0     C11095   6.377   2.891  -1.218 -0.3946 -0.4692 -0.4569
   83MOL0     C11096   6.325   2.952  -1.337 -0.1775 -0.2810  0.4073
   83MOL0     C11097   6.189   2.969  -1.363  0.3602  0.1960  0.2721
   83MOL0     C11098   6.163   3.045  -1.499 -0.1413  0.7584 -0.1343
   83MOL0     C11099   6.095   2.915  -1.276  0.6432 -0.2406  0.3972
   83MOL0     C11100   5.956   2.947  -1.291 -0.4026 -0.4976  0.1485
   83MOL0     O11101   5.868   2.840  -1.271 -0.2195  0.1603 -1.0126
   83MOL0     C11102   5.739   2.876  -1.240 -0.3267  0.0760  0.3517
   83MOL0     C11103   5.698   2.935  -1.129 -0.5074  0.0938 -0.0738
   83MOL0     C11104   5.571   2.942  -1.091 -0.5298 -0.5119 -0.3585
   83MOL0     C11105   5.472   2.904  -1.184  0.4719 -0.0489 -0.2763
   83MOL0     O11106   5.344   2.913  -1.145  0.1237 -0.9922 -0.1125
   83MOL0     C11107   5.244   2.970  -1.232 -0.4719 -0.0864  0.3993
   83MOL0     C11108   5.293   3.112  -1.278  0.3255  0.6668  1.3359
   83MOL0     C11109   5.172   3.183  -1.351  0.3147  0.3100  0.2217
   83MOL0     C11110   5.130   3.125  -1.489 -0.6597  0.9244  0.3669
   83MOL0     C11111   5.256   3.130  -1.584  1.5738 -0.2095  0.0200
   83MOL0     C11112   5.209   3.090  -1.721 -0.1675 -0.4532 -0.3013
   83MOL0     C11113   5.317   3.052  -1.814 -0.0732 -0.6108  0.1687
   83MOL0     C11114   5.239   3.028  -1.950 -0.1611  0.4295 -0.5731
   83MOL0    Cl11115   5.343   2.947  -2.072 -0.2858  0.2362 -0.1408
   83MOL0     C11116   5.510   2.849  -1.304 -0.1336 -0.3399 -0.0935
   83MOL0     C11117   5.644   2.843  -1.337  0.1882  0.5813 -1.1162
   83MOL0     O11118   5.921   3.060  -1.327  0.1496 -0.2609 -0.0998
   83MOL0     C11119   6.141   2.855  -1.159 -0.3100 -0.0782 -0.8709
   83MOL0     C11120   6.279   2.846  -1.133  0.5901  0.3206 -0.3122
   83MOL0     N11121   6.853   2.901  -0.784 -1.2773 -0.1626  0.0577
   83MOL0     N11122   6.942   2.943  -0.705  0.5369 -0.1494 -0.0881
   83MOL0     C11123   7.405   2.154  -0.097 -0.4494 -0.1375  0.2990
   83MOL0     C11124   7.374   2.106   0.036  0.5536 -0.4989  0.2899
   83MOL0     C11125   7.247   2.157   0.487  0.4139 -0.1856 -0.8248
   83MOL0     C11126   7.222   2.235   0.601 -0.0276  0.6372 -0.0552
   83MOL0     C11127   7.153   2.179   0.711  0.4755 -0.1851  0.5254
   83MOL0     C11128   7.090   2.056   0.692 -0.0635 -0.9542 -0.6041
   83MOL0     O11129   7.020   2.001   0.801 -0.5720  0.1579 -0.2235
   83MOL0     C11130   7.080   1.996   0.935 -0.5806 -0.0657  0.4161
   83MOL0     C11131   7.105   1.851   0.962  0.4800  0.1162  0.6681
   83MOL0     C11132   7.166   1.805   1.095  0.2424  0.9867 -0.3224
   83MOL0     C11133   7.205   1.648   1.111  0.8667  0.8230 -0.9352
   83MOL0     C11134   7.090   1.573   1.152  0.2899  0.5879  0.4679
   83MOL0     C11135   6.994   1.508   1.188  0.2891 -0.6562  0.1928
   83MOL0     C11136   7.108   1.983   0.577  0.2184  0.7016  0.3763
   83MOL0     C11137   7.181   2.031   0.476 -0.6143 -0.5219  0.2170
   83MOL0     H11138   7.240   2.392   0.162  0.2770 -0.6534  0.9465
   83MOL0     H11139   7.315   2.478  -0.057 -0.6481  0.2208 -0.0313
   83MOL0     H11140   7.316   2.507  -0.290 -0.2839  1.8996  1.1057
   83MOL0     H11141   7.487   2.521  -0.247  3.4219 -0.6688 -4.6039
   83MOL0     H11142   7.550   2.449  -0.471  0.0685  0.5487  2.1289
   83MOL0     H11143   7.375   2.401  -0.510  1.2179 -1.4729 -1.1147
   83MOL0     H11144   7.317   2.652  -0.484  1.0564  0.1706 -0.2595
   83MOL0     H11145   7.476   2.675  -0.425  1.3582 -2.5809  1.2381
   83MOL0     H11146   7.531   2.568  -0.671  0.2839 -0.0389 -0.8284
   83MOL0     H11147   7.361   2.619  -0.697 -2.2736 -1.5785  4.2858
   83MOL0     H11148   7.557   2.820  -0.580  2.2612 -4.8193  1.9777
   83MOL0     H11149   7.528   2.808  -0.745  1.5325  1.1686  1.3100
   83MOL0     H11150   7.288   2.842  -0.547 -0.5288 -0.9454 -0.6233
   83MOL0     H11151   7.395   2.965  -0.595 -0.0688  0.2766  0.2799
   83MOL0     H11152   7.319   2.935  -0.838  2.2439 -2.9345  1.1068
   83MOL0     H11153   7.209   2.808  -0.770  0.7429 -2.5375  3.9520
   83MOL0     H11154   7.202   3.121  -0.757  0.4388  0.1587  1.8180
   83MOL0     H11155   7.158   3.029  -0.614  0.8824  3.4394  0.0217
   83MOL0     H11156   7.071   3.025  -1.005 -1.2859  2.5079  0.1660
   83MOL0     H11157   6.897   2.880  -1.126  2.0998  3.0538  0.7359
   83MOL0     H11158   6.768   2.809  -1.030  3.1181 -2.0858 -1.2710
   83MOL0     H11159   6.764   3.114  -1.052 -0.9706 -0.2318  1.9621
   83MOL0     H11160   6.643   3.019  -0.996  1.3032 -0.3685  1.6560
   83MOL0     H11161   6.787   3.023  -1.273  1.2416  3.8900  0.0622
   83MOL0     H11162   6.627   3.106  -1.237 -3.9919 -3.9795  1.2422
   83MOL0     H11163   6.682   2.812  -1.271  0.5567 -0.2196  1.1613
   83MOL0     H11164   6.591   2.920  -1.377  2.2162 -0.3707  0.0600
   83MOL0     H11165   6.391   2.989  -1.415 -2.2031 -0.5621 -1.5257
   83MOL0     H11166   6.056   3.036  -1.519 -0.1871 -0.3716  0.5678
   83MOL0     H11167   6.183   3.153  -1.500 -0.0944  0.8352  2.5384
   83MOL0     H11168   6.216   3.001  -1.584  0.0200 -0.4536  0.5763
   83MOL0     H11169   5.769   2.952  -1.049 -2.6577 -0.0380  1.9556
   83MOL0     H11170   5.543   2.981  -0.993  0.1352  3.7415 -1.6447
   83MOL0     H11171   5.227   2.904  -1.317  1.5620 -0.4974  0.2423
   83MOL0     H11172   5.148   2.991  -1.183  0.2907  1.2749  1.4019
   83MOL0     H11173   5.319   3.159  -1.184 -0.7143  0.4592  1.7398
   83MOL0     H11174   5.381   3.114  -1.343  1.1304 -0.3760  2.3468
   83MOL0     H11175   5.203   3.288  -1.356  4.2663 -0.6887  0.4930
   83MOL0     H11176   5.081   3.187  -1.290  0.8931 -1.4696  1.2709
   83MOL0     H11177   5.100   3.021  -1.470  0.2496  1.2350  4.4601
   83MOL0     H11178   5.041   3.166  -1.537 -1.0790 -1.5018 -1.1122
   83MOL0     H11179   5.342   3.074  -1.546 -0.0602 -1.6559  1.8026
   83MOL0     H11180   5.286   3.235  -1.588 -2.0129  0.9376 -0.6104
   83MOL0     H11181   5.137   3.008  -1.713  1.8350 -2.4166 -1.2847
   83MOL0     H11182   5.151   3.172  -1.765 -1.3424 -2.0460 -1.8301
   83MOL0     H11183   5.364   2.957  -1.786 -0.1258 -0.1575  1.9091
   83MOL0     H11184   5.387   3.135  -1.812 -0.1761 -0.5303  0.4842
   83MOL0     H11185   5.213   3.126  -1.992  1.2827  1.2227  0.2815
   83MOL0     H11186   5.145   2.976  -1.935  0.6196 -0.8719 -0.0640
   83MOL0     H11187   5.441   2.816  -1.381  1.5659  1.4110 -2.5123
   83MOL0     H11188   5.680   2.792  -1.426  0.7750  1.1415 -1.2044
   83MOL0     H11189   6.071   2.809  -1.090 -2.6879  0.7773 -2.6147
   83MOL0     H11190   6.315   2.791  -1.046  1.0861  0.1877 -0.5975
   83MOL0     H11191   7.436   2.081  -0.172 -3.5460 -0.8929 -0.4060
   83MOL0     H11192   7.387   2.000   0.057  1.0613 -0.4317  0.3306
   83MOL0     H11193   7.263   2.334   0.616 -0.1237  0.3685  2.5498
   83MOL0     H11194   7.161   2.230   0.806  3.7873  2.3112 -0.8886
   83MOL0     H11195   7.178   2.043   0.941 -1.5133  2.3494 -1.5913
   83MOL0     H11196   7.011   2.050   1.000 -1.3372 -0.3634 -0.1149
   83MOL0     H11197   7.170   1.820   0.880  1.5980  2.5458  0.5501
   83MOL0     H11198   7.007   1.806   0.945 -0.0890  1.0800  1.2679
   83MOL0     H11199   7.099   1.843   1.172 -1.8376  2.5984 -2.7528
   83MOL0     H11200   7.260   1.860   1.106  0.6559  0.4140 -0.8900
   83MOL0     H11201   7.277   1.646   1.193 -4.2404  0.8143  4.1987
   83MOL0     H11202   7.239   1.600   1.019 -1.1780 -2.3757 -0.2019
   83MOL0     H11203   6.927   1.432   1.222 -1.3174  0.4843 -0.2653
   83MOL0     H11204   7.060   1.886   0.572  2.8423 -0.6505 -0.2287
   83MOL0     H11205   7.170   1.971   0.386 -0.7425 -0.3667  0.1273
   84MOL0     O11206  10.444   1.812  10.301  0.6202  0.3381 -0.3532
   84MOL0     C11207  10.487   1.904  10.244 -0.7988  0.5296  0.3098
   84MOL0     O11208  10.412   1.982  10.178 -0.3543 -0.3474 -0.4174
   84MOL0     C11209  10.272   1.966  10.177 -0.5643  0.6085  0.9965
   84MOL0     C11210  10.227   1.855  10.108  0.3620 -1.0150 -1.2114
   84MOL0     C11211  10.094   1.824  10.100  0.3820  0.4059 -0.9178
   84MOL0     C11212   9.995   1.909  10.155 -0.5994  0.0441 -0.5761
   84MOL0     O11213   9.867   1.874  10.131  0.0916  0.7779  0.6028
   84MOL0     C11214   9.760   1.963  10.173  0.8285 -0.3031  0.2663
   84MOL0     C11215   9.627   1.883  10.151 -0.5269 -0.0218 -0.6324
   84MOL0     C11216   9.503   1.962  10.204 -0.0421 -0.1624  0.2494
   84MOL0     C11217   9.369   1.907  10.150 -0.7300  0.1443 -0.6250
   84MOL0     C11218   9.238   1.961  10.215 -0.2571 -0.0711  0.3536
   84MOL0     C11219   9.127   1.975  10.117  0.0490  0.3319 -0.2423
   84MOL0     C11220   8.988   1.982  10.189  0.2407  0.2994 -0.9470
   84MOL0     C11221   8.873   1.967  10.098  0.5848 -0.0424 -0.2628
   84MOL0     N11222   8.756   1.912  10.170 -0.6138 -0.5410  0.1210
   84MOL0     C11223   8.675   1.986  10.253  0.6785  0.8698 -0.0464
   84MOL0     C11224   8.557   1.917  10.269 -0.1808 -0.1024  0.0795
   84MOL0     C11225   8.446   1.968  10.358 -0.7350  0.0769  0.6049
   84MOL0     C11226   8.317   1.890  10.343 -0.4745  0.3499  0.7613
   84MOL0     C11227   8.205   1.951  10.427 -0.3917 -0.3880 -0.6703
   84MOL0     C11228   8.072   1.888  10.374 -0.5247  0.6959  0.5434
   84MOL0     O11229   7.958   1.920  10.452 -0.2074 -0.5386  0.5233
   84MOL0     C11230   7.837   1.868  10.415  0.6600  0.7826 -0.9422
   84MOL0     C11231   7.733   1.865  10.510  1.2830  0.0043  0.1103
   84MOL0     C11232   7.617   1.800  10.470  0.4185 -0.3903  0.2197
   84MOL0     C11233   7.505   1.797  10.571 -0.4600  0.6866  0.0436
   84MOL0     C11234   7.595   1.743  10.346 -0.5238  0.5511  0.1096
   84MOL0     C11235   7.475   1.682  10.314 -0.5663 -1.3113  0.1388
   84MOL0     O11236   7.455   1.568  10.387 -0.1328  0.6438  0.9315
   84MOL0     C11237   7.329   1.533  10.415  0.7671  0.3859 -0.5845
   84MOL0     C11238   7.310   1.462  10.535  0.0349 -0.3332 -0.6554
   84MOL0     C11239   7.186   1.410  10.572  0.0602 -0.3765 -0.3734
   84MOL0     C11240   7.075   1.428  10.490 -0.5680 -0.0170 -0.1249
   84MOL0     O11241   6.950   1.375  10.504 -0.6505 -0.2360 -0.1098
   84MOL0     C11242   6.846   1.462  10.518 -0.1266 -0.1775  0.0896
   84MOL0     C11243   6.716   1.385  10.501  0.0334 -0.8971  0.2439
   84MOL0     C11244   6.587   1.462  10.528 -0.7191 -0.6151 -0.5468
   84MOL0     C11245   6.573   1.552  10.652  0.2819 -0.1553 -0.1504
   84MOL0     C11246   6.437   1.631  10.661 -0.3505 -1.1042  0.2480
   84MOL0     C11247   6.315   1.535  10.656 -0.2413 -1.2994 -0.4258
   84MOL0     C11248   6.192   1.596  10.711 -0.3699 -0.2962  0.2525
   84MOL0     C11249   6.060   1.505  10.714 -0.8662 -0.5647 -0.0149
   84MOL0    Cl11250   5.925   1.615  10.755 -0.1334 -0.2709 -0.0586
   84MOL0     C11251   7.098   1.488  10.367  0.0367  0.0087 -1.3904
   84MOL0     C11252   7.218   1.541  10.331 -0.0155  0.1297 -0.0760
   84MOL0     O11253   7.403   1.727  10.232 -0.3968 -0.0333  0.2972
   84MOL0     C11254   7.688   1.755  10.256  0.3528 -0.0118  0.3110
   84MOL0     C11255   7.807   1.818  10.286  0.7168  0.6559  0.1893
   84MOL0     N11256   8.581   1.790  10.214 -0.2097 -0.2834  0.0973
   84MOL0     N11257   8.702   1.794  10.148  0.8354  0.7118 -0.1391
   84MOL0     C11258  10.040   2.015  10.236 -0.0758 -0.0949 -0.2815
   84MOL0     C11259  10.178   2.042  10.242 -0.4301  0.1079 -0.4092
   84MOL0     C11260  10.638   1.909  10.236 -0.4409 -0.0566  0.2191
   84MOL0     C11261  10.708   1.799  10.242 -0.9967  0.2509 -0.2016
   84MOL0     C11262  10.846   1.807  10.247 -0.4178  0.1619  0.3796
   84MOL0     C11263  10.902   1.930  10.238  0.2814 -0.1947  0.0271
   84MOL0     O11264  11.039   1.945  10.228  0.3836 -0.5394  0.7948
   84MOL0     C11265  11.127   1.840  10.185  0.2513 -0.6825  0.7709
   84MOL0     C11266  11.262   1.907  10.146 -0.5083 -0.0487 -0.1194
   84MOL0     C11267  11.335   1.963  10.268 -0.6600  0.2322  0.2814
   84MOL0     C11268  11.475   2.020  10.242  0.2080 -0.1186  0.6143
   84MOL0     C11269  11.563   1.911  10.289  0.2098  0.0404 -0.0393
   84MOL0     C11270  11.645   1.828  10.323 -1.5454  0.5364 -0.1970
   84MOL0     C11271  10.833   2.052  10.233  0.6419  0.3054  0.4650
   84MOL0     C11272  10.694   2.036  10.235 -0.2969  0.0678 -0.6929
   84MOL0     H11273  10.298   1.788  10.060  0.7517  1.1909 -3.9801
   84MOL0     H11274  10.055   1.741  10.042 -0.4408 -0.4520  0.8117
   84MOL0     H11275   9.769   1.989  10.279 -2.1765  0.9360  0.3352
   84MOL0     H11276   9.765   2.054  10.113  1.6375 -2.4155 -3.1152
   84MOL0     H11277   9.616   1.857  10.045 -2.6497 -1.3071 -0.1697
   84MOL0     H11278   9.616   1.782  10.193 -0.8196 -0.0724 -0.8206
   84MOL0     H11279   9.501   1.966  10.313 -0.6200  4.1328  0.2679
   84MOL0     H11280   9.511   2.065  10.166  0.9344 -1.1413 -2.4953
   84MOL0     H11281   9.364   1.933  10.044 -2.2565  2.0774 -0.1305
   84MOL0     H11282   9.371   1.798  10.145  2.0909  0.1188 -0.5007
   84MOL0     H11283   9.219   1.892  10.297 -0.8089  2.5510  2.5741
   84MOL0     H11284   9.259   2.060  10.255 -0.8422  0.7239 -1.1926
   84MOL0     H11285   9.154   2.063  10.058  0.1719  1.4301  1.3589
   84MOL0     H11286   9.138   1.885  10.057  1.2328  0.8964 -0.9152
   84MOL0     H11287   8.992   1.900  10.263  2.2530  0.4768 -0.8053
   84MOL0     H11288   8.987   2.074  10.248 -0.0871 -0.5995  0.5207
   84MOL0     H11289   8.891   1.901  10.012  0.2838 -0.7127  0.1817
   84MOL0     H11290   8.857   2.072  10.070 -0.7059 -0.0164  0.5038
   84MOL0     H11291   8.710   2.076  10.302  3.2035  1.8235 -3.2540
   84MOL0     H11292   8.500   1.950  10.451  0.4875 -1.9485 -0.4273
   84MOL0     H11293   8.433   2.076  10.348  1.9203  0.8565  3.8726
   84MOL0     H11294   8.343   1.790  10.377 -1.8723 -0.8021 -1.3285
   84MOL0     H11295   8.280   1.889  10.240 -1.6690 -2.3319  1.1404
   84MOL0     H11296   8.192   2.059  10.414 -1.4187 -0.4810 -0.5422
   84MOL0     H11297   8.218   1.930  10.533  0.1640  1.9577 -0.2312
   84MOL0     H11298   8.078   1.779  10.385 -1.1364  0.7966  2.1849
   84MOL0     H11299   8.056   1.911  10.268 -0.3834  0.0069  0.3705
   84MOL0     H11300   7.756   1.896  10.612  0.4978  0.6279  0.1114
   84MOL0     H11301   7.513   1.705  10.630 -1.1051  3.1462  4.3891
   84MOL0     H11302   7.520   1.864  10.657  3.9590  1.6699 -1.2174
   84MOL0     H11303   7.409   1.807  10.521  0.0890  1.3411 -0.9147
   84MOL0     H11304   7.396   1.446  10.599  0.0608  0.9936 -0.3306
   84MOL0     H11305   7.195   1.349  10.662 -2.5984 -0.9432 -0.4287
   84MOL0     H11306   6.839   1.508  10.617  0.4341  3.0658 -1.2599
   84MOL0     H11307   6.851   1.547  10.449 -4.8739 -0.1152 -0.5260
   84MOL0     H11308   6.712   1.365  10.394 -0.3866  0.0849  0.0623
   84MOL0     H11309   6.704   1.291  10.555 -3.3597 -2.0833 -2.2214
   84MOL0     H11310   6.505   1.390  10.528 -0.4383 -1.0002 -2.5536
   84MOL0     H11311   6.578   1.531  10.443  1.5562  0.9759  0.4191
   84MOL0     H11312   6.590   1.497  10.745 -0.2999  0.6242  0.4226
   84MOL0     H11313   6.646   1.633  10.652 -2.1093  2.1200 -0.8492
   84MOL0     H11314   6.439   1.708  10.584  0.5260 -0.6864  0.6701
   84MOL0     H11315   6.433   1.686  10.755  0.3619  1.5070 -1.1550
   84MOL0     H11316   6.287   1.513  10.553  0.7201  0.9760 -1.2245
   84MOL0     H11317   6.346   1.441  10.704  1.2587 -2.3124 -3.1567
   84MOL0     H11318   6.162   1.674  10.640  0.1412  1.1292  1.5425
   84MOL0     H11319   6.203   1.644  10.809 -1.9796 -1.5598  1.1065
   84MOL0     H11320   6.062   1.428  10.793  4.5872  0.8838  1.7373
   84MOL0     H11321   6.047   1.476  10.610  5.1296  0.9547 -1.5828
   84MOL0     H11322   7.023   1.492  10.289  1.4666 -0.7534 -2.8550
   84MOL0     H11323   7.224   1.590  10.234 -1.8931  5.2700  2.0280
   84MOL0     H11324   7.670   1.714  10.157 -1.3215 -1.3648  1.1274
   84MOL0     H11325   7.889   1.820  10.215  1.2341 -5.3921  0.0615
   84MOL0     H11326   9.969   2.072  10.294 -0.8544 -1.3071 -0.0036
   84MOL0     H11327  10.214   2.125  10.303  0.1608 -0.6773  0.3386
   84MOL0     H11328  10.672   1.699  10.266  3.8106 -1.8372 -0.6538
   84MOL0     H11329  10.906   1.717  10.257 -0.4158  0.1442  0.2213
   84MOL0     H11330  11.137   1.762  10.262 -0.4050 -1.0687  0.4773
   84MOL0     H11331  11.098   1.789  10.092  0.3547 -0.0245  0.3736
   84MOL0     H11332  11.243   1.986  10.072  1.8140 -1.1599 -2.0523
   84MOL0     H11333  11.323   1.821  10.117 -1.9689 -1.8692  1.9190
   84MOL0     H11334  11.338   1.888  10.348  2.8336 -1.1497 -0.9489
   84MOL0     H11335  11.269   2.043  10.304  0.3735  1.0475  0.4198
   84MOL0     H11336  11.497   2.112  10.297  1.6301 -0.8902  1.3718
   84MOL0     H11337  11.483   2.027  10.133  1.2662 -2.3523  0.4956
   84MOL0     H11338  11.716   1.765  10.371  0.0145  1.9569 -0.5545
   84MOL0     H11339  10.878   2.150  10.221 -1.2691  1.1820  0.2046
   84MOL0     H11340  10.617   2.112  10.222  1.6086  2.4906  1.1084
   85MOL0     O11341  10.712   1.434  11.023 -0.3789  0.4981  0.0944
   85MOL0     C11342  10.745   1.549  11.002  0.1275 -1.1331  0.6615
   85MOL0     O11343  10.858   1.593  10.937 -0.4662  0.3193  0.3219
   85MOL0     C11344  10.965   1.517  10.905  0.1229  0.2815  0.2011
   85MOL0     C11345  11.093   1.557  10.936  0.3510 -0.3661  0.1240
   85MOL0     C11346  11.209   1.479  10.919 -0.0527 -0.3145  0.1979
   85MOL0     C11347  11.191   1.351  10.877 -0.5405 -0.5571 -1.2212
   85MOL0     O11348  11.293   1.267  10.900  0.3189  0.2359  0.0589
   85MOL0     C11349  11.272   1.125  10.910 -0.0379 -0.2821 -0.2438
   85MOL0     C11350  11.398   1.054  10.958 -1.1270 -0.4311 -0.1046
   85MOL0     C11351  11.427   1.103  11.104 -0.1747  0.7224  0.1403
   85MOL0     C11352  11.542   1.217  11.119  1.2640 -0.0521  0.3247
   85MOL0     C11353  11.553   1.266  11.257 -0.5120 -0.7941 -0.4347
   85MOL0     C11354  11.604   1.160  11.361 -0.7075  0.2852 -0.0501
   85MOL0     C11355  11.760   1.140  11.356 -0.2570 -0.7441 -1.1697
   85MOL0     C11356  11.849   1.255  11.401 -0.1213 -0.1778 -0.6538
   85MOL0     N11357  11.825   1.305  11.536 -0.0061 -0.1261 -0.1080
   85MOL0     C11358  11.724   1.390  11.566 -0.4636  0.6213  0.0843
   85MOL0     C11359  11.748   1.412  11.698  0.6560 -0.8168  0.0658
   85MOL0     C11360  11.666   1.496  11.791 -0.0960  0.5056  0.4034
   85MOL0     C11361  11.513   1.495  11.764  0.4734 -0.0215 -0.2956
   85MOL0     C11362  11.454   1.357  11.805 -0.1864 -1.0017  0.2977
   85MOL0     C11363  11.303   1.350  11.784 -0.8245 -0.6274 -0.4480
   85MOL0     O11364  11.275   1.352  11.640 -0.2751 -0.9643 -0.8757
   85MOL0     C11365  11.139   1.342  11.604  0.4341  0.3214  0.4752
   85MOL0     C11366  11.114   1.299  11.475  0.3114 -0.1149 -0.3308
   85MOL0     C11367  10.984   1.278  11.422  0.4071  0.4333  0.7241
   85MOL0     C11368  10.978   1.230  11.279 -0.7150  0.5092  0.5509
   85MOL0     C11369  10.873   1.290  11.509 -0.2252  0.0343 -0.2779
   85MOL0     C11370  10.739   1.276  11.459  0.2466 -0.7706  0.1589
   85MOL0     O11371  10.701   1.192  11.359  0.3198 -0.0600  0.3198
   85MOL0     C11372  10.569   1.179  11.339 -0.4762  0.6039  0.5674
   85MOL0     C11373  10.490   1.103  11.418  0.5100  0.6491  0.1852
   85MOL0     C11374  10.354   1.079  11.384 -0.4828  1.0552 -0.4446
   85MOL0     C11375  10.293   1.142  11.275 -0.2407 -0.6378 -0.3157
   85MOL0     O11376  10.157   1.119  11.241 -0.5999  0.3180  0.4228
   85MOL0     C11377  10.123   1.142  11.103  0.8106 -0.8414  0.2483
   85MOL0     C11378   9.985   1.073  11.079  0.3558  0.0533  0.4251
   85MOL0     C11379   9.899   1.137  10.966 -0.4426 -0.3134 -0.6999
   85MOL0     C11380   9.835   1.271  11.014  0.0738 -0.8158 -0.0658
   85MOL0     C11381   9.842   1.370  10.900 -1.1611 -0.7390  0.2352
   85MOL0     C11382   9.824   1.516  10.954 -1.1588  0.1960  0.2887
   85MOL0     C11383   9.903   1.612  10.862  0.3354 -0.0713 -0.6476
   85MOL0     C11384  10.053   1.605  10.885 -0.3645 -0.4828 -0.3677
   85MOL0    Cl11385  10.108   1.621  11.055 -0.1507 -0.2425  0.1207
   85MOL0     C11386  10.369   1.238  11.201  0.0384  0.9496  0.0602
   85MOL0     C11387  10.507   1.256  11.232  0.2366  0.8557 -0.3871
   85MOL0     O11388  10.660   1.345  11.528 -0.5366 -0.1463  0.4710
   85MOL0     C11389  10.905   1.345  11.635 -0.2446  0.6942 -0.2970
   85MOL0     C11390  11.034   1.366  11.687 -0.4179  0.3000  0.3100
   85MOL0     N11391  11.839   1.331  11.749  0.0761  0.3029  0.8350
   85MOL0     N11392  11.894   1.269  11.647 -0.5277 -0.3455  0.3123
   85MOL0     C11393  11.065   1.313  10.829 -0.4377 -0.2478  0.3919
   85MOL0     C11394  10.953   1.393  10.839 -0.0795  0.2420 -0.0178
   85MOL0     C11395  10.653   1.661  11.039 -0.9832  0.7163  0.7927
   85MOL0     C11396  10.706   1.793  11.048  0.0329 -0.2153  0.0886
   85MOL0     C11397  10.618   1.902  11.078  0.6676  1.0542  0.5928
   85MOL0     C11398  10.481   1.872  11.091  0.5264  0.2942  0.5074
   85MOL0     O11399  10.389   1.968  11.101  0.6034 -0.1010 -0.2857
   85MOL0     C11400  10.388   2.069  10.996  0.0297  0.3030  0.6739
   85MOL0     C11401  10.253   2.090  10.940 -0.6722 -0.0488  1.0649
   85MOL0     C11402  10.186   1.973  10.863 -0.4331  0.8469 -0.2680
   85MOL0     C11403  10.143   2.019  10.723 -0.5333  0.0988 -0.2182
   85MOL0     C11404  10.259   2.049  10.641 -0.6940  0.4030  0.2508
   85MOL0     C11405  10.349   2.096  10.567 -0.2235 -0.0749  0.1669
   85MOL0     C11406  10.436   1.734  11.093  0.3180 -0.5009 -0.0888
   85MOL0     C11407  10.521   1.632  11.066 -0.5876  0.3092 -0.4578
   85MOL0     H11408  11.112   1.659  10.966  1.9818  0.0178 -1.9905
   85MOL0     H11409  11.300   1.524  10.957  0.1913  0.9675 -1.7974
   85MOL0     H11410  11.177   1.087  10.949  0.1004 -2.1983 -1.6488
   85MOL0     H11411  11.255   1.108  10.803 -2.9426  0.5763 -0.0123
   85MOL0     H11412  11.385   0.947  10.944 -1.4205 -0.3195 -0.6972
   85MOL0     H11413  11.484   1.079  10.895 -0.0653  0.8194  1.7232
   85MOL0     H11414  11.334   1.136  11.152 -0.2835  0.9022 -0.1950
   85MOL0     H11415  11.461   1.015  11.160  0.0318  0.6329 -0.1217
   85MOL0     H11416  11.631   1.167  11.080 -0.8804 -4.8043  0.8538
   85MOL0     H11417  11.517   1.303  11.056  2.3867 -0.9619 -1.4501
   85MOL0     H11418  11.628   1.346  11.254  1.4481 -2.4926  0.5073
   85MOL0     H11419  11.455   1.296  11.294 -1.0684 -1.4252 -1.3803
   85MOL0     H11420  11.577   1.185  11.464 -1.0857  0.4436 -0.1870
   85MOL0     H11421  11.548   1.068  11.342 -0.4835 -0.2399  1.6675
   85MOL0     H11422  11.782   1.058  11.425 -0.8898  1.6307  2.1571
   85MOL0     H11423  11.785   1.116  11.253 -2.7058 -0.6816 -1.8301
   85MOL0     H11424  11.845   1.342  11.334  2.0060  0.4376 -0.0490
   85MOL0     H11425  11.949   1.211  11.397 -0.8174 -1.8481 -0.8453
   85MOL0     H11426  11.646   1.429  11.502 -0.3092  0.7026 -0.0546
   85MOL0     H11427  11.681   1.461  11.894 -2.4140  1.8016  1.2678
   85MOL0     H11428  11.697   1.600  11.776  0.4082  0.6656  2.2780
   85MOL0     H11429  11.487   1.526  11.663 -0.5947 -1.2265 -0.4160
   85MOL0     H11430  11.458   1.567  11.826  0.7018  1.3454 -1.6152
   85MOL0     H11431  11.477   1.339  11.910  0.1498  1.4520  0.7004
   85MOL0     H11432  11.500   1.273  11.751  3.7944  1.3246 -0.3329
   85MOL0     H11433  11.247   1.434  11.825 -1.8616 -0.4783 -2.0798
   85MOL0     H11434  11.271   1.251  11.818  0.5126 -1.7331 -2.1688
   85MOL0     H11435  11.206   1.290  11.417  0.8582  3.5161 -0.2456
   85MOL0     H11436  10.938   1.129  11.272  0.5163  0.1180 -1.9750
   85MOL0     H11437  10.927   1.291  11.205  1.2664  2.2438  0.5177
   85MOL0     H11438  11.078   1.220  11.235  0.1757  2.3905  1.9814
   85MOL0     H11439  10.537   1.045  11.497  2.8706  1.1908 -0.7494
   85MOL0     H11440  10.291   1.011  11.441 -1.2866  3.3470  1.5649
   85MOL0     H11441  10.114   1.250  11.088  1.4708 -0.9913 -1.5014
   85MOL0     H11442  10.199   1.108  11.031  1.7738  2.4322 -0.4662
   85MOL0     H11443  10.011   0.971  11.049 -0.9879  0.3213 -1.8807
   85MOL0     H11444   9.928   1.068  11.172  0.2868  1.5158  0.4843
   85MOL0     H11445   9.818   1.069  10.939 -0.6720 -0.0597 -0.6511
   85MOL0     H11446   9.972   1.149  10.885  1.6008  0.1593  1.1321
   85MOL0     H11447   9.736   1.266  11.061  0.0980 -0.3863  0.0388
   85MOL0     H11448   9.905   1.301  11.093  0.2373  1.5757 -1.0452
   85MOL0     H11449   9.763   1.345  10.828  0.7263 -2.9202 -1.2413
   85MOL0     H11450   9.931   1.352  10.839 -1.5910 -0.6122 -0.4386
   85MOL0     H11451   9.715   1.531  10.951 -1.2284 -0.0913 -3.3715
   85MOL0     H11452   9.857   1.536  11.056  1.8603 -0.3056 -0.5103
   85MOL0     H11453   9.858   1.710  10.877 -0.3766 -0.6107  0.9866
   85MOL0     H11454   9.876   1.570  10.765 -2.2262 -1.5956  0.6023
   85MOL0     H11455  10.092   1.690  10.829 -0.7238  0.9603  1.4589
   85MOL0     H11456  10.105   1.516  10.847 -0.0401 -1.0852  1.3709
   85MOL0     H11457  10.333   1.301  11.120  0.9204 -0.2972 -1.3596
   85MOL0     H11458  10.577   1.318  11.177  3.3012 -0.3032  1.9069
   85MOL0     H11459  10.830   1.362  11.712  2.2164 -0.3948  2.5696
   85MOL0     H11460  11.038   1.405  11.788  0.6361 -4.2231  2.2859
   85MOL0     H11461  11.055   1.221  10.774 -3.5415 -2.3170  3.9292
   85MOL0     H11462  10.856   1.369  10.797  0.3870 -3.7051  0.7013
   85MOL0     H11463  10.807   1.824  11.023 -0.2864  0.6194 -0.2124
   85MOL0     H11464  10.642   2.007  11.070 -1.3784  1.4540 -1.4464
   85MOL0     H11465  10.423   2.164  11.036  2.6947  0.8617 -2.5669
   85MOL0     H11466  10.455   2.030  10.918  0.4331  1.9979  0.1291
   85MOL0     H11467  10.259   2.173  10.869  1.0771 -0.2822  0.8988
   85MOL0     H11468  10.188   2.126  11.020 -2.7455 -0.7511 -0.2249
   85MOL0     H11469  10.096   1.936  10.913  0.3076 -1.2882 -0.4070
   85MOL0     H11470  10.257   1.890  10.873  0.6961  2.0041  2.7019
   85MOL0     H11471  10.078   2.106  10.739 -1.2832 -0.6077  0.7178
   85MOL0     H11472  10.085   1.940  10.674  0.0692  0.2812 -1.2559
   85MOL0     H11473  10.414   2.137  10.492  0.4755 -0.7128  0.4150
   85MOL0     H11474  10.332   1.714  11.114  0.7981 -4.1059 -0.4429
   85MOL0     H11475  10.475   1.535  11.051 -1.8068  0.8696 -0.5242
   86MOL0     O11476   2.203   8.812   0.934  0.6009 -0.1208  0.1015
   86MOL0     C11477   2.294   8.800   0.856 -0.8496  1.3212  0.4353
   86MOL0     O11478   2.281   8.755   0.726 -1.4000  0.9932 -0.0970
   86MOL0     C11479   2.166   8.761   0.649  0.0100  0.3556  0.2557
   86MOL0     C11480   2.144   8.664   0.547  0.1244  0.2510 -0.3865
   86MOL0     C11481   2.020   8.655   0.480 -0.2686  0.2348  0.7271
   86MOL0     C11482   1.937   8.774   0.475 -0.1059  0.8209 -0.3153
   86MOL0     O11483   1.821   8.783   0.401  0.0246  0.2480  0.0282
   86MOL0     C11484   1.838   8.727   0.271 -0.3624 -0.8673  0.7640
   86MOL0     C11485   1.732   8.779   0.169 -0.4586 -0.6435 -0.0945
   86MOL0     C11486   1.766   8.757   0.023  0.5020  0.2532 -0.0225
   86MOL0     C11487   1.642   8.780  -0.072  0.3202 -0.4726 -0.4231
   86MOL0     C11488   1.702   8.805  -0.213  0.8917 -0.3821 -0.3583
   86MOL0     C11489   1.596   8.797  -0.326  0.3037 -0.0743  0.4574
   86MOL0     C11490   1.647   8.854  -0.464 -0.4045  0.3875  0.3301
   86MOL0     C11491   1.571   8.786  -0.580 -0.0522 -0.0032 -0.1023
   86MOL0     N11492   1.436   8.833  -0.583 -0.4334  0.5583  0.3228
   86MOL0     C11493   1.340   8.775  -0.663 -0.4847 -0.0385 -0.4529
   86MOL0     C11494   1.234   8.855  -0.651  0.6953 -0.8571  0.3060
   86MOL0     C11495   1.089   8.848  -0.702 -0.0962 -0.1033  0.6443
   86MOL0     C11496   1.011   8.741  -0.621  0.4468  0.1062  0.7780
   86MOL0     C11497   0.906   8.671  -0.717 -0.0217  0.0158 -0.1221
   86MOL0     C11498   0.951   8.547  -0.798  0.1212 -0.1929 -0.0152
   86MOL0     O11499   1.056   8.470  -0.743  0.3344 -0.5809  0.1200
   86MOL0     C11500   1.083   8.343  -0.803  0.9187  0.2213 -0.0596
   86MOL0     C11501   1.177   8.270  -0.736  0.5448 -0.6512  0.3535
   86MOL0     C11502   1.216   8.147  -0.781 -0.3215  0.5539  0.1168
   86MOL0     C11503   1.320   8.077  -0.693 -0.7711 -0.4372 -0.5944
   86MOL0     C11504   1.151   8.077  -0.887 -0.3570  0.1557 -0.6887
   86MOL0     C11505   1.196   7.953  -0.940  0.6605  0.0932 -0.2781
   86MOL0     O11506   1.091   7.873  -0.974 -0.0698 -0.9151 -0.8813
   86MOL0     C11507   1.101   7.744  -1.012  0.3503 -0.8657  0.9924
   86MOL0     C11508   1.184   7.690  -1.110  0.6591  0.8548 -0.3092
   86MOL0     C11509   1.192   7.549  -1.119  0.4968 -0.0883 -0.0807
   86MOL0     C11510   1.130   7.461  -1.029  0.4351 -0.0182 -0.3663
   86MOL0     O11511   1.129   7.325  -1.033  0.3667 -0.0649 -0.4013
   86MOL0     C11512   1.260   7.267  -1.038 -0.8902 -0.1223  0.1410
   86MOL0     C11513   1.255   7.118  -0.991  0.6440  0.1034 -0.2251
   86MOL0     C11514   1.396   7.059  -0.957  0.7532  1.2824  0.2062
   86MOL0     C11515   1.438   7.104  -0.824 -0.4491  0.7106  0.0009
   86MOL0     C11516   1.581   7.059  -0.799 -1.4684 -0.7503 -0.5333
   86MOL0     C11517   1.626   7.079  -0.648 -0.4540  0.0931  0.2618
   86MOL0     C11518   1.781   7.062  -0.641  0.2758 -0.0309  0.2653
   86MOL0     C11519   1.839   7.196  -0.692 -0.9786  0.9849  0.2465
   86MOL0    Cl11520   2.014   7.172  -0.725  0.0570 -0.0314 -0.3327
   86MOL0     C11521   1.045   7.515  -0.934  0.4567  0.7641 -0.0526
   86MOL0     C11522   1.025   7.658  -0.933  0.3599  0.6372 -0.8809
   86MOL0     O11523   1.312   7.916  -0.951 -0.5173 -0.3133  0.0752
   86MOL0     C11524   1.033   8.141  -0.938 -0.5584 -0.1312 -0.0645
   86MOL0     C11525   1.007   8.274  -0.895  0.4264  0.0902  0.8960
   86MOL0     N11526   1.270   8.955  -0.566 -0.6334  0.5498  0.1341
   86MOL0     N11527   1.391   8.953  -0.533 -0.0606 -0.2300 -0.6233
   86MOL0     C11528   1.966   8.875   0.568 -0.6550 -0.2889 -0.1244
   86MOL0     C11529   2.076   8.868   0.656  0.2868 -0.1112 -0.0875
   86MOL0     C11530   2.436   8.826   0.919 -1.0141 -0.2687  0.4626
   86MOL0     C11531   2.550   8.802   0.847 -0.4144  0.1561  0.2877
   86MOL0     C11532   2.678   8.818   0.891  0.2554 -0.8528 -0.0143
   86MOL0     C11533   2.702   8.847   1.026 -0.7424 -0.3104  0.0769
   86MOL0     O11534   2.825   8.860   1.084  0.3117  0.4181 -0.1711
   86MOL0     C11535   2.932   8.770   1.051 -0.4006  0.8270 -0.3392
   86MOL0     C11536   3.054   8.802   1.141  0.0872  0.6274 -0.2393
   86MOL0     C11537   3.106   8.945   1.114  0.8595  1.0489 -0.6357
   86MOL0     C11538   3.039   9.061   1.194 -0.4093 -0.0274  1.0415
   86MOL0     C11539   3.065   9.029   1.334 -0.6149  0.0036  0.0739
   86MOL0     C11540   3.099   9.021   1.456 -0.4009 -0.7005 -0.0756
   86MOL0     C11541   2.589   8.877   1.097 -1.2304 -0.2128 -0.8553
   86MOL0     C11542   2.460   8.867   1.049 -0.3172  0.1826 -0.0952
   86MOL0     H11543   2.219   8.587   0.540  3.0007  2.5719  2.0712
   86MOL0     H11544   1.990   8.571   0.418 -1.0949 -0.7645  2.4158
   86MOL0     H11545   1.939   8.756   0.240 -0.2701 -0.3684  1.5010
   86MOL0     H11546   1.832   8.618   0.275  0.4746 -0.9220  0.7172
   86MOL0     H11547   1.638   8.722   0.177 -2.3196  1.7504 -2.9181
   86MOL0     H11548   1.708   8.884   0.188 -1.9698 -1.0629  0.5535
   86MOL0     H11549   1.848   8.823  -0.005  2.2223 -1.4160  0.8730
   86MOL0     H11550   1.796   8.652   0.014  0.7918  0.2706  0.6690
   86MOL0     H11551   1.573   8.696  -0.060 -2.5417  2.0725  2.9677
   86MOL0     H11552   1.597   8.875  -0.042 -0.3649 -1.9776  4.0996
   86MOL0     H11553   1.757   8.899  -0.212  0.7583 -0.2890 -1.0739
   86MOL0     H11554   1.767   8.718  -0.224  0.5086 -0.8006  0.6216
   86MOL0     H11555   1.571   8.691  -0.340  2.8527 -0.4872 -1.8428
   86MOL0     H11556   1.510   8.852  -0.285  1.6030  0.1180  3.1471
   86MOL0     H11557   1.645   8.964  -0.463 -0.0341  0.4029 -0.3093
   86MOL0     H11558   1.751   8.826  -0.479  0.2675  1.9656  1.6983
   86MOL0     H11559   1.572   8.677  -0.575  2.0559 -0.0493 -0.4863
   86MOL0     H11560   1.621   8.818  -0.672  2.0074 -1.7423  0.3280
   86MOL0     H11561   1.352   8.689  -0.729  0.1487  3.1999 -5.0705
   86MOL0     H11562   1.038   8.945  -0.697 -1.7971 -0.9393  0.2969
   86MOL0     H11563   1.097   8.810  -0.804 -1.0924 -0.2827  0.6187
   86MOL0     H11564   0.955   8.798  -0.546  1.3580  4.7531 -1.7132
   86MOL0     H11565   1.069   8.660  -0.574 -0.9680 -1.1805  0.3537
   86MOL0     H11566   0.865   8.748  -0.782  1.2847  0.4447 -0.4732
   86MOL0     H11567   0.821   8.636  -0.657  3.4862 -5.1713  2.7044
   86MOL0     H11568   0.996   8.596  -0.886  1.8634  0.9060  1.4159
   86MOL0     H11569   0.863   8.497  -0.839 -0.0836  1.4101 -1.6845
   86MOL0     H11570   1.226   8.325  -0.656  0.7676  1.8670 -1.3962
   86MOL0     H11571   1.421   8.112  -0.718 -0.8005  0.6871  0.7355
   86MOL0     H11572   1.314   8.113  -0.590  0.5453  1.2552 -1.0483
   86MOL0     H11573   1.323   7.968  -0.692  3.9359 -0.5488 -0.6237
   86MOL0     H11574   1.256   7.752  -1.163  0.0728  0.9594 -1.0100
   86MOL0     H11575   1.265   7.506  -1.187 -1.0621 -1.1332 -1.1654
   86MOL0     H11576   1.307   7.274  -1.137  0.8483 -0.3096  0.9264
   86MOL0     H11577   1.336   7.313  -0.974 -1.0245  1.6973 -0.9172
   86MOL0     H11578   1.183   7.129  -0.909  0.4268 -2.2484 -0.0229
   86MOL0     H11579   1.198   7.056  -1.062 -0.2241  1.8470 -1.1222
   86MOL0     H11580   1.460   7.081  -1.043 -0.7491 -3.2596 -2.4397
   86MOL0     H11581   1.388   6.950  -0.950 -0.0979  1.2380 -1.0331
   86MOL0     H11582   1.431   7.212  -0.812  1.1152  0.7281  1.0039
   86MOL0     H11583   1.372   7.053  -0.754  0.0619 -1.3157 -0.8940
   86MOL0     H11584   1.643   7.123  -0.862 -2.2701 -0.9784 -1.5737
   86MOL0     H11585   1.603   6.960  -0.838 -1.4601 -0.8318 -0.3263
   86MOL0     H11586   1.584   7.166  -0.597 -0.5134 -0.7169  1.6352
   86MOL0     H11587   1.586   6.995  -0.591  0.5986 -0.8468 -0.3481
   86MOL0     H11588   1.821   6.985  -0.708 -0.3349 -0.3327  0.2367
   86MOL0     H11589   1.824   7.036  -0.544  0.1981  0.9917  0.5820
   86MOL0     H11590   1.844   7.282  -0.625  1.8177  0.2558  1.1164
   86MOL0     H11591   1.802   7.214  -0.794  1.5207 -2.5694 -1.5167
   86MOL0     H11592   0.989   7.460  -0.860  0.9351  1.0860  0.5517
   86MOL0     H11593   0.966   7.708  -0.857  0.4875 -1.2526  0.5257
   86MOL0     H11594   0.972   8.091  -1.013 -0.5525 -1.3279  0.7093
   86MOL0     H11595   0.918   8.319  -0.939 -0.3026 -2.7351 -0.7584
   86MOL0     H11596   1.894   8.956   0.577 -0.3294  0.1722 -1.4239
   86MOL0     H11597   2.088   8.940   0.737 -0.8864 -0.5359  0.4925
   86MOL0     H11598   2.526   8.780   0.744 -0.8267 -1.5845  0.7282
   86MOL0     H11599   2.751   8.805   0.812  2.1148  0.2945  1.4500
   86MOL0     H11600   2.898   8.667   1.052 -0.0478  0.6703 -1.9428
   86MOL0     H11601   2.963   8.801   0.951  1.8753  3.8146  1.1192
   86MOL0     H11602   3.135   8.737   1.106  0.4309 -0.1765  1.9074
   86MOL0     H11603   3.032   8.790   1.247  1.3466  0.0702 -0.0152
   86MOL0     H11604   3.097   8.963   1.006 -2.7670 -0.1980 -0.6704
   86MOL0     H11605   3.210   8.937   1.147  0.5270 -2.5008 -0.0795
   86MOL0     H11606   2.936   9.059   1.159  0.1969 -0.2106 -0.8520
   86MOL0     H11607   3.070   9.160   1.161 -2.3211  0.5218  0.7654
   86MOL0     H11608   3.128   9.007   1.558 -2.1664  0.3245  0.6161
   86MOL0     H11609   2.601   8.902   1.202 -2.4356  2.6232 -1.2943
   86MOL0     H11610   2.373   8.903   1.103 -1.2529 -0.6053 -1.0381
   87MOL0     O11611   7.923   1.336   5.194  0.6137  0.4336  0.1658
   87MOL0     C11612   7.952   1.447   5.152 -1.4026  0.1557  0.4380
   87MOL0     O11613   7.875   1.565   5.160  0.0637 -0.0080  0.2033
   87MOL0     C11614   7.752   1.556   5.217  0.0690 -0.1683 -0.3884
   87MOL0     C11615   7.659   1.461   5.168 -0.4704 -0.8787  0.2011
   87MOL0     C11616   7.537   1.442   5.229  0.4540  0.2247  0.4358
   87MOL0     C11617   7.515   1.514   5.355 -0.6469 -0.1989 -0.9636
   87MOL0     O11618   7.387   1.501   5.413  0.1522  0.7000  0.2766
   87MOL0     C11619   7.338   1.612   5.485  0.0434  0.8284  0.1744
   87MOL0     C11620   7.195   1.570   5.521 -0.1583  0.7193 -0.5986
   87MOL0     C11621   7.197   1.458   5.626 -0.1941  0.2196 -0.0989
   87MOL0     C11622   7.060   1.422   5.682 -0.6728  0.8293 -0.1689
   87MOL0     C11623   7.089   1.358   5.823 -0.2190 -0.9900  0.5877
   87MOL0     C11624   6.961   1.294   5.863  0.3440  0.2969  0.2110
   87MOL0     C11625   6.957   1.276   6.011 -0.1964 -0.7203 -0.4580
   87MOL0     C11626   6.873   1.158   6.064  0.5730  0.5608 -0.0518
   87MOL0     N11627   6.735   1.203   6.075  0.6715 -0.8151 -1.1110
   87MOL0     C11628   6.652   1.244   5.969 -0.3273 -0.4214 -0.4077
   87MOL0     C11629   6.537   1.294   6.024 -0.4546  0.5191  0.1983
   87MOL0     C11630   6.437   1.370   5.941  0.1234  0.1793 -1.3523
   87MOL0     C11631   6.297   1.296   5.929  0.2664 -0.1332 -0.7020
   87MOL0     C11632   6.206   1.305   6.056  0.1331  0.3524  0.4688
   87MOL0     C11633   6.092   1.207   6.056  0.6270  0.6188  1.9174
   87MOL0     O11634   5.987   1.232   5.961  0.1446  0.2625 -0.4625
   87MOL0     C11635   5.870   1.163   5.973 -0.0785 -0.3056 -0.8541
   87MOL0     C11636   5.772   1.202   5.889  0.5548 -0.2213 -0.6370
   87MOL0     C11637   5.648   1.150   5.887  0.0037  0.5420  0.6950
   87MOL0     C11638   5.547   1.209   5.794 -0.4778  0.1459 -0.0812
   87MOL0     C11639   5.619   1.044   5.987  0.3803 -0.5157  0.3941
   87MOL0     C11640   5.496   0.956   5.979  0.1671  0.0856  0.6390
   87MOL0     O11641   5.496   0.848   6.056  0.0562  0.9455 -0.0915
   87MOL0     C11642   5.395   0.751   6.045  1.0809 -0.3750 -0.3906
   87MOL0     C11643   5.288   0.740   6.133  0.0403  0.0124  0.2381
   87MOL0     C11644   5.210   0.624   6.134  0.0082 -0.0568  0.1753
   87MOL0     C11645   5.217   0.525   6.032  0.1541 -0.5680 -0.1695
   87MOL0     O11646   5.164   0.402   6.036 -0.2004  0.2686  0.9211
   87MOL0     C11647   5.036   0.393   6.105 -0.2386  0.0210 -0.9616
   87MOL0     C11648   4.980   0.253   6.126 -0.3983  0.4657  0.5349
   87MOL0     C11649   4.980   0.174   5.996 -0.2670  0.6423  0.2554
   87MOL0     C11650   4.902   0.037   5.994 -0.3210  0.5485  0.5149
   87MOL0     C11651   4.946  -0.066   6.101 -0.2976 -0.2099 -0.5496
   87MOL0     C11652   4.836  -0.172   6.118  0.8379  0.6198 -0.1240
   87MOL0     C11653   4.882  -0.297   6.181 -0.1581  0.7354 -0.8835
   87MOL0     C11654   4.775  -0.377   6.248  0.0837  0.7807 -0.5611
   87MOL0    Cl11655   4.738  -0.294   6.402  0.0494  0.1789 -0.4785
   87MOL0     C11656   5.323   0.543   5.937  0.9140 -0.7066 -0.0578
   87MOL0     C11657   5.411   0.647   5.951  0.2918 -0.3226  0.2456
   87MOL0     O11658   5.410   0.987   5.896 -1.2895  0.0241  0.6846
   87MOL0     C11659   5.722   1.001   6.081 -0.2454 -0.8832 -0.6129
   87MOL0     C11660   5.847   1.066   6.071  0.2973  0.9951 -0.0878
   87MOL0     N11661   6.553   1.280   6.160 -0.0541  0.2560 -0.1962
   87MOL0     N11662   6.657   1.222   6.186 -0.1496 -0.2928  0.5493
   87MOL0     C11663   7.616   1.597   5.403  1.0314 -0.4194 -0.4829
   87MOL0     C11664   7.729   1.622   5.335  0.9739 -0.9890 -0.3822
   87MOL0     C11665   8.068   1.457   5.062  0.5493  0.5292  0.0101
   87MOL0     C11666   8.053   1.528   4.947 -0.2853 -0.6454  0.0287
   87MOL0     C11667   8.154   1.557   4.858 -0.2772  0.4488 -0.2497
   87MOL0     C11668   8.289   1.509   4.889 -0.3322 -0.2188 -0.7560
   87MOL0     O11669   8.385   1.528   4.785 -0.1393 -0.4211 -0.5264
   87MOL0     C11670   8.487   1.430   4.762 -0.5332 -0.8815 -0.6838
   87MOL0     C11671   8.425   1.323   4.670 -0.7763  0.7809 -0.5934
   87MOL0     C11672   8.335   1.224   4.744  0.1432 -0.0286 -0.9841
   87MOL0     C11673   8.314   1.087   4.681 -0.1965 -0.2279  0.3766
   87MOL0     C11674   8.209   1.087   4.585 -0.7091 -0.1594  0.2657
   87MOL0     C11675   8.130   1.132   4.500  0.1406  1.1738  0.1826
   87MOL0     C11676   8.303   1.422   4.996 -0.4127  0.0913  0.2778
   87MOL0     C11677   8.196   1.398   5.087  0.1829  1.1710 -0.6395
   87MOL0     H11678   7.686   1.417   5.072 -3.1277  3.2751 -2.7925
   87MOL0     H11679   7.464   1.374   5.188  1.0031 -1.0720  1.5195
   87MOL0     H11680   7.410   1.635   5.564  0.3570 -3.9083  1.5181
   87MOL0     H11681   7.347   1.695   5.414  4.4868  0.2835 -0.1992
   87MOL0     H11682   7.138   1.655   5.558  0.4806  0.9448 -0.1182
   87MOL0     H11683   7.140   1.546   5.430  1.2793  1.8636 -1.8310
   87MOL0     H11684   7.258   1.376   5.585 -2.6439 -1.1439 -1.2188
   87MOL0     H11685   7.246   1.497   5.716  3.5482  3.2822 -3.0758
   87MOL0     H11686   6.991   1.507   5.690  1.3163  2.3777  1.6854
   87MOL0     H11687   7.033   1.335   5.620 -0.6167 -0.2466  1.2740
   87MOL0     H11688   7.174   1.289   5.824  1.2739  0.6227 -2.3455
   87MOL0     H11689   7.107   1.431   5.903 -1.3113  0.4254 -0.4016
   87MOL0     H11690   6.882   1.367   5.842 -0.3715 -0.4577  0.2486
   87MOL0     H11691   6.939   1.205   5.804  0.6736 -0.8178  1.7084
   87MOL0     H11692   7.056   1.253   6.053 -0.2832  1.5968  1.2176
   87MOL0     H11693   6.937   1.377   6.048 -0.1883  0.5548 -3.6147
   87MOL0     H11694   6.903   1.129   6.165  1.6118  2.7847  0.3356
   87MOL0     H11695   6.876   1.074   5.994  0.5373  0.0063  0.5941
   87MOL0     H11696   6.667   1.253   5.862 -0.6770 -3.7904 -0.8480
   87MOL0     H11697   6.426   1.468   5.988  0.4788 -1.7489  3.2642
   87MOL0     H11698   6.475   1.375   5.838 -0.4714  1.6937 -1.5328
   87MOL0     H11699   6.310   1.189   5.909 -1.2304 -0.0877 -2.0866
   87MOL0     H11700   6.235   1.344   5.853 -0.0972  0.9345  0.2511
   87MOL0     H11701   6.157   1.403   6.066 -0.0885  0.2704  0.2038
   87MOL0     H11702   6.272   1.284   6.141  3.0718 -4.2512 -2.4857
   87MOL0     H11703   6.048   1.210   6.156 -2.1551 -2.0267  0.9237
   87MOL0     H11704   6.133   1.108   6.032  0.1611  0.4973  1.6266
   87MOL0     H11705   5.790   1.280   5.816 -0.2402 -2.1686 -3.0194
   87MOL0     H11706   5.540   1.143   5.708  0.7317  0.1542 -0.2042
   87MOL0     H11707   5.452   1.219   5.848  0.3765  1.2439  1.2983
   87MOL0     H11708   5.584   1.307   5.760 -1.3209  1.3163  2.1142
   87MOL0     H11709   5.276   0.823   6.203 -1.6781  1.2461 -1.3995
   87MOL0     H11710   5.147   0.603   6.220 -1.6642 -2.2225 -1.4524
   87MOL0     H11711   5.045   0.436   6.206 -2.4205 -1.8560  0.1214
   87MOL0     H11712   4.957   0.453   6.060 -2.3963  1.4650  4.0257
   87MOL0     H11713   5.036   0.199   6.203  0.1189 -3.2584 -2.1234
   87MOL0     H11714   4.880   0.260   6.168 -1.0190  0.1645 -0.8458
   87MOL0     H11715   5.085   0.151   5.977 -0.5356 -1.0526  0.6070
   87MOL0     H11716   4.951   0.238   5.913 -1.1277  0.5002  0.4307
   87MOL0     H11717   4.797   0.066   6.007 -0.1047  1.0743  1.1549
   87MOL0     H11718   4.918  -0.009   5.896  1.6042 -1.8303  1.8461
   87MOL0     H11719   4.976  -0.021   6.196  5.6625 -3.1309 -0.5855
   87MOL0     H11720   5.038  -0.113   6.064 -0.4899 -0.2240 -1.0219
   87MOL0     H11721   4.759  -0.119   6.175  1.3032  3.1678 -1.7110
   87MOL0     H11722   4.798  -0.193   6.017  1.1583  1.2023 -0.3709
   87MOL0     H11723   4.950  -0.276   6.265 -1.3890 -2.9009  1.2196
   87MOL0     H11724   4.933  -0.365   6.112 -1.3731  0.1021 -1.1687
   87MOL0     H11725   4.813  -0.477   6.269 -1.0807  0.4202 -0.1361
   87MOL0     H11726   4.688  -0.378   6.183  1.2227 -1.4183 -2.1572
   87MOL0     H11727   5.344   0.459   5.872  1.2038 -1.5719  1.1231
   87MOL0     H11728   5.489   0.638   5.876 -0.3065 -0.2984 -0.3749
   87MOL0     H11729   5.714   0.923   6.156  2.0206  0.5777  1.2913
   87MOL0     H11730   5.929   1.022   6.127  1.3240 -0.0143 -2.2566
   87MOL0     H11731   7.602   1.643   5.501  4.1226  0.7068 -0.4700
   87MOL0     H11732   7.808   1.683   5.376 -0.4804  1.0072 -0.4227
   87MOL0     H11733   7.958   1.576   4.931  1.1670  2.3873 -0.2229
   87MOL0     H11734   8.159   1.627   4.775  2.6097  2.3690  1.3512
   87MOL0     H11735   8.572   1.480   4.716  1.3772 -0.6093  2.7977
   87MOL0     H11736   8.515   1.380   4.855 -0.3573 -1.1297 -0.8701
   87MOL0     H11737   8.509   1.261   4.636 -0.9014 -0.0997  0.6488
   87MOL0     H11738   8.378   1.365   4.581  1.3097  1.6888 -1.3266
   87MOL0     H11739   8.238   1.274   4.753  2.2926  4.6658 -0.9823
   87MOL0     H11740   8.382   1.205   4.841  0.2952  2.1200 -0.5883
   87MOL0     H11741   8.273   1.023   4.760 -4.4240 -0.8114 -1.9912
   87MOL0     H11742   8.408   1.054   4.636  1.1387  3.5166  0.0852
   87MOL0     H11743   8.062   1.171   4.427 -0.7592  0.7948  0.8010
   87MOL0     H11744   8.399   1.374   5.014  1.6302  1.2878 -5.2532
   87MOL0     H11745   8.204   1.328   5.170  1.4977 -0.3179 -1.9532
   88MOL0     O11746   1.612   0.560   9.960  1.0903  0.7495  0.1177
   88MOL0     C11747   1.694   0.494  10.018  0.0938 -0.0056 -0.9377
   88MOL0     O11748   1.664   0.395  10.096 -0.4620  0.3165  0.0526
   88MOL0     C11749   1.533   0.363  10.114  0.2366  0.7334 -0.3264
   88MOL0     C11750   1.460   0.430  10.203  0.2555 -0.0726  0.1553
   88MOL0     C11751   1.319   0.398  10.215 -0.8240 -0.2361  0.1948
   88MOL0     C11752   1.263   0.286  10.155  1.0015 -0.6140  0.2342
   88MOL0     O11753   1.133   0.246  10.182 -0.1261  0.2916 -0.3034
   88MOL0     C11754   1.066   0.129  10.132  0.6234 -0.5470  0.4800
   88MOL0     C11755   0.934   0.116  10.215 -0.3837  0.1021 -0.1170
   88MOL0     C11756   0.818   0.198  10.157 -0.7043 -0.5123  0.5041
   88MOL0     C11757   0.690   0.137  10.198 -1.4054  0.0993 -0.3439
   88MOL0     C11758   0.565   0.212  10.143 -0.0801 -0.2234 -0.0971
   88MOL0     C11759   0.531   0.259   9.997  0.2198 -0.4931 -0.4236
   88MOL0     C11760   0.518   0.144   9.890  0.2055 -0.8292  0.0287
   88MOL0     C11761   0.413   0.044   9.939  0.0892 -1.1401  0.6106
   88MOL0     N11762   0.276   0.091   9.946  0.0286  0.4721  0.0472
   88MOL0     C11763   0.174   0.031  10.015 -0.8662 -0.0524  0.1681
   88MOL0     C11764   0.062   0.112  10.010  0.0744  0.3510 -0.1472
   88MOL0     C11765  -0.068   0.088  10.088  0.0692 -0.3104 -0.0213
   88MOL0     C11766  -0.142  -0.028  10.029 -0.1705 -0.1391 -0.2160
   88MOL0     C11767  -0.278  -0.040  10.101 -0.8927  0.4435  0.7273
   88MOL0     C11768  -0.355  -0.166  10.056  0.4566  0.1934 -0.4537
   88MOL0     O11769  -0.484  -0.188  10.121 -0.6796 -0.0664  0.2881
   88MOL0     C11770  -0.484  -0.240  10.240  0.6902 -1.1847  0.1151
   88MOL0     C11771  -0.373  -0.289  10.305 -0.1446  0.0162 -0.2640
   88MOL0     C11772  -0.391  -0.354  10.430 -0.1152 -0.2319 -0.2067
   88MOL0     C11773  -0.270  -0.421  10.482  0.1815 -0.4785 -0.4385
   88MOL0     C11774  -0.522  -0.364  10.487  1.1694  0.3124 -0.9501
   88MOL0     C11775  -0.548  -0.420  10.626 -0.1998  0.2946 -0.3035
   88MOL0     O11776  -0.460  -0.527  10.659  0.5306 -0.3419 -0.3902
   88MOL0     C11777  -0.507  -0.622  10.745  0.4450 -0.9645 -0.2457
   88MOL0     C11778  -0.409  -0.671  10.829 -0.0037 -0.0954 -1.2698
   88MOL0     C11779  -0.426  -0.764  10.937  0.1318 -1.0957 -0.3588
   88MOL0     C11780  -0.560  -0.802  10.961  0.0083 -0.4869 -0.1358
   88MOL0     O11781  -0.600  -0.887  11.062  0.7304  0.0347 -0.3995
   88MOL0     C11782  -0.521  -1.002  11.115 -0.3743  0.7691  0.9173
   88MOL0     C11783  -0.475  -1.112  11.011  0.3951 -0.1886  0.6308
   88MOL0     C11784  -0.399  -1.226  11.060  0.3118 -0.0761  0.2183
   88MOL0     C11785  -0.490  -1.332  11.122  0.2128  1.1592 -0.5428
   88MOL0     C11786  -0.415  -1.447  11.176  0.4336 -0.1652 -0.4438
   88MOL0     C11787  -0.507  -1.573  11.203 -0.0626 -0.0321 -0.2801
   88MOL0     C11788  -0.592  -1.555  11.333 -0.2143 -0.1781 -0.9989
   88MOL0     C11789  -0.692  -1.661  11.357 -0.1044 -0.7197  0.4586
   88MOL0    Cl11790  -0.613  -1.826  11.341  0.0004  0.2040  0.1173
   88MOL0     C11791  -0.661  -0.744  10.881 -0.6557 -0.7256 -0.3157
   88MOL0     C11792  -0.640  -0.648  10.782  0.5393  0.0422 -0.7644
   88MOL0     O11793  -0.629  -0.368  10.709  0.2891  0.1740  0.4498
   88MOL0     C11794  -0.633  -0.324  10.416 -0.0673 -0.0930 -0.3775
   88MOL0     C11795  -0.616  -0.256  10.291  0.6314  0.1880  0.6174
   88MOL0     N11796   0.100   0.227   9.945 -0.4045  0.5273  0.2420
   88MOL0     N11797   0.212   0.206   9.902  0.3862  0.4872  0.1784
   88MOL0     C11798   1.350   0.209  10.070 -0.2803  0.8004 -0.0512
   88MOL0     C11799   1.485   0.243  10.057 -0.5861 -0.4031 -0.7098
   88MOL0     C11800   1.838   0.525  10.015  0.0079  0.3896  0.8925
   88MOL0     C11801   1.882   0.608   9.909 -0.5121 -1.3241 -0.5676
   88MOL0     C11802   2.019   0.642   9.905  0.2995 -0.6052  0.5212
   88MOL0     C11803   2.117   0.598   9.996 -0.2992  1.5782  0.0124
   88MOL0     O11804   2.247   0.620  10.000  0.2580 -0.3046 -0.2489
   88MOL0     C11805   2.302   0.741   9.932  1.1607  1.7233 -0.2802
   88MOL0     C11806   2.421   0.799  10.004  0.8958 -0.8974 -1.4494
   88MOL0     C11807   2.376   0.815  10.150  0.6639  0.3140 -0.8513
   88MOL0     C11808   2.268   0.921  10.182  0.3240  0.9609  0.5255
   88MOL0     C11809   2.318   1.058  10.196 -0.3506 -0.3527 -0.2741
   88MOL0     C11810   2.360   1.169  10.200 -0.1081 -0.2399  1.1157
   88MOL0     C11811   2.069   0.504  10.083  0.2894  0.9795 -0.7825
   88MOL0     C11812   1.933   0.467  10.100  0.0032 -0.6388 -0.5217
   88MOL0     H11813   1.503   0.517  10.252  3.1865 -1.4669  0.2316
   88MOL0     H11814   1.256   0.466  10.271 -0.4841  0.0044  0.2916
   88MOL0     H11815   1.052   0.138  10.024  0.1655  5.1119  0.7268
   88MOL0     H11816   1.131   0.044  10.155  3.0242  0.3953 -2.2053
   88MOL0     H11817   0.907   0.012  10.233 -3.9846  0.8432 -0.5275
   88MOL0     H11818   0.971   0.159  10.309 -0.9808  1.3302 -0.4195
   88MOL0     H11819   0.822   0.303  10.188  2.3878 -0.4537  0.2104
   88MOL0     H11820   0.836   0.188  10.050  0.1805 -0.2578  0.6195
   88MOL0     H11821   0.691   0.033  10.162  0.5513 -0.5266  1.3254
   88MOL0     H11822   0.691   0.145  10.307 -1.8827  1.7252 -0.4325
   88MOL0     H11823   0.483   0.150  10.180  0.9182 -1.8938 -0.5404
   88MOL0     H11824   0.569   0.309  10.193 -1.0167 -0.5747  0.7055
   88MOL0     H11825   0.439   0.319  10.002  1.1383  0.8864  2.6823
   88MOL0     H11826   0.603   0.336   9.966  1.4137 -1.7156 -0.7516
   88MOL0     H11827   0.489   0.193   9.797  1.4586 -0.2884 -0.1053
   88MOL0     H11828   0.615   0.093   9.885 -0.4976 -2.1403 -0.7486
   88MOL0     H11829   0.452   0.002  10.032  3.5809 -1.2516 -0.7758
   88MOL0     H11830   0.413  -0.036   9.864  3.3762  0.5812 -1.4745
   88MOL0     H11831   0.194  -0.064  10.063 -0.7528 -1.6274 -2.7330
   88MOL0     H11832  -0.038   0.057  10.188  1.1459  0.3921 -0.1071
   88MOL0     H11833  -0.127   0.180  10.097  0.6945  0.1214 -0.1881
   88MOL0     H11834  -0.076  -0.115  10.040  0.8430  0.7312  0.8838
   88MOL0     H11835  -0.152   0.002   9.924 -2.1461 -1.7925 -0.5467
   88MOL0     H11836  -0.325   0.053  10.068 -0.4550  0.3788 -0.1278
   88MOL0     H11837  -0.266  -0.028  10.209  4.5257 -0.4074  0.4707
   88MOL0     H11838  -0.293  -0.257  10.054  1.7591  1.0042  0.9003
   88MOL0     H11839  -0.385  -0.151   9.952 -0.7521 -0.1889 -0.1708
   88MOL0     H11840  -0.277  -0.282  10.255 -0.3272  1.6314 -0.4444
   88MOL0     H11841  -0.243  -0.401  10.586  0.8202 -0.9969 -0.5002
   88MOL0     H11842  -0.293  -0.527  10.485 -1.4787 -0.1689 -1.1590
   88MOL0     H11843  -0.177  -0.419  10.424  0.7026 -1.2549  0.3569
   88MOL0     H11844  -0.307  -0.638  10.811  0.8418 -2.3660 -0.9891
   88MOL0     H11845  -0.343  -0.789  11.001  0.6337  0.0117 -0.5425
   88MOL0     H11846  -0.433  -0.966  11.168  0.0495  2.2343 -0.6525
   88MOL0     H11847  -0.583  -1.053  11.189  0.5656  1.9591  2.5724
   88MOL0     H11848  -0.565  -1.148  10.960  0.5147  0.7550 -0.2599
   88MOL0     H11849  -0.416  -1.061  10.935 -0.1989  0.3789  0.5431
   88MOL0     H11850  -0.332  -1.181  11.134  0.3185  1.2437 -0.5546
   88MOL0     H11851  -0.348  -1.270  10.974 -0.9227 -1.7119  0.2828
   88MOL0     H11852  -0.545  -1.286  11.205  2.7537  2.6591  0.4413
   88MOL0     H11853  -0.556  -1.367  11.043 -0.4782 -0.6734  0.7705
   88MOL0     H11854  -0.377  -1.413  11.273 -1.8817 -0.3168  0.5895
   88MOL0     H11855  -0.326  -1.475  11.120 -0.4765 -1.0656 -1.4804
   88MOL0     H11856  -0.567  -1.599  11.115  1.4837 -1.0172 -1.0934
   88MOL0     H11857  -0.445  -1.659  11.229 -1.5845 -0.2822  2.9826
   88MOL0     H11858  -0.648  -1.462  11.325  2.1301  1.3656 -0.6033
   88MOL0     H11859  -0.520  -1.548  11.415  0.3566  1.3404 -1.5891
   88MOL0     H11860  -0.770  -1.650  11.281 -0.4763 -1.4834  0.7196
   88MOL0     H11861  -0.732  -1.653  11.458 -0.2658 -1.2637  0.4432
   88MOL0     H11862  -0.763  -0.778  10.897 -0.9742  0.6985  0.8319
   88MOL0     H11863  -0.725  -0.611  10.726 -2.4008 -1.6989  2.1875
   88MOL0     H11864  -0.733  -0.333  10.459  0.5167 -0.4380  0.9486
   88MOL0     H11865  -0.700  -0.225  10.231  0.7287  1.0803  0.9365
   88MOL0     H11866   1.325   0.109  10.036 -0.0504  0.5994  0.3528
   88MOL0     H11867   1.535   0.174   9.990  1.0935 -0.3521  0.4361
   88MOL0     H11868   1.805   0.640   9.839 -1.0636  1.8281  1.2808
   88MOL0     H11869   2.044   0.724   9.838 -0.1533 -1.8249 -1.2114
   88MOL0     H11870   2.318   0.710   9.828  0.3309 -0.4194  0.1824
   88MOL0     H11871   2.226   0.819   9.931  1.4838  2.0503  0.2814
   88MOL0     H11872   2.465   0.890   9.963  0.4291 -0.2827 -0.6217
   88MOL0     H11873   2.501   0.724  10.003  2.2219  0.3198  1.1893
   88MOL0     H11874   2.464   0.844  10.208 -0.0483 -0.3672  0.6305
   88MOL0     H11875   2.338   0.721  10.191  0.0873  1.1129  0.5378
   88MOL0     H11876   2.225   0.882  10.275  0.3059 -2.2712 -0.7280
   88MOL0     H11877   2.195   0.905  10.102  0.4935  0.4458  0.4733
   88MOL0     H11878   2.384   1.271  10.222  0.5549 -0.0039 -0.5662
   88MOL0     H11879   2.139   0.461  10.153  2.7324  4.4747 -0.7818
   88MOL0     H11880   1.912   0.396  10.179 -0.5146  1.5992  1.4926
   89MOL0     O11881   0.451   4.635   4.318  1.3784  0.3629 -0.1862
   89MOL0     C11882   0.444   4.670   4.430  0.2202  0.0887 -0.6047
   89MOL0     O11883   0.456   4.807   4.466  0.6406 -0.3888 -0.1678
   89MOL0     C11884   0.489   4.888   4.362  0.2790 -0.6826 -1.4586
   89MOL0     C11885   0.626   4.892   4.340  0.0213  0.2917 -0.4718
   89MOL0     C11886   0.679   4.964   4.229  0.0626  0.5292 -0.1942
   89MOL0     C11887   0.597   5.031   4.140  0.0354  0.9042 -0.2427
   89MOL0     O11888   0.639   5.103   4.033  0.1358 -0.2674 -0.3717
   89MOL0     C11889   0.729   5.038   3.941 -0.4641  0.0419  0.8584
   89MOL0     C11890   0.736   5.127   3.816  0.6680  0.0483 -0.0367
   89MOL0     C11891   0.740   5.044   3.688 -0.4419  0.0440  0.8996
   89MOL0     C11892   0.669   5.109   3.566 -0.0812 -1.0230 -0.3623
   89MOL0     C11893   0.687   5.032   3.434  0.1500 -0.9071  0.3228
   89MOL0     C11894   0.661   4.871   3.443 -0.0589 -0.2591 -0.1563
   89MOL0     C11895   0.664   4.794   3.316  0.2958  0.2230  0.0167
   89MOL0     C11896   0.522   4.785   3.247  0.1803  0.3659 -0.4314
   89MOL0     N11897   0.485   4.914   3.201 -0.0281 -0.8679  0.1196
   89MOL0     C11898   0.374   4.984   3.222 -0.6270  0.3811  0.2035
   89MOL0     C11899   0.396   5.108   3.177 -0.6635  0.5148  0.6450
   89MOL0     C11900   0.307   5.231   3.188 -0.3284  0.6670 -0.3530
   89MOL0     C11901   0.193   5.242   3.079  0.7773 -0.8718  0.6297
   89MOL0     C11902   0.228   5.301   2.944 -0.4487  0.4148  0.0458
   89MOL0     C11903   0.280   5.447   2.955 -0.1573  0.8265  0.9892
   89MOL0     O11904   0.310   5.500   2.830 -0.6685 -0.4642 -0.6960
   89MOL0     C11905   0.204   5.540   2.761  0.1040 -0.4788  0.0267
   89MOL0     C11906   0.123   5.641   2.812  0.9687  0.1584  1.0396
   89MOL0     C11907   0.008   5.683   2.738 -0.0412  0.7485 -0.7226
   89MOL0     C11908  -0.094   5.765   2.818 -0.6527  0.0024  0.5632
   89MOL0     C11909  -0.022   5.627   2.609 -0.0551 -1.3286  0.1805
   89MOL0     C11910  -0.145   5.667   2.524 -0.3601 -0.7316  0.1539
   89MOL0     O11911  -0.215   5.779   2.559 -0.4628  0.0796 -0.1732
   89MOL0     C11912  -0.353   5.805   2.520  0.2552  0.0895 -0.4084
   89MOL0     C11913  -0.439   5.717   2.442  0.4413  0.2152 -0.4042
   89MOL0     C11914  -0.573   5.751   2.414 -0.2159  0.2436  0.2851
   89MOL0     C11915  -0.633   5.868   2.470 -0.5702 -0.3337  0.5218
   89MOL0     O11916  -0.770   5.877   2.457  0.0168 -0.4949  0.1201
   89MOL0     C11917  -0.851   5.969   2.539 -0.1997  0.7185  0.2162
   89MOL0     C11918  -0.847   6.121   2.501 -0.1213  0.1887  0.1727
   89MOL0     C11919  -0.904   6.165   2.368 -0.0897  1.1108  0.5840
   89MOL0     C11920  -0.940   6.310   2.353 -0.7463  0.3775 -0.2005
   89MOL0     C11921  -0.960   6.376   2.210 -0.3272  0.1153 -0.0858
   89MOL0     C11922  -0.832   6.362   2.117  0.1711 -0.3744  0.3227
   89MOL0     C11923  -0.745   6.487   2.152  0.2578 -0.0508  0.4219
   89MOL0     C11924  -0.591   6.468   2.128  0.4213 -0.0918 -0.1578
   89MOL0    Cl11925  -0.529   6.366   2.257 -0.0954 -0.1895  0.1747
   89MOL0     C11926  -0.549   5.951   2.551 -0.2650  0.2561  0.1336
   89MOL0     C11927  -0.413   5.918   2.577  1.8472  0.0185 -0.9749
   89MOL0     O11928  -0.164   5.594   2.430  0.2449  0.2130  0.2239
   89MOL0     C11929   0.078   5.539   2.552 -0.6957 -0.0131 -0.2891
   89MOL0     C11930   0.178   5.485   2.636 -0.9256 -0.4683 -0.6132
   89MOL0     N11931   0.503   5.093   3.090 -0.4440  0.4103 -0.6863
   89MOL0     N11932   0.558   4.981   3.112 -0.0769 -0.1797  0.3497
   89MOL0     C11933   0.459   5.036   4.164  0.4338 -0.2786 -0.6307
   89MOL0     C11934   0.404   4.965   4.276 -0.3267  0.3584  0.9315
   89MOL0     C11935   0.388   4.579   4.522  0.6535 -0.1145  0.2775
   89MOL0     C11936   0.315   4.463   4.482  0.5173 -0.9356  0.0071
   89MOL0     C11937   0.255   4.386   4.576  0.2358  0.1379  0.1401
   89MOL0     C11938   0.263   4.431   4.713 -0.1197 -0.4013 -0.5013
   89MOL0     O11939   0.174   4.367   4.793  0.0180  0.2415 -1.1178
   89MOL0     C11940   0.175   4.393   4.930 -0.1599  0.8176 -1.2888
   89MOL0     C11941   0.288   4.314   5.001 -0.6000 -0.8503 -0.1333
   89MOL0     C11942   0.265   4.172   4.997 -0.3412  0.0768 -0.8816
   89MOL0     C11943   0.379   4.099   5.054 -0.6429  0.4368 -0.1163
   89MOL0     C11944   0.359   3.951   5.029  0.7238 -0.6089 -0.1321
   89MOL0     C11945   0.335   3.830   5.010  1.3511  0.8576 -0.0510
   89MOL0     C11946   0.352   4.527   4.753  0.2877 -0.0434 -0.1198
   89MOL0     C11947   0.416   4.604   4.657 -0.8711  0.5586  0.3613
   89MOL0     H11948   0.691   4.840   4.410 -1.0721 -0.8785 -0.3011
   89MOL0     H11949   0.787   4.969   4.221  0.4012 -1.8039  1.7813
   89MOL0     H11950   0.831   5.037   3.979 -0.3309 -1.1020  0.4945
   89MOL0     H11951   0.695   4.941   3.904  2.6119 -0.0478 -2.2718
   89MOL0     H11952   0.647   5.187   3.800  0.5850 -0.4913 -1.7672
   89MOL0     H11953   0.816   5.202   3.824  0.9017  0.3354 -3.7443
   89MOL0     H11954   0.839   5.006   3.662 -1.2537 -2.2319  0.9036
   89MOL0     H11955   0.679   4.954   3.704 -1.1031 -0.1044 -1.8324
   89MOL0     H11956   0.563   5.102   3.592 -0.1674 -2.2813 -1.0263
   89MOL0     H11957   0.704   5.210   3.541 -0.8192 -1.3388 -2.9152
   89MOL0     H11958   0.613   5.079   3.369  2.0917 -0.8966 -2.0329
   89MOL0     H11959   0.777   5.052   3.374 -0.7725  2.6750 -0.0670
   89MOL0     H11960   0.747   4.835   3.499  0.2094  0.9188  0.2050
   89MOL0     H11961   0.567   4.849   3.494 -2.5605  2.1957 -3.2678
   89MOL0     H11962   0.740   4.839   3.251  1.0131  0.6513  1.1065
   89MOL0     H11963   0.702   4.695   3.343  0.6267  0.4290  0.3309
   89MOL0     H11964   0.453   4.745   3.322  1.2806  0.5564  0.7085
   89MOL0     H11965   0.534   4.725   3.156  3.3357  1.3133 -0.7613
   89MOL0     H11966   0.290   4.946   3.279 -0.1253 -0.0437  0.6629
   89MOL0     H11967   0.261   5.232   3.287 -0.2211 -0.1900 -0.2934
   89MOL0     H11968   0.376   5.316   3.175  0.7422 -0.4643 -2.6747
   89MOL0     H11969   0.117   5.300   3.133  1.3294 -0.5404  1.0666
   89MOL0     H11970   0.147   5.146   3.053 -2.5206  0.8919 -0.7210
   89MOL0     H11971   0.130   5.313   2.897  0.6623 -0.8310 -2.8408
   89MOL0     H11972   0.295   5.235   2.887 -1.5274 -0.9797  0.3554
   89MOL0     H11973   0.377   5.449   3.007  2.2781 -2.0999 -2.8653
   89MOL0     H11974   0.203   5.504   3.008 -1.7166  1.7849 -2.0797
   89MOL0     H11975   0.124   5.676   2.915 -1.3159  3.2032  0.1671
   89MOL0     H11976  -0.183   5.701   2.821 -1.1374  0.4549 -1.9068
   89MOL0     H11977  -0.059   5.796   2.917  2.6138  0.1720 -0.5468
   89MOL0     H11978  -0.118   5.859   2.768 -1.1594 -1.3301 -1.8990
   89MOL0     H11979  -0.399   5.621   2.410  0.7926  1.0881 -2.7993
   89MOL0     H11980  -0.647   5.681   2.377 -1.3158  0.3014  2.2087
   89MOL0     H11981  -0.953   5.941   2.512  0.1729 -3.3203  2.3256
   89MOL0     H11982  -0.843   5.956   2.647  0.2180 -0.4401  0.0585
   89MOL0     H11983  -0.900   6.170   2.583  2.2282  0.4275  1.6492
   89MOL0     H11984  -0.743   6.153   2.516  0.0303  0.2833 -1.0431
   89MOL0     H11985  -0.997   6.109   2.353 -1.7810  1.6580  6.5334
   89MOL0     H11986  -0.832   6.124   2.296 -1.5928 -1.0662  0.1985
   89MOL0     H11987  -1.034   6.314   2.408  0.8095 -0.3236  2.6980
   89MOL0     H11988  -0.879   6.367   2.423  0.3777 -1.4945  0.4146
   89MOL0     H11989  -0.991   6.474   2.247 -1.0359 -1.2651  3.2862
   89MOL0     H11990  -1.046   6.331   2.159 -1.2177  0.9969  0.6234
   89MOL0     H11991  -0.776   6.271   2.137 -1.5468 -1.1882  1.6799
   89MOL0     H11992  -0.856   6.372   2.010  2.5164 -1.3685 -0.3517
   89MOL0     H11993  -0.766   6.516   2.256 -0.6562 -3.2096  1.2357
   89MOL0     H11994  -0.781   6.564   2.082 -0.1005  1.4409  2.1598
   89MOL0     H11995  -0.537   6.563   2.122 -0.6653  0.5225 -0.4340
   89MOL0     H11996  -0.586   6.403   2.040  1.4322 -0.6947  0.3349
   89MOL0     H11997  -0.596   6.029   2.610  1.0192  1.8112 -0.8478
   89MOL0     H11998  -0.353   5.973   2.648  0.2424 -0.7502  1.0689
   89MOL0     H11999   0.074   5.506   2.448  0.3066  0.5660 -0.5177
   89MOL0     H12000   0.252   5.414   2.599  0.0131 -0.4581  1.1445
   89MOL0     H12001   0.382   5.086   4.106  0.4991  5.6153  3.4767
   89MOL0     H12002   0.296   4.967   4.288 -0.3281  0.9534  0.8269
   89MOL0     H12003   0.300   4.439   4.377 -1.6090  0.3157 -0.0396
   89MOL0     H12004   0.194   4.309   4.531  1.4423 -0.8338  0.1043
   89MOL0     H12005   0.171   4.495   4.970 -1.6830  0.4030 -0.3196
   89MOL0     H12006   0.079   4.351   4.962  0.3321 -0.4617 -1.4190
   89MOL0     H12007   0.305   4.352   5.102 -2.3292 -0.0706 -0.0963
   89MOL0     H12008   0.381   4.333   4.946  0.9567  0.2604  2.6772
   89MOL0     H12009   0.233   4.133   4.899  0.9350 -1.3880 -0.7336
   89MOL0     H12010   0.184   4.153   5.068  1.0477 -1.7146  0.2806
   89MOL0     H12011   0.382   4.115   5.162 -1.1396 -1.3741  0.1966
   89MOL0     H12012   0.474   4.128   5.007  0.8586 -2.3939  0.9370
   89MOL0     H12013   0.313   3.728   4.989  3.2460  0.3427  0.2827
   89MOL0     H12014   0.366   4.558   4.857  1.8076  4.2754 -1.4027
   89MOL0     H12015   0.475   4.687   4.693  0.1233 -0.4778  1.1910
   90MOL0     O12016   9.269   0.010   1.529 -0.1305  0.0217 -0.2531
   90MOL0     C12017   9.296   0.131   1.527  0.3286  0.0125 -0.4480
   90MOL0     O12018   9.282   0.219   1.630  0.4690 -0.0648 -0.5214
   90MOL0     C12019   9.274   0.184   1.760 -0.0034  0.1924  0.1381
   90MOL0     C12020   9.257   0.056   1.812 -0.4252  0.3709  0.2280
   90MOL0     C12021   9.208   0.043   1.947 -0.2444 -0.2321 -0.4287
   90MOL0     C12022   9.178   0.157   2.025 -0.3540  0.0469 -1.0480
   90MOL0     O12023   9.133   0.153   2.161  0.5176 -0.0181  0.5911
   90MOL0     C12024   9.042   0.049   2.173  1.1805  0.0534 -0.5916
   90MOL0     C12025   8.953   0.076   2.304 -0.0897  0.2207  0.9164
   90MOL0     C12026   8.863   0.195   2.277  0.3332  0.4221 -0.6133
   90MOL0     C12027   8.844   0.268   2.408  0.0016  0.3406 -0.2717
   90MOL0     C12028   8.770   0.398   2.412 -0.2159  0.3506  0.1996
   90MOL0     C12029   8.703   0.425   2.544  0.2461  0.1304 -0.1629
   90MOL0     C12030   8.631   0.555   2.540  0.5301 -0.7872 -0.5886
   90MOL0     C12031   8.719   0.686   2.573 -0.3729 -0.6057  0.0520
   90MOL0     N12032   8.777   0.671   2.711 -0.5913 -0.7121  0.3537
   90MOL0     C12033   8.727   0.709   2.833 -0.5225  0.2959  0.6133
   90MOL0     C12034   8.831   0.699   2.917 -0.2898 -0.4354  0.0332
   90MOL0     C12035   8.830   0.730   3.059  0.7416 -0.5166 -0.1536
   90MOL0     C12036   8.713   0.777   3.136  0.4163 -0.3958 -0.5907
   90MOL0     C12037   8.740   0.811   3.288  0.4530 -0.4617  0.1763
   90MOL0     C12038   8.611   0.818   3.359 -0.5904 -0.1088  0.0111
   90MOL0     O12039   8.626   0.810   3.499 -0.2074 -0.1009 -0.0948
   90MOL0     C12040   8.660   0.930   3.556  0.2043  0.0968  0.7664
   90MOL0     C12041   8.791   0.967   3.600  0.2848  0.2804 -0.5699
   90MOL0     C12042   8.822   1.094   3.655 -0.1571 -0.5665 -0.2353
   90MOL0     C12043   8.953   1.116   3.725  1.2559  0.3317  0.2868
   90MOL0     C12044   8.718   1.192   3.660  0.2782 -0.9580  0.3535
   90MOL0     C12045   8.732   1.310   3.745 -0.2427 -0.6870  0.2458
   90MOL0     O12046   8.854   1.368   3.766 -0.5019 -0.1728 -0.1049
   90MOL0     C12047   8.886   1.462   3.858  1.2255 -0.3955  0.3457
   90MOL0     C12048   8.798   1.512   3.953 -0.6766 -0.8411 -0.4094
   90MOL0     C12049   8.838   1.594   4.066  0.7805  0.3950 -0.2583
   90MOL0     C12050   8.970   1.632   4.071 -1.1100  0.3722 -0.4076
   90MOL0     O12051   9.029   1.703   4.174  0.1450 -0.3230  0.7258
   90MOL0     C12052   8.966   1.735   4.295  0.9668  0.1784 -0.2440
   90MOL0     C12053   9.056   1.837   4.360  0.0524 -0.1273 -0.5312
   90MOL0     C12054   9.204   1.780   4.379 -0.2904 -0.2714 -0.2543
   90MOL0     C12055   9.280   1.884   4.455  0.1603 -0.0820 -0.9334
   90MOL0     C12056   9.425   1.835   4.492  0.8158 -0.2614 -0.1719
   90MOL0     C12057   9.540   1.927   4.464 -0.6153  0.1559  0.1430
   90MOL0     C12058   9.544   2.060   4.544 -1.0189  0.1059  0.6562
   90MOL0     C12059   9.664   2.140   4.502 -0.6215 -0.3845 -0.0758
   90MOL0    Cl12060   9.807   2.057   4.557 -0.2070 -0.1104  0.4684
   90MOL0     C12061   9.052   1.595   3.968 -0.5830 -0.6790  0.6253
   90MOL0     C12062   9.009   1.513   3.863 -0.3975  0.7111  0.2163
   90MOL0     O12063   8.624   1.349   3.789 -0.4481 -0.5449  0.1202
   90MOL0     C12064   8.592   1.159   3.601  0.1830 -0.2337 -0.3605
   90MOL0     C12065   8.569   1.035   3.545  0.6541 -0.3963  0.5807
   90MOL0     N12066   8.935   0.649   2.838 -0.4466 -1.3961 -0.2046
   90MOL0     N12067   8.907   0.637   2.718  0.1386 -0.0390 -0.4746
   90MOL0     C12068   9.210   0.286   1.974 -0.4230 -0.2946 -0.6905
   90MOL0     C12069   9.254   0.293   1.843 -0.5083 -0.1465  0.3090
   90MOL0     C12070   9.335   0.197   1.395  0.3944  0.4656 -0.6537
   90MOL0     C12071   9.286   0.324   1.362 -0.6799 -0.0200  0.1863
   90MOL0     C12072   9.308   0.378   1.235  0.0963 -0.3098 -0.2136
   90MOL0     C12073   9.368   0.302   1.137  0.5862 -0.7411  0.5121
   90MOL0     O12074   9.390   0.359   1.013  0.0119 -0.7028  0.2728
   90MOL0     C12075   9.476   0.476   1.004  0.1947  0.2296 -0.3038
   90MOL0     C12076   9.621   0.425   1.041  0.3855  0.0702 -0.7122
   90MOL0     C12077   9.729   0.532   1.019  0.4225  0.6964 -0.2469
   90MOL0     C12078   9.843   0.474   0.945 -0.0181  0.0481  0.1957
   90MOL0     C12079   9.922   0.587   0.895 -0.2128  0.6325 -1.0480
   90MOL0     C12080   9.971   0.692   0.860 -0.2685  0.8129 -0.6506
   90MOL0     C12081   9.413   0.176   1.168 -0.2834 -0.7951  0.6807
   90MOL0     C12082   9.406   0.126   1.294 -0.3929 -0.0975 -0.6469
   90MOL0     H12083   9.264  -0.035   1.753  0.4054  0.4110  0.2498
   90MOL0     H12084   9.206  -0.053   1.997 -1.1031  0.6840  1.3889
   90MOL0     H12085   8.973   0.041   2.088  0.6913  3.4842 -0.6565
   90MOL0     H12086   9.102  -0.039   2.196 -0.3556 -0.6403  0.9546
   90MOL0     H12087   8.897  -0.011   2.339 -2.1121  1.5438  1.1837
   90MOL0     H12088   9.017   0.117   2.383 -0.0687  3.7844 -0.7385
   90MOL0     H12089   8.897   0.262   2.197 -0.4776 -0.1896 -1.4948
   90MOL0     H12090   8.766   0.165   2.236  0.0675  1.8531 -1.1092
   90MOL0     H12091   8.784   0.198   2.467  3.5334 -1.9611  0.8504
   90MOL0     H12092   8.926   0.294   2.475  0.7024 -1.5899 -0.3423
   90MOL0     H12093   8.832   0.483   2.381 -2.6394  2.3141  0.4062
   90MOL0     H12094   8.695   0.389   2.333  2.4135 -0.2318 -2.4239
   90MOL0     H12095   8.631   0.343   2.547 -1.4078  1.4611 -1.4449
   90MOL0     H12096   8.771   0.411   2.629 -1.3990 -2.6164  0.8442
   90MOL0     H12097   8.581   0.581   2.446 -0.9458  3.7899  1.1906
   90MOL0     H12098   8.558   0.559   2.621  1.2315  2.0133 -0.0025
   90MOL0     H12099   8.668   0.782   2.561  1.6792  0.6370  0.6773
   90MOL0     H12100   8.802   0.708   2.506  0.1074  4.7932  1.9369
   90MOL0     H12101   8.625   0.743   2.851 -0.8191 -0.9280  1.3904
   90MOL0     H12102   8.857   0.650   3.129  0.6711  1.0468  1.7445
   90MOL0     H12103   8.902   0.812   3.056  2.2946 -1.8914 -2.3811
   90MOL0     H12104   8.636   0.700   3.145 -0.1540  0.1495 -0.7411
   90MOL0     H12105   8.666   0.868   3.097  2.0090  0.9381  0.4319
   90MOL0     H12106   8.793   0.906   3.294 -1.3192  0.4741  2.2966
   90MOL0     H12107   8.812   0.737   3.323  1.9858 -0.4038 -2.5375
   90MOL0     H12108   8.547   0.732   3.334 -1.6489  0.3946  0.9081
   90MOL0     H12109   8.561   0.901   3.308  2.0761  0.4918 -1.8026
   90MOL0     H12110   8.874   0.898   3.596 -0.6290 -0.9493  0.6855
   90MOL0     H12111   9.010   1.023   3.717 -1.5437 -1.6882  1.8676
   90MOL0     H12112   9.019   1.194   3.686  1.1023  0.7095  0.7732
   90MOL0     H12113   8.929   1.130   3.831  0.9936 -1.0342  0.4275
   90MOL0     H12114   8.698   1.472   3.963 -0.0454 -2.4946 -0.3059
   90MOL0     H12115   8.766   1.622   4.142  1.2519 -2.1593  1.2504
   90MOL0     H12116   8.863   1.770   4.283  0.9734  0.6786  1.0153
   90MOL0     H12117   8.960   1.656   4.370  0.0806  1.3392  0.9818
   90MOL0     H12118   9.056   1.935   4.313  0.0289  0.9610  1.5989
   90MOL0     H12119   9.011   1.847   4.460  1.6998  1.7484  0.0651
   90MOL0     H12120   9.249   1.768   4.280 -0.0685  0.6020 -0.2683
   90MOL0     H12121   9.204   1.683   4.430  1.4032 -0.4389 -0.5241
   90MOL0     H12122   9.296   1.973   4.394  0.9083  0.9219  0.6568
   90MOL0     H12123   9.225   1.913   4.545 -0.8706  0.2329 -1.6406
   90MOL0     H12124   9.452   1.735   4.457 -0.3732 -1.0976  1.2005
   90MOL0     H12125   9.426   1.831   4.601  0.9103 -0.5474 -0.1845
   90MOL0     H12126   9.634   1.880   4.498  0.2305  0.2809 -1.8916
   90MOL0     H12127   9.541   1.935   4.355  1.9254  1.0605  0.1534
   90MOL0     H12128   9.526   2.050   4.652 -2.1774  1.2961  0.5989
   90MOL0     H12129   9.461   2.119   4.504 -0.4406 -0.3420 -1.3101
   90MOL0     H12130   9.673   2.242   4.541  1.4116 -0.1307 -1.0582
   90MOL0     H12131   9.668   2.141   4.392  0.3076 -2.3985 -0.0963
   90MOL0     H12132   9.154   1.630   3.984 -0.1831 -0.4590 -1.9835
   90MOL0     H12133   9.077   1.476   3.786 -0.7751 -0.7981  0.5791
   90MOL0     H12134   8.512   1.232   3.594 -0.9428 -0.8665  3.5247
   90MOL0     H12135   8.478   1.015   3.490  0.5199 -0.3454  0.7815
   90MOL0     H12136   9.215   0.373   2.040  0.5723 -1.9673  1.5706
   90MOL0     H12137   9.283   0.392   1.810  1.1633 -1.0289 -1.0410
   90MOL0     H12138   9.234   0.390   1.431  0.6360 -0.1490  1.3318
   90MOL0     H12139   9.262   0.474   1.213  0.8925 -0.3138 -2.0403
   90MOL0     H12140   9.474   0.514   0.901 -1.2771  0.2004 -0.3063
   90MOL0     H12141   9.438   0.548   1.076  0.8103  0.3158 -0.0607
   90MOL0     H12142   9.652   0.331   0.994 -3.2142 -2.0985  0.7968
   90MOL0     H12143   9.625   0.393   1.146  0.8227  0.9197 -0.4568
   90MOL0     H12144   9.766   0.553   1.120  0.6001  0.7600 -0.3245
   90MOL0     H12145   9.683   0.619   0.970 -0.2588 -0.8344 -2.5008
   90MOL0     H12146   9.808   0.411   0.863  3.3909  0.1496 -1.5693
   90MOL0     H12147   9.901   0.410   1.012  1.3634  1.8543  0.8307
   90MOL0     H12148  10.020   0.784   0.832  1.3594 -0.0390 -0.7451
   90MOL0     H12149   9.460   0.120   1.088  2.6403  0.9869  1.0055
   90MOL0     H12150   9.455   0.035   1.325 -0.9933 -0.1910  0.0504
   91MOL0     O12151   4.977   8.923   1.937 -0.3680  0.0845  0.2908
   91MOL0     C12152   4.903   8.835   1.902  0.0109 -0.5292  0.5563
   91MOL0     O12153   4.896   8.780   1.777 -1.2509  0.3687  0.1217
   91MOL0     C12154   4.988   8.828   1.675 -0.5399 -0.4072 -0.4240
   91MOL0     C12155   5.034   8.955   1.653  0.4405 -0.9922 -0.6859
   91MOL0     C12156   5.122   8.980   1.551 -0.2459  0.4430 -1.4305
   91MOL0     C12157   5.164   8.886   1.460 -0.4931 -0.0367  0.4505
   91MOL0     O12158   5.250   8.918   1.356  0.2163  0.8056  0.0485
   91MOL0     C12159   5.306   9.044   1.338 -0.4249  0.1265 -0.3991
   91MOL0     C12160   5.377   9.031   1.203 -0.0690 -0.1475 -0.1549
   91MOL0     C12161   5.501   8.937   1.197  0.2842  0.8532 -0.5444
   91MOL0     C12162   5.613   8.995   1.101 -0.0795  0.5290 -0.5213
   91MOL0     C12163   5.730   8.898   1.090 -0.8403 -0.1306  0.3696
   91MOL0     C12164   5.806   8.854   1.222 -0.5856  1.1015 -0.6014
   91MOL0     C12165   5.890   8.969   1.265 -0.6828 -0.3789 -0.2811
   91MOL0     C12166   5.924   8.959   1.413  0.2773  0.0287 -0.1723
   91MOL0     N12167   6.044   9.031   1.463 -0.0443 -0.2015 -0.6800
   91MOL0     C12168   6.139   8.974   1.550 -0.4472 -0.4009  0.1577
   91MOL0     C12169   6.224   9.075   1.580 -0.1072 -0.5047  0.2160
   91MOL0     C12170   6.321   9.073   1.695 -0.0867 -0.3276 -0.2552
   91MOL0     C12171   6.259   9.140   1.816 -0.2343  1.3828 -0.3396
   91MOL0     C12172   6.351   9.147   1.944  0.0915 -0.3263  0.1387
   91MOL0     C12173   6.276   9.196   2.066 -0.0232 -1.0485  0.4165
   91MOL0     O12174   6.364   9.197   2.179  0.3544  0.3600  0.2309
   91MOL0     C12175   6.448   9.304   2.200 -0.2862  0.4857 -0.0480
   91MOL0     C12176   6.539   9.299   2.308  0.2471  0.0589 -0.7057
   91MOL0     C12177   6.643   9.386   2.328 -0.2918 -0.0172  0.1036
   91MOL0     C12178   6.741   9.365   2.447  0.0245 -0.8183 -0.6209
   91MOL0     C12179   6.658   9.496   2.233 -0.3999  0.3010 -0.5558
   91MOL0     C12180   6.755   9.614   2.254  0.8677 -0.2671  0.4016
   91MOL0     O12181   6.707   9.737   2.205 -0.5859 -0.0274 -0.8288
   91MOL0     C12182   6.778   9.853   2.225  0.3902 -0.1128 -0.0829
   91MOL0     C12183   6.866   9.882   2.342  0.1196  0.1250  0.1171
   91MOL0     C12184   6.948   9.996   2.344 -0.8931 -0.8233 -0.1998
   91MOL0     C12185   6.931  10.096   2.249 -1.5070  0.4252  0.3136
   91MOL0     O12186   7.013  10.214   2.251 -0.0716 -0.5698 -0.1149
   91MOL0     C12187   7.130  10.206   2.328  0.0121 -0.6768 -0.2201
   91MOL0     C12188   7.196  10.347   2.340  0.2923 -0.0226  0.4673
   91MOL0     C12189   7.158  10.407   2.472 -0.4016 -0.3319  0.3250
   91MOL0     C12190   7.005  10.418   2.473 -0.8135  0.6779 -0.1168
   91MOL0     C12191   6.959  10.482   2.602 -0.2312 -0.3293 -0.1477
   91MOL0     C12192   6.811  10.533   2.610  0.8284 -0.5226 -0.6252
   91MOL0     C12193   6.706  10.427   2.590 -0.2124  0.3166  0.6493
   91MOL0     C12194   6.575  10.479   2.639  0.4862 -0.8443  0.1014
   91MOL0    Cl12195   6.576  10.453   2.813 -0.1218  0.6598 -0.1755
   91MOL0     C12196   6.847  10.083   2.137  0.0221 -0.2902  0.4658
   91MOL0     C12197   6.761   9.961   2.124  0.4735  0.7803  0.3493
   91MOL0     O12198   6.857   9.601   2.328  0.2449  0.7354 -0.1220
   91MOL0     C12199   6.562   9.505   2.127 -0.0988  0.1141 -0.2369
   91MOL0     C12200   6.459   9.413   2.112 -0.1712 -0.1640  0.1200
   91MOL0     N12201   6.190   9.186   1.509  0.3256  0.8342  0.0289
   91MOL0     N12202   6.087   9.155   1.437  1.1529  0.1447  0.3769
   91MOL0     C12203   5.112   8.757   1.479 -1.0378  0.2032  0.0766
   91MOL0     C12204   5.030   8.727   1.584 -0.4661 -0.0254 -0.0831
   91MOL0     C12205   4.803   8.778   1.992 -0.1375  0.2613 -0.1954
   91MOL0     C12206   4.786   8.822   2.121  0.8146  0.0314  0.1568
   91MOL0     C12207   4.686   8.773   2.194  0.1693 -0.5566 -0.7186
   91MOL0     C12208   4.605   8.665   2.156 -0.2778 -0.2274 -0.2516
   91MOL0     O12209   4.512   8.599   2.227 -0.3208 -0.1861 -0.3444
   91MOL0     C12210   4.543   8.578   2.366 -0.7240  0.7341  0.3083
   91MOL0     C12211   4.432   8.640   2.461  0.1203  0.0308 -0.2609
   91MOL0     C12212   4.434   8.794   2.450 -0.0283 -0.6683 -0.6447
   91MOL0     C12213   4.361   8.888   2.547  0.2920  0.4283 -0.1645
   91MOL0     C12214   4.217   8.887   2.530  0.1012  0.8604 -0.9487
   91MOL0     C12215   4.102   8.881   2.502  0.1014 -0.9177 -0.2545
   91MOL0     C12216   4.614   8.630   2.023  0.1843 -0.3935 -0.4928
   91MOL0     C12217   4.718   8.676   1.944  0.2102 -0.5505 -0.1328
   91MOL0     H12218   5.018   9.035   1.726  0.6655 -1.5023 -0.0648
   91MOL0     H12219   5.157   9.082   1.552  0.8334  0.1694  2.1434
   91MOL0     H12220   5.233   9.125   1.337  0.0012  0.5265  0.1809
   91MOL0     H12221   5.372   9.059   1.423 -0.0047 -0.2004 -0.6607
   91MOL0     H12222   5.298   9.012   1.130 -1.8431  1.0465  1.3485
   91MOL0     H12223   5.418   9.131   1.185  1.9559 -0.7609  0.7535
   91MOL0     H12224   5.535   8.935   1.301 -3.8507 -0.2953  0.9949
   91MOL0     H12225   5.487   8.832   1.171  2.4719 -0.6757  3.5500
   91MOL0     H12226   5.572   9.000   1.000  0.5293  1.0182 -0.7547
   91MOL0     H12227   5.655   9.094   1.120  2.4210 -0.3334 -1.2383
   91MOL0     H12228   5.710   8.801   1.043  1.0253 -1.2121  1.6717
   91MOL0     H12229   5.816   8.943   1.038  0.3747 -1.0798  1.4972
   91MOL0     H12230   5.733   8.835   1.301 -3.1403 -0.4681 -3.1375
   91MOL0     H12231   5.865   8.764   1.200 -1.7666  0.8150 -2.8706
   91MOL0     H12232   5.979   8.968   1.201  0.7182  0.4106  1.5593
   91MOL0     H12233   5.845   9.068   1.256  0.2342  0.0152 -0.7100
   91MOL0     H12234   5.943   8.855   1.439 -0.8811  0.4728  2.8466
   91MOL0     H12235   5.837   8.995   1.469  0.2789  1.6768 -1.1775
   91MOL0     H12236   6.158   8.875   1.590  0.7368  0.2533  1.2848
   91MOL0     H12237   6.345   8.975   1.739  1.7498  0.2552  0.1222
   91MOL0     H12238   6.411   9.123   1.657 -0.6093  1.2625  0.5389
   91MOL0     H12239   6.168   9.089   1.847  0.6657 -1.8044 -2.4415
   91MOL0     H12240   6.242   9.242   1.781  1.4476  1.9853  0.4807
   91MOL0     H12241   6.440   9.203   1.918 -1.5877  1.4339 -2.1803
   91MOL0     H12242   6.373   9.041   1.962 -0.9069 -0.4629  0.6862
   91MOL0     H12243   6.200   9.122   2.091  0.7474 -1.5215  1.3818
   91MOL0     H12244   6.223   9.292   2.065 -2.6343 -2.3200  2.3936
   91MOL0     H12245   6.529   9.211   2.371  0.4567  0.5277  0.0008
   91MOL0     H12246   6.842   9.358   2.408 -0.4259 -2.2097 -1.6058
   91MOL0     H12247   6.724   9.463   2.494  0.8155 -0.9228 -0.1039
   91MOL0     H12248   6.715   9.289   2.522 -0.6770  1.5371  1.7072
   91MOL0     H12249   6.878   9.814   2.426  2.1956 -0.0029 -0.2199
   91MOL0     H12250   7.016  10.006   2.428 -0.1071  0.5822 -0.9570
   91MOL0     H12251   7.115  10.168   2.429  1.4587 -0.5402  0.0752
   91MOL0     H12252   7.207  10.142   2.284  1.1689 -2.8414  4.3319
   91MOL0     H12253   7.304  10.331   2.333  0.2288 -1.2524  1.8333
   91MOL0     H12254   7.162  10.406   2.254 -2.7489 -3.1134 -0.6798
   91MOL0     H12255   7.215  10.499   2.487  1.5340 -1.3967 -0.1399
   91MOL0     H12256   7.194  10.335   2.546  1.5502  0.9303  0.6891
   91MOL0     H12257   6.984  10.493   2.396  0.8612  0.7156 -0.5633
   91MOL0     H12258   6.953  10.322   2.461  0.0950  0.0718  0.6744
   91MOL0     H12259   7.021  10.571   2.617 -0.2841 -0.6692  2.4835
   91MOL0     H12260   6.969  10.415   2.688  0.5393  1.9258  1.6000
   91MOL0     H12261   6.784  10.579   2.706 -0.8746  3.1606 -2.6411
   91MOL0     H12262   6.785  10.609   2.535  1.2547  0.0305 -0.2167
   91MOL0     H12263   6.726  10.344   2.657  2.0962  2.2256  2.4952
   91MOL0     H12264   6.694  10.400   2.484  0.0704  0.5117  0.5663
   91MOL0     H12265   6.493  10.419   2.597 -1.7212  2.5133 -0.7966
   91MOL0     H12266   6.556  10.580   2.603 -2.0847 -2.2866 -3.2082
   91MOL0     H12267   6.846  10.166   2.067  4.0759 -2.2658 -2.3356
   91MOL0     H12268   6.692   9.940   2.042 -1.0198  2.2021  1.1921
   91MOL0     H12269   6.557   9.583   2.052  1.1634 -1.2354 -1.8007
   91MOL0     H12270   6.389   9.436   2.032 -1.1990  0.7349  1.2436
   91MOL0     H12271   5.135   8.692   1.395 -0.8913  1.5335 -0.9459
   91MOL0     H12272   4.990   8.629   1.607 -1.1998  1.0162  3.7535
   91MOL0     H12273   4.858   8.900   2.147  3.9775 -2.8886  0.9404
   91MOL0     H12274   4.687   8.812   2.296  4.3174 -1.0805 -0.3965
   91MOL0     H12275   4.546   8.470   2.383 -1.4738  1.1041  3.6046
   91MOL0     H12276   4.633   8.625   2.407 -0.9944  0.7421  0.9041
   91MOL0     H12277   4.459   8.607   2.562 -1.2553 -2.8070 -0.6954
   91MOL0     H12278   4.330   8.610   2.432 -0.0343 -0.7039  0.9886
   91MOL0     H12279   4.416   8.819   2.345  1.6253  1.7253 -0.4507
   91MOL0     H12280   4.538   8.823   2.467 -0.3490 -0.2122  0.6399
   91MOL0     H12281   4.392   8.990   2.522 -0.6784  0.0526 -3.3532
   91MOL0     H12282   4.397   8.863   2.647  2.3424 -0.0643 -0.9838
   91MOL0     H12283   3.996   8.880   2.483 -0.3340 -0.7265  1.8632
   91MOL0     H12284   4.545   8.559   1.979  0.5689 -1.8493  1.1111
   91MOL0     H12285   4.717   8.641   1.841 -3.2039 -0.7935 -0.1353
   92MOL0     O12286  10.744   3.429   6.031 -0.3762  0.8654  0.1799
   92MOL0     C12287  10.696   3.481   6.132 -0.4969  0.7124  0.7611
   92MOL0     O12288  10.579   3.453   6.199 -1.3699  0.0706  0.1772
   92MOL0     C12289  10.496   3.355   6.156  0.5535 -0.9597 -0.2504
   92MOL0     C12290  10.360   3.397   6.160 -0.5207  0.1035 -0.1272
   92MOL0     C12291  10.265   3.309   6.101 -0.6860 -1.1416  0.0355
   92MOL0     C12292  10.302   3.181   6.062  0.3366  0.3285 -0.0485
   92MOL0     O12293  10.203   3.119   5.992  0.3484 -0.2044  0.4398
   92MOL0     C12294  10.238   3.025   5.889  1.5029 -0.6210 -0.4942
   92MOL0     C12295  10.113   2.959   5.824  0.1031 -0.3416  0.0848
   92MOL0     C12296  10.036   3.055   5.730 -0.3909 -0.2488 -0.1577
   92MOL0     C12297  10.112   3.099   5.604 -0.3351 -0.0250 -0.6153
   92MOL0     C12298  10.009   3.157   5.514  0.5070  0.1940  0.1295
   92MOL0     C12299  10.073   3.182   5.377 -0.7206 -0.4890  1.5033
   92MOL0     C12300  10.169   3.306   5.391  0.5007  0.0801 -0.1736
   92MOL0     C12301  10.214   3.376   5.259 -0.5957  0.2165  0.5022
   92MOL0     N12302  10.233   3.282   5.141  0.6923  0.0011  0.1050
   92MOL0     C12303  10.133   3.234   5.065 -0.2826 -1.1710 -0.1637
   92MOL0     C12304  10.191   3.159   4.976 -0.4991 -0.9113  0.1293
   92MOL0     C12305  10.111   3.074   4.881  0.1226 -0.2477  0.6947
   92MOL0     C12306  10.093   3.128   4.738  0.3495  0.0021 -0.1206
   92MOL0     C12307  10.204   3.095   4.638 -0.1935 -0.5321  1.2442
   92MOL0     C12308  10.336   3.160   4.681 -0.1365  0.1530 -0.1239
   92MOL0     O12309  10.434   3.160   4.567 -0.1163 -0.0033 -0.0351
   92MOL0     C12310  10.539   3.246   4.577 -0.1164 -0.2824  0.4293
   92MOL0     C12311  10.595   3.275   4.701  0.2703 -0.2737 -0.2849
   92MOL0     C12312  10.668   3.401   4.727  0.2893  0.4791 -0.0680
   92MOL0     C12313  10.703   3.421   4.872  0.0451  0.3928 -0.5678
   92MOL0     C12314  10.710   3.469   4.611  0.2440 -0.7203 -0.4311
   92MOL0     C12315  10.805   3.576   4.618 -0.3208 -0.1786  0.5857
   92MOL0     O12316  10.880   3.596   4.499  0.6699 -0.3995 -0.0109
   92MOL0     C12317  10.983   3.687   4.514  0.4803 -0.7480  0.0333
   92MOL0     C12318  11.109   3.643   4.545  1.0987 -0.1362 -1.0655
   92MOL0     C12319  11.208   3.728   4.568  0.8596  0.0447 -0.5372
   92MOL0     C12320  11.188   3.866   4.550  0.0478 -0.3115  1.1933
   92MOL0     O12321  11.297   3.947   4.563  0.1893  0.0425  0.2371
   92MOL0     C12322  11.371   3.958   4.685  0.0282 -0.1579 -0.7596
   92MOL0     C12323  11.509   4.021   4.672 -0.0188 -0.4190 -0.4270
   92MOL0     C12324  11.610   3.933   4.606  0.9528  0.1396 -0.2050
   92MOL0     C12325  11.687   3.841   4.694 -1.0737  0.3845 -1.0509
   92MOL0     C12326  11.782   3.764   4.603 -0.6961 -0.4279  0.4465
   92MOL0     C12327  11.895   3.833   4.518 -0.6921  0.0359  0.2951
   92MOL0     C12328  11.992   3.726   4.451  0.0652 -0.6812 -0.1206
   92MOL0     C12329  11.936   3.673   4.320 -0.0062  0.2840  0.3372
   92MOL0    Cl12330  12.064   3.579   4.233 -0.3155  0.2014 -0.2061
   92MOL0     C12331  11.063   3.913   4.516 -0.5541  0.1702 -0.5645
   92MOL0     C12332  10.961   3.824   4.498  0.4182 -0.2660  0.3963
   92MOL0     O12333  10.822   3.634   4.722 -0.4339  0.3628  0.5062
   92MOL0     C12334  10.660   3.441   4.479 -1.1432  0.3638  0.1432
   92MOL0     C12335  10.581   3.327   4.465  0.5144  0.5943  0.0610
   92MOL0     N12336  10.326   3.157   4.995  0.0378  0.1914  0.1659
   92MOL0     N12337  10.346   3.245   5.092  0.0544  0.2378 -0.5897
   92MOL0     C12338  10.439   3.140   6.069 -0.4088 -0.0773  0.1560
   92MOL0     C12339  10.533   3.226   6.119 -0.6107 -0.8987 -0.6300
   92MOL0     C12340  10.765   3.605   6.172  0.2826  0.5063 -0.6045
   92MOL0     C12341  10.857   3.679   6.090  0.9940 -0.6710 -0.3037
   92MOL0     C12342  10.913   3.797   6.130  0.4047 -0.4187  0.6833
   92MOL0     C12343  10.874   3.855   6.254  0.0810 -0.3836 -0.8342
   92MOL0     O12344  10.920   3.971   6.309  0.3109 -0.2713 -0.1200
   92MOL0     C12345  10.991   4.069   6.228  0.1143  0.8632  0.8332
   92MOL0     C12346  10.972   4.194   6.303 -0.2701 -1.4047 -0.2991
   92MOL0     C12347  11.098   4.285   6.279  0.1956 -0.2885 -0.8341
   92MOL0     C12348  11.134   4.356   6.414 -0.3603 -0.6676  0.9793
   92MOL0     C12349  11.263   4.429   6.407 -0.0698 -0.3600  1.0168
   92MOL0     C12350  11.378   4.470   6.384  0.6394 -0.3823  0.2655
   92MOL0     C12351  10.779   3.779   6.331 -0.4835  0.2222  0.4414
   92MOL0     C12352  10.725   3.652   6.298 -0.4627 -0.8129 -0.4493
   92MOL0     H12353  10.336   3.497   6.194 -0.4732  0.0888 -0.0508
   92MOL0     H12354  10.160   3.336   6.103  0.1327  2.4543 -0.2571
   92MOL0     H12355  10.308   3.073   5.820  0.7616 -0.2752 -1.0157
   92MOL0     H12356  10.292   2.941   5.934  1.2538  0.5604  2.2628
   92MOL0     H12357  10.140   2.871   5.764 -3.0543 -1.9131  0.7222
   92MOL0     H12358  10.043   2.916   5.896  0.1274 -0.9091 -0.2169
   92MOL0     H12359   9.946   2.999   5.702  0.5606 -1.4843 -0.9052
   92MOL0     H12360   9.999   3.144   5.780 -0.1963 -0.8180  1.0255
   92MOL0     H12361  10.179   3.179   5.637 -0.2795 -0.1685 -0.3789
   92MOL0     H12362  10.148   3.012   5.548  1.7039  1.0689 -1.1056
   92MOL0     H12363   9.935   3.076   5.503 -0.3141  0.7662  1.2138
   92MOL0     H12364   9.962   3.250   5.549 -1.1196 -0.4806 -0.1454
   92MOL0     H12365  10.129   3.100   5.332 -3.5522 -0.8137 -1.8736
   92MOL0     H12366   9.990   3.190   5.306  1.5398  0.3135 -1.1867
   92MOL0     H12367  10.118   3.384   5.449 -0.5668 -0.2586 -0.6310
   92MOL0     H12368  10.254   3.270   5.449  0.3180  0.5727  0.4214
   92MOL0     H12369  10.299   3.438   5.285  1.8580 -2.3489 -0.8302
   92MOL0     H12370  10.143   3.447   5.216  0.4518  0.6628 -0.5172
   92MOL0     H12371  10.027   3.260   5.064  0.4113  2.4721  2.6742
   92MOL0     H12372  10.149   2.972   4.870 -0.7918 -0.6962  1.5597
   92MOL0     H12373  10.015   3.060   4.932 -1.7399 -0.3125 -2.5767
   92MOL0     H12374  10.066   3.234   4.740  0.6738  0.1066 -0.9222
   92MOL0     H12375   9.999   3.083   4.705 -0.6692  0.7261  1.6432
   92MOL0     H12376  10.182   3.129   4.537  0.5336  0.3780  1.3785
   92MOL0     H12377  10.211   2.986   4.626  0.4306 -0.1590 -3.4665
   92MOL0     H12378  10.382   3.113   4.768  1.0776  2.6850  0.7266
   92MOL0     H12379  10.322   3.263   4.716 -0.9752 -0.6517  2.0649
   92MOL0     H12380  10.553   3.232   4.791  0.4276  4.7400  2.5384
   92MOL0     H12381  10.679   3.337   4.938 -5.8583  1.1338 -1.2963
   92MOL0     H12382  10.806   3.440   4.904 -0.1947 -1.8540  1.8878
   92MOL0     H12383  10.641   3.498   4.919  1.5934 -0.2394  2.7957
   92MOL0     H12384  11.139   3.538   4.541 -0.1824 -0.5982  0.4822
   92MOL0     H12385  11.308   3.688   4.581  1.6459  1.5290 -1.7474
   92MOL0     H12386  11.327   4.027   4.758  4.2253 -1.2623  3.3646
   92MOL0     H12387  11.363   3.865   4.743 -0.3495  0.0777 -0.4259
   92MOL0     H12388  11.504   4.108   4.605 -2.7173 -1.8127 -2.1889
   92MOL0     H12389  11.544   4.052   4.771 -0.0425  0.3365 -0.6446
   92MOL0     H12390  11.668   4.009   4.553  1.4636 -0.0071  0.1401
   92MOL0     H12391  11.551   3.871   4.537 -0.0854  0.5257  0.3207
   92MOL0     H12392  11.742   3.915   4.752  1.6459  1.1051 -4.2709
   92MOL0     H12393  11.623   3.775   4.754 -2.3595  1.7296 -0.8621
   92MOL0     H12394  11.723   3.701   4.536 -3.4400  2.0828  0.2791
   92MOL0     H12395  11.830   3.690   4.667 -4.3613 -2.9885  0.4816
   92MOL0     H12396  11.857   3.910   4.450 -1.7963 -1.7353 -1.2021
   92MOL0     H12397  11.959   3.896   4.581 -0.7339  0.9436 -0.5423
   92MOL0     H12398  12.013   3.650   4.528  1.6641 -0.2374 -0.0829
   92MOL0     H12399  12.080   3.789   4.433 -1.1788  1.1609  0.0129
   92MOL0     H12400  11.902   3.757   4.259 -0.4702  1.2440  1.8707
   92MOL0     H12401  11.846   3.610   4.325  0.6378 -0.7465 -0.5235
   92MOL0     H12402  11.080   4.018   4.496  1.8546 -0.1451 -0.4238
   92MOL0     H12403  10.859   3.848   4.471 -0.0694 -2.5517  0.0188
   92MOL0     H12404  10.673   3.504   4.392 -1.9015  1.4718  0.8107
   92MOL0     H12405  10.534   3.311   4.369  0.3283  0.3282  0.1945
   92MOL0     H12406  10.466   3.044   6.025  1.0007 -0.1467  1.1155
   92MOL0     H12407  10.636   3.194   6.125  0.4080  2.1870  0.0393
   92MOL0     H12408  10.881   3.626   5.998  1.7279  0.3992 -0.7502
   92MOL0     H12409  10.980   3.843   6.059 -0.8218  0.6732  0.1940
   92MOL0     H12410  11.093   4.036   6.209  0.7408  2.2214  1.6849
   92MOL0     H12411  10.956   4.076   6.125  1.6358 -0.3727  0.2045
   92MOL0     H12412  10.962   4.170   6.409  1.3566  2.6673  0.9729
   92MOL0     H12413  10.881   4.246   6.274 -0.6948 -1.7946  0.3132
   92MOL0     H12414  11.070   4.341   6.189 -4.1508 -0.4477  0.1883
   92MOL0     H12415  11.186   4.222   6.264 -0.9156 -1.9812 -0.5220
   92MOL0     H12416  11.147   4.277   6.489 -2.5381 -1.4061  0.6315
   92MOL0     H12417  11.055   4.422   6.449 -0.0206  0.0366  0.4208
   92MOL0     H12418  11.470   4.517   6.354  0.4061  0.1233  0.3251
   92MOL0     H12419  10.748   3.827   6.423 -2.6165 -0.7778  0.3084
   92MOL0     H12420  10.670   3.602   6.377 -0.1285 -1.9580 -0.9239
   93MOL0     O12421   3.809   8.497   1.204  1.1449  0.1794  0.4134
   93MOL0     C12422   3.869   8.405   1.258 -0.1453  0.6924  0.4587
   93MOL0     O12423   3.807   8.296   1.319  0.0659 -0.2538 -0.0810
   93MOL0     C12424   3.667   8.288   1.348 -0.5128  0.0410  0.8237
   93MOL0     C12425   3.601   8.404   1.390  0.1197 -0.2125 -0.6443
   93MOL0     C12426   3.462   8.405   1.425  0.2236  0.5161  0.1484
   93MOL0     C12427   3.395   8.290   1.412  0.2374 -0.7456 -0.1687
   93MOL0     O12428   3.262   8.301   1.448 -0.9012 -0.5777  1.0169
   93MOL0     C12429   3.179   8.217   1.375  0.1015 -0.0879 -0.2029
   93MOL0     C12430   3.033   8.267   1.390  0.1497 -0.6555 -0.3175
   93MOL0     C12431   3.003   8.387   1.299  0.5893  0.6552 -0.2361
   93MOL0     C12432   2.855   8.427   1.318 -0.4558  0.0586 -0.1052
   93MOL0     C12433   2.766   8.343   1.225  0.4331  0.5489  0.5882
   93MOL0     C12434   2.723   8.426   1.110  0.4174  0.9295  0.3998
   93MOL0     C12435   2.604   8.378   1.028 -0.7021 -0.1902 -0.8836
   93MOL0     C12436   2.542   8.474   0.924  1.5082  0.1987  0.1689
   93MOL0     N12437   2.483   8.391   0.814  0.1692 -0.2549  0.7392
   93MOL0     C12438   2.370   8.322   0.824  0.3482  1.0923  0.5905
   93MOL0     C12439   2.360   8.260   0.707 -0.7522  0.8239  0.2806
   93MOL0     C12440   2.237   8.168   0.667 -0.5864 -0.1746  0.4323
   93MOL0     C12441   2.207   8.049   0.760  0.2847  0.0338 -0.1699
   93MOL0     C12442   2.323   7.956   0.805  0.2580 -0.8073  1.2056
   93MOL0     C12443   2.426   7.922   0.698  0.0658  0.5336 -0.1080
   93MOL0     O12444   2.514   7.823   0.746 -0.9367  0.6334 -0.1375
   93MOL0     C12445   2.619   7.858   0.836  0.7140 -0.2189  0.7970
   93MOL0     C12446   2.700   7.755   0.887 -0.2271 -0.2182 -0.2925
   93MOL0     C12447   2.814   7.785   0.966 -1.1148 -0.2445  0.1553
   93MOL0     C12448   2.882   7.670   1.029 -0.8276 -0.1751 -0.3793
   93MOL0     C12449   2.842   7.920   0.999  0.1695 -0.4656 -0.2065
   93MOL0     C12450   2.965   7.959   1.068 -0.3209  0.0140  0.7340
   93MOL0     O12451   3.077   7.888   1.036 -1.3101 -0.1075  0.1817
   93MOL0     C12452   3.159   7.857   1.138 -0.1962 -0.1909  0.5592
   93MOL0     C12453   3.113   7.828   1.267  0.2402 -0.5784  0.2694
   93MOL0     C12454   3.205   7.810   1.373 -0.2788  1.1225 -0.2347
   93MOL0     C12455   3.339   7.808   1.362 -0.3478 -1.4726  0.7587
   93MOL0     O12456   3.424   7.780   1.463  0.2751  0.4029 -0.2549
   93MOL0     C12457   3.563   7.769   1.449  0.1949 -0.2620 -0.1995
   93MOL0     C12458   3.602   7.648   1.360 -0.1303 -0.4121 -1.1032
   93MOL0     C12459   3.570   7.522   1.442 -0.0854  0.5985 -0.3032
   93MOL0     C12460   3.625   7.403   1.372  0.1183  0.9278  0.5080
   93MOL0     C12461   3.741   7.339   1.457 -0.2496  0.2310  0.1938
   93MOL0     C12462   3.770   7.201   1.392 -0.1831 -0.0540 -0.4094
   93MOL0     C12463   3.714   7.082   1.466 -0.2769  0.1518 -0.1573
   93MOL0     C12464   3.570   7.049   1.422  0.4242  0.8151 -0.1359
   93MOL0    Cl12465   3.532   6.877   1.465  0.1891  0.4045  0.0840
   93MOL0     C12466   3.388   7.853   1.234  0.6918 -0.4772  0.4460
   93MOL0     C12467   3.301   7.867   1.123 -0.0931  0.2356 -0.2371
   93MOL0     O12468   2.955   8.045   1.149  0.3246 -0.3046  0.9417
   93MOL0     C12469   2.762   8.022   0.949  0.6858 -0.1955 -0.3248
   93MOL0     C12470   2.652   7.992   0.869  0.3829  0.6421 -0.6007
   93MOL0     N12471   2.471   8.291   0.627 -0.1929  0.5856  0.3427
   93MOL0     N12472   2.542   8.372   0.697 -0.8186 -0.1227 -0.9130
   93MOL0     C12473   3.459   8.170   1.370 -0.1330  0.3161  0.3093
   93MOL0     C12474   3.596   8.169   1.340 -0.1127 -0.8124 -0.4985
   93MOL0     C12475   4.005   8.403   1.272 -0.0065  0.5654 -0.9709
   93MOL0     C12476   4.081   8.528   1.269 -0.1457 -1.0263 -0.5212
   93MOL0     C12477   4.221   8.534   1.290 -0.2149  0.1875 -0.1647
   93MOL0     C12478   4.295   8.417   1.326 -0.5708 -0.2168 -0.4941
   93MOL0     O12479   4.428   8.415   1.350  0.7927  0.7105  0.2084
   93MOL0     C12480   4.481   8.535   1.399 -0.2955 -0.6362 -0.2201
   93MOL0     C12481   4.609   8.510   1.477  0.5531  0.7425 -0.0095
   93MOL0     C12482   4.598   8.421   1.601 -0.2572 -0.9843 -0.2736
   93MOL0     C12483   4.732   8.393   1.661  0.0949  0.4633 -1.2219
   93MOL0     C12484   4.737   8.364   1.803 -0.2742  0.2441 -0.5564
   93MOL0     C12485   4.755   8.342   1.923  0.3617  0.5924  0.0422
   93MOL0     C12486   4.220   8.296   1.338 -0.0382 -0.5568 -0.6238
   93MOL0     C12487   4.078   8.285   1.312  0.2113 -0.6039 -1.2408
   93MOL0     H12488   3.657   8.493   1.416 -0.3985  1.2614 -4.0424
   93MOL0     H12489   3.404   8.492   1.456 -1.6605 -0.4440 -0.5548
   93MOL0     H12490   3.206   8.210   1.269 -0.8761 -0.9425 -0.4104
   93MOL0     H12491   3.183   8.120   1.426  1.5350  1.5302  3.0623
   93MOL0     H12492   2.967   8.180   1.383  0.4351 -0.7728 -1.9266
   93MOL0     H12493   3.029   8.292   1.496 -2.6449 -1.9416 -0.0218
   93MOL0     H12494   3.080   8.462   1.318  3.4890 -2.3901  1.1118
   93MOL0     H12495   3.013   8.345   1.198 -3.4477 -1.3937  0.0186
   93MOL0     H12496   2.824   8.409   1.422 -2.4332 -0.6517 -0.7865
   93MOL0     H12497   2.841   8.533   1.296 -1.8556 -0.1802 -0.4328
   93MOL0     H12498   2.805   8.245   1.193 -3.6281 -1.3122  0.6439
   93MOL0     H12499   2.671   8.324   1.276 -0.5261 -0.0523 -1.3329
   93MOL0     H12500   2.695   8.522   1.154  2.8532  1.6776  0.4297
   93MOL0     H12501   2.803   8.446   1.039 -2.4810  2.6784 -2.6764
   93MOL0     H12502   2.652   8.298   0.971  2.4319  1.5427 -0.8701
   93MOL0     H12503   2.517   8.339   1.082 -1.8977 -2.2517 -3.9834
   93MOL0     H12504   2.620   8.543   0.890  0.8311  0.5465 -0.7394
   93MOL0     H12505   2.453   8.526   0.960  1.0423  0.1751 -0.9047
   93MOL0     H12506   2.300   8.312   0.907  2.0864  0.5996  2.0488
   93MOL0     H12507   2.149   8.234   0.667 -0.8167 -0.4765  0.6234
   93MOL0     H12508   2.241   8.120   0.568 -0.3505  0.8355 -0.0591
   93MOL0     H12509   2.134   7.983   0.710 -1.8346  2.6558 -0.7917
   93MOL0     H12510   2.167   8.092   0.852  3.9146 -0.3493  1.7500
   93MOL0     H12511   2.280   7.862   0.840  1.2456 -0.6697  2.9092
   93MOL0     H12512   2.378   8.003   0.888  0.4030  0.3614  0.4741
   93MOL0     H12513   2.487   8.008   0.668  0.4834 -0.5096 -2.4257
   93MOL0     H12514   2.374   7.902   0.604  0.4510  0.7585 -0.3727
   93MOL0     H12515   2.675   7.650   0.872  2.4660 -1.3234  1.8641
   93MOL0     H12516   2.849   7.575   0.987  0.1374 -0.2736 -0.9553
   93MOL0     H12517   2.989   7.671   1.005 -0.5262  3.5071  0.4484
   93MOL0     H12518   2.858   7.667   1.136  2.8357  0.2808  0.6020
   93MOL0     H12519   3.009   7.822   1.299  1.1185  0.3496  3.6595
   93MOL0     H12520   3.162   7.787   1.470  1.4249 -2.3219 -0.1576
   93MOL0     H12521   3.610   7.854   1.398  2.4725 -1.4194 -0.1790
   93MOL0     H12522   3.606   7.758   1.549  2.7163 -0.9343 -1.2526
   93MOL0     H12523   3.543   7.658   1.268 -3.7013  1.3116  1.1546
   93MOL0     H12524   3.710   7.662   1.348 -0.1319 -0.8196 -1.5759
   93MOL0     H12525   3.463   7.524   1.460 -0.5417  5.2285 -1.9947
   93MOL0     H12526   3.615   7.522   1.541 -3.9435  2.2668  1.6477
   93MOL0     H12527   3.535   7.343   1.356 -0.6858  2.1831  0.1230
   93MOL0     H12528   3.662   7.425   1.271 -1.2014  0.6426 -0.0638
   93MOL0     H12529   3.716   7.335   1.564  1.5013 -0.4133  0.6012
   93MOL0     H12530   3.833   7.397   1.451 -0.3517  0.2759 -1.1979
   93MOL0     H12531   3.737   7.182   1.290  0.5557 -0.0811 -0.6494
   93MOL0     H12532   3.879   7.200   1.388 -0.1080 -0.0604  1.0065
   93MOL0     H12533   3.723   7.081   1.575  1.3238 -1.6857 -0.2551
   93MOL0     H12534   3.779   6.998   1.440  4.2924  2.1929  3.1677
   93MOL0     H12535   3.553   7.065   1.315 -1.2465 -0.8313 -0.1744
   93MOL0     H12536   3.513   7.122   1.480  2.4779  4.4396 -2.3218
   93MOL0     H12537   3.494   7.877   1.224  0.7870 -1.6843 -2.1395
   93MOL0     H12538   3.347   7.901   1.031  0.2901 -2.5195 -1.1813
   93MOL0     H12539   2.786   8.125   0.969  1.3617 -0.4934  0.4625
   93MOL0     H12540   2.583   8.066   0.831 -0.2518 -0.0583 -0.8465
   93MOL0     H12541   3.414   8.071   1.370 -0.1787  0.3178  1.9590
   93MOL0     H12542   3.641   8.075   1.308  0.8510 -0.6598  0.3283
   93MOL0     H12543   4.040   8.618   1.225  0.3395 -1.1986 -1.3604
   93MOL0     H12544   4.276   8.628   1.295 -0.2786  0.2405 -0.4813
   93MOL0     H12545   4.508   8.596   1.312  0.2448 -0.4864  0.0532
   93MOL0     H12546   4.417   8.593   1.467 -2.0629 -0.5198 -1.8694
   93MOL0     H12547   4.655   8.605   1.505  2.8308 -1.0417  2.9519
   93MOL0     H12548   4.678   8.460   1.408  1.8672 -0.6000  2.1453
   93MOL0     H12549   4.546   8.329   1.571  0.1804 -0.4963 -2.8044
   93MOL0     H12550   4.534   8.481   1.666 -1.1717 -0.9659 -1.1661
   93MOL0     H12551   4.795   8.482   1.648  0.7453 -0.0843 -1.8828
   93MOL0     H12552   4.770   8.302   1.614  0.5290 -1.4266  2.4788
   93MOL0     H12553   4.758   8.323   2.028  1.4013  0.5233  0.0115
   93MOL0     H12554   4.273   8.205   1.365  0.3725 -0.5311 -1.3216
   93MOL0     H12555   4.025   8.191   1.313 -3.9145  1.4594  0.3564
   94MOL0     O12556   3.839   1.934   6.706  0.6077  0.3232  0.8278
   94MOL0     C12557   3.802   2.030   6.644  0.1505  0.4547  0.3773
   94MOL0     O12558   3.877   2.136   6.617  0.0140 -0.1445 -0.4874
   94MOL0     C12559   3.980   2.169   6.701 -0.7429 -0.2767  1.1631
   94MOL0     C12560   3.998   2.138   6.836  0.4439  0.0626 -0.3611
   94MOL0     C12561   4.116   2.173   6.901 -0.4498 -0.2868  0.6328
   94MOL0     C12562   4.218   2.240   6.833  0.3896  0.3767 -0.5197
   94MOL0     O12563   4.345   2.283   6.885 -0.1303  0.4970  0.3257
   94MOL0     C12564   4.393   2.219   7.008  0.9435  0.0929 -0.7225
   94MOL0     C12565   4.541   2.229   7.039 -0.5898 -0.3222 -0.2069
   94MOL0     C12566   4.620   2.307   6.924  0.2253 -0.6027  0.0535
   94MOL0     C12567   4.765   2.314   6.942 -0.1802 -0.4127 -0.8378
   94MOL0     C12568   4.859   2.194   6.966 -0.5501 -1.0970 -0.0233
   94MOL0     C12569   4.878   2.116   6.828  0.2795  0.1486 -0.3871
   94MOL0     C12570   4.994   2.021   6.840  0.1867 -0.2624 -0.1240
   94MOL0     C12571   5.027   1.950   6.713  0.0985 -0.9219 -0.0970
   94MOL0     N12572   5.056   2.034   6.592 -0.7266  0.7358 -1.0921
   94MOL0     C12573   4.964   2.077   6.499 -0.3324  0.2623 -0.2048
   94MOL0     C12574   5.039   2.150   6.411 -0.1893 -0.8333 -0.6018
   94MOL0     C12575   4.987   2.215   6.287  0.1893  0.7617 -0.1678
   94MOL0     C12576   4.867   2.307   6.298  0.0788 -0.5071  0.4061
   94MOL0     C12577   4.748   2.279   6.210 -0.0387  0.1908 -0.0375
   94MOL0     C12578   4.794   2.276   6.058 -0.8218 -0.8997 -0.1702
   94MOL0     O12579   4.685   2.223   5.980  0.0558 -0.7464  0.1690
   94MOL0     C12580   4.645   2.312   5.885 -0.0895  0.6862  0.1495
   94MOL0     C12581   4.694   2.308   5.759  0.3089 -0.6154 -0.0953
   94MOL0     C12582   4.654   2.381   5.651 -0.1639  0.8576  0.2613
   94MOL0     C12583   4.737   2.372   5.524  0.2431  0.3190  0.5628
   94MOL0     C12584   4.549   2.468   5.665  0.0114 -0.2848  0.1358
   94MOL0     C12585   4.472   2.538   5.560 -0.1656 -0.6185 -0.4538
   94MOL0     O12586   4.504   2.524   5.432 -0.6965  0.2282  0.5894
   94MOL0     C12587   4.424   2.580   5.338 -0.0519  0.9144 -0.1597
   94MOL0     C12588   4.282   2.548   5.331  1.0817  0.2121  0.2054
   94MOL0     C12589   4.205   2.591   5.223 -0.0814  0.0261  0.1524
   94MOL0     C12590   4.257   2.674   5.130 -0.4735  0.2822  0.6814
   94MOL0     O12591   4.184   2.720   5.016 -0.2657  0.5796  0.0396
   94MOL0     C12592   4.044   2.759   5.040 -0.6232 -0.2412  0.1777
   94MOL0     C12593   4.051   2.877   5.131  0.8367 -0.2353 -0.6746
   94MOL0     C12594   4.104   2.998   5.063 -0.4516 -0.5040 -0.4159
   94MOL0     C12595   4.100   3.124   5.152 -0.0526  0.8218  0.1307
   94MOL0     C12596   4.192   3.236   5.102 -0.5192 -0.0357  1.0980
   94MOL0     C12597   4.122   3.308   4.988  0.5390 -0.1966  0.3348
   94MOL0     C12598   4.207   3.392   4.890  0.5729 -0.6659 -0.5738
   94MOL0     C12599   4.117   3.449   4.777  0.0082  0.2765 -0.3510
   94MOL0    Cl12600   4.204   3.545   4.662  0.2651  0.2824 -0.0625
   94MOL0     C12601   4.398   2.702   5.120  0.1941  1.3030 -0.0896
   94MOL0     C12602   4.474   2.651   5.231  0.0832  0.7398  0.0328
   94MOL0     O12603   4.376   2.604   5.606 -0.3197 -0.4101  0.5902
   94MOL0     C12604   4.503   2.487   5.796  0.6929 -0.4100  0.1213
   94MOL0     C12605   4.545   2.407   5.905 -0.0660 -1.0238 -0.2273
   94MOL0     N12606   5.168   2.147   6.455  0.1140  0.4420 -0.4928
   94MOL0     N12607   5.181   2.084   6.567  0.6882 -0.0878 -0.3792
   94MOL0     C12608   4.194   2.278   6.698 -1.2799 -0.5323 -0.1866
   94MOL0     C12609   4.080   2.231   6.632  0.4783 -1.1498 -0.1475
   94MOL0     C12610   3.676   2.045   6.571 -0.0743 -0.2982  0.5475
   94MOL0     C12611   3.590   1.927   6.543 -0.3300 -0.9697  0.7687
   94MOL0     C12612   3.473   1.941   6.462 -0.0473 -0.5634 -1.0039
   94MOL0     C12613   3.436   2.075   6.423  0.3340 -0.6540  0.1021
   94MOL0     O12614   3.319   2.097   6.361 -0.7555 -0.5322  0.2149
   94MOL0     C12615   3.279   2.009   6.257  0.0451 -0.8091 -0.4519
   94MOL0     C12616   3.164   1.924   6.309  0.0286 -0.2266 -0.3015
   94MOL0     C12617   3.094   1.820   6.214  1.1955 -0.7066  1.0275
   94MOL0     C12618   3.174   1.761   6.097 -0.1011 -0.1994 -0.0521
   94MOL0     C12619   3.174   1.858   5.984  0.2395 -1.0511  0.6639
   94MOL0     C12620   3.179   1.918   5.877  0.7192  0.0952 -0.1309
   94MOL0     C12621   3.521   2.187   6.450  1.5175  1.3265  0.0785
   94MOL0     C12622   3.640   2.169   6.523 -0.1884  0.0598  0.5080
   94MOL0     H12623   3.917   2.086   6.886 -0.5410  0.8309 -1.1369
   94MOL0     H12624   4.127   2.150   7.007 -0.4096 -1.3726  0.3989
   94MOL0     H12625   4.331   2.275   7.079  1.2889 -1.6004  0.9834
   94MOL0     H12626   4.372   2.112   7.004  0.2712  0.2302 -1.1273
   94MOL0     H12627   4.551   2.291   7.128  2.5634 -0.0393 -0.6557
   94MOL0     H12628   4.584   2.132   7.064 -2.4341 -0.7825  1.4770
   94MOL0     H12629   4.602   2.266   6.824  3.2521  0.0119 -0.8636
   94MOL0     H12630   4.574   2.407   6.922  2.4568  0.5016 -1.2036
   94MOL0     H12631   4.817   2.374   6.867 -1.7439  1.6571 -0.3369
   94MOL0     H12632   4.767   2.384   7.026  0.1242 -0.7458 -0.5622
   94MOL0     H12633   4.962   2.218   6.993 -0.0665 -1.3782 -1.5177
   94MOL0     H12634   4.825   2.123   7.042 -3.1363 -2.4175 -2.2246
   94MOL0     H12635   4.785   2.070   6.793 -0.7335  2.0995 -0.3841
   94MOL0     H12636   4.901   2.194   6.755  0.6435 -0.9175 -1.4489
   94MOL0     H12637   5.075   2.087   6.873 -4.4006  3.3387  6.0714
   94MOL0     H12638   4.986   1.951   6.924 -0.9273 -2.7806 -2.2019
   94MOL0     H12639   4.956   1.868   6.698 -0.6421 -0.9360  2.8659
   94MOL0     H12640   5.121   1.896   6.726 -1.2951 -3.7260 -0.8552
   94MOL0     H12641   4.856   2.066   6.496 -0.5355  1.6243  0.9295
   94MOL0     H12642   5.082   2.264   6.265  0.1696  0.6262 -0.5687
   94MOL0     H12643   4.974   2.139   6.209  1.9463  1.6235 -1.3676
   94MOL0     H12644   4.912   2.406   6.280 -1.8195  0.4406  0.6451
   94MOL0     H12645   4.813   2.319   6.392 -1.0810  0.1342 -0.3099
   94MOL0     H12646   4.674   2.357   6.227 -0.2532 -0.6268  3.6739
   94MOL0     H12647   4.701   2.186   6.243  1.0822 -1.0083 -1.6168
   94MOL0     H12648   4.871   2.202   6.035 -2.9484 -2.5667 -2.4877
   94MOL0     H12649   4.823   2.376   6.025  2.7194 -1.2835  1.2872
   94MOL0     H12650   4.776   2.239   5.742  2.4484  1.7933 -0.2215
   94MOL0     H12651   4.820   2.303   5.539  0.5782  0.5495 -0.2023
   94MOL0     H12652   4.674   2.351   5.437 -0.1590 -2.4058  1.4217
   94MOL0     H12653   4.787   2.466   5.499  0.5351 -0.0048 -0.0724
   94MOL0     H12654   4.239   2.488   5.410 -0.5253 -0.2722 -0.9779
   94MOL0     H12655   4.104   2.551   5.233 -0.4765  0.7521 -0.6966
   94MOL0     H12656   3.985   2.792   4.954  0.6928 -0.4663 -0.8507
   94MOL0     H12657   3.986   2.673   5.075  1.7838 -2.2805 -0.5909
   94MOL0     H12658   3.949   2.888   5.169 -0.3713 -0.1461 -3.6928
   94MOL0     H12659   4.115   2.857   5.218 -3.6083 -0.2659  2.9203
   94MOL0     H12660   4.046   3.023   4.973 -0.4361 -0.9200 -0.5413
   94MOL0     H12661   4.204   2.974   5.026  1.5388  0.0322  4.0218
   94MOL0     H12662   3.997   3.158   5.151  0.5006  2.5990  0.5719
   94MOL0     H12663   4.135   3.086   5.248  0.5781 -0.9886 -0.7529
   94MOL0     H12664   4.294   3.206   5.077 -0.1239  0.4683  2.0540
   94MOL0     H12665   4.209   3.305   5.185  1.0674  0.0351  0.7363
   94MOL0     H12666   4.063   3.238   4.928  0.6943 -1.4954  1.6536
   94MOL0     H12667   4.046   3.373   5.032 -0.2336 -0.5491 -0.4400
   94MOL0     H12668   4.273   3.322   4.836 -0.0993 -0.9173 -1.0832
   94MOL0     H12669   4.243   3.465   4.963  1.8191 -3.1405  1.4502
   94MOL0     H12670   4.033   3.501   4.824 -0.7810  0.3581 -1.7939
   94MOL0     H12671   4.069   3.370   4.718 -0.7705  0.3057  0.2292
   94MOL0     H12672   4.449   2.752   5.038 -2.1703  0.4792 -2.2111
   94MOL0     H12673   4.581   2.672   5.222 -0.1133  1.6460 -0.2882
   94MOL0     H12674   4.422   2.556   5.815  1.0165  0.2987 -0.9979
   94MOL0     H12675   4.501   2.434   6.000 -0.3620  1.5901 -1.0160
   94MOL0     H12676   4.275   2.329   6.648 -0.5419 -1.1480  0.3612
   94MOL0     H12677   4.068   2.266   6.530  1.9111  1.3313  0.4641
   94MOL0     H12678   3.615   1.823   6.559 -1.8504 -2.0242 -2.7444
   94MOL0     H12679   3.415   1.851   6.443  1.5238 -1.1460 -3.4629
   94MOL0     H12680   3.250   2.061   6.165 -0.9225 -1.2386 -0.4029
   94MOL0     H12681   3.357   1.939   6.227 -3.1247 -2.8627 -5.1237
   94MOL0     H12682   3.080   1.988   6.339 -0.0859 -0.0477 -0.9838
   94MOL0     H12683   3.205   1.872   6.396 -1.0465 -1.4406 -0.4937
   94MOL0     H12684   3.003   1.860   6.168  2.8098 -0.9804 -2.7490
   94MOL0     H12685   3.073   1.730   6.272 -1.0778  0.3501  1.9829
   94MOL0     H12686   3.130   1.665   6.066 -3.3015  1.1566 -0.0890
   94MOL0     H12687   3.277   1.737   6.124 -0.2903 -0.9151  0.0705
   94MOL0     H12688   3.176   1.970   5.783 -4.2347 -1.6333 -1.2144
   94MOL0     H12689   3.493   2.289   6.424  1.4875  1.6236  1.2338
   94MOL0     H12690   3.705   2.255   6.538  4.0319 -2.6215 -0.4943
   95MOL0     O12691   0.484   2.535   3.537 -0.5641  0.2767  0.1919
   95MOL0     C12692   0.434   2.503   3.430 -0.1316 -0.2757 -0.4205
   95MOL0     O12693   0.495   2.503   3.308 -0.4121 -0.1165 -0.0339
   95MOL0     C12694   0.623   2.451   3.303  1.1354 -0.3554 -0.1410
   95MOL0     C12695   0.731   2.531   3.278 -0.9452 -0.5766 -0.2618
   95MOL0     C12696   0.861   2.487   3.277 -0.2915 -0.3485 -1.4471
   95MOL0     C12697   0.892   2.357   3.310  0.5706  0.0838 -0.4008
   95MOL0     O12698   1.023   2.309   3.296 -0.4573  0.1224 -0.2235
   95MOL0     C12699   1.145   2.389   3.324  0.9202  0.2346  0.0154
   95MOL0     C12700   1.263   2.287   3.334  0.3669 -0.3957 -0.0970
   95MOL0     C12701   1.279   2.192   3.216  0.1534 -0.3377  0.1365
   95MOL0     C12702   1.388   2.084   3.234  0.5579  0.0031  0.0009
   95MOL0     C12703   1.534   2.135   3.226 -0.2179  0.3303  0.1313
   95MOL0     C12704   1.563   2.203   3.092  0.5196 -0.5418  0.3404
   95MOL0     C12705   1.708   2.255   3.077  1.0969  0.0694 -0.4934
   95MOL0     C12706   1.812   2.150   3.084  0.3894  0.0621 -0.6605
   95MOL0     N12707   1.948   2.211   3.066 -0.9039 -0.5367  0.6245
   95MOL0     C12708   2.003   2.223   2.934 -0.0984 -0.7601 -0.3739
   95MOL0     C12709   2.138   2.220   2.945 -0.7537  0.5435 -0.1776
   95MOL0     C12710   2.250   2.217   2.828 -0.4258  0.1535  0.1187
   95MOL0     C12711   2.384   2.275   2.873 -0.1107 -0.8975 -0.6002
   95MOL0     C12712   2.470   2.310   2.750 -0.0806 -0.3280 -0.2025
   95MOL0     C12713   2.610   2.358   2.780  0.3658 -0.4612  0.5738
   95MOL0     O12714   2.682   2.351   2.660 -0.2436  0.0677 -0.0554
   95MOL0     C12715   2.817   2.375   2.661 -0.4389  0.6453  0.0684
   95MOL0     C12716   2.894   2.388   2.774  0.6012 -0.2780 -0.3145
   95MOL0     C12717   3.029   2.411   2.775  0.3255 -0.0423 -0.1817
   95MOL0     C12718   3.097   2.456   2.902  0.0898  0.0273 -0.6788
   95MOL0     C12719   3.106   2.421   2.651  0.4050  0.3442 -0.7612
   95MOL0     C12720   3.251   2.426   2.641 -0.3903  0.1141  0.3298
   95MOL0     O12721   3.340   2.432   2.746  0.3832  0.2829  0.2751
   95MOL0     C12722   3.465   2.491   2.732  0.5259  0.4965  0.1453
   95MOL0     C12723   3.553   2.445   2.636 -0.1544  0.3005 -0.2811
   95MOL0     C12724   3.679   2.505   2.618  0.8757  0.0854 -0.8916
   95MOL0     C12725   3.715   2.601   2.716 -0.6354  1.0102 -0.1588
   95MOL0     O12726   3.838   2.662   2.711 -0.6143 -0.5398  0.6157
   95MOL0     C12727   3.953   2.576   2.695 -0.3215  0.7260 -0.0813
   95MOL0     C12728   4.079   2.649   2.745  0.8124 -0.3386 -0.0524
   95MOL0     C12729   4.058   2.715   2.882 -0.7398 -0.0762  0.1503
   95MOL0     C12730   4.192   2.781   2.918  0.9428 -0.8667  0.5235
   95MOL0     C12731   4.211   2.813   3.061  0.4021 -0.8539  0.4911
   95MOL0     C12732   4.127   2.944   3.102  0.3154  1.1144 -0.2897
   95MOL0     C12733   3.998   2.919   3.189 -0.0443  0.4371  1.3343
   95MOL0     C12734   3.870   2.965   3.121 -0.0150 -0.1261 -0.0949
   95MOL0    Cl12735   3.729   2.946   3.217 -0.4170  0.1776 -0.5011
   95MOL0     C12736   3.641   2.639   2.820 -0.2204  0.0525  0.1231
   95MOL0     C12737   3.508   2.592   2.821  0.2666 -0.4663 -0.4085
   95MOL0     O12738   3.287   2.434   2.521 -0.0585 -0.2821  1.1966
   95MOL0     C12739   3.024   2.408   2.533 -0.2021  0.1981  0.6558
   95MOL0     C12740   2.883   2.379   2.538 -0.0300 -0.0467 -0.4868
   95MOL0     N12741   2.171   2.227   3.080  0.7033 -0.1530 -0.0414
   95MOL0     N12742   2.059   2.223   3.147 -0.6546 -0.1825  0.0304
   95MOL0     C12743   0.787   2.268   3.331  0.2089 -0.1892  0.3606
   95MOL0     C12744   0.651   2.316   3.331 -0.0925  0.6937  0.7955
   95MOL0     C12745   0.284   2.493   3.426  0.1262 -0.9279 -0.1605
   95MOL0     C12746   0.220   2.478   3.309  0.7226 -0.1858  1.0129
   95MOL0     C12747   0.084   2.492   3.293  0.9948  0.4074 -0.5627
   95MOL0     C12748  -0.000   2.509   3.407  0.3147 -0.7303  0.5325
   95MOL0     O12749  -0.137   2.532   3.401 -0.0401  0.2830 -0.1750
   95MOL0     C12750  -0.189   2.480   3.277  0.1460 -0.3238  0.4858
   95MOL0     C12751  -0.183   2.338   3.255 -0.2665 -0.6064 -0.7054
   95MOL0     C12752  -0.310   2.285   3.201 -0.3050  0.2312 -0.1037
   95MOL0     C12753  -0.424   2.267   3.307  0.5156  0.5772 -0.1233
   95MOL0     C12754  -0.539   2.211   3.239 -0.0792 -0.2157 -0.2593
   95MOL0     C12755  -0.627   2.149   3.176  0.1259  0.3351  0.8433
   95MOL0     C12756   0.062   2.526   3.527  0.1009 -0.7386 -0.0832
   95MOL0     C12757   0.201   2.511   3.537  0.9838  0.3018 -0.5392
   95MOL0     H12758   0.726   2.636   3.251  0.0587 -0.7765 -1.2621
   95MOL0     H12759   0.943   2.552   3.249 -0.0149 -0.3855 -0.7547
   95MOL0     H12760   1.163   2.459   3.241  1.6108  1.3708  1.0745
   95MOL0     H12761   1.142   2.452   3.413  1.5400  1.6966 -0.9379
   95MOL0     H12762   1.351   2.351   3.343 -1.9582  2.8904  1.1955
   95MOL0     H12763   1.255   2.233   3.428  1.1887  0.3145  0.3935
   95MOL0     H12764   1.185   2.139   3.203  0.4755 -0.2955 -2.8668
   95MOL0     H12765   1.296   2.254   3.128  1.8492 -0.6287  0.2104
   95MOL0     H12766   1.368   2.035   3.329 -0.3413  0.2486 -0.0512
   95MOL0     H12767   1.368   2.013   3.153  0.2270  0.9942 -0.8113
   95MOL0     H12768   1.559   2.208   3.304  0.8404 -0.2081  0.3141
   95MOL0     H12769   1.606   2.056   3.248 -0.2833 -0.8210 -3.2348
   95MOL0     H12770   1.549   2.140   3.004 -1.8517  0.7048 -0.2280
   95MOL0     H12771   1.500   2.288   3.066 -0.3709 -1.2769  0.0299
   95MOL0     H12772   1.712   2.314   2.985 -1.5909 -1.3343 -1.6283
   95MOL0     H12773   1.711   2.320   3.165 -2.0025  0.0147 -0.2295
   95MOL0     H12774   1.785   2.069   3.015  0.4605  0.8443 -1.6246
   95MOL0     H12775   1.813   2.113   3.187 -1.0467 -1.5543 -1.1862
   95MOL0     H12776   1.944   2.211   2.844 -1.1940 -0.3364  0.2629
   95MOL0     H12777   2.259   2.110   2.805 -1.1029 -0.1067  1.0015
   95MOL0     H12778   2.207   2.266   2.740 -2.4058  1.1085  1.5432
   95MOL0     H12779   2.438   2.215   2.946  0.1626  1.2071  1.0487
   95MOL0     H12780   2.376   2.370   2.928 -0.1106 -1.4967  0.4571
   95MOL0     H12781   2.433   2.395   2.691  0.3908 -0.2723 -0.4180
   95MOL0     H12782   2.491   2.219   2.693  3.8555  0.6972 -0.7041
   95MOL0     H12783   2.653   2.284   2.849  0.1739  0.0672  1.2675
   95MOL0     H12784   2.626   2.459   2.820  1.9797 -0.7148  0.6505
   95MOL0     H12785   2.844   2.379   2.870 -0.5379  1.5538 -0.6736
   95MOL0     H12786   3.155   2.377   2.951  1.3964  0.2175 -1.8471
   95MOL0     H12787   3.177   2.527   2.879  0.4227 -0.9380 -2.7785
   95MOL0     H12788   3.031   2.489   2.982 -0.8435  0.5253 -1.6348
   95MOL0     H12789   3.523   2.358   2.579  0.0300  0.7646 -1.0997
   95MOL0     H12790   3.739   2.475   2.533  0.6887  0.2777 -1.0925
   95MOL0     H12791   3.943   2.485   2.755 -1.1198  3.1578  3.8880
   95MOL0     H12792   3.965   2.550   2.590 -1.8397 -1.1346  0.1545
   95MOL0     H12793   4.173   2.594   2.738  2.2463  1.4997  2.8711
   95MOL0     H12794   4.074   2.736   2.680 -5.5423  1.5299  2.1231
   95MOL0     H12795   4.037   2.646   2.964  1.1680 -0.5409  0.3059
   95MOL0     H12796   3.979   2.791   2.875  0.6859  1.5091  0.5731
   95MOL0     H12797   4.262   2.704   2.884 -2.7585 -4.4826  0.2816
   95MOL0     H12798   4.208   2.876   2.866  1.4670 -0.0568  2.1155
   95MOL0     H12799   4.317   2.837   3.070  1.2005 -2.7879 -2.3080
   95MOL0     H12800   4.174   2.728   3.120  0.3066 -1.0770  0.1152
   95MOL0     H12801   4.193   3.017   3.150  0.9656  0.4915 -0.2261
   95MOL0     H12802   4.091   2.986   3.008  1.0864 -0.2166 -1.1940
   95MOL0     H12803   3.994   2.992   3.270 -0.4431  1.1930  0.6495
   95MOL0     H12804   3.987   2.814   3.220  0.5798 -0.5562 -1.4395
   95MOL0     H12805   3.844   2.896   3.040 -4.2421 -0.1942  1.0859
   95MOL0     H12806   3.869   3.072   3.098  1.6651 -0.0041  0.2749
   95MOL0     H12807   3.669   2.707   2.900  0.8024  0.6602 -0.7431
   95MOL0     H12808   3.442   2.625   2.900  1.4446  1.5307 -0.1791
   95MOL0     H12809   3.073   2.411   2.437  2.5162  0.2207  1.9652
   95MOL0     H12810   2.824   2.347   2.453  0.2241 -0.5188 -0.4862
   95MOL0     H12811   0.815   2.164   3.340  3.1407  0.6002  1.3064
   95MOL0     H12812   0.572   2.248   3.361  2.0948 -2.4194 -0.0760
   95MOL0     H12813   0.272   2.463   3.215  1.6891 -2.0438  1.8070
   95MOL0     H12814   0.055   2.472   3.190  3.2766  0.0677 -1.1961
   95MOL0     H12815  -0.295   2.508   3.283  0.1928  0.3853 -1.4238
   95MOL0     H12816  -0.157   2.538   3.190 -1.6040  1.2370  0.8090
   95MOL0     H12817  -0.169   2.284   3.350  0.0854  0.1197 -0.3357
   95MOL0     H12818  -0.104   2.309   3.184  1.0680 -0.1963  0.5513
   95MOL0     H12819  -0.285   2.188   3.157 -1.6145 -0.8221  1.3209
   95MOL0     H12820  -0.337   2.350   3.118  1.4989  0.9364 -0.1759
   95MOL0     H12821  -0.458   2.359   3.356 -0.8056 -1.4752  3.1370
   95MOL0     H12822  -0.386   2.206   3.389 -3.8211 -1.9426  0.3203
   95MOL0     H12823  -0.699   2.089   3.124  2.1792 -0.4641 -1.2605
   95MOL0     H12824   0.002   2.554   3.613 -0.3321  1.1024 -0.9552
   95MOL0     H12825   0.251   2.515   3.633 -1.8081  1.7045  1.0053
   96MOL0     O12826   9.151   9.246   6.847  0.0261 -0.8064  0.5184
   96MOL0     C12827   9.113   9.215   6.959  0.1036  0.0436  0.0011
   96MOL0     O12828   9.194   9.168   7.060  0.6384  0.4816 -0.0811
   96MOL0     C12829   9.330   9.147   7.035  0.6095 -0.2922  0.8784
   96MOL0     C12830   9.424   9.226   7.093 -0.7117  0.5385 -0.4270
   96MOL0     C12831   9.560   9.211   7.080  0.5171 -1.1095 -1.1276
   96MOL0     C12832   9.607   9.116   6.995  0.2128  0.4950  0.7912
   96MOL0     O12833   9.740   9.097   6.961  0.0041  0.3583  0.6961
   96MOL0     C12834   9.808   9.220   6.919  0.2233  1.2657 -0.1343
   96MOL0     C12835   9.937   9.158   6.852 -0.0709 -0.6662  0.7338
   96MOL0     C12836  10.031   9.266   6.787 -0.2776  0.4428  0.6979
   96MOL0     C12837  10.121   9.177   6.690  0.4316 -0.3206  0.3749
   96MOL0     C12838  10.236   9.268   6.629 -0.3557  0.5567  0.7298
   96MOL0     C12839  10.359   9.172   6.623  0.5343 -0.0970 -0.4843
   96MOL0     C12840  10.483   9.242   6.557 -0.4421 -0.2218 -0.2667
   96MOL0     C12841  10.616   9.178   6.585 -0.8221  0.4128 -0.0526
   96MOL0     N12842  10.735   9.239   6.528 -0.0237 -0.8543  0.8810
   96MOL0     C12843  10.851   9.178   6.540  1.0824 -0.4484 -0.0899
   96MOL0     C12844  10.940   9.249   6.462  0.0364  0.1276 -0.2137
   96MOL0     C12845  11.084   9.221   6.442  0.3252 -0.0867 -0.0976
   96MOL0     C12846  11.168   9.275   6.555  0.3961 -0.1275  0.6336
   96MOL0     C12847  11.318   9.260   6.519 -0.8089  0.4300  0.2777
   96MOL0     C12848  11.390   9.326   6.638  0.6099 -0.2686  0.9354
   96MOL0     O12849  11.534   9.301   6.631  0.4540 -0.0392 -0.7408
   96MOL0     C12850  11.623   9.354   6.728 -0.4115  0.2581 -0.7369
   96MOL0     C12851  11.584   9.378   6.853 -0.3114  0.1867 -0.0686
   96MOL0     C12852  11.670   9.396   6.960 -0.1457 -1.6850  0.4140
   96MOL0     C12853  11.603   9.435   7.090  0.2286 -0.1804 -0.5835
   96MOL0     C12854  11.813   9.393   6.935 -0.3004  0.2569  0.1107
   96MOL0     C12855  11.917   9.413   7.041 -0.1356 -0.2568 -0.2922
   96MOL0     O12856  12.039   9.428   6.990  1.0835 -0.2808 -0.4388
   96MOL0     C12857  12.144   9.494   7.051  0.5334 -1.9210  0.0344
   96MOL0     C12858  12.128   9.610   7.121  0.2946 -0.8548  0.4035
   96MOL0     C12859  12.241   9.670   7.181  0.4926  1.1337 -0.2766
   96MOL0     C12860  12.367   9.613   7.178 -0.2960  0.5823  0.0814
   96MOL0     O12861  12.464   9.669   7.257  0.7930  0.1661 -0.0588
   96MOL0     C12862  12.595   9.617   7.255 -0.8986  0.0254 -0.1199
   96MOL0     C12863  12.670   9.644   7.377 -1.1430 -0.4190 -0.9708
   96MOL0     C12864  12.798   9.726   7.372  0.4759  0.8460 -1.1997
   96MOL0     C12865  12.839   9.748   7.519 -0.6018  0.1419  0.8804
   96MOL0     C12866  12.958   9.834   7.537  0.4379 -0.5590 -1.2859
   96MOL0     C12867  12.989   9.856   7.682  0.2106 -0.1768  0.4279
   96MOL0     C12868  13.104   9.966   7.702 -0.2714 -0.2222 -0.0534
   96MOL0     C12869  13.128   9.998   7.844 -0.0640 -0.3902  0.0438
   96MOL0    Cl12870  13.162   9.862   7.951  0.2009 -0.1479  0.2161
   96MOL0     C12871  12.387   9.489   7.111  0.6378 -0.5361 -0.0916
   96MOL0     C12872  12.275   9.434   7.051  0.1129 -0.1145 -0.0553
   96MOL0     O12873  11.895   9.414   7.162 -0.3447  0.4766  0.3011
   96MOL0     C12874  11.858   9.366   6.797  1.3374 -0.8383 -0.1746
   96MOL0     C12875  11.758   9.346   6.698 -0.4045  0.2839 -0.1906
   96MOL0     N12876  10.860   9.346   6.405 -0.6377  0.3415 -0.3171
   96MOL0     N12877  10.736   9.329   6.425  0.6144  1.3762 -0.1986
   96MOL0     C12878   9.513   9.025   6.938  0.4812  0.1503  0.1032
   96MOL0     C12879   9.375   9.035   6.964  0.2570  0.6845  0.5103
   96MOL0     C12880   8.966   9.223   6.988  0.6295  0.1284  0.0927
   96MOL0     C12881   8.875   9.218   6.878 -0.0001 -0.4134  0.3651
   96MOL0     C12882   8.735   9.200   6.910 -0.0009 -0.0322  0.3272
   96MOL0     C12883   8.693   9.203   7.040 -0.1489  0.2320  0.3111
   96MOL0     O12884   8.556   9.213   7.045  0.0784  0.6786  0.0938
   96MOL0     C12885   8.507   9.262   7.172 -0.2641  0.6227  0.5627
   96MOL0     C12886   8.347   9.262   7.179  0.5780  0.0687  0.3174
   96MOL0     C12887   8.300   9.372   7.076  0.4255 -0.3129  0.1324
   96MOL0     C12888   8.158   9.406   7.082  0.0011 -0.1004  0.0967
   96MOL0     C12889   8.074   9.296   7.026 -0.0443 -0.1798 -0.7671
   96MOL0     C12890   8.011   9.199   6.976 -0.1066 -0.0082 -0.6736
   96MOL0     C12891   8.780   9.203   7.146  1.2833  0.1853  0.3500
   96MOL0     C12892   8.915   9.225   7.117 -0.1512 -0.1912  0.8557
   96MOL0     H12893   9.394   9.308   7.157 -1.3719  0.5783 -0.7802
   96MOL0     H12894   9.638   9.267   7.130  0.2261 -2.4563  1.0000
   96MOL0     H12895   9.752   9.281   6.847 -1.2869  0.4122  0.2699
   96MOL0     H12896   9.827   9.284   7.005 -1.8350  1.2987  0.3470
   96MOL0     H12897   9.996   9.103   6.926  0.2392  1.0493  1.8113
   96MOL0     H12898   9.897   9.086   6.780  0.1088 -3.6374  3.3635
   96MOL0     H12899   9.976   9.345   6.736 -0.5273 -0.3895 -0.3732
   96MOL0     H12900  10.087   9.306   6.872  0.0418  1.1122  0.1803
   96MOL0     H12901  10.165   9.097   6.750  1.1862 -1.1721 -1.2498
   96MOL0     H12902  10.061   9.131   6.612  0.0755 -1.6118  1.3822
   96MOL0     H12903  10.212   9.286   6.523 -1.9852  0.5052  1.0559
   96MOL0     H12904  10.264   9.354   6.690  0.6770  0.7667 -0.0215
   96MOL0     H12905  10.384   9.150   6.727  1.2334  1.3023 -0.3273
   96MOL0     H12906  10.330   9.074   6.585 -1.8793  0.0511  0.8161
   96MOL0     H12907  10.474   9.250   6.448  1.4450 -0.0148 -0.4406
   96MOL0     H12908  10.488   9.341   6.603 -0.4215  0.3165 -1.4029
   96MOL0     H12909  10.606   9.072   6.562  2.1583 -0.2362  1.2601
   96MOL0     H12910  10.633   9.180   6.693  0.1244  0.8934 -0.2049
   96MOL0     H12911  10.876   9.092   6.600 -2.7067 -2.0482 -0.5535
   96MOL0     H12912  11.116   9.116   6.433  0.2517 -0.5046  3.0762
   96MOL0     H12913  11.100   9.262   6.343 -0.4038  0.1401 -0.1252
   96MOL0     H12914  11.141   9.226   6.649 -0.8788 -2.6126 -0.9407
   96MOL0     H12915  11.137   9.380   6.562  0.1953  0.1367 -2.5967
   96MOL0     H12916  11.353   9.311   6.428  0.1155 -0.9982 -0.2047
   96MOL0     H12917  11.334   9.153   6.505 -2.2478  0.2340 -0.0147
   96MOL0     H12918  11.346   9.282   6.728 -0.9147 -2.2003 -0.6860
   96MOL0     H12919  11.370   9.434   6.640 -1.7155 -0.6186  0.2322
   96MOL0     H12920  11.479   9.374   6.883  1.0831 -2.0296  5.8564
   96MOL0     H12921  11.494   9.429   7.091  0.0631  1.9666 -0.9777
   96MOL0     H12922  11.644   9.377   7.173  2.3576 -1.6931 -2.5393
   96MOL0     H12923  11.613   9.542   7.108  1.4986  0.0634 -2.4840
   96MOL0     H12924  12.026   9.645   7.128 -0.0828 -1.5675 -1.1454
   96MOL0     H12925  12.221   9.763   7.233  2.8472  1.5074  0.0544
   96MOL0     H12926  12.587   9.508   7.253  0.6255 -0.0996  0.1173
   96MOL0     H12927  12.650   9.654   7.168  0.0444 -2.7470 -0.7949
   96MOL0     H12928  12.613   9.697   7.454  2.6180  2.0248  0.3967
   96MOL0     H12929  12.691   9.549   7.426 -2.3288  0.0364  0.5095
   96MOL0     H12930  12.772   9.827   7.338  0.0980  1.2057  0.1034
   96MOL0     H12931  12.880   9.681   7.316 -0.1113  0.1051 -1.4753
   96MOL0     H12932  12.758   9.790   7.579 -1.2499 -2.2041  1.7496
   96MOL0     H12933  12.854   9.654   7.573 -0.4607  0.7742  1.9907
   96MOL0     H12934  12.923   9.929   7.495  0.2970 -0.4133 -0.8440
   96MOL0     H12935  13.045   9.795   7.483  0.7301 -2.0150  0.1629
   96MOL0     H12936  12.894   9.886   7.728 -3.0285 -2.5309 -3.9739
   96MOL0     H12937  13.011   9.760   7.730 -3.9733 -2.1782 -1.1194
   96MOL0     H12938  13.072  10.059   7.654 -1.0616 -0.0072  0.8522
   96MOL0     H12939  13.191   9.942   7.641  0.2393  2.0793 -0.3075
   96MOL0     H12940  13.034  10.047   7.870  0.2481 -0.3014  1.0394
   96MOL0     H12941  13.209  10.069   7.857  0.7567 -1.3961  0.5468
   96MOL0     H12942  12.487   9.448   7.102  0.1919 -1.8278  0.5661
   96MOL0     H12943  12.274   9.340   6.996 -0.1414  0.7467 -1.5872
   96MOL0     H12944  11.963   9.370   6.768  1.5301 -3.9137 -0.2415
   96MOL0     H12945  11.774   9.314   6.595 -1.9090 -1.2376  0.0064
   96MOL0     H12946   9.551   8.944   6.877  4.9136  1.5086  0.6496
   96MOL0     H12947   9.309   8.956   6.931  0.3748  0.3776  0.9903
   96MOL0     H12948   8.919   9.216   6.779  1.4655  2.3515  0.8800
   96MOL0     H12949   8.662   9.184   6.832 -1.0470  0.7369  1.1206
   96MOL0     H12950   8.547   9.209   7.259 -1.6687  0.1152  0.9091
   96MOL0     H12951   8.539   9.367   7.175 -0.7423  0.9394 -2.4850
   96MOL0     H12952   8.318   9.294   7.279 -1.2144  1.7692 -0.6579
   96MOL0     H12953   8.315   9.158   7.169  1.5981 -0.1283 -1.4779
   96MOL0     H12954   8.321   9.332   6.977 -0.5147 -2.2446  0.6621
   96MOL0     H12955   8.353   9.466   7.089 -0.1294 -0.2224  2.0808
   96MOL0     H12956   8.153   9.499   7.023 -0.0870 -1.4020 -2.0682
   96MOL0     H12957   8.136   9.426   7.187  3.1969 -0.0311  0.8558
   96MOL0     H12958   7.974   9.119   6.915  2.0104  0.4000 -2.6537
   96MOL0     H12959   8.752   9.209   7.251  1.8091  2.5371  0.4263
   96MOL0     H12960   8.984   9.235   7.201  2.9682 -0.7828 -1.4660
   97MOL0     O12961   9.616   3.636   5.185  0.0882  0.3740 -0.0855
   97MOL0     C12962   9.546   3.673   5.092 -0.1374  0.0278 -0.4106
   97MOL0     O12963   9.587   3.715   4.970 -0.2499  0.4317  0.3928
   97MOL0     C12964   9.722   3.683   4.922  0.0113  0.7252  0.1125
   97MOL0     C12965   9.741   3.663   4.786 -0.5288  0.4276 -0.1908
   97MOL0     C12966   9.870   3.635   4.730  0.1224 -0.0931 -0.2467
   97MOL0     C12967   9.982   3.637   4.820 -0.8654  0.5493  0.2698
   97MOL0     O12968  10.111   3.621   4.766  0.5114 -0.4260 -0.2744
   97MOL0     C12969  10.217   3.564   4.842 -0.6430  0.3005 -0.4983
   97MOL0     C12970  10.334   3.544   4.749  0.2355  0.4131 -0.4240
   97MOL0     C12971  10.410   3.666   4.696  0.3539  0.1700 -0.6050
   97MOL0     C12972  10.337   3.739   4.581  0.5640 -0.0797 -0.8601
   97MOL0     C12973  10.428   3.831   4.497 -0.9409 -0.3778 -0.3579
   97MOL0     C12974  10.480   3.945   4.594  0.6857  0.1338  0.3862
   97MOL0     C12975  10.571   4.043   4.520 -0.3641  0.7906 -0.4102
   97MOL0     C12976  10.578   4.168   4.608  0.3162 -0.9184  0.6890
   97MOL0     N12977  10.652   4.276   4.533 -1.1163  0.2179 -0.3012
   97MOL0     C12978  10.783   4.264   4.488  0.7889  0.8310  0.2856
   97MOL0     C12979  10.801   4.373   4.411 -0.8892  0.6044 -0.0483
   97MOL0     C12980  10.923   4.410   4.332 -1.4881 -0.3592 -0.4711
   97MOL0     C12981  10.896   4.454   4.190 -0.5246  0.3580  0.6607
   97MOL0     C12982  11.030   4.507   4.128 -0.5168 -0.1612  0.4724
   97MOL0     C12983  11.091   4.632   4.204  0.2338  0.2689  0.2926
   97MOL0     O12984  10.996   4.742   4.227  0.5781 -0.0369 -0.4699
   97MOL0     C12985  10.955   4.819   4.120 -0.0619  0.4729 -0.4140
   97MOL0     C12986  11.037   4.906   4.048 -0.3370  0.8853  0.7000
   97MOL0     C12987  10.988   4.978   3.936  0.6937 -0.1961 -0.4610
   97MOL0     C12988  11.079   5.073   3.872 -1.3879 -0.9094  0.1100
   97MOL0     C12989  10.853   4.972   3.896 -1.1661 -0.3381 -0.2545
   97MOL0     C12990  10.792   5.025   3.772 -0.1525  0.6554 -0.3919
   97MOL0     O12991  10.664   4.986   3.748  0.3408  0.0412  0.8809
   97MOL0     C12992  10.586   5.030   3.647 -0.1889  0.7785  0.0605
   97MOL0     C12993  10.515   4.932   3.567 -0.0518 -0.2744  0.4161
   97MOL0     C12994  10.438   4.976   3.459 -0.3342 -0.7509 -0.7301
   97MOL0     C12995  10.428   5.114   3.418 -0.0358  1.3101 -0.5491
   97MOL0     O12996  10.341   5.152   3.319 -0.3976 -0.3585  0.4404
   97MOL0     C12997  10.199   5.118   3.346 -0.4630 -0.7182  0.1653
   97MOL0     C12998  10.107   5.206   3.258 -0.3804 -0.4268 -0.5214
   97MOL0     C12999   9.954   5.191   3.288 -0.2766 -0.3960  0.3998
   97MOL0     C13000   9.910   5.193   3.438 -0.6851  0.6654  1.1663
   97MOL0     C13001   9.760   5.197   3.468 -0.4414 -0.6639 -0.1251
   97MOL0     C13002   9.695   5.072   3.419 -0.1219  0.4555  0.6880
   97MOL0     C13003   9.751   4.942   3.470 -0.8502  1.1704  0.0646
   97MOL0     C13004   9.662   4.820   3.443  0.5755 -0.5756 -0.4255
   97MOL0    Cl13005   9.743   4.673   3.478  0.6362  0.1598 -0.2748
   97MOL0     C13006  10.500   5.206   3.492  0.0017 -0.8130  0.8415
   97MOL0     C13007  10.574   5.168   3.606  0.5251 -0.4322  0.7584
   97MOL0     O13008  10.857   5.109   3.705  0.2593  0.1913 -0.6316
   97MOL0     C13009  10.770   4.893   3.978  0.4905 -0.3373 -0.3712
   97MOL0     C13010  10.817   4.823   4.089 -0.9101  0.1652  0.3385
   97MOL0     N13011  10.695   4.457   4.416  0.1512 -0.3381  0.0948
   97MOL0     N13012  10.609   4.401   4.494 -0.1784 -0.6097  1.0188
   97MOL0     C13013   9.957   3.643   4.959 -0.0555  0.4591  0.2973
   97MOL0     C13014   9.834   3.660   5.011 -0.4539  1.0215 -0.0614
   97MOL0     C13015   9.397   3.657   5.105 -0.7013 -0.8457  0.0932
   97MOL0     C13016   9.315   3.692   5.002 -0.0939 -0.0499  0.8274
   97MOL0     C13017   9.178   3.676   5.008 -0.0201 -0.4818 -0.2816
   97MOL0     C13018   9.122   3.619   5.125  0.0513 -0.1037  0.6180
   97MOL0     O13019   8.985   3.597   5.123 -1.0523  0.3635  0.1780
   97MOL0     C13020   8.917   3.588   5.255  0.2284  0.2471 -0.2951
   97MOL0     C13021   8.766   3.616   5.243 -0.1074 -0.0944 -0.0456
   97MOL0     C13022   8.729   3.757   5.292  0.2602  0.2731 -0.0030
   97MOL0     C13023   8.582   3.782   5.291 -0.2633  0.2313  0.4275
   97MOL0     C13024   8.536   3.822   5.158 -0.4463 -1.0817 -0.6481
   97MOL0     C13025   8.493   3.835   5.044  0.5710  0.1043  0.0571
   97MOL0     C13026   9.201   3.579   5.230  0.5171 -0.5556 -0.1614
   97MOL0     C13027   9.343   3.599   5.220 -0.5842  0.6425 -1.3837
   97MOL0     H13028   9.654   3.677   4.724 -1.4500  1.9250  1.3454
   97MOL0     H13029   9.880   3.629   4.622  0.9607  3.9274 -0.5451
   97MOL0     H13030  10.257   3.619   4.928  1.4951 -1.4598 -0.2903
   97MOL0     H13031  10.201   3.462   4.879  2.6710  0.2005  1.0935
   97MOL0     H13032  10.407   3.477   4.795 -2.1893 -1.3918  1.0659
   97MOL0     H13033  10.289   3.485   4.669 -0.8210  0.8850 -0.1992
   97MOL0     H13034  10.429   3.730   4.782 -0.0327  0.5554 -0.8052
   97MOL0     H13035  10.508   3.637   4.657 -0.4905 -2.2310 -1.1140
   97MOL0     H13036  10.280   3.676   4.511 -0.3547  0.0342 -0.2220
   97MOL0     H13037  10.254   3.793   4.627  0.4356 -0.1591 -0.9939
   97MOL0     H13038  10.512   3.769   4.465 -0.2849 -1.4065  2.9715
   97MOL0     H13039  10.366   3.875   4.418 -0.6057  2.0135  0.6034
   97MOL0     H13040  10.395   3.998   4.638 -1.0267 -2.7183  0.7105
   97MOL0     H13041  10.545   3.905   4.672  0.7765  1.5249  1.0588
   97MOL0     H13042  10.667   4.000   4.491  1.3348  4.0900 -0.1579
   97MOL0     H13043  10.526   4.078   4.426 -1.3383  0.2077 -0.1745
   97MOL0     H13044  10.626   4.144   4.703 -0.2292 -0.0737  1.1925
   97MOL0     H13045  10.481   4.202   4.646  1.4281  0.4317  2.4827
   97MOL0     H13046  10.846   4.179   4.513 -0.5621  0.5768  3.1785
   97MOL0     H13047  10.971   4.494   4.383 -1.8437  0.8661 -2.0902
   97MOL0     H13048  10.998   4.330   4.327 -2.8887 -1.6376 -4.3917
   97MOL0     H13049  10.826   4.537   4.183 -1.7627 -0.7114 -0.1966
   97MOL0     H13050  10.859   4.371   4.129  1.5396  0.3455 -0.6957
   97MOL0     H13051  11.016   4.529   4.022 -0.1675  0.5191  0.5649
   97MOL0     H13052  11.105   4.427   4.130  0.8963  1.1053  2.4832
   97MOL0     H13053  11.183   4.665   4.156  0.6223  0.1880  0.9606
   97MOL0     H13054  11.126   4.601   4.303  2.6781  1.2994 -0.1915
   97MOL0     H13055  11.141   4.918   4.077 -0.1118  1.4565 -0.2891
   97MOL0     H13056  11.097   5.033   3.772 -0.1227  0.6070 -0.3085
   97MOL0     H13057  11.042   5.175   3.870  0.8701  0.1233  3.2298
   97MOL0     H13058  11.181   5.078   3.911 -0.6646  2.1647 -1.9249
   97MOL0     H13059  10.522   4.828   3.597  0.0985 -0.4669 -0.2798
   97MOL0     H13060  10.387   4.901   3.399 -1.9046 -0.7449  0.5182
   97MOL0     H13061  10.184   5.012   3.324 -0.3193 -0.9228  1.0300
   97MOL0     H13062  10.179   5.130   3.453  0.7132 -1.5110  0.4922
   97MOL0     H13063  10.148   5.307   3.265  1.3553 -1.0213 -1.4045
   97MOL0     H13064  10.118   5.176   3.153  0.6470 -2.4791  0.1110
   97MOL0     H13065   9.922   5.108   3.225  0.9776  1.4538 -2.9395
   97MOL0     H13066   9.904   5.274   3.239  1.0002  1.0938  1.4913
   97MOL0     H13067   9.946   5.096   3.473 -0.1929 -0.7371 -2.7869
   97MOL0     H13068   9.961   5.267   3.501 -0.3568  0.3461  1.2806
   97MOL0     H13069   9.721   5.291   3.428  3.0854  2.0620  2.1701
   97MOL0     H13070   9.750   5.203   3.577 -1.2508  3.5127 -0.2652
   97MOL0     H13071   9.593   5.079   3.458  0.5727  1.5954  2.4300
   97MOL0     H13072   9.704   5.073   3.309 -1.4022 -0.6170  0.5505
   97MOL0     H13073   9.766   4.961   3.577  0.7990 -1.7599  0.4625
   97MOL0     H13074   9.846   4.925   3.418  0.1573 -0.0224  2.1681
   97MOL0     H13075   9.627   4.836   3.340  1.6472  3.2615 -0.3686
   97MOL0     H13076   9.575   4.830   3.507 -0.7720 -1.1932 -2.0919
   97MOL0     H13077  10.495   5.311   3.466  2.1998 -1.1950 -1.4914
   97MOL0     H13078  10.644   5.241   3.646  0.3158  2.3775 -3.3149
   97MOL0     H13079  10.665   4.876   3.958 -0.4310 -1.3295  4.3049
   97MOL0     H13080  10.748   4.765   4.150 -1.0764 -0.5235 -0.4743
   97MOL0     H13081  10.037   3.620   5.028  1.8378  1.9391 -1.2830
   97MOL0     H13082   9.837   3.646   5.119 -0.3134 -4.5998 -0.4975
   97MOL0     H13083   9.357   3.723   4.906 -2.4144 -1.9973 -0.9414
   97MOL0     H13084   9.102   3.701   4.934 -2.3366 -1.1092  1.7300
   97MOL0     H13085   8.935   3.490   5.300 -0.5754  0.1617 -0.1467
   97MOL0     H13086   8.956   3.644   5.341  1.6925 -1.6271  0.3327
   97MOL0     H13087   8.714   3.551   5.314 -0.8361 -1.4613 -1.7548
   97MOL0     H13088   8.733   3.602   5.139 -1.0645  0.2730  0.1934
   97MOL0     H13089   8.776   3.835   5.232  3.0351 -1.9882 -0.9981
   97MOL0     H13090   8.750   3.748   5.399  0.7764  0.6917 -0.0626
   97MOL0     H13091   8.566   3.857   5.370 -0.4083  0.0611  0.5635
   97MOL0     H13092   8.522   3.693   5.313  2.8374 -1.9996  0.5276
   97MOL0     H13093   8.433   3.851   4.956 -1.0734  0.5984  1.2177
   97MOL0     H13094   9.156   3.532   5.316  2.1831  0.5711  1.4198
   97MOL0     H13095   9.404   3.575   5.307 -2.4436 -1.3127 -0.5145
   98MOL0     O13096   7.489   7.220   4.897  0.4698 -0.5390  0.5151
   98MOL0     C13097   7.549   7.166   4.987  0.5437 -0.2300 -0.7937
   98MOL0     O13098   7.495   7.150   5.112 -0.2698  0.0185  0.5612
   98MOL0     C13099   7.355   7.171   5.123 -0.3325 -0.1281 -0.3359
   98MOL0     C13100   7.266   7.071   5.077 -0.0797  0.4465 -0.3304
   98MOL0     C13101   7.130   7.097   5.110 -0.2024 -0.4631 -0.7763
   98MOL0     C13102   7.082   7.216   5.172 -0.7462  0.6183  0.4353
   98MOL0     O13103   6.953   7.238   5.205 -0.0911  0.0702  0.6478
   98MOL0     C13104   6.849   7.142   5.184  0.6128 -0.2854 -0.4906
   98MOL0     C13105   6.735   7.167   5.290 -0.1583  0.2945 -0.2033
   98MOL0     C13106   6.614   7.078   5.249 -0.8053  1.4787 -0.5029
   98MOL0     C13107   6.509   7.084   5.366  1.2508  0.6757 -0.0277
   98MOL0     C13108   6.362   7.038   5.318 -0.8443 -0.5751  0.8643
   98MOL0     C13109   6.293   7.148   5.240  0.6901  0.3870  0.3032
   98MOL0     C13110   6.185   7.100   5.144 -0.0592 -0.9163  0.3951
   98MOL0     C13111   6.049   7.069   5.219 -0.2249 -0.5010 -0.6363
   98MOL0     N13112   5.925   7.056   5.148 -0.2830 -1.3840 -0.1290
   98MOL0     C13113   5.846   6.951   5.122  0.4375  0.2321  0.9790
   98MOL0     C13114   5.736   7.000   5.050 -0.8010  0.0898 -1.0354
   98MOL0     C13115   5.612   6.913   5.015  0.0827  0.2155  0.2784
   98MOL0     C13116   5.508   6.926   5.127  0.0506  0.7191  0.6904
   98MOL0     C13117   5.416   7.050   5.108 -0.0254 -0.2943 -0.5601
   98MOL0     C13118   5.312   7.062   5.225 -0.5172 -1.0756 -0.9418
   98MOL0     O13119   5.212   6.956   5.217  0.2925  0.0392  1.0673
   98MOL0     C13120   5.142   6.916   5.329  0.0403 -0.4637  0.3121
   98MOL0     C13121   5.024   6.848   5.309  0.4752 -0.9579 -0.1015
   98MOL0     C13122   4.939   6.812   5.411  0.3241 -0.7581 -0.0961
   98MOL0     C13123   4.811   6.749   5.362  0.1985  0.0615 -0.0121
   98MOL0     C13124   4.969   6.835   5.549 -0.3220 -0.0403 -0.0788
   98MOL0     C13125   4.887   6.795   5.663  0.5591  0.2945 -0.1307
   98MOL0     O13126   4.790   6.698   5.649 -0.4622 -0.6951  0.1845
   98MOL0     C13127   4.717   6.664   5.757 -0.5896  0.0510 -0.0189
   98MOL0     C13128   4.759   6.631   5.890 -0.5913  0.1408 -0.0940
   98MOL0     C13129   4.674   6.596   5.984  1.3798 -0.8909 -0.7319
   98MOL0     C13130   4.532   6.579   5.949 -0.3440  0.3507  0.5661
   98MOL0     O13131   4.443   6.529   6.045 -0.3288 -0.2262 -0.1752
   98MOL0     C13132   4.298   6.529   6.023 -0.3852 -0.0574  0.1932
   98MOL0     C13133   4.254   6.415   5.931 -0.2566 -0.2094 -0.2330
   98MOL0     C13134   4.098   6.414   5.933 -0.2403 -0.5770 -0.1596
   98MOL0     C13135   4.038   6.301   5.844 -0.1149 -0.0916 -0.5249
   98MOL0     C13136   3.887   6.281   5.866 -0.0860  0.1484 -0.0650
   98MOL0     C13137   3.811   6.207   5.758 -0.5780  0.3763 -0.5609
   98MOL0     C13138   3.675   6.153   5.804 -0.7152 -0.6590 -0.8007
   98MOL0     C13139   3.576   6.129   5.682 -0.8188 -0.0449  0.5434
   98MOL0    Cl13140   3.654   6.013   5.569 -0.6048 -0.6484  0.1190
   98MOL0     C13141   4.491   6.607   5.822 -0.2338  0.6244  0.2546
   98MOL0     C13142   4.583   6.641   5.728 -0.2983 -0.5566  0.0484
   98MOL0     O13143   4.921   6.840   5.772  0.2236 -0.7384  0.1570
   98MOL0     C13144   5.092   6.896   5.564  0.4177  0.1996 -0.2455
   98MOL0     C13145   5.182   6.924   5.461 -0.6537  0.2935  1.3426
   98MOL0     N13146   5.749   7.136   5.034  0.1538 -0.1073  0.2032
   98MOL0     N13147   5.858   7.168   5.099 -0.2326  0.1374 -1.2542
   98MOL0     C13148   7.183   7.312   5.220 -0.3248  0.6037  0.2025
   98MOL0     C13149   7.318   7.284   5.183  1.2999 -0.0380  0.0465
   98MOL0     C13150   7.693   7.141   4.970 -0.0867 -0.0943 -0.6900
   98MOL0     C13151   7.772   7.134   5.085  0.4369 -0.3409 -0.0408
   98MOL0     C13152   7.909   7.120   5.058 -0.2256 -0.1076 -0.5270
   98MOL0     C13153   7.967   7.115   4.934 -0.0505  0.1820 -0.1641
   98MOL0     O13154   8.099   7.101   4.903  0.0548 -0.5244  0.0584
   98MOL0     C13155   8.195   7.134   5.001 -0.5544 -0.4851  0.1480
   98MOL0     C13156   8.324   7.179   4.930  0.5277 -0.2227  0.8646
   98MOL0     C13157   8.422   7.258   5.023  1.2438 -0.1615 -0.0317
   98MOL0     C13158   8.438   7.225   5.171 -0.9796  0.1467 -0.0637
   98MOL0     C13159   8.461   7.077   5.176  0.4970  0.1871  0.1756
   98MOL0     C13160   8.472   6.957   5.166  0.5606 -0.1992 -0.3116
   98MOL0     C13161   7.883   7.124   4.817  0.1782  0.2632 -0.3958
   98MOL0     C13162   7.744   7.146   4.845  0.6838 -0.0465  0.0978
   98MOL0     H13163   7.310   6.987   5.024  0.2892  0.8230 -0.6316
   98MOL0     H13164   7.052   7.023   5.095  0.3988 -1.7203  1.6346
   98MOL0     H13165   6.808   7.151   5.083  0.5040  1.1845 -0.3335
   98MOL0     H13166   6.873   7.036   5.192 -2.0700 -1.1511 -2.2813
   98MOL0     H13167   6.767   7.151   5.393  1.1910 -0.4939 -0.7276
   98MOL0     H13168   6.699   7.271   5.293  1.0199  0.7566 -1.3641
   98MOL0     H13169   6.566   7.116   5.158  2.7768  2.3019 -2.2101
   98MOL0     H13170   6.634   6.973   5.226 -2.1567  1.1121 -0.1048
   98MOL0     H13171   6.539   7.016   5.447  0.8069  2.0448  1.3191
   98MOL0     H13172   6.512   7.179   5.419  0.7585 -0.0297  1.3208
   98MOL0     H13173   6.385   6.959   5.245  0.9073  0.1999  0.5338
   98MOL0     H13174   6.300   7.000   5.400 -0.7565 -0.5567  0.9399
   98MOL0     H13175   6.240   7.217   5.308  0.5370  0.6856 -0.1121
   98MOL0     H13176   6.356   7.215   5.181  0.2890  0.8757  0.4113
   98MOL0     H13177   6.174   7.187   5.079 -1.5048  0.5343  2.4460
   98MOL0     H13178   6.216   7.010   5.089  0.0479 -0.0614 -0.9997
   98MOL0     H13179   6.035   7.126   5.311  0.3529 -1.6143  0.1605
   98MOL0     H13180   6.059   6.969   5.263  2.2688  1.0161  2.7281
   98MOL0     H13181   5.844   6.845   5.148 -1.3363  0.0121  0.1377
   98MOL0     H13182   5.573   6.948   4.919  2.8905  2.2478 -0.2268
   98MOL0     H13183   5.647   6.809   5.010 -0.6388 -0.2461  3.0900
   98MOL0     H13184   5.553   6.928   5.227  0.8917  0.3880  0.3234
   98MOL0     H13185   5.435   6.844   5.123  3.4124 -2.4805  0.1819
   98MOL0     H13186   5.353   7.056   5.018 -1.7429 -1.8655  0.4660
   98MOL0     H13187   5.486   7.133   5.107 -2.5853  1.9865 -0.6903
   98MOL0     H13188   5.266   7.160   5.210 -2.2033 -1.2578  2.2484
   98MOL0     H13189   5.367   7.068   5.320 -0.6478  1.3812 -0.9692
   98MOL0     H13190   4.995   6.820   5.208  1.4266 -3.7344  0.3081
   98MOL0     H13191   4.819   6.640   5.375 -0.7640  0.0972  1.1062
   98MOL0     H13192   4.721   6.772   5.419 -0.4491 -4.0862  0.9760
   98MOL0     H13193   4.791   6.775   5.258 -1.3751  1.4409  0.5796
   98MOL0     H13194   4.859   6.644   5.929 -1.1251 -1.8557  2.1846
   98MOL0     H13195   4.705   6.564   6.083 -3.7572 -0.4459  1.3179
   98MOL0     H13196   4.239   6.515   6.114 -0.9850 -2.1290 -0.4615
   98MOL0     H13197   4.268   6.627   5.985  1.1529  1.7897  3.3729
   98MOL0     H13198   4.294   6.439   5.832  1.3193 -0.2385  0.3775
   98MOL0     H13199   4.296   6.320   5.964 -1.3071 -0.0991  1.5968
   98MOL0     H13200   4.056   6.511   5.906 -1.9388 -0.4573  2.4618
   98MOL0     H13201   4.061   6.406   6.036 -2.0280  1.7531 -0.5388
   98MOL0     H13202   4.065   6.304   5.738  2.6321  1.8311  0.1220
   98MOL0     H13203   4.092   6.210   5.871  2.7457  1.5381 -0.3293
   98MOL0     H13204   3.843   6.381   5.871 -0.9557 -0.2652  0.9825
   98MOL0     H13205   3.871   6.231   5.962 -1.6371  1.8611  0.6497
   98MOL0     H13206   3.799   6.278   5.675 -0.5298  1.8830  0.6855
   98MOL0     H13207   3.873   6.122   5.729  1.0578  1.0013  0.9142
   98MOL0     H13208   3.641   6.215   5.888 -2.2696  1.4814 -2.8964
   98MOL0     H13209   3.705   6.059   5.853 -0.2196  1.9789  4.7966
   98MOL0     H13210   3.561   6.226   5.636  0.1758  0.4967  1.3232
   98MOL0     H13211   3.476   6.090   5.704 -0.8022  0.0264  0.7508
   98MOL0     H13212   4.388   6.597   5.789 -0.3946 -0.0868  0.9442
   98MOL0     H13213   4.551   6.663   5.626 -1.9321  1.5835  0.9469
   98MOL0     H13214   5.114   6.917   5.668  1.3899  2.6125 -0.8603
   98MOL0     H13215   5.271   6.980   5.486 -1.5019  2.4722 -0.2689
   98MOL0     H13216   7.152   7.398   5.279 -0.2031  0.6792  0.1583
   98MOL0     H13217   7.391   7.358   5.214  1.0047 -0.1918  1.1486
   98MOL0     H13218   7.730   7.141   5.185 -0.5423 -1.5732 -0.3548
   98MOL0     H13219   7.979   7.114   5.141  1.3304  1.0640 -1.6788
   98MOL0     H13220   8.163   7.214   5.068  1.3957 -2.3234  3.5922
   98MOL0     H13221   8.215   7.051   5.070  0.2551  0.6366  1.3090
   98MOL0     H13222   8.304   7.241   4.842  3.1952 -2.0538 -1.2043
   98MOL0     H13223   8.376   7.092   4.889  0.4942  1.3640 -3.0387
   98MOL0     H13224   8.397   7.364   5.020  1.2896 -0.0725  1.7089
   98MOL0     H13225   8.517   7.253   4.969 -0.2389 -0.1154 -2.7781
   98MOL0     H13226   8.356   7.253   5.238  1.6719  0.2403  3.4149
   98MOL0     H13227   8.526   7.275   5.211 -1.0439 -1.5205  2.3963
   98MOL0     H13228   8.482   6.851   5.172 -0.4761 -0.3088 -0.2885
   98MOL0     H13229   7.924   7.137   4.718 -3.6804 -0.2555 -2.2638
   98MOL0     H13230   7.673   7.158   4.764 -0.9085 -0.3146  1.4002
   99MOL0     O13231   3.197   5.317   8.970 -0.1923 -0.0430  0.4108
   99MOL0     C13232   3.082   5.361   8.968  0.2267 -0.2772  0.5182
   99MOL0     O13233   2.965   5.290   8.957  0.4574 -0.2827 -0.0317
   99MOL0     C13234   2.990   5.164   8.900 -0.7520 -0.7228 -0.1486
   99MOL0     C13235   3.006   5.150   8.761 -0.0039 -0.3340 -0.2752
   99MOL0     C13236   3.031   5.027   8.701  0.0143 -0.4053  0.3719
   99MOL0     C13237   3.020   4.918   8.777 -0.3088  0.6644 -1.1274
   99MOL0     O13238   3.012   4.787   8.731 -0.7501 -0.2948 -0.2967
   99MOL0     C13239   3.063   4.754   8.597 -0.4029  0.7018  0.1154
   99MOL0     C13240   3.122   4.609   8.594  0.0498 -0.3597  1.0421
   99MOL0     C13241   3.027   4.484   8.559 -0.3748 -0.1614  0.3048
   99MOL0     C13242   2.965   4.502   8.428 -0.5465  0.8357 -0.5797
   99MOL0     C13243   2.879   4.384   8.378 -0.0627  0.3870  0.1125
   99MOL0     C13244   2.957   4.250   8.348  0.4763  0.5158 -0.1984
   99MOL0     C13245   3.056   4.258   8.230 -0.4948  1.0163  0.6006
   99MOL0     C13246   3.131   4.120   8.204  0.0723 -0.2894  0.2515
   99MOL0     N13247   3.051   4.008   8.161  0.8374  0.4049 -0.1146
   99MOL0     C13248   2.986   4.007   8.037  0.0823 -0.1314 -0.4462
   99MOL0     C13249   2.911   3.892   8.033  0.1549 -0.2040  0.0397
   99MOL0     C13250   2.841   3.852   7.904 -0.5645 -0.4064 -0.9349
   99MOL0     C13251   2.774   3.973   7.835 -0.0473  0.3457 -0.7425
   99MOL0     C13252   2.661   3.943   7.741 -0.7255  0.4953  0.3638
   99MOL0     C13253   2.617   4.070   7.668 -1.0572  0.6211 -0.7415
   99MOL0     O13254   2.548   4.038   7.541  0.3566  0.1189  0.0725
   99MOL0     C13255   2.411   4.007   7.539  0.7942  0.1192 -0.5082
   99MOL0     C13256   2.323   3.987   7.649  0.3487 -0.3322 -0.4186
   99MOL0     C13257   2.197   3.924   7.637  0.0836 -0.2529  1.1201
   99MOL0     C13258   2.133   3.886   7.765  0.8717  0.0037 -0.8593
   99MOL0     C13259   2.147   3.886   7.507 -0.5640  0.4106 -0.6170
   99MOL0     C13260   2.030   3.807   7.495 -0.6156  0.0745 -0.5997
   99MOL0     O13261   2.003   3.717   7.588  0.5604  0.7579 -0.0788
   99MOL0     C13262   1.894   3.636   7.568 -0.4454  0.3850 -0.1788
   99MOL0     C13263   1.892   3.539   7.470 -0.1217  0.5073  0.4475
   99MOL0     C13264   1.781   3.453   7.446  0.2942  0.0202 -0.4328
   99MOL0     C13265   1.667   3.484   7.522 -0.5534  0.2381  0.2690
   99MOL0     O13266   1.560   3.407   7.510 -0.3865 -0.2658 -0.0985
   99MOL0     C13267   1.442   3.480   7.464  0.9553  0.1962  0.5356
   99MOL0     C13268   1.353   3.387   7.370 -1.2983  0.2014  0.5401
   99MOL0     C13269   1.226   3.451   7.328  0.0631 -0.0603  0.6753
   99MOL0     C13270   1.153   3.357   7.236  0.0838  0.6653 -0.0885
   99MOL0     C13271   1.016   3.403   7.186  0.6131  0.4762 -0.2421
   99MOL0     C13272   0.928   3.290   7.131 -0.3933 -0.4926  0.6596
   99MOL0     C13273   0.864   3.178   7.221 -0.0608 -0.7461 -0.0198
   99MOL0     C13274   0.755   3.114   7.140  0.0935 -0.5142  0.2809
   99MOL0    Cl13275   0.808   3.072   6.979 -0.1805 -0.1678 -0.5436
   99MOL0     C13276   1.662   3.581   7.625  0.6870  0.0663  0.0948
   99MOL0     C13277   1.778   3.650   7.648 -0.2383 -0.5793 -0.7956
   99MOL0     O13278   1.980   3.810   7.386  0.1507 -0.4094 -0.5154
   99MOL0     C13279   2.230   3.915   7.399 -0.4012 -0.5266  0.3143
   99MOL0     C13280   2.357   3.974   7.420  0.3014 -0.0765 -0.0877
   99MOL0     N13281   2.925   3.831   8.156  0.6625  0.7975  0.2295
   99MOL0     N13282   3.007   3.898   8.232  0.1222  0.2636 -0.3695
   99MOL0     C13283   2.994   4.922   8.917  0.2208 -0.2052  1.2152
   99MOL0     C13284   2.987   5.047   8.981 -1.1973  0.1469 -0.0700
   99MOL0     C13285   3.057   5.500   9.002 -0.7827 -0.3595  0.2098
   99MOL0     C13286   3.162   5.579   9.056  0.7976  0.2403 -0.4948
   99MOL0     C13287   3.145   5.713   9.095  0.2720 -0.5098  0.0842
   99MOL0     C13288   3.021   5.763   9.089 -0.1067  0.0232 -0.2402
   99MOL0     O13289   3.004   5.898   9.124 -0.0658  0.1401 -0.2032
   99MOL0     C13290   2.886   5.964   9.083 -1.1455  0.5507  0.6010
   99MOL0     C13291   2.882   6.111   9.118  0.3595 -1.1452 -0.4302
   99MOL0     C13292   2.895   6.139   9.270 -0.2861 -0.3414 -0.8472
   99MOL0     C13293   2.882   6.282   9.324 -0.4267  0.4380  0.0133
   99MOL0     C13294   2.965   6.367   9.242 -0.5573  0.2702  0.0801
   99MOL0     C13295   3.048   6.416   9.166  0.6396 -0.0712  1.1347
   99MOL0     C13296   2.912   5.689   9.053  0.5983  0.4892 -0.0088
   99MOL0     C13297   2.932   5.561   9.006  0.1109 -0.1152  0.3724
   99MOL0     H13298   3.003   5.242   8.703  0.4395  0.5425  1.0510
   99MOL0     H13299   3.042   5.023   8.593  0.8417  4.2600  0.0731
   99MOL0     H13300   2.991   4.764   8.515 -0.4718  0.5967  0.1620
   99MOL0     H13301   3.144   4.821   8.566 -1.0337  1.6456  0.4749
   99MOL0     H13302   3.201   4.600   8.519  0.0387  0.5927  0.9045
   99MOL0     H13303   3.172   4.592   8.689 -1.8610 -1.1622  1.9562
   99MOL0     H13304   3.089   4.394   8.553 -0.6294 -0.3652  0.7258
   99MOL0     H13305   2.955   4.457   8.636 -0.7936  2.2767  0.8460
   99MOL0     H13306   2.904   4.593   8.426 -1.6414  0.1067 -1.5028
   99MOL0     H13307   3.046   4.513   8.355  0.0634  1.1051  0.1214
   99MOL0     H13308   2.811   4.373   8.464  1.4522 -0.6006  1.2537
   99MOL0     H13309   2.820   4.420   8.294 -0.6427  1.8388  1.0940
   99MOL0     H13310   3.015   4.218   8.435 -0.4501  1.3743  0.7476
   99MOL0     H13311   2.877   4.177   8.337  1.0159 -0.1867  0.4636
   99MOL0     H13312   2.990   4.290   8.148  0.8985  0.5229 -0.7555
   99MOL0     H13313   3.132   4.334   8.251 -0.4401  1.6311 -1.6130
   99MOL0     H13314   3.194   4.088   8.288  1.2986  0.9007 -0.1822
   99MOL0     H13315   3.201   4.136   8.122  1.2248  2.8082  1.6783
   99MOL0     H13316   2.997   4.076   7.955 -1.2287  0.4911 -0.1206
   99MOL0     H13317   2.903   3.800   7.831 -0.3904  1.1779 -1.9757
   99MOL0     H13318   2.760   3.788   7.941  1.1855 -0.9433  2.3224
   99MOL0     H13319   2.855   4.018   7.777  1.2288 -0.3799  0.4130
   99MOL0     H13320   2.738   4.039   7.914  0.1989  0.6160 -0.8550
   99MOL0     H13321   2.570   3.911   7.793  0.2126  0.8294  2.2558
   99MOL0     H13322   2.697   3.862   7.676  1.0094  0.9475  0.7284
   99MOL0     H13323   2.704   4.136   7.662 -0.8098  0.5390  1.3235
   99MOL0     H13324   2.552   4.119   7.740  1.2172 -0.1876  2.0634
   99MOL0     H13325   2.362   4.006   7.748 -0.1998  2.3914 -0.6489
   99MOL0     H13326   2.025   3.872   7.763  0.9165 -1.4520  1.7721
   99MOL0     H13327   2.179   3.795   7.804 -1.9286 -1.0298  0.3073
   99MOL0     H13328   2.160   3.961   7.840  3.4400 -2.9978  1.5300
   99MOL0     H13329   1.967   3.527   7.392 -2.6595 -2.2255 -1.8471
   99MOL0     H13330   1.784   3.377   7.368  1.9321  0.3122 -0.6812
   99MOL0     H13331   1.385   3.506   7.553 -0.6024 -0.1269 -0.3299
   99MOL0     H13332   1.466   3.572   7.409 -0.3113 -0.4525 -1.1893
   99MOL0     H13333   1.403   3.372   7.274 -1.8318  2.5195 -0.1777
   99MOL0     H13334   1.330   3.295   7.423 -3.8848  0.5289  0.0937
   99MOL0     H13335   1.240   3.543   7.271 -3.6188 -1.1299 -2.4133
   99MOL0     H13336   1.156   3.472   7.410 -0.5483 -0.3252  0.2319
   99MOL0     H13337   1.210   3.327   7.148  0.1483 -2.0705  0.8182
   99MOL0     H13338   1.131   3.264   7.288  0.2591 -0.2536 -1.5975
   99MOL0     H13339   1.028   3.477   7.106  0.7972 -0.2580 -0.9124
   99MOL0     H13340   0.952   3.453   7.258  0.9835  0.4802  0.0883
   99MOL0     H13341   0.845   3.337   7.076 -0.5789 -0.6445  0.8093
   99MOL0     H13342   0.984   3.246   7.048  3.7783 -0.0063  2.9390
   99MOL0     H13343   0.815   3.213   7.313 -0.9688 -0.1851 -0.6953
   99MOL0     H13344   0.938   3.101   7.247  2.9499  2.3036  1.2274
   99MOL0     H13345   0.660   3.168   7.139 -2.3492 -4.2740  2.5616
   99MOL0     H13346   0.733   3.021   7.195  1.7612  0.2079  2.3074
   99MOL0     H13347   1.577   3.624   7.676  1.4825  0.9612  0.6791
   99MOL0     H13348   1.776   3.724   7.728  1.1744 -0.8573 -0.4742
   99MOL0     H13349   2.198   3.879   7.302 -2.6044  0.5308  0.5974
   99MOL0     H13350   2.416   3.991   7.331 -1.3143  3.1756 -0.6686
   99MOL0     H13351   2.978   4.829   8.970  3.9718 -0.1843  2.7081
   99MOL0     H13352   2.955   5.057   9.085 -1.8781  1.8553 -0.3961
   99MOL0     H13353   3.258   5.538   9.085  1.0948  1.5606  0.5069
   99MOL0     H13354   3.227   5.774   9.130 -0.3323  1.6510 -2.0051
   99MOL0     H13355   2.886   5.971   8.974 -0.6340  1.7670  0.6566
   99MOL0     H13356   2.795   5.933   9.135 -2.2658  3.8312  0.8480
   99MOL0     H13357   2.789   6.156   9.084  0.3641 -0.7729  0.0342
   99MOL0     H13358   2.965   6.162   9.069  1.0901  0.2723  2.0850
   99MOL0     H13359   2.993   6.090   9.279 -0.1735 -0.0612 -0.5507
   99MOL0     H13360   2.821   6.086   9.330  0.4346  0.2269  0.5745
   99MOL0     H13361   2.911   6.294   9.428 -0.7578  0.1138  0.1472
   99MOL0     H13362   2.782   6.327   9.315  1.1545  4.1163 -1.0816
   99MOL0     H13363   3.109   6.460   9.090  0.1800 -1.8222 -0.3134
   99MOL0     H13364   2.809   5.723   9.056  0.4403 -0.0039  0.2096
   99MOL0     H13365   2.846   5.505   8.970  0.6007 -0.4350 -0.3039
  100MOL0     O13366   4.597   3.112   0.551 -0.4607  0.2133  0.1381
  100MOL0     C13367   4.495   3.055   0.526  0.2044  0.0587  0.0794
  100MOL0     O13368   4.443   3.032   0.401 -0.1248  0.0543 -0.2405
  100MOL0     C13369   4.505   3.100   0.304  0.1945 -0.8270  0.0830
  100MOL0     C13370   4.435   3.207   0.241 -0.4114 -0.2214  1.2503
  100MOL0     C13371   4.488   3.290   0.146  0.2008  0.8968  0.4017
  100MOL0     C13372   4.619   3.260   0.105  0.8331  0.5443 -0.6060
  100MOL0     O13373   4.678   3.349   0.014 -0.3640 -0.6874  0.2099
  100MOL0     C13374   4.828   3.356   0.016  0.2766  0.8935  0.1230
  100MOL0     C13375   4.869   3.493  -0.031 -0.9463 -0.1537 -0.3216
  100MOL0     C13376   5.012   3.482  -0.092  0.3972 -0.0232  0.1424
  100MOL0     C13377   5.120   3.429   0.006  0.3578 -0.3718 -0.3125
  100MOL0     C13378   5.256   3.425  -0.053 -0.2938 -0.4015 -0.0104
  100MOL0     C13379   5.345   3.343   0.050  0.2743  0.2920  0.3924
  100MOL0     C13380   5.489   3.309   0.001 -0.5574 -0.3252  0.3055
  100MOL0     C13381   5.562   3.430  -0.058 -0.2845 -0.5526 -0.1525
  100MOL0     N13382   5.718   3.416  -0.048 -0.1662  0.5120 -0.3769
  100MOL0     C13383   5.794   3.302  -0.078  0.8544  0.5395 -1.1694
  100MOL0     C13384   5.916   3.341  -0.053 -0.9730  0.1783  0.0347
  100MOL0     C13385   6.033   3.250  -0.065  0.1264 -0.0901 -0.2445
  100MOL0     C13386   6.157   3.321  -0.135  0.2863  0.0496 -0.4887
  100MOL0     C13387   6.126   3.356  -0.287  0.5688  0.1384 -0.2853
  100MOL0     C13388   6.117   3.251  -0.398 -0.8959  0.4521  0.6278
  100MOL0     O13389   6.017   3.154  -0.377 -1.7576  0.1128  0.2871
  100MOL0     C13390   5.879   3.189  -0.367  0.8345  0.3495  0.0914
  100MOL0     C13391   5.825   3.305  -0.418 -0.3406 -0.6111  0.1494
  100MOL0     C13392   5.689   3.316  -0.421  0.4932 -1.0865  0.9329
  100MOL0     C13393   5.639   3.439  -0.503  0.0502 -0.9476 -0.1237
  100MOL0     C13394   5.606   3.220  -0.367  0.7831 -0.3274 -0.7240
  100MOL0     C13395   5.458   3.246  -0.379 -0.3949 -0.4438  0.5887
  100MOL0     O13396   5.386   3.131  -0.362  0.7850 -0.3543  0.2526
  100MOL0     C13397   5.248   3.142  -0.359 -0.0544 -0.6858  0.2959
  100MOL0     C13398   5.183   3.220  -0.457  0.0709 -0.0476  0.2915
  100MOL0     C13399   5.048   3.241  -0.439 -0.0051 -0.1279 -0.0590
  100MOL0     C13400   4.983   3.194  -0.326 -0.1053 -0.7608  0.3428
  100MOL0     O13401   4.849   3.219  -0.308 -0.5785 -0.1316 -0.1484
  100MOL0     C13402   4.784   3.326  -0.385  0.4160  0.7501  0.5871
  100MOL0     C13403   4.645   3.352  -0.314 -0.4956 -0.1939  0.3058
  100MOL0     C13404   4.538   3.325  -0.416  0.3755 -0.5456  0.1267
  100MOL0     C13405   4.529   3.421  -0.542  0.0550  0.0268  0.4691
  100MOL0     C13406   4.393   3.426  -0.619  0.3390 -0.0161 -0.1491
  100MOL0     C13407   4.378   3.536  -0.734  1.3085 -0.1698 -0.8319
  100MOL0     C13408   4.249   3.520  -0.806 -0.3009  0.4232 -1.3462
  100MOL0     C13409   4.232   3.628  -0.912  0.6522 -0.4939  0.3831
  100MOL0    Cl13410   4.176   3.773  -0.816  0.1985 -0.5521 -0.0194
  100MOL0     C13411   5.046   3.107  -0.239 -0.0879  0.1365  0.7278
  100MOL0     C13412   5.185   3.084  -0.251 -0.2704 -0.4046  0.2163
  100MOL0     O13413   5.411   3.357  -0.378 -0.6620 -0.5839 -0.0973
  100MOL0     C13414   5.663   3.100  -0.322 -0.1378 -0.5215 -0.8294
  100MOL0     C13415   5.796   3.092  -0.324  0.6238  0.1130 -0.2523
  100MOL0     N13416   5.924   3.469  -0.022 -0.6941  0.2883  0.2750
  100MOL0     N13417   5.803   3.514  -0.015 -0.6517 -0.2510 -0.2116
  100MOL0     C13418   4.690   3.150   0.162 -0.6651 -0.6239  0.0976
  100MOL0     C13419   4.634   3.077   0.266 -0.2362  0.0554 -0.1653
  100MOL0     C13420   4.413   3.028   0.647 -0.4646  1.4014 -0.3247
  100MOL0     C13421   4.456   3.070   0.776  0.2793  0.2689  0.1438
  100MOL0     C13422   4.373   3.058   0.884  0.2850  0.6365  0.9193
  100MOL0     C13423   4.244   3.004   0.876 -0.4970 -0.3670  0.1951
  100MOL0     O13424   4.181   3.011   0.990 -0.5004  0.0242  0.3457
  100MOL0     C13425   4.048   2.969   1.006 -0.6274  0.2081  0.6644
  100MOL0     C13426   4.035   2.818   1.027  1.3255  0.0397  0.0514
  100MOL0     C13427   3.881   2.790   1.021  0.0952  0.6995 -0.6060
  100MOL0     C13428   3.838   2.642   1.033  0.1171  0.7960 -0.0218
  100MOL0     C13429   3.922   2.564   1.119 -0.3501  0.4098 -0.1550
  100MOL0     C13430   4.000   2.500   1.189 -0.4523 -0.1067  0.3815
  100MOL0     C13431   4.207   2.950   0.749 -0.8145 -0.1566  0.3124
  100MOL0     C13432   4.290   2.957   0.637 -0.5389 -0.4833 -0.1022
  100MOL0     H13433   4.330   3.224   0.264 -0.5822  1.7937 -0.6632
  100MOL0     H13434   4.427   3.368   0.103 -2.6488 -1.0727  0.6115
  100MOL0     H13435   4.876   3.338   0.113 -0.6002 -2.9538  0.0239
  100MOL0     H13436   4.866   3.268  -0.036  1.3324 -1.9936  5.0565
  100MOL0     H13437   4.798   3.526  -0.108 -0.7429 -2.5469 -1.6091
  100MOL0     H13438   4.873   3.565   0.052  1.3173  0.1184 -0.6123
  100MOL0     H13439   5.020   3.421  -0.183 -2.4324 -2.1904  1.2067
  100MOL0     H13440   5.044   3.583  -0.119  0.3822 -0.6911 -2.7902
  100MOL0     H13441   5.111   3.496   0.093 -3.6548 -0.0249 -0.7870
  100MOL0     H13442   5.102   3.328   0.044 -1.6116 -0.4053 -1.1841
  100MOL0     H13443   5.261   3.380  -0.153  1.1474  0.3691 -0.3134
  100MOL0     H13444   5.301   3.523  -0.074 -1.4227  0.5470  1.7422
  100MOL0     H13445   5.369   3.410   0.132  3.1459 -1.1868  0.8870
  100MOL0     H13446   5.296   3.255   0.092 -2.0285  0.5821 -1.4490
  100MOL0     H13447   5.552   3.253   0.071 -3.7293 -0.9852  2.8758
  100MOL0     H13448   5.486   3.243  -0.086  3.1078  1.2419 -1.2333
  100MOL0     H13449   5.539   3.521  -0.002  0.5735  0.6847 -1.6984
  100MOL0     H13450   5.526   3.447  -0.160 -1.8106 -1.4411  0.2165
  100MOL0     H13451   5.739   3.209  -0.087  0.8679  0.2746  0.9902
  100MOL0     H13452   6.070   3.212   0.031 -0.7208 -2.9085 -0.9583
  100MOL0     H13453   6.001   3.163  -0.123 -4.4869  0.4966  1.0199
  100MOL0     H13454   6.235   3.244  -0.131 -1.4152 -1.7263  1.4322
  100MOL0     H13455   6.185   3.412  -0.082  3.1370  0.1188 -1.9414
  100MOL0     H13456   6.195   3.434  -0.321 -2.1968  1.5091 -3.2994
  100MOL0     H13457   6.027   3.402  -0.282 -0.1923 -1.3171 -1.1740
  100MOL0     H13458   6.216   3.206  -0.397 -0.0856  2.0452  3.1578
  100MOL0     H13459   6.111   3.297  -0.497  1.0317  1.6954  1.0182
  100MOL0     H13460   5.884   3.385  -0.462 -2.5715 -0.3046 -2.5355
  100MOL0     H13461   5.712   3.488  -0.567 -3.5791  3.1067 -1.6015
  100MOL0     H13462   5.563   3.417  -0.579 -0.1118 -1.0389  0.0614
  100MOL0     H13463   5.593   3.511  -0.435 -3.6294 -3.9974  0.9469
  100MOL0     H13464   5.228   3.267  -0.544 -1.0491 -0.5796 -0.6063
  100MOL0     H13465   5.001   3.290  -0.524 -2.0856 -2.1708 -0.1776
  100MOL0     H13466   4.845   3.416  -0.397  0.1202  0.8266 -0.4236
  100MOL0     H13467   4.769   3.287  -0.486 -0.1359  2.6733 -0.1085
  100MOL0     H13468   4.624   3.286  -0.229 -3.4509  1.8434  1.3023
  100MOL0     H13469   4.623   3.449  -0.269 -0.8254  0.8306 -1.9541
  100MOL0     H13470   4.446   3.330  -0.357  0.8436 -1.7180  1.0020
  100MOL0     H13471   4.537   3.222  -0.454 -0.4156  0.9047 -4.2596
  100MOL0     H13472   4.550   3.524  -0.511 -0.2196  0.9419 -2.1919
  100MOL0     H13473   4.608   3.395  -0.613 -0.2822  0.5492 -0.1105
  100MOL0     H13474   4.307   3.439  -0.552  1.5970 -0.0762  1.5574
  100MOL0     H13475   4.377   3.336  -0.679  1.7132  1.8213 -3.4979
  100MOL0     H13476   4.378   3.634  -0.685 -2.6244 -0.4206  0.0239
  100MOL0     H13477   4.465   3.531  -0.800  2.6456 -1.9855  0.9513
  100MOL0     H13478   4.155   3.518  -0.751 -0.7978 -1.2062 -2.1808
  100MOL0     H13479   4.255   3.428  -0.866  2.6482  0.9217 -1.9674
  100MOL0     H13480   4.156   3.600  -0.986  0.7536 -2.3104  0.9133
  100MOL0     H13481   4.322   3.640  -0.973 -0.5619 -0.3529 -1.4768
  100MOL0     H13482   4.992   3.063  -0.156 -0.1996  0.6294  0.9211
  100MOL0     H13483   5.236   3.031  -0.171 -1.5131 -1.9320  0.0536
  100MOL0     H13484   5.605   3.011  -0.297  0.1768 -1.2135 -2.4204
  100MOL0     H13485   5.836   2.996  -0.294 -1.4706 -1.0155 -0.8658
  100MOL0     H13486   4.781   3.098   0.135 -0.6610 -1.0077  0.8112
  100MOL0     H13487   4.688   3.002   0.321  1.2621  1.6198  0.5974
  100MOL0     H13488   4.555   3.109   0.800 -0.2447  1.1276  1.0006
  100MOL0     H13489   4.418   3.084   0.980  1.7198 -1.1194  0.7713
  100MOL0     H13490   3.996   3.018   1.089  0.4859  0.6325  1.1243
  100MOL0     H13491   3.993   3.004   0.918  1.3516 -0.3181 -0.8565
  100MOL0     H13492   4.075   2.799   1.127  1.3870  1.0769  0.2329
  100MOL0     H13493   4.085   2.766   0.944  2.0026  0.3171  0.2811
  100MOL0     H13494   3.842   2.813   0.921  0.7524  2.2064 -0.5470
  100MOL0     H13495   3.838   2.852   1.100  2.8842  2.0063 -0.0084
  100MOL0     H13496   3.832   2.588   0.939 -0.9533 -0.6793  0.8530
  100MOL0     H13497   3.733   2.643   1.065  0.2373  0.1651  0.3967
  100MOL0     H13498   4.066   2.438   1.247  1.3481 -0.0485 -1.4605
  100MOL0     H13499   4.113   2.899   0.728 -1.5034  1.9361 -2.1356
  100MOL0     H13500   4.251   2.934   0.538 -1.4958 -0.3392  0.2352
  101MOL0     O13501   3.210  11.342   1.800 -0.5069 -0.1793 -0.6106
  101MOL0     C13502   3.273  11.443   1.834 -0.0436 -1.6548 -0.6230
  101MOL0     O13503   3.217  11.557   1.879  0.1662 -0.5441 -0.0904
  101MOL0     C13504   3.081  11.558   1.870 -1.1241 -0.3254 -0.0804
  101MOL0     C13505   3.006  11.536   1.752 -0.2311  0.5154  0.3813
  101MOL0     C13506   2.865  11.560   1.746 -0.2494  0.4100  0.3963
  101MOL0     C13507   2.791  11.602   1.856 -0.0107 -0.4822 -0.7184
  101MOL0     O13508   2.657  11.618   1.856 -0.1790  0.2909  0.5753
  101MOL0     C13509   2.587  11.635   1.731  0.0539 -0.5349  0.0234
  101MOL0     C13510   2.441  11.675   1.757 -0.4497 -0.0584  0.4439
  101MOL0     C13511   2.326  11.567   1.728 -0.6841 -0.1756  0.0523
  101MOL0     C13512   2.191  11.612   1.782 -1.0367 -0.6375  0.0251
  101MOL0     C13513   2.094  11.503   1.782 -0.5805 -0.6842 -0.0474
  101MOL0     C13514   1.950  11.546   1.806  0.0646 -0.0554  1.0762
  101MOL0     C13515   1.852  11.437   1.744  0.3069  0.2642 -0.1434
  101MOL0     C13516   1.849  11.302   1.820  0.3061  0.3674 -0.4702
  101MOL0     N13517   1.932  11.206   1.739 -0.8688 -0.1695 -0.5554
  101MOL0     C13518   1.881  11.130   1.634 -0.9344 -0.0945  0.4818
  101MOL0     C13519   1.981  11.047   1.590  0.4185 -0.6806 -0.2742
  101MOL0     C13520   1.961  10.947   1.486 -0.1662 -0.1993 -0.0315
  101MOL0     C13521   1.868  10.835   1.520 -0.4205 -0.2769 -0.0660
  101MOL0     C13522   1.722  10.873   1.548 -0.6174  0.9639  0.1972
  101MOL0     C13523   1.709  10.876   1.706 -0.1814  0.7457  0.1516
  101MOL0     O13524   1.608  10.964   1.748  0.5741 -0.3623 -0.1550
  101MOL0     C13525   1.471  10.940   1.741 -0.4980 -0.0405 -0.4983
  101MOL0     C13526   1.387  11.034   1.808  0.3947  0.3155 -1.7606
  101MOL0     C13527   1.248  11.025   1.805 -0.0461  0.7701  0.7765
  101MOL0     C13528   1.175  11.137   1.863 -0.1088  0.3492 -0.4634
  101MOL0     C13529   1.183  10.924   1.731 -0.3674  0.6265 -1.1862
  101MOL0     C13530   1.029  10.897   1.730 -0.9603  0.6351  0.8218
  101MOL0     O13531   0.948  10.959   1.810 -0.2038 -0.5727  0.1029
  101MOL0     C13532   0.812  10.941   1.818  0.2861  0.2429  0.5242
  101MOL0     C13533   0.746  10.947   1.946 -0.5490  0.1776 -0.3633
  101MOL0     C13534   0.607  10.929   1.941 -0.0322  0.5277 -0.6283
  101MOL0     C13535   0.537  10.889   1.830 -0.2148  0.0453  0.2468
  101MOL0     O13536   0.404  10.847   1.850  0.2336  0.2629  0.3861
  101MOL0     C13537   0.332  10.829   1.730  0.4553  0.0695  0.1100
  101MOL0     C13538   0.190  10.792   1.775  0.1711  0.0117  0.0764
  101MOL0     C13539   0.101  10.726   1.673  1.6147 -0.6496 -0.1117
  101MOL0     C13540  -0.048  10.741   1.713 -0.2708 -0.5987  0.6245
  101MOL0     C13541  -0.150  10.649   1.641 -0.3594 -0.6813  0.8526
  101MOL0     C13542  -0.288  10.714   1.645 -0.2577 -0.0371  0.0190
  101MOL0     C13543  -0.395  10.621   1.577  1.1142  0.0851 -0.5310
  101MOL0     C13544  -0.379  10.617   1.423  0.0414 -0.7809 -0.1702
  101MOL0    Cl13545  -0.410  10.786   1.368  0.0438  0.3734  0.4629
  101MOL0     C13546   0.602  10.901   1.705 -0.1228 -0.1477 -0.1836
  101MOL0     C13547   0.741  10.931   1.699  0.5714 -0.0624 -1.1044
  101MOL0     O13548   1.002  10.802   1.658  0.0081  0.3130 -1.0577
  101MOL0     C13549   1.275  10.829   1.670  0.4300  0.9184  0.0163
  101MOL0     C13550   1.410  10.839   1.664 -1.0424 -0.2915 -0.0515
  101MOL0     N13551   2.091  11.077   1.671  0.0066  0.3404 -0.6014
  101MOL0     N13552   2.065  11.167   1.758  0.0715 -0.0098 -0.4596
  101MOL0     C13553   2.866  11.613   1.974  1.4948 -1.1573  0.1933
  101MOL0     C13554   3.003  11.603   1.982 -0.0670 -0.1199 -0.0064
  101MOL0     C13555   3.420  11.451   1.831 -0.1506 -0.2559  0.4611
  101MOL0     C13556   3.505  11.360   1.765  0.4820 -0.6180  0.9705
  101MOL0     C13557   3.635  11.386   1.754  0.3028 -0.2202 -1.1960
  101MOL0     C13558   3.695  11.493   1.820 -0.0247  0.6540  0.2446
  101MOL0     O13559   3.837  11.494   1.813  0.5849  0.0308  0.0417
  101MOL0     C13560   3.912  11.591   1.883 -0.0425  0.6294  0.5501
  101MOL0     C13561   4.055  11.587   1.825 -0.4432 -0.1668  0.4854
  101MOL0     C13562   4.139  11.455   1.842  0.1328 -0.3401  0.0324
  101MOL0     C13563   4.280  11.479   1.801 -0.0313 -0.1848 -0.5632
  101MOL0     C13564   4.353  11.571   1.896 -0.7605 -0.0637 -0.5370
  101MOL0     C13565   4.428  11.643   1.967 -0.4713  0.3227 -0.7210
  101MOL0     C13566   3.617  11.573   1.904  0.0808  0.2393  0.9979
  101MOL0     C13567   3.480  11.563   1.906  0.8926 -0.3682  0.3780
  101MOL0     H13568   3.052  11.504   1.659 -3.0989  0.4685 -1.1285
  101MOL0     H13569   2.820  11.534   1.650  0.3012 -0.7243  0.4320
  101MOL0     H13570   2.630  11.713   1.666 -2.4589 -1.0937 -2.5237
  101MOL0     H13571   2.590  11.547   1.666  1.2851  1.5324 -2.9675
  101MOL0     H13572   2.427  11.711   1.859 -0.1205  1.0692  0.0996
  101MOL0     H13573   2.413  11.758   1.692 -0.5134 -0.2713  0.1987
  101MOL0     H13574   2.321  11.541   1.622 -1.9638  0.9913 -0.2063
  101MOL0     H13575   2.366  11.484   1.786  1.3051 -0.2030 -1.2406
  101MOL0     H13576   2.203  11.649   1.884  1.9831 -1.9009  0.2503
  101MOL0     H13577   2.158  11.686   1.710  0.8017 -1.6874 -2.0437
  101MOL0     H13578   2.103  11.454   1.684 -1.5529 -0.2483 -0.3604
  101MOL0     H13579   2.116  11.431   1.861 -1.5235 -1.3047 -0.3366
  101MOL0     H13580   1.941  11.546   1.915 -0.0552 -0.0290  1.0661
  101MOL0     H13581   1.935  11.646   1.764 -3.5363 -0.0088  2.1742
  101MOL0     H13582   1.751  11.477   1.749  0.4103  0.6621 -1.0090
  101MOL0     H13583   1.862  11.426   1.635 -3.6848  0.6056 -0.6783
  101MOL0     H13584   1.748  11.264   1.835 -0.0968  0.9740 -1.5465
  101MOL0     H13585   1.890  11.313   1.921 -0.2113  2.2025 -0.4262
  101MOL0     H13586   1.778  11.130   1.599 -1.3376 -1.8434  1.5332
  101MOL0     H13587   1.934  10.997   1.393 -1.3214 -2.1119 -0.7726
  101MOL0     H13588   2.060  10.900   1.476 -0.8761 -1.7580 -0.0357
  101MOL0     H13589   1.903  10.776   1.605 -0.3966 -1.9854 -1.2103
  101MOL0     H13590   1.874  10.763   1.439 -0.3091 -0.1250 -0.1929
  101MOL0     H13591   1.650  10.797   1.518 -1.9616  2.1306  0.3879
  101MOL0     H13592   1.691  10.958   1.487 -2.9714  0.1611  0.1977
  101MOL0     H13593   1.803  10.906   1.753  0.3357  0.5945 -0.7487
  101MOL0     H13594   1.693  10.783   1.760  1.2962  0.6526  0.4782
  101MOL0     H13595   1.438  11.113   1.862  1.1211 -0.2627 -1.5869
  101MOL0     H13596   1.121  11.108   1.954  0.6916 -2.5806 -0.8225
  101MOL0     H13597   1.240  11.217   1.899 -1.0721  0.1143  1.9830
  101MOL0     H13598   1.105  11.186   1.794  2.3841  3.5764 -0.9457
  101MOL0     H13599   0.798  10.952   2.041  0.9597  0.7781 -1.1759
  101MOL0     H13600   0.557  10.932   2.036  0.7559  0.7921 -0.2121
  101MOL0     H13601   0.329  10.922   1.673 -1.2319  0.4504  0.7731
  101MOL0     H13602   0.383  10.745   1.682 -1.7069 -0.7733 -0.8053
  101MOL0     H13603   0.211  10.730   1.862 -2.4613  1.3627  1.8293
  101MOL0     H13604   0.124  10.875   1.805 -0.7835 -0.4911 -0.5800
  101MOL0     H13605   0.131  10.622   1.652  0.6541 -0.6964 -1.3294
  101MOL0     H13606   0.112  10.779   1.579 -0.6702 -1.3441 -0.8199
  101MOL0     H13607  -0.053  10.738   1.822 -0.5359  2.2763  0.7693
  101MOL0     H13608  -0.071  10.845   1.687 -1.2298 -0.5400  1.6254
  101MOL0     H13609  -0.150  10.546   1.677  2.5729 -0.3440  2.0579
  101MOL0     H13610  -0.125  10.641   1.535  0.5009  0.4965  0.9423
  101MOL0     H13611  -0.324  10.723   1.748 -1.8458 -0.1477 -0.4926
  101MOL0     H13612  -0.286  10.818   1.612  1.5115 -0.1786 -0.4376
  101MOL0     H13613  -0.492  10.656   1.613  0.6947 -1.1547 -0.4071
  101MOL0     H13614  -0.371  10.518   1.604  3.5589  0.8241  0.4714
  101MOL0     H13615  -0.449  10.544   1.381 -0.3850 -0.3554 -0.2071
  101MOL0     H13616  -0.278  10.587   1.393  0.9978  2.7317 -0.9133
  101MOL0     H13617   0.567  10.885   1.604  4.4422  0.5909 -2.1346
  101MOL0     H13618   0.789  10.934   1.601 -1.5954  1.0858 -2.2246
  101MOL0     H13619   1.236  10.738   1.626  2.6743 -0.2601  0.3138
  101MOL0     H13620   1.465  10.768   1.603  3.5053  1.3609  1.7322
  101MOL0     H13621   2.827  11.642   2.071  1.2479 -0.2901 -0.1522
  101MOL0     H13622   3.062  11.614   2.072  0.8084 -1.1858 -0.4183
  101MOL0     H13623   3.466  11.270   1.718 -0.3325 -1.5622  3.2491
  101MOL0     H13624   3.706  11.324   1.701 -1.1703 -2.9445 -0.2039
  101MOL0     H13625   3.865  11.690   1.887  1.2663  1.2438  3.5633
  101MOL0     H13626   3.914  11.558   1.987 -0.5589 -0.2867  0.2827
  101MOL0     H13627   4.106  11.663   1.884 -1.5682 -0.4875  1.9267
  101MOL0     H13628   4.051  11.618   1.720  0.3046 -1.1212  0.1559
  101MOL0     H13629   4.087  11.389   1.773 -2.0930  0.0360  1.2501
  101MOL0     H13630   4.134  11.413   1.943  0.7767 -0.2768  0.0970
  101MOL0     H13631   4.267  11.507   1.695  0.1609  1.9120 -0.0803
  101MOL0     H13632   4.334  11.384   1.799 -2.5508 -1.7210 -1.0649
  101MOL0     H13633   4.488  11.696   2.038  0.3240  1.2690 -2.0527
  101MOL0     H13634   3.669  11.653   1.955  1.4545 -1.1390  1.8653
  101MOL0     H13635   3.426  11.642   1.958 -1.8424 -2.1990  0.5664
  102MOL0     O13636   2.557   8.763   5.134  0.0806 -0.2212 -0.0403
  102MOL0     C13637   2.505   8.650   5.123  0.2495 -0.0900  0.4076
  102MOL0     O13638   2.381   8.613   5.157  0.7080 -0.6190 -0.0143
  102MOL0     C13639   2.274   8.698   5.171  0.1318  0.2021 -0.7343
  102MOL0     C13640   2.276   8.837   5.117  0.1602 -0.8625 -1.2529
  102MOL0     C13641   2.170   8.918   5.157  0.5583 -0.1217 -0.8295
  102MOL0     C13642   2.062   8.870   5.223 -0.9079 -0.2984  0.1486
  102MOL0     O13643   1.947   8.941   5.249  0.4034  1.5999 -0.7474
  102MOL0     C13644   1.953   9.086   5.244  0.4683  0.3572 -0.4576
  102MOL0     C13645   1.921   9.149   5.105  0.2211 -0.8547  0.8719
  102MOL0     C13646   1.973   9.292   5.109 -0.9637 -0.0027 -0.4911
  102MOL0     C13647   1.934   9.369   4.976 -0.6314  0.2817 -0.4956
  102MOL0     C13648   1.935   9.521   5.011  0.8069 -0.0961  0.0563
  102MOL0     C13649   1.906   9.600   4.879 -0.2627 -0.3179  0.1379
  102MOL0     C13650   1.918   9.744   4.900 -0.3897 -0.5133 -0.1359
  102MOL0     C13651   1.943   9.827   4.772 -0.2363  0.2478  0.9163
  102MOL0     N13652   1.884   9.957   4.801  0.1038 -0.0015  0.2208
  102MOL0     C13653   1.940  10.076   4.843 -0.3622 -0.4044 -0.2021
  102MOL0     C13654   1.835  10.152   4.878 -0.7856 -0.2840 -0.3782
  102MOL0     C13655   1.842  10.291   4.940  0.0899 -0.5866  0.0241
  102MOL0     C13656   1.925  10.393   4.862  0.5917 -0.1622  0.4683
  102MOL0     C13657   1.834  10.501   4.777 -0.1816 -0.3165  0.0500
  102MOL0     C13658   1.754  10.602   4.850  0.3512 -0.1307 -0.1082
  102MOL0     O13659   1.687  10.686   4.760 -0.3924  0.1528  0.0900
  102MOL0     C13660   1.560  10.727   4.782  0.5976 -0.6496 -0.3318
  102MOL0     C13661   1.476  10.768   4.684 -0.3363  0.0081  0.8510
  102MOL0     C13662   1.346  10.798   4.696 -0.5250  0.1102 -0.1441
  102MOL0     C13663   1.275  10.836   4.569 -0.3677  0.0096  0.6449
  102MOL0     C13664   1.289  10.809   4.821  0.1223 -0.2905  0.2355
  102MOL0     C13665   1.149  10.854   4.855  0.0920  0.0011  0.8360
  102MOL0     O13666   1.134  10.896   4.982 -0.8474  0.4193  1.0085
  102MOL0     C13667   1.024  10.917   5.044  0.6257 -0.3671 -0.4627
  102MOL0     C13668   0.891  10.894   5.002 -0.5163  0.4366  0.0685
  102MOL0     C13669   0.787  10.910   5.092  0.0891  0.1080 -0.2232
  102MOL0     C13670   0.812  10.959   5.221  1.0670 -0.2013 -0.5288
  102MOL0     O13671   0.696  10.976   5.296  0.2174 -0.3271 -1.2920
  102MOL0     C13672   0.616  11.089   5.265 -0.2561 -0.6746 -0.0505
  102MOL0     C13673   0.463  11.074   5.263  0.5505 -0.2545  0.0237
  102MOL0     C13674   0.402  11.016   5.396 -0.0748 -0.2640  0.4041
  102MOL0     C13675   0.421  11.112   5.517  0.1113  0.0962  0.3658
  102MOL0     C13676   0.363  11.043   5.639 -0.0551 -0.2429 -0.2105
  102MOL0     C13677   0.367  11.140   5.760 -0.4303 -0.5032 -0.1121
  102MOL0     C13678   0.361  11.081   5.904 -0.1425 -0.1323  0.6812
  102MOL0     C13679   0.334  11.185   6.004 -0.3919 -0.6592  0.5590
  102MOL0    Cl13680   0.426  11.335   5.972  0.1569  0.1564 -0.1323
  102MOL0     C13681   0.941  10.985   5.269  0.9152 -0.2497  0.3900
  102MOL0     C13682   1.040  10.967   5.175 -0.0863 -0.1838 -0.5179
  102MOL0     O13683   1.062  10.858   4.762 -0.8610 -0.2031  0.4317
  102MOL0     C13684   1.374  10.767   4.921  0.7949 -0.4075 -0.3313
  102MOL0     C13685   1.506  10.734   4.908 -0.4581  0.0443 -0.4180
  102MOL0     N13686   1.719  10.093   4.834  0.4889 -0.4696 -0.4062
  102MOL0     N13687   1.751   9.976   4.796  0.0201  0.0557 -0.1410
  102MOL0     C13688   2.056   8.735   5.263  0.3123 -0.1708 -0.4760
  102MOL0     C13689   2.163   8.651   5.239  0.7190  0.1383 -0.1742
  102MOL0     C13690   2.595   8.534   5.089 -0.0566  0.8902  0.2969
  102MOL0     C13691   2.719   8.562   5.038 -0.2210  0.1133  1.1948
  102MOL0     C13692   2.819   8.469   5.014 -0.5626  0.8866 -0.1539
  102MOL0     C13693   2.797   8.340   5.047  0.7329  0.5869  0.6048
  102MOL0     O13694   2.885   8.233   5.034  0.1594 -0.2470  0.2377
  102MOL0     C13695   3.025   8.260   5.019 -0.0138 -0.3458  0.2695
  102MOL0     C13696   3.054   8.224   4.875  0.0011  0.2684 -0.1009
  102MOL0     C13697   3.200   8.246   4.843  0.0240 -0.2677  0.3378
  102MOL0     C13698   3.210   8.223   4.699 -0.0276 -0.2083 -0.7599
  102MOL0     C13699   3.343   8.261   4.657  1.2547 -0.6857  0.0462
  102MOL0     C13700   3.458   8.288   4.623  0.1952  0.1081  0.3982
  102MOL0     C13701   2.668   8.307   5.110  0.0540  0.8910  0.2995
  102MOL0     C13702   2.575   8.406   5.130  1.0507  0.4709  0.1165
  102MOL0     H13703   2.354   8.887   5.060  0.2704  0.1906 -0.2036
  102MOL0     H13704   2.158   9.022   5.127 -1.9839 -0.9702 -3.2835
  102MOL0     H13705   1.880   9.126   5.315  2.1821  1.7936  0.6019
  102MOL0     H13706   2.053   9.118   5.277  1.5327 -1.4812 -1.6904
  102MOL0     H13707   1.974   9.091   5.028  0.4303  0.8007 -0.2920
  102MOL0     H13708   1.815   9.144   5.082  0.3145 -0.5965  0.3586
  102MOL0     H13709   1.923   9.334   5.197  0.2555  0.6104 -0.0624
  102MOL0     H13710   2.082   9.298   5.123 -1.0881 -0.6972  0.9643
  102MOL0     H13711   1.988   9.337   4.887 -1.3893  0.8094 -1.1623
  102MOL0     H13712   1.830   9.342   4.956 -0.2185 -0.4043 -1.7566
  102MOL0     H13713   1.849   9.545   5.074 -0.4590  2.1648 -2.3284
  102MOL0     H13714   2.033   9.547   5.054  1.3739 -0.3805 -1.0404
  102MOL0     H13715   1.977   9.567   4.803 -1.3443 -1.3089 -0.4806
  102MOL0     H13716   1.803   9.574   4.853  0.4062 -2.9885 -0.1220
  102MOL0     H13717   1.827   9.772   4.954 -0.3868 -0.4244 -0.1774
  102MOL0     H13718   2.003   9.760   4.968  0.1377 -0.7116 -0.7348
  102MOL0     H13719   1.888   9.775   4.692 -1.5288  0.2190  1.7941
  102MOL0     H13720   2.049   9.833   4.745 -0.4045 -1.8867 -0.5067
  102MOL0     H13721   2.047  10.095   4.848 -0.3640  0.8357 -2.9831
  102MOL0     H13722   1.739  10.329   4.938  0.5270  0.8234  1.9979
  102MOL0     H13723   1.875  10.286   5.044 -4.8099  1.1280  1.9568
  102MOL0     H13724   1.985  10.331   4.795 -2.1979 -0.7642 -1.6675
  102MOL0     H13725   1.981  10.447   4.939 -0.3278  0.5811  0.6364
  102MOL0     H13726   1.770  10.457   4.699  0.0852 -1.1534  0.2872
  102MOL0     H13727   1.903  10.560   4.715  1.8652 -2.2163  0.3901
  102MOL0     H13728   1.816  10.661   4.918 -1.0726  0.6181  0.5863
  102MOL0     H13729   1.686  10.536   4.905 -0.5252  0.3556 -0.5853
  102MOL0     H13730   1.516  10.765   4.583  0.1396 -3.2718  1.0267
  102MOL0     H13731   1.182  10.781   4.556 -0.2875 -0.3831  1.6285
  102MOL0     H13732   1.250  10.942   4.582  2.8791  0.9158  0.5173
  102MOL0     H13733   1.335  10.821   4.478 -1.7861 -0.9962 -0.1673
  102MOL0     H13734   0.862  10.862   4.902 -2.8750 -3.1937  1.6833
  102MOL0     H13735   0.683  10.894   5.066 -0.1378  1.5737 -0.2871
  102MOL0     H13736   0.638  11.166   5.339  2.2681 -0.8321 -0.5301
  102MOL0     H13737   0.657  11.143   5.179  0.6435  0.2131  0.9013
  102MOL0     H13738   0.401  11.163   5.255  0.6805 -0.1109  0.5592
  102MOL0     H13739   0.439  11.005   5.182 -2.9166  1.4711 -0.5956
  102MOL0     H13740   0.437  10.913   5.415 -3.1132 -1.3808  0.4389
  102MOL0     H13741   0.296  11.009   5.371 -0.4886  1.0836  1.6536
  102MOL0     H13742   0.522  11.148   5.534  0.8244 -2.0646  1.1354
  102MOL0     H13743   0.364  11.202   5.495 -1.1579 -1.3223 -2.8066
  102MOL0     H13744   0.410  10.952   5.678  4.1446  1.5247 -0.6293
  102MOL0     H13745   0.258  11.030   5.613 -1.2050  1.5694  3.0707
  102MOL0     H13746   0.463  11.192   5.751 -0.7665 -0.0763 -1.4228
  102MOL0     H13747   0.293  11.220   5.752 -0.2950 -0.4241 -0.6230
  102MOL0     H13748   0.459  11.033   5.910  0.5204  1.4064  3.6533
  102MOL0     H13749   0.284  11.003   5.906  2.5886 -3.1921 -1.9317
  102MOL0     H13750   0.371  11.140   6.096  3.3367 -1.2276 -1.0298
  102MOL0     H13751   0.229  11.214   6.000 -0.4058 -0.7749 -0.1741
  102MOL0     H13752   0.961  11.022   5.370  1.1320 -0.4111  0.4097
  102MOL0     H13753   1.135  10.999   5.217 -0.6708 -0.3139  0.9806
  102MOL0     H13754   1.340  10.774   5.024 -0.4606 -0.0187 -0.7647
  102MOL0     H13755   1.560  10.720   5.001 -0.3103 -2.0801 -0.7772
  102MOL0     H13756   1.972   8.693   5.317  1.9694 -0.2640  2.2562
  102MOL0     H13757   2.149   8.548   5.271 -1.2591  0.9167  1.7840
  102MOL0     H13758   2.754   8.661   5.012  2.0664 -0.5035  1.7243
  102MOL0     H13759   2.905   8.506   4.960 -0.6501  1.3414  0.0167
  102MOL0     H13760   3.056   8.362   5.043  0.5467 -0.5298  0.3377
  102MOL0     H13761   3.073   8.187   5.085 -1.1096  1.9359  3.8986
  102MOL0     H13762   2.998   8.296   4.813 -1.6650 -0.8641  0.0362
  102MOL0     H13763   3.033   8.120   4.851  0.0723  0.0108  0.9279
  102MOL0     H13764   3.264   8.182   4.904  0.9154  1.1394  0.9458
  102MOL0     H13765   3.239   8.348   4.852  0.6661 -0.4503 -0.2568
  102MOL0     H13766   3.137   8.285   4.646 -0.8021 -0.8668 -0.4867
  102MOL0     H13767   3.195   8.116   4.685 -4.8390 -0.3514  2.9944
  102MOL0     H13768   3.558   8.317   4.598 -0.1328 -0.7710 -2.2634
  102MOL0     H13769   2.650   8.202   5.132  3.8727 -0.9132 -3.5501
  102MOL0     H13770   2.482   8.378   5.179  1.7650 -0.6619  0.8809
  103MOL0     O13771  10.682   7.838   6.122 -0.7649 -0.3965 -0.4786
  103MOL0     C13772  10.687   7.741   6.196 -0.1860 -0.5773  0.6560
  103MOL0     O13773  10.775   7.722   6.295 -0.5911 -0.5600 -0.1015
  103MOL0     C13774  10.842   7.815   6.365 -0.0931 -0.4051  0.4459
  103MOL0     C13775  10.956   7.790   6.427  0.0543  0.4423  0.2556
  103MOL0     C13776  11.023   7.871   6.513 -0.3345  0.1649  0.1638
  103MOL0     C13777  10.951   7.985   6.556 -0.0117 -0.0630 -0.2073
  103MOL0     O13778  10.999   8.058   6.659 -0.1555  0.0356 -0.2045
  103MOL0     C13779  11.134   8.114   6.643 -0.0592  0.2634  1.4539
  103MOL0     C13780  11.175   8.232   6.740 -0.2073  0.1888  0.5332
  103MOL0     C13781  11.066   8.341   6.742 -1.0543 -1.2378 -0.2168
  103MOL0     C13782  11.071   8.409   6.601  0.1900 -0.6342  0.6299
  103MOL0     C13783  10.986   8.530   6.584  0.6470  0.6206  0.6064
  103MOL0     C13784  10.841   8.528   6.629  0.3436 -0.2874  0.7405
  103MOL0     C13785  10.760   8.413   6.564 -0.4986 -1.0261  0.0998
  103MOL0     C13786  10.636   8.360   6.642 -0.5137  0.1124 -1.0970
  103MOL0     N13787  10.537   8.464   6.670 -0.2060  0.4136 -0.3892
  103MOL0     C13788  10.476   8.544   6.579  0.1741  0.5133 -0.3241
  103MOL0     C13789  10.410   8.644   6.649  0.0845 -0.2190  0.6681
  103MOL0     C13790  10.343   8.774   6.598  0.1111 -0.4854  1.1814
  103MOL0     C13791  10.236   8.769   6.480 -0.3083  0.0713  0.4021
  103MOL0     C13792  10.119   8.669   6.492  0.2841  0.9196  0.1836
  103MOL0     C13793  10.016   8.695   6.600 -0.0532  1.0056 -1.3311
  103MOL0     O13794  10.083   8.682   6.723 -0.0269 -0.0065  0.3604
  103MOL0     C13795  10.023   8.678   6.838 -0.3141  0.1109  0.5649
  103MOL0     C13796  10.081   8.624   6.945 -0.5628  0.8017 -0.3309
  103MOL0     C13797  10.020   8.625   7.076  0.5370 -0.5809  0.2192
  103MOL0     C13798  10.103   8.558   7.176 -0.7666 -0.4140 -0.9885
  103MOL0     C13799   9.890   8.681   7.093 -0.3336  0.1006  0.0307
  103MOL0     C13800   9.812   8.680   7.222 -0.1090  0.4697  0.0155
  103MOL0     O13801   9.884   8.658   7.340 -0.0123 -0.1576 -0.2439
  103MOL0     C13802   9.820   8.699   7.451  0.2711 -0.4147  0.0842
  103MOL0     C13803   9.893   8.787   7.531 -0.8853  0.4872 -0.0159
  103MOL0     C13804   9.838   8.832   7.649  0.5560 -0.3413  0.0586
  103MOL0     C13805   9.717   8.789   7.697 -0.0526  0.0666  0.0263
  103MOL0     O13806   9.673   8.852   7.816  0.1835 -1.2715  0.0618
  103MOL0     C13807   9.540   8.816   7.858  0.0704  0.1336 -0.1778
  103MOL0     C13808   9.502   8.917   7.971 -0.1886  0.5192  0.3523
  103MOL0     C13809   9.368   8.882   8.042 -0.4136 -0.2172 -0.6432
  103MOL0     C13810   9.323   8.989   8.143  1.4494  1.5458  0.0102
  103MOL0     C13811   9.353   8.959   8.284 -0.1438  0.1519 -0.5625
  103MOL0     C13812   9.297   9.085   8.364  0.2192  0.0298 -0.7580
  103MOL0     C13813   9.354   9.096   8.509 -0.8029 -0.5468  0.7104
  103MOL0     C13814   9.302   9.214   8.582 -0.8126 -0.4232  0.4418
  103MOL0    Cl13815   9.318   9.216   8.769 -0.2664 -0.5209  0.1637
  103MOL0     C13816   9.649   8.701   7.620  0.1757  0.5259  0.1829
  103MOL0     C13817   9.701   8.652   7.500 -0.7770 -0.7889 -0.0349
  103MOL0     O13818   9.693   8.718   7.223  0.0474  0.1532  0.3812
  103MOL0     C13819   9.833   8.749   6.986  1.1330  0.0995 -0.0000
  103MOL0     C13820   9.895   8.742   6.859 -0.3267  0.7084 -0.4888
  103MOL0     N13821  10.426   8.613   6.782  0.1630 -0.7472  0.1412
  103MOL0     N13822  10.522   8.529   6.798 -1.2194  0.0525 -0.9566
  103MOL0     C13823  10.820   8.007   6.510  0.2577 -0.3412  0.1192
  103MOL0     C13824  10.761   7.927   6.406  0.5670 -0.0680 -0.1976
  103MOL0     C13825  10.634   7.620   6.131  0.4953  0.4968 -0.3408
  103MOL0     C13826  10.608   7.503   6.215 -0.0635  1.2653  1.0896
  103MOL0     C13827  10.555   7.391   6.149  0.3956  0.5893 -0.4879
  103MOL0     C13828  10.533   7.388   6.012 -0.3857 -0.4997  0.0328
  103MOL0     O13829  10.498   7.276   5.944  0.1375  0.0055 -0.3622
  103MOL0     C13830  10.384   7.197   5.996 -1.6961 -0.1380 -0.1375
  103MOL0     C13831  10.432   7.051   6.026 -0.1108  0.9543 -0.2884
  103MOL0     C13832  10.336   6.953   6.095  0.0081 -0.5493 -0.4077
  103MOL0     C13833  10.227   6.910   6.003  0.9035  1.0670  0.5576
  103MOL0     C13834  10.099   6.877   6.067  0.4706  0.2720  1.1350
  103MOL0     C13835   9.997   6.855   6.139  0.4750 -0.6992 -0.2797
  103MOL0     C13836  10.552   7.499   5.934  0.5003  0.0574  0.5243
  103MOL0     C13837  10.603   7.613   5.992 -0.8268 -0.5707  0.1763
  103MOL0     H13838  11.009   7.697   6.406  0.5365  0.0801  2.8149
  103MOL0     H13839  11.121   7.856   6.557 -1.2894  0.4300  2.5263
  103MOL0     H13840  11.204   8.032   6.664  1.6704  1.1629 -0.4898
  103MOL0     H13841  11.155   8.152   6.543  2.5013  0.6722  2.0821
  103MOL0     H13842  11.193   8.192   6.840 -1.7674  0.1612  0.8313
  103MOL0     H13843  11.273   8.264   6.702 -0.1435 -0.6010  0.0175
  103MOL0     H13844  10.969   8.295   6.760 -0.9505 -0.9611  1.1543
  103MOL0     H13845  11.087   8.408   6.826  3.5555 -2.2254 -0.3162
  103MOL0     H13846  11.175   8.438   6.586 -0.0817 -0.7225 -1.9517
  103MOL0     H13847  11.047   8.344   6.516  0.6609  0.7056 -0.5719
  103MOL0     H13848  11.046   8.612   6.625  1.8225  0.3697 -0.5609
  103MOL0     H13849  10.989   8.551   6.477  0.7481 -1.3695  0.1788
  103MOL0     H13850  10.851   8.511   6.737  1.5629 -1.7120  0.4408
  103MOL0     H13851  10.794   8.627   6.621 -2.8150 -1.6642  0.9535
  103MOL0     H13852  10.720   8.454   6.471  3.7413 -0.5386 -1.7822
  103MOL0     H13853  10.821   8.324   6.544  0.2794 -0.2758 -1.0304
  103MOL0     H13854  10.669   8.302   6.728 -2.2673  2.2486  1.1558
  103MOL0     H13855  10.579   8.288   6.581 -1.0347 -0.6031  0.1874
  103MOL0     H13856  10.482   8.528   6.472  3.9551  0.7328 -0.2628
  103MOL0     H13857  10.295   8.819   6.685 -2.5841  2.4717 -1.5657
  103MOL0     H13858  10.423   8.842   6.567 -0.2583 -0.7160 -0.3379
  103MOL0     H13859  10.282   8.732   6.388  1.5374  1.0321  0.8750
  103MOL0     H13860  10.202   8.871   6.458  2.7889  1.1413  0.0785
  103MOL0     H13861  10.171   8.574   6.507  0.7531  1.4284  2.0841
  103MOL0     H13862  10.070   8.673   6.394  1.6320 -4.6223 -1.0827
  103MOL0     H13863   9.931   8.628   6.585  0.7126 -0.0773 -0.8771
  103MOL0     H13864   9.984   8.799   6.584  3.7063  1.9915 -3.6846
  103MOL0     H13865  10.183   8.586   6.937 -0.6690  0.6073 -0.8116
  103MOL0     H13866  10.138   8.627   7.253 -3.5232  1.2265 -1.0383
  103MOL0     H13867  10.040   8.482   7.222  0.5691 -1.5929 -1.0699
  103MOL0     H13868  10.183   8.504   7.126 -0.2423 -0.0388 -0.5712
  103MOL0     H13869   9.982   8.842   7.504 -0.4861  1.4525  2.8790
  103MOL0     H13870   9.888   8.915   7.699  1.7637 -2.3246  2.3698
  103MOL0     H13871   9.467   8.826   7.778  1.8828  3.2386 -1.6440
  103MOL0     H13872   9.536   8.711   7.885  0.1678 -0.6457 -2.8623
  103MOL0     H13873   9.578   8.926   8.049  1.5182  1.0597 -1.2986
  103MOL0     H13874   9.495   9.013   7.919  3.4208  0.3851 -0.6729
  103MOL0     H13875   9.369   8.787   8.095 -1.0564 -0.4762 -1.0791
  103MOL0     H13876   9.289   8.888   7.966 -1.2269  1.7072  0.3018
  103MOL0     H13877   9.377   9.080   8.119  1.1846  1.6925 -0.0317
  103MOL0     H13878   9.215   9.006   8.131  0.6308 -2.5086 -0.0351
  103MOL0     H13879   9.462   8.957   8.295 -0.2962  0.6535  1.3388
  103MOL0     H13880   9.314   8.863   8.320 -0.2759 -1.0791 -3.6445
  103MOL0     H13881   9.319   9.177   8.310  3.4086 -1.3065 -2.0410
  103MOL0     H13882   9.189   9.085   8.377  0.1803  0.2642 -1.0765
  103MOL0     H13883   9.462   9.111   8.499 -1.0976  0.4711 -1.4594
  103MOL0     H13884   9.331   9.003   8.562  0.2058 -1.4859 -0.4283
  103MOL0     H13885   9.199   9.221   8.545  0.3117 -1.5144 -3.3066
  103MOL0     H13886   9.343   9.310   8.550 -2.0298 -0.1180 -0.2544
  103MOL0     H13887   9.554   8.652   7.639  0.0374  0.4229 -0.7448
  103MOL0     H13888   9.633   8.589   7.443  2.1359 -0.4629 -4.2897
  103MOL0     H13889   9.738   8.801   6.995 -0.4719 -2.9762  3.2747
  103MOL0     H13890   9.848   8.808   6.787 -1.1128 -1.0722 -1.6696
  103MOL0     H13891  10.767   8.090   6.555  0.5783  0.2726 -0.6131
  103MOL0     H13892  10.659   7.941   6.370 -1.2867 -2.6712  3.4421
  103MOL0     H13893  10.634   7.495   6.321  0.0876 -0.9573  0.9356
  103MOL0     H13894  10.542   7.314   6.225  2.2763 -0.1552 -0.8596
  103MOL0     H13895  10.346   7.227   6.094 -0.4468 -0.8104  0.5856
  103MOL0     H13896  10.302   7.204   5.924 -1.9976 -0.7948  0.1300
  103MOL0     H13897  10.529   7.047   6.075  0.5125 -4.0862 -1.3760
  103MOL0     H13898  10.449   7.004   5.928 -1.1969  0.7550 -0.3950
  103MOL0     H13899  10.293   7.001   6.183  0.6951 -3.5545  1.7101
  103MOL0     H13900  10.381   6.861   6.134 -1.6359 -0.7781  1.0878
  103MOL0     H13901  10.258   6.832   5.933  1.2629  1.7949 -0.1228
  103MOL0     H13902  10.207   7.002   5.947  2.2783  0.5494 -0.8581
  103MOL0     H13903   9.899   6.860   6.182 -0.3947 -1.6013 -2.0925
  103MOL0     H13904  10.528   7.491   5.829  0.4061 -1.2825  0.6335
  103MOL0     H13905  10.635   7.698   5.933  2.6530 -0.6263  1.7436
  104MOL0     O13906   6.819   3.405   0.164  0.7785 -0.0482  0.2211
  104MOL0     C13907   6.786   3.458   0.263 -0.5695  0.6679 -0.0791
  104MOL0     O13908   6.670   3.430   0.327 -0.5621 -0.8751 -0.3893
  104MOL0     C13909   6.578   3.340   0.281 -0.3228 -0.5550 -1.3560
  104MOL0     C13910   6.495   3.298   0.387 -0.0556  0.3336 -0.5726
  104MOL0     C13911   6.390   3.203   0.363  0.5775 -0.2762  1.0328
  104MOL0     C13912   6.357   3.162   0.229 -0.1664  0.2527 -0.8243
  104MOL0     O13913   6.261   3.069   0.189  0.0903  0.7712  0.2518
  104MOL0     C13914   6.160   3.030   0.278  0.3895 -0.5677  0.3271
  104MOL0     C13915   6.054   2.929   0.216 -0.9409  0.0481 -0.1317
  104MOL0     C13916   5.952   2.889   0.330  0.2722 -0.7588  0.2224
  104MOL0     C13917   5.893   3.014   0.388 -0.0900  0.4541  0.3425
  104MOL0     C13918   5.786   2.988   0.496  0.2370 -0.1854 -0.0141
  104MOL0     C13919   5.659   2.925   0.440 -0.8733  0.4691  0.4391
  104MOL0     C13920   5.562   2.891   0.557  0.3808 -1.1996 -0.3106
  104MOL0     C13921   5.608   2.790   0.661  0.0456 -0.0668  0.1388
  104MOL0     N13922   5.647   2.662   0.604 -0.6808  0.4395  1.0203
  104MOL0     C13923   5.596   2.539   0.644 -0.0242  0.6898  0.1893
  104MOL0     C13924   5.688   2.446   0.600  0.2566 -0.3494 -0.3863
  104MOL0     C13925   5.683   2.301   0.633  0.4629  0.5685  0.2996
  104MOL0     C13926   5.639   2.203   0.520  0.4230 -0.2443  0.0911
  104MOL0     C13927   5.659   2.054   0.540  0.3470 -0.3954 -0.7287
  104MOL0     C13928   5.601   1.992   0.662  0.4378 -0.4573 -0.3384
  104MOL0     O13929   5.469   2.033   0.681  0.8903 -0.3369  0.7586
  104MOL0     C13930   5.364   1.992   0.603 -0.6217  0.4784  0.2849
  104MOL0     C13931   5.379   1.913   0.487  0.5428 -0.5084 -0.7745
  104MOL0     C13932   5.273   1.887   0.405 -0.3799 -0.0877  0.0109
  104MOL0     C13933   5.298   1.777   0.304 -0.3842  0.7529  0.3563
  104MOL0     C13934   5.145   1.935   0.422 -0.2838  0.3373 -0.5670
  104MOL0     C13935   5.021   1.898   0.349 -0.0277  0.0852 -0.2409
  104MOL0     O13936   4.968   1.773   0.368 -0.3758 -0.2854 -0.0095
  104MOL0     C13937   4.832   1.742   0.337 -0.7551 -0.0364 -0.2635
  104MOL0     C13938   4.769   1.785   0.217 -0.5265  0.9433  0.6018
  104MOL0     C13939   4.633   1.741   0.194 -0.5742 -0.6202 -0.2103
  104MOL0     C13940   4.558   1.656   0.273 -0.0765 -0.4307 -0.6275
  104MOL0     O13941   4.433   1.622   0.242 -0.3018  1.0076 -0.7033
  104MOL0     C13942   4.336   1.690   0.155  1.2567 -0.9077 -0.3614
  104MOL0     C13943   4.265   1.593   0.052 -0.7946 -0.1984 -0.8654
  104MOL0     C13944   4.195   1.462   0.108  1.2100 -0.1596  0.1117
  104MOL0     C13945   4.119   1.380  -0.003  0.5624  0.4139  0.1319
  104MOL0     C13946   4.054   1.258   0.059  0.3180  0.5215  0.4796
  104MOL0     C13947   3.951   1.188  -0.036  0.1707  0.2301  0.5747
  104MOL0     C13948   4.017   1.114  -0.158 -0.3271 -0.4715  1.0820
  104MOL0     C13949   4.000   0.956  -0.155  1.2241 -0.3042  0.3731
  104MOL0    Cl13950   4.128   0.875  -0.066  0.4276  0.0210 -0.2010
  104MOL0     C13951   4.622   1.605   0.382  0.2342  0.2354  0.6849
  104MOL0     C13952   4.759   1.644   0.414 -0.0694 -0.8853  0.5234
  104MOL0     O13953   4.968   1.989   0.287 -0.6885  0.2777 -0.4737
  104MOL0     C13954   5.132   2.027   0.527 -0.3634 -0.1546 -0.0011
  104MOL0     C13955   5.235   2.049   0.614 -0.3902  0.5869  0.4029
  104MOL0     N13956   5.791   2.514   0.535  1.1262  0.3653 -0.0930
  104MOL0     N13957   5.769   2.638   0.540  0.8577  0.4670  0.1917
  104MOL0     C13958   6.437   3.214   0.133 -0.5677  0.1955 -0.5739
  104MOL0     C13959   6.552   3.295   0.157 -0.3281  0.0517 -0.1611
  104MOL0     C13960   6.865   3.577   0.303 -0.0953  0.6327 -0.0065
  104MOL0     C13961   6.807   3.685   0.365 -0.3193 -0.2815 -0.9010
  104MOL0     C13962   6.875   3.786   0.431 -0.1286  0.0798 -0.1371
  104MOL0     C13963   7.015   3.777   0.430 -0.6173 -0.0182  0.5126
  104MOL0     O13964   7.096   3.871   0.499  0.7123  0.0764 -0.2135
  104MOL0     C13965   7.226   3.832   0.557  0.0521 -0.4408 -0.1531
  104MOL0     C13966   7.265   3.902   0.686  0.4312 -0.6476 -0.8569
  104MOL0     C13967   7.157   3.909   0.783 -0.2701  1.0416 -0.5756
  104MOL0     C13968   7.066   4.033   0.773  0.6075  0.5644 -0.3084
  104MOL0     C13969   6.946   4.029   0.858  1.0279 -0.3969  0.4544
  104MOL0     C13970   6.858   4.022   0.934 -0.1199  1.0916  0.2035
  104MOL0     C13971   7.078   3.667   0.370 -0.3633 -0.1741 -0.1234
  104MOL0     C13972   7.005   3.568   0.309 -0.4297  1.4123  0.0466
  104MOL0     H13973   6.512   3.336   0.487  0.5907 -0.3118 -0.4336
  104MOL0     H13974   6.324   3.164   0.440 -1.4243 -0.1918 -0.5758
  104MOL0     H13975   6.200   3.003   0.376  0.0020 -2.4790  0.0035
  104MOL0     H13976   6.112   3.126   0.296 -1.8189 -1.4638 -0.3500
  104MOL0     H13977   5.997   2.971   0.132  0.8024  0.0063 -1.3730
  104MOL0     H13978   6.107   2.841   0.180  3.4969  2.7845 -1.0271
  104MOL0     H13979   5.870   2.840   0.277  0.0178 -1.7381  1.4704
  104MOL0     H13980   5.985   2.816   0.404  1.6214 -0.3583  0.0447
  104MOL0     H13981   5.969   3.074   0.439  0.0578  0.3669  0.2246
  104MOL0     H13982   5.841   3.076   0.314 -1.4860  1.3036  1.9551
  104MOL0     H13983   5.818   2.913   0.569 -3.9462 -0.3083  1.9693
  104MOL0     H13984   5.754   3.083   0.540 -2.7041 -0.3446 -1.5857
  104MOL0     H13985   5.613   3.006   0.383 -1.0477  0.2601  0.2794
  104MOL0     H13986   5.672   2.832   0.385 -0.8101 -0.1973  1.5378
  104MOL0     H13987   5.542   2.986   0.609  0.1423 -0.1105 -2.3065
  104MOL0     H13988   5.464   2.863   0.519  0.9189  0.7324 -3.4103
  104MOL0     H13989   5.523   2.765   0.725 -0.2863 -0.8930 -0.5986
  104MOL0     H13990   5.681   2.840   0.725 -2.1927 -0.5584  3.3033
  104MOL0     H13991   5.504   2.514   0.696 -0.6007 -1.4348 -1.6662
  104MOL0     H13992   5.785   2.272   0.661 -0.9315 -4.6729  1.0210
  104MOL0     H13993   5.622   2.274   0.719  0.1218 -0.5053 -0.2673
  104MOL0     H13994   5.685   2.232   0.425  0.0174 -0.1558 -0.0800
  104MOL0     H13995   5.537   2.239   0.507  1.5101  2.2326 -3.3207
  104MOL0     H13996   5.767   2.041   0.551  1.0528  5.1017  2.4993
  104MOL0     H13997   5.630   1.998   0.450 -1.1311 -0.2022 -0.4115
  104MOL0     H13998   5.659   2.020   0.750 -0.2105 -0.0430 -0.0418
  104MOL0     H13999   5.610   1.883   0.658 -1.5056 -0.7151  1.2527
  104MOL0     H14000   5.466   1.849   0.474 -0.7337 -2.5589  0.1822
  104MOL0     H14001   5.249   1.689   0.345  0.9091 -1.1534 -1.9371
  104MOL0     H14002   5.264   1.805   0.204  3.6099  3.8594 -0.3911
  104MOL0     H14003   5.403   1.751   0.289 -0.0235  0.9283  2.3146
  104MOL0     H14004   4.822   1.852   0.150  0.2487 -1.3202 -1.1476
  104MOL0     H14005   4.588   1.770   0.099  1.3832  0.4026 -0.8773
  104MOL0     H14006   4.254   1.721   0.220  1.1302 -2.9302  0.5461
  104MOL0     H14007   4.378   1.779   0.109  1.2185 -0.0816  1.1494
  104MOL0     H14008   4.185   1.656   0.012 -1.1124  0.1874  0.3456
  104MOL0     H14009   4.337   1.572  -0.028  0.6040  0.9088  0.0613
  104MOL0     H14010   4.123   1.491   0.185  0.2067 -1.8866 -0.1120
  104MOL0     H14011   4.268   1.395   0.154  1.9065  0.1320 -0.5418
  104MOL0     H14012   4.037   1.434  -0.051  1.0249  0.2597 -0.8451
  104MOL0     H14013   4.193   1.345  -0.075 -0.3860 -1.9466  0.1981
  104MOL0     H14014   4.001   1.289   0.150  1.9180  0.0816  1.6201
  104MOL0     H14015   4.132   1.183   0.077  1.7265  1.1040 -2.5811
  104MOL0     H14016   3.912   1.111   0.032  2.3564 -1.4911 -0.0048
  104MOL0     H14017   3.867   1.252  -0.066 -2.6809 -3.3309  0.1136
  104MOL0     H14018   4.126   1.128  -0.152 -0.0190 -2.1279  0.0105
  104MOL0     H14019   3.967   1.150  -0.249 -0.1359 -0.3202  1.0368
  104MOL0     H14020   4.000   0.908  -0.254 -1.4660 -0.5724  0.4347
  104MOL0     H14021   3.903   0.931  -0.112  0.6344  0.4030 -0.5104
  104MOL0     H14022   4.564   1.546   0.453 -0.4019 -1.4792 -1.1725
  104MOL0     H14023   4.789   1.612   0.513  2.8147  1.9285  0.7192
  104MOL0     H14024   5.037   2.077   0.545 -1.7261 -2.6892  0.4696
  104MOL0     H14025   5.215   2.103   0.706 -0.3423  1.7022 -0.2198
  104MOL0     H14026   6.411   3.168   0.038  0.8590 -1.6310 -0.1424
  104MOL0     H14027   6.616   3.318   0.073 -1.0875 -1.1558 -1.0918
  104MOL0     H14028   6.699   3.688   0.367 -0.2906  1.2067 -0.0511
  104MOL0     H14029   6.832   3.870   0.485 -0.6577  1.0179 -1.9465
  104MOL0     H14030   7.221   3.726   0.581 -1.1356 -0.7789 -1.7410
  104MOL0     H14031   7.311   3.848   0.489  0.2300 -0.4989  0.0530
  104MOL0     H14032   7.306   3.997   0.650  2.3748  0.1839  3.0105
  104MOL0     H14033   7.353   3.852   0.727  2.1282  1.4177 -1.7450
  104MOL0     H14034   7.205   3.896   0.881 -1.0057  0.4912 -0.2799
  104MOL0     H14035   7.102   3.814   0.776  1.7661 -0.6356  3.1302
  104MOL0     H14036   7.027   4.038   0.670  2.6089  1.8925 -1.0542
  104MOL0     H14037   7.115   4.128   0.794  0.6569  1.5393 -4.1025
  104MOL0     H14038   6.774   4.035   1.000 -0.2165  1.4954  0.0039
  104MOL0     H14039   7.186   3.651   0.368 -0.7737 -5.8090  2.1835
  104MOL0     H14040   7.058   3.480   0.272  1.0974  1.7534  1.3232
  105MOL0     O14041   8.536  10.461   8.580  0.7678  0.2255 -0.1427
  105MOL0     C14042   8.613  10.512   8.662 -1.0328  0.8585  0.7664
  105MOL0     O14043   8.592  10.628   8.734 -0.4527 -0.2464  0.3001
  105MOL0     C14044   8.454  10.650   8.751  0.1641  1.0143  1.5433
  105MOL0     C14045   8.383  10.595   8.867 -0.1134 -0.5467  0.6341
  105MOL0     C14046   8.247  10.631   8.878 -0.3965 -0.0890 -0.2400
  105MOL0     C14047   8.177  10.704   8.784  0.2850  0.2292  0.5414
  105MOL0     O14048   8.047  10.757   8.792  0.1569  1.2079  0.3363
  105MOL0     C14049   7.956  10.735   8.901  0.1212 -0.1533 -0.2912
  105MOL0     C14050   7.985  10.835   9.013  0.1482 -0.5709  0.1386
  105MOL0     C14051   7.913  10.801   9.136  0.1269 -0.5633 -0.3689
  105MOL0     C14052   7.768  10.850   9.125 -0.3805  0.5747  0.2080
  105MOL0     C14053   7.694  10.839   9.258 -0.2389 -0.4575  0.0286
  105MOL0     C14054   7.625  10.699   9.272 -0.0530  0.3269 -0.5201
  105MOL0     C14055   7.539  10.682   9.392  0.2995  1.2855 -0.4956
  105MOL0     C14056   7.401  10.757   9.376 -0.0280 -0.8247 -0.4639
  105MOL0     N14057   7.317  10.690   9.274 -0.6918  0.2101  0.0279
  105MOL0     C14058   7.206  10.751   9.231 -0.3868  0.6755 -0.0195
  105MOL0     C14059   7.133  10.650   9.168 -0.3383  0.0294  0.5340
  105MOL0     C14060   7.008  10.678   9.094  0.3472  0.3177  0.2488
  105MOL0     C14061   6.999  10.612   8.954 -0.0414  0.2621  0.9476
  105MOL0     C14062   6.877  10.670   8.871  0.0824 -0.1347  0.1093
  105MOL0     C14063   6.852  10.618   8.729  0.0249 -0.7290  0.5747
  105MOL0     O14064   6.763  10.712   8.672  0.0861 -1.1784  0.9937
  105MOL0     C14065   6.710  10.693   8.544 -1.0824 -0.7132 -0.6026
  105MOL0     C14066   6.762  10.605   8.454 -0.6044  0.1232 -0.6727
  105MOL0     C14067   6.704  10.585   8.323  0.3429 -0.0333  0.7600
  105MOL0     C14068   6.763  10.475   8.230 -0.2979  0.8845 -0.7903
  105MOL0     C14069   6.603  10.677   8.280  0.2419 -0.5538 -0.1128
  105MOL0     C14070   6.535  10.673   8.144 -0.7362 -0.3201 -0.0040
  105MOL0     O14071   6.464  10.783   8.113 -0.7772  1.1552 -0.9760
  105MOL0     C14072   6.394  10.773   7.996  0.5186  0.4739 -0.3952
  105MOL0     C14073   6.447  10.834   7.876  0.4569 -0.3162 -0.1325
  105MOL0     C14074   6.355  10.869   7.779  0.2491  0.3386 -0.8249
  105MOL0     C14075   6.228  10.818   7.776  0.4096  0.6104 -1.2112
  105MOL0     O14076   6.173  10.848   7.661  0.4723 -0.0013  0.2077
  105MOL0     C14077   6.035  10.809   7.642  0.7895 -0.1716 -0.0901
  105MOL0     C14078   6.016  10.655   7.618  0.2702  0.3774  0.8983
  105MOL0     C14079   5.865  10.619   7.598 -0.1281  0.6253  0.2381
  105MOL0     C14080   5.863  10.471   7.562  0.7421  0.2557  0.5226
  105MOL0     C14081   5.734  10.424   7.492  0.6706 -0.3968 -1.1711
  105MOL0     C14082   5.733  10.270   7.477  0.3163  0.2111  1.3799
  105MOL0     C14083   5.600  10.199   7.430  0.8130 -0.5890 -0.7759
  105MOL0     C14084   5.557  10.231   7.289  0.3441  1.4363  0.2178
  105MOL0    Cl14085   5.465  10.387   7.270 -0.0253 -0.0395  0.0298
  105MOL0     C14086   6.173  10.758   7.897 -0.0171 -0.2482  0.4255
  105MOL0     C14087   6.258  10.747   8.008  0.2525 -0.5319 -0.1326
  105MOL0     O14088   6.537  10.567   8.078  0.5505 -0.9272  0.3414
  105MOL0     C14089   6.561  10.781   8.371  0.3541 -0.8809  0.4924
  105MOL0     C14090   6.617  10.789   8.499 -0.2001 -0.3189  0.2208
  105MOL0     N14091   7.210  10.529   9.170  0.3403  0.1181  0.3309
  105MOL0     N14092   7.318  10.557   9.236  0.1312  0.6902 -0.8985
  105MOL0     C14093   8.244  10.749   8.672 -1.1410 -0.5651 -0.3748
  105MOL0     C14094   8.380  10.725   8.660 -0.4587  0.7322 -0.0954
  105MOL0     C14095   8.746  10.439   8.694 -0.0067 -0.4329 -1.1473
  105MOL0     C14096   8.790  10.333   8.618  0.0596 -0.2067  0.0736
  105MOL0     C14097   8.903  10.258   8.651 -0.6544 -0.3787  0.2658
  105MOL0     C14098   8.989  10.289   8.758 -0.4345 -0.1133 -0.2713
  105MOL0     O14099   9.097  10.208   8.786  0.2148  0.0817 -0.0027
  105MOL0     C14100   9.178  10.155   8.679 -0.6883  0.2544  0.4347
  105MOL0     C14101   9.214  10.269   8.581  0.0840  0.1566 -0.5175
  105MOL0     C14102   9.302  10.220   8.470 -1.1289 -0.0299  0.6887
  105MOL0     C14103   9.358  10.339   8.385  0.3269  0.1535  0.0873
  105MOL0     C14104   9.441  10.427   8.475 -0.2547 -1.5092 -0.1814
  105MOL0     C14105   9.500  10.497   8.557 -0.5651  1.2830 -0.6727
  105MOL0     C14106   8.937  10.393   8.849 -0.4896 -0.3458  0.0787
  105MOL0     C14107   8.827  10.471   8.811  0.6880 -0.6349  0.4392
  105MOL0     H14108   8.426  10.533   8.945 -0.8356 -1.5682  0.2500
  105MOL0     H14109   8.196  10.606   8.970 -0.3485 -1.9257 -0.6621
  105MOL0     H14110   7.858  10.754   8.858 -1.1839  0.6110  2.7491
  105MOL0     H14111   7.955  10.632   8.940 -1.4204 -0.2929 -0.6378
  105MOL0     H14112   8.093  10.830   9.032  0.4936 -1.1173 -1.7503
  105MOL0     H14113   7.958  10.933   8.973 -0.4591 -0.4539  0.8162
  105MOL0     H14114   7.918  10.694   9.158  1.8836 -0.1166  1.6521
  105MOL0     H14115   7.961  10.861   9.214 -0.3796  0.7904 -1.0597
  105MOL0     H14116   7.761  10.954   9.093 -2.9643 -0.0089 -1.4465
  105MOL0     H14117   7.720  10.796   9.042  1.2121  1.5869 -1.4515
  105MOL0     H14118   7.756  10.857   9.347  0.9400 -0.1453 -0.8194
  105MOL0     H14119   7.623  10.921   9.251  1.2381  0.8104 -0.8074
  105MOL0     H14120   7.569  10.683   9.179  1.0081  3.1344 -1.7565
  105MOL0     H14121   7.707  10.627   9.276  0.2489  0.7273  2.2823
  105MOL0     H14122   7.517  10.575   9.395  2.3898  0.8354  0.9113
  105MOL0     H14123   7.580  10.702   9.491 -1.8105  0.8042  0.5322
  105MOL0     H14124   7.427  10.861   9.358  2.6221 -0.6136  3.2911
  105MOL0     H14125   7.344  10.750   9.469 -2.0199  1.5749 -1.3992
  105MOL0     H14126   7.183  10.856   9.245  0.0317  0.5386  2.0357
  105MOL0     H14127   6.930  10.636   9.158 -2.7500  2.5347 -1.7814
  105MOL0     H14128   6.988  10.785   9.083 -0.1176  0.2044 -0.0229
  105MOL0     H14129   6.992  10.504   8.968 -0.0001 -1.3284 -6.8752
  105MOL0     H14130   7.088  10.638   8.895 -1.1076 -0.3932 -1.0304
  105MOL0     H14131   6.884  10.779   8.867 -1.2593 -0.0319  0.0723
  105MOL0     H14132   6.788  10.644   8.929 -0.4020  0.5550 -0.3102
  105MOL0     H14133   6.810  10.517   8.731 -2.4655  0.1648 -0.7701
  105MOL0     H14134   6.946  10.628   8.674 -1.0297 -0.4177 -1.2474
  105MOL0     H14135   6.841  10.541   8.490 -2.1976 -1.9206 -0.5910
  105MOL0     H14136   6.860  10.458   8.278 -1.0763  0.7614  0.8119
  105MOL0     H14137   6.702  10.384   8.228 -2.7488  2.1525  3.4498
  105MOL0     H14138   6.785  10.505   8.127 -0.1789  0.8730 -0.7683
  105MOL0     H14139   6.553  10.856   7.873  1.6313 -4.9811 -0.4652
  105MOL0     H14140   6.382  10.921   7.687 -2.3114  0.4673 -1.5815
  105MOL0     H14141   5.971  10.833   7.728 -1.7930 -1.7304 -1.4211
  105MOL0     H14142   5.987  10.852   7.554 -2.2168 -4.3178 -0.8268
  105MOL0     H14143   6.086  10.611   7.547  2.6251  1.0195  2.7140
  105MOL0     H14144   6.028  10.623   7.722 -0.1833 -2.1544  0.2509
  105MOL0     H14145   5.823  10.673   7.513 -3.1520 -0.1228  1.1284
  105MOL0     H14146   5.804  10.630   7.688 -3.0521 -0.3408 -1.4691
  105MOL0     H14147   5.947  10.442   7.499  0.7243 -0.2479  0.7204
  105MOL0     H14148   5.870  10.408   7.652  1.0452 -0.2065  0.1796
  105MOL0     H14149   5.707  10.473   7.398 -0.8716 -3.2708 -2.3522
  105MOL0     H14150   5.652  10.449   7.560  2.9911  2.5410  0.8832
  105MOL0     H14151   5.801  10.238   7.399 -0.3293  0.1577  0.8269
  105MOL0     H14152   5.757  10.225   7.574 -0.7979 -1.7390  0.8045
  105MOL0     H14153   5.514  10.215   7.495  1.6281 -3.3872  1.2077
  105MOL0     H14154   5.613  10.090   7.436  0.7639 -0.5344  0.6120
  105MOL0     H14155   5.497  10.142   7.269 -0.5435  1.0359  3.8694
  105MOL0     H14156   5.643  10.234   7.222  1.2827 -1.4706  1.1351
  105MOL0     H14157   6.068  10.730   7.905  0.1987 -1.6186 -1.0216
  105MOL0     H14158   6.210  10.722   8.102  1.0629 -2.6612 -0.2281
  105MOL0     H14159   6.499  10.862   8.337  1.3697  0.8996  2.6380
  105MOL0     H14160   6.587  10.866   8.569  1.3544 -1.6182  2.4390
  105MOL0     H14161   8.202  10.821   8.602 -1.0278  0.6652  0.7803
  105MOL0     H14162   8.430  10.766   8.573 -1.7686  1.5068 -0.5121
  105MOL0     H14163   8.734  10.304   8.529 -1.8218  0.9619  0.8186
  105MOL0     H14164   8.916  10.171   8.587 -2.5891 -1.4524  1.2357
  105MOL0     H14165   9.267  10.095   8.702 -1.8683 -2.2509 -1.0782
  105MOL0     H14166   9.117  10.087   8.619 -1.7108  2.4078 -1.0853
  105MOL0     H14167   9.266  10.349   8.634  2.6013  0.4114 -3.1487
  105MOL0     H14168   9.130  10.308   8.522 -1.0704  0.0073  0.9793
  105MOL0     H14169   9.246  10.162   8.397  3.0215 -1.0181 -2.0270
  105MOL0     H14170   9.376  10.151   8.512 -0.2650  0.4809  0.0381
  105MOL0     H14171   9.284  10.390   8.323  1.5231 -1.6059 -3.0680
  105MOL0     H14172   9.425  10.297   8.308  0.9952 -0.7228  1.1239
  105MOL0     H14173   9.524  10.564   8.637 -1.9182  2.1019 -0.9326
  105MOL0     H14174   8.983  10.418   8.944  1.6697  1.4026 -1.3285
  105MOL0     H14175   8.795  10.557   8.869 -2.4797 -0.9265 -0.6568
  106MOL0     O14176   2.945   7.029  10.710  0.2724 -0.2306  0.0086
  106MOL0     C14177   2.994   7.042  10.819  0.1330 -1.0036 -0.9362
  106MOL0     O14178   3.018   6.938  10.914  0.2003 -0.1469 -0.1130
  106MOL0     C14179   2.925   6.836  10.920  0.6565  0.1631  0.2622
  106MOL0     C14180   2.790   6.840  10.887 -0.6933 -0.4929  0.0335
  106MOL0     C14181   2.706   6.728  10.897 -0.7429 -0.1280  0.1314
  106MOL0     C14182   2.748   6.608  10.950  0.2370  0.3457 -0.1811
  106MOL0     O14183   2.672   6.494  10.982 -0.2790 -0.0824  0.6311
  106MOL0     C14184   2.538   6.510  11.043  0.2762  0.0709 -0.4085
  106MOL0     C14185   2.497   6.404  11.147  0.4663  0.5828  0.8382
  106MOL0     C14186   2.355   6.356  11.126  1.2090  1.1460 -0.8943
  106MOL0     C14187   2.249   6.466  11.159 -0.1545 -0.1251  0.0845
  106MOL0     C14188   2.106   6.419  11.134 -0.4272 -0.4305  0.9831
  106MOL0     C14189   2.085   6.363  10.994 -1.0646 -0.6989 -0.1009
  106MOL0     C14190   2.120   6.461  10.885  0.2215  0.0291  0.4640
  106MOL0     C14191   2.028   6.436  10.762 -1.1257 -0.4160 -0.2913
  106MOL0     N14192   2.051   6.525  10.645 -0.1817  0.3141 -0.6130
  106MOL0     C14193   2.064   6.480  10.515  0.0028 -0.0505  0.4939
  106MOL0     C14194   2.095   6.592  10.445  0.5593 -0.3847  0.3014
  106MOL0     C14195   2.113   6.595  10.301  1.1452  0.4576 -0.0489
  106MOL0     C14196   2.256   6.555  10.273  0.5041 -0.5864 -0.1894
  106MOL0     C14197   2.276   6.402  10.283  0.6100  0.5386 -0.3964
  106MOL0     C14198   2.425   6.367  10.260 -0.4710 -0.3032 -0.6750
  106MOL0     O14199   2.474   6.397  10.120  0.4564  0.1877 -0.5247
  106MOL0     C14200   2.599   6.377  10.080  0.2948  0.4809 -0.8615
  106MOL0     C14201   2.618   6.385   9.939 -0.6339 -0.0055 -0.4122
  106MOL0     C14202   2.744   6.362   9.892 -0.5016  0.1966 -0.0869
  106MOL0     C14203   2.762   6.351   9.741  0.4513  0.4220  0.2113
  106MOL0     C14204   2.860   6.344   9.981  0.1730  1.5637 -1.0426
  106MOL0     C14205   2.996   6.301   9.941 -0.4432 -0.3172  0.0607
  106MOL0     O14206   3.025   6.330   9.812  0.8273 -0.9595 -0.1303
  106MOL0     C14207   3.156   6.311   9.782  0.4222  0.0832  1.1081
  106MOL0     C14208   3.193   6.179   9.746 -0.1853 -0.0520  0.1980
  106MOL0     C14209   3.328   6.141   9.726  0.1370  0.0211 -0.6838
  106MOL0     C14210   3.428   6.240   9.697 -0.4026  0.4894 -0.4946
  106MOL0     O14211   3.558   6.199   9.665  0.6323 -0.0179  0.2187
  106MOL0     C14212   3.574   6.083   9.584  0.6474  0.7024 -0.3891
  106MOL0     C14213   3.695   6.090   9.493  1.2725 -0.1439  0.4670
  106MOL0     C14214   3.703   6.217   9.406  0.0692  0.6019 -0.0352
  106MOL0     C14215   3.835   6.235   9.327  0.8458  0.1126  0.8459
  106MOL0     C14216   3.849   6.151   9.202  0.2057  0.3754  0.1390
  106MOL0     C14217   3.994   6.158   9.147  0.6313  0.8950  0.1634
  106MOL0     C14218   4.046   6.284   9.075  0.3314 -0.0010  0.5725
  106MOL0     C14219   4.174   6.264   8.985 -0.2905  0.0212  0.0290
  106MOL0    Cl14220   4.148   6.142   8.858 -0.1350 -0.5680 -0.0414
  106MOL0     C14221   3.384   6.373   9.708  0.0450 -0.0432  0.7940
  106MOL0     C14222   3.245   6.409   9.740  0.4845 -0.3631  0.5880
  106MOL0     O14223   3.082   6.263  10.025  0.1796 -0.2507 -0.2271
  106MOL0     C14224   2.830   6.349  10.119 -0.6191 -0.1192  0.0297
  106MOL0     C14225   2.702   6.375  10.165 -0.2129 -0.4005  1.1805
  106MOL0     N14226   2.118   6.695  10.542  0.2928 -0.2244  0.0563
  106MOL0     N14227   2.087   6.657  10.654  0.3325  0.2863  0.5177
  106MOL0     C14228   2.885   6.605  10.986 -0.0857  0.2522  0.5303
  106MOL0     C14229   2.970   6.714  10.966  0.7948 -0.7608  0.3672
  106MOL0     C14230   3.034   7.181  10.853 -0.6068 -0.0938  0.0965
  106MOL0     C14231   3.000   7.296  10.777 -1.0847 -1.2285 -0.4042
  106MOL0     C14232   3.039   7.425  10.813  0.0011  0.2653 -0.1948
  106MOL0     C14233   3.121   7.445  10.930 -1.0354  0.2555 -0.4374
  106MOL0     O14234   3.155   7.573  10.975 -0.6237  0.6483 -0.4646
  106MOL0     C14235   3.122   7.687  10.897 -0.1889 -0.2927 -0.0673
  106MOL0     C14236   3.152   7.814  10.979  0.2547  0.3720  0.3916
  106MOL0     C14237   3.299   7.814  11.027  0.4619  0.1568  0.4724
  106MOL0     C14238   3.324   7.775  11.169  0.1591  0.8675 -0.8119
  106MOL0     C14239   3.312   7.887  11.263 -0.7662 -0.5855  0.1131
  106MOL0     C14240   3.301   7.983  11.341  0.0677  1.0154  0.6290
  106MOL0     C14241   3.155   7.332  11.004  0.6922  0.0393 -0.2757
  106MOL0     C14242   3.110   7.200  10.974 -0.2001 -0.7255  1.1297
  106MOL0     H14243   2.751   6.935  10.852  0.9092  0.2296  0.0821
  106MOL0     H14244   2.602   6.753  10.877  0.1003  6.4096  1.8119
  106MOL0     H14245   2.543   6.604  11.099  0.2867  1.0049 -1.9271
  106MOL0     H14246   2.461   6.535  10.969 -0.1954  0.7563  0.2938
  106MOL0     H14247   2.556   6.313  11.137 -0.6406 -0.3278  2.1618
  106MOL0     H14248   2.511   6.435  11.251 -0.9784  0.4746  1.0902
  106MOL0     H14249   2.345   6.315  11.025  0.9738 -0.5281 -0.2179
  106MOL0     H14250   2.342   6.269  11.191  0.1151  1.0661 -1.2097
  106MOL0     H14251   2.268   6.513  11.256  0.5830 -2.3047  1.0673
  106MOL0     H14252   2.261   6.545  11.085 -0.5725 -1.0639 -1.0198
  106MOL0     H14253   2.075   6.343  11.205 -1.9335 -2.0675 -1.2803
  106MOL0     H14254   2.036   6.502  11.151  0.8276  1.0848 -0.7344
  106MOL0     H14255   2.131   6.264  10.988 -0.9838 -0.6918  0.3701
  106MOL0     H14256   1.977   6.344  10.991 -1.7839  2.8720 -0.6805
  106MOL0     H14257   2.110   6.567  10.911  3.9984  0.6052  0.0956
  106MOL0     H14258   2.221   6.447  10.845 -0.2962 -2.0650 -0.2814
  106MOL0     H14259   1.935   6.449  10.816  0.5725 -0.2390  2.8026
  106MOL0     H14260   2.018   6.331  10.736 -0.5106 -1.3292  2.8060
  106MOL0     H14261   2.044   6.381  10.475  0.6876 -0.2621  0.6620
  106MOL0     H14262   2.044   6.523  10.255  1.0484  0.3878  0.2063
  106MOL0     H14263   2.094   6.695  10.261  1.3498 -0.0297 -1.4375
  106MOL0     H14264   2.316   6.611  10.345 -0.8766  1.0353 -0.2596
  106MOL0     H14265   2.294   6.591  10.177  0.6474 -0.1083  0.0452
  106MOL0     H14266   2.205   6.364  10.208 -0.0986 -3.2633  1.9632
  106MOL0     H14267   2.246   6.368  10.382  2.0821 -0.2342 -0.1832
  106MOL0     H14268   2.421   6.258  10.274 -2.1048 -0.4882 -2.2322
  106MOL0     H14269   2.488   6.407  10.339 -1.2063 -1.8606  0.7524
  106MOL0     H14270   2.525   6.407   9.887 -1.4099 -1.2332  0.3945
  106MOL0     H14271   2.663   6.348   9.695  0.5163 -1.3381  0.1227
  106MOL0     H14272   2.810   6.442   9.706 -0.6661  2.1367  2.8069
  106MOL0     H14273   2.802   6.252   9.715 -1.3746  0.3191 -2.5681
  106MOL0     H14274   3.120   6.099   9.748 -1.5835  1.1152 -1.1591
  106MOL0     H14275   3.365   6.039   9.729 -1.4978 -0.5756  0.0817
  106MOL0     H14276   3.582   5.999   9.653  0.3472  0.5407 -0.5527
  106MOL0     H14277   3.488   6.060   9.521  0.1036 -1.6158  1.1106
  106MOL0     H14278   3.778   6.082   9.564  0.9046 -0.3591  0.8820
  106MOL0     H14279   3.699   6.000   9.432  0.1423 -0.0803  0.2733
  106MOL0     H14280   3.695   6.301   9.476 -0.3706  1.6176 -1.2599
  106MOL0     H14281   3.623   6.216   9.332  1.6759 -2.8727 -1.9730
  106MOL0     H14282   3.852   6.339   9.298 -0.1364 -0.4532 -2.2153
  106MOL0     H14283   3.910   6.212   9.403  1.2115 -0.0465  0.4400
  106MOL0     H14284   3.765   6.182   9.140 -1.7730 -2.5241  1.1884
  106MOL0     H14285   3.828   6.046   9.227 -3.5887  0.6513 -1.2756
  106MOL0     H14286   4.050   6.128   9.237 -1.1075  1.1728  1.3981
  106MOL0     H14287   3.995   6.081   9.070  0.1698 -0.6333  1.6088
  106MOL0     H14288   4.048   6.366   9.148 -0.9433  0.9795 -0.4433
  106MOL0     H14289   3.963   6.310   9.009 -1.7192 -1.2689  2.5194
  106MOL0     H14290   4.254   6.228   9.050 -0.7552  2.0067  1.8184
  106MOL0     H14291   4.202   6.361   8.942 -0.4585  0.2806  0.4971
  106MOL0     H14292   3.444   6.450   9.660 -0.6511 -1.0201 -1.8337
  106MOL0     H14293   3.208   6.512   9.736  0.2732 -0.4822 -1.8919
  106MOL0     H14294   2.909   6.335  10.191  0.3405  0.4570 -0.8891
  106MOL0     H14295   2.681   6.365  10.271 -0.8675  1.0643  1.2039
  106MOL0     H14296   2.927   6.516  11.032 -1.7024 -1.3385 -0.9304
  106MOL0     H14297   3.076   6.696  10.982  1.0602 -0.1670 -0.6288
  106MOL0     H14298   2.943   7.284  10.685 -0.6211 -1.3153 -0.6839
  106MOL0     H14299   2.996   7.512  10.763 -0.8731  0.0793  0.2158
  106MOL0     H14300   3.185   7.688  10.807  0.3707  1.1162  0.3226
  106MOL0     H14301   3.015   7.695  10.872 -0.4840 -2.5040  0.2501
  106MOL0     H14302   3.087   7.826  11.066  0.9046 -0.3454  0.9965
  106MOL0     H14303   3.128   7.899  10.914  0.0088  0.2165  0.2784
  106MOL0     H14304   3.339   7.915  11.021  4.1397 -1.1635  0.0361
  106MOL0     H14305   3.369   7.755  10.968  0.2784  0.5853 -0.1846
  106MOL0     H14306   3.428   7.740  11.176  0.7707  2.3172 -1.9818
  106MOL0     H14307   3.260   7.692  11.199 -0.9431  1.3021 -1.8812
  106MOL0     H14308   3.273   8.073  11.392 -2.9184  0.6579 -0.1882
  106MOL0     H14309   3.213   7.344  11.095  2.2767 -1.0255 -1.0852
  106MOL0     H14310   3.146   7.127  11.046  0.3722 -0.7344  0.8404
  107MOL0     O14311   1.960   6.795   7.015 -0.3685  0.6198 -0.1570
  107MOL0     C14312   2.026   6.856   7.101 -0.0480 -0.2975 -0.4189
  107MOL0     O14313   1.981   6.927   7.203  0.8560  0.3139  0.0436
  107MOL0     C14314   1.851   6.971   7.186  0.5516 -0.0897  0.2474
  107MOL0     C14315   1.745   6.886   7.200 -0.5891  0.5877 -0.0517
  107MOL0     C14316   1.609   6.927   7.187 -0.3836  0.2220 -0.2206
  107MOL0     C14317   1.583   7.059   7.153  0.9550 -0.8666 -0.1161
  107MOL0     O14318   1.450   7.088   7.138 -0.0349 -0.3769  0.5132
  107MOL0     C14319   1.403   7.228   7.148  0.0350  0.1754  0.1277
  107MOL0     C14320   1.417   7.284   7.005  0.5473  0.3452  1.0082
  107MOL0     C14321   1.341   7.423   7.007  0.2826  0.6088  0.4193
  107MOL0     C14322   1.343   7.487   6.874  0.7089  0.1437  0.6470
  107MOL0     C14323   1.257   7.618   6.881 -1.0942 -0.0350 -0.3438
  107MOL0     C14324   1.244   7.684   6.744  0.3312 -0.3666  0.2224
  107MOL0     C14325   1.170   7.814   6.744 -0.6755  0.2882 -0.4884
  107MOL0     C14326   1.128   7.842   6.597  0.4659  0.4945  0.1019
  107MOL0     N14327   1.253   7.875   6.528 -0.9439  0.6945 -0.1028
  107MOL0     C14328   1.342   7.973   6.562 -0.5526 -0.0443  1.0141
  107MOL0     C14329   1.442   7.962   6.467  0.4494  0.3133 -0.0583
  107MOL0     C14330   1.556   8.048   6.460  0.4173  0.2301  0.6199
  107MOL0     C14331   1.577   8.105   6.327 -0.4626  0.3891  0.2447
  107MOL0     C14332   1.491   8.230   6.301 -0.1756  0.0179 -0.0281
  107MOL0     C14333   1.337   8.193   6.292 -0.2690  0.0538 -0.0310
  107MOL0     O14334   1.276   8.290   6.214  0.1043  0.0908 -0.2450
  107MOL0     C14335   1.149   8.272   6.172  0.1939  0.6863 -0.1706
  107MOL0     C14336   1.080   8.389   6.120  1.2091 -0.1519 -0.1099
  107MOL0     C14337   0.948   8.373   6.066 -0.0183 -0.0913  0.9220
  107MOL0     C14338   0.883   8.495   6.014  0.8577  0.2420  0.1525
  107MOL0     C14339   0.878   8.242   6.067 -0.5555 -0.3825 -0.0418
  107MOL0     C14340   0.732   8.235   6.010 -1.4393 -0.8000 -0.4545
  107MOL0     O14341   0.644   8.341   6.031  0.2008 -0.0285  0.0374
  107MOL0     C14342   0.511   8.311   5.984  0.0143 -0.4941 -0.1595
  107MOL0     C14343   0.490   8.352   5.854  0.6120  1.3098  0.4733
  107MOL0     C14344   0.372   8.325   5.793  0.9455  0.0053 -0.2517
  107MOL0     C14345   0.263   8.272   5.875 -0.4513  0.7763  0.3163
  107MOL0     O14346   0.135   8.258   5.831 -0.6447 -0.0655  0.4237
  107MOL0     C14347   0.103   8.350   5.719  0.4742  0.3392 -0.0482
  107MOL0     C14348  -0.050   8.340   5.718  0.3122 -0.2585 -1.0062
  107MOL0     C14349  -0.115   8.388   5.595  0.4608 -0.9132 -0.0631
  107MOL0     C14350  -0.107   8.538   5.579  0.3824  0.2789  0.2936
  107MOL0     C14351  -0.132   8.587   5.428 -1.1226  0.4982  0.9343
  107MOL0     C14352  -0.284   8.615   5.414 -1.2419  0.0576  0.3355
  107MOL0     C14353  -0.295   8.687   5.279 -0.3469 -0.0876 -0.3371
  107MOL0     C14354  -0.434   8.668   5.221  0.2880  0.0556  0.5085
  107MOL0    Cl14355  -0.443   8.751   5.067  0.2391 -0.3440  0.1178
  107MOL0     C14356   0.287   8.236   6.008  0.1489  0.2413  0.1058
  107MOL0     C14357   0.404   8.264   6.062  0.0932  0.1514  0.0394
  107MOL0     O14358   0.696   8.129   5.958  0.2650  0.1345  0.5730
  107MOL0     C14359   0.957   8.135   6.106  0.2216  0.2644  0.3493
  107MOL0     C14360   1.085   8.149   6.162 -0.7805  0.2483  0.2082
  107MOL0     N14361   1.394   7.864   6.377 -0.8609  0.1159  0.0047
  107MOL0     N14362   1.282   7.814   6.416 -0.0821  0.0670 -0.2338
  107MOL0     C14363   1.687   7.146   7.140 -0.4605 -0.8828 -0.4524
  107MOL0     C14364   1.820   7.105   7.159  0.4837 -0.4664 -0.4718
  107MOL0     C14365   2.173   6.830   7.104 -0.1166  0.5921 -0.6180
  107MOL0     C14366   2.246   6.731   7.028  0.5387 -0.3499 -0.5221
  107MOL0     C14367   2.381   6.702   7.054 -0.1725 -0.3255 -0.1014
  107MOL0     C14368   2.452   6.772   7.155  0.4388  0.0571  0.1880
  107MOL0     O14369   2.585   6.732   7.174  0.0517 -0.0856  0.3676
  107MOL0     C14370   2.679   6.798   7.270 -0.3190 -0.0946  0.2562
  107MOL0     C14371   2.805   6.859   7.205  0.7145  0.8302  0.5339
  107MOL0     C14372   2.789   7.002   7.164 -0.1355 -0.7996  0.4773
  107MOL0     C14373   2.689   7.021   7.048  0.0275 -0.4118  0.5524
  107MOL0     C14374   2.727   7.126   6.963  0.3061  0.1773 -0.6560
  107MOL0     C14375   2.749   7.227   6.906  0.7120 -0.3536  0.1065
  107MOL0     C14376   2.382   6.876   7.217 -0.4051 -0.5130  0.0136
  107MOL0     C14377   2.247   6.908   7.191  0.5412  0.0883  1.0096
  107MOL0     H14378   1.767   6.781   7.218 -0.7054  0.8055  1.5384
  107MOL0     H14379   1.523   6.861   7.190 -1.6775  1.7947  3.7414
  107MOL0     H14380   1.295   7.219   7.167  0.2216 -4.0492  0.2146
  107MOL0     H14381   1.455   7.297   7.215 -1.2291 -0.2268  1.5795
  107MOL0     H14382   1.516   7.301   6.962  0.1142 -3.1700 -1.8533
  107MOL0     H14383   1.382   7.210   6.933  0.4214  1.6285 -0.2899
  107MOL0     H14384   1.238   7.407   7.042  0.3356 -2.0153 -0.3605
  107MOL0     H14385   1.380   7.492   7.082  0.2671 -1.2010  2.1773
  107MOL0     H14386   1.446   7.516   6.850  0.2837  1.4271  0.2907
  107MOL0     H14387   1.304   7.417   6.800 -1.4001 -0.2278  2.0358
  107MOL0     H14388   1.154   7.593   6.907 -1.1815 -0.3779 -0.9820
  107MOL0     H14389   1.303   7.691   6.948  1.9444 -2.0415 -0.0396
  107MOL0     H14390   1.339   7.700   6.694 -1.9795  1.4458 -4.1443
  107MOL0     H14391   1.189   7.612   6.683  0.6121 -0.8067  0.4876
  107MOL0     H14392   1.074   7.813   6.797 -0.6948  1.2754 -0.4862
  107MOL0     H14393   1.230   7.890   6.794 -1.1987  1.0735 -1.0226
  107MOL0     H14394   1.057   7.925   6.596 -1.7152 -1.2819 -1.1195
  107MOL0     H14395   1.071   7.755   6.563 -1.7485  1.9986 -0.1863
  107MOL0     H14396   1.351   8.045   6.643 -4.3100  0.3618  1.2537
  107MOL0     H14397   1.546   8.131   6.531 -0.1325  0.6392  0.0717
  107MOL0     H14398   1.643   7.989   6.491  1.1000 -0.5057 -2.3533
  107MOL0     H14399   1.565   8.029   6.250 -3.9775 -0.5502  1.5229
  107MOL0     H14400   1.677   8.147   6.309 -1.1825  1.8241 -0.5733
  107MOL0     H14401   1.515   8.262   6.199 -3.9571  5.2831  0.3260
  107MOL0     H14402   1.516   8.304   6.377 -0.6293 -1.0439  1.1838
  107MOL0     H14403   1.291   8.182   6.391 -0.3157 -1.4231 -0.2049
  107MOL0     H14404   1.326   8.097   6.241 -0.1826  1.0008 -1.9340
  107MOL0     H14405   1.129   8.486   6.132 -0.9626  1.0680 -0.5569
  107MOL0     H14406   0.802   8.525   6.081  0.1700 -0.2167 -0.4522
  107MOL0     H14407   0.952   8.577   5.993  1.3206 -0.8833 -3.4466
  107MOL0     H14408   0.842   8.472   5.915  1.5881 -0.5892  0.0383
  107MOL0     H14409   0.574   8.381   5.792 -1.6275  1.1656 -2.9120
  107MOL0     H14410   0.361   8.345   5.687  3.4122 -2.5200 -1.0894
  107MOL0     H14411   0.125   8.456   5.738 -1.5127  1.3509 -2.7988
  107MOL0     H14412   0.144   8.309   5.627  0.8507 -1.0723  0.7188
  107MOL0     H14413  -0.076   8.235   5.732 -0.7468  0.0348 -0.7085
  107MOL0     H14414  -0.090   8.396   5.803 -1.0136 -1.4466 -0.8134
  107MOL0     H14415  -0.220   8.356   5.588  1.1350 -3.2740 -0.3991
  107MOL0     H14416  -0.061   8.358   5.504  1.5076  4.1193 -1.4326
  107MOL0     H14417  -0.177   8.583   5.650  0.2986  2.8190 -1.2407
  107MOL0     H14418  -0.012   8.582   5.612 -0.4992  0.6280  2.5096
  107MOL0     H14419  -0.088   8.524   5.350 -0.6297  0.2696  1.3884
  107MOL0     H14420  -0.092   8.688   5.412 -3.6756  1.1378 -2.3680
  107MOL0     H14421  -0.333   8.517   5.425  2.5646 -1.8252  2.9347
  107MOL0     H14422  -0.327   8.674   5.494 -1.1800  0.0288  0.3914
  107MOL0     H14423  -0.227   8.651   5.201  0.5765 -0.4022  0.5882
  107MOL0     H14424  -0.252   8.787   5.296  1.9137 -1.6055  4.7647
  107MOL0     H14425  -0.511   8.709   5.288 -0.2165  0.8940 -0.5609
  107MOL0     H14426  -0.462   8.564   5.198 -0.2035  0.9924 -3.9326
  107MOL0     H14427   0.206   8.209   6.075  0.1052  0.2440  0.0540
  107MOL0     H14428   0.400   8.252   6.170  0.6240 -1.5965 -0.0994
  107MOL0     H14429   0.913   8.037   6.092  2.1861 -0.4543 -1.0670
  107MOL0     H14430   1.136   8.059   6.195 -0.5014  1.3048  2.8973
  107MOL0     H14431   1.675   7.252   7.119  0.5081 -0.9073 -1.2109
  107MOL0     H14432   1.910   7.166   7.155  0.8202 -0.8713  0.5994
  107MOL0     H14433   2.192   6.659   6.969  1.1237 -0.6994 -0.6446
  107MOL0     H14434   2.424   6.622   6.994  1.2296  0.2023  0.1642
  107MOL0     H14435   2.623   6.876   7.323  0.6269  1.3263 -0.7625
  107MOL0     H14436   2.714   6.724   7.342  0.9591  1.2069  1.0186
  107MOL0     H14437   2.826   6.792   7.122 -3.2119 -1.6522  1.2926
  107MOL0     H14438   2.888   6.868   7.276  0.8456 -1.3978  0.7103
  107MOL0     H14439   2.892   7.028   7.139 -0.6820  0.9713 -0.0981
  107MOL0     H14440   2.757   7.062   7.250 -0.4617  0.7833 -0.7082
  107MOL0     H14441   2.590   7.041   7.091  0.4783  0.2803  1.3033
  107MOL0     H14442   2.688   6.934   6.982 -2.6148  0.9162 -1.3161
  107MOL0     H14443   2.785   7.318   6.861  3.9767  0.9913  4.6913
  107MOL0     H14444   2.443   6.935   7.286  0.7734 -1.3834 -0.2484
  107MOL0     H14445   2.189   6.983   7.245 -0.5057  1.2558 -1.6025
  108MOL0     O14446   2.696   6.754   6.047  0.3789  0.2719 -0.0873
  108MOL0     C14447   2.711   6.706   6.156  0.8706 -0.7360 -0.1085
  108MOL0     O14448   2.659   6.591   6.205  0.0778 -0.5190 -1.1074
  108MOL0     C14449   2.579   6.500   6.138 -1.2457 -0.5439 -0.1787
  108MOL0     C14450   2.481   6.546   6.039 -0.2024  0.7761 -0.6323
  108MOL0     C14451   2.399   6.449   5.967 -0.6456  0.1387  0.0779
  108MOL0     C14452   2.428   6.317   5.999  0.1851 -0.3334  0.5688
  108MOL0     O14453   2.349   6.225   5.936 -0.2496  0.1499  0.1927
  108MOL0     C14454   2.323   6.094   5.987  0.1945  0.2116  0.0996
  108MOL0     C14455   2.195   6.043   5.931  0.5681  0.2060  0.5647
  108MOL0     C14456   2.188   5.892   5.958  0.5302  0.1292  0.2446
  108MOL0     C14457   2.048   5.837   5.922  0.2060 -1.4081 -0.0077
  108MOL0     C14458   1.957   5.851   6.039 -0.8575  0.2475  0.7801
  108MOL0     C14459   1.824   5.784   6.019  0.6703 -0.4248  0.3513
  108MOL0     C14460   1.826   5.632   6.045  0.3165  0.1614 -0.1615
  108MOL0     C14461   1.696   5.555   6.002 -0.6805 -0.0411 -0.0738
  108MOL0     N14462   1.578   5.607   6.071  0.7838  0.0264  0.6016
  108MOL0     C14463   1.513   5.542   6.171  0.1450 -0.0169  0.2660
  108MOL0     C14464   1.386   5.584   6.181 -0.2838  0.2234 -0.7087
  108MOL0     C14465   1.283   5.516   6.272  0.9044 -0.3755  0.0420
  108MOL0     C14466   1.243   5.586   6.406 -0.1431  0.6630 -0.0048
  108MOL0     C14467   1.147   5.493   6.485  0.0837  0.1406  0.9248
  108MOL0     C14468   1.134   5.550   6.625 -0.7091  0.6910 -0.3952
  108MOL0     O14469   1.017   5.492   6.676 -0.1691 -0.7252 -0.1036
  108MOL0     C14470   1.003   5.465   6.810 -0.3865 -1.0424  0.7538
  108MOL0     C14471   0.908   5.372   6.854  0.5510  0.1347  0.1508
  108MOL0     C14472   0.901   5.334   6.992  0.2678  0.1242  0.1852
  108MOL0     C14473   0.832   5.213   7.022 -0.0464  0.4493 -0.1216
  108MOL0     C14474   0.970   5.415   7.079 -0.5826  0.1841  0.1822
  108MOL0     C14475   0.971   5.390   7.220  0.1043  0.5045 -0.7252
  108MOL0     O14476   1.094   5.390   7.275  0.0920  0.2081  0.2147
  108MOL0     C14477   1.096   5.393   7.414 -0.1160  1.1191  0.9835
  108MOL0     C14478   1.173   5.487   7.483  0.6924 -0.8194  0.1186
  108MOL0     C14479   1.182   5.485   7.625  0.1030 -0.1069  0.3635
  108MOL0     C14480   1.126   5.387   7.699  0.0221  0.4854  0.3545
  108MOL0     O14481   1.149   5.397   7.827  0.0989  0.2798  0.2220
  108MOL0     C14482   1.043   5.349   7.920 -0.3048  0.2238  0.1148
  108MOL0     C14483   0.916   5.443   7.911  0.4070 -0.4453  0.2089
  108MOL0     C14484   0.816   5.399   8.022  0.1435 -0.6381 -0.2659
  108MOL0     C14485   0.721   5.295   7.958  0.1140 -0.3259 -0.1980
  108MOL0     C14486   0.622   5.244   8.064  0.2259  0.7137  0.1992
  108MOL0     C14487   0.526   5.146   7.978 -1.0227 -0.1852 -0.2468
  108MOL0     C14488   0.444   5.055   8.065  0.8127  0.7885 -0.6124
  108MOL0     C14489   0.391   4.937   7.978  0.0416  0.1096  0.0078
  108MOL0    Cl14490   0.278   4.844   8.070  0.4670 -0.2845 -0.2957
  108MOL0     C14491   1.045   5.289   7.636  0.6141  1.1850  0.7672
  108MOL0     C14492   1.030   5.288   7.494 -0.1964 -0.2976 -0.3865
  108MOL0     O14493   0.868   5.395   7.277 -0.3168 -0.4432  0.5009
  108MOL0     C14494   1.058   5.511   7.040 -0.6953 -0.0460  0.0412
  108MOL0     C14495   1.080   5.537   6.905 -0.6939  0.3775 -0.0945
  108MOL0     N14496   1.363   5.663   6.075 -0.9414 -1.1094 -0.7587
  108MOL0     N14497   1.472   5.670   6.006 -0.5392 -0.2239  0.6186
  108MOL0     C14498   2.524   6.277   6.094 -0.3966  0.1428  0.9697
  108MOL0     C14499   2.592   6.369   6.170 -0.0093  0.6632  0.2929
  108MOL0     C14500   2.824   6.763   6.229  1.0828  0.6569  0.3719
  108MOL0     C14501   2.905   6.861   6.173  0.2365  0.1789  0.0928
  108MOL0     C14502   2.991   6.933   6.251  0.5784 -0.3438 -0.3531
  108MOL0     C14503   3.004   6.905   6.386 -0.1526 -0.2235 -0.1152
  108MOL0     O14504   3.083   6.995   6.453  0.2624 -0.2944 -0.4133
  108MOL0     C14505   3.148   6.951   6.574  0.1856  0.6640  0.6292
  108MOL0     C14506   3.103   7.025   6.697 -0.2006  0.1579  1.1783
  108MOL0     C14507   3.153   7.171   6.701  1.1804 -0.3682  0.3842
  108MOL0     C14508   3.138   7.247   6.572 -0.3576 -0.2222  0.0417
  108MOL0     C14509   3.254   7.235   6.475 -0.2093  0.2374  0.9213
  108MOL0     C14510   3.339   7.224   6.393  0.6989 -0.7130 -0.5218
  108MOL0     C14511   2.929   6.800   6.445  0.4446 -0.9062 -0.1805
  108MOL0     C14512   2.848   6.725   6.362 -0.2834  0.8016  0.1930
  108MOL0     H14513   2.466   6.653   6.035 -3.0706  0.5662  1.0003
  108MOL0     H14514   2.322   6.462   5.892 -1.4396  2.3130  1.1643
  108MOL0     H14515   2.408   6.029   5.963 -1.8189 -2.1132 -1.2181
  108MOL0     H14516   2.311   6.094   6.095 -0.7362 -1.4037  0.0345
  108MOL0     H14517   2.108   6.087   5.980 -0.7497 -0.8087 -0.8029
  108MOL0     H14518   2.204   6.063   5.824  0.8979  0.9534  0.7241
  108MOL0     H14519   2.274   5.849   5.906  0.4802 -2.0910  1.8203
  108MOL0     H14520   2.209   5.871   6.064 -1.2221  1.8601  0.9914
  108MOL0     H14521   2.005   5.902   5.845 -1.4339  1.0528  2.7692
  108MOL0     H14522   2.059   5.738   5.878  1.4749  0.6045 -4.8405
  108MOL0     H14523   2.009   5.810   6.126 -0.4984  1.9309  1.4064
  108MOL0     H14524   1.948   5.958   6.062 -1.2564  0.5638 -0.7779
  108MOL0     H14525   1.751   5.829   6.087  0.6578 -2.3937  1.7202
  108MOL0     H14526   1.793   5.790   5.914  2.0598  1.7299  0.0122
  108MOL0     H14527   1.907   5.586   5.986 -1.8086  1.5957 -4.7001
  108MOL0     H14528   1.851   5.617   6.150  0.3738  0.2618 -0.1606
  108MOL0     H14529   1.713   5.448   6.018  0.6553  0.1903  0.1925
  108MOL0     H14530   1.688   5.566   5.893  2.0017  1.1328 -0.2249
  108MOL0     H14531   1.559   5.464   6.232 -0.3219  1.5030  2.7144
  108MOL0     H14532   1.192   5.517   6.211 -0.6035  0.1506  2.1973
  108MOL0     H14533   1.308   5.410   6.280 -2.1213 -1.5529 -3.4241
  108MOL0     H14534   1.216   5.689   6.380  2.9335  1.5434 -0.1047
  108MOL0     H14535   1.333   5.601   6.467 -0.5762  1.6027  0.4231
  108MOL0     H14536   1.184   5.390   6.483  2.2718  0.7818 -2.8128
  108MOL0     H14537   1.047   5.498   6.441  0.0264 -0.3964  0.9920
  108MOL0     H14538   1.122   5.658   6.626 -2.1826  0.6580  4.1746
  108MOL0     H14539   1.220   5.511   6.680 -1.6801  1.2745  1.6174
  108MOL0     H14540   0.868   5.311   6.773  1.6622  2.4031 -2.2557
  108MOL0     H14541   0.900   5.130   6.998 -2.4834 -0.9241 -2.8681
  108MOL0     H14542   0.788   5.215   7.122 -0.1419 -0.8611 -0.1198
  108MOL0     H14543   0.745   5.201   6.957 -0.1882  3.3527 -0.6100
  108MOL0     H14544   1.219   5.567   7.425 -1.4813  0.1822 -0.2927
  108MOL0     H14545   1.238   5.563   7.676  1.3573  0.2210 -1.4601
  108MOL0     H14546   1.016   5.245   7.901 -1.7028  0.1779  2.0616
  108MOL0     H14547   1.081   5.350   8.023 -0.4923 -0.9483  0.2137
  108MOL0     H14548   0.943   5.544   7.944 -3.6227  0.2210  2.1129
  108MOL0     H14549   0.873   5.450   7.811  1.6371  0.1942 -0.2987
  108MOL0     H14550   0.754   5.478   8.065  0.0549  0.3826 -2.1525
  108MOL0     H14551   0.875   5.366   8.107  3.4194  5.2575  0.2456
  108MOL0     H14552   0.676   5.344   7.871  0.2309  2.1660  1.0497
  108MOL0     H14553   0.786   5.214   7.924 -0.8114 -0.4766 -1.6904
  108MOL0     H14554   0.561   5.326   8.104 -4.3366  0.8514 -5.7711
  108MOL0     H14555   0.670   5.172   8.131  1.8697 -2.5934 -4.0369
  108MOL0     H14556   0.469   5.206   7.907 -0.2022  1.6716  0.5836
  108MOL0     H14557   0.583   5.086   7.907  0.1348  0.3973  0.1643
  108MOL0     H14558   0.370   5.107   8.127  0.3092 -1.9205  1.2218
  108MOL0     H14559   0.497   5.007   8.148 -3.3382 -1.7647  0.8969
  108MOL0     H14560   0.473   4.874   7.940  1.2113  2.9235 -2.5666
  108MOL0     H14561   0.342   4.972   7.887 -2.7199 -2.4806  0.3627
  108MOL0     H14562   1.001   5.208   7.694 -1.7913  0.6270 -1.6600
  108MOL0     H14563   0.974   5.200   7.465 -1.7226 -0.2334  2.1115
  108MOL0     H14564   1.104   5.582   7.109 -1.4883 -0.1328  0.6765
  108MOL0     H14565   1.164   5.600   6.880  3.2853 -4.0860  0.5130
  108MOL0     H14566   2.550   6.171   6.097 -0.0919  0.0796 -1.6475
  108MOL0     H14567   2.683   6.345   6.224  1.5313 -1.7661 -3.0226
  108MOL0     H14568   2.879   6.900   6.075  0.1665  0.2975  0.1573
  108MOL0     H14569   3.045   7.019   6.213  0.7776  0.2497  1.2172
  108MOL0     H14570   3.141   6.843   6.591  2.0382  0.4791  0.4922
  108MOL0     H14571   3.254   6.971   6.552 -0.5817  2.3430 -1.9575
  108MOL0     H14572   3.131   6.970   6.788  2.1484  1.2123  1.1679
  108MOL0     H14573   2.994   7.038   6.698  0.1477  5.0210  0.3413
  108MOL0     H14574   3.252   7.173   6.747  0.0607  0.9713  2.9427
  108MOL0     H14575   3.088   7.227   6.769  0.1893 -0.0494 -0.7975
  108MOL0     H14576   3.147   7.350   6.607 -1.4023 -0.5057  1.2003
  108MOL0     H14577   3.046   7.237   6.513  0.5758  1.1399 -1.7523
  108MOL0     H14578   3.422   7.209   6.327  0.9199  0.7508 -0.5993
  108MOL0     H14579   2.933   6.773   6.550  1.8249 -2.2028 -0.5318
  108MOL0     H14580   2.792   6.641   6.401 -0.9492  1.6159  1.0339
  109MOL0     O14581   7.608   9.522  10.014  0.4227 -0.0384 -0.2632
  109MOL0     C14582   7.704   9.510   9.938  0.3436  1.1273 -0.0099
  109MOL0     O14583   7.809   9.599   9.930  0.2759  0.0062 -0.0099
  109MOL0     C14584   7.835   9.683  10.036  1.0165 -0.7837  0.7536
  109MOL0     C14585   7.742   9.782  10.069 -0.1795  0.7192  0.1421
  109MOL0     C14586   7.775   9.869  10.176  0.0872 -0.3017  0.0093
  109MOL0     C14587   7.900   9.869  10.235  0.3088  0.1881  0.3092
  109MOL0     O14588   7.933   9.956  10.337  0.9536 -0.9143 -1.1279
  109MOL0     C14589   7.874  10.091  10.310 -0.3087  0.5331 -0.5972
  109MOL0     C14590   7.930  10.180  10.416 -0.5486  0.7227 -0.4795
  109MOL0     C14591   7.870  10.319  10.434  0.7004 -0.5418  0.0769
  109MOL0     C14592   7.878  10.418  10.325 -0.3617  0.5078 -0.3413
  109MOL0     C14593   7.815  10.551  10.376  0.0724  0.2180  0.4097
  109MOL0     C14594   7.914  10.652  10.453 -0.3834  0.1169 -0.2937
  109MOL0     C14595   7.834  10.762  10.522  0.6763 -0.7426 -1.0704
  109MOL0     C14596   7.723  10.832  10.443  0.5257  0.0091  0.2023
  109MOL0     N14597   7.639  10.931  10.517 -0.1122  0.6089 -0.3986
  109MOL0     C14598   7.603  10.933  10.655 -0.0921  0.2932  0.4764
  109MOL0     C14599   7.538  11.048  10.674  0.3834  0.2828 -0.2628
  109MOL0     C14600   7.500  11.096  10.807 -0.1347 -0.2225  0.3601
  109MOL0     C14601   7.479  11.246  10.811 -0.0035 -0.1465  0.5498
  109MOL0     C14602   7.345  11.288  10.754 -0.7233 -0.3426  0.4410
  109MOL0     C14603   7.316  11.439  10.773 -0.3863  0.4898 -0.5563
  109MOL0     O14604   7.215  11.470  10.672 -1.2724 -0.0546 -0.2921
  109MOL0     C14605   7.153  11.596  10.687  0.1058 -0.4998 -1.1848
  109MOL0     C14606   7.031  11.613  10.613 -1.3452 -1.1404  0.4348
  109MOL0     C14607   6.952  11.731  10.635 -1.3796  0.1696  0.7312
  109MOL0     C14608   6.822  11.737  10.567  0.5617  0.2598 -0.0329
  109MOL0     C14609   6.990  11.827  10.738  0.3400  0.5902 -0.1445
  109MOL0     C14610   6.928  11.961  10.770  0.4458 -0.6333  0.0961
  109MOL0     O14611   6.974  12.040  10.871  1.2218 -0.3099 -0.2094
  109MOL0     C14612   6.895  12.133  10.944 -0.6590  0.3918  0.4807
  109MOL0     C14613   6.757  12.128  10.957 -0.4565  0.0087 -1.0657
  109MOL0     C14614   6.697  12.220  11.034 -0.3656 -0.3700 -0.3069
  109MOL0     C14615   6.764  12.313  11.109 -0.0301  0.2695 -0.3471
  109MOL0     O14616   6.684  12.380  11.199 -0.0743 -0.1326 -0.9633
  109MOL0     C14617   6.751  12.464  11.289  0.3710  0.1907 -0.1636
  109MOL0     C14618   6.648  12.479  11.409 -0.3972  0.6754  0.8075
  109MOL0     C14619   6.517  12.557  11.381 -0.2080  0.0604  0.5450
  109MOL0     C14620   6.551  12.706  11.347  0.7482 -0.0143 -0.1562
  109MOL0     C14621   6.419  12.780  11.368  0.5843 -0.6386  0.4348
  109MOL0     C14622   6.366  12.809  11.228  0.2411 -0.3029  0.0682
  109MOL0     C14623   6.403  12.948  11.176 -0.3200 -0.1407 -0.4318
  109MOL0     C14624   6.449  12.960  11.029 -0.1490  0.7157 -0.0472
  109MOL0    Cl14625   6.591  12.857  10.996 -0.5317 -0.2801  0.0963
  109MOL0     C14626   6.902  12.332  11.088  0.1511  0.0218  0.0345
  109MOL0     C14627   6.970  12.242  11.000 -0.8495  0.0793  0.3075
  109MOL0     O14628   6.822  11.974  10.710  0.4787 -0.1175  0.2194
  109MOL0     C14629   7.109  11.804  10.802 -1.4350 -0.8025  0.8714
  109MOL0     C14630   7.200  11.696  10.768  0.1027 -0.4749 -0.4235
  109MOL0     N14631   7.529  11.118  10.558 -0.6019  0.4508 -0.0618
  109MOL0     N14632   7.587  11.047  10.469  0.3812  0.0525  0.2888
  109MOL0     C14633   7.996   9.778  10.189 -0.2367  0.6226  0.3525
  109MOL0     C14634   7.966   9.684  10.087  0.3025 -0.6670  0.3114
  109MOL0     C14635   7.704   9.405   9.835 -0.6448  0.8329  0.3004
  109MOL0     C14636   7.755   9.420   9.705  0.1737  0.3424  0.3870
  109MOL0     C14637   7.750   9.308   9.620  0.0068  0.7977  0.3743
  109MOL0     C14638   7.702   9.186   9.650  0.0392 -0.4511 -0.8949
  109MOL0     O14639   7.672   9.093   9.552 -0.6390 -0.0141 -0.4882
  109MOL0     C14640   7.603   8.967   9.598  0.6544 -0.1177 -0.1913
  109MOL0     C14641   7.452   8.987   9.573 -0.6766  0.2106 -0.1917
  109MOL0     C14642   7.372   8.899   9.674  0.3395  0.2996  0.7438
  109MOL0     C14643   7.363   8.934   9.819 -1.1520  0.1154 -0.3001
  109MOL0     C14644   7.310   9.070   9.834  0.2283  0.6984  0.3507
  109MOL0     C14645   7.256   9.181   9.850 -0.5009  0.6187 -0.6388
  109MOL0     C14646   7.663   9.165   9.783  0.0401  0.5298 -0.0616
  109MOL0     C14647   7.641   9.273   9.871  0.1334  0.7116  0.8182
  109MOL0     H14648   7.638   9.784  10.038 -1.3056  1.1665  3.5144
  109MOL0     H14649   7.694   9.937  10.199 -1.4697 -1.6917 -1.0675
  109MOL0     H14650   7.896  10.136  10.212  1.4681  2.3901  0.5836
  109MOL0     H14651   7.770  10.107  10.341 -0.3910 -3.3771  1.7197
  109MOL0     H14652   7.914  10.138  10.516 -1.3207  1.3812 -0.3147
  109MOL0     H14653   8.035  10.184  10.387 -0.2527  0.6904  0.5555
  109MOL0     H14654   7.766  10.313  10.470  1.5870  0.1063  3.0439
  109MOL0     H14655   7.925  10.374  10.511  1.9718 -1.6967  0.0397
  109MOL0     H14656   7.978  10.424  10.280 -0.1278 -1.3772 -0.1878
  109MOL0     H14657   7.818  10.380  10.241  0.1092  2.1715 -1.4802
  109MOL0     H14658   7.775  10.601  10.287  0.4766  1.0286  0.6837
  109MOL0     H14659   7.723  10.530  10.430  0.3447  2.2012  1.7364
  109MOL0     H14660   7.967  10.593  10.529  0.1429  0.5280 -0.3397
  109MOL0     H14661   7.981  10.701  10.382 -0.8218  1.3049  0.0896
  109MOL0     H14662   7.782  10.720  10.608 -1.4915  0.2937 -1.7900
  109MOL0     H14663   7.901  10.847  10.543  1.0538 -1.1687 -0.5240
  109MOL0     H14664   7.663  10.751  10.402  0.4724 -0.3992  1.0757
  109MOL0     H14665   7.768  10.882  10.357  1.7812  0.0680  0.8664
  109MOL0     H14666   7.625  10.864  10.736 -4.3448 -1.7226  0.2126
  109MOL0     H14667   7.406  11.046  10.833  0.1552 -0.9963 -0.0526
  109MOL0     H14668   7.573  11.068  10.883  0.6218  1.0810  0.1441
  109MOL0     H14669   7.567  11.289  10.763  1.0665 -1.8043  0.9181
  109MOL0     H14670   7.487  11.287  10.912  1.8247 -0.0899  0.4142
  109MOL0     H14671   7.278  11.229  10.817 -0.5315  0.3609  1.3130
  109MOL0     H14672   7.345  11.257  10.649  3.5729  0.4889 -0.0203
  109MOL0     H14673   7.408  11.496  10.758 -0.2526  0.6736  0.8876
  109MOL0     H14674   7.283  11.464  10.874  0.2702 -0.6199 -0.0534
  109MOL0     H14675   7.007  11.524  10.555  0.8376 -0.4525 -1.6824
  109MOL0     H14676   6.814  11.822  10.498  0.4690  0.4244  0.1822
  109MOL0     H14677   6.796  11.644  10.515 -0.8646 -0.0176  1.1266
  109MOL0     H14678   6.747  11.731  10.646  1.1888 -0.8315  0.5016
  109MOL0     H14679   6.698  12.052  10.908  0.3910  0.1660 -2.3759
  109MOL0     H14680   6.590  12.228  11.054 -0.0323  2.6031  0.8433
  109MOL0     H14681   6.838  12.409  11.327 -0.1168 -0.9514 -0.6705
  109MOL0     H14682   6.783  12.555  11.237 -1.0402  1.3330  0.8937
  109MOL0     H14683   6.635  12.374  11.436  0.6814  0.7374  1.5989
  109MOL0     H14684   6.703  12.529  11.489 -0.0853 -0.6745  1.4547
  109MOL0     H14685   6.460  12.550  11.474  1.5735  0.6533  1.7397
  109MOL0     H14686   6.455  12.514  11.302 -2.8008  0.7991  2.0591
  109MOL0     H14687   6.626  12.740  11.420  0.1157 -4.7875  3.1800
  109MOL0     H14688   6.584  12.722  11.244 -1.3422  2.8212 -0.5000
  109MOL0     H14689   6.430  12.877  11.417  0.4858 -0.9176  1.0208
  109MOL0     H14690   6.347  12.729  11.433  1.5669 -2.8433 -0.1039
  109MOL0     H14691   6.394  12.730  11.157 -3.0051 -2.6534  1.1507
  109MOL0     H14692   6.256  12.812  11.227  0.2566  1.4930 -0.0728
  109MOL0     H14693   6.482  12.995  11.234 -0.1449  0.3641 -1.0669
  109MOL0     H14694   6.319  13.017  11.185  1.3744  1.7028  2.7722
  109MOL0     H14695   6.475  13.064  11.007 -3.0472  1.3812 -0.7670
  109MOL0     H14696   6.366  12.926  10.967 -0.1781  1.8295 -0.6450
  109MOL0     H14697   6.958  12.410  11.138 -1.6275  1.4470 -0.0693
  109MOL0     H14698   7.078  12.239  10.997 -0.8568 -0.3736  0.3854
  109MOL0     H14699   7.152  11.874  10.872  0.1665  0.7426 -1.4732
  109MOL0     H14700   7.295  11.682  10.817 -0.1421 -3.8291 -0.7304
  109MOL0     H14701   8.089   9.777  10.246 -0.8902  3.6626  1.6609
  109MOL0     H14702   8.038   9.613  10.048 -0.5173  0.2385 -3.1785
  109MOL0     H14703   7.814   9.505   9.673  0.1021  1.4780  2.9958
  109MOL0     H14704   7.791   9.329   9.522  0.4180 -5.5297 -1.2985
  109MOL0     H14705   7.621   8.898   9.515 -0.7566  1.5713 -2.0021
  109MOL0     H14706   7.635   8.928   9.695 -1.0990  0.7916  0.7875
  109MOL0     H14707   7.412   8.966   9.473 -2.9801 -0.8452  0.8696
  109MOL0     H14708   7.434   9.093   9.592  3.6208  0.9834  0.5089
  109MOL0     H14709   7.414   8.799   9.670 -2.4776 -1.0130  1.5721
  109MOL0     H14710   7.274   8.883   9.627  0.1382 -1.3665  1.6680
  109MOL0     H14711   7.459   8.931   9.872  1.3801  1.1844 -4.3976
  109MOL0     H14712   7.298   8.862   9.868  0.6639 -0.9711  0.6094
  109MOL0     H14713   7.194   9.266   9.870 -0.7546  0.0917  0.9382
  109MOL0     H14714   7.626   9.070   9.819  3.1909 -1.4783 -1.7151
  109MOL0     H14715   7.604   9.255   9.972  1.6622  0.1909  1.3066
  110MOL0     O14716   3.441   9.769   8.666 -0.3692 -0.4717  0.8773
  110MOL0     C14717   3.329   9.807   8.646  0.0453  0.6016  1.1391
  110MOL0     O14718   3.274   9.824   8.527  0.2259 -0.1408 -0.0449
  110MOL0     C14719   3.340   9.795   8.408 -0.5426  0.2353  1.3524
  110MOL0     C14720   3.464   9.860   8.395  0.4281 -0.8930  0.8604
  110MOL0     C14721   3.555   9.835   8.287  1.3107 -0.3228 -0.6342
  110MOL0     C14722   3.521   9.744   8.191  0.7790 -0.3073 -0.0231
  110MOL0     O14723   3.609   9.727   8.083 -0.0982  0.0758 -0.5670
  110MOL0     C14724   3.539   9.692   7.959 -0.0314  0.5015 -0.5917
  110MOL0     C14725   3.630   9.722   7.844 -0.3876 -0.3147  0.1032
  110MOL0     C14726   3.560   9.677   7.719  0.0612  0.3586  0.4355
  110MOL0     C14727   3.659   9.663   7.601 -0.0071 -0.2848 -0.1185
  110MOL0     C14728   3.583   9.645   7.470 -0.2906  0.2903 -0.1968
  110MOL0     C14729   3.514   9.506   7.460  1.2231 -0.0119 -0.0146
  110MOL0     C14730   3.599   9.384   7.411  0.3629  0.3277 -0.1476
  110MOL0     C14731   3.662   9.300   7.519 -0.2451 -0.0208 -0.9105
  110MOL0     N14732   3.734   9.174   7.476 -0.4133 -0.4311 -0.3584
  110MOL0     C14733   3.769   9.138   7.347  0.2460 -0.2052 -0.2549
  110MOL0     C14734   3.816   9.012   7.368 -0.1313 -0.1154  0.3248
  110MOL0     C14735   3.876   8.921   7.258 -0.4936  0.5348 -0.3684
  110MOL0     C14736   3.759   8.864   7.165  0.5073  0.1635  0.6824
  110MOL0     C14737   3.767   8.719   7.153  0.0405 -0.3714 -0.3249
  110MOL0     C14738   3.677   8.631   7.251 -0.9826 -0.0392  0.5106
  110MOL0     O14739   3.543   8.641   7.226  0.0498  0.9617  0.2144
  110MOL0     C14740   3.454   8.722   7.297  0.0345  0.5517  0.2571
  110MOL0     C14741   3.322   8.737   7.255  0.0527 -0.2411  1.2064
  110MOL0     C14742   3.241   8.835   7.310  0.1610 -0.8377 -0.3057
  110MOL0     C14743   3.096   8.850   7.259 -0.1150 -0.6603  0.5512
  110MOL0     C14744   3.298   8.918   7.408 -0.2598 -1.1086 -0.0260
  110MOL0     C14745   3.224   9.034   7.475  1.0871  0.1772 -0.0994
  110MOL0     O14746   3.304   9.135   7.527 -0.4188  0.0371  0.1762
  110MOL0     C14747   3.236   9.249   7.582 -0.6220 -0.2795  0.4516
  110MOL0     C14748   3.258   9.286   7.716  1.1406 -0.4969  0.0305
  110MOL0     C14749   3.205   9.406   7.768  0.7471  0.3415 -0.2235
  110MOL0     C14750   3.129   9.492   7.693 -0.3245  0.6627  0.2401
  110MOL0     O14751   3.071   9.610   7.738 -0.2882  0.6012 -0.7855
  110MOL0     C14752   3.056   9.624   7.880  0.0134 -1.0384  0.1270
  110MOL0     C14753   2.991   9.758   7.918  0.6829  0.1951  0.4182
  110MOL0     C14754   2.942   9.749   8.059  0.0306  0.5907  0.7859
  110MOL0     C14755   2.946   9.881   8.119 -0.6699 -0.9706 -0.7103
  110MOL0     C14756   2.859   9.887   8.238  0.3794 -0.0557 -0.3305
  110MOL0     C14757   2.852  10.035   8.278 -0.3417  0.0935  0.1754
  110MOL0     C14758   2.790  10.054   8.412  0.2493  0.0649 -0.1304
  110MOL0     C14759   2.862   9.989   8.521  0.6967 -0.0107 -0.1857
  110MOL0    Cl14760   2.752   9.992   8.654 -0.2331 -0.2214 -0.3598
  110MOL0     C14761   3.110   9.449   7.556  0.2402 -1.0308 -0.6451
  110MOL0     C14762   3.167   9.334   7.503 -0.7159  0.7548  0.0499
  110MOL0     O14763   3.102   9.032   7.480 -0.0141 -0.2719  0.0371
  110MOL0     C14764   3.427   8.896   7.449 -1.0825  0.1168  0.8577
  110MOL0     C14765   3.504   8.799   7.396  0.4586 -0.2937 -0.4834
  110MOL0     N14766   3.809   8.977   7.497  0.0483  0.1119 -0.4912
  110MOL0     N14767   3.766   9.077   7.562  0.0508  0.1600  0.0965
  110MOL0     C14768   3.402   9.660   8.213 -0.8917  0.7187  0.2383
  110MOL0     C14769   3.318   9.687   8.324  0.5269 -0.0532  0.2396
  110MOL0     C14770   3.248   9.841   8.765  0.1583  0.0443  0.4982
  110MOL0     C14771   3.110   9.869   8.749  0.2279  0.3760  0.5819
  110MOL0     C14772   3.025   9.884   8.856 -0.1833 -0.0784  0.1887
  110MOL0     C14773   3.076   9.883   8.988 -0.6950 -1.2241  0.1793
  110MOL0     O14774   2.989   9.894   9.097  0.5081 -0.3777 -0.3144
  110MOL0     C14775   3.043   9.920   9.228  0.0847 -0.3579  0.2917
  110MOL0     C14776   2.930   9.949   9.325  0.2088 -0.2415 -0.3659
  110MOL0     C14777   2.889  10.097   9.322 -0.9159  0.1483 -0.0632
  110MOL0     C14778   2.983  10.171   9.428  0.5978  0.2252 -0.3429
  110MOL0     C14779   2.970  10.316   9.421 -0.3349 -0.3418 -0.0128
  110MOL0     C14780   2.961  10.442   9.409 -0.4727  0.9428 -0.8087
  110MOL0     C14781   3.212   9.873   9.001 -0.7570  0.9092 -0.3955
  110MOL0     C14782   3.303   9.843   8.894  0.6448  0.1930 -0.4629
  110MOL0     H14783   3.481   9.937   8.470 -0.4917 -1.3588  1.5780
  110MOL0     H14784   3.653   9.880   8.283  1.0401  0.3203 -0.2750
  110MOL0     H14785   3.512   9.587   7.957  1.2387  0.0774  1.4055
  110MOL0     H14786   3.449   9.753   7.945 -1.0548 -0.9132 -0.3311
  110MOL0     H14787   3.656   9.829   7.839  0.2485 -0.4896 -0.5355
  110MOL0     H14788   3.728   9.674   7.859 -0.5476 -1.2550 -1.6731
  110MOL0     H14789   3.511   9.579   7.721 -0.1168  0.3967 -0.9479
  110MOL0     H14790   3.482   9.750   7.700  0.0218  1.0534  2.8758
  110MOL0     H14791   3.721   9.752   7.593 -0.5094 -0.0125 -1.1463
  110MOL0     H14792   3.724   9.576   7.614 -2.6378 -2.4758 -0.8284
  110MOL0     H14793   3.505   9.721   7.465 -1.9447 -1.3338 -0.1944
  110MOL0     H14794   3.646   9.652   7.381  0.8254 -0.7217  0.4742
  110MOL0     H14795   3.451   9.475   7.544 -0.0198  1.6191 -0.3005
  110MOL0     H14796   3.438   9.530   7.384  1.3776 -0.9732 -0.4947
  110MOL0     H14797   3.531   9.314   7.361 -0.6729  1.2215 -0.0190
  110MOL0     H14798   3.676   9.417   7.340  1.0809  1.6421  1.1923
  110MOL0     H14799   3.573   9.290   7.581 -1.9436  5.0937 -2.0050
  110MOL0     H14800   3.725   9.371   7.574 -0.0395  1.1048 -2.5103
  110MOL0     H14801   3.772   9.188   7.251  0.1639 -0.3198 -0.3172
  110MOL0     H14802   3.946   8.992   7.213 -0.1945  0.3413 -0.2123
  110MOL0     H14803   3.936   8.837   7.295  0.8213 -0.1897 -3.7711
  110MOL0     H14804   3.781   8.891   7.061  4.6673 -0.1349  1.3323
  110MOL0     H14805   3.658   8.895   7.194 -0.0232  0.8498 -1.7022
  110MOL0     H14806   3.867   8.675   7.155  0.1156 -0.3445  3.4812
  110MOL0     H14807   3.737   8.689   7.052  2.6391 -1.9436 -0.7223
  110MOL0     H14808   3.709   8.665   7.350  0.0461  0.0409  0.1602
  110MOL0     H14809   3.714   8.528   7.250  0.9604  0.5942  1.9292
  110MOL0     H14810   3.275   8.671   7.183 -0.9890 -0.2789  1.8861
  110MOL0     H14811   3.064   8.949   7.226  1.5663  0.1485  1.2254
  110MOL0     H14812   3.083   8.786   7.171 -0.0045  0.0242  0.0255
  110MOL0     H14813   3.030   8.814   7.338  1.1829 -0.7448  1.6448
  110MOL0     H14814   3.327   9.218   7.765  1.9982  0.2670 -0.0893
  110MOL0     H14815   3.243   9.425   7.868 -0.6173  0.4006  0.2914
  110MOL0     H14816   2.993   9.537   7.901 -1.6636  0.4222  1.5089
  110MOL0     H14817   3.146   9.617   7.941 -0.1140  1.5533  0.7249
  110MOL0     H14818   3.043   9.853   7.904 -4.2815  3.5518  1.9380
  110MOL0     H14819   2.908   9.778   7.849 -0.7392  1.2445  2.3462
  110MOL0     H14820   3.007   9.682   8.115  0.0772  0.0287  0.0821
  110MOL0     H14821   2.842   9.705   8.053 -0.0588  0.9358 -0.6566
  110MOL0     H14822   3.046   9.901   8.158 -0.9426 -0.9686  0.0144
  110MOL0     H14823   2.914   9.952   8.042  1.9652 -1.7793 -2.6710
  110MOL0     H14824   2.902   9.816   8.310  0.4593 -2.4783 -2.6274
  110MOL0     H14825   2.764   9.840   8.210  0.4397 -1.7466  1.9768
  110MOL0     H14826   2.954  10.075   8.286 -0.7873  1.1070  1.0565
  110MOL0     H14827   2.804  10.091   8.197  1.1719 -2.2353 -2.5152
  110MOL0     H14828   2.684  10.030   8.421  0.1831 -0.2687 -1.4836
  110MOL0     H14829   2.798  10.160   8.437  0.2774 -0.0483  0.3384
  110MOL0     H14830   2.952  10.044   8.547 -0.3834  1.7713 -0.0438
  110MOL0     H14831   2.893   9.886   8.499 -0.6037 -0.5855  0.5325
  110MOL0     H14832   3.059   9.515   7.487  2.1839  1.0055 -0.2573
  110MOL0     H14833   3.156   9.324   7.395 -2.5663  0.6836  0.2191
  110MOL0     H14834   3.479   8.966   7.514  1.1399  0.9377 -1.6223
  110MOL0     H14835   3.608   8.805   7.425  0.5288  0.4990 -0.8841
  110MOL0     H14836   3.380   9.586   8.137  1.9737 -3.2512  2.8595
  110MOL0     H14837   3.225   9.632   8.333  0.6541 -0.7982 -2.2365
  110MOL0     H14838   3.064   9.867   8.651 -1.1317 -1.7252  1.1791
  110MOL0     H14839   2.919   9.899   8.838  0.3571  0.5981 -3.0132
  110MOL0     H14840   3.095   9.838   9.278  0.4106  1.8272  3.9427
  110MOL0     H14841   3.126   9.991   9.230  3.3528 -3.8557 -0.8133
  110MOL0     H14842   2.960   9.925   9.427  1.9119  2.9398  0.0075
  110MOL0     H14843   2.845   9.883   9.303 -1.8613  1.5683  1.6390
  110MOL0     H14844   2.782  10.109   9.344 -0.8739 -0.5093  0.5587
  110MOL0     H14845   2.901  10.143   9.224  0.0598  0.5994  0.2562
  110MOL0     H14846   3.085  10.148   9.399  1.2784  1.1455  1.1935
  110MOL0     H14847   2.957  10.126   9.524  0.8401 -2.8066 -1.5849
  110MOL0     H14848   2.932  10.545   9.409 -1.1744  0.7505 -0.1622
  110MOL0     H14849   3.248   9.857   9.102 -1.2084  3.3436  0.2161
  110MOL0     H14850   3.408   9.822   8.908 -0.0387 -2.5680  1.3797
  111MOL0     O14851   7.213   4.582   0.978 -0.1501  0.3225  0.4509
  111MOL0     C14852   7.291   4.670   1.025  0.4784  0.5914 -0.2181
  111MOL0     O14853   7.337   4.675   1.148  0.0526 -0.0278 -0.0199
  111MOL0     C14854   7.295   4.593   1.248 -0.5122  0.5053 -0.3056
  111MOL0     C14855   7.382   4.527   1.336  0.2008  0.2269 -0.5949
  111MOL0     C14856   7.347   4.438   1.438  0.7437  0.5392 -0.3298
  111MOL0     C14857   7.214   4.407   1.455  0.7395  0.8861 -0.2912
  111MOL0     O14858   7.181   4.332   1.563 -0.1836 -0.1541 -0.4777
  111MOL0     C14859   7.042   4.291   1.594 -0.4784 -0.0516 -0.1321
  111MOL0     C14860   7.027   4.193   1.702  0.0599  0.4743  0.2358
  111MOL0     C14861   7.044   4.052   1.648  0.0975 -0.5168  1.1728
  111MOL0     C14862   7.012   3.944   1.744 -0.5168  0.5392 -0.3105
  111MOL0     C14863   7.070   3.808   1.702 -0.4926  0.2210 -0.9324
  111MOL0     C14864   7.021   3.751   1.566  0.4370  0.3653  0.0764
  111MOL0     C14865   6.872   3.730   1.562  0.2781  0.1783 -0.1412
  111MOL0     C14866   6.837   3.631   1.457  0.6987  0.9255 -0.1819
  111MOL0     N14867   6.694   3.590   1.455 -0.4304  0.4800  0.2035
  111MOL0     C14868   6.652   3.463   1.416  0.3887  0.7329  0.0766
  111MOL0     C14869   6.519   3.473   1.407  0.4140  0.3424 -0.0947
  111MOL0     C14870   6.417   3.381   1.347  0.1472  0.7188 -0.7808
  111MOL0     C14871   6.469   3.274   1.249  0.1307  0.8370 -0.3159
  111MOL0     C14872   6.536   3.142   1.290  0.0824  0.2784 -0.0761
  111MOL0     C14873   6.434   3.029   1.338 -0.3271 -0.4993 -0.4378
  111MOL0     O14874   6.338   3.089   1.438 -0.1152 -0.3300  0.8998
  111MOL0     C14875   6.209   3.060   1.410  0.4565 -0.4800 -0.2803
  111MOL0     C14876   6.163   2.934   1.381 -1.3117  0.3579  0.6811
  111MOL0     C14877   6.035   2.901   1.351  0.3903 -0.3285 -0.6692
  111MOL0     C14878   6.009   2.761   1.330  0.4850 -0.5250 -0.1099
  111MOL0     C14879   5.941   3.009   1.343 -0.1697  0.4364 -0.6792
  111MOL0     C14880   5.792   2.988   1.319  0.1313  0.9074 -1.0557
  111MOL0     O14881   5.752   2.855   1.306 -0.1235  0.3421 -0.3458
  111MOL0     C14882   5.624   2.827   1.262  0.6970  0.5388  0.1533
  111MOL0     C14883   5.552   2.731   1.342 -0.6028 -0.3568  0.3368
  111MOL0     C14884   5.422   2.696   1.326 -0.6617  0.1350 -1.0124
  111MOL0     C14885   5.360   2.746   1.219 -0.2298 -0.5861  0.2752
  111MOL0     O14886   5.229   2.723   1.189  1.0030  0.8218 -0.9891
  111MOL0     C14887   5.168   2.609   1.245  0.9022  1.0175  0.1541
  111MOL0     C14888   5.024   2.606   1.209  0.3369 -1.7521  0.8582
  111MOL0     C14889   4.996   2.568   1.057 -0.4389  0.3980 -0.5231
  111MOL0     C14890   4.848   2.577   1.025  0.7672 -0.3143 -0.5327
  111MOL0     C14891   4.814   2.513   0.882 -0.0913 -0.1710 -0.1598
  111MOL0     C14892   4.718   2.596   0.803 -0.8072  0.0914 -0.0318
  111MOL0     C14893   4.676   2.524   0.670  0.0319  0.2225 -0.7126
  111MOL0     C14894   4.593   2.629   0.597  0.2377  0.7225 -0.4077
  111MOL0    Cl14895   4.683   2.762   0.509 -0.1498  0.1670  0.3263
  111MOL0     C14896   5.417   2.857   1.148 -0.2144  0.6638  0.1099
  111MOL0     C14897   5.549   2.899   1.169  0.0914 -0.1881 -0.2277
  111MOL0     O14898   5.720   3.085   1.295  0.3511 -0.0280  0.7621
  111MOL0     C14899   5.982   3.143   1.368 -0.4312  0.0822 -0.3428
  111MOL0     C14900   6.114   3.162   1.400 -0.2020  0.8566 -0.5793
  111MOL0     N14901   6.484   3.602   1.451 -1.0635 -0.6307 -0.1730
  111MOL0     N14902   6.589   3.669   1.482 -0.8722  0.3874  0.4807
  111MOL0     C14903   7.122   4.459   1.365 -0.3418 -1.4865  0.0747
  111MOL0     C14904   7.165   4.550   1.266  1.6145 -0.2292  0.1749
  111MOL0     C14905   7.330   4.769   0.930  0.5765  0.7083  0.1624
  111MOL0     C14906   7.258   4.786   0.809 -1.3761 -0.4807 -0.7270
  111MOL0     C14907   7.290   4.890   0.724 -0.4628 -0.1575 -0.3662
  111MOL0     C14908   7.418   4.954   0.739 -0.0410 -0.2450  0.0492
  111MOL0     O14909   7.445   5.063   0.656  0.4218  0.2226 -0.8574
  111MOL0     C14910   7.580   5.108   0.659 -0.2843 -0.1022  0.1353
  111MOL0     C14911   7.674   5.026   0.573 -0.3350 -0.1546  0.0032
  111MOL0     C14912   7.814   5.091   0.544  0.4534  0.4211 -0.2053
  111MOL0     C14913   7.903   5.012   0.449 -0.1588 -0.3260 -0.7828
  111MOL0     C14914   8.020   5.090   0.422  0.6704 -0.1762  0.9657
  111MOL0     C14915   8.114   5.166   0.404  0.7149 -0.1809  0.2543
  111MOL0     C14916   7.495   4.931   0.862 -0.6772  0.6192  0.0726
  111MOL0     C14917   7.455   4.835   0.954  0.6215  0.3355 -0.4990
  111MOL0     H14918   7.487   4.552   1.323  0.2774 -0.1422 -0.6853
  111MOL0     H14919   7.427   4.388   1.492 -1.5459 -1.5241  1.3731
  111MOL0     H14920   6.985   4.383   1.605  0.2913  0.6219 -1.4091
  111MOL0     H14921   7.009   4.240   1.502  1.2193 -3.2848  0.8953
  111MOL0     H14922   7.111   4.213   1.769 -0.4496  2.5389  0.3287
  111MOL0     H14923   6.928   4.211   1.745 -1.0973 -1.6143 -1.3720
  111MOL0     H14924   6.993   4.045   1.551  0.5062  0.3236  0.8895
  111MOL0     H14925   7.149   4.045   1.618  0.0829  1.1894  0.6610
  111MOL0     H14926   7.048   3.979   1.842 -2.9493 -3.2582  2.2291
  111MOL0     H14927   6.904   3.936   1.754 -0.3392  0.6785  3.1028
  111MOL0     H14928   7.178   3.817   1.689 -0.3933 -0.2807 -0.4852
  111MOL0     H14929   7.055   3.734   1.781  0.2017  3.0602  2.1377
  111MOL0     H14930   7.045   3.802   1.472 -1.0480 -0.3657 -0.7284
  111MOL0     H14931   7.077   3.659   1.547  3.0891  1.8337  0.1768
  111MOL0     H14932   6.846   3.685   1.659 -3.8723 -3.0324 -2.4000
  111MOL0     H14933   6.819   3.823   1.541  2.9282  1.4112 -1.8534
  111MOL0     H14934   6.905   3.548   1.479  1.1806  1.5165  0.6218
  111MOL0     H14935   6.859   3.682   1.364  3.1415 -1.7102 -1.2065
  111MOL0     H14936   6.714   3.382   1.381 -0.4880 -0.2966  0.8305
  111MOL0     H14937   6.367   3.326   1.427  1.4893 -1.0224 -1.0781
  111MOL0     H14938   6.339   3.439   1.298 -1.2359 -1.8037 -1.7492
  111MOL0     H14939   6.547   3.328   1.195  1.2036 -0.6707 -0.3356
  111MOL0     H14940   6.391   3.254   1.175 -0.3593  0.1094  0.3874
  111MOL0     H14941   6.605   3.167   1.371  1.0733  1.1644 -1.1536
  111MOL0     H14942   6.593   3.103   1.205 -2.5215  2.2260 -2.9413
  111MOL0     H14943   6.489   2.941   1.374 -2.4248 -0.8322  2.2965
  111MOL0     H14944   6.385   3.002   1.244  1.3802 -0.8499 -1.2640
  111MOL0     H14945   6.236   2.854   1.378  0.3634  1.8777 -1.0896
  111MOL0     H14946   6.100   2.701   1.339  2.3325  1.9930 -1.1650
  111MOL0     H14947   5.945   2.734   1.415 -0.1637 -0.1251 -0.4596
  111MOL0     H14948   5.973   2.734   1.231  0.8690  0.2963 -0.4782
  111MOL0     H14949   5.606   2.692   1.428  0.9240 -0.7928 -0.7681
  111MOL0     H14950   5.381   2.632   1.404  3.0222  2.3630  3.2149
  111MOL0     H14951   5.224   2.520   1.215 -0.5028 -0.8306  2.6356
  111MOL0     H14952   5.172   2.600   1.354  0.7059 -3.0870 -0.0341
  111MOL0     H14953   4.972   2.524   1.259 -1.1978 -1.6748 -0.5093
  111MOL0     H14954   4.974   2.700   1.232 -0.0382 -1.8941  0.6373
  111MOL0     H14955   5.025   2.465   1.035 -2.1029 -0.2565  0.1895
  111MOL0     H14956   5.060   2.621   0.986 -0.3034  1.9201  0.6794
  111MOL0     H14957   4.785   2.525   1.098  1.0631  1.2331  0.8717
  111MOL0     H14958   4.813   2.680   1.037  0.1503 -0.6978  1.2184
  111MOL0     H14959   4.779   2.412   0.904 -0.5358  0.1073  0.4544
  111MOL0     H14960   4.902   2.492   0.821  0.6524  0.7988  0.5484
  111MOL0     H14961   4.630   2.608   0.867 -0.8489 -1.1459  0.1766
  111MOL0     H14962   4.768   2.691   0.786  1.6164 -1.5037 -3.0031
  111MOL0     H14963   4.624   2.430   0.689  0.2021  0.4442  1.0770
  111MOL0     H14964   4.765   2.497   0.613  1.0576  1.6476  0.1388
  111MOL0     H14965   4.522   2.678   0.665  1.6271  2.2190  0.0207
  111MOL0     H14966   4.537   2.568   0.526 -3.6383 -0.4241  3.1753
  111MOL0     H14967   5.349   2.902   1.077  1.3699  1.7554 -0.7633
  111MOL0     H14968   5.594   2.987   1.124  0.0393  0.4686  0.9643
  111MOL0     H14969   5.927   3.236   1.358  0.7414  0.7431 -0.8922
  111MOL0     H14970   6.147   3.265   1.400  4.3983 -0.3702 -0.9619
  111MOL0     H14971   7.014   4.449   1.364 -0.4237 -1.0286 -2.2553
  111MOL0     H14972   7.096   4.597   1.196  2.6829  1.5789  0.2541
  111MOL0     H14973   7.165   4.733   0.788 -0.6592 -1.3594 -1.8343
  111MOL0     H14974   7.237   4.930   0.638 -1.0026 -1.4201 -0.6432
  111MOL0     H14975   7.588   5.196   0.595 -1.0600 -1.6724 -2.2309
  111MOL0     H14976   7.617   5.137   0.758  1.3088 -1.5956  0.0282
  111MOL0     H14977   7.625   5.005   0.477  0.7983 -1.2197 -0.3736
  111MOL0     H14978   7.688   4.934   0.631  2.7345 -0.2593 -0.7312
  111MOL0     H14979   7.867   5.096   0.640  0.5459 -2.8983  0.0219
  111MOL0     H14980   7.791   5.190   0.505  3.9193  1.8758  1.0902
  111MOL0     H14981   7.855   4.996   0.352  1.1183 -0.4199 -1.4223
  111MOL0     H14982   7.937   4.919   0.495 -1.0216 -0.7959 -1.0716
  111MOL0     H14983   8.209   5.214   0.401 -0.7945  3.0838  0.0953
  111MOL0     H14984   7.574   4.988   0.907 -1.3349  1.3776  0.2920
  111MOL0     H14985   7.508   4.829   1.048 -1.1811 -3.7489  0.5018
  112MOL0     O14986   1.479   2.516   6.345 -0.3014  0.1997 -0.9609
  112MOL0     C14987   1.414   2.609   6.384  0.4457 -0.7047 -0.0334
  112MOL0     O14988   1.295   2.646   6.334 -0.2248  0.1690 -0.4706
  112MOL0     C14989   1.235   2.583   6.226  0.3185 -0.0067 -0.4139
  112MOL0     C14990   1.304   2.567   6.105 -0.2770 -0.0147  1.3538
  112MOL0     C14991   1.249   2.501   5.991 -0.4096  0.2926 -0.9850
  112MOL0     C14992   1.119   2.451   5.999  0.4224  0.0199  0.1966
  112MOL0     O14993   1.053   2.383   5.898 -0.0338  0.5605 -0.3343
  112MOL0     C14994   1.138   2.307   5.809  0.2569  0.3562  0.1749
  112MOL0     C14995   1.188   2.171   5.883  0.5128  0.0446 -0.1928
  112MOL0     C14996   1.331   2.179   5.929 -0.0663  0.1634 -0.3269
  112MOL0     C14997   1.334   2.072   6.040  0.6244  0.1554  0.1803
  112MOL0     C14998   1.469   2.040   6.093 -0.6654 -1.0975  0.6968
  112MOL0     C14999   1.528   2.159   6.175 -0.0428 -0.1252  0.1095
  112MOL0     C15000   1.666   2.123   6.237 -0.6960  0.5756 -0.6418
  112MOL0     C15001   1.656   2.037   6.367  0.1856  0.0125  0.0197
  112MOL0     N15002   1.792   2.016   6.421 -0.3539 -0.5296  0.0374
  112MOL0     C15003   1.861   2.098   6.500  0.2445 -0.0445  0.5078
  112MOL0     C15004   1.978   2.032   6.519  0.3702  0.2272 -0.1345
  112MOL0     C15005   2.087   2.100   6.597  0.2870 -0.2176 -0.3783
  112MOL0     C15006   2.221   2.089   6.517 -0.3488 -1.1170  0.5282
  112MOL0     C15007   2.334   2.144   6.602  0.4939 -0.2604 -0.6459
  112MOL0     C15008   2.459   2.136   6.515 -0.0825 -0.0421  0.4616
  112MOL0     O15009   2.539   2.249   6.522 -0.1791 -1.0082  0.4574
  112MOL0     C15010   2.548   2.322   6.402  0.1294  0.4734 -0.0086
  112MOL0     C15011   2.454   2.413   6.358  0.7665  0.3672 -0.2944
  112MOL0     C15012   2.473   2.482   6.243  0.3877 -1.3057  0.1309
  112MOL0     C15013   2.360   2.582   6.213  0.0043 -0.0378 -0.2362
  112MOL0     C15014   2.589   2.461   6.163 -0.2951 -0.7751  0.0402
  112MOL0     C15015   2.619   2.535   6.040  0.9641  0.4849  0.5903
  112MOL0     O15016   2.722   2.488   5.963  0.6272  0.2250 -0.2636
  112MOL0     C15017   2.780   2.544   5.862 -1.3492 -0.6031 -0.5336
  112MOL0     C15018   2.902   2.482   5.823 -0.1291  0.1521  1.1870
  112MOL0     C15019   2.984   2.540   5.727 -0.1987  0.7136  0.2753
  112MOL0     C15020   2.952   2.656   5.658  0.0985 -0.1324 -0.1352
  112MOL0     O15021   3.036   2.716   5.570  0.0936 -0.4862  0.5538
  112MOL0     C15022   3.165   2.759   5.616  0.6175 -0.1667 -1.1237
  112MOL0     C15023   3.250   2.822   5.512  0.1493  0.3396  0.1230
  112MOL0     C15024   3.306   2.728   5.407  0.5095  0.0265 -0.1081
  112MOL0     C15025   3.218   2.721   5.282  0.2997 -0.8902  1.0155
  112MOL0     C15026   3.284   2.641   5.162 -0.2071 -0.3522 -0.4202
  112MOL0     C15027   3.192   2.600   5.049 -0.4914 -0.7692 -0.0511
  112MOL0     C15028   3.279   2.549   4.933  0.1235  0.0712  0.0232
  112MOL0     C15029   3.189   2.490   4.821 -0.0358 -0.5868 -0.2507
  112MOL0    Cl15030   3.071   2.359   4.876  0.1104  0.5449  0.4766
  112MOL0     C15031   2.842   2.730   5.712  0.3298  0.1513  0.0476
  112MOL0     C15032   2.762   2.676   5.813  0.4039 -0.3107 -0.4182
  112MOL0     O15033   2.552   2.640   6.018 -0.0757  0.9255 -0.4108
  112MOL0     C15034   2.682   2.368   6.207  0.2556 -0.4665  0.4854
  112MOL0     C15035   2.662   2.307   6.323  1.0127  0.4073 -0.5985
  112MOL0     N15036   1.980   1.916   6.442 -0.3755  0.3327  0.4868
  112MOL0     N15037   1.867   1.906   6.389 -0.1887 -0.0561  0.1870
  112MOL0     C15038   1.048   2.473   6.117 -0.0666  0.0978 -0.6910
  112MOL0     C15039   1.105   2.540   6.227  0.3922  0.6865 -0.4091
  112MOL0     C15040   1.480   2.696   6.487 -0.5084 -0.0021 -0.8362
  112MOL0     C15041   1.600   2.655   6.547 -0.0170  1.1170  0.3699
  112MOL0     C15042   1.645   2.723   6.660 -1.2286 -0.6135  0.3686
  112MOL0     C15043   1.581   2.829   6.722  0.1884  0.6112  0.1215
  112MOL0     O15044   1.623   2.894   6.828  0.1294 -0.7932  0.1912
  112MOL0     C15045   1.764   2.896   6.850  0.3315 -0.4667  0.3182
  112MOL0     C15046   1.796   2.997   6.959  0.2433 -1.0016  0.3089
  112MOL0     C15047   1.948   3.027   6.959  0.6179 -0.4887 -0.8872
  112MOL0     C15048   2.018   2.930   7.057 -0.5761  0.4105  0.5625
  112MOL0     C15049   2.165   2.942   7.040  0.4933 -0.1972 -0.0088
  112MOL0     C15050   2.282   2.956   7.006 -0.5901  0.4942  0.0455
  112MOL0     C15051   1.466   2.871   6.657  0.2657 -0.2178  0.5788
  112MOL0     C15052   1.421   2.803   6.538  0.7729 -0.3771 -0.8650
  112MOL0     H15053   1.398   2.621   6.107  0.3359 -1.0563  1.4464
  112MOL0     H15054   1.300   2.509   5.896  0.5801 -2.4691 -0.7856
  112MOL0     H15055   1.068   2.286   5.727  0.0346  1.5201  0.0577
  112MOL0     H15056   1.223   2.364   5.770 -1.0566  1.3241 -1.4021
  112MOL0     H15057   1.129   2.170   5.975  0.1756  0.5507 -0.3980
  112MOL0     H15058   1.162   2.078   5.832  0.3576 -0.0724  0.0937
  112MOL0     H15059   1.406   2.157   5.852  3.1363  2.1844  1.9698
  112MOL0     H15060   1.363   2.277   5.966  0.3122 -0.1532  0.1873
  112MOL0     H15061   1.273   2.118   6.118  1.3678  0.7943  0.3934
  112MOL0     H15062   1.274   1.982   6.020 -0.9463  1.5171 -1.5594
  112MOL0     H15063   1.454   1.953   6.158  0.0601 -1.8946 -0.1702
  112MOL0     H15064   1.532   2.001   6.012 -2.1015 -1.2146 -0.4085
  112MOL0     H15065   1.540   2.247   6.110  1.7478  0.7076  1.4565
  112MOL0     H15066   1.459   2.188   6.255 -0.2585 -0.4034  0.0235
  112MOL0     H15067   1.732   2.082   6.160 -0.9142  3.8501 -2.7346
  112MOL0     H15068   1.717   2.218   6.256  3.0457 -1.2485 -0.5036
  112MOL0     H15069   1.608   1.942   6.347 -0.2949 -0.0240  1.2661
  112MOL0     H15070   1.595   2.085   6.444 -2.2836 -2.5572 -0.1713
  112MOL0     H15071   1.835   2.192   6.548 -2.1266 -0.8132  0.8513
  112MOL0     H15072   2.072   2.203   6.630  1.9406  0.6104 -2.0422
  112MOL0     H15073   2.096   2.039   6.688  1.4213  1.9509  1.0595
  112MOL0     H15074   2.210   2.145   6.423 -1.5013  0.5013  1.5809
  112MOL0     H15075   2.237   1.988   6.478 -0.2830 -0.0345 -2.5081
  112MOL0     H15076   2.341   2.081   6.691  0.4987  0.1429 -0.3583
  112MOL0     H15077   2.315   2.248   6.630  1.7741  0.6178 -2.7697
  112MOL0     H15078   2.451   2.111   6.409  1.5809  2.9478 -0.5055
  112MOL0     H15079   2.519   2.059   6.565 -0.2069  1.2713  2.8004
  112MOL0     H15080   2.362   2.412   6.416  1.3333 -0.8229  0.6393
  112MOL0     H15081   2.296   2.602   6.299 -1.2188  0.1974 -1.1730
  112MOL0     H15082   2.405   2.681   6.199  0.1425 -0.1716 -0.7618
  112MOL0     H15083   2.302   2.550   6.126 -2.1698 -2.1877  1.8471
  112MOL0     H15084   2.924   2.386   5.869  1.1788  0.5576  1.4311
  112MOL0     H15085   3.069   2.486   5.686 -0.6460 -0.0396  0.3125
  112MOL0     H15086   3.153   2.826   5.702 -0.5227 -0.0302 -1.3691
  112MOL0     H15087   3.225   2.676   5.654 -0.0231 -0.3684 -0.5174
  112MOL0     H15088   3.203   2.911   5.470 -2.0817 -0.4176  0.8832
  112MOL0     H15089   3.342   2.855   5.562  1.1359 -2.8291  0.6417
  112MOL0     H15090   3.305   2.629   5.454 -3.8439 -0.1357 -0.1379
  112MOL0     H15091   3.412   2.753   5.396  0.8923 -0.3855  2.2153
  112MOL0     H15092   3.114   2.692   5.302 -1.1443  2.9047 -0.0325
  112MOL0     H15093   3.192   2.823   5.252  2.4193 -0.2947  1.0793
  112MOL0     H15094   3.320   2.544   5.196  0.1894  0.0368  0.3111
  112MOL0     H15095   3.371   2.695   5.124 -1.0524  1.2455 -0.1785
  112MOL0     H15096   3.111   2.541   5.091  0.4580 -1.6509  0.5771
  112MOL0     H15097   3.137   2.689   5.016  0.0315 -1.3352 -2.6911
  112MOL0     H15098   3.354   2.475   4.964 -1.5538 -1.4307  0.7068
  112MOL0     H15099   3.325   2.641   4.895 -0.0655  2.0866  4.1304
  112MOL0     H15100   3.255   2.454   4.741 -1.9154 -1.2427 -1.5858
  112MOL0     H15101   3.131   2.575   4.782  1.6711  0.3871 -0.7776
  112MOL0     H15102   2.816   2.826   5.668  1.2376 -0.2675 -1.4821
  112MOL0     H15103   2.681   2.737   5.853  0.4894 -0.4123 -0.0868
  112MOL0     H15104   2.776   2.352   6.156 -0.1455 -0.4594 -0.2643
  112MOL0     H15105   2.739   2.240   6.359 -2.3361 -2.8904  1.1699
  112MOL0     H15106   0.945   2.442   6.132 -1.3515  3.8170 -0.8153
  112MOL0     H15107   1.051   2.550   6.320  2.5165 -0.0592  0.9986
  112MOL0     H15108   1.649   2.564   6.515 -1.6929 -0.0574  0.9900
  112MOL0     H15109   1.748   2.699   6.684 -2.3178 -5.3335  1.2696
  112MOL0     H15110   1.801   2.803   6.893 -3.1215 -0.3082  4.2815
  112MOL0     H15111   1.814   2.930   6.758  0.4507 -0.5023  0.3709
  112MOL0     H15112   1.769   2.973   7.062  1.6574  1.8932  1.4764
  112MOL0     H15113   1.755   3.097   6.941  3.4218  0.0333 -2.1979
  112MOL0     H15114   1.976   3.124   7.000 -3.1286 -0.2410  1.5509
  112MOL0     H15115   1.991   3.015   6.859 -1.4604 -0.8985 -1.7875
  112MOL0     H15116   1.995   2.824   7.046  0.5077  0.3223 -1.4101
  112MOL0     H15117   1.994   2.943   7.162  0.7501 -0.3708  0.9903
  112MOL0     H15118   2.384   2.955   6.975 -1.8176  1.3702 -4.8424
  112MOL0     H15119   1.400   2.950   6.691  0.6761 -0.2222  1.4175
  112MOL0     H15120   1.325   2.837   6.500  1.5611  2.7273 -0.3328
  113MOL0     O15121   5.967   1.260   7.211  0.2059  0.5588  0.3507
  113MOL0     C15122   6.050   1.349   7.174  0.0167 -0.4681  0.0965
  113MOL0     O15123   6.040   1.485   7.214  0.4878 -0.1046 -0.2237
  113MOL0     C15124   5.930   1.535   7.284  0.0274  1.1493 -0.0019
  113MOL0     C15125   5.803   1.488   7.269  1.1636  0.6440  0.8689
  113MOL0     C15126   5.702   1.521   7.360  0.3280 -0.0069  0.5007
  113MOL0     C15127   5.718   1.610   7.463  0.5126  0.4774  0.3609
  113MOL0     O15128   5.607   1.635   7.540 -0.4256  0.1674 -0.1523
  113MOL0     C15129   5.619   1.733   7.648 -0.2478  0.0386 -0.4359
  113MOL0     C15130   5.488   1.772   7.712  0.6819  0.2678  0.3731
  113MOL0     C15131   5.398   1.838   7.610  0.8065 -0.0435  0.5528
  113MOL0     C15132   5.268   1.878   7.671  0.2693 -1.0476 -0.6115
  113MOL0     C15133   5.303   1.990   7.775  0.3275  0.0555 -0.1410
  113MOL0     C15134   5.362   2.119   7.713  0.1796  0.6641  0.2207
  113MOL0     C15135   5.333   2.253   7.792 -0.9719  0.2137 -0.7133
  113MOL0     C15136   5.388   2.243   7.935  0.0526  0.3279 -0.0009
  113MOL0     N15137   5.535   2.275   7.952 -0.5209  0.3292 -0.2888
  113MOL0     C15138   5.650   2.193   7.920  0.8620  0.1150 -0.9439
  113MOL0     C15139   5.751   2.259   7.994  0.9970 -0.6442  0.1059
  113MOL0     C15140   5.897   2.214   8.004  0.4165 -0.4717  0.9028
  113MOL0     C15141   5.929   2.076   7.945 -0.3482  0.1780  0.6204
  113MOL0     C15142   6.080   2.040   7.969 -0.3247 -0.9421  1.4349
  113MOL0     C15143   6.170   2.101   7.864  0.1397 -0.0944  0.0082
  113MOL0     O15144   6.167   2.040   7.733 -0.0662  0.2324 -0.0427
  113MOL0     C15145   6.281   2.012   7.666 -1.3444 -0.6744 -0.0262
  113MOL0     C15146   6.352   1.901   7.706  0.5021 -0.8949  0.3083
  113MOL0     C15147   6.466   1.862   7.638  0.2918 -0.8108 -0.0593
  113MOL0     C15148   6.551   1.760   7.718 -0.5331  0.2499 -0.3448
  113MOL0     C15149   6.518   1.929   7.527 -0.0537  0.6365  0.5313
  113MOL0     C15150   6.645   1.906   7.452  0.6449 -0.5304 -0.5982
  113MOL0     O15151   6.682   2.005   7.366  0.1613  0.5394  0.3976
  113MOL0     C15152   6.793   1.986   7.285 -0.2958 -0.3152  0.3568
  113MOL0     C15153   6.896   2.075   7.290 -1.1042  0.0915 -0.1031
  113MOL0     C15154   7.006   2.063   7.200  1.0061  0.4994 -1.4641
  113MOL0     C15155   7.010   1.952   7.122  0.1696 -0.0257  0.2957
  113MOL0     O15156   7.125   1.948   7.049 -0.1519  0.2137 -0.0941
  113MOL0     C15157   7.167   1.831   6.976  0.1094  0.3629 -0.5574
  113MOL0     C15158   7.312   1.819   6.964  0.0543 -0.5050  0.6615
  113MOL0     C15159   7.384   1.933   6.912 -1.2666 -0.0582 -0.5187
  113MOL0     C15160   7.531   1.886   6.886  0.4507  0.0007 -0.7124
  113MOL0     C15161   7.618   1.975   6.815 -0.0291 -0.1159  0.2774
  113MOL0     C15162   7.735   1.898   6.749 -0.8892  0.7648  0.2066
  113MOL0     C15163   7.832   1.995   6.679 -0.2499 -0.3843 -0.6583
  113MOL0     C15164   7.938   1.915   6.611 -0.2695  0.5544 -0.4721
  113MOL0    Cl15165   8.044   2.031   6.507 -0.3147 -0.3320  0.6520
  113MOL0     C15166   6.898   1.865   7.106 -0.6859 -0.7588 -0.7371
  113MOL0     C15167   6.798   1.885   7.189  0.3733  0.6849 -0.1121
  113MOL0     O15168   6.717   1.811   7.478  0.1147  0.7419  0.7077
  113MOL0     C15169   6.445   2.038   7.490  1.6707 -0.5259 -0.9355
  113MOL0     C15170   6.330   2.086   7.556 -0.2128  0.5311 -1.0191
  113MOL0     N15171   5.707   2.379   8.044  1.3153 -0.4736  0.1867
  113MOL0     N15172   5.579   2.384   8.019 -0.5888  0.6745  0.1089
  113MOL0     C15173   5.844   1.677   7.467  0.1545 -0.2520 -1.0640
  113MOL0     C15174   5.945   1.632   7.382 -0.1867  0.8776 -0.3492
  113MOL0     C15175   6.146   1.325   7.069 -1.1890  0.2794 -0.0812
  113MOL0     C15176   6.163   1.200   7.002 -0.2932  0.0985  0.8226
  113MOL0     C15177   6.263   1.187   6.911  0.3216  0.0324  0.2975
  113MOL0     C15178   6.356   1.284   6.876 -0.1560 -0.5238 -1.3092
  113MOL0     O15179   6.455   1.285   6.782  0.1394  0.7281 -0.8834
  113MOL0     C15180   6.455   1.177   6.687  0.8235  0.2325  0.5012
  113MOL0     C15181   6.575   1.179   6.594  0.3516 -0.2979  0.2813
  113MOL0     C15182   6.600   1.050   6.515 -0.9290  0.3836 -0.8592
  113MOL0     C15183   6.660   0.937   6.611  0.0131  0.4178  0.2840
  113MOL0     C15184   6.685   0.810   6.535  0.6822 -0.0798  0.3538
  113MOL0     C15185   6.702   0.705   6.478 -0.6012  1.1316  0.6373
  113MOL0     C15186   6.347   1.395   6.956 -0.4076  0.2447  0.3756
  113MOL0     C15187   6.248   1.418   7.045  0.5044 -1.0091  0.0777
  113MOL0     H15188   5.773   1.410   7.199  2.4188 -0.7717  1.8703
  113MOL0     H15189   5.605   1.477   7.337  0.7846 -0.1959 -1.2294
  113MOL0     H15190   5.698   1.695   7.713  0.0198 -0.7212 -1.1901
  113MOL0     H15191   5.653   1.832   7.615 -2.4557  1.2488  0.6776
  113MOL0     H15192   5.445   1.679   7.750  0.2286  0.4012  0.2033
  113MOL0     H15193   5.524   1.834   7.795  0.2608 -1.9379  2.2908
  113MOL0     H15194   5.449   1.924   7.565  0.2577 -0.3877 -0.7835
  113MOL0     H15195   5.366   1.765   7.534 -0.1977  2.0787 -1.1626
  113MOL0     H15196   5.200   1.919   7.596  1.6932  2.1968 -0.3084
  113MOL0     H15197   5.218   1.787   7.708 -1.0910 -1.8473 -4.0561
  113MOL0     H15198   5.208   2.023   7.818 -0.4559 -3.4912  1.2236
  113MOL0     H15199   5.353   1.951   7.863  1.1521  0.3140 -0.4819
  113MOL0     H15200   5.469   2.104   7.695 -0.1717 -4.1444  0.8258
  113MOL0     H15201   5.311   2.125   7.616  0.7636 -0.5176 -0.1734
  113MOL0     H15202   5.374   2.343   7.746 -3.2978  1.1270 -1.1183
  113MOL0     H15203   5.227   2.277   7.806 -0.0157  3.7876  1.8518
  113MOL0     H15204   5.366   2.141   7.969  1.9416  0.2465  1.1234
  113MOL0     H15205   5.338   2.311   8.005  1.1392 -0.4545  1.6020
  113MOL0     H15206   5.635   2.094   7.879  1.0077 -0.3801  0.1622
  113MOL0     H15207   5.953   2.295   7.956  0.1253 -0.2539  0.9264
  113MOL0     H15208   5.930   2.211   8.108  0.6455 -1.9846  0.7974
  113MOL0     H15209   5.902   2.070   7.839  2.4275 -1.5702 -0.0999
  113MOL0     H15210   5.874   2.003   8.004  3.3092 -1.2305  2.6082
  113MOL0     H15211   6.097   1.932   7.969 -0.3227 -1.1015 -2.7165
  113MOL0     H15212   6.115   2.084   8.063 -0.3125  2.8988 -0.2078
  113MOL0     H15213   6.275   2.108   7.893 -0.5415 -0.1275  2.7071
  113MOL0     H15214   6.136   2.204   7.849 -0.5295 -0.4288 -0.9254
  113MOL0     H15215   6.310   1.857   7.796 -1.4095  3.4118  1.7640
  113MOL0     H15216   6.542   1.659   7.678  0.1202 -0.0436  0.2208
  113MOL0     H15217   6.655   1.794   7.715  0.2670 -1.9684  0.4100
  113MOL0     H15218   6.523   1.755   7.824 -1.5595  2.9111 -0.4170
  113MOL0     H15219   6.883   2.159   7.357 -0.8115 -0.8623  1.2024
  113MOL0     H15220   7.099   2.118   7.194  0.8787  0.9925  0.3955
  113MOL0     H15221   7.131   1.740   7.026  1.4824 -1.6145 -2.9423
  113MOL0     H15222   7.123   1.840   6.876  0.1370  3.0849 -0.4023
  113MOL0     H15223   7.353   1.785   7.059  2.9224  1.3134  0.1952
  113MOL0     H15224   7.324   1.732   6.898 -0.2587 -1.3950  1.7544
  113MOL0     H15225   7.382   2.018   6.981  3.2744 -0.4542  0.4079
  113MOL0     H15226   7.344   1.973   6.819 -1.0151  0.9769 -0.1976
  113MOL0     H15227   7.576   1.854   6.981  1.1136  0.9304 -0.6915
  113MOL0     H15228   7.515   1.798   6.824  2.4577  0.2628 -1.6948
  113MOL0     H15229   7.648   2.052   6.887  3.7313 -1.2517  0.1448
  113MOL0     H15230   7.557   2.014   6.734 -4.1544 -0.9715  2.6861
  113MOL0     H15231   7.778   1.838   6.830 -3.1513 -0.0058  0.9135
  113MOL0     H15232   7.696   1.827   6.675 -3.3927  0.6147  1.5625
  113MOL0     H15233   7.874   2.061   6.755 -0.0106  0.8682 -1.8235
  113MOL0     H15234   7.779   2.063   6.610 -0.0179  2.2208  1.5765
  113MOL0     H15235   7.891   1.843   6.543 -0.7363  0.4779 -0.0766
  113MOL0     H15236   7.989   1.855   6.687 -0.9249 -1.2990 -1.4461
  113MOL0     H15237   6.903   1.780   7.039 -2.0087 -0.3466 -1.3878
  113MOL0     H15238   6.720   1.810   7.192  0.2322  0.6043 -2.9533
  113MOL0     H15239   6.475   2.107   7.411 -0.1181 -1.4167 -2.4642
  113MOL0     H15240   6.279   2.177   7.526 -1.5203  1.2720  2.9026
  113MOL0     H15241   5.871   1.754   7.539 -0.5979 -0.0821 -0.9554
  113MOL0     H15242   6.042   1.682   7.386 -0.5794  1.7518 -1.1419
  113MOL0     H15243   6.092   1.119   7.018 -2.9058  1.9895 -0.3825
  113MOL0     H15244   6.262   1.101   6.845 -1.4261 -0.0830  0.4355
  113MOL0     H15245   6.458   1.081   6.740  1.3514 -1.0685 -1.7705
  113MOL0     H15246   6.363   1.179   6.627  0.5396 -0.7581  0.8783
  113MOL0     H15247   6.673   1.206   6.634  0.5668  1.3662 -1.2115
  113MOL0     H15248   6.554   1.259   6.522  1.9145 -0.5692 -0.5304
  113MOL0     H15249   6.676   1.069   6.439  1.2178  1.0539  1.3138
  113MOL0     H15250   6.500   1.027   6.477 -1.3543 -0.9471  0.9365
  113MOL0     H15251   6.588   0.916   6.691 -1.9554  1.3706 -1.1501
  113MOL0     H15252   6.754   0.963   6.661 -0.0551  0.4716  0.3871
  113MOL0     H15253   6.729   0.624   6.412 -0.5500  0.5113  1.4067
  113MOL0     H15254   6.422   1.471   6.935 -1.5332  2.1700  2.7854
  113MOL0     H15255   6.254   1.507   7.108  1.4314  0.3115 -1.7768
  114MOL0     O15256  11.104   4.642   0.183  0.4163 -0.2381 -0.1060
  114MOL0     C15257  11.065   4.545   0.250 -0.3561 -0.5233 -0.5619
  114MOL0     O15258  10.960   4.544   0.331 -0.2834 -0.0027  0.4868
  114MOL0     C15259  10.864   4.638   0.312  0.0387 -0.1670 -1.2032
  114MOL0     C15260  10.788   4.640   0.195  0.5695  0.1298 -0.7023
  114MOL0     C15261  10.681   4.737   0.189  0.3970  0.5795 -1.2330
  114MOL0     C15262  10.659   4.845   0.281 -0.4760  0.1781 -0.0728
  114MOL0     O15263  10.554   4.932   0.275 -0.2304 -0.4369 -0.2698
  114MOL0     C15264  10.512   4.975   0.149 -0.2156 -0.3308  0.2202
  114MOL0     C15265  10.602   5.091   0.094  1.2157 -0.0298  0.7020
  114MOL0     C15266  10.549   5.157  -0.040 -0.9018  0.8931 -0.6545
  114MOL0     C15267  10.638   5.264  -0.101  0.7602  0.2628 -0.5300
  114MOL0     C15268  10.788   5.228  -0.137 -0.4464 -0.7523  0.6853
  114MOL0     C15269  10.839   5.352  -0.217  0.4940 -0.5821 -0.4371
  114MOL0     C15270  10.848   5.331  -0.365  1.0393  0.0112 -0.1411
  114MOL0     C15271  10.848   5.465  -0.444 -0.6566 -0.1896  1.0911
  114MOL0     N15272  10.895   5.452  -0.585  0.7080 -0.4969 -0.8200
  114MOL0     C15273  10.990   5.526  -0.647  0.1068 -0.0147 -0.6607
  114MOL0     C15274  10.980   5.505  -0.783  0.7900  0.6336 -0.5398
  114MOL0     C15275  11.075   5.549  -0.898 -0.7803  0.0754  0.0783
  114MOL0     C15276  11.218   5.512  -0.860  0.3229  0.7388  0.2814
  114MOL0     C15277  11.289   5.482  -0.997 -0.4692  0.0994  0.0639
  114MOL0     C15278  11.435   5.426  -0.976  0.0856 -1.2141 -0.2333
  114MOL0     O15279  11.432   5.296  -0.904 -0.0539  0.2427  0.8974
  114MOL0     C15280  11.544   5.240  -0.852 -0.6656  0.0397 -0.2583
  114MOL0     C15281  11.519   5.116  -0.785 -0.1371 -0.3275 -0.8177
  114MOL0     C15282  11.621   5.028  -0.753 -0.4168  0.0571  0.6101
  114MOL0     C15283  11.578   4.888  -0.708 -0.0872  0.8530 -0.0218
  114MOL0     C15284  11.757   5.073  -0.775  0.3181 -0.7850  0.5527
  114MOL0     C15285  11.872   4.992  -0.740 -0.3466  0.5768 -0.9031
  114MOL0     O15286  11.977   5.058  -0.671  0.8255  0.5219  0.9308
  114MOL0     C15287  12.082   4.979  -0.617  1.3010 -0.0541 -0.7333
  114MOL0     C15288  12.076   4.850  -0.555 -0.0495  0.6047 -1.0571
  114MOL0     C15289  12.188   4.806  -0.478  1.0968 -0.3417  0.8021
  114MOL0     C15290  12.296   4.888  -0.450 -0.4186  0.5085  0.6820
  114MOL0     O15291  12.404   4.831  -0.389 -0.0376 -0.0470  0.5761
  114MOL0     C15292  12.418   4.688  -0.383  0.4793  1.1721 -0.5471
  114MOL0     C15293  12.547   4.651  -0.336 -0.7097  0.4291  0.1104
  114MOL0     C15294  12.573   4.499  -0.356  0.0298  0.0333  0.1477
  114MOL0     C15295  12.659   4.439  -0.246 -0.2279  0.0437  0.4063
  114MOL0     C15296  12.658   4.290  -0.277  0.2918  0.5457  0.6956
  114MOL0     C15297  12.713   4.205  -0.163  0.5391  0.3284  1.4617
  114MOL0     C15298  12.860   4.238  -0.134 -0.6307 -0.2413 -0.8911
  114MOL0     C15299  12.908   4.174  -0.005 -0.0779  0.1214  0.6657
  114MOL0    Cl15300  12.865   4.000   0.016 -0.2531  0.0686  0.4113
  114MOL0     C15301  12.307   5.008  -0.515 -0.7858  0.2938 -0.3602
  114MOL0     C15302  12.201   5.052  -0.595 -0.2327 -0.4904 -0.4770
  114MOL0     O15303  11.881   4.878  -0.790 -0.5668  0.1496 -0.5011
  114MOL0     C15304  11.776   5.200  -0.825  0.0764  0.5889 -0.4777
  114MOL0     C15305  11.673   5.289  -0.863  0.6139  0.7464 -0.6050
  114MOL0     N15306  10.864   5.428  -0.796 -0.5349  0.6573 -0.2344
  114MOL0     N15307  10.819   5.394  -0.683  0.7860  0.0940 -0.2167
  114MOL0     C15308  10.735   4.830   0.399 -0.0166  0.2770  0.8699
  114MOL0     C15309  10.845   4.735   0.413  0.0782  0.2030  0.3566
  114MOL0     C15310  11.149   4.428   0.250  0.1840  0.0677  0.2785
  114MOL0     C15311  11.245   4.402   0.153 -0.5029  0.4463 -0.0875
  114MOL0     C15312  11.319   4.280   0.142  0.3450 -0.5385 -0.1865
  114MOL0     C15313  11.294   4.187   0.246  0.0316 -0.0804 -0.4377
  114MOL0     O15314  11.352   4.071   0.264  0.5109  0.0969 -0.3033
  114MOL0     C15315  11.461   4.052   0.182  0.8243  0.3465  0.9523
  114MOL0     C15316  11.548   3.931   0.223  0.5337  0.0202  0.4603
  114MOL0     C15317  11.476   3.804   0.189  0.3078 -0.5481  0.2371
  114MOL0     C15318  11.513   3.759   0.051  1.2252 -0.4834 -1.4064
  114MOL0     C15319  11.424   3.664  -0.008 -0.0657  1.0628 -0.3248
  114MOL0     C15320  11.356   3.570  -0.051  0.4894 -0.6369 -1.0492
  114MOL0     C15321  11.195   4.212   0.344  0.2626  0.5130 -0.0316
  114MOL0     C15322  11.132   4.333   0.350 -0.3115  0.6275  0.7843
  114MOL0     H15323  10.781   4.568   0.115 -2.4081  0.1540 -0.5653
  114MOL0     H15324  10.613   4.732   0.105  1.9348 -2.0909 -2.4279
  114MOL0     H15325  10.504   4.904   0.066  0.5178 -0.3757  0.1844
  114MOL0     H15326  10.417   5.027   0.164 -0.9194 -1.4086 -0.3361
  114MOL0     H15327  10.605   5.178   0.161  2.3139  0.8832 -0.4738
  114MOL0     H15328  10.707   5.065   0.081  0.8882 -0.2040 -2.0774
  114MOL0     H15329  10.549   5.068  -0.104 -0.2442  1.7402 -1.8709
  114MOL0     H15330  10.450   5.202  -0.041 -2.6335 -2.5670 -0.7090
  114MOL0     H15331  10.588   5.285  -0.196 -3.9322  1.0063  1.8122
  114MOL0     H15332  10.633   5.360  -0.048  0.4408  0.1449 -0.3392
  114MOL0     H15333  10.837   5.214  -0.040  0.9941  3.2166  0.7603
  114MOL0     H15334  10.799   5.130  -0.184 -0.7102 -0.0727 -0.8729
  114MOL0     H15335  10.779   5.440  -0.191  1.8460 -0.2273  1.7350
  114MOL0     H15336  10.944   5.375  -0.192  1.6744  3.4029 -6.7332
  114MOL0     H15337  10.944   5.279  -0.378  0.9239 -0.9694  2.3245
  114MOL0     H15338  10.773   5.260  -0.400 -0.6672  2.8691 -2.7730
  114MOL0     H15339  10.915   5.535  -0.394 -0.2758 -0.3389  0.7935
  114MOL0     H15340  10.749   5.512  -0.440 -0.7782 -0.3052 -0.1172
  114MOL0     H15341  11.070   5.579  -0.597 -0.5405 -1.0574  1.6366
  114MOL0     H15342  11.050   5.519  -1.001  2.8322  2.2032 -1.6388
  114MOL0     H15343  11.075   5.658  -0.909  1.0914  0.2887  1.6347
  114MOL0     H15344  11.227   5.418  -0.804 -0.7105  0.4583  0.0009
  114MOL0     H15345  11.268   5.581  -0.791 -1.9160 -0.3574  3.2096
  114MOL0     H15346  11.285   5.579  -1.049 -1.7640  1.1920  2.0608
  114MOL0     H15347  11.223   5.406  -1.041 -2.6444  1.3853  0.9118
  114MOL0     H15348  11.498   5.492  -0.916  0.6099  0.0479 -2.0662
  114MOL0     H15349  11.489   5.421  -1.071 -1.9286  0.4938 -1.5498
  114MOL0     H15350  11.417   5.080  -0.770  1.3316 -3.7163  2.7117
  114MOL0     H15351  11.508   4.886  -0.625 -0.2231  2.4647 -0.0654
  114MOL0     H15352  11.540   4.833  -0.794  1.1298 -0.5165  0.2813
  114MOL0     H15353  11.656   4.830  -0.659  0.6187  1.4786 -0.3763
  114MOL0     H15354  11.991   4.783  -0.549 -1.4213  2.3395 -0.0153
  114MOL0     H15355  12.182   4.706  -0.438  2.3279 -0.7752 -0.0262
  114MOL0     H15356  12.353   4.648  -0.304  1.7037  1.2123  0.5057
  114MOL0     H15357  12.402   4.640  -0.480 -0.5390 -0.7212  0.4854
  114MOL0     H15358  12.623   4.697  -0.400 -1.3649 -0.9401 -1.7424
  114MOL0     H15359  12.568   4.696  -0.239  1.8380  0.6990 -0.4887
  114MOL0     H15360  12.629   4.500  -0.449 -0.3811  1.8321 -0.1274
  114MOL0     H15361  12.475   4.451  -0.363 -0.2817  0.7772 -0.9161
  114MOL0     H15362  12.761   4.469  -0.269 -0.6173  2.2599  1.3155
  114MOL0     H15363  12.622   4.459  -0.145 -1.3621 -0.0645  0.0335
  114MOL0     H15364  12.722   4.274  -0.364 -2.2269 -2.3097 -0.8557
  114MOL0     H15365  12.562   4.249  -0.311  2.1554 -2.8243 -1.0573
  114MOL0     H15366  12.666   4.206  -0.064 -1.7325  0.0950  0.4624
  114MOL0     H15367  12.706   4.099  -0.189 -0.0514  0.6025  0.4343
  114MOL0     H15368  12.887   4.343  -0.117 -3.8523  0.2603  2.2341
  114MOL0     H15369  12.914   4.183  -0.212 -1.6890 -2.8366  0.1346
  114MOL0     H15370  12.855   4.230   0.072  2.4445  2.3279  0.9376
  114MOL0     H15371  13.016   4.177   0.015  0.1714 -0.9424 -0.3541
  114MOL0     H15372  12.397   5.069  -0.508 -0.9811  0.4533  0.9855
  114MOL0     H15373  12.228   5.150  -0.633 -2.3192 -0.2285 -1.3891
  114MOL0     H15374  11.881   5.227  -0.834  0.5942 -1.3525 -0.7125
  114MOL0     H15375  11.683   5.388  -0.906 -1.3677  0.8232 -0.9651
  114MOL0     H15376  10.707   4.905   0.472 -2.5150 -0.0416  0.3406
  114MOL0     H15377  10.900   4.746   0.506 -0.0310  4.6047  0.1259
  114MOL0     H15378  11.247   4.476   0.074  0.5847 -1.7495 -2.2274
  114MOL0     H15379  11.374   4.256   0.051 -0.7975 -2.4781 -0.3985
  114MOL0     H15380  11.420   4.041   0.081  1.1823  1.9660  0.5936
  114MOL0     H15381  11.531   4.137   0.181  4.1812 -2.0896 -2.4540
  114MOL0     H15382  11.563   3.933   0.332 -0.7381 -2.0097  0.7151
  114MOL0     H15383  11.638   3.943   0.162  2.0552  1.6107  2.8180
  114MOL0     H15384  11.368   3.818   0.197  0.6437  1.7439  1.7140
  114MOL0     H15385  11.489   3.731   0.270 -2.9807 -2.6907 -0.9620
  114MOL0     H15386  11.614   3.719   0.054  0.3349 -2.8587 -0.6216
  114MOL0     H15387  11.520   3.849  -0.011 -1.2057  0.8406  0.0472
  114MOL0     H15388  11.287   3.495  -0.082 -1.2709  0.6695 -0.4821
  114MOL0     H15389  11.164   4.155   0.431  2.2292  1.8329  1.6443
  114MOL0     H15390  11.066   4.343   0.436  0.1544 -0.6750  1.3229
  115MOL0     O15391   1.109   8.460   1.979  0.6064 -0.3900 -0.5396
  115MOL0     C15392   1.105   8.514   1.868  0.2469  0.4287 -0.4717
  115MOL0     O15393   1.030   8.474   1.767 -0.1714 -0.0082 -0.5370
  115MOL0     C15394   0.917   8.407   1.793  0.6987  0.0204  0.0396
  115MOL0     C15395   0.885   8.314   1.699 -0.0305 -0.1185  0.7890
  115MOL0     C15396   0.774   8.229   1.717  0.3636  0.4814 -0.5490
  115MOL0     C15397   0.694   8.248   1.834  0.5934  0.0330  0.4262
  115MOL0     O15398   0.572   8.187   1.845  0.3100  0.1752  0.4173
  115MOL0     C15399   0.548   8.065   1.774  0.2447 -0.6123 -0.5310
  115MOL0     C15400   0.409   8.015   1.810 -0.3186  0.0376 -0.2486
  115MOL0     C15401   0.373   7.892   1.721  0.3379  0.1630  0.1986
  115MOL0     C15402   0.242   7.837   1.777 -0.4805  0.3465 -0.6700
  115MOL0     C15403   0.208   7.707   1.694  0.2945  0.0238 -0.5527
  115MOL0     C15404   0.091   7.629   1.755 -0.1138  0.3081  0.0042
  115MOL0     C15405   0.074   7.498   1.683  0.7564  0.9855  0.3416
  115MOL0     C15406  -0.054   7.416   1.722 -0.9381 -0.2571  0.1176
  115MOL0     N15407  -0.176   7.501   1.699  0.5777  0.0229  0.0333
  115MOL0     C15408  -0.219   7.538   1.580  0.7956 -0.0786  0.6858
  115MOL0     C15409  -0.345   7.590   1.600  0.9530  0.0767 -0.5947
  115MOL0     C15410  -0.443   7.639   1.496  0.0592 -0.7676 -0.0876
  115MOL0     C15411  -0.501   7.513   1.431  0.1527 -0.1323 -0.2808
  115MOL0     C15412  -0.604   7.544   1.321 -0.0212  0.2870 -1.2016
  115MOL0     C15413  -0.747   7.557   1.371  0.6161 -0.1234  0.3707
  115MOL0     O15414  -0.834   7.586   1.264  0.0768 -0.0225 -0.2706
  115MOL0     C15415  -0.968   7.586   1.297 -0.2558 -0.1622  1.2322
  115MOL0     C15416  -1.025   7.599   1.422 -0.1031 -0.0865 -0.3366
  115MOL0     C15417  -1.159   7.602   1.444  0.6377 -0.3848 -0.4859
  115MOL0     C15418  -1.206   7.605   1.594 -0.4166 -0.8110 -0.0625
  115MOL0     C15419  -1.249   7.591   1.345 -0.0786  0.5214  0.0216
  115MOL0     C15420  -1.398   7.596   1.353 -0.0409  0.2052  0.1552
  115MOL0     O15421  -1.463   7.601   1.233 -0.0448 -0.6218 -0.1826
  115MOL0     C15422  -1.596   7.571   1.221  0.1457  0.0114 -0.4148
  115MOL0     C15423  -1.668   7.478   1.294 -0.4637  0.3341  0.8652
  115MOL0     C15424  -1.792   7.423   1.262  0.4358  0.6482  0.4419
  115MOL0     C15425  -1.859   7.479   1.154 -0.1775 -0.3921 -0.3162
  115MOL0     O15426  -1.981   7.432   1.127 -0.0828  0.2424 -0.2985
  115MOL0     C15427  -1.972   7.339   1.013  0.3681 -0.6850 -0.9309
  115MOL0     C15428  -2.107   7.299   0.952  0.4115 -0.4086 -0.4770
  115MOL0     C15429  -2.168   7.391   0.851 -0.4370  0.5360  0.1190
  115MOL0     C15430  -2.155   7.541   0.905 -0.7944 -0.3996 -0.1632
  115MOL0     C15431  -2.248   7.641   0.833  0.8463 -0.3797 -0.4051
  115MOL0     C15432  -2.233   7.633   0.677 -0.4560 -0.6014 -0.9940
  115MOL0     C15433  -2.085   7.650   0.635  0.1551 -0.6320 -0.6500
  115MOL0     C15434  -2.071   7.695   0.493 -0.5891  0.5251 -0.1342
  115MOL0    Cl15435  -1.904   7.743   0.448  0.0968 -0.3246  0.0827
  115MOL0     C15436  -1.801   7.583   1.077  0.2384  0.2270 -0.2321
  115MOL0     C15437  -1.664   7.628   1.111  0.8410 -1.4520  0.0259
  115MOL0     O15438  -1.458   7.602   1.459 -0.2901 -0.3656 -0.6803
  115MOL0     C15439  -1.194   7.578   1.213 -0.6752 -0.4167  0.1612
  115MOL0     C15440  -1.055   7.571   1.194  0.2440  0.8128 -0.1209
  115MOL0     N15441  -0.367   7.589   1.738  0.4618  0.6329 -0.4883
  115MOL0     N15442  -0.262   7.542   1.797 -0.0426 -0.1448 -0.6956
  115MOL0     C15443   0.722   8.351   1.926  0.3750 -0.6336 -0.1487
  115MOL0     C15444   0.831   8.433   1.904  0.7121 -0.2540  0.7472
  115MOL0     C15445   1.202   8.617   1.837 -0.1733  0.9722 -0.8423
  115MOL0     C15446   1.301   8.672   1.934 -0.5814 -0.0232 -0.2178
  115MOL0     C15447   1.396   8.771   1.894 -0.5419  0.6399  0.1234
  115MOL0     C15448   1.397   8.820   1.762  0.0074  0.3262 -0.2469
  115MOL0     O15449   1.492   8.904   1.710  0.0797 -0.2521 -0.3261
  115MOL0     C15450   1.594   8.955   1.798 -0.0100  0.9099 -0.3475
  115MOL0     C15451   1.717   8.981   1.713 -0.1439 -0.1763 -0.7664
  115MOL0     C15452   1.826   9.057   1.792 -0.7178 -0.5242  0.7971
  115MOL0     C15453   1.947   9.091   1.711 -0.4630  0.1174  0.4897
  115MOL0     C15454   1.905   9.164   1.589  0.1674 -0.5402  0.3223
  115MOL0     C15455   1.870   9.227   1.489 -0.0772 -0.4357  0.4660
  115MOL0     C15456   1.293   8.773   1.674 -0.6627 -0.4400 -0.2598
  115MOL0     C15457   1.203   8.674   1.704  0.0827 -0.2672 -0.6353
  115MOL0     H15458   0.944   8.306   1.609 -0.9473  1.3543  0.0133
  115MOL0     H15459   0.758   8.153   1.641  0.0117 -2.2134  2.0552
  115MOL0     H15460   0.559   8.069   1.665  0.9792 -1.4961 -0.5001
  115MOL0     H15461   0.617   7.995   1.820  0.1207  1.1038  2.5117
  115MOL0     H15462   0.411   7.974   1.911  1.1210  0.4482 -0.0892
  115MOL0     H15463   0.330   8.091   1.802 -1.1097 -0.6905  0.4342
  115MOL0     H15464   0.360   7.925   1.617 -3.4115  1.3452  0.9001
  115MOL0     H15465   0.453   7.818   1.725  1.1713  0.8025 -2.3288
  115MOL0     H15466   0.260   7.811   1.881 -1.4707 -1.6892 -0.9499
  115MOL0     H15467   0.169   7.919   1.781  3.1026  3.8730 -1.5662
  115MOL0     H15468   0.184   7.737   1.591  3.1428 -1.1390 -1.6590
  115MOL0     H15469   0.296   7.641   1.693 -0.6930 -1.3603 -1.5448
  115MOL0     H15470   0.096   7.604   1.861 -1.4798 -2.1666 -0.4450
  115MOL0     H15471   0.003   7.692   1.738 -0.0997  0.0785 -0.9875
  115MOL0     H15472   0.070   7.524   1.577 -1.7310  1.1185  0.4088
  115MOL0     H15473   0.159   7.431   1.697 -0.7588 -0.6603  2.3943
  115MOL0     H15474  -0.046   7.383   1.827  1.8268  3.1312  1.1866
  115MOL0     H15475  -0.059   7.331   1.654 -0.3888 -0.3592  0.1948
  115MOL0     H15476  -0.167   7.534   1.485  1.4729 -0.9301  1.0782
  115MOL0     H15477  -0.521   7.701   1.540 -1.2296 -2.5816  0.2934
  115MOL0     H15478  -0.391   7.700   1.421  1.5240 -3.1821 -1.1958
  115MOL0     H15479  -0.559   7.464   1.509  2.3278 -0.6161  1.0892
  115MOL0     H15480  -0.419   7.448   1.401  2.9487  2.9550  0.0974
  115MOL0     H15481  -0.589   7.479   1.234  0.7630 -1.3922  0.1256
  115MOL0     H15482  -0.572   7.642   1.284  1.9622 -0.6806 -2.2148
  115MOL0     H15483  -0.763   7.637   1.444  0.2027 -0.3105  0.4871
  115MOL0     H15484  -0.785   7.466   1.419 -0.6334 -0.3962 -1.0483
  115MOL0     H15485  -0.962   7.622   1.507 -4.1095  2.6602  2.2168
  115MOL0     H15486  -1.121   7.632   1.656  1.6766 -0.3326 -2.9552
  115MOL0     H15487  -1.294   7.668   1.608  0.9631  1.3939 -0.8668
  115MOL0     H15488  -1.226   7.501   1.621  1.6253 -1.0653  0.6180
  115MOL0     H15489  -1.607   7.440   1.376 -0.3060 -0.2986  0.4684
  115MOL0     H15490  -1.826   7.335   1.317  2.6596 -3.0333 -3.4615
  115MOL0     H15491  -1.903   7.384   0.941  1.4894  3.0184  2.1371
  115MOL0     H15492  -1.930   7.249   1.059  0.7903  0.4320  0.9351
  115MOL0     H15493  -2.093   7.206   0.896  0.3870 -0.2496 -0.7494
  115MOL0     H15494  -2.173   7.285   1.038 -1.1736  0.6047 -1.4684
  115MOL0     H15495  -2.274   7.365   0.842 -0.3401 -0.6218  1.8408
  115MOL0     H15496  -2.126   7.381   0.751  0.9512  4.0024  0.2078
  115MOL0     H15497  -2.159   7.541   1.014  0.6117  1.0270 -0.0711
  115MOL0     H15498  -2.048   7.557   0.885 -0.4278 -1.1985  1.0610
  115MOL0     H15499  -2.228   7.744   0.866 -0.7342 -0.5492  1.2598
  115MOL0     H15500  -2.348   7.613   0.868  1.4616  0.2720  2.1006
  115MOL0     H15501  -2.273   7.536   0.647 -0.3578 -0.6175 -1.0733
  115MOL0     H15502  -2.292   7.714   0.633  0.5508  1.9022  1.8995
  115MOL0     H15503  -2.025   7.562   0.660  1.8217  0.5364 -0.3327
  115MOL0     H15504  -2.049   7.732   0.698  1.7950 -1.2155 -0.7818
  115MOL0     H15505  -2.149   7.771   0.483 -1.4805 -0.2539  0.6245
  115MOL0     H15506  -2.080   7.604   0.433 -1.8966 -0.0533  0.8833
  115MOL0     H15507  -1.854   7.613   0.988 -0.6414  3.4896  1.2436
  115MOL0     H15508  -1.616   7.698   1.044 -2.0016  1.4045  0.7312
  115MOL0     H15509  -1.262   7.597   1.131  0.8427  0.5738 -0.9144
  115MOL0     H15510  -1.008   7.550   1.099  3.6669 -1.8873  1.9186
  115MOL0     H15511   0.662   8.364   2.016  0.4492 -1.6082  0.0453
  115MOL0     H15512   0.848   8.523   1.963  2.3268 -1.3797  2.0911
  115MOL0     H15513   1.292   8.644   2.038 -1.2221 -2.0049 -0.7709
  115MOL0     H15514   1.441   8.827   1.977 -3.6697  0.3668  2.1825
  115MOL0     H15515   1.571   9.043   1.858 -0.2271 -0.4253  1.6118
  115MOL0     H15516   1.634   8.877   1.863 -1.0231 -1.7927 -2.7345
  115MOL0     H15517   1.691   9.039   1.624  0.2890 -3.6790 -3.4126
  115MOL0     H15518   1.757   8.885   1.678  2.1545  0.2441  0.4806
  115MOL0     H15519   1.872   8.994   1.868  1.1211  0.8988  0.9278
  115MOL0     H15520   1.789   9.143   1.849  0.9254  0.2243  0.7914
  115MOL0     H15521   2.010   9.012   1.669  2.8303  2.8883 -0.2236
  115MOL0     H15522   2.026   9.140   1.768  0.6885 -0.4543 -0.5649
  115MOL0     H15523   1.825   9.256   1.396 -0.9928 -3.8661 -0.3060
  115MOL0     H15524   1.296   8.800   1.569 -2.4705  0.8391 -0.0265
  115MOL0     H15525   1.144   8.630   1.624 -1.7808 -3.5551  2.2353
  116MOL0     O15526   1.160   7.521   2.439 -0.0213  0.4052  0.6420
  116MOL0     C15527   1.235   7.449   2.504 -0.8000 -0.1209  0.8341
  116MOL0     O15528   1.323   7.495   2.600 -0.7545 -0.2064 -0.0926
  116MOL0     C15529   1.334   7.624   2.629  0.0092 -0.0143 -0.5621
  116MOL0     C15530   1.392   7.719   2.541 -1.1942  0.1514  0.1699
  116MOL0     C15531   1.405   7.855   2.579  0.0753  0.6331  0.1885
  116MOL0     C15532   1.364   7.897   2.702  0.0250 -0.8023 -0.6953
  116MOL0     O15533   1.402   8.021   2.732  0.1736  0.3084 -0.3376
  116MOL0     C15534   1.301   8.097   2.790  1.0530 -0.6065 -0.4394
  116MOL0     C15535   1.277   8.230   2.714 -0.4916 -0.2314 -0.7503
  116MOL0     C15536   1.163   8.306   2.788  1.0565  0.4084  0.0094
  116MOL0     C15537   1.161   8.456   2.757 -0.2193 -0.1985 -0.2926
  116MOL0     C15538   1.014   8.509   2.792  0.5037 -1.2392  0.2538
  116MOL0     C15539   0.989   8.660   2.740 -0.0167 -1.1585  0.3536
  116MOL0     C15540   0.841   8.702   2.735  0.2582 -1.1858  1.0851
  116MOL0     C15541   0.814   8.839   2.680  0.7094 -0.1020  0.0115
  116MOL0     N15542   0.767   8.829   2.540  0.0968  0.5275 -0.4989
  116MOL0     C15543   0.762   8.715   2.455 -0.7185  0.0622 -1.0980
  116MOL0     C15544   0.701   8.758   2.345  0.4708  0.3520  0.4285
  116MOL0     C15545   0.693   8.679   2.212 -0.3736  0.4705 -0.0199
  116MOL0     C15546   0.557   8.618   2.203 -0.2098 -0.1437 -0.0524
  116MOL0     C15547   0.523   8.510   2.307  0.6454 -0.6884  0.2969
  116MOL0     C15548   0.374   8.458   2.295 -0.1311 -0.0342 -0.1650
  116MOL0     O15549   0.378   8.360   2.188  0.7241 -0.2207 -0.9241
  116MOL0     C15550   0.260   8.304   2.155  0.1313  1.2735  0.2539
  116MOL0     C15551   0.145   8.324   2.226 -0.2858 -0.7248 -0.4914
  116MOL0     C15552   0.033   8.235   2.212  0.7821  0.3225  0.1186
  116MOL0     C15553  -0.082   8.258   2.314  0.0188  0.1107  0.7420
  116MOL0     C15554   0.041   8.136   2.118  0.7513  0.1053  0.7280
  116MOL0     C15555  -0.061   8.020   2.106  0.0783  0.0145  0.2532
  116MOL0     O15556  -0.193   8.039   2.142  0.4879  0.0064  0.1826
  116MOL0     C15557  -0.295   7.941   2.149  0.4081 -0.6467 -0.5349
  116MOL0     C15558  -0.297   7.810   2.099 -0.5192 -0.6503 -0.4516
  116MOL0     C15559  -0.413   7.733   2.116  0.2296  0.3791 -0.3171
  116MOL0     C15560  -0.527   7.780   2.186 -0.4793  1.0681  0.4854
  116MOL0     O15561  -0.634   7.697   2.214 -0.3142  0.1353  0.3274
  116MOL0     C15562  -0.634   7.556   2.190 -0.1108 -0.1020  0.0259
  116MOL0     C15563  -0.774   7.509   2.230 -0.0395 -0.2454 -0.0689
  116MOL0     C15564  -0.873   7.542   2.120 -0.5857 -0.5983 -1.2945
  116MOL0     C15565  -1.007   7.478   2.149 -0.1381  0.7591 -0.7035
  116MOL0     C15566  -1.109   7.498   2.044  0.4442  0.0669  0.4263
  116MOL0     C15567  -1.249   7.451   2.059  0.1094  0.8912 -0.4779
  116MOL0     C15568  -1.334   7.495   1.928 -0.0787 -0.0047  0.0279
  116MOL0     C15569  -1.488   7.472   1.933 -0.3749 -0.0985  0.0058
  116MOL0    Cl15570  -1.572   7.600   1.846 -0.4350  0.0763 -0.0859
  116MOL0     C15571  -0.532   7.921   2.211 -0.5987  0.2857  0.4032
  116MOL0     C15572  -0.411   7.995   2.199  0.6411 -0.7269 -1.0491
  116MOL0     O15573  -0.018   7.912   2.057 -0.1605 -0.1559  0.3530
  116MOL0     C15574   0.152   8.134   2.027 -0.4145 -0.7338  0.0267
  116MOL0     C15575   0.266   8.212   2.052 -0.3856 -0.2593  0.0218
  116MOL0     N15576   0.654   8.890   2.354 -0.2108  1.1323  0.2604
  116MOL0     N15577   0.694   8.923   2.478  0.7124 -0.7057  1.2455
  116MOL0     C15578   1.315   7.801   2.792  0.3392 -0.1921 -0.0025
  116MOL0     C15579   1.290   7.672   2.754 -0.0392  0.2205 -0.2435
  116MOL0     C15580   1.240   7.305   2.467  0.3745 -0.3057  0.4535
  116MOL0     C15581   1.197   7.268   2.342 -0.0582 -0.0160 -0.9082
  116MOL0     C15582   1.186   7.134   2.306  0.1201 -0.2767  0.4705
  116MOL0     C15583   1.230   7.033   2.395  0.5964 -0.5662 -0.5127
  116MOL0     O15584   1.217   6.899   2.373 -0.4365  0.4300  0.3414
  116MOL0     C15585   1.255   6.847   2.249  0.7016 -0.0509 -0.3988
  116MOL0     C15586   1.394   6.809   2.272 -0.8463  0.5105  0.5569
  116MOL0     C15587   1.416   6.664   2.212  0.3901  0.5177 -0.1849
  116MOL0     C15588   1.566   6.644   2.184 -0.1600  0.0608 -0.7653
  116MOL0     C15589   1.605   6.509   2.146 -0.4764 -0.4152 -0.7247
  116MOL0     C15590   1.627   6.399   2.108  0.1901  0.0921  0.6789
  116MOL0     C15591   1.292   7.069   2.513 -0.1260 -0.2508 -0.2632
  116MOL0     C15592   1.299   7.203   2.547 -0.3700 -1.1690  0.7631
  116MOL0     H15593   1.430   7.672   2.450 -1.2205 -0.5543  0.5160
  116MOL0     H15594   1.465   7.926   2.523 -3.0054  0.9356 -3.2005
  116MOL0     H15595   1.200   8.055   2.796  0.6531  0.4399  0.4504
  116MOL0     H15596   1.326   8.109   2.896 -2.8274 -2.8099  0.9225
  116MOL0     H15597   1.364   8.296   2.714 -1.5620  1.2353 -0.5999
  116MOL0     H15598   1.250   8.203   2.612  0.7668 -1.2238 -0.8379
  116MOL0     H15599   1.071   8.255   2.758  0.5118  0.6133  1.2686
  116MOL0     H15600   1.175   8.300   2.897  1.2030 -0.0802 -0.0321
  116MOL0     H15601   1.246   8.507   2.804  2.7855 -4.4476 -0.6185
  116MOL0     H15602   1.177   8.465   2.650 -0.8908  1.9058 -0.2598
  116MOL0     H15603   0.953   8.439   2.734  1.2899 -1.8306  0.1277
  116MOL0     H15604   0.997   8.497   2.899  1.3377  1.2629  0.7374
  116MOL0     H15605   1.047   8.731   2.800  3.3048 -2.7083 -0.7592
  116MOL0     H15606   1.039   8.653   2.643  0.5221 -0.0729  0.5414
  116MOL0     H15607   0.780   8.626   2.685  0.3847  1.5908 -3.9765
  116MOL0     H15608   0.808   8.713   2.839 -1.2132  2.7434  0.3887
  116MOL0     H15609   0.893   8.915   2.682 -0.9418  1.7086 -0.2787
  116MOL0     H15610   0.735   8.885   2.740 -0.2495 -0.2397 -1.1101
  116MOL0     H15611   0.810   8.620   2.476  0.2998  1.1475  2.0795
  116MOL0     H15612   0.715   8.760   2.141  0.6415  0.0015 -0.2566
  116MOL0     H15613   0.775   8.606   2.219 -2.3939 -1.7294  3.6291
  116MOL0     H15614   0.538   8.573   2.106 -0.2618 -0.3923  0.0736
  116MOL0     H15615   0.479   8.695   2.206 -3.6380 -3.3996  0.3933
  116MOL0     H15616   0.528   8.536   2.413 -0.6877  0.8108  0.0419
  116MOL0     H15617   0.601   8.437   2.286  2.5330  2.0034 -3.1843
  116MOL0     H15618   0.306   8.542   2.278  0.1218 -0.1049 -1.6796
  116MOL0     H15619   0.342   8.417   2.391  1.2462  2.0836  1.2651
  116MOL0     H15620   0.143   8.400   2.303  0.6731 -1.7130  0.5423
  116MOL0     H15621  -0.061   8.346   2.376  0.7788 -0.3073  1.0890
  116MOL0     H15622  -0.175   8.279   2.260 -0.7137 -2.1098  1.0646
  116MOL0     H15623  -0.105   8.174   2.379  0.5124  0.0109  0.7943
  116MOL0     H15624  -0.220   7.777   2.030 -0.1307  1.0936 -0.8783
  116MOL0     H15625  -0.416   7.635   2.069 -2.5560  0.1935  0.0842
  116MOL0     H15626  -0.623   7.526   2.085 -1.1809  0.9643 -0.4260
  116MOL0     H15627  -0.568   7.499   2.255 -0.1453 -3.6940 -2.8084
  116MOL0     H15628  -0.774   7.400   2.239  1.1347 -0.1647  1.2774
  116MOL0     H15629  -0.802   7.543   2.331  2.6343  0.0396  0.6535
  116MOL0     H15630  -0.850   7.504   2.020 -1.6122  0.8711 -2.1360
  116MOL0     H15631  -0.891   7.650   2.112 -0.2984 -0.5078 -0.7326
  116MOL0     H15632  -0.982   7.372   2.152  2.3261  1.3005 -0.3393
  116MOL0     H15633  -1.046   7.515   2.244  1.8512  1.7970 -0.2454
  116MOL0     H15634  -1.072   7.457   1.950  0.3457  0.8896  0.0126
  116MOL0     H15635  -1.110   7.607   2.030 -1.1355  0.1942  1.3097
  116MOL0     H15636  -1.261   7.344   2.079 -3.6340  1.0088 -1.2344
  116MOL0     H15637  -1.295   7.499   2.146  0.4437 -0.1993  0.3295
  116MOL0     H15638  -1.291   7.428   1.853 -0.1007  0.2004 -0.1697
  116MOL0     H15639  -1.307   7.599   1.906 -0.8077 -0.0122 -0.9962
  116MOL0     H15640  -1.526   7.473   2.036  1.1551 -1.0411  0.6134
  116MOL0     H15641  -1.507   7.376   1.885  0.6790 -0.8733  1.0922
  116MOL0     H15642  -0.617   7.963   2.263 -1.1636 -0.7755  0.3706
  116MOL0     H15643  -0.400   8.092   2.245  2.7153 -2.2365  1.9439
  116MOL0     H15644   0.157   8.057   1.951 -1.9396  0.2083 -1.0769
  116MOL0     H15645   0.356   8.183   1.998 -0.5210  1.2247 -1.0539
  116MOL0     H15646   1.291   7.831   2.894 -0.9253 -0.2532 -0.2670
  116MOL0     H15647   1.250   7.592   2.814 -1.8878 -2.1498 -4.1998
  116MOL0     H15648   1.153   7.342   2.276  0.1842  2.8531  1.9002
  116MOL0     H15649   1.157   7.107   2.204  1.8799  1.2358 -0.4875
  116MOL0     H15650   1.201   6.756   2.224  0.4689 -0.5321  1.7063
  116MOL0     H15651   1.248   6.919   2.166 -1.1349  2.0724  1.4779
  116MOL0     H15652   1.437   6.816   2.373  1.5532 -2.4330 -0.1080
  116MOL0     H15653   1.454   6.877   2.209  0.9638  2.7045  4.2816
  116MOL0     H15654   1.366   6.652   2.115 -2.2436  0.0423  1.1511
  116MOL0     H15655   1.372   6.586   2.275 -1.8491  0.8251 -1.2728
  116MOL0     H15656   1.629   6.655   2.273  2.5461  2.5445 -2.8238
  116MOL0     H15657   1.603   6.717   2.112  0.1536  0.6420 -0.0264
  116MOL0     H15658   1.660   6.307   2.064 -0.7913  1.1256 -2.4636
  116MOL0     H15659   1.328   6.990   2.579 -0.0822 -0.0465 -0.0413
  116MOL0     H15660   1.349   7.234   2.639 -2.0826 -1.3033  1.7816
  117MOL0     O15661   9.584  10.993   5.923 -0.5556 -0.2207  0.1024
  117MOL0     C15662   9.461  10.982   5.914 -0.8927  0.3251 -0.0759
  117MOL0     O15663   9.398  10.921   5.821 -0.1148  0.0676 -0.5627
  117MOL0     C15664   9.464  10.850   5.715 -0.1667 -0.4388 -0.0083
  117MOL0     C15665   9.385  10.840   5.599 -0.4079 -0.6659 -0.3124
  117MOL0     C15666   9.442  10.781   5.480 -0.1970 -0.8140 -0.6416
  117MOL0     C15667   9.573  10.729   5.480 -0.8569  0.0382  0.3651
  117MOL0     O15668   9.616  10.696   5.349  0.4118 -0.1936 -0.0339
  117MOL0     C15669   9.720  10.610   5.354  1.0904  0.4163  0.2494
  117MOL0     C15670   9.776  10.589   5.213 -0.3521 -0.2837  0.2232
  117MOL0     C15671   9.922  10.522   5.226  0.7907 -0.6860  0.0361
  117MOL0     C15672   9.978  10.475   5.091  0.3675 -0.2700 -0.5164
  117MOL0     C15673  10.107  10.393   5.109 -0.9429 -0.2809  1.7376
  117MOL0     C15674  10.157  10.332   4.982 -0.0653 -0.2740  0.3710
  117MOL0     C15675  10.279  10.245   5.004 -0.5644 -0.2306  0.2356
  117MOL0     C15676  10.358  10.235   4.871  0.1959  0.0850 -0.0780
  117MOL0     N15677  10.499  10.212   4.888 -0.2911 -0.7745 -0.5048
  117MOL0     C15678  10.589  10.307   4.852  0.3499  0.0318  0.0263
  117MOL0     C15679  10.707  10.271   4.912  0.4736 -0.1307  0.1679
  117MOL0     C15680  10.832  10.348   4.922  0.7898  0.5628 -0.0934
  117MOL0     C15681  10.851  10.404   5.064 -0.5141  0.3759  0.1978
  117MOL0     C15682  10.954  10.513   5.085 -0.7826  0.5918 -0.0855
  117MOL0     C15683  11.101  10.485   5.018  0.0317  0.8944 -0.4092
  117MOL0     O15684  11.141  10.366   5.087  0.3116  0.8469 -0.0422
  117MOL0     C15685  11.271  10.325   5.075  0.4263 -0.3086  0.0312
  117MOL0     C15686  11.288  10.196   5.034 -0.7514  0.9052  0.2004
  117MOL0     C15687  11.409  10.137   5.016  0.0114  0.2825 -1.1230
  117MOL0     C15688  11.416   9.994   4.955 -0.3738 -1.0347  1.4125
  117MOL0     C15689  11.525  10.206   5.064 -0.6382  0.6536  0.2106
  117MOL0     C15690  11.666  10.147   5.067  0.4774 -0.8390  0.0299
  117MOL0     O15691  11.774  10.231   5.049  0.4175  0.0417  0.4335
  117MOL0     C15692  11.898  10.179   5.037  0.1250 -0.7912 -0.5977
  117MOL0     C15693  11.952  10.128   4.920 -0.1553 -0.4410  0.0085
  117MOL0     C15694  12.090  10.083   4.907  0.2822 -0.7683  0.2521
  117MOL0     C15695  12.169  10.096   5.020 -0.0543 -0.0426 -0.3384
  117MOL0     O15696  12.300  10.054   5.034 -0.4670  0.1910 -0.3055
  117MOL0     C15697  12.367  10.010   4.919  0.4362 -0.1475  0.1730
  117MOL0     C15698  12.506   9.951   4.949 -1.0165 -0.2010 -0.0587
  117MOL0     C15699  12.606  10.062   4.964  0.3716 -0.0715  0.4685
  117MOL0     C15700  12.742  10.010   5.018 -0.3414  0.0710 -1.0278
  117MOL0     C15701  12.863  10.110   5.022 -0.0170 -0.0826 -0.3907
  117MOL0     C15702  12.861  10.197   5.152 -0.4479  0.3941  0.0488
  117MOL0     C15703  12.867  10.130   5.297 -0.0028  0.2558  0.7554
  117MOL0     C15704  12.896  10.231   5.406 -0.0105  0.8414  0.0342
  117MOL0    Cl15705  13.058  10.323   5.405 -0.0330 -0.2102 -0.4368
  117MOL0     C15706  12.117  10.155   5.134 -1.6704  0.4214  0.1306
  117MOL0     C15707  11.983  10.192   5.144 -0.7657  0.6327 -1.0862
  117MOL0     O15708  11.670  10.021   5.090  0.4725 -0.5508 -0.0907
  117MOL0     C15709  11.507  10.332   5.114  0.7553 -0.2403 -0.0164
  117MOL0     C15710  11.379  10.400   5.110  0.4685 -0.1410 -0.7081
  117MOL0     N15711  10.682  10.158   4.993  0.5764  0.5557  0.1546
  117MOL0     N15712  10.553  10.119   4.974  0.2918 -0.8322 -0.3863
  117MOL0     C15713   9.646  10.732   5.600  0.0556 -0.5668 -0.4893
  117MOL0     C15714   9.592  10.793   5.715  0.2743 -0.4244  0.0949
  117MOL0     C15715   9.378  11.024   6.027  0.1960  0.2158  0.2280
  117MOL0     C15716   9.443  11.057   6.147  0.6352  0.5576 -0.4832
  117MOL0     C15717   9.367  11.116   6.246 -0.7352 -0.8330 -0.4913
  117MOL0     C15718   9.236  11.149   6.231 -0.3139  0.0527 -0.4058
  117MOL0     O15719   9.155  11.227   6.309  1.2302 -0.1324  0.4425
  117MOL0     C15720   9.217  11.297   6.411 -0.1888 -0.6124  0.3898
  117MOL0     C15721   9.210  11.227   6.545  0.5954  0.4133  0.1735
  117MOL0     C15722   9.055  11.220   6.589 -0.2250  0.2226  0.5230
  117MOL0     C15723   9.033  11.164   6.733  0.1662  0.2634 -0.2637
  117MOL0     C15724   9.143  11.176   6.830  0.3948  0.0263  0.1492
  117MOL0     C15725   9.229  11.196   6.912 -0.4376  0.2558 -0.4382
  117MOL0     C15726   9.175  11.108   6.113  0.5849 -0.1357  0.0028
  117MOL0     C15727   9.242  11.038   6.014  0.0973 -0.9681  0.5849
  117MOL0     H15728   9.282  10.876   5.608  0.5668  1.7750  2.9399
  117MOL0     H15729   9.378  10.784   5.393 -1.1900  2.2394  0.0867
  117MOL0     H15730   9.810  10.644   5.407  1.4013  1.7711 -1.1014
  117MOL0     H15731   9.689  10.512   5.393 -1.9196  1.7276  1.5293
  117MOL0     H15732   9.704  10.531   5.156 -0.7038 -0.7598  1.1304
  117MOL0     H15733   9.790  10.689   5.171  2.8497 -0.0375  1.5973
  117MOL0     H15734   9.994  10.583   5.280  0.4895 -1.2282  1.0758
  117MOL0     H15735   9.916  10.434   5.291  3.3997 -1.0294 -0.0984
  117MOL0     H15736   9.901  10.409   5.051 -1.0059  1.8987 -1.6782
  117MOL0     H15737   9.990  10.561   5.024 -3.2137  0.7272 -0.0907
  117MOL0     H15738  10.193  10.448   5.148  2.8779 -2.6402 -2.3965
  117MOL0     H15739  10.087  10.314   5.181  1.6057 -1.0177  1.7372
  117MOL0     H15740  10.072  10.280   4.936 -0.2670  1.3134 -1.1874
  117MOL0     H15741  10.186  10.405   4.905 -0.6145  0.9435  1.2719
  117MOL0     H15742  10.339  10.300   5.077 -0.3780  3.4946 -2.4171
  117MOL0     H15743  10.256  10.144   5.038  1.6785 -0.6102  0.7893
  117MOL0     H15744  10.332  10.314   4.799 -1.7124 -0.8465 -0.4973
  117MOL0     H15745  10.306  10.151   4.823 -1.2483 -0.1333  1.7698
  117MOL0     H15746  10.577  10.399   4.796  2.0721  0.4562  0.3215
  117MOL0     H15747  10.911  10.278   4.894 -0.8234 -0.7167 -1.6965
  117MOL0     H15748  10.834  10.422   4.841  1.6354  2.9995  2.0269
  117MOL0     H15749  10.864  10.315   5.126 -3.5463  0.3515  0.9510
  117MOL0     H15750  10.758  10.443   5.107 -0.3976  1.4071 -0.4537
  117MOL0     H15751  10.958  10.523   5.194 -1.4051 -0.1607  0.0148
  117MOL0     H15752  10.917  10.609   5.049  0.7525  1.7418  1.2611
  117MOL0     H15753  11.170  10.569   5.034  0.9988 -0.2160  1.5330
  117MOL0     H15754  11.099  10.467   4.910 -0.3596 -1.6459 -0.0291
  117MOL0     H15755  11.196  10.139   5.023 -0.6585 -0.4131  4.4512
  117MOL0     H15756  11.510   9.981   4.899 -0.2340  0.6470  1.2147
  117MOL0     H15757  11.417   9.921   5.036 -1.7763  1.0985  3.4881
  117MOL0     H15758  11.328   9.984   4.891 -0.8044  1.3541  1.5583
  117MOL0     H15759  11.897  10.109   4.828 -0.7076 -0.0273  0.2501
  117MOL0     H15760  12.128  10.049   4.811  0.1461  2.1430 -0.9376
  117MOL0     H15761  12.307   9.931   4.873 -1.4744 -0.2633  2.6779
  117MOL0     H15762  12.384  10.085   4.842  3.0576 -1.1689 -0.3751
  117MOL0     H15763  12.509   9.888   5.039  0.8995  1.9665  1.5068
  117MOL0     H15764  12.537   9.895   4.860  2.0566  1.7021 -0.3441
  117MOL0     H15765  12.556  10.141   5.021  2.0704  2.1326 -0.9200
  117MOL0     H15766  12.619  10.119   4.872  2.6020  0.9615  1.3432
  117MOL0     H15767  12.729   9.964   5.116  2.2957  0.6516 -0.3132
  117MOL0     H15768  12.776   9.931   4.949 -3.6619 -0.1080 -2.6354
  117MOL0     H15769  12.868  10.170   4.931  0.2377 -2.8446 -2.3517
  117MOL0     H15770  12.953  10.047   5.021  0.8026  1.0660 -0.8970
  117MOL0     H15771  12.953  10.255   5.141 -0.3429  0.0439 -1.0100
  117MOL0     H15772  12.770  10.255   5.134  0.1238  0.7500 -1.9345
  117MOL0     H15773  12.943  10.052   5.296  0.0899  0.2086 -2.8157
  117MOL0     H15774  12.772  10.081   5.320  0.2319 -2.1511 -2.5669
  117MOL0     H15775  12.879  10.183   5.503 -0.5422 -1.8128 -1.2606
  117MOL0     H15776  12.829  10.316   5.395  0.4553  1.0275 -1.6130
  117MOL0     H15777  12.193  10.167   5.211  0.4498  2.0810 -2.0303
  117MOL0     H15778  11.948  10.241   5.234  0.4024 -1.2495  0.4725
  117MOL0     H15779  11.577  10.404   5.155 -0.3678  1.4129 -0.8813
  117MOL0     H15780  11.359  10.495   5.159 -0.3526 -1.4070  1.6062
  117MOL0     H15781   9.745  10.688   5.599 -0.4823 -1.8947  1.2077
  117MOL0     H15782   9.659  10.800   5.800 -3.1382 -2.0152  3.2516
  117MOL0     H15783   9.547  11.031   6.166  0.1626 -2.1731 -1.1580
  117MOL0     H15784   9.419  11.128   6.341  1.1458 -0.8961 -1.4782
  117MOL0     H15785   9.317  11.330   6.381  0.0181 -1.1271  0.4978
  117MOL0     H15786   9.168  11.393   6.431  0.9153  0.1560 -0.4240
  117MOL0     H15787   9.271  11.276   6.621  0.8544  0.1323  0.1459
  117MOL0     H15788   9.251  11.126   6.532  1.1335  0.3058  2.3732
  117MOL0     H15789   9.016  11.143   6.521  2.6757 -1.2533  0.3631
  117MOL0     H15790   9.003  11.315   6.580  1.0711  0.8679 -0.5446
  117MOL0     H15791   9.013  11.057   6.735 -1.1085  0.4805 -0.7368
  117MOL0     H15792   8.946  11.212   6.779  1.0569  2.0489 -0.3206
  117MOL0     H15793   9.309  11.198   6.982  0.1088 -2.8658 -0.8184
  117MOL0     H15794   9.072  11.139   6.097  0.6609  0.5959  0.8438
  117MOL0     H15795   9.183  11.007   5.929 -0.0610 -2.3534  1.1820
  118MOL0     O15796   6.688  10.021   7.707 -0.2124  0.4564  0.7834
  118MOL0     C15797   6.606  10.036   7.798 -0.5844  0.2343 -1.2605
  118MOL0     O15798   6.636  10.080   7.927  0.3199 -0.1488 -0.0673
  118MOL0     C15799   6.758  10.069   7.970  0.0405 -0.2746 -0.7225
  118MOL0     C15800   6.826  10.200   8.002 -0.4239 -0.2858 -1.1213
  118MOL0     C15801   6.962  10.188   8.052  0.7025  0.1054  0.4713
  118MOL0     C15802   7.016  10.061   8.082  0.0315  0.4247 -0.2162
  118MOL0     O15803   7.135  10.080   8.155  0.2550 -0.2987  0.4091
  118MOL0     C15804   7.201   9.960   8.190 -0.2392 -0.5936 -0.3501
  118MOL0     C15805   7.271   9.882   8.080 -0.4988 -0.6453 -0.7691
  118MOL0     C15806   7.322   9.734   8.131  0.5554 -0.6632  0.4619
  118MOL0     C15807   7.315   9.649   8.006  0.0169 -0.5263 -0.4970
  118MOL0     C15808   7.372   9.504   8.032 -0.1969 -0.3307 -0.6531
  118MOL0     C15809   7.321   9.418   7.915 -0.0757 -0.1666 -0.2288
  118MOL0     C15810   7.372   9.269   7.936 -0.7245  0.3305  0.3297
  118MOL0     C15811   7.519   9.264   7.890  0.0331 -0.0019 -0.4548
  118MOL0     N15812   7.568   9.126   7.880 -1.1753  0.0577  0.2313
  118MOL0     C15813   7.601   9.035   7.976 -0.2836 -0.3204 -0.5230
  118MOL0     C15814   7.638   8.921   7.908 -0.2239 -0.1881 -0.1328
  118MOL0     C15815   7.692   8.791   7.969  1.0622 -0.3296 -0.0345
  118MOL0     C15816   7.584   8.691   8.011 -0.6233 -1.0622  0.1975
  118MOL0     C15817   7.637   8.583   8.096 -0.2343  0.2213  0.4726
  118MOL0     C15818   7.535   8.467   8.093  0.1080  0.1426  1.0339
  118MOL0     O15819   7.398   8.509   8.100 -0.3162 -0.2395 -0.2042
  118MOL0     C15820   7.336   8.522   8.225 -0.5807  0.3326 -0.1404
  118MOL0     C15821   7.207   8.557   8.221  0.1370  0.8784  0.7427
  118MOL0     C15822   7.140   8.593   8.339  0.1611 -1.0633 -0.4471
  118MOL0     C15823   6.989   8.602   8.334 -0.3757  0.6548 -0.1342
  118MOL0     C15824   7.209   8.609   8.461 -0.3690  0.7299 -0.2535
  118MOL0     C15825   7.146   8.642   8.595 -0.1018 -0.3816 -0.3988
  118MOL0     O15826   7.184   8.560   8.690 -0.3858 -0.5447 -0.1476
  118MOL0     C15827   7.131   8.589   8.812  0.4221 -0.3638 -0.4767
  118MOL0     C15828   6.997   8.565   8.838 -0.2722 -0.7110  0.4653
  118MOL0     C15829   6.941   8.595   8.962 -0.1886 -0.2338 -0.0328
  118MOL0     C15830   7.019   8.652   9.068 -0.3576  0.2134  0.8545
  118MOL0     O15831   6.970   8.682   9.188  0.2493 -0.0944 -0.2165
  118MOL0     C15832   6.914   8.567   9.259  0.4995  0.2136  0.2263
  118MOL0     C15833   6.858   8.595   9.407 -0.7860  0.3302  0.0365
  118MOL0     C15834   6.792   8.738   9.432  0.5646  0.2986 -0.1012
  118MOL0     C15835   6.718   8.751   9.556 -0.2427  0.4195 -0.5149
  118MOL0     C15836   6.663   8.884   9.573 -0.4040 -0.4952 -0.9685
  118MOL0     C15837   6.584   8.889   9.703  0.3286 -0.5844  0.9033
  118MOL0     C15838   6.515   9.029   9.696  0.5846 -0.3819 -0.5177
  118MOL0     C15839   6.440   9.070   9.824 -0.1782  0.3711  0.1499
  118MOL0    Cl15840   6.294   8.972   9.857  0.2747  0.4421 -0.2231
  118MOL0     C15841   7.155   8.685   9.043  0.0019  0.1721  0.5373
  118MOL0     C15842   7.209   8.646   8.914 -0.4220 -0.3842  0.0805
  118MOL0     O15843   7.070   8.738   8.599  0.4931 -0.1255 -0.3614
  118MOL0     C15844   7.344   8.576   8.459  0.5594 -0.3773 -0.4435
  118MOL0     C15845   7.409   8.528   8.346  0.1645 -0.1721 -0.1171
  118MOL0     N15846   7.613   8.943   7.772  0.1905 -0.5040 -0.3911
  118MOL0     N15847   7.568   9.062   7.754  0.2551  0.0127 -0.2895
  118MOL0     C15848   6.954   9.936   8.049 -0.2644 -0.6326  0.4090
  118MOL0     C15849   6.826   9.946   7.997  0.0774  0.1847 -0.1895
  118MOL0     C15850   6.476   9.996   7.768 -0.0781  0.1987  0.2850
  118MOL0     C15851   6.365  10.022   7.855 -0.1089  0.1660  0.7466
  118MOL0     C15852   6.238   9.968   7.835  0.7453  0.1336  0.7515
  118MOL0     C15853   6.203   9.911   7.719  0.0327  0.8868  0.0694
  118MOL0     O15854   6.071   9.892   7.695  0.2314  0.1757 -0.4612
  118MOL0     C15855   6.004   9.859   7.572 -0.4024 -0.2211 -0.4418
  118MOL0     C15856   5.855   9.884   7.595 -0.1971 -0.2047  0.0716
  118MOL0     C15857   5.787   9.759   7.673 -0.5364  0.2214  0.8298
  118MOL0     C15858   5.646   9.732   7.641  0.1513 -0.2370  0.6189
  118MOL0     C15859   5.584   9.644   7.744 -0.5535  0.4357 -0.1278
  118MOL0     C15860   5.528   9.568   7.814 -0.2504 -0.4020  0.0046
  118MOL0     C15861   6.303   9.889   7.624 -0.4066  0.5037  0.2877
  118MOL0     C15862   6.438   9.920   7.657 -0.7570  0.4326 -0.7129
  118MOL0     H15863   6.781  10.299   7.995 -1.7209 -0.4100  2.8312
  118MOL0     H15864   7.019  10.274   8.086  0.6077 -0.4651  2.1248
  118MOL0     H15865   7.275   9.969   8.270 -0.5512 -2.1657  0.1367
  118MOL0     H15866   7.125   9.900   8.240 -1.4603  0.7908 -0.4654
  118MOL0     H15867   7.214   9.878   7.986 -0.7432  0.0238 -0.6523
  118MOL0     H15868   7.365   9.934   8.062 -1.2967  0.9011 -0.5698
  118MOL0     H15869   7.421   9.739   8.177  0.4297 -0.2780  0.6972
  118MOL0     H15870   7.250   9.692   8.203  0.4601  0.8401  1.2963
  118MOL0     H15871   7.213   9.656   7.969  0.1606 -2.0876 -1.2380
  118MOL0     H15872   7.387   9.685   7.932 -0.4780  1.0674 -0.2547
  118MOL0     H15873   7.480   9.519   8.029 -0.2449 -0.1599 -2.4787
  118MOL0     H15874   7.337   9.474   8.131 -3.6797 -0.1713 -1.6949
  118MOL0     H15875   7.212   9.424   7.907 -0.0113 -0.7816 -1.7729
  118MOL0     H15876   7.352   9.448   7.814  0.5411 -0.6594 -0.1918
  118MOL0     H15877   7.342   9.237   8.036 -2.1001 -0.5138 -0.3279
  118MOL0     H15878   7.318   9.204   7.866  1.2532  0.2496 -1.2313
  118MOL0     H15879   7.567   9.308   7.978  3.2155 -1.5342 -1.2553
  118MOL0     H15880   7.531   9.322   7.798 -1.4361  1.5838  0.2922
  118MOL0     H15881   7.602   9.056   8.083  0.2205  2.8592 -1.0588
  118MOL0     H15882   7.751   8.742   7.891 -0.5220 -0.2405 -1.3582
  118MOL0     H15883   7.763   8.806   8.051  0.8536 -1.2000  0.3090
  118MOL0     H15884   7.526   8.637   7.936  1.1094 -6.7494  2.3793
  118MOL0     H15885   7.512   8.749   8.069 -0.2512 -0.9404  0.5471
  118MOL0     H15886   7.646   8.627   8.196  0.1494 -2.3899  1.6563
  118MOL0     H15887   7.734   8.543   8.066  0.6357  1.0755  2.0098
  118MOL0     H15888   7.574   8.386   8.155  2.2815 -2.0559 -2.7588
  118MOL0     H15889   7.535   8.423   7.992 -0.7134  0.5769  0.8364
  118MOL0     H15890   7.161   8.547   8.124  1.8388  2.2741 -0.2622
  118MOL0     H15891   6.943   8.558   8.244 -2.4033  2.3370 -0.0095
  118MOL0     H15892   6.945   8.560   8.424  1.1716  0.2091  0.4409
  118MOL0     H15893   6.957   8.706   8.339 -0.8108  0.5650 -0.8100
  118MOL0     H15894   6.936   8.521   8.759  1.3270 -1.2832 -0.5025
  118MOL0     H15895   6.840   8.567   8.988 -0.5466  0.6747 -0.4136
  118MOL0     H15896   6.834   8.524   9.198  0.0393 -1.9590  2.1947
  118MOL0     H15897   6.985   8.485   9.271  0.7131  0.2284 -0.8354
  118MOL0     H15898   6.795   8.508   9.428  0.1970 -1.5710 -3.9792
  118MOL0     H15899   6.944   8.588   9.474 -1.6297 -1.4476  1.0042
  118MOL0     H15900   6.732   8.766   9.345  0.7966 -0.8340 -0.6483
  118MOL0     H15901   6.872   8.808   9.409  0.3629  0.2048 -1.1294
  118MOL0     H15902   6.636   8.679   9.548  1.5453 -1.6752 -0.9725
  118MOL0     H15903   6.786   8.714   9.633  0.5819  0.5801 -1.1599
  118MOL0     H15904   6.596   8.917   9.493 -0.1208  3.0986  0.1236
  118MOL0     H15905   6.749   8.951   9.577 -1.1875  0.6914 -2.8093
  118MOL0     H15906   6.498   8.822   9.707 -0.5085  0.5180  2.0343
  118MOL0     H15907   6.647   8.888   9.792  1.7162 -0.1980 -0.0384
  118MOL0     H15908   6.447   9.043   9.611 -2.0640  1.0200  1.6541
  118MOL0     H15909   6.593   9.106   9.690  1.5254 -1.1756  0.7584
  118MOL0     H15910   6.404   9.173   9.816 -0.4914  0.4596  2.1592
  118MOL0     H15911   6.504   9.068   9.913  0.2080 -2.0546 -0.1052
  118MOL0     H15912   7.226   8.737   9.106  1.5824  0.3738 -1.3387
  118MOL0     H15913   7.314   8.650   8.887 -0.6651 -0.2762 -0.8663
  118MOL0     H15914   7.390   8.583   8.556 -1.0502 -0.4883  0.3660
  118MOL0     H15915   7.513   8.501   8.362  0.5485  2.0000  1.3502
  118MOL0     H15916   7.001   9.840   8.066  1.5371  0.5987  3.0541
  118MOL0     H15917   6.766   9.863   7.962  1.4827 -0.0702 -2.1331
  118MOL0     H15918   6.389  10.077   7.945  3.5329 -2.4388  1.6245
  118MOL0     H15919   6.165   9.973   7.916  0.9147  1.3674  0.8414
  118MOL0     H15920   6.032   9.925   7.490  1.5030 -0.1807  0.1950
  118MOL0     H15921   6.007   9.754   7.540 -4.1491 -1.1313  1.5684
  118MOL0     H15922   5.803   9.895   7.499  2.9656 -1.2512 -1.8898
  118MOL0     H15923   5.843   9.975   7.655  1.2474  1.8354 -2.4949
  118MOL0     H15924   5.798   9.775   7.781 -1.8031 -4.1916  1.8117
  118MOL0     H15925   5.836   9.666   7.644 -1.0076  0.7177 -1.7913
  118MOL0     H15926   5.627   9.696   7.539 -1.1020 -1.6489  1.3106
  118MOL0     H15927   5.599   9.830   7.648  0.6637  0.0819 -0.2136
  118MOL0     H15928   5.474   9.489   7.861 -1.3646 -0.2932 -1.0483
  118MOL0     H15929   6.284   9.846   7.526 -1.8649 -0.4362  0.9646
  118MOL0     H15930   6.510   9.906   7.577 -0.8015  1.5291 -0.9595
  119MOL0     O15931   8.411   4.836   9.489  0.1289  0.5101  0.6390
  119MOL0     C15932   8.333   4.813   9.580 -0.4577 -0.2647 -1.4225
  119MOL0     O15933   8.279   4.684   9.606 -0.2604 -0.3129  0.3037
  119MOL0     C15934   8.320   4.591   9.511 -0.8607 -1.0432 -0.4432
  119MOL0     C15935   8.246   4.555   9.403  0.3631 -0.8196 -0.2752
  119MOL0     C15936   8.288   4.472   9.297  0.2587  0.9289 -0.5380
  119MOL0     C15937   8.422   4.412   9.313  0.2387 -0.7645  0.4449
  119MOL0     O15938   8.468   4.317   9.222 -0.7514 -0.1059  0.0570
  119MOL0     C15939   8.602   4.320   9.186 -0.5713 -0.1042  0.2097
  119MOL0     C15940   8.667   4.182   9.186  0.4311 -0.5806  0.2301
  119MOL0     C15941   8.665   4.120   9.329 -0.0336 -0.1220  0.6557
  119MOL0     C15942   8.783   4.171   9.408 -0.7512 -0.5013  0.5510
  119MOL0     C15943   8.769   4.161   9.563  0.0610 -0.1563 -1.0671
  119MOL0     C15944   8.900   4.224   9.610  1.1987 -0.6089 -0.8264
  119MOL0     C15945   8.906   4.242   9.766 -0.0585 -0.2604  0.2798
  119MOL0     C15946   8.885   4.110   9.830 -0.5215  0.9330 -0.0378
  119MOL0     N15947   8.931   4.114   9.968  0.3501 -0.1987 -0.6865
  119MOL0     C15948   9.065   4.134  10.011  0.5285 -0.6311 -1.6446
  119MOL0     C15949   9.046   4.143  10.151 -0.2821  0.1020  0.6058
  119MOL0     C15950   9.153   4.147  10.258  0.4448 -0.3005  0.8862
  119MOL0     C15951   9.129   4.254  10.363 -0.7767 -0.0031 -0.3268
  119MOL0     C15952   9.118   4.395  10.305 -0.2775  0.3235  0.6731
  119MOL0     C15953   9.084   4.479  10.428  0.0484  0.5890  0.9321
  119MOL0     O15954   9.065   4.613  10.387 -0.4417  0.3990  0.0952
  119MOL0     C15955   9.169   4.691  10.345  0.5630 -0.1413  0.5916
  119MOL0     C15956   9.305   4.658  10.347 -0.7733  0.2955  0.1402
  119MOL0     C15957   9.406   4.751  10.305 -0.1859 -0.0973  0.0091
  119MOL0     C15958   9.552   4.703  10.314  0.1784 -0.6953  0.5755
  119MOL0     C15959   9.363   4.872  10.246 -0.5363 -0.4628 -0.2759
  119MOL0     C15960   9.449   4.951  10.154 -0.2351 -0.5013  0.2480
  119MOL0     O15961   9.547   4.883  10.098  0.7929 -0.6224  0.0968
  119MOL0     C15962   9.634   4.951  10.019  0.4294 -1.1802  0.8272
  119MOL0     C15963   9.594   5.033   9.908 -0.1814  0.2852 -0.1831
  119MOL0     C15964   9.686   5.108   9.834 -0.0162 -0.1142  0.5594
  119MOL0     C15965   9.826   5.094   9.863  0.4622  0.0932  0.3357
  119MOL0     O15966   9.911   5.165   9.787 -0.6423 -0.1145 -0.0845
  119MOL0     C15967  10.041   5.108   9.775  0.3912 -0.0795  0.2930
  119MOL0     C15968  10.090   5.178   9.655  0.6925  0.1503  0.4681
  119MOL0     C15969  10.235   5.162   9.636 -0.6837  0.0062 -0.0401
  119MOL0     C15970  10.272   5.019   9.619  0.3222 -0.2600 -0.6224
  119MOL0     C15971  10.411   5.007   9.545  0.3569  0.7541 -0.4226
  119MOL0     C15972  10.410   4.996   9.391  0.5630  0.5025 -0.5191
  119MOL0     C15973  10.546   4.995   9.332  0.8646 -0.8461 -0.1758
  119MOL0     C15974  10.536   5.036   9.187 -0.6846 -0.2353 -0.0697
  119MOL0    Cl15975  10.442   4.919   9.083 -0.1991 -0.4659 -0.3833
  119MOL0     C15976   9.861   4.997   9.960  0.3207  0.3431 -0.4577
  119MOL0     C15977   9.768   4.937  10.045 -0.5775 -0.1080 -0.7419
  119MOL0     O15978   9.434   5.071  10.145  0.4083  0.0891 -0.2562
  119MOL0     C15979   9.229   4.910  10.252 -0.0615  1.4567  0.1457
  119MOL0     C15980   9.136   4.813  10.295  0.6128 -0.2955 -0.5979
  119MOL0     N15981   8.916   4.130  10.175 -0.8769  0.3098  0.8180
  119MOL0     N15982   8.848   4.116  10.073 -0.1257  1.1291  0.6121
  119MOL0     C15983   8.493   4.445   9.425 -0.6692  0.1949  0.1097
  119MOL0     C15984   8.441   4.524   9.529  0.1251 -1.4998  0.0638
  119MOL0     C15985   8.322   4.914   9.692 -1.1635 -1.0229 -0.5881
  119MOL0     C15986   8.404   5.030   9.698  0.1830 -0.8616 -0.0128
  119MOL0     C15987   8.405   5.120   9.803  0.3600  0.2860  0.3864
  119MOL0     C15988   8.331   5.091   9.917 -1.0351  0.9946  0.0316
  119MOL0     O15989   8.322   5.194  10.005  0.2511  0.5960  0.0989
  119MOL0     C15990   8.192   5.225  10.073  0.0650 -0.3038 -0.5232
  119MOL0     C15991   8.200   5.328  10.174  0.4969 -0.5133 -0.1224
  119MOL0     C15992   8.265   5.452  10.108  0.3640  0.2645 -0.1958
  119MOL0     C15993   8.187   5.509   9.993  0.1451 -1.2317  0.0597
  119MOL0     C15994   8.261   5.616   9.920  0.3793  0.5065  0.3343
  119MOL0     C15995   8.336   5.694   9.857  1.6487 -0.5654 -0.3862
  119MOL0     C15996   8.248   4.978   9.911  0.5675 -0.3094 -0.2672
  119MOL0     C15997   8.238   4.899   9.796  0.4789 -0.7592 -0.0641
  119MOL0     H15998   8.141   4.580   9.392  0.2297 -2.1635 -2.7869
  119MOL0     H15999   8.220   4.465   9.212 -0.4167  6.4113 -0.8107
  119MOL0     H16000   8.598   4.363   9.086 -0.2924 -1.4803 -0.4159
  119MOL0     H16001   8.662   4.385   9.250 -0.3040 -0.2049  0.0624
  119MOL0     H16002   8.615   4.115   9.117  1.4045 -2.0605  0.8730
  119MOL0     H16003   8.774   4.186   9.163  0.1454  1.4035 -1.0006
  119MOL0     H16004   8.570   4.142   9.378  0.8405  2.9364  1.1776
  119MOL0     H16005   8.670   4.011   9.320  0.2107  0.0368 -1.5036
  119MOL0     H16006   8.873   4.120   9.372 -1.1131  0.0088 -1.1912
  119MOL0     H16007   8.805   4.276   9.391  0.3515 -0.8356 -0.1522
  119MOL0     H16008   8.683   4.219   9.598  2.8675  1.8171  3.5282
  119MOL0     H16009   8.763   4.058   9.600  0.1460  0.3651  0.4866
  119MOL0     H16010   8.984   4.166   9.569  2.2075 -0.1820  0.5706
  119MOL0     H16011   8.901   4.328   9.575  1.7516 -0.4286 -0.2914
  119MOL0     H16012   9.009   4.277   9.777  0.2764 -0.9916 -0.3891
  119MOL0     H16013   8.828   4.310   9.800  1.2265  1.2823  0.2527
  119MOL0     H16014   8.951   4.039   9.780  4.1513  3.9059  1.2821
  119MOL0     H16015   8.781   4.078   9.833 -0.0254 -0.7632  2.2747
  119MOL0     H16016   9.159   4.150   9.960  1.7558  1.2974  0.9772
  119MOL0     H16017   9.139   4.055  10.316 -1.8553  0.0480  0.9707
  119MOL0     H16018   9.254   4.155  10.219  1.3237 -0.7525  2.9356
  119MOL0     H16019   9.215   4.246  10.430  1.1412  0.6772 -2.6176
  119MOL0     H16020   9.040   4.218  10.416 -1.0311  0.0988 -0.6819
  119MOL0     H16021   9.059   4.403  10.214  0.6153 -3.7374 -0.4292
  119MOL0     H16022   9.219   4.427  10.279  0.1264 -0.5182  1.1812
  119MOL0     H16023   9.159   4.464  10.506  2.4616  1.2047 -1.1220
  119MOL0     H16024   8.987   4.450  10.468 -0.6230  0.4960 -0.6854
  119MOL0     H16025   9.333   4.557  10.373  1.0516  0.4188 -1.1947
  119MOL0     H16026   9.609   4.760  10.388  0.4728 -0.0452 -0.1356
  119MOL0     H16027   9.545   4.599  10.349  0.6634 -1.1471 -0.6029
  119MOL0     H16028   9.606   4.699  10.219  0.1651 -1.9776  0.6013
  119MOL0     H16029   9.489   5.025   9.881 -0.7278 -2.0671  2.2487
  119MOL0     H16030   9.650   5.172   9.754  2.6300  3.0555  1.6596
  119MOL0     H16031  10.102   5.136   9.861  1.4825  2.1027 -1.1233
  119MOL0     H16032  10.043   4.999   9.766  2.0312 -0.0565  0.1378
  119MOL0     H16033  10.046   5.143   9.561  4.2058  3.4183 -2.7677
  119MOL0     H16034  10.058   5.282   9.664 -2.4041 -0.9025  4.3877
  119MOL0     H16035  10.301   5.213   9.707 -1.0257  2.4351 -1.3579
  119MOL0     H16036  10.251   5.207   9.538  2.3492 -2.1918 -0.6817
  119MOL0     H16037  10.298   4.991   9.722 -0.9046 -2.5211 -0.8675
  119MOL0     H16038  10.199   4.952   9.572  2.1720 -2.4229 -0.5908
  119MOL0     H16039  10.447   4.907   9.570 -0.5417 -0.8439 -4.6412
  119MOL0     H16040  10.477   5.084   9.585 -0.0241  0.5276  0.6769
  119MOL0     H16041  10.370   4.903   9.350 -0.0630  0.7448 -0.4725
  119MOL0     H16042  10.353   5.074   9.340 -2.3221 -1.6398 -0.8403
  119MOL0     H16043  10.595   4.898   9.342  0.0125 -1.5541 -2.2762
  119MOL0     H16044  10.600   5.058   9.403 -0.5485  2.0788 -1.5158
  119MOL0     H16045  10.639   5.038   9.151 -0.4287  2.2058  0.6705
  119MOL0     H16046  10.498   5.136   9.165 -4.7206 -2.1539 -3.3351
  119MOL0     H16047   9.965   4.974   9.978  0.2466 -0.4099 -0.9176
  119MOL0     H16048   9.799   4.877  10.129 -0.0874 -0.4989 -1.1960
  119MOL0     H16049   9.202   5.007  10.211  0.4104  0.0551 -3.9195
  119MOL0     H16050   9.031   4.833  10.274  0.8167 -0.2692 -1.6331
  119MOL0     H16051   8.589   4.400   9.452 -0.9031  0.5615  1.6720
  119MOL0     H16052   8.495   4.542   9.621 -1.2342 -0.7306  0.7534
  119MOL0     H16053   8.467   5.044   9.610  0.3861  0.3713  0.3176
  119MOL0     H16054   8.468   5.207   9.791 -2.4727  2.4136 -0.0552
  119MOL0     H16055   8.122   5.257   9.996 -1.0571  0.6305  0.8334
  119MOL0     H16056   8.164   5.131  10.121 -1.0043 -0.7308 -1.9209
  119MOL0     H16057   8.254   5.285  10.259  0.4174 -0.1522  0.1097
  119MOL0     H16058   8.098   5.338  10.211  0.9441 -1.0954  1.3517
  119MOL0     H16059   8.364   5.419  10.075 -0.2604  0.7905 -2.8025
  119MOL0     H16060   8.272   5.528  10.186 -0.8422 -0.8474  1.0758
  119MOL0     H16061   8.095   5.552  10.033 -0.5901 -0.2871 -2.4729
  119MOL0     H16062   8.147   5.439   9.919 -0.1179 -0.7953 -0.2210
  119MOL0     H16063   8.392   5.769   9.806 -0.6345 -1.3035 -4.4965
  119MOL0     H16064   8.182   4.964   9.996 -0.0952  0.4691 -0.6461
  119MOL0     H16065   8.173   4.812   9.797 -0.0770 -0.3457 -0.0255
  120MOL0     O16066  11.027   0.350   0.604  0.1907  0.3816 -0.3638
  120MOL0     C16067  11.064   0.437   0.524 -0.0749 -0.0450 -0.8062
  120MOL0     O16068  10.979   0.527   0.461  0.3243  1.3263  0.3081
  120MOL0     C16069  10.843   0.517   0.487  0.1074  0.6938  0.0699
  120MOL0     C16070  10.799   0.569   0.612  0.4811  1.1204 -0.0783
  120MOL0     C16071  10.669   0.546   0.644  0.5999 -0.8985  0.0308
  120MOL0     C16072  10.568   0.491   0.563 -0.1172  0.1372  0.0537
  120MOL0     O16073  10.437   0.492   0.598 -0.1041  0.3139 -0.0705
  120MOL0     C16074  10.379   0.564   0.708  0.5227 -1.2675  0.8114
  120MOL0     C16075  10.349   0.473   0.826  0.1132  0.5077  0.1723
  120MOL0     C16076  10.233   0.373   0.805  0.6365 -0.8289  0.5044
  120MOL0     C16077  10.183   0.317   0.929  0.7850 -0.2725 -0.6400
  120MOL0     C16078  10.088   0.204   0.883  0.2913  1.2875 -0.7876
  120MOL0     C16079  10.019   0.130   1.005  0.1515  0.0128  0.0458
  120MOL0     C16080  10.094   0.002   1.055 -0.5089 -0.2019 -0.5417
  120MOL0     C16081  10.019  -0.068   1.163 -0.0983 -0.4137 -0.0401
  120MOL0     N16082   9.906  -0.147   1.109  0.3030 -0.7538 -0.3038
  120MOL0     C16083   9.924  -0.270   1.056 -0.0094  0.0554  0.1269
  120MOL0     C16084   9.794  -0.302   1.023  0.1454 -0.3073 -0.0987
  120MOL0     C16085   9.736  -0.425   0.966  0.6281 -0.1367 -1.1394
  120MOL0     C16086   9.653  -0.406   0.838 -0.8196 -0.0789  0.2523
  120MOL0     C16087   9.749  -0.367   0.722  0.0558 -0.4024 -0.6095
  120MOL0     C16088   9.835  -0.493   0.661 -0.4620 -0.8518 -0.6126
  120MOL0     O16089   9.920  -0.560   0.751 -0.1947  0.2666  0.1078
  120MOL0     C16090  10.041  -0.501   0.776  0.4370  0.0915 -0.1010
  120MOL0     C16091  10.098  -0.388   0.727  0.3060 -0.1089 -0.5614
  120MOL0     C16092  10.224  -0.341   0.764  0.3551  0.2612  0.0516
  120MOL0     C16093  10.277  -0.221   0.689  0.5596 -0.2807 -1.3236
  120MOL0     C16094  10.285  -0.388   0.871  0.2678 -1.0485 -0.4830
  120MOL0     C16095  10.414  -0.336   0.920  0.0829  0.7777 -0.1277
  120MOL0     O16096  10.529  -0.403   0.889 -0.0319  0.5792 -0.2860
  120MOL0     C16097  10.652  -0.358   0.934  0.3176  0.2536 -0.0251
  120MOL0     C16098  10.662  -0.313   1.068  0.6112 -0.2735 -0.7949
  120MOL0     C16099  10.788  -0.268   1.113  0.8283 -0.1736  0.1135
  120MOL0     C16100  10.901  -0.266   1.032 -0.0188 -0.2988  0.4323
  120MOL0     O16101  11.021  -0.213   1.073 -0.3123 -0.2058 -1.0625
  120MOL0     C16102  11.070  -0.282   1.195 -0.1595  0.6206 -0.6310
  120MOL0     C16103  11.226  -0.306   1.169 -0.3788  0.9747  0.6122
  120MOL0     C16104  11.310  -0.310   1.295 -0.7072  0.4535 -0.8116
  120MOL0     C16105  11.251  -0.381   1.420  0.1350  0.2443  0.4983
  120MOL0     C16106  11.336  -0.328   1.545  0.1934  0.9207  0.4105
  120MOL0     C16107  11.332  -0.186   1.576  0.9633 -0.9336  0.5119
  120MOL0     C16108  11.369  -0.141   1.721  0.1953 -0.1563 -0.1058
  120MOL0     C16109  11.296  -0.015   1.772 -0.7190  0.1345  0.5152
  120MOL0    Cl16110  11.356   0.124   1.670  0.1150 -0.3857  0.0245
  120MOL0     C16111  10.885  -0.309   0.893  0.7526  0.3803 -0.5239
  120MOL0     C16112  10.757  -0.352   0.845  0.3578 -0.9737  0.1364
  120MOL0     O16113  10.405  -0.227   0.978  0.3038 -0.1427  0.8698
  120MOL0     C16114  10.222  -0.493   0.942 -1.0641 -0.6186  0.2246
  120MOL0     C16115  10.104  -0.553   0.889 -0.8465 -0.1631  0.3997
  120MOL0     N16116   9.704  -0.207   1.061 -0.2313 -1.0505  0.1288
  120MOL0     N16117   9.776  -0.113   1.119  0.4971 -0.2250 -0.8044
  120MOL0     C16118  10.617   0.445   0.437 -0.9178 -0.6971  0.4470
  120MOL0     C16119  10.751   0.454   0.408  1.1791 -0.1882  0.3516
  120MOL0     C16120  11.206   0.451   0.506  0.2708 -0.0692 -0.7322
  120MOL0     C16121  11.296   0.383   0.586  0.0178  1.3144  0.1574
  120MOL0     C16122  11.431   0.423   0.571 -0.7434  0.1993  0.1102
  120MOL0     C16123  11.477   0.529   0.485  0.0807 -0.5232  1.2339
  120MOL0     O16124  11.606   0.577   0.468  0.1438 -0.2085 -0.2149
  120MOL0     C16125  11.723   0.508   0.525 -0.7716 -0.9492 -0.3186
  120MOL0     C16126  11.857   0.573   0.498  0.4912 -1.0843 -0.5579
  120MOL0     C16127  11.884   0.574   0.345  0.2717 -0.6021  0.3030
  120MOL0     C16128  12.005   0.656   0.301 -0.3989  0.4773  0.3127
  120MOL0     C16129  11.969   0.794   0.287 -0.1379 -0.0818 -0.5218
  120MOL0     C16130  11.946   0.913   0.276  0.3966  0.1895  1.0877
  120MOL0     C16131  11.382   0.590   0.411  0.9839 -0.2974 -0.4923
  120MOL0     C16132  11.249   0.550   0.419 -1.8234 -0.0518 -0.9244
  120MOL0     H16133  10.860   0.628   0.679 -0.4411 -0.0038  1.8325
  120MOL0     H16134  10.635   0.576   0.742  1.1502  0.2778 -0.1184
  120MOL0     H16135  10.438   0.650   0.742 -1.3311 -0.5480  2.4374
  120MOL0     H16136  10.279   0.595   0.676  0.1799  0.7758  3.4757
  120MOL0     H16137  10.446   0.428   0.850 -0.4283 -1.2747 -0.7752
  120MOL0     H16138  10.324   0.541   0.908  0.0304  0.6058  0.0660
  120MOL0     H16139  10.148   0.415   0.751  0.2071 -2.1699  0.0937
  120MOL0     H16140  10.267   0.293   0.739  0.9260 -0.1128 -0.2274
  120MOL0     H16141  10.262   0.273   0.991 -0.2075 -2.3831 -0.7830
  120MOL0     H16142  10.137   0.403   0.978  1.6862  0.6371 -1.3377
  120MOL0     H16143  10.009   0.245   0.819 -0.9714  3.1483  1.7886
  120MOL0     H16144  10.140   0.131   0.821  2.1716 -0.1326  2.2078
  120MOL0     H16145  10.005   0.202   1.086  0.4293  1.0444 -0.8015
  120MOL0     H16146   9.921   0.102   0.966 -1.3202  0.4646  3.1118
  120MOL0     H16147  10.114  -0.059   0.966 -0.5301 -1.7954  0.5141
  120MOL0     H16148  10.188   0.038   1.099 -0.8227  1.9030 -1.4712
  120MOL0     H16149   9.977   0.009   1.228  0.8072  1.1217 -1.2178
  120MOL0     H16150  10.086  -0.127   1.226  5.5641  2.1291 -2.9422
  120MOL0     H16151  10.018  -0.323   1.045 -0.3342  0.0727 -4.7323
  120MOL0     H16152   9.819  -0.495   0.961 -1.6607 -3.3278  1.2005
  120MOL0     H16153   9.663  -0.464   1.038  1.6838 -0.6970 -0.3590
  120MOL0     H16154   9.576  -0.330   0.854 -0.9310 -0.3145  0.8440
  120MOL0     H16155   9.603  -0.497   0.805  1.9745 -1.5707 -0.2287
  120MOL0     H16156   9.829  -0.299   0.749 -0.2097  0.0790 -1.0200
  120MOL0     H16157   9.696  -0.328   0.635  0.6604  1.2770 -0.2516
  120MOL0     H16158   9.879  -0.469   0.564  0.7611 -1.2087 -0.1596
  120MOL0     H16159   9.763  -0.571   0.635  0.6262 -2.0899 -0.0262
  120MOL0     H16160  10.040  -0.357   0.641 -2.0755  1.0208  1.3158
  120MOL0     H16161  10.207  -0.207   0.605  0.4902 -0.2793 -1.2653
  120MOL0     H16162  10.270  -0.138   0.761 -2.7744 -1.0699 -0.5704
  120MOL0     H16163  10.377  -0.227   0.646  1.2699 -0.7009  0.3142
  120MOL0     H16164  10.572  -0.318   1.128  0.5453 -0.0993 -0.8823
  120MOL0     H16165  10.801  -0.217   1.208  3.7457 -2.2388  0.9592
  120MOL0     H16166  11.065  -0.221   1.286  2.8208  1.0567 -0.6506
  120MOL0     H16167  11.023  -0.379   1.211  0.1851  0.7904  1.6792
  120MOL0     H16168  11.253  -0.398   1.115 -0.3216 -0.5484  3.0541
  120MOL0     H16169  11.258  -0.229   1.098  0.9844 -1.9112 -2.1801
  120MOL0     H16170  11.326  -0.208   1.331  1.5913 -1.0407  3.0048
  120MOL0     H16171  11.411  -0.345   1.272 -1.2666  0.9364 -4.8336
  120MOL0     H16172  11.144  -0.365   1.436 -0.0200  0.4057 -0.6123
  120MOL0     H16173  11.252  -0.490   1.420  1.2927  0.2380 -0.0139
  120MOL0     H16174  11.439  -0.357   1.525 -0.7092 -2.1175 -0.3313
  120MOL0     H16175  11.293  -0.379   1.632  0.2171  2.2641  1.2414
  120MOL0     H16176  11.406  -0.149   1.505  0.6183  0.1602  0.7094
  120MOL0     H16177  11.230  -0.148   1.560  1.4782  0.5244  0.6116
  120MOL0     H16178  11.477  -0.127   1.719  0.4990 -1.7639  1.9050
  120MOL0     H16179  11.337  -0.218   1.792 -2.3812 -0.6470 -1.6415
  120MOL0     H16180  11.329  -0.012   1.877  2.2141  3.5398 -0.3021
  120MOL0     H16181  11.189  -0.034   1.761 -0.4208 -1.5533  0.2819
  120MOL0     H16182  10.961  -0.308   0.816  1.0351  1.0906 -0.2510
  120MOL0     H16183  10.749  -0.381   0.741  0.1493 -4.7704  1.0361
  120MOL0     H16184  10.268  -0.539   1.029 -0.4920  0.1453  0.3401
  120MOL0     H16185  10.075  -0.647   0.933  1.7159 -2.3878 -2.2159
  120MOL0     H16186  10.548   0.396   0.369 -2.0039  0.3251  0.7849
  120MOL0     H16187  10.784   0.408   0.315 -1.7843 -0.2404 -0.7659
  120MOL0     H16188  11.268   0.301   0.651 -0.3346 -1.9067 -3.6597
  120MOL0     H16189  11.509   0.381   0.633 -0.0779 -0.6209 -1.2491
  120MOL0     H16190  11.700   0.517   0.632  3.1979  0.6572  0.6089
  120MOL0     H16191  11.727   0.404   0.493 -1.0613 -0.8520 -0.6801
  120MOL0     H16192  11.941   0.517   0.540  1.5276  0.7177 -0.1053
  120MOL0     H16193  11.852   0.675   0.537 -1.2073 -1.2598 -0.2321
  120MOL0     H16194  11.794   0.607   0.293  1.0469  0.2125 -0.5304
  120MOL0     H16195  11.907   0.468   0.329  0.4750 -0.1224 -3.2938
  120MOL0     H16196  12.039   0.626   0.202  0.4338 -2.3427  1.3448
  120MOL0     H16197  12.090   0.644   0.369  2.2303 -1.7681 -3.0357
  120MOL0     H16198  11.926   1.013   0.243  0.6908 -0.5410 -1.6031
  120MOL0     H16199  11.394   0.675   0.345 -0.1779  2.4436  2.4949
  120MOL0     H16200  11.178   0.602   0.355  1.9433  3.5463 -2.7150
  121MOL0     O16201   3.199   2.396   9.450  0.1826 -0.5886  0.7134
  121MOL0     C16202   3.134   2.485   9.387  0.8376  0.0668 -0.3371
  121MOL0     O16203   3.172   2.612   9.359 -0.8790 -0.1321 -0.1357
  121MOL0     C16204   3.292   2.662   9.400 -0.0201  0.0357 -0.8242
  121MOL0     C16205   3.405   2.594   9.374 -0.5152  0.3734 -0.1220
  121MOL0     C16206   3.532   2.649   9.395  0.6796  0.4528  0.4318
  121MOL0     C16207   3.543   2.778   9.449 -0.7180  0.2272  0.2858
  121MOL0     O16208   3.663   2.836   9.496 -0.2974 -0.7394 -0.6034
  121MOL0     C16209   3.786   2.777   9.460 -0.6052  0.8101 -0.1317
  121MOL0     C16210   3.892   2.834   9.551 -0.0537 -0.0703  0.0246
  121MOL0     C16211   3.878   2.780   9.689  0.7406  0.0660 -0.6663
  121MOL0     C16212   3.936   2.638   9.706  0.0877 -0.5371  0.1573
  121MOL0     C16213   3.925   2.599   9.861  0.1490 -0.5447 -0.4594
  121MOL0     C16214   3.842   2.467   9.887  0.6101 -0.0937  0.5486
  121MOL0     C16215   3.689   2.479   9.846  0.2564  0.0803  0.4267
  121MOL0     C16216   3.614   2.548   9.954  0.6304  1.3771  0.1877
  121MOL0     N16217   3.471   2.537   9.945  1.3287  0.1769  0.0059
  121MOL0     C16218   3.404   2.583   9.839  0.3172 -0.9501 -0.8122
  121MOL0     C16219   3.279   2.536   9.852 -0.3832 -0.1470  0.4842
  121MOL0     C16220   3.164   2.549   9.754 -0.4247 -0.1838  0.0779
  121MOL0     C16221   3.034   2.577   9.830  0.2834 -0.8939  0.2460
  121MOL0     C16222   2.918   2.494   9.779 -0.1669  0.2854  0.1908
  121MOL0     C16223   2.885   2.554   9.637 -0.4464 -1.5081 -0.0097
  121MOL0     O16224   2.777   2.642   9.653 -0.4743 -0.5467  0.3247
  121MOL0     C16225   2.646   2.601   9.652  0.1846  0.3577  0.6248
  121MOL0     C16226   2.552   2.697   9.625 -0.3136 -0.0649  0.4316
  121MOL0     C16227   2.410   2.668   9.636  0.1178 -0.4851 -0.7599
  121MOL0     C16228   2.321   2.782   9.608  0.4102  0.0289  0.2762
  121MOL0     C16229   2.364   2.538   9.658 -0.1656 -0.1504 -0.2406
  121MOL0     C16230   2.223   2.492   9.672  0.7681  0.3410 -0.2333
  121MOL0     O16231   2.195   2.370   9.719  0.1001  0.3018  0.3276
  121MOL0     C16232   2.063   2.322   9.750  0.2355 -0.3389  0.3045
  121MOL0     C16233   2.002   2.401   9.850  0.4830  0.5900  0.1877
  121MOL0     C16234   1.864   2.366   9.876 -0.6698 -0.9033  0.1603
  121MOL0     C16235   1.797   2.275   9.805  0.0837  0.1290  1.2878
  121MOL0     O16236   1.658   2.254   9.822 -0.1113  0.2097  0.3741
  121MOL0     C16237   1.581   2.276   9.707  0.3455  0.3917 -0.5554
  121MOL0     C16238   1.572   2.416   9.635  0.5557 -0.6154 -0.3042
  121MOL0     C16239   1.507   2.420   9.502 -0.4552 -0.2865  0.1990
  121MOL0     C16240   1.357   2.411   9.515  0.6126  0.0033  0.4327
  121MOL0     C16241   1.290   2.536   9.459  0.4503  0.4136  1.2726
  121MOL0     C16242   1.274   2.533   9.317  0.1192  0.3321  0.2803
  121MOL0     C16243   1.198   2.649   9.244 -1.7137 -1.3675 -0.1405
  121MOL0     C16244   1.292   2.782   9.230  0.8300  0.3826 -0.2149
  121MOL0    Cl16245   1.213   2.891   9.117 -0.2040 -0.3628  0.0560
  121MOL0     C16246   1.858   2.205   9.698  0.3085  0.0283 -0.1866
  121MOL0     C16247   1.992   2.229   9.668  0.5399 -0.5784 -0.1693
  121MOL0     O16248   2.134   2.579   9.660  0.7507  0.3443 -0.5596
  121MOL0     C16249   2.466   2.444   9.670 -1.1119  0.2903  0.8549
  121MOL0     C16250   2.606   2.472   9.660  0.5527  0.3580  0.1727
  121MOL0     N16251   3.279   2.458   9.964  0.5186  0.4123 -0.9688
  121MOL0     N16252   3.398   2.461  10.023  0.0533 -0.7081 -0.0305
  121MOL0     C16253   3.423   2.849   9.462 -1.0138  0.4982  0.0271
  121MOL0     C16254   3.299   2.791   9.447 -1.2862  0.1513 -0.5313
  121MOL0     C16255   2.994   2.463   9.340 -0.5348  0.5495 -0.0505
  121MOL0     C16256   2.927   2.552   9.255  0.2116 -0.3100 -0.3731
  121MOL0     C16257   2.798   2.520   9.202  0.0845 -0.3671  0.1171
  121MOL0     C16258   2.734   2.406   9.251 -0.0128  0.3306 -0.0014
  121MOL0     O16259   2.607   2.385   9.217  0.4726 -0.5182  0.5696
  121MOL0     C16260   2.514   2.375   9.327 -1.1651 -1.0053  0.2585
  121MOL0     C16261   2.369   2.377   9.278  0.1528 -0.1841 -0.5316
  121MOL0     C16262   2.350   2.522   9.235 -0.3649  1.0183  0.7220
  121MOL0     C16263   2.206   2.561   9.225  0.2173  0.2421  0.5755
  121MOL0     C16264   2.198   2.705   9.208  0.3164 -0.2053  0.1002
  121MOL0     C16265   2.175   2.815   9.166  0.0068  0.4628  0.3559
  121MOL0     C16266   2.806   2.315   9.330  0.9921 -0.5132  0.1405
  121MOL0     C16267   2.930   2.341   9.369 -0.4383 -0.0593  1.7507
  121MOL0     H16268   3.401   2.495   9.330  1.7638  1.8277 -4.0955
  121MOL0     H16269   3.605   2.574   9.367 -0.2289 -0.7851  1.3256
  121MOL0     H16270   3.794   2.669   9.469  0.5716  1.0596  4.1960
  121MOL0     H16271   3.806   2.813   9.359 -2.6886  1.0613 -0.5013
  121MOL0     H16272   3.995   2.803   9.528  0.0357  1.5872 -2.0627
  121MOL0     H16273   3.887   2.943   9.559 -1.6275 -0.1827  1.0476
  121MOL0     H16274   3.927   2.840   9.766  1.9148 -3.8981  1.9751
  121MOL0     H16275   3.775   2.780   9.726  0.7139 -1.8984 -0.6395
  121MOL0     H16276   3.883   2.566   9.643  1.1868 -0.4766 -0.8611
  121MOL0     H16277   4.042   2.638   9.678  0.1431  0.4088  0.3344
  121MOL0     H16278   4.025   2.596   9.907  0.1800  1.4788 -0.3185
  121MOL0     H16279   3.868   2.676   9.913 -0.9802 -0.9590 -1.0662
  121MOL0     H16280   3.896   2.393   9.826 -1.0318 -1.1111  0.2767
  121MOL0     H16281   3.846   2.439   9.992  0.1039  1.0197  0.8774
  121MOL0     H16282   3.679   2.537   9.754  0.9439  0.3453  0.5100
  121MOL0     H16283   3.636   2.385   9.827 -0.5550  0.7743 -0.8845
  121MOL0     H16284   3.629   2.656   9.953  1.6188  1.2589 -1.1850
  121MOL0     H16285   3.644   2.508  10.051  0.1963  0.1300 -0.1713
  121MOL0     H16286   3.441   2.636   9.752  1.0408 -1.2539 -0.7005
  121MOL0     H16287   3.180   2.622   9.675 -0.1482  1.3077  1.4638
  121MOL0     H16288   3.165   2.450   9.707 -0.0957 -1.8081  3.2497
  121MOL0     H16289   3.003   2.680   9.813 -0.5774 -0.6054  3.0279
  121MOL0     H16290   3.037   2.566   9.939 -2.9602 -0.0655  0.5184
  121MOL0     H16291   2.831   2.495   9.846 -0.6384  0.0773 -0.4070
  121MOL0     H16292   2.949   2.389   9.779  2.7458  1.0546  0.6275
  121MOL0     H16293   2.853   2.490   9.555 -0.9126  0.3413 -1.3438
  121MOL0     H16294   2.973   2.599   9.589  1.3306 -2.8532  1.8087
  121MOL0     H16295   2.570   2.802   9.603 -3.2115  1.0673  2.7052
  121MOL0     H16296   2.264   2.764   9.516 -3.5137  0.4290  2.4198
  121MOL0     H16297   2.252   2.802   9.691  1.5933  0.1874  1.2544
  121MOL0     H16298   2.375   2.875   9.590  0.1556  0.0827 -0.2350
  121MOL0     H16299   2.051   2.473   9.915 -0.6407 -0.0681  1.8429
  121MOL0     H16300   1.820   2.411   9.965 -0.9278  0.1827 -0.4921
  121MOL0     H16301   1.613   2.209   9.627  0.9546 -1.4615  1.1424
  121MOL0     H16302   1.479   2.245   9.732  0.5960 -1.1962 -1.3348
  121MOL0     H16303   1.520   2.494   9.692  2.0785 -0.4590  0.9568
  121MOL0     H16304   1.673   2.457   9.624 -0.2191  1.7098  0.5448
  121MOL0     H16305   1.533   2.334   9.441  0.4769  2.4590 -3.6126
  121MOL0     H16306   1.545   2.507   9.448  3.1334 -0.8322  1.5665
  121MOL0     H16307   1.322   2.321   9.463 -0.2196 -0.4167  1.6679
  121MOL0     H16308   1.321   2.395   9.617 -3.3568 -3.2479 -1.1645
  121MOL0     H16309   1.347   2.626   9.485 -2.1372  2.2395  1.0695
  121MOL0     H16310   1.190   2.551   9.501 -0.8094  0.4482 -1.4989
  121MOL0     H16311   1.376   2.532   9.276  1.4811  0.4801  3.3702
  121MOL0     H16312   1.221   2.443   9.285  2.0793 -0.9446  0.4544
  121MOL0     H16313   1.111   2.680   9.303  0.0504  1.5072  1.1954
  121MOL0     H16314   1.184   2.609   9.143 -0.9325 -2.1058  0.0330
  121MOL0     H16315   1.390   2.766   9.184  0.3029 -1.1772 -0.8675
  121MOL0     H16316   1.300   2.825   9.330  1.2788  0.7800 -0.4231
  121MOL0     H16317   1.809   2.125   9.642  1.1932  0.7900 -2.1237
  121MOL0     H16318   2.049   2.185   9.586 -0.7568 -2.3974 -0.1601
  121MOL0     H16319   2.441   2.340   9.690 -1.1773  0.0567 -0.3860
  121MOL0     H16320   2.672   2.388   9.678 -0.4668 -0.0004  2.5900
  121MOL0     H16321   3.446   2.948   9.502 -0.6294  0.0350  0.9764
  121MOL0     H16322   3.210   2.853   9.454 -0.5566  1.1565  0.1203
  121MOL0     H16323   2.968   2.648   9.228 -2.2978  1.0233  0.2278
  121MOL0     H16324   2.748   2.574   9.122  1.1246 -2.0124 -1.7635
  121MOL0     H16325   2.529   2.286   9.389 -1.2298 -0.1666  1.5285
  121MOL0     H16326   2.538   2.459   9.393  0.0878 -1.0779 -0.0867
  121MOL0     H16327   2.292   2.349   9.351  1.9850 -2.5829  0.6386
  121MOL0     H16328   2.367   2.313   9.190 -0.8432 -0.8694 -0.0256
  121MOL0     H16329   2.398   2.537   9.137  0.4020  3.5447  1.4176
  121MOL0     H16330   2.404   2.592   9.298  1.8347 -1.8119  2.2483
  121MOL0     H16331   2.152   2.528   9.314  1.5376 -1.4069  0.8053
  121MOL0     H16332   2.162   2.515   9.136  0.7339  0.4971  0.1799
  121MOL0     H16333   2.154   2.900   9.105  1.5095  2.5215  2.5209
  121MOL0     H16334   2.755   2.231   9.376  0.8682  0.4730  1.8856
  121MOL0     H16335   2.992   2.267   9.418  2.9782  1.7155  0.4749
  122MOL0     O16336   4.588   9.735   2.663 -0.0570  0.1014 -0.6473
  122MOL0     C16337   4.629   9.851   2.681  0.4895 -0.2318  0.4575
  122MOL0     O16338   4.586   9.957   2.609  0.2330  0.7824 -0.0406
  122MOL0     C16339   4.497   9.930   2.505 -0.4776 -0.4071  0.1576
  122MOL0     C16340   4.377   9.997   2.492 -0.2602 -0.4710 -1.3375
  122MOL0     C16341   4.307  10.006   2.367  0.0771 -0.1730 -0.2607
  122MOL0     C16342   4.358   9.928   2.255 -0.0161  0.3609  0.0979
  122MOL0     O16343   4.286   9.921   2.141  0.0354  0.2951 -0.0811
  122MOL0     C16344   4.161   9.850   2.138  0.3439  0.3793  1.2132
  122MOL0     C16345   4.115   9.838   1.988  0.4397 -0.0178  0.3165
  122MOL0     C16346   4.207   9.762   1.901  0.3906 -0.1242  0.1274
  122MOL0     C16347   4.206   9.612   1.927 -0.0981 -0.0815 -0.5650
  122MOL0     C16348   4.082   9.536   1.875  0.5171  0.4446  0.3926
  122MOL0     C16349   3.983   9.509   1.987  0.5416  0.0211  0.4843
  122MOL0     C16350   3.849   9.434   1.935  0.7033  0.0446 -0.4827
  122MOL0     C16351   3.725   9.456   2.022  0.1671  0.4592  0.4299
  122MOL0     N16352   3.744   9.372   2.148 -0.4710 -0.0942  0.1710
  122MOL0     C16353   3.805   9.425   2.260 -0.5996  0.5459 -0.1249
  122MOL0     C16354   3.805   9.315   2.336  0.1574  0.4579 -0.3911
  122MOL0     C16355   3.865   9.321   2.479  0.6105  0.6286  0.1625
  122MOL0     C16356   3.993   9.232   2.474  0.4318  0.1406  0.8796
  122MOL0     C16357   4.076   9.244   2.604 -0.8627 -0.5086 -0.3039
  122MOL0     C16358   4.155   9.374   2.614 -0.0729 -1.5290  0.1792
  122MOL0     O16359   4.080   9.492   2.604  0.6341  0.0753 -0.6864
  122MOL0     C16360   4.055   9.560   2.725  1.0835 -0.4504 -0.0082
  122MOL0     C16361   4.063   9.508   2.849  0.5680  0.9380 -0.3798
  122MOL0     C16362   4.046   9.593   2.966  0.7183  0.6922  0.0470
  122MOL0     C16363   4.077   9.521   3.104 -1.1282  0.3655  0.6262
  122MOL0     C16364   4.017   9.733   2.941 -0.7003  0.2018 -0.2870
  122MOL0     C16365   4.007   9.833   3.056  0.1302 -0.9456  0.7083
  122MOL0     O16366   3.967   9.783   3.176  0.5204  0.3602 -0.2741
  122MOL0     C16367   3.968   9.869   3.275  0.5707 -0.0429  0.5275
  122MOL0     C16368   3.855   9.931   3.328 -0.7160  0.1693  0.5285
  122MOL0     C16369   3.872  10.032   3.428 -0.6572  0.3199 -0.1169
  122MOL0     C16370   4.001  10.045   3.490  0.1802  0.2262  0.9359
  122MOL0     O16371   3.994  10.126   3.605 -0.1470  0.0382 -0.1925
  122MOL0     C16372   4.098  10.100   3.711 -0.2541  0.8964 -0.0930
  122MOL0     C16373   4.064  10.169   3.839 -0.0945 -0.6236  0.4168
  122MOL0     C16374   4.177  10.173   3.942  0.8765 -0.1152 -0.0964
  122MOL0     C16375   4.115  10.210   4.063 -0.0158 -0.5622 -0.1330
  122MOL0     C16376   4.212  10.244   4.182 -0.3109  0.7636  0.3788
  122MOL0     C16377   4.288  10.118   4.230 -0.3719  1.0806 -0.0101
  122MOL0     C16378   4.341  10.136   4.375 -0.2146  0.2320 -0.8957
  122MOL0     C16379   4.425  10.017   4.427 -0.3767  0.0381  0.5905
  122MOL0    Cl16380   4.528  10.073   4.557 -0.4638 -0.3946 -0.0857
  122MOL0     C16381   4.107   9.971   3.438 -0.3817 -0.4492 -0.9476
  122MOL0     C16382   4.086   9.878   3.337 -0.1544  0.8421 -0.6704
  122MOL0     O16383   4.035   9.956   3.030  1.1764  0.4673  0.2778
  122MOL0     C16384   4.009   9.783   2.815 -0.0341  1.4133  0.1630
  122MOL0     C16385   4.027   9.696   2.705  0.3749  0.4173  0.0768
  122MOL0     N16386   3.735   9.209   2.275  0.5334 -0.3760 -0.1547
  122MOL0     N16387   3.694   9.246   2.155 -0.0905  0.1026 -1.2503
  122MOL0     C16388   4.468   9.851   2.278  0.0249  0.0599  0.4837
  122MOL0     C16389   4.539   9.861   2.396  0.1087 -0.0320 -0.7589
  122MOL0     C16390   4.724   9.882   2.792  0.3904 -0.5084 -0.8648
  122MOL0     C16391   4.713  10.011   2.849  0.0243  0.0354  0.1081
  122MOL0     C16392   4.786  10.037   2.965 -0.7319 -0.3762 -0.1354
  122MOL0     C16393   4.870   9.934   3.022 -0.2172  0.3396  1.0669
  122MOL0     O16394   4.939   9.977   3.132 -0.2039 -0.3884  0.7133
  122MOL0     C16395   4.987   9.876   3.216  0.9279 -1.2481  0.1475
  122MOL0     C16396   5.026   9.939   3.349  0.2244  0.4284  0.6480
  122MOL0     C16397   4.895   9.965   3.434  0.0625 -0.6939 -0.0895
  122MOL0     C16398   4.900   9.923   3.577  0.8297 -0.9479  0.1700
  122MOL0     C16399   5.002  10.019   3.631  1.3892  0.5913 -0.2834
  122MOL0     C16400   5.098  10.080   3.681 -0.4506  1.3666 -0.5565
  122MOL0     C16401   4.882   9.804   2.956  0.2019  0.2921 -0.4728
  122MOL0     C16402   4.802   9.783   2.844 -0.4729  0.2775 -0.2822
  122MOL0     H16403   4.349  10.061   2.575  2.8350  1.4309 -1.5880
  122MOL0     H16404   4.217  10.065   2.357 -0.0522 -0.5821 -1.7093
  122MOL0     H16405   4.172   9.748   2.177 -0.0918 -0.1035  0.1249
  122MOL0     H16406   4.087   9.909   2.193 -0.9535  2.2666 -2.2932
  122MOL0     H16407   4.022   9.782   1.972  1.3484 -1.4841  0.0561
  122MOL0     H16408   4.096   9.938   1.948 -4.6867 -0.4735  0.8857
  122MOL0     H16409   4.180   9.783   1.797 -0.3124 -1.2480  0.0711
  122MOL0     H16410   4.303   9.811   1.918  0.9046 -1.1053  0.0673
  122MOL0     H16411   4.294   9.571   1.876 -0.3438 -0.3058 -0.8152
  122MOL0     H16412   4.217   9.597   2.034 -1.1148 -1.4304 -0.6240
  122MOL0     H16413   4.026   9.600   1.807  1.8276  2.6590  1.2781
  122MOL0     H16414   4.116   9.446   1.822 -2.0391 -1.1277  1.2714
  122MOL0     H16415   4.026   9.447   2.066  0.3677  1.1045  1.4458
  122MOL0     H16416   3.956   9.596   2.047  2.7289  2.2324 -1.4860
  122MOL0     H16417   3.823   9.478   1.839  0.0637 -1.4347 -1.0167
  122MOL0     H16418   3.853   9.326   1.924  0.8956  0.2020 -2.1886
  122MOL0     H16419   3.641   9.427   1.958  0.3462 -0.1398  0.4610
  122MOL0     H16420   3.707   9.557   2.059  0.6875  0.7665 -0.1476
  122MOL0     H16421   3.843   9.526   2.273 -0.9510  1.2037 -3.2636
  122MOL0     H16422   3.881   9.429   2.489  3.4330  0.3275 -0.2800
  122MOL0     H16423   3.783   9.293   2.545  0.5113  0.6620  0.0522
  122MOL0     H16424   4.063   9.238   2.391  2.6246 -2.0448  2.4614
  122MOL0     H16425   3.956   9.130   2.459 -0.4553  0.7475 -1.5780
  122MOL0     H16426   4.147   9.160   2.605 -0.2585 -0.0117 -0.8403
  122MOL0     H16427   4.030   9.236   2.703 -0.5344  2.7880  0.2124
  122MOL0     H16428   4.221   9.374   2.527 -1.6524 -1.6811 -1.0606
  122MOL0     H16429   4.224   9.386   2.698  0.5848  0.0108 -0.5298
  122MOL0     H16430   4.080   9.402   2.864  0.9614  1.2109  1.2798
  122MOL0     H16431   4.139   9.433   3.086  1.3312  1.7680  1.7433
  122MOL0     H16432   4.136   9.572   3.181 -1.2557 -0.0825  1.0272
  122MOL0     H16433   3.981   9.496   3.150 -2.2344 -2.2811 -2.7055
  122MOL0     H16434   3.759   9.910   3.282  0.5632 -0.8613 -1.8252
  122MOL0     H16435   3.795  10.090   3.479  0.7556  0.9740  1.3852
  122MOL0     H16436   4.107   9.994   3.735 -4.2522  0.6372  0.9071
  122MOL0     H16437   4.191  10.139   3.668  0.0881 -1.1063 -1.2654
  122MOL0     H16438   4.031  10.270   3.810  0.4066 -0.6354 -0.2186
  122MOL0     H16439   3.974  10.125   3.884 -1.2960 -0.3157 -1.5746
  122MOL0     H16440   4.259  10.235   3.907 -1.1143  2.2507 -0.8422
  122MOL0     H16441   4.221  10.072   3.945  1.9651  0.1952 -2.9080
  122MOL0     H16442   4.062  10.303   4.042 -0.2407 -0.0887  2.1691
  122MOL0     H16443   4.041  10.135   4.093  0.0784 -1.1785 -1.4123
  122MOL0     H16444   4.148  10.280   4.263 -1.6376 -2.8710  1.1745
  122MOL0     H16445   4.283  10.315   4.139  3.0909 -2.5385  0.0025
  122MOL0     H16446   4.229  10.027   4.225 -0.5206  1.0656  1.4423
  122MOL0     H16447   4.374  10.094   4.167 -1.2580  1.6193 -1.4700
  122MOL0     H16448   4.258  10.164   4.441  2.4470  2.2868  1.8323
  122MOL0     H16449   4.410  10.219   4.358  0.3868 -0.0600  0.0829
  122MOL0     H16450   4.491   9.976   4.350  1.4054 -1.2540  2.6945
  122MOL0     H16451   4.352   9.942   4.458 -2.2106  0.7666 -1.6365
  122MOL0     H16452   4.208   9.983   3.475 -0.4103  0.3485 -1.1046
  122MOL0     H16453   4.168   9.817   3.299 -1.1701 -0.0597 -1.4793
  122MOL0     H16454   3.986   9.888   2.798  1.0781  1.2856 -2.6120
  122MOL0     H16455   4.012   9.734   2.605 -2.0888 -1.2067 -0.2596
  122MOL0     H16456   4.484   9.770   2.208 -0.7391 -1.9953  2.5853
  122MOL0     H16457   4.631   9.805   2.412  0.7109  1.5531  1.9009
  122MOL0     H16458   4.641  10.086   2.821 -0.6589 -0.2537  1.0674
  122MOL0     H16459   4.772  10.126   3.026 -4.1595  0.1972 -1.5108
  122MOL0     H16460   4.914   9.795   3.223 -2.1893  1.5118  3.2565
  122MOL0     H16461   5.077   9.836   3.168  0.5421 -0.3453 -1.4264
  122MOL0     H16462   5.093  10.026   3.351 -0.7206  1.1526  1.5856
  122MOL0     H16463   5.072   9.861   3.410 -0.3207 -0.0322  0.4689
  122MOL0     H16464   4.808   9.916   3.388 -0.0678 -0.7636  0.2301
  122MOL0     H16465   4.875  10.073   3.426 -0.3105 -0.6346  1.4202
  122MOL0     H16466   4.931   9.818   3.583  1.6299 -0.7293 -0.0603
  122MOL0     H16467   4.803   9.939   3.624  1.9898  2.0670  1.8037
  122MOL0     H16468   5.175  10.142   3.722 -0.5510  0.6885  0.7202
  122MOL0     H16469   4.942   9.720   2.990 -0.2485 -0.4887 -1.5694
  122MOL0     H16470   4.809   9.687   2.793 -1.2428  0.5495 -0.9120
  123MOL0     O16471   5.337   1.966   9.909  0.2766 -0.2829 -0.7303
  123MOL0     C16472   5.303   2.072   9.849 -0.5019 -0.5807  0.5097
  123MOL0     O16473   5.195   2.159   9.867 -0.0939  0.0635 -0.1674
  123MOL0     C16474   5.093   2.121   9.951 -0.4720 -0.0913 -0.7934
  123MOL0     C16475   4.969   2.167   9.901 -0.0409 -0.0365 -0.7293
  123MOL0     C16476   4.857   2.148   9.982  0.4190 -0.6352  0.7492
  123MOL0     C16477   4.862   2.087  10.108 -0.0361 -0.3532  0.2558
  123MOL0     O16478   4.739   2.079  10.173 -0.5216 -0.3122 -0.1664
  123MOL0     C16479   4.694   1.947  10.190 -0.3284 -0.1494  0.0524
  123MOL0     C16480   4.587   1.934  10.299 -0.1511  0.5640 -0.0787
  123MOL0     C16481   4.640   1.951  10.440 -0.5534  0.6542 -0.4117
  123MOL0     C16482   4.635   2.090  10.494 -0.0986  0.0111  0.0318
  123MOL0     C16483   4.700   2.087  10.638 -0.2803 -0.2941  0.6987
  123MOL0     C16484   4.639   1.991  10.740 -0.1318 -1.2674 -0.0340
  123MOL0     C16485   4.483   2.001  10.762 -0.8244  1.4218  0.8397
  123MOL0     C16486   4.435   2.143  10.792 -0.9531 -0.4284 -1.1757
  123MOL0     N16487   4.294   2.158  10.771 -0.1255  0.6189 -1.1068
  123MOL0     C16488   4.201   2.116  10.857 -0.1160 -0.6795  0.3066
  123MOL0     C16489   4.089   2.119  10.783 -0.0024  0.4489  0.6914
  123MOL0     C16490   3.952   2.093  10.828  0.3574 -0.7613 -0.2094
  123MOL0     C16491   3.931   2.052  10.969 -0.7944 -0.6927 -0.2349
  123MOL0     C16492   3.790   2.001  11.003  0.9438 -0.0626  0.2061
  123MOL0     C16493   3.693   2.123  11.018 -0.4218  0.6228  0.4452
  123MOL0     O16494   3.713   2.189  11.150 -0.6223  0.2028  1.4382
  123MOL0     C16495   3.647   2.149  11.260 -0.0301  0.2820 -0.0173
  123MOL0     C16496   3.529   2.074  11.265  1.1038 -0.5578 -0.2151
  123MOL0     C16497   3.465   2.031  11.380 -0.4793 -0.4309 -0.7819
  123MOL0     C16498   3.336   1.953  11.363 -0.7572  0.0491 -0.1866
  123MOL0     C16499   3.531   2.048  11.501  0.2939  0.1726  0.1319
  123MOL0     C16500   3.472   2.016  11.634  0.5843  0.8288  0.7512
  123MOL0     O16501   3.335   2.005  11.637  0.0750  0.3311  0.1037
  123MOL0     C16502   3.266   1.956  11.744  0.3023 -0.5450 -0.1370
  123MOL0     C16503   3.263   2.034  11.859 -0.8058 -0.0197  0.0412
  123MOL0     C16504   3.210   1.992  11.984  0.7245 -0.1266 -0.0446
  123MOL0     C16505   3.148   1.870  11.996 -0.4219 -0.4990  0.3658
  123MOL0     O16506   3.100   1.818  12.111  0.6691 -0.0571 -0.6857
  123MOL0     C16507   3.037   1.911  12.211 -0.2923 -0.0389  0.4561
  123MOL0     C16508   3.122   1.950  12.328 -0.3171  0.5725  0.5039
  123MOL0     C16509   3.044   2.021  12.449 -0.3395 -0.1838  0.4141
  123MOL0     C16510   3.126   2.005  12.585 -0.0151  0.4678 -0.6671
  123MOL0     C16511   3.080   2.101  12.698 -0.1625 -0.2050 -0.2252
  123MOL0     C16512   3.195   2.115  12.794  0.6202 -1.1688  0.1014
  123MOL0     C16513   3.162   2.100  12.942  0.4439  0.4862 -0.5558
  123MOL0     C16514   3.267   2.149  13.048  0.0291  0.4828  1.5881
  123MOL0    Cl16515   3.181   2.198  13.196 -0.4263 -0.1201 -0.0658
  123MOL0     C16516   3.156   1.790  11.878  0.8593  0.3261 -0.0507
  123MOL0     C16517   3.198   1.834  11.752 -0.4394  0.1907  0.4362
  123MOL0     O16518   3.542   2.005  11.735 -0.3210 -0.2848  0.0229
  123MOL0     C16519   3.656   2.116  11.495  0.6645 -0.2451  0.7078
  123MOL0     C16520   3.709   2.169  11.385 -0.1078  0.2737 -0.2898
  123MOL0     N16521   4.123   2.173  10.660 -0.1244  1.0631  0.4117
  123MOL0     N16522   4.244   2.186  10.646  0.4847  0.1179  0.7106
  123MOL0     C16523   4.981   2.028  10.151  0.0670  0.8589 -0.5733
  123MOL0     C16524   5.096   2.051  10.074 -1.4321 -0.3493 -0.0255
  123MOL0     C16525   5.397   2.130   9.746 -0.2493  0.9292 -1.4839
  123MOL0     C16526   5.532   2.077   9.738 -0.1269  0.8468 -0.1693
  123MOL0     C16527   5.629   2.148   9.680  0.4089  0.2206  0.1919
  123MOL0     C16528   5.600   2.273   9.618 -0.5818  0.5582  0.3195
  123MOL0     O16529   5.693   2.360   9.556 -0.3093  0.2143 -0.0529
  123MOL0     C16530   5.832   2.320   9.554  0.3986  0.1482 -1.2384
  123MOL0     C16531   5.917   2.434   9.495  0.0032  0.7565  0.0911
  123MOL0     C16532   6.068   2.402   9.519  0.5803  0.5423 -0.3133
  123MOL0     C16533   6.114   2.288   9.433 -1.0353 -0.2587 -0.1425
  123MOL0     C16534   6.262   2.279   9.426 -0.2170 -0.4184  0.0161
  123MOL0     C16535   6.382   2.256   9.424 -0.3291  0.3512  0.2440
  123MOL0     C16536   5.465   2.315   9.619 -0.1379  0.4406  0.1641
  123MOL0     C16537   5.362   2.240   9.679 -0.6251 -0.2736  0.3156
  123MOL0     H16538   4.961   2.205   9.800 -1.3866 -2.6998 -1.7161
  123MOL0     H16539   4.753   2.158   9.953  0.2895 -3.2151  0.0743
  123MOL0     H16540   4.659   1.907  10.094  0.1931 -0.5651  0.0288
  123MOL0     H16541   4.775   1.881  10.223 -2.6457 -2.3314  1.7027
  123MOL0     H16542   4.503   2.001  10.275  1.0814  2.0742 -0.3152
  123MOL0     H16543   4.550   1.831  10.295  5.4323 -1.8252  0.7587
  123MOL0     H16544   4.576   1.883  10.498  1.2604 -1.5938 -0.8901
  123MOL0     H16545   4.741   1.916  10.463 -0.2326  1.3241 -0.7755
  123MOL0     H16546   4.685   2.157  10.424  0.5134 -2.2209 -1.8043
  123MOL0     H16547   4.531   2.118  10.512 -0.3438 -0.2401 -0.9567
  123MOL0     H16548   4.802   2.050  10.624  0.0873  0.0575  2.1976
  123MOL0     H16549   4.687   2.190  10.673 -2.2803 -0.2131 -0.1536
  123MOL0     H16550   4.664   1.888  10.713  0.9328 -1.5085  1.7261
  123MOL0     H16551   4.689   2.004  10.836  1.3224  2.1713 -1.0812
  123MOL0     H16552   4.437   1.957  10.673  1.6382  2.4244 -1.0196
  123MOL0     H16553   4.447   1.938  10.844 -1.3800  0.0919 -0.4016
  123MOL0     H16554   4.492   2.213  10.730  1.6382 -2.4506 -1.2789
  123MOL0     H16555   4.465   2.158  10.896 -2.5636 -1.7574 -0.4725
  123MOL0     H16556   4.204   2.071  10.956 -0.7866 -0.1498  0.5778
  123MOL0     H16557   3.898   2.187  10.810 -1.4415 -1.8989 -1.1706
  123MOL0     H16558   3.921   2.010  10.763 -0.0944  1.6835 -3.3841
  123MOL0     H16559   3.945   2.134  11.039 -2.3315 -1.4650  1.0391
  123MOL0     H16560   3.998   1.971  10.997 -0.5964 -1.2630 -2.1875
  123MOL0     H16561   3.782   1.956  11.102 -1.6719  2.2914  1.2162
  123MOL0     H16562   3.769   1.928  10.924  0.1294  1.2421 -0.8288
  123MOL0     H16563   3.594   2.077  11.015  0.1473 -0.7599 -3.5699
  123MOL0     H16564   3.685   2.185  10.929 -2.4737 -0.8154 -0.4235
  123MOL0     H16565   3.474   2.051  11.174  0.6161 -1.7189  0.3539
  123MOL0     H16566   3.247   2.001  11.405  0.7820  0.4358  2.9309
  123MOL0     H16567   3.322   1.926  11.258 -0.8345  0.6499 -0.3322
  123MOL0     H16568   3.353   1.859  11.417 -3.7673 -1.6262 -1.8504
  123MOL0     H16569   3.313   2.130  11.864  3.0554 -1.8489  0.9126
  123MOL0     H16570   3.207   2.064  12.065 -0.3162 -0.5384  0.3005
  123MOL0     H16571   3.004   2.001  12.160  1.7558  1.4084  1.5241
  123MOL0     H16572   2.951   1.851  12.242  0.4935 -1.1644  0.5245
  123MOL0     H16573   3.176   1.858  12.351 -1.2443 -0.9268 -2.7226
  123MOL0     H16574   3.203   2.015  12.295  1.1705 -0.6126  1.6449
  123MOL0     H16575   2.942   1.983  12.454 -0.6379  0.2320 -1.4473
  123MOL0     H16576   3.037   2.126  12.420  3.5062 -0.3219 -1.7281
  123MOL0     H16577   3.126   1.902  12.622  0.6356  1.2495  1.6938
  123MOL0     H16578   3.231   2.034  12.577 -0.3684  2.0021 -0.0312
  123MOL0     H16579   2.987   2.069  12.746 -0.5882  3.1044  1.5233
  123MOL0     H16580   3.057   2.199  12.653 -0.6842  0.0429  0.5500
  123MOL0     H16581   3.270   2.037  12.776  0.3638 -0.8093 -3.0599
  123MOL0     H16582   3.242   2.213  12.793 -0.5259 -0.3998  3.8891
  123MOL0     H16583   3.162   1.991  12.949  4.1613  0.3630 -0.0754
  123MOL0     H16584   3.064   2.137  12.970  0.0177  0.0507 -1.4258
  123MOL0     H16585   3.319   2.239  13.017 -0.2377  1.1002  2.8515
  123MOL0     H16586   3.345   2.074  13.060 -0.7445 -0.8748 -1.0556
  123MOL0     H16587   3.118   1.689  11.879 -1.2968  0.9639 -2.9374
  123MOL0     H16588   3.172   1.778  11.662 -0.5720  0.2506  0.4368
  123MOL0     H16589   3.711   2.132  11.587 -0.9340  1.6044  1.4004
  123MOL0     H16590   3.801   2.228  11.383 -1.1386  1.9910 -3.0037
  123MOL0     H16591   4.983   1.969  10.243 -1.2397  1.1478 -0.3373
  123MOL0     H16592   5.189   2.018  10.118 -0.1237  2.0017 -0.8469
  123MOL0     H16593   5.565   1.990   9.793 -0.5063  1.1087  0.4912
  123MOL0     H16594   5.729   2.108   9.693  0.1972 -1.1292 -1.7794
  123MOL0     H16595   5.872   2.282   9.649 -0.3146  1.9982 -0.1415
  123MOL0     H16596   5.831   2.232   9.488 -1.9094 -1.3794  0.6834
  123MOL0     H16597   5.893   2.522   9.555  1.1448  0.9770  0.2541
  123MOL0     H16598   5.905   2.449   9.388  0.3765 -2.3999 -0.5041
  123MOL0     H16599   6.068   2.377   9.626 -0.6759  1.0205 -0.1798
  123MOL0     H16600   6.127   2.493   9.502  1.4862  0.2178  0.9471
  123MOL0     H16601   6.079   2.310   9.332  1.6904  4.5212 -0.3217
  123MOL0     H16602   6.075   2.191   9.464 -0.0467 -1.1892 -1.7088
  123MOL0     H16603   6.488   2.243   9.411 -0.2453  1.3470 -0.1510
  123MOL0     H16604   5.430   2.407   9.573  0.3878  1.2141  1.2602
  123MOL0     H16605   5.260   2.277   9.671 -0.3840  0.6090  1.1660
  124MOL0     O16606   6.200   5.838  11.244 -0.0922 -0.3678 -0.5097
  124MOL0     C16607   6.169   5.945  11.282  0.6627  0.1027 -0.7046
  124MOL0     O16608   6.085   6.040  11.224  0.4619  0.2538  0.3951
  124MOL0     C16609   5.997   6.001  11.119 -0.3533 -0.1284 -0.3802
  124MOL0     C16610   5.942   5.874  11.084 -0.0366 -0.5669 -0.3705
  124MOL0     C16611   5.866   5.851  10.971 -0.2884 -0.7382 -0.0188
  124MOL0     C16612   5.859   5.954  10.876 -0.5221 -0.0957 -0.2944
  124MOL0     O16613   5.783   5.909  10.771 -0.1920 -0.9372 -0.0048
  124MOL0     C16614   5.733   6.007  10.668  0.0023 -0.2016 -1.8955
  124MOL0     C16615   5.606   6.074  10.729 -0.0234  0.8056  0.2153
  124MOL0     C16616   5.535   6.160  10.622 -0.5826  0.2379  0.5817
  124MOL0     C16617   5.485   6.076  10.499  0.0741 -0.0993  0.0347
  124MOL0     C16618   5.397   6.157  10.407 -0.4610  0.8471  0.7938
  124MOL0     C16619   5.354   6.070  10.292 -0.0247 -0.2644  0.1037
  124MOL0     C16620   5.256   6.154  10.202  0.1378  0.7381  0.1433
  124MOL0     C16621   5.233   6.082  10.073 -0.0959  0.7760 -0.8240
  124MOL0     N16622   5.146   6.162   9.986 -0.1382 -0.7963 -0.2037
  124MOL0     C16623   5.192   6.248   9.885 -1.2465 -0.5918  0.0082
  124MOL0     C16624   5.083   6.301   9.826 -0.7162 -0.7113 -0.5210
  124MOL0     C16625   5.082   6.410   9.717  0.3066  0.5444  0.5121
  124MOL0     C16626   5.135   6.360   9.571 -0.1411 -0.2688 -0.4303
  124MOL0     C16627   5.029   6.263   9.516  0.7600  0.2663  0.7012
  124MOL0     C16628   5.050   6.232   9.366 -0.0836  0.4570 -0.0135
  124MOL0     O16629   4.945   6.143   9.335 -0.2576  0.3019  0.4895
  124MOL0     C16630   4.939   6.086   9.207 -0.8651  0.9011  0.3607
  124MOL0     C16631   4.866   5.966   9.189  0.4179 -0.0087  0.3281
  124MOL0     C16632   4.845   5.898   9.072  0.2991 -0.5482  0.7903
  124MOL0     C16633   4.785   5.763   9.073  0.3826  0.2969 -0.4510
  124MOL0     C16634   4.912   5.946   8.957 -1.0593 -0.0931 -0.7790
  124MOL0     C16635   4.897   5.883   8.825 -0.2456 -0.3336  0.6622
  124MOL0     O16636   4.787   5.812   8.796  0.4655 -0.9537 -0.2832
  124MOL0     C16637   4.781   5.754   8.672  0.0818  0.5982 -0.0611
  124MOL0     C16638   4.730   5.820   8.553  0.1142 -0.1028  0.0563
  124MOL0     C16639   4.705   5.744   8.439  0.4136 -0.0647 -0.8163
  124MOL0     C16640   4.741   5.609   8.429 -0.5484 -0.5719 -0.4800
  124MOL0     O16641   4.718   5.546   8.309  0.2657  0.1006  0.3189
  124MOL0     C16642   4.817   5.445   8.269  0.0145 -0.2629 -0.2982
  124MOL0     C16643   4.778   5.401   8.127 -1.2299 -0.2649  0.4691
  124MOL0     C16644   4.900   5.299   8.098 -0.3092 -0.1292 -0.4042
  124MOL0     C16645   4.895   5.258   7.952  0.4441 -0.7084 -1.2438
  124MOL0     C16646   5.004   5.161   7.911 -0.0491 -0.2841  0.5451
  124MOL0     C16647   4.971   5.013   7.921  0.2327  0.1150  0.0329
  124MOL0     C16648   5.075   4.907   7.877 -0.1363 -0.5095  0.1600
  124MOL0     C16649   5.112   4.914   7.731  0.0750  0.6325 -0.9063
  124MOL0    Cl16650   4.979   4.908   7.612  0.0178  0.4761 -0.5366
  124MOL0     C16651   4.801   5.548   8.540  0.3084 -0.3708 -0.1150
  124MOL0     C16652   4.814   5.616   8.667 -0.2213 -0.3920 -0.3982
  124MOL0     O16653   4.975   5.918   8.736  0.0043  0.0010  0.1693
  124MOL0     C16654   5.008   6.051   8.971 -0.7063 -1.4545  0.8244
  124MOL0     C16655   5.012   6.124   9.097 -0.4962 -0.0090  0.3032
  124MOL0     N16656   4.974   6.248   9.887  0.1130  0.6340  0.6018
  124MOL0     N16657   5.008   6.173   9.988  0.0827 -0.7536 -0.4681
  124MOL0     C16658   5.920   6.072  10.903  0.8122 -0.7708  0.5638
  124MOL0     C16659   5.980   6.102  11.022  0.3335  0.1485 -0.4821
  124MOL0     C16660   6.238   5.993  11.404  0.2473 -0.2423  0.9265
  124MOL0     C16661   6.183   6.100  11.471 -0.1473 -0.2227 -0.0501
  124MOL0     C16662   6.246   6.164  11.577 -0.1743  0.1628 -0.4555
  124MOL0     C16663   6.357   6.111  11.638 -0.2969 -0.0793 -1.1945
  124MOL0     O16664   6.414   6.179  11.743 -0.0713 -0.2843 -0.2487
  124MOL0     C16665   6.435   6.127  11.870 -0.1106  1.0883 -0.5896
  124MOL0     C16666   6.466   6.216  11.977 -0.8568 -0.1848  0.0491
  124MOL0     C16667   6.437   6.170  12.115  0.0058  0.7508  0.5534
  124MOL0     C16668   6.482   6.028  12.137  0.5002 -0.7984 -0.7580
  124MOL0     C16669   6.627   6.002  12.108  0.7382  0.1732 -0.2319
  124MOL0     C16670   6.744   5.978  12.091 -0.1762  0.1365 -0.9057
  124MOL0     C16671   6.420   6.000  11.576  0.1009 -0.1217 -0.3675
  124MOL0     C16672   6.360   5.941  11.456  0.1212 -0.0962 -0.4929
  124MOL0     H16673   5.952   5.786  11.147 -2.7227 -1.6845 -1.3319
  124MOL0     H16674   5.825   5.757  10.936  2.3223 -1.3679 -1.7177
  124MOL0     H16675   5.800   6.088  10.638 -1.6480  2.0649  0.1811
  124MOL0     H16676   5.701   5.945  10.583 -3.0163 -3.0746  1.0259
  124MOL0     H16677   5.534   5.998  10.761  0.6849 -1.9143 -3.8058
  124MOL0     H16678   5.639   6.147  10.803 -1.8193  1.9319 -0.0241
  124MOL0     H16679   5.463   6.220  10.679  1.3252  0.1629  3.2218
  124MOL0     H16680   5.606   6.233  10.584 -1.4046  0.7840  0.0567
  124MOL0     H16681   5.563   6.048  10.428  0.0437 -2.0333  0.7178
  124MOL0     H16682   5.449   5.977  10.528  1.3860 -0.4487  0.5414
  124MOL0     H16683   5.307   6.188  10.462 -0.1981  2.1600  0.5211
  124MOL0     H16684   5.451   6.240  10.362  0.0819  1.3782  2.3420
  124MOL0     H16685   5.441   6.046  10.231 -1.4826  1.4076 -2.8901
  124MOL0     H16686   5.303   5.982  10.332  1.4285 -1.9031 -1.5294
  124MOL0     H16687   5.166   6.164  10.263 -0.4087  1.3459 -0.7455
  124MOL0     H16688   5.293   6.254  10.180 -2.2948  1.5084 -0.7578
  124MOL0     H16689   5.190   5.984  10.095  1.5317 -0.4544 -2.7406
  124MOL0     H16690   5.330   6.060  10.026  1.7166  1.4971  2.2394
  124MOL0     H16691   5.287   6.285   9.849 -1.5049  1.3938  1.2126
  124MOL0     H16692   4.975   6.430   9.706 -0.2885 -1.1641  2.4672
  124MOL0     H16693   5.150   6.492   9.743  1.6930 -0.9953  2.0497
  124MOL0     H16694   5.229   6.306   9.582 -0.0504 -0.1390 -0.5664
  124MOL0     H16695   5.143   6.448   9.507  0.9977 -0.7440 -0.9649
  124MOL0     H16696   4.929   6.308   9.519  0.7638  0.7035 -2.5515
  124MOL0     H16697   5.039   6.175   9.580 -0.7771 -0.6421 -0.2449
  124MOL0     H16698   5.149   6.188   9.352  0.1799 -0.4965  3.6454
  124MOL0     H16699   5.026   6.321   9.307 -3.0055 -0.2021  0.0103
  124MOL0     H16700   4.827   5.915   9.276  1.8986 -0.8471  0.5309
  124MOL0     H16701   4.766   5.727   9.174 -0.0285  0.0785 -0.6031
  124MOL0     H16702   4.697   5.750   9.010  1.2183 -3.7036 -1.0812
  124MOL0     H16703   4.863   5.699   9.030 -1.5375 -0.5282 -2.9993
  124MOL0     H16704   4.712   5.926   8.560  1.5472  0.6400 -4.2723
  124MOL0     H16705   4.658   5.805   8.362 -0.8355 -1.6155 -1.3387
  124MOL0     H16706   4.920   5.482   8.269 -0.3973  0.9246 -0.7385
  124MOL0     H16707   4.802   5.350   8.321 -3.0605 -1.0664 -2.3625
  124MOL0     H16708   4.681   5.351   8.118 -0.8235 -0.7622 -1.6804
  124MOL0     H16709   4.775   5.485   8.057  0.0609 -2.0362 -1.8413
  124MOL0     H16710   4.878   5.212   8.160 -3.4199 -0.4985 -1.8599
  124MOL0     H16711   5.000   5.343   8.099  0.7786 -2.3918 -1.7942
  124MOL0     H16712   4.806   5.195   7.944  1.8074 -2.7694 -0.9500
  124MOL0     H16713   4.889   5.347   7.889  0.1612  2.3298  2.7026
  124MOL0     H16714   5.096   5.185   7.965 -1.4551 -0.5253  3.1896
  124MOL0     H16715   5.025   5.186   7.807 -2.6612 -0.5471 -0.1260
  124MOL0     H16716   4.936   4.998   8.024 -1.1862  0.4541 -0.3745
  124MOL0     H16717   4.880   4.992   7.864 -0.6867  1.6239  0.8640
  124MOL0     H16718   5.029   4.808   7.886 -0.9213 -0.2846 -1.0691
  124MOL0     H16719   5.159   4.915   7.947  1.3103  2.1175 -1.7237
  124MOL0     H16720   5.182   4.830   7.722  1.0736  1.5953 -2.8778
  124MOL0     H16721   5.185   4.993   7.707  1.9549 -0.9290 -0.5873
  124MOL0     H16722   4.833   5.445   8.529 -0.6962 -0.6401 -0.5908
  124MOL0     H16723   4.865   5.563   8.748  3.1985 -1.7813 -3.2138
  124MOL0     H16724   5.073   6.084   8.890 -2.1080  0.5396  0.4472
  124MOL0     H16725   5.072   6.214   9.096 -1.2196  0.4849  0.8686
  124MOL0     H16726   5.925   6.152  10.829  0.6279 -1.6286 -0.3887
  124MOL0     H16727   6.034   6.195  11.035  3.6340 -1.1753 -3.1141
  124MOL0     H16728   6.092   6.151  11.440  0.8268  0.5187 -1.8934
  124MOL0     H16729   6.200   6.252  11.622 -2.6094 -0.9721 -0.5455
  124MOL0     H16730   6.345   6.069  11.890  0.3618  0.1417 -1.1376
  124MOL0     H16731   6.509   6.047  11.865  0.4460  1.6037 -0.8387
  124MOL0     H16732   6.417   6.311  11.952  0.8198  0.9533  0.8960
  124MOL0     H16733   6.574   6.223  11.960 -0.8517  3.3799  0.6134
  124MOL0     H16734   6.329   6.166  12.134 -0.2200  1.1854 -0.5677
  124MOL0     H16735   6.489   6.240  12.182  1.7849  2.4473 -2.3469
  124MOL0     H16736   6.418   5.951  12.094 -1.4979  0.6306 -0.4888
  124MOL0     H16737   6.471   6.016  12.245  0.1694  7.1893  0.7304
  124MOL0     H16738   6.847   5.984  12.062 -0.5146 -1.1523 -2.5288
  124MOL0     H16739   6.508   5.946  11.610  0.7068 -1.0251 -3.1062
  124MOL0     H16740   6.414   5.863  11.405  0.4346  0.1587 -0.5535
  125MOL0     O16741   6.939   5.771   2.216 -0.6583  0.6327  0.7451
  125MOL0     C16742   6.936   5.650   2.209  0.2525  0.2325 -0.0426
  125MOL0     O16743   6.823   5.571   2.196  0.6291 -0.2721  0.4292
  125MOL0     C16744   6.695   5.626   2.213 -0.1654  0.2294  0.0676
  125MOL0     C16745   6.661   5.708   2.315  0.1766  0.5900  0.4226
  125MOL0     C16746   6.524   5.755   2.342 -0.2735 -0.0230  0.5765
  125MOL0     C16747   6.424   5.716   2.245  0.2441 -0.5043 -0.1267
  125MOL0     O16748   6.286   5.739   2.244  0.3094  0.0912 -0.1894
  125MOL0     C16749   6.245   5.823   2.355 -0.4065 -0.3763  1.1019
  125MOL0     C16750   6.089   5.788   2.380  1.0052 -0.0164 -0.2883
  125MOL0     C16751   6.012   5.838   2.254 -0.3501 -0.4551 -0.2523
  125MOL0     C16752   5.866   5.856   2.283 -0.0437  0.2688 -0.1619
  125MOL0     C16753   5.781   5.906   2.168 -0.3909  0.3190  0.0293
  125MOL0     C16754   5.636   5.956   2.204 -0.2243 -0.4634 -0.2290
  125MOL0     C16755   5.567   5.973   2.070  1.2976  0.5370  0.3160
  125MOL0     C16756   5.416   6.013   2.101 -0.7252  0.2090  0.0636
  125MOL0     N16757   5.340   5.906   2.157 -0.0508  0.0984  0.0503
  125MOL0     C16758   5.304   5.788   2.087 -0.5265  0.2209 -0.0649
  125MOL0     C16759   5.253   5.718   2.185  0.2805  0.3064 -0.5308
  125MOL0     C16760   5.185   5.589   2.156  0.6007  0.2923 -0.4609
  125MOL0     C16761   5.273   5.466   2.159 -0.5005 -0.1504 -0.5343
  125MOL0     C16762   5.376   5.461   2.268 -0.0073 -0.5644  0.3299
  125MOL0     C16763   5.478   5.352   2.242 -0.2449 -0.4347  1.0195
  125MOL0     O16764   5.558   5.395   2.130  0.0501  0.0702 -0.7383
  125MOL0     C16765   5.690   5.416   2.152  0.4578  0.7297 -0.3130
  125MOL0     C16766   5.771   5.374   2.051 -0.5494 -0.3843 -0.4022
  125MOL0     C16767   5.910   5.387   2.061  0.4311 -0.6392  0.2730
  125MOL0     C16768   5.970   5.326   1.938 -0.3621  0.2992 -0.0345
  125MOL0     C16769   5.969   5.447   2.178 -0.2744 -0.0418  0.9327
  125MOL0     C16770   6.109   5.462   2.185  0.7544 -0.6490 -0.0097
  125MOL0     O16771   6.170   5.459   2.311  0.6182 -0.2049 -0.2868
  125MOL0     C16772   6.302   5.432   2.339 -0.1604 -0.0495 -0.0305
  125MOL0     C16773   6.380   5.351   2.261  0.1491 -0.6488 -0.1174
  125MOL0     C16774   6.522   5.332   2.295  1.0366  0.4301 -0.1890
  125MOL0     C16775   6.573   5.375   2.418  1.2880  0.9031 -0.0398
  125MOL0     O16776   6.703   5.349   2.442 -0.1775 -0.1914 -0.0036
  125MOL0     C16777   6.762   5.420   2.553  0.4452 -0.3388 -0.3000
  125MOL0     C16778   6.912   5.395   2.558 -0.1663 -0.1913  0.4609
  125MOL0     C16779   6.994   5.500   2.639  0.4822  0.6578  0.4311
  125MOL0     C16780   7.142   5.451   2.662  0.6008  0.4269  0.7184
  125MOL0     C16781   7.246   5.559   2.704  0.2849  1.3946 -0.2099
  125MOL0     C16782   7.333   5.595   2.590  0.6215  0.4147  0.7224
  125MOL0     C16783   7.421   5.711   2.621 -0.7534  0.2657  0.9570
  125MOL0     C16784   7.502   5.779   2.507  0.0468 -0.5095 -0.3570
  125MOL0    Cl16785   7.647   5.857   2.573 -0.6986 -0.1223 -0.2404
  125MOL0     C16786   6.490   5.456   2.496  0.1945 -1.0103 -0.1066
  125MOL0     C16787   6.363   5.488   2.459  0.3661 -0.1358  0.2572
  125MOL0     O16788   6.171   5.484   2.083  0.0216  0.5450 -0.0114
  125MOL0     C16789   5.885   5.472   2.284  0.5982  0.0236  0.1842
  125MOL0     C16790   5.749   5.462   2.271  0.5813  1.2679  0.0231
  125MOL0     N16791   5.269   5.788   2.308 -0.1472 -0.0154  0.0814
  125MOL0     N16792   5.317   5.901   2.286 -0.0951  0.3642  0.0812
  125MOL0     C16793   6.459   5.636   2.132 -0.3137 -0.4393  0.2058
  125MOL0     C16794   6.591   5.599   2.124 -0.1986  0.8963  0.4904
  125MOL0     C16795   7.065   5.579   2.215  0.0462 -0.4141 -0.0972
  125MOL0     C16796   7.064   5.440   2.207 -0.0651  0.0760 -0.4856
  125MOL0     C16797   7.178   5.368   2.242  0.1290 -0.1041 -0.1012
  125MOL0     C16798   7.293   5.440   2.279 -0.1967  0.2333  0.0600
  125MOL0     O16799   7.396   5.365   2.315  0.5010  0.1910 -0.1990
  125MOL0     C16800   7.527   5.376   2.257 -0.3033 -0.0574 -0.2666
  125MOL0     C16801   7.568   5.235   2.219  0.1261  0.9215  0.0255
  125MOL0     C16802   7.517   5.191   2.087 -0.2258  0.4353 -0.6290
  125MOL0     C16803   7.550   5.050   2.057  1.1639 -0.4448  0.0546
  125MOL0     C16804   7.686   5.015   2.066 -0.3638  0.0878 -0.0509
  125MOL0     C16805   7.804   4.999   2.064 -0.2905 -0.5297  0.1901
  125MOL0     C16806   7.296   5.576   2.273  1.3368  0.3805 -0.0728
  125MOL0     C16807   7.173   5.645   2.252 -0.6946  0.3801  0.1246
  125MOL0     H16808   6.734   5.730   2.393  0.8957 -0.0356 -0.0621
  125MOL0     H16809   6.492   5.826   2.417 -1.4055  2.6055 -2.2096
  125MOL0     H16810   6.292   5.794   2.450  1.0516 -2.1342 -0.0952
  125MOL0     H16811   6.243   5.932   2.345 -2.2771 -0.4100  0.7605
  125MOL0     H16812   6.075   5.685   2.416  1.7160  0.1707  0.5747
  125MOL0     H16813   6.053   5.845   2.466  1.9127  0.0309  0.0633
  125MOL0     H16814   6.051   5.935   2.223  2.2654 -1.6843 -1.1323
  125MOL0     H16815   6.042   5.770   2.175  0.3497 -1.3782  0.7763
  125MOL0     H16816   5.819   5.762   2.313  2.1976 -1.6119 -2.1414
  125MOL0     H16817   5.845   5.931   2.360 -0.9783  0.9189 -1.0315
  125MOL0     H16818   5.839   5.980   2.112 -1.2003 -0.2115 -1.5869
  125MOL0     H16819   5.752   5.819   2.108 -0.5898 -0.2736  0.9786
  125MOL0     H16820   5.595   5.878   2.269  3.6031  1.3199  4.9828
  125MOL0     H16821   5.651   6.052   2.253 -1.0221  0.9885 -2.6423
  125MOL0     H16822   5.607   6.053   2.007  0.4629  0.2312 -0.6394
  125MOL0     H16823   5.562   5.881   2.010  2.1960  1.6939 -1.6375
  125MOL0     H16824   5.365   6.040   2.008  1.9242  0.1229 -1.5030
  125MOL0     H16825   5.419   6.101   2.166  0.1069 -0.0035  0.3277
  125MOL0     H16826   5.324   5.762   1.984  1.7299 -0.6082  0.5335
  125MOL0     H16827   5.112   5.572   2.235 -0.4218 -1.0179 -1.6312
  125MOL0     H16828   5.138   5.600   2.058 -0.6594 -0.7499 -0.0004
  125MOL0     H16829   5.329   5.458   2.066  1.8461 -1.4454  0.9000
  125MOL0     H16830   5.217   5.373   2.173  1.3105 -1.1850  0.1945
  125MOL0     H16831   5.347   5.434   2.370  4.1792 -1.8474  1.3756
  125MOL0     H16832   5.430   5.556   2.277  0.8076 -0.8500 -1.2191
  125MOL0     H16833   5.417   5.267   2.212 -2.8010  1.3371  0.8695
  125MOL0     H16834   5.539   5.317   2.326 -1.1800 -2.0126  1.0713
  125MOL0     H16835   5.724   5.345   1.958  0.9600 -0.4029 -1.1840
  125MOL0     H16836   5.934   5.373   1.847 -1.1393 -0.7912 -0.3077
  125MOL0     H16837   6.078   5.310   1.924 -0.4989 -0.1569 -0.5952
  125MOL0     H16838   5.929   5.225   1.942 -0.4916  0.3562  0.0941
  125MOL0     H16839   6.335   5.314   2.170 -0.4304  1.1310 -0.5729
  125MOL0     H16840   6.588   5.276   2.229  0.1032 -0.3469 -0.4873
  125MOL0     H16841   6.751   5.528   2.537  3.7314  0.0134 -0.7091
  125MOL0     H16842   6.710   5.406   2.648 -1.4789  1.8375 -0.9278
  125MOL0     H16843   6.938   5.291   2.582  1.7242 -0.2055 -1.3520
  125MOL0     H16844   6.949   5.411   2.456  0.1943 -0.3124  0.5703
  125MOL0     H16845   6.946   5.529   2.732 -0.5310  3.1502 -0.7718
  125MOL0     H16846   6.991   5.590   2.576  2.0290  0.5976  0.2249
  125MOL0     H16847   7.139   5.371   2.737  1.2976  2.0509  2.5653
  125MOL0     H16848   7.185   5.409   2.571 -0.1342  0.1354  0.5027
  125MOL0     H16849   7.302   5.518   2.788 -1.8981  1.1051  1.1629
  125MOL0     H16850   7.200   5.649   2.745 -0.1925 -0.5884  4.0843
  125MOL0     H16851   7.389   5.511   2.547  1.4243  0.8569  0.8829
  125MOL0     H16852   7.252   5.625   2.523  0.3446  1.2498  1.4098
  125MOL0     H16853   7.505   5.664   2.672  0.1856  0.6415 -0.1973
  125MOL0     H16854   7.382   5.785   2.691  0.3332  0.7430  1.0673
  125MOL0     H16855   7.425   5.839   2.457  0.7560  1.6795  1.0424
  125MOL0     H16856   7.552   5.710   2.439  0.6520 -1.0635  0.6154
  125MOL0     H16857   6.512   5.506   2.590 -2.4887  2.3094 -1.0361
  125MOL0     H16858   6.312   5.561   2.521  0.8532 -0.9160  1.6369
  125MOL0     H16859   5.922   5.507   2.380 -0.7561  0.4790  0.5752
  125MOL0     H16860   5.697   5.493   2.361 -0.2676 -1.7653  0.7031
  125MOL0     H16861   6.395   5.587   2.059  2.0208 -1.8093 -1.0232
  125MOL0     H16862   6.618   5.525   2.048  1.1915 -0.6977  2.4262
  125MOL0     H16863   6.973   5.390   2.175  0.5016 -2.9361  2.0775
  125MOL0     H16864   7.183   5.260   2.238  2.0010 -0.0305 -0.3377
  125MOL0     H16865   7.517   5.429   2.162  0.1424  1.0839  0.3054
  125MOL0     H16866   7.595   5.423   2.328 -0.9742 -2.3495  2.0458
  125MOL0     H16867   7.524   5.170   2.294  0.0873  0.2492 -0.5739
  125MOL0     H16868   7.678   5.240   2.218  0.1292  0.8841 -1.2674
  125MOL0     H16869   7.537   5.260   2.005 -1.6743  0.3050 -1.1276
  125MOL0     H16870   7.408   5.197   2.095 -0.3874 -2.0122 -0.2723
  125MOL0     H16871   7.521   5.023   1.955  1.6658 -2.2740  0.3621
  125MOL0     H16872   7.484   4.981   2.110 -2.5957  1.5900 -1.5717
  125MOL0     H16873   7.911   4.999   2.075 -0.3920 -3.5427  2.5795
  125MOL0     H16874   7.384   5.639   2.280  1.6700  0.5178 -3.7343
  125MOL0     H16875   7.180   5.752   2.267 -3.1597  1.0945 -2.8106
  126MOL0     O16876   6.465   3.270  10.411 -0.6551 -0.0183  0.6480
  126MOL0     C16877   6.405   3.285  10.514 -0.4345  0.8696 -0.5121
  126MOL0     O16878   6.454   3.303  10.638  0.1996 -0.2093  0.1124
  126MOL0     C16879   6.586   3.321  10.670  0.5095  0.2934  0.3185
  126MOL0     C16880   6.609   3.279  10.798 -0.9300 -0.2637 -0.7350
  126MOL0     C16881   6.732   3.282  10.847 -0.1980 -0.1005  0.7907
  126MOL0     C16882   6.845   3.312  10.766  0.2307 -0.9021 -0.0666
  126MOL0     O16883   6.979   3.314  10.815  0.0007 -0.3886 -0.0635
  126MOL0     C16884   7.017   3.299  10.951 -0.1162 -0.3976  0.4343
  126MOL0     C16885   7.169   3.313  10.969  0.1449 -0.4362  0.8852
  126MOL0     C16886   7.197   3.312  11.114 -1.5465  0.0273  0.3849
  126MOL0     C16887   7.334   3.374  11.137  0.1435 -0.3566 -0.2689
  126MOL0     C16888   7.357   3.364  11.289 -0.9653 -0.1621  0.0140
  126MOL0     C16889   7.288   3.487  11.356 -0.5345  0.8010  0.0005
  126MOL0     C16890   7.297   3.476  11.505 -0.3708 -0.9448  0.9694
  126MOL0     C16891   7.436   3.522  11.558  1.0745  0.5980 -1.1176
  126MOL0     N16892   7.433   3.529  11.705  0.4112 -0.1802  0.4254
  126MOL0     C16893   7.434   3.417  11.785 -0.2818  0.5151  0.4661
  126MOL0     C16894   7.435   3.456  11.916 -0.4184 -1.2274  0.4470
  126MOL0     C16895   7.437   3.376  12.041  0.1945  0.7584  0.1612
  126MOL0     C16896   7.299   3.320  12.069 -0.0253  1.0067 -0.0953
  126MOL0     C16897   7.194   3.429  12.073 -0.8867  0.9083 -0.5115
  126MOL0     C16898   7.077   3.374  12.143  0.8225 -0.1898  0.2594
  126MOL0     O16899   7.023   3.269  12.067  0.3896  0.2950 -0.2741
  126MOL0     C16900   6.912   3.210  12.112 -0.2238 -0.2698  0.4743
  126MOL0     C16901   6.784   3.276  12.122 -0.6303 -0.9982  0.4862
  126MOL0     C16902   6.683   3.206  12.173 -0.2186  0.0868  0.0615
  126MOL0     C16903   6.548   3.274  12.183  0.6778  0.8805 -0.0350
  126MOL0     C16904   6.695   3.088  12.231 -0.2517  0.1137 -0.7756
  126MOL0     C16905   6.589   3.007  12.292  0.2821  0.5209  0.2118
  126MOL0     O16906   6.621   2.937  12.401 -0.5116  0.0571  0.3534
  126MOL0     C16907   6.557   2.841  12.472 -0.0239  0.4843 -0.5415
  126MOL0     C16908   6.638   2.732  12.528 -0.0541 -0.3161  0.2034
  126MOL0     C16909   6.579   2.625  12.587 -0.7078  0.0642  0.3324
  126MOL0     C16910   6.439   2.621  12.596  0.5229 -0.9742  0.5136
  126MOL0     O16911   6.389   2.506  12.649 -0.0728 -0.3211 -0.4994
  126MOL0     C16912   6.263   2.451  12.594 -0.8389  1.0149  0.3701
  126MOL0     C16913   6.260   2.304  12.628 -0.3484  0.4810 -0.4304
  126MOL0     C16914   6.201   2.293  12.775  0.1607 -0.3559  0.8295
  126MOL0     C16915   6.048   2.344  12.765  0.6495  1.0781 -0.0184
  126MOL0     C16916   5.978   2.322  12.900 -0.1791  0.3715  0.1838
  126MOL0     C16917   5.831   2.383  12.901  0.9336  0.7106 -0.2423
  126MOL0     C16918   5.731   2.304  12.978 -0.4933  0.4180 -0.4121
  126MOL0     C16919   5.613   2.392  13.017  0.5724 -0.6342 -0.0962
  126MOL0    Cl16920   5.512   2.291  13.107 -0.1014 -0.9656  0.2764
  126MOL0     C16921   6.363   2.729  12.549 -0.1739  0.0692  0.2573
  126MOL0     C16922   6.419   2.840  12.486  0.2272  0.9081 -0.2624
  126MOL0     O16923   6.475   3.006  12.249  0.0864 -0.1099 -0.2502
  126MOL0     C16924   6.816   3.018  12.217  1.3145 -0.6519 -1.7496
  126MOL0     C16925   6.929   3.081  12.162 -0.1809 -0.6260 -0.4639
  126MOL0     N16926   7.429   3.595  11.917 -0.6479  0.7479 -0.2995
  126MOL0     N16927   7.435   3.633  11.786 -1.1273 -0.9023  0.2728
  126MOL0     C16928   6.820   3.348  10.629 -1.0993  0.2134 -0.6595
  126MOL0     C16929   6.681   3.364  10.588 -0.1040  0.2951 -0.6574
  126MOL0     C16930   6.259   3.283  10.509 -0.2954 -0.1373 -0.6064
  126MOL0     C16931   6.178   3.350  10.607  0.7790 -0.8959  0.4244
  126MOL0     C16932   6.040   3.351  10.591  0.0961 -0.5748 -0.3130
  126MOL0     C16933   5.971   3.262  10.504  0.2452  0.5452  0.4325
  126MOL0     O16934   5.829   3.245  10.502 -1.0085 -0.0547 -0.9973
  126MOL0     C16935   5.745   3.309  10.598 -0.7015 -0.2985 -0.6051
  126MOL0     C16936   5.669   3.439  10.556 -0.5289  0.3333  0.5206
  126MOL0     C16937   5.570   3.407  10.435  0.3402 -0.4420 -0.5631
  126MOL0     C16938   5.630   3.463  10.309  0.1742 -0.0972  0.3554
  126MOL0     C16939   5.561   3.421  10.189 -0.0587 -0.3654 -0.4859
  126MOL0     C16940   5.504   3.393  10.085 -0.1489 -0.3628  0.0005
  126MOL0     C16941   6.049   3.194  10.409 -1.1791  0.2199 -0.3040
  126MOL0     C16942   6.191   3.214  10.409  0.6536 -0.0723  0.4636
  126MOL0     H16943   6.539   3.231  10.866  1.7460 -0.4366  2.0956
  126MOL0     H16944   6.756   3.254  10.949  1.2325  0.7668  0.7120
  126MOL0     H16945   6.951   3.358  11.015 -0.3073 -1.5132  1.2933
  126MOL0     H16946   6.995   3.197  10.985 -2.3266  0.3141  1.3265
  126MOL0     H16947   7.229   3.244  10.909  2.7369  1.5804  1.0013
  126MOL0     H16948   7.189   3.411  10.923  1.7521 -1.7255 -1.3376
  126MOL0     H16949   7.117   3.354  11.176 -2.2922 -0.4298 -0.2547
  126MOL0     H16950   7.194   3.207  11.148  0.9725 -0.3192 -0.2881
  126MOL0     H16951   7.405   3.321  11.072 -1.4540 -1.1655 -1.4098
  126MOL0     H16952   7.324   3.477  11.100  0.5728 -0.0820  0.3522
  126MOL0     H16953   7.316   3.272  11.331 -0.2862  0.1625  1.4636
  126MOL0     H16954   7.465   3.358  11.302 -1.0287 -0.6145  0.3816
  126MOL0     H16955   7.338   3.578  11.322  1.8662 -0.5954 -0.4435
  126MOL0     H16956   7.179   3.488  11.345 -1.1770 -2.7847  3.6859
  126MOL0     H16957   7.220   3.544  11.541  2.2338  2.0709  1.3041
  126MOL0     H16958   7.279   3.373  11.539 -0.4978 -1.6584 -1.1339
  126MOL0     H16959   7.461   3.622  11.521  0.2872  0.7924 -1.1351
  126MOL0     H16960   7.506   3.445  11.524  2.2598 -0.2816  2.8348
  126MOL0     H16961   7.432   3.315  11.748 -1.5218 -0.0362  1.9569
  126MOL0     H16962   7.508   3.293  12.038  1.7735  2.0547  0.3057
  126MOL0     H16963   7.480   3.438  12.120 -1.2599 -1.8537  3.2326
  126MOL0     H16964   7.299   3.252  12.155  1.4663  0.6490 -0.3430
  126MOL0     H16965   7.278   3.251  11.987  1.9880 -1.3559  1.2427
  126MOL0     H16966   7.173   3.468  11.973  0.0020 -0.2037 -1.1578
  126MOL0     H16967   7.236   3.512  12.130  0.6860 -0.3045  0.1676
  126MOL0     H16968   7.001   3.453  12.143 -1.7617 -2.5253 -0.1512
  126MOL0     H16969   7.109   3.353  12.246  0.1761  0.8192  0.6863
  126MOL0     H16970   6.770   3.374  12.080 -2.1572 -1.9534 -1.3713
  126MOL0     H16971   6.553   3.381  12.160  0.0942  1.0247  0.4929
  126MOL0     H16972   6.481   3.218  12.117  0.7299 -1.3910  1.7108
  126MOL0     H16973   6.518   3.269  12.288  2.8244  1.0009  0.6354
  126MOL0     H16974   6.746   2.746  12.521  0.0038  1.0680  2.8162
  126MOL0     H16975   6.637   2.536  12.609 -0.5448  0.6181  2.4421
  126MOL0     H16976   6.166   2.495  12.618 -0.3844  2.6067 -0.5236
  126MOL0     H16977   6.273   2.453  12.485 -0.0151 -1.2875  0.3409
  126MOL0     H16978   6.192   2.255  12.557 -0.3907  2.1626 -1.5970
  126MOL0     H16979   6.360   2.258  12.626 -0.3843  0.4091 -0.7046
  126MOL0     H16980   6.258   2.363  12.836  0.2630  0.1129  0.1979
  126MOL0     H16981   6.206   2.188  12.805  0.7567 -0.5172  0.1834
  126MOL0     H16982   6.041   2.452  12.754 -1.9585  0.7043 -4.0037
  126MOL0     H16983   6.008   2.302  12.672 -0.0460 -1.1321  1.2154
  126MOL0     H16984   6.033   2.376  12.978  0.0016 -1.0883  1.1102
  126MOL0     H16985   5.981   2.216  12.925  2.0388  0.2819 -0.2420
  126MOL0     H16986   5.834   2.478  12.955  0.5150  0.0547  0.9475
  126MOL0     H16987   5.788   2.396  12.801  1.2752 -0.3552 -0.5408
  126MOL0     H16988   5.786   2.277  13.070  0.1579  2.1507 -0.2678
  126MOL0     H16989   5.698   2.212  12.928  1.5853  1.0252 -3.0661
  126MOL0     H16990   5.562   2.420  12.924  4.9704 -0.8482 -2.8576
  126MOL0     H16991   5.629   2.481  13.078 -0.5139 -0.2593 -0.3306
  126MOL0     H16992   6.255   2.722  12.563 -0.5223  0.0190 -2.0587
  126MOL0     H16993   6.354   2.919  12.450 -0.1223  0.2338 -1.1423
  126MOL0     H16994   6.828   2.916  12.251  2.1803 -0.1726 -0.5298
  126MOL0     H16995   7.028   3.037  12.166 -0.5237 -1.3565  0.2164
  126MOL0     H16996   6.912   3.368  10.575  1.1030 -1.5213  2.1522
  126MOL0     H16997   6.669   3.402  10.487  1.3620 -0.0961 -0.9983
  126MOL0     H16998   6.224   3.402  10.690  1.1228  0.4279 -0.5606
  126MOL0     H16999   5.991   3.412  10.666  0.9872  0.2414 -0.3770
  126MOL0     H17000   5.672   3.233  10.627 -1.7576  0.7818 -0.3523
  126MOL0     H17001   5.801   3.339  10.688 -0.1281  0.6079 -1.2383
  126MOL0     H17002   5.738   3.519  10.528 -1.8557  1.7326  1.0998
  126MOL0     H17003   5.621   3.488  10.642  3.1801 -2.3842  4.6127
  126MOL0     H17004   5.471   3.452  10.442 -0.0235 -1.0945 -1.4215
  126MOL0     H17005   5.560   3.299  10.426  0.5449 -0.4378 -0.8452
  126MOL0     H17006   5.727   3.414  10.295 -0.1113 -0.5575 -0.0711
  126MOL0     H17007   5.653   3.570  10.309  1.2582 -0.2847  2.4912
  126MOL0     H17008   5.442   3.377   9.999 -0.8052  0.8129  0.2395
  126MOL0     H17009   6.007   3.133  10.329  1.5009 -0.3850 -1.3477
  126MOL0     H17010   6.254   3.170  10.333 -0.8669  2.9430 -2.7955
  127MOL0     O17011   1.985   4.939  10.523  0.3640  0.3806 -0.2843
  127MOL0     C17012   1.975   5.051  10.474 -0.6237  0.5974 -0.3817
  127MOL0     O17013   2.092   5.124  10.436 -0.4238  0.3451 -0.5975
  127MOL0     C17014   2.212   5.063  10.459  0.8295  0.7336  0.2235
  127MOL0     C17015   2.304   5.114  10.548  0.6555 -0.5766 -0.1532
  127MOL0     C17016   2.430   5.054  10.552  0.8398 -0.0677 -0.6618
  127MOL0     C17017   2.456   4.927  10.489 -0.5626 -0.6105  0.4176
  127MOL0     O17018   2.559   4.849  10.531  0.4862  0.3663  0.4002
  127MOL0     C17019   2.602   4.737  10.451 -0.2730 -0.0309 -0.0640
  127MOL0     C17020   2.723   4.675  10.510 -0.4101 -0.5654  0.1275
  127MOL0     C17021   2.856   4.754  10.505 -0.4811  0.8338  1.0319
  127MOL0     C17022   2.980   4.670  10.560 -0.0489  0.1056 -1.0257
  127MOL0     C17023   3.105   4.757  10.562  0.8676 -0.0825 -0.8875
  127MOL0     C17024   3.185   4.702  10.671  0.2408  0.6057  0.5818
  127MOL0     C17025   3.313   4.783  10.666 -0.2547  0.1170  0.2686
  127MOL0     C17026   3.422   4.707  10.617 -0.6709  1.0325  0.1047
  127MOL0     N17027   3.550   4.767  10.655 -0.1574 -0.1360  0.1491
  127MOL0     C17028   3.645   4.813  10.566 -0.0079 -0.3399  0.2911
  127MOL0     C17029   3.735   4.879  10.644 -0.1143  0.8315 -0.6777
  127MOL0     C17030   3.852   4.964  10.610  0.4258  0.3600  0.7701
  127MOL0     C17031   3.864   5.093  10.691  1.0321  0.3123 -0.0599
  127MOL0     C17032   3.990   5.167  10.682 -0.2981  1.0399 -1.2738
  127MOL0     C17033   3.986   5.290  10.775 -0.5262 -0.3743 -0.2215
  127MOL0     O17034   4.128   5.346  10.784 -0.2986  0.2176 -0.0278
  127MOL0     C17035   4.149   5.458  10.863 -0.1391  0.7401 -0.0479
  127MOL0     C17036   4.052   5.530  10.940  0.5580 -0.0172  1.2779
  127MOL0     C17037   4.074   5.650  11.007  0.5007  0.2414 -0.0913
  127MOL0     C17038   3.953   5.724  11.058  0.8048  0.6554  0.3475
  127MOL0     C17039   4.205   5.697  11.015  0.0730 -0.1028  0.1043
  127MOL0     C17040   4.251   5.810  11.101  0.1783  0.0704  0.4842
  127MOL0     O17041   4.387   5.850  11.112  0.6847  0.9021 -0.1114
  127MOL0     C17042   4.421   5.971  11.164  0.3259 -0.6167 -1.4827
  127MOL0     C17043   4.336   6.087  11.148 -0.3412  0.1729  0.0337
  127MOL0     C17044   4.377   6.207  11.191  0.4508 -0.2668 -0.0900
  127MOL0     C17045   4.499   6.230  11.248 -0.4744  0.0279  0.4706
  127MOL0     O17046   4.543   6.358  11.269  0.2170 -0.2853 -0.1880
  127MOL0     C17047   4.682   6.388  11.258  0.7774 -0.1778 -0.0508
  127MOL0     C17048   4.737   6.380  11.113 -0.0552  0.5802  0.4848
  127MOL0     C17049   4.656   6.459  11.013 -0.0013 -0.3506 -0.0444
  127MOL0     C17050   4.731   6.465  10.877  0.3782 -0.2919  0.1834
  127MOL0     C17051   4.636   6.514  10.752  0.1825  0.0233 -0.1559
  127MOL0     C17052   4.588   6.661  10.768 -0.0887  0.1633 -0.3390
  127MOL0     C17053   4.524   6.705  10.636  0.2877  0.1243 -0.0419
  127MOL0     C17054   4.493   6.853  10.629 -0.6282 -1.0290  0.2322
  127MOL0    Cl17055   4.641   6.958  10.598  0.5654  0.0893  0.3186
  127MOL0     C17056   4.582   6.116  11.269  0.0772  0.2140  0.3749
  127MOL0     C17057   4.543   5.990  11.225  0.3613 -0.1843 -0.4767
  127MOL0     O17058   4.159   5.864  11.162 -0.1046 -0.1862 -0.4920
  127MOL0     C17059   4.303   5.621  10.946 -0.7345 -0.0531 -0.7137
  127MOL0     C17060   4.271   5.520  10.868  0.6787  0.8229 -0.2998
  127MOL0     N17061   3.705   4.850  10.780  0.5935  1.4660 -0.0312
  127MOL0     N17062   3.596   4.785  10.777  0.8053  1.1070  0.0779
  127MOL0     C17063   2.359   4.879  10.405 -0.5508  0.1460  0.1758
  127MOL0     C17064   2.246   4.942  10.383 -0.1108 -1.0482  1.2990
  127MOL0     C17065   1.848   5.102  10.433  0.1029  0.1743 -0.4902
  127MOL0     C17066   1.839   5.207  10.342  0.3174  0.1425  0.2675
  127MOL0     C17067   1.714   5.239  10.293  0.5821  0.5176  0.9266
  127MOL0     C17068   1.594   5.168  10.328  0.5380 -0.0397  0.5390
  127MOL0     O17069   1.475   5.185  10.256  0.0746 -0.1799 -0.0343
  127MOL0     C17070   1.359   5.108  10.287 -0.7584 -0.1100  1.1607
  127MOL0     C17071   1.294   5.152  10.421 -0.3845  0.6062 -0.1967
  127MOL0     C17072   1.163   5.095  10.456  0.3271 -0.1352  0.3368
  127MOL0     C17073   1.105   5.127  10.594 -0.4028  0.0805  0.1836
  127MOL0     C17074   1.158   5.038  10.703 -0.1109  0.2039 -0.1323
  127MOL0     C17075   1.195   4.958  10.782  0.1332 -0.4097 -1.1652
  127MOL0     C17076   1.608   5.063  10.431 -1.0608  0.3839  0.6242
  127MOL0     C17077   1.733   5.028  10.476 -0.6279  0.2075  0.6189
  127MOL0     H17078   2.286   5.212  10.591 -0.2169 -0.8630  0.1696
  127MOL0     H17079   2.514   5.086  10.613  3.6418 -2.1188 -3.1610
  127MOL0     H17080   2.523   4.661  10.451  0.3338 -0.6816  0.0489
  127MOL0     H17081   2.628   4.768  10.349 -0.3627 -0.0855 -0.1036
  127MOL0     H17082   2.718   4.639  10.613  0.3699 -0.1147  0.3371
  127MOL0     H17083   2.739   4.588  10.446 -0.8853 -1.5348  1.2803
  127MOL0     H17084   2.879   4.784  10.402  3.9860 -2.0423  0.9575
  127MOL0     H17085   2.834   4.842  10.566  0.0268  1.6139  0.1228
  127MOL0     H17086   2.959   4.621  10.655  0.6467  1.3510 -0.2014
  127MOL0     H17087   2.995   4.583  10.495  0.0581 -1.1109  0.5642
  127MOL0     H17088   3.147   4.727  10.466  1.8513 -4.3804  0.6381
  127MOL0     H17089   3.087   4.864  10.572  3.1339  0.4602 -2.0571
  127MOL0     H17090   3.126   4.721  10.761  0.4184  0.0911  0.8114
  127MOL0     H17091   3.212   4.597  10.654  1.5199  1.1996 -1.5037
  127MOL0     H17092   3.303   4.872  10.603  0.6782  0.4782  0.6158
  127MOL0     H17093   3.327   4.811  10.771 -1.1658 -2.1203  1.0474
  127MOL0     H17094   3.411   4.706  10.508  2.4171 -0.0868 -0.3077
  127MOL0     H17095   3.424   4.606  10.659  0.1337  0.9409 -0.1233
  127MOL0     H17096   3.638   4.804  10.458 -1.4945  2.0622  0.0998
  127MOL0     H17097   3.941   4.901  10.623  0.5088  0.0598 -0.9717
  127MOL0     H17098   3.834   4.994  10.506 -3.5362  2.5196  1.8990
  127MOL0     H17099   3.860   5.068  10.797 -1.0529  2.0530  0.3651
  127MOL0     H17100   3.772   5.143  10.658 -0.8855 -3.2841 -0.7036
  127MOL0     H17101   3.998   5.196  10.577  0.8856 -0.6835 -1.7099
  127MOL0     H17102   4.081   5.108  10.699 -0.2577  0.5920 -2.9276
  127MOL0     H17103   3.957   5.266  10.877 -0.9580 -0.1871 -0.2985
  127MOL0     H17104   3.932   5.375  10.732  0.8071  0.6773  0.1073
  127MOL0     H17105   3.949   5.496  10.927  1.9292 -4.5882  0.6189
  127MOL0     H17106   3.858   5.687  11.018  1.9814 -0.1015 -1.9662
  127MOL0     H17107   3.956   5.722  11.167 -1.2830  1.8070  0.4747
  127MOL0     H17108   3.962   5.829  11.029  5.7338  0.2798 -0.3837
  127MOL0     H17109   4.240   6.075  11.100  0.1249  0.4946 -1.0125
  127MOL0     H17110   4.316   6.296  11.182  1.3845  0.7164  2.2958
  127MOL0     H17111   4.689   6.494  11.283  2.1655  0.5049 -2.8553
  127MOL0     H17112   4.743   6.322  11.321 -0.0517 -1.8293 -0.9015
  127MOL0     H17113   4.841   6.413  11.118  0.2207  1.0278 -4.1100
  127MOL0     H17114   4.737   6.277  11.077 -1.3252  0.6328  0.3099
  127MOL0     H17115   4.641   6.564  11.038  1.3360 -0.6580  2.3261
  127MOL0     H17116   4.563   6.406  10.989  0.1188 -0.0575 -1.2402
  127MOL0     H17117   4.804   6.546  10.879 -0.3360  0.3603  0.4603
  127MOL0     H17118   4.778   6.371  10.845 -0.6936 -0.3263 -1.3712
  127MOL0     H17119   4.554   6.442  10.744 -0.9412  1.3168 -0.5638
  127MOL0     H17120   4.687   6.495  10.657 -0.8089 -1.3418 -0.4416
  127MOL0     H17121   4.528   6.682  10.857  1.1053  3.7939 -0.1993
  127MOL0     H17122   4.679   6.723  10.771  2.0165 -2.7534  1.4895
  127MOL0     H17123   4.423   6.662  10.633  1.2842 -2.3516 -1.5063
  127MOL0     H17124   4.581   6.674  10.547  1.9165  0.6115  0.7969
  127MOL0     H17125   4.441   6.891  10.718  1.1812 -1.6603  1.6330
  127MOL0     H17126   4.416   6.853  10.552  0.5859  0.5465 -1.0501
  127MOL0     H17127   4.675   6.118  11.325 -1.3599  0.2312  2.9575
  127MOL0     H17128   4.614   5.907  11.226  0.7694  0.1630  0.3955
  127MOL0     H17129   4.407   5.651  10.936 -0.4284 -0.8195  0.0238
  127MOL0     H17130   4.343   5.479  10.798 -0.7775  1.4425 -2.2710
  127MOL0     H17131   2.369   4.775  10.374 -1.2759 -0.2473  1.2255
  127MOL0     H17132   2.180   4.898  10.309  0.4314  0.2574 -0.0248
  127MOL0     H17133   1.931   5.260  10.318  1.1472 -0.9972  0.8193
  127MOL0     H17134   1.687   5.310  10.216 -0.8244  0.5932  1.4667
  127MOL0     H17135   1.305   5.110  10.192  2.8537  2.1376 -1.1228
  127MOL0     H17136   1.384   5.002  10.297 -0.2966 -0.3644 -1.6112
  127MOL0     H17137   1.279   5.261  10.422 -2.0179  0.4430  1.9998
  127MOL0     H17138   1.360   5.129  10.505  0.8805  0.9080 -1.0800
  127MOL0     H17139   1.154   4.986  10.445  0.0162 -0.2165  1.2572
  127MOL0     H17140   1.093   5.147  10.390 -2.6046 -2.1342  1.6219
  127MOL0     H17141   0.997   5.111  10.588 -0.4152  0.5312 -1.1122
  127MOL0     H17142   1.122   5.234  10.600 -1.4845  0.4168 -1.7267
  127MOL0     H17143   1.242   4.883  10.843  1.3265  1.5671  0.4652
  127MOL0     H17144   1.525   5.000  10.458 -2.6186  2.2600  0.4539
  127MOL0     H17145   1.742   4.931  10.524 -4.2456 -1.0619 -0.8854
  128MOL0     O17146   1.718   7.933   3.850 -0.3146  0.1564 -0.1590
  128MOL0     C17147   1.744   7.997   3.948 -1.5645  0.6546 -0.5133
  128MOL0     O17148   1.823   7.954   4.048 -0.1288  0.9478  0.0951
  128MOL0     C17149   1.905   7.845   4.017 -0.2337 -0.7963  0.0379
  128MOL0     C17150   1.860   7.716   3.991  0.4861  0.0671 -0.4952
  128MOL0     C17151   1.947   7.611   3.991  0.0525 -0.9016  0.7328
  128MOL0     C17152   2.089   7.633   4.014  0.4050  0.1289  0.1499
  128MOL0     O17153   2.162   7.515   4.002 -0.5704 -0.7315 -0.1138
  128MOL0     C17154   2.305   7.531   3.981  0.4730 -0.2552  0.2305
  128MOL0     C17155   2.348   7.564   3.839  0.2699  0.4287  0.1265
  128MOL0     C17156   2.486   7.500   3.793 -0.1940 -0.0627  0.5454
  128MOL0     C17157   2.604   7.534   3.889  0.4576  0.2838 -0.1716
  128MOL0     C17158   2.647   7.684   3.871  0.2606 -0.4986  0.3872
  128MOL0     C17159   2.779   7.706   3.942  0.0936 -0.6181 -0.8665
  128MOL0     C17160   2.835   7.850   3.931  0.5044  0.0356 -1.0735
  128MOL0     C17161   2.957   7.874   4.020  1.1532  0.6405  0.1391
  128MOL0     N17162   3.079   7.806   3.977  0.3234 -0.4181  1.0196
  128MOL0     C17163   3.203   7.866   3.968 -0.3904 -0.2404 -0.0076
  128MOL0     C17164   3.293   7.772   3.986  0.5365 -0.0138 -0.2700
  128MOL0     C17165   3.443   7.786   4.005 -0.3092  0.0887  0.3206
  128MOL0     C17166   3.517   7.751   3.880 -1.1288  0.2248 -0.2119
  128MOL0     C17167   3.666   7.762   3.907 -0.4436  0.2124 -0.3153
  128MOL0     C17168   3.717   7.641   3.991  0.0474 -0.1797 -0.1903
  128MOL0     O17169   3.848   7.657   4.028 -0.5826  0.1623 -0.1676
  128MOL0     C17170   3.954   7.582   3.971  0.7431  0.2737  0.3056
  128MOL0     C17171   3.947   7.443   3.979  0.4364 -0.1045 -0.5992
  128MOL0     C17172   4.045   7.367   3.921 -0.3752  0.0869 -0.4378
  128MOL0     C17173   4.033   7.212   3.924  0.4129  0.0554  0.1447
  128MOL0     C17174   4.173   7.434   3.872 -0.4522 -0.2729  0.0756
  128MOL0     C17175   4.305   7.369   3.831 -0.2473 -0.1348 -0.2556
  128MOL0     O17176   4.392   7.439   3.756 -0.4112  0.0356  0.1634
  128MOL0     C17177   4.498   7.378   3.705 -0.1810  0.3992  0.0685
  128MOL0     C17178   4.499   7.262   3.631  0.6548 -0.0399 -0.2419
  128MOL0     C17179   4.620   7.197   3.597 -0.3615  0.5058 -0.0696
  128MOL0     C17180   4.742   7.231   3.649  0.1016 -0.3487  0.0966
  128MOL0     O17181   4.851   7.155   3.618  0.7375  0.4579 -0.6485
  128MOL0     C17182   4.972   7.213   3.570  0.8097 -1.2316 -0.2327
  128MOL0     C17183   5.084   7.108   3.587 -0.3913  0.7403  0.1963
  128MOL0     C17184   5.122   7.075   3.733  0.3345  0.4175 -0.8462
  128MOL0     C17185   5.225   6.960   3.724  0.0359 -0.9892  0.0564
  128MOL0     C17186   5.263   6.916   3.859  0.4606  1.4530 -1.1850
  128MOL0     C17187   5.377   6.815   3.849 -1.4422 -0.0552 -0.5291
  128MOL0     C17188   5.436   6.804   3.989 -0.5141  0.2695 -1.0350
  128MOL0     C17189   5.538   6.695   4.010 -0.1028 -0.3012 -0.1828
  128MOL0    Cl17190   5.668   6.730   3.894 -0.1360  0.1105 -0.0746
  128MOL0     C17191   4.750   7.353   3.723  0.3189 -0.7296 -0.1157
  128MOL0     C17192   4.627   7.427   3.745 -0.9245 -0.4951 -0.1989
  128MOL0     O17193   4.330   7.258   3.876  0.0509 -0.1429 -0.6408
  128MOL0     C17194   4.174   7.577   3.861  1.0787  0.5716 -0.8602
  128MOL0     C17195   4.059   7.645   3.913 -0.2683  0.7215 -0.0762
  128MOL0     N17196   3.227   7.649   4.011 -0.3232 -0.3353  0.4862
  128MOL0     N17197   3.102   7.677   4.013  0.1094  0.4497 -0.1272
  128MOL0     C17198   2.138   7.767   4.017  0.1748  0.2438  0.4323
  128MOL0     C17199   2.042   7.870   4.028  0.0340 -1.1044  0.2193
  128MOL0     C17200   1.649   8.107   3.973 -0.4353 -0.1344 -0.3385
  128MOL0     C17201   1.616   8.138   4.103  0.1693 -0.1539  0.3061
  128MOL0     C17202   1.510   8.221   4.139 -0.1442  0.2903 -0.0145
  128MOL0     C17203   1.444   8.283   4.040  0.3505 -0.7722  0.4691
  128MOL0     O17204   1.351   8.372   4.084 -0.4658 -0.6966 -0.5990
  128MOL0     C17205   1.246   8.429   4.002  0.1407  0.1188 -0.1982
  128MOL0     C17206   1.135   8.323   3.976  0.6570  0.3071 -0.3667
  128MOL0     C17207   1.050   8.347   3.858 -0.2503 -0.1070 -0.1907
  128MOL0     C17208   0.975   8.474   3.879 -0.4591 -1.6990 -0.1394
  128MOL0     C17209   0.880   8.496   3.771 -0.4186 -0.5335  0.1234
  128MOL0     C17210   0.791   8.513   3.692  0.2599  0.2382  0.1012
  128MOL0     C17211   1.470   8.270   3.906  0.1179  0.2817  0.4791
  128MOL0     C17212   1.562   8.170   3.874 -1.0272  0.4874  0.0354
  128MOL0     H17213   1.754   7.693   3.998  0.0634  2.1286  0.8618
  128MOL0     H17214   1.903   7.512   3.996 -2.2973  0.1317  2.5533
  128MOL0     H17215   2.346   7.610   4.044  2.5460  0.3210 -1.7127
  128MOL0     H17216   2.365   7.448   4.019  0.9124 -1.8225 -3.4566
  128MOL0     H17217   2.276   7.535   3.762  0.4411  1.2448 -0.3575
  128MOL0     H17218   2.351   7.674   3.838  1.2277  0.4295  0.9703
  128MOL0     H17219   2.470   7.393   3.807  1.5260 -0.3703  0.3628
  128MOL0     H17220   2.505   7.517   3.687 -3.6029 -0.2327 -0.1979
  128MOL0     H17221   2.581   7.513   3.994  0.1742 -1.3093 -0.5210
  128MOL0     H17222   2.689   7.468   3.866  1.3613  0.8892  1.3217
  128MOL0     H17223   2.655   7.703   3.764 -0.6199 -1.8147  0.0646
  128MOL0     H17224   2.566   7.751   3.904 -1.2758 -1.1628 -1.8014
  128MOL0     H17225   2.765   7.700   4.051  0.3229  0.4642 -0.7674
  128MOL0     H17226   2.859   7.641   3.906 -0.2726 -0.7931 -1.3683
  128MOL0     H17227   2.864   7.876   3.829 -0.5124 -0.5185 -1.5221
  128MOL0     H17228   2.756   7.915   3.969  0.5702  0.2466 -1.2935
  128MOL0     H17229   2.935   7.838   4.121  1.2733 -0.8278 -0.3392
  128MOL0     H17230   2.976   7.979   4.046 -1.3047  1.0349  0.5238
  128MOL0     H17231   3.215   7.973   3.949 -1.2379  0.1213  1.3435
  128MOL0     H17232   3.475   7.887   4.033  0.4401 -0.1374  0.2895
  128MOL0     H17233   3.479   7.726   4.089  2.6590  0.4092 -0.5965
  128MOL0     H17234   3.500   7.819   3.796  2.6935  1.7629  0.0544
  128MOL0     H17235   3.494   7.648   3.850 -1.3039  0.2045 -0.0096
  128MOL0     H17236   3.680   7.854   3.964  1.4155  0.6284 -1.3644
  128MOL0     H17237   3.717   7.764   3.811 -0.4406  0.2114 -0.3136
  128MOL0     H17238   3.703   7.548   3.935 -0.6146  0.3872 -0.9870
  128MOL0     H17239   3.654   7.631   4.080 -1.8685 -2.9975 -1.7040
  128MOL0     H17240   3.861   7.403   4.031 -0.3284  1.0739 -0.9116
  128MOL0     H17241   4.063   7.170   3.828  2.6477 -1.2423  1.3125
  128MOL0     H17242   4.072   7.163   4.014 -1.9433  1.4092  2.0283
  128MOL0     H17243   3.928   7.184   3.932  1.0675 -2.3335  1.6316
  128MOL0     H17244   4.406   7.225   3.588  1.2294 -0.7245 -0.9181
  128MOL0     H17245   4.609   7.107   3.537 -1.0129  0.9127 -0.5688
  128MOL0     H17246   4.956   7.242   3.466 -2.7424 -1.6608  0.0765
  128MOL0     H17247   4.996   7.308   3.619 -4.4862  0.5613 -0.4767
  128MOL0     H17248   5.056   7.020   3.529  0.1930  0.0787  0.8852
  128MOL0     H17249   5.173   7.145   3.535  1.7038 -0.6248  2.5442
  128MOL0     H17250   5.033   7.038   3.785  3.7411 -1.3216  4.5557
  128MOL0     H17251   5.158   7.155   3.797 -0.6509  1.3310 -1.4004
  128MOL0     H17252   5.179   6.880   3.665  0.7161 -1.9245  0.7561
  128MOL0     H17253   5.315   6.988   3.670 -0.8977  1.2603 -0.4164
  128MOL0     H17254   5.181   6.873   3.916  0.0687 -0.8434 -3.3097
  128MOL0     H17255   5.303   6.997   3.920 -1.6358  0.4402  1.7371
  128MOL0     H17256   5.337   6.725   3.801 -1.8691  0.2222 -0.6982
  128MOL0     H17257   5.458   6.866   3.796 -0.5909  3.5909  3.7243
  128MOL0     H17258   5.359   6.776   4.062  0.7827  0.3145  0.4263
  128MOL0     H17259   5.476   6.898   4.028  0.2848 -0.4825  0.0373
  128MOL0     H17260   5.504   6.592   3.999  1.2898 -0.7180 -0.8507
  128MOL0     H17261   5.578   6.709   4.111 -1.2132  0.6507  0.1457
  128MOL0     H17262   4.846   7.391   3.755 -0.0100  0.2982 -0.2889
  128MOL0     H17263   4.649   7.519   3.798  1.3646 -2.0246  1.6895
  128MOL0     H17264   4.256   7.637   3.822  0.3500  0.6266 -2.3893
  128MOL0     H17265   4.057   7.753   3.923  1.0422  0.7537  0.0480
  128MOL0     H17266   2.245   7.781   3.998  0.3613 -0.7150  0.7152
  128MOL0     H17267   2.068   7.974   4.012 -1.0900 -0.3165  2.9372
  128MOL0     H17268   1.673   8.111   4.192  2.1937 -0.4761 -1.0190
  128MOL0     H17269   1.493   8.256   4.240  1.4306  0.1041  0.3481
  128MOL0     H17270   1.198   8.512   4.054  0.4076  0.1891 -0.0618
  128MOL0     H17271   1.281   8.472   3.908 -1.7998 -0.8191 -1.4125
  128MOL0     H17272   1.085   8.309   4.072 -1.5209  0.0676 -1.4653
  128MOL0     H17273   1.184   8.228   3.951  1.8230  1.0865 -1.1196
  128MOL0     H17274   0.981   8.262   3.858 -0.8137  0.2025  3.4205
  128MOL0     H17275   1.114   8.359   3.770  2.6136  0.6779  1.8424
  128MOL0     H17276   1.048   8.554   3.888 -2.0271  0.0741 -2.1539
  128MOL0     H17277   0.920   8.474   3.974  2.9839 -0.3531  2.0463
  128MOL0     H17278   0.725   8.528   3.610  1.3479  1.2341 -0.6189
  128MOL0     H17279   1.418   8.322   3.826 -2.3720 -0.3782  1.5897
  128MOL0     H17280   1.589   8.140   3.773 -1.6296  3.8442 -1.2321
  129MOL0     O17281   0.881   3.754   0.715 -0.8808  0.5844  0.9156
  129MOL0     C17282   0.966   3.836   0.699 -0.2583  0.3986 -0.4512
  129MOL0     O17283   0.957   3.964   0.738  0.3035 -0.0006  0.1048
  129MOL0     C17284   0.840   4.015   0.790  0.3280 -0.1557  0.0010
  129MOL0     C17285   0.826   4.151   0.791  0.2450 -0.3228  0.0406
  129MOL0     C17286   0.707   4.221   0.836 -0.9093 -0.2260  0.6658
  129MOL0     C17287   0.612   4.152   0.904 -0.3278  0.0915  0.1470
  129MOL0     O17288   0.522   4.226   0.972 -0.5754  1.0862 -0.0658
  129MOL0     C17289   0.386   4.188   0.971  0.1238  0.2323 -0.2646
  129MOL0     C17290   0.292   4.311   0.996  0.3459  0.0053  0.3161
  129MOL0     C17291   0.290   4.369   1.138  0.0797  0.6537 -0.1958
  129MOL0     C17292   0.196   4.484   1.140 -0.0622 -0.5518 -0.2088
  129MOL0     C17293   0.138   4.521   1.275 -0.7699  0.7395  0.7987
  129MOL0     C17294   0.060   4.411   1.341 -0.3745  0.0449  0.4116
  129MOL0     C17295  -0.038   4.336   1.244 -0.0734  0.0733 -0.1470
  129MOL0     C17296  -0.168   4.417   1.232 -0.5285  0.2759  0.5756
  129MOL0     N17297  -0.291   4.336   1.230 -0.2128  0.7217  0.8892
  129MOL0     C17298  -0.330   4.248   1.334 -0.1319  0.5575  0.6527
  129MOL0     C17299  -0.439   4.184   1.277  0.0071 -0.6419 -0.5481
  129MOL0     C17300  -0.523   4.079   1.352 -0.8696  0.2247 -1.0426
  129MOL0     C17301  -0.660   4.071   1.296  0.7542  0.0159 -0.2198
  129MOL0     C17302  -0.726   3.951   1.344 -0.6638  0.3031 -0.5606
  129MOL0     C17303  -0.871   3.945   1.311  0.1184 -0.3279 -0.8862
  129MOL0     O17304  -0.917   3.828   1.381 -0.0609 -0.6608 -0.9531
  129MOL0     C17305  -1.053   3.803   1.396 -0.7382 -0.0604 -0.3614
  129MOL0     C17306  -1.102   3.703   1.477  0.9475  0.0128  0.5873
  129MOL0     C17307  -1.244   3.682   1.508 -0.0290 -0.0437 -0.7816
  129MOL0     C17308  -1.284   3.588   1.628  0.1441 -0.7678  0.5991
  129MOL0     C17309  -1.335   3.764   1.447 -0.2629  1.3098  0.1962
  129MOL0     C17310  -1.485   3.764   1.476  0.5093 -0.6083 -0.0524
  129MOL0     O17311  -1.560   3.859   1.410 -0.1341  0.1957  0.0096
  129MOL0     C17312  -1.697   3.856   1.422 -0.0124 -0.5966 -0.1541
  129MOL0     C17313  -1.779   3.742   1.415 -0.3471  0.0603 -0.4468
  129MOL0     C17314  -1.919   3.756   1.443 -0.4959 -0.7380  0.2880
  129MOL0     C17315  -1.982   3.881   1.443 -0.1340  0.2883  0.1435
  129MOL0     O17316  -2.115   3.905   1.444  0.9377  0.2624 -0.3950
  129MOL0     C17317  -2.210   3.834   1.533 -1.4258  0.5641 -0.0226
  129MOL0     C17318  -2.200   3.878   1.684 -0.6621  0.7925  0.1624
  129MOL0     C17319  -2.321   3.848   1.778 -0.6786 -0.9045 -0.9836
  129MOL0     C17320  -2.340   3.972   1.874  0.2066 -0.1066  0.9786
  129MOL0     C17321  -2.436   3.931   1.981 -0.3532  0.6802 -0.1933
  129MOL0     C17322  -2.461   4.031   2.092 -0.1046 -1.4786  0.6086
  129MOL0     C17323  -2.522   4.167   2.040 -0.4574  0.3155  0.6729
  129MOL0     C17324  -2.555   4.256   2.155  0.1681 -0.4455  0.1734
  129MOL0    Cl17325  -2.672   4.178   2.273  0.2733 -0.3307  0.4990
  129MOL0     C17326  -1.896   3.996   1.440  0.7419 -0.2698  0.0279
  129MOL0     C17327  -1.756   3.985   1.438  0.1016 -0.1715  0.0201
  129MOL0     O17328  -1.530   3.670   1.540  0.6609  0.1509 -0.6860
  129MOL0     C17329  -1.285   3.855   1.356  0.1061 -0.2650 -0.1825
  129MOL0     C17330  -1.145   3.884   1.331 -0.2009  0.5851 -1.2832
  129MOL0     N17331  -0.456   4.228   1.146  0.5337  0.5900  0.2304
  129MOL0     N17332  -0.365   4.318   1.117 -0.1537  0.7788 -0.7391
  129MOL0     C17333   0.632   4.017   0.915  0.4008 -0.0044  0.4736
  129MOL0     C17334   0.738   3.947   0.859 -0.5882 -0.7516 -0.2315
  129MOL0     C17335   1.080   3.800   0.616 -1.0797 -0.5497  0.5681
  129MOL0     C17336   1.097   3.681   0.543  0.4280 -0.1399 -0.5785
  129MOL0     C17337   1.209   3.646   0.473 -0.9368  0.4466  0.3947
  129MOL0     C17338   1.314   3.733   0.463 -0.4062 -0.7560 -0.4978
  129MOL0     O17339   1.421   3.707   0.386  0.7354 -0.5744 -0.3057
  129MOL0     C17340   1.550   3.709   0.460  0.2886  0.0494  0.2219
  129MOL0     C17341   1.638   3.829   0.405 -0.2885 -0.7134 -0.1528
  129MOL0     C17342   1.674   3.832   0.255  0.0701 -0.1208 -0.3333
  129MOL0     C17343   1.771   3.728   0.196 -0.8617  0.0706 -0.2433
  129MOL0     C17344   1.899   3.773   0.249  1.1152 -0.1698 -0.5258
  129MOL0     C17345   2.000   3.807   0.301 -0.0535  0.0645  0.2869
  129MOL0     C17346   1.311   3.849   0.551  0.0305  0.2829  0.6494
  129MOL0     C17347   1.196   3.879   0.629 -0.3252 -0.1980 -0.3723
  129MOL0     H17348   0.906   4.207   0.744 -2.3508  1.0738 -3.0959
  129MOL0     H17349   0.712   4.329   0.830  4.4234 -0.1542  1.5625
  129MOL0     H17350   0.367   4.158   0.868  3.6174  1.6222 -1.4908
  129MOL0     H17351   0.361   4.113   1.047 -1.6727  0.5430 -0.5091
  129MOL0     H17352   0.314   4.384   0.917 -3.8029 -0.5900 -1.6194
  129MOL0     H17353   0.194   4.267   0.976  0.0158 -0.1766  2.2081
  129MOL0     H17354   0.276   4.285   1.207 -5.4773 -0.4849 -2.1062
  129MOL0     H17355   0.386   4.415   1.159 -0.1095  0.1545  2.0641
  129MOL0     H17356   0.257   4.569   1.109  0.3670 -0.7963 -0.0424
  129MOL0     H17357   0.122   4.465   1.060 -0.0232 -2.6918  0.1912
  129MOL0     H17358   0.220   4.521   1.347  1.5083 -0.0168 -1.6405
  129MOL0     H17359   0.089   4.618   1.274 -2.0163  0.1786  2.5533
  129MOL0     H17360   0.122   4.325   1.370 -2.2646 -1.8666 -0.9426
  129MOL0     H17361   0.007   4.441   1.432 -0.4861  2.0228 -0.2721
  129MOL0     H17362   0.007   4.325   1.145 -1.7436 -2.9715 -0.6670
  129MOL0     H17363  -0.049   4.231   1.273 -0.0370 -0.8579 -3.2071
  129MOL0     H17364  -0.162   4.496   1.156 -0.7007  1.3199  1.6276
  129MOL0     H17365  -0.175   4.486   1.316  2.2190  1.3162  0.0767
  129MOL0     H17366  -0.291   4.225   1.432 -2.0026 -0.2656  1.2536
  129MOL0     H17367  -0.476   3.984   1.324 -1.3880  0.0687 -1.3908
  129MOL0     H17368  -0.521   4.098   1.459  1.6774  2.4798 -1.3670
  129MOL0     H17369  -0.661   4.069   1.187 -3.3153 -2.4243 -0.3206
  129MOL0     H17370  -0.725   4.153   1.329  0.1534  0.1539 -1.6861
  129MOL0     H17371  -0.707   3.934   1.450  0.6341 -1.1559 -0.9877
  129MOL0     H17372  -0.686   3.863   1.292  1.9805  1.7590 -1.2207
  129MOL0     H17373  -0.878   3.923   1.204  4.8554 -4.8085 -0.6942
  129MOL0     H17374  -0.927   4.031   1.348  2.4781 -0.4429  3.7605
  129MOL0     H17375  -1.022   3.640   1.516  0.3950 -1.7861 -1.0418
  129MOL0     H17376  -1.340   3.642   1.705 -2.5712 -0.7458 -1.2641
  129MOL0     H17377  -1.332   3.499   1.587  1.9537 -2.2824  1.5582
  129MOL0     H17378  -1.198   3.543   1.679  1.3922 -0.8128 -1.4589
  129MOL0     H17379  -1.741   3.643   1.393 -0.6001  0.2963 -2.0673
  129MOL0     H17380  -1.975   3.664   1.449  0.7023 -1.4246  1.6786
  129MOL0     H17381  -2.314   3.861   1.515 -2.8363 -3.8062  0.3284
  129MOL0     H17382  -2.196   3.726   1.518 -0.8168  0.7695 -0.9745
  129MOL0     H17383  -2.114   3.829   1.729 -0.3014  2.1783  1.0064
  129MOL0     H17384  -2.185   3.985   1.667  0.8491  0.2451 -2.6838
  129MOL0     H17385  -2.283   3.762   1.834  2.5438  2.1466  2.0286
  129MOL0     H17386  -2.416   3.838   1.725 -1.0005 -1.5252 -0.3189
  129MOL0     H17387  -2.247   4.007   1.920 -0.5586  1.0846  1.6697
  129MOL0     H17388  -2.390   4.051   1.817  0.6922 -0.9187 -0.6248
  129MOL0     H17389  -2.400   3.836   2.022 -1.5886 -0.9534 -2.6161
  129MOL0     H17390  -2.530   3.894   1.940 -1.4992  2.0436  1.1031
  129MOL0     H17391  -2.531   3.973   2.154 -0.5216 -1.6387 -0.0013
  129MOL0     H17392  -2.368   4.054   2.145  0.9389  1.2897 -2.0648
  129MOL0     H17393  -2.613   4.142   1.984 -0.7289 -1.2801  1.7606
  129MOL0     H17394  -2.446   4.221   1.982  0.1618 -1.0113  0.2042
  129MOL0     H17395  -2.597   4.353   2.128  0.8471  0.2420  1.4920
  129MOL0     H17396  -2.467   4.266   2.220  1.1763 -2.6630 -0.7512
  129MOL0     H17397  -1.939   4.094   1.425 -0.3155 -0.8413 -0.7929
  129MOL0     H17398  -1.694   4.073   1.426  2.8369 -2.0877 -1.2526
  129MOL0     H17399  -1.350   3.932   1.316  3.7453  1.9670 -2.3573
  129MOL0     H17400  -1.119   3.972   1.273 -1.8822  1.8224 -0.2765
  129MOL0     H17401   0.563   3.943   0.953 -0.1679 -1.5743 -3.2063
  129MOL0     H17402   0.741   3.840   0.882  0.0671 -0.6538  0.1907
  129MOL0     H17403   1.013   3.613   0.556 -0.5420  1.0255 -0.5365
  129MOL0     H17404   1.222   3.563   0.404 -1.0467  1.9350 -1.5071
  129MOL0     H17405   1.536   3.707   0.568  1.1579 -1.2453  0.3375
  129MOL0     H17406   1.603   3.620   0.424 -2.5834 -2.5061  1.8972
  129MOL0     H17407   1.735   3.830   0.454  2.1125  2.7894 -4.2309
  129MOL0     H17408   1.594   3.927   0.426  1.1678  1.1179 -4.3955
  129MOL0     H17409   1.711   3.934   0.240 -1.5864  0.9458  2.1219
  129MOL0     H17410   1.585   3.817   0.193  1.3386  0.4702 -2.4155
  129MOL0     H17411   1.774   3.732   0.087 -1.2244  0.8180 -0.2300
  129MOL0     H17412   1.746   3.628   0.233 -0.6014  1.5691  4.6761
  129MOL0     H17413   2.095   3.827   0.346  0.9094 -0.2409 -1.5122
  129MOL0     H17414   1.401   3.908   0.537 -0.1051  0.6645  1.3300
  129MOL0     H17415   1.186   3.970   0.688 -3.8105 -0.3619 -0.4863
  130MOL0     O17416   8.764   2.083   6.026  0.1491  0.1339  0.2438
  130MOL0     C17417   8.692   2.030   6.111  0.3895 -0.5316  0.0572
  130MOL0     O17418   8.726   1.914   6.180  0.3230 -0.2562  0.4587
  130MOL0     C17419   8.843   1.852   6.156  0.3743  0.6383  0.1261
  130MOL0     C17420   8.935   1.866   6.055 -0.3601  0.3440  0.0734
  130MOL0     C17421   9.057   1.797   6.048  0.0307 -0.5792  0.4387
  130MOL0     C17422   9.101   1.714   6.149 -0.3173  0.2061  0.0050
  130MOL0     O17423   9.210   1.638   6.145 -0.3562  0.9779  0.3389
  130MOL0     C17424   9.326   1.672   6.073 -0.1474 -0.0603 -0.0674
  130MOL0     C17425   9.440   1.579   6.079 -0.0174  0.1334  0.9641
  130MOL0     C17426   9.562   1.610   5.994 -0.8923  0.4041  0.1077
  130MOL0     C17427   9.643   1.716   6.053  0.1250 -0.2997  0.7525
  130MOL0     C17428   9.770   1.771   5.967  0.4079  0.0991 -0.7014
  130MOL0     C17429   9.869   1.657   5.951 -0.2835  0.1519  0.0827
  130MOL0     C17430  10.011   1.706   5.905  0.4140 -0.3161 -0.2781
  130MOL0     C17431  10.099   1.594   5.848 -0.3186  0.8929 -1.6447
  130MOL0     N17432  10.120   1.486   5.951  0.0361 -0.2942  0.3955
  130MOL0     C17433  10.068   1.360   5.952  0.0026 -0.9611 -0.2109
  130MOL0     C17434  10.078   1.316   6.078 -0.4569 -0.2344  0.0890
  130MOL0     C17435  10.037   1.186   6.147  0.2087 -1.2015  0.7822
  130MOL0     C17436   9.885   1.186   6.160  0.2710  0.5094  0.8060
  130MOL0     C17437   9.820   1.291   6.258 -0.5952 -0.1280  0.5362
  130MOL0     C17438   9.676   1.273   6.285 -0.6097  0.5453 -0.0275
  130MOL0     O17439   9.630   1.386   6.357  0.3875  0.6462 -0.1505
  130MOL0     C17440   9.495   1.371   6.410  0.2195 -0.7050  0.5625
  130MOL0     C17441   9.430   1.249   6.432 -0.1033  0.7075  0.1916
  130MOL0     C17442   9.296   1.242   6.466 -0.1330 -0.3356 -0.9135
  130MOL0     C17443   9.217   1.111   6.482  0.8867 -0.8256 -0.3360
  130MOL0     C17444   9.234   1.358   6.517  0.7465  0.1193 -0.4487
  130MOL0     C17445   9.101   1.369   6.580  0.3457  0.1407  0.5013
  130MOL0     O17446   9.070   1.277   6.670 -0.1191  0.7359 -0.2337
  130MOL0     C17447   8.939   1.262   6.713  1.0176  0.3427  0.1672
  130MOL0     C17448   8.827   1.256   6.627 -1.2107 -0.3152  0.4275
  130MOL0     C17449   8.693   1.251   6.674 -0.5609  0.0585  0.5179
  130MOL0     C17450   8.669   1.260   6.812 -0.4884  1.4136 -0.5610
  130MOL0     O17451   8.544   1.237   6.861 -0.0568 -0.4792  0.7048
  130MOL0     C17452   8.501   1.248   7.002 -0.9911 -0.0236 -0.6724
  130MOL0     C17453   8.490   1.396   7.039 -0.5432  0.0071 -1.0132
  130MOL0     C17454   8.359   1.457   6.982 -1.1039  0.5050 -0.7406
  130MOL0     C17455   8.355   1.608   6.963  0.0713  0.4145 -0.0212
  130MOL0     C17456   8.466   1.669   6.885 -0.3659  0.9659  0.0555
  130MOL0     C17457   8.458   1.621   6.732  0.4378 -0.4604  0.3332
  130MOL0     C17458   8.597   1.581   6.677  0.4962 -0.2858  0.0369
  130MOL0     C17459   8.663   1.712   6.634 -0.0320 -1.3844  0.4725
  130MOL0    Cl17460   8.581   1.816   6.503 -0.2060  0.4583 -0.1256
  130MOL0     C17461   8.783   1.247   6.899  0.0945  0.4388  0.3681
  130MOL0     C17462   8.917   1.242   6.856  0.2845  0.7697 -0.1894
  130MOL0     O17463   9.020   1.462   6.550 -0.1415  0.2953  0.3228
  130MOL0     C17464   9.302   1.483   6.510 -0.4302  0.0844 -0.5720
  130MOL0     C17465   9.425   1.486   6.452 -0.8040 -0.5818 -0.4944
  130MOL0     N17466  10.141   1.415   6.148  0.2308  0.2012  0.1499
  130MOL0     N17467  10.170   1.519   6.075  0.4651 -0.7551  0.0544
  130MOL0     C17468   9.008   1.699   6.252  0.5375 -0.8266  0.3893
  130MOL0     C17469   8.883   1.773   6.258  1.2983 -0.7298 -1.2926
  130MOL0     C17470   8.556   2.096   6.115 -0.1451  0.9210  0.4766
  130MOL0     C17471   8.444   2.030   6.174 -0.1284  0.6001  0.0878
  130MOL0     C17472   8.324   2.096   6.192 -0.0768 -0.3349 -0.2617
  130MOL0     C17473   8.299   2.221   6.135 -0.1667  0.3075  0.9030
  130MOL0     O17474   8.182   2.289   6.156 -0.5593 -0.2873 -0.1307
  130MOL0     C17475   8.067   2.194   6.162 -0.1133  0.6686 -0.2079
  130MOL0     C17476   7.932   2.275   6.138 -0.0416  0.7748 -0.2099
  130MOL0     C17477   7.919   2.398   6.223 -0.4185 -0.4714 -0.2919
  130MOL0     C17478   7.793   2.469   6.206  0.2633 -0.7817  0.3979
  130MOL0     C17479   7.773   2.589   6.285 -0.1472 -0.0938  0.1058
  130MOL0     C17480   7.756   2.701   6.337  0.1907  0.5387  0.6471
  130MOL0     C17481   8.405   2.285   6.069 -0.3761  0.0794 -0.5555
  130MOL0     C17482   8.534   2.224   6.063 -0.4504  0.3289  0.3006
  130MOL0     H17483   8.900   1.922   5.969  0.9854 -0.0439 -0.7526
  130MOL0     H17484   9.101   1.790   5.949 -3.3634  0.3831 -1.3100
  130MOL0     H17485   9.300   1.691   5.968  1.0159  0.2722 -0.3213
  130MOL0     H17486   9.363   1.766   6.117 -0.7099 -1.2773  3.2187
  130MOL0     H17487   9.480   1.576   6.180  1.4772 -3.4392  0.4379
  130MOL0     H17488   9.400   1.478   6.063  1.6469 -0.6485  1.5146
  130MOL0     H17489   9.628   1.525   5.978 -1.5701 -0.2598  0.7552
  130MOL0     H17490   9.526   1.645   5.897  1.1674  1.0272 -0.4845
  130MOL0     H17491   9.565   1.793   6.062 -0.6646 -0.5258 -2.7905
  130MOL0     H17492   9.684   1.670   6.144  2.7304 -4.6831 -2.2490
  130MOL0     H17493   9.741   1.805   5.868 -0.3850  0.6733 -0.2865
  130MOL0     H17494   9.824   1.848   6.024 -0.2197 -1.3789  2.0688
  130MOL0     H17495   9.883   1.597   6.042 -0.2224 -0.5525 -0.3836
  130MOL0     H17496   9.836   1.589   5.872  3.5165 -1.5443 -0.2951
  130MOL0     H17497  10.001   1.783   5.828  2.2164 -0.3771 -0.6026
  130MOL0     H17498  10.048   1.752   5.997 -1.7812  2.5749 -0.6958
  130MOL0     H17499  10.200   1.624   5.819  1.7984  0.9913  4.4412
  130MOL0     H17500  10.043   1.546   5.766 -1.2687  1.0725 -1.1185
  130MOL0     H17501  10.021   1.306   5.870 -0.8147  1.9801 -1.8309
  130MOL0     H17502  10.067   1.100   6.086  1.6005  0.8100 -1.5935
  130MOL0     H17503  10.081   1.180   6.247  0.9158  0.7418  0.6342
  130MOL0     H17504   9.862   1.088   6.202 -0.5243  0.6267  0.6562
  130MOL0     H17505   9.833   1.186   6.064  0.5973  0.1121  0.6256
  130MOL0     H17506   9.830   1.388   6.208  1.8498 -0.9511 -0.7254
  130MOL0     H17507   9.868   1.298   6.356 -0.0076  2.0050  0.1491
  130MOL0     H17508   9.662   1.177   6.337 -3.1322  0.2577 -1.0970
  130MOL0     H17509   9.625   1.261   6.188 -0.4195 -0.5900 -0.0054
  130MOL0     H17510   9.470   1.157   6.390 -1.5101 -0.1820  0.7151
  130MOL0     H17511   9.246   1.030   6.414  1.1988 -1.6924  0.7946
  130MOL0     H17512   9.207   1.071   6.584  1.4954 -0.5197 -0.1523
  130MOL0     H17513   9.120   1.144   6.442  1.5430  1.5733 -0.0881
  130MOL0     H17514   8.843   1.260   6.520 -0.4363  0.7673  0.5653
  130MOL0     H17515   8.600   1.260   6.618 -0.6463  2.5080  0.9108
  130MOL0     H17516   8.403   1.201   6.990 -0.2704 -1.3089 -1.7844
  130MOL0     H17517   8.561   1.187   7.070  0.8056  0.0494 -2.1108
  130MOL0     H17518   8.502   1.408   7.147  0.9445 -0.9811 -1.0463
  130MOL0     H17519   8.583   1.436   6.999  0.9556 -0.0624  2.1138
  130MOL0     H17520   8.291   1.428   7.061 -0.8672  0.2906 -0.6165
  130MOL0     H17521   8.327   1.407   6.890 -2.8483  0.1666  0.0255
  130MOL0     H17522   8.255   1.625   6.923  1.1266  1.1293 -2.5538
  130MOL0     H17523   8.357   1.663   7.058 -0.7115  1.0958 -0.3874
  130MOL0     H17524   8.560   1.639   6.933 -2.0030 -0.7155  2.5226
  130MOL0     H17525   8.458   1.777   6.878 -0.8585  0.7949 -3.5674
  130MOL0     H17526   8.397   1.532   6.717  0.2003 -0.1214 -0.7882
  130MOL0     H17527   8.426   1.708   6.674 -1.0247 -0.0680  1.6869
  130MOL0     H17528   8.589   1.511   6.593 -2.7930 -0.5922  0.4518
  130MOL0     H17529   8.638   1.540   6.770 -2.9287  0.5577  2.0994
  130MOL0     H17530   8.770   1.701   6.613  0.0307 -0.4718  0.2729
  130MOL0     H17531   8.660   1.780   6.721 -3.5544  1.8971 -1.8956
  130MOL0     H17532   8.770   1.233   7.006  0.3872  0.6940  0.4400
  130MOL0     H17533   9.002   1.239   6.923  0.7852  0.5954 -0.8178
  130MOL0     H17534   9.243   1.568   6.539 -2.0266 -2.2548  4.0691
  130MOL0     H17535   9.473   1.579   6.425  0.9951  0.1801  4.4210
  130MOL0     H17536   9.038   1.622   6.322  1.1076 -0.9084  0.0580
  130MOL0     H17537   8.823   1.771   6.349 -1.0202 -0.5732 -2.7252
  130MOL0     H17538   8.456   1.934   6.223 -1.5416  1.7014  2.8163
  130MOL0     H17539   8.244   2.062   6.257 -0.5618  2.1257  0.5456
  130MOL0     H17540   8.075   2.117   6.085 -0.3937  0.0319  0.3885
  130MOL0     H17541   8.057   2.154   6.263 -0.6973  0.1978 -0.4434
  130MOL0     H17542   7.853   2.204   6.162 -0.2952  1.0433 -0.2413
  130MOL0     H17543   7.914   2.295   6.032 -0.1574 -0.9076 -0.5363
  130MOL0     H17544   8.003   2.466   6.203 -0.7720  0.3961  1.0374
  130MOL0     H17545   7.930   2.370   6.328  0.4860  0.5243 -0.0987
  130MOL0     H17546   7.709   2.401   6.218 -0.7855 -0.1270 -2.4097
  130MOL0     H17547   7.786   2.502   6.102 -0.5180 -1.2978  0.2814
  130MOL0     H17548   7.728   2.793   6.385 -0.7548 -0.0940  1.3519
  130MOL0     H17549   8.405   2.380   6.018  1.0474 -0.8343 -2.3931
  130MOL0     H17550   8.617   2.272   6.012 -1.3718  0.3309 -1.2401
  131MOL0     O17551  11.085   6.916   8.944 -0.2562 -0.1611 -0.4291
  131MOL0     C17552  11.191   6.954   8.901 -0.7364 -0.6143  0.4550
  131MOL0     O17553  11.250   7.077   8.919  0.3182 -0.0216 -0.3283
  131MOL0     C17554  11.186   7.154   9.012 -0.1162  0.4588  0.3672
  131MOL0     C17555  11.240   7.180   9.137 -0.5071 -0.2570  0.0652
  131MOL0     C17556  11.186   7.279   9.223  0.6445 -0.4090 -0.0309
  131MOL0     C17557  11.069   7.352   9.186  0.2933  0.4911  0.5886
  131MOL0     O17558  10.999   7.432   9.272  0.2156 -0.5085 -0.0295
  131MOL0     C17559  10.900   7.520   9.227 -0.1542  0.5996 -0.0742
  131MOL0     C17560  10.871   7.602   9.355 -0.9622 -0.6841 -0.2558
  131MOL0     C17561  10.838   7.505   9.468 -0.1263  0.1521 -0.0498
  131MOL0     C17562  10.707   7.424   9.441 -0.8026 -0.5619 -0.0338
  131MOL0     C17563  10.665   7.340   9.558  0.0710  0.7505  0.7034
  131MOL0     C17564  10.589   7.423   9.668  0.1393  0.4023  0.3697
  131MOL0     C17565  10.453   7.476   9.631  1.0035 -0.6433  0.3500
  131MOL0     C17566  10.377   7.557   9.746  0.5093  0.0591  0.2162
  131MOL0     N17567  10.250   7.599   9.699  0.0311  0.7109 -0.0953
  131MOL0     C17568  10.139   7.532   9.664  0.7281  0.5228  1.3013
  131MOL0     C17569  10.039   7.619   9.646 -0.3255 -0.1120  0.2624
  131MOL0     C17570   9.891   7.601   9.630  0.5475 -0.1334  0.5832
  131MOL0     C17571   9.844   7.596   9.771  0.2801  1.4136  0.1953
  131MOL0     C17572   9.702   7.549   9.764  0.4147 -0.3328 -0.1660
  131MOL0     C17573   9.634   7.558   9.906 -1.2313 -0.5969 -0.1593
  131MOL0     O17574   9.497   7.516   9.888  0.1469 -0.5235  0.3148
  131MOL0     C17575   9.433   7.450   9.988 -0.2536 -1.1919  0.0253
  131MOL0     C17576   9.481   7.452  10.118 -0.3823 -0.2759  0.3010
  131MOL0     C17577   9.418   7.369  10.219  0.1021 -0.5321 -0.9529
  131MOL0     C17578   9.494   7.364  10.343  0.3219  0.8019 -0.3223
  131MOL0     C17579   9.294   7.293  10.185 -0.1967  0.0041 -0.6761
  131MOL0     C17580   9.246   7.189  10.285 -0.2479 -0.2023 -0.5048
  131MOL0     O17581   9.178   7.082  10.240 -0.4517 -0.0723 -0.4720
  131MOL0     C17582   9.180   6.964  10.307  0.4043  0.1835 -0.1385
  131MOL0     C17583   9.078   6.872  10.274  0.0783 -0.0315 -0.5686
  131MOL0     C17584   9.080   6.745  10.337  1.0400 -0.4264 -0.2403
  131MOL0     C17585   9.187   6.695  10.405  0.3830  0.0366  0.2539
  131MOL0     O17586   9.206   6.576  10.462  0.4602  0.3124  0.4348
  131MOL0     C17587   9.121   6.470  10.403 -1.0759 -0.0711 -0.1943
  131MOL0     C17588   9.176   6.329  10.455  0.7618 -0.5300  0.4834
  131MOL0     C17589   9.193   6.332  10.612  0.6688 -0.5756  0.1109
  131MOL0     C17590   9.195   6.179  10.668  0.8628 -0.2373 -0.4986
  131MOL0     C17591   9.236   6.147  10.807 -0.5308  0.4254  0.4192
  131MOL0     C17592   9.133   6.072  10.893  0.4540  0.1254  0.2694
  131MOL0     C17593   9.064   5.946  10.836  0.6417  0.1425  0.0853
  131MOL0     C17594   9.124   5.820  10.851 -0.0817 -0.5666 -1.0240
  131MOL0    Cl17595   9.096   5.722  10.710 -0.3286  0.8237 -0.0120
  131MOL0     C17596   9.284   6.788  10.433 -0.8868  0.4362  0.0440
  131MOL0     C17597   9.284   6.923  10.393 -0.2074  0.4763  0.9960
  131MOL0     O17598   9.246   7.229  10.400 -0.5165  0.1967  0.1630
  131MOL0     C17599   9.256   7.291  10.048  0.0172 -0.0371  0.1508
  131MOL0     C17600   9.321   7.373   9.954  0.5327 -0.1569  0.2186
  131MOL0     N17601  10.098   7.743   9.678 -0.1004 -0.3825  0.4170
  131MOL0     N17602  10.224   7.732   9.705 -0.4097  0.0381  0.3286
  131MOL0     C17603  11.009   7.327   9.064  1.0745  1.0069 -0.0590
  131MOL0     C17604  11.069   7.224   8.983 -0.1439  0.2038  0.5151
  131MOL0     C17605  11.265   6.868   8.801  0.3431  0.4761 -0.9892
  131MOL0     C17606  11.353   6.923   8.707 -0.2996 -0.0637 -0.4265
  131MOL0     C17607  11.384   6.847   8.604 -0.2215  0.5016 -0.6248
  131MOL0     C17608  11.357   6.710   8.592  0.8541  0.1698  0.0454
  131MOL0     O17609  11.407   6.619   8.504  0.6167 -0.1422  0.2793
  131MOL0     C17610  11.478   6.668   8.390 -0.2428  0.3860  0.1325
  131MOL0     C17611  11.577   6.563   8.347  0.1387 -0.6520 -0.0358
  131MOL0     C17612  11.518   6.435   8.286  0.5630 -0.2247  0.3233
  131MOL0     C17613  11.390   6.453   8.198 -0.1076  0.0574  0.8143
  131MOL0     C17614  11.346   6.331   8.136 -0.4653  0.4459 -0.2834
  131MOL0     C17615  11.303   6.223   8.092 -0.4564 -0.1274  0.3414
  131MOL0     C17616  11.279   6.653   8.690 -0.4097  0.3384  0.3925
  131MOL0     C17617  11.224   6.738   8.789  0.0519 -0.3625  0.0312
  131MOL0     H17618  11.327   7.127   9.176 -0.3781 -0.1595 -0.0897
  131MOL0     H17619  11.228   7.297   9.322 -0.8538  0.7070  0.4475
  131MOL0     H17620  10.931   7.576   9.139  0.3243 -1.6543 -1.4389
  131MOL0     H17621  10.815   7.456   9.200  1.3573 -0.9606 -1.4797
  131MOL0     H17622  10.956   7.665   9.383 -2.3839  0.2183  2.3528
  131MOL0     H17623  10.793   7.673   9.327  3.4773  3.3486 -4.1992
  131MOL0     H17624  10.924   7.449   9.508 -1.9773  0.5039  5.2664
  131MOL0     H17625  10.828   7.561   9.561  0.1822 -1.1013  0.7681
  131MOL0     H17626  10.620   7.481   9.409 -1.1005  0.3248  2.2053
  131MOL0     H17627  10.724   7.350   9.361 -2.0848  1.6786 -2.5512
  131MOL0     H17628  10.612   7.248   9.531 -2.5477  1.8372  1.7304
  131MOL0     H17629  10.755   7.311   9.613 -1.3595 -1.8015  1.8805
  131MOL0     H17630  10.587   7.355   9.754  6.4613  1.0651  1.4769
  131MOL0     H17631  10.635   7.512   9.710 -1.1244  0.9315  0.6714
  131MOL0     H17632  10.477   7.549   9.554 -2.9225 -1.2451 -1.7280
  131MOL0     H17633  10.381   7.398   9.604  1.8455 -1.1029 -0.6177
  131MOL0     H17634  10.446   7.641   9.760 -0.1781  1.2647 -2.8240
  131MOL0     H17635  10.365   7.496   9.836  1.4384  0.9795  0.9851
  131MOL0     H17636  10.130   7.424   9.652  1.6439  0.5842 -0.1457
  131MOL0     H17637   9.857   7.684   9.567  0.3993  0.1116  0.9833
  131MOL0     H17638   9.867   7.505   9.585  1.9339 -0.6399  0.8754
  131MOL0     H17639   9.843   7.696   9.814  0.4984  1.8587 -0.8051
  131MOL0     H17640   9.902   7.519   9.824 -0.0717  1.2023  0.2725
  131MOL0     H17641   9.683   7.452   9.719 -1.1316 -1.2752  2.3250
  131MOL0     H17642   9.656   7.629   9.704  1.6172 -0.5982 -1.4823
  131MOL0     H17643   9.625   7.664   9.929  0.7722 -0.8564  2.2922
  131MOL0     H17644   9.694   7.520   9.989  0.2121  1.6398 -0.0919
  131MOL0     H17645   9.569   7.508  10.150  0.5333 -0.4766 -1.7181
  131MOL0     H17646   9.424   7.388  10.423  0.6109  3.7157 -0.8120
  131MOL0     H17647   9.526   7.261  10.361 -3.9183 -0.3893  1.6423
  131MOL0     H17648   9.579   7.432  10.356 -0.5209  1.6923  0.7349
  131MOL0     H17649   9.004   6.916  10.207  1.2626  2.5112 -0.3371
  131MOL0     H17650   8.991   6.683  10.330  1.5872 -1.4556  1.2736
  131MOL0     H17651   9.014   6.475  10.425 -0.7801 -1.3104  1.8086
  131MOL0     H17652   9.142   6.460  10.296 -2.5307  1.2524 -0.6360
  131MOL0     H17653   9.092   6.265  10.426 -0.8125  0.6798  2.1075
  131MOL0     H17654   9.265   6.296  10.402  0.1236 -1.1740 -0.2165
  131MOL0     H17655   9.125   6.399  10.666  2.3014  1.0778  0.2208
  131MOL0     H17656   9.294   6.365  10.635  1.4592 -2.2264 -0.8001
  131MOL0     H17657   9.091   6.150  10.651 -0.3103  1.2820  3.1275
  131MOL0     H17658   9.257   6.124  10.597  0.0471  0.9402 -2.1984
  131MOL0     H17659   9.274   6.235  10.859  1.2389 -0.2458  0.3210
  131MOL0     H17660   9.320   6.076  10.808  0.4639  1.5553 -0.3693
  131MOL0     H17661   9.186   6.047  10.985  2.9616  0.5186 -0.9854
  131MOL0     H17662   9.057   6.144  10.927  0.8530  1.0444 -0.6941
  131MOL0     H17663   9.047   5.955  10.728 -2.0302  2.3565  0.5532
  131MOL0     H17664   8.964   5.931  10.878  1.1948 -1.6184  0.8521
  131MOL0     H17665   9.088   5.776  10.944 -1.2993  2.0612 -0.1577
  131MOL0     H17666   9.232   5.841  10.853 -0.2695  0.5420 -1.4853
  131MOL0     H17667   9.370   6.744  10.482  1.0443  2.3761 -1.4539
  131MOL0     H17668   9.361   6.991  10.425 -0.6316  0.5418  1.9094
  131MOL0     H17669   9.172   7.226  10.028  0.5818 -1.0773  1.0698
  131MOL0     H17670   9.290   7.369   9.851 -1.4437 -3.4700  0.8167
  131MOL0     H17671  10.918   7.372   9.028 -0.0917 -2.2041 -1.5153
  131MOL0     H17672  11.024   7.185   8.892  0.0646 -0.0792  0.5301
  131MOL0     H17673  11.392   7.024   8.716 -1.1120  0.1662  0.9949
  131MOL0     H17674  11.438   6.890   8.521  0.6048 -0.1052 -0.4255
  131MOL0     H17675  11.410   6.676   8.305  1.5460 -1.2989 -1.5568
  131MOL0     H17676  11.525   6.766   8.398 -2.1641  1.2432  1.3979
  131MOL0     H17677  11.645   6.529   8.426 -0.9876 -0.7505  0.9292
  131MOL0     H17678  11.639   6.620   8.279  0.8036 -1.4781 -0.1441
  131MOL0     H17679  11.508   6.365   8.370  0.2515 -2.1183 -1.2083
  131MOL0     H17680  11.595   6.382   8.228  4.2887  2.6855  2.2392
  131MOL0     H17681  11.408   6.530   8.122 -0.4294  0.0380  0.7192
  131MOL0     H17682  11.300   6.493   8.246  0.6900  0.4719  2.0077
  131MOL0     H17683  11.265   6.130   8.053 -0.1688 -0.1221  0.0422
  131MOL0     H17684  11.245   6.550   8.687 -2.1238  0.8919 -0.6193
  131MOL0     H17685  11.165   6.696   8.870 -2.3560  2.0774 -0.3254
  132MOL0     O17686  11.094   0.631   6.269 -0.0702 -0.0208  0.7042
  132MOL0     C17687  11.051   0.603   6.154  0.1813 -0.1319 -0.1368
  132MOL0     O17688  10.924   0.631   6.105  0.9641  0.5091 -0.8314
  132MOL0     C17689  10.848   0.690   6.207  0.4699 -0.0450  0.6585
  132MOL0     C17690  10.882   0.823   6.250  0.8000  0.2147  0.4385
  132MOL0     C17691  10.809   0.881   6.357 -0.4866  1.5756  0.0542
  132MOL0     C17692  10.716   0.806   6.433 -0.3317  0.2577  0.9011
  132MOL0     O17693  10.644   0.881   6.514 -0.6922  0.0272 -0.3115
  132MOL0     C17694  10.580   0.815   6.624 -0.0559 -0.1302 -0.0884
  132MOL0     C17695  10.516   0.919   6.719 -0.3269  0.5228 -0.1690
  132MOL0     C17696  10.519   0.882   6.865  0.7292  0.4242 -0.1358
  132MOL0     C17697  10.392   0.797   6.895 -0.9526 -0.2678 -0.0400
  132MOL0     C17698  10.380   0.755   7.045  0.3939 -0.2480 -0.4546
  132MOL0     C17699  10.272   0.655   7.076  0.2910 -0.0107  0.8663
  132MOL0     C17700  10.131   0.715   7.036  0.1838 -0.4122  0.4023
  132MOL0     C17701  10.094   0.821   7.131 -0.3803  0.1239 -0.0286
  132MOL0     N17702   9.945   0.836   7.131  0.0503 -0.8964  0.4069
  132MOL0     C17703   9.870   0.922   7.056 -0.3671 -0.8164  0.1134
  132MOL0     C17704   9.745   0.926   7.111  0.0676 -0.3526  0.0538
  132MOL0     C17705   9.633   1.022   7.082  0.8596 -0.1261 -0.0676
  132MOL0     C17706   9.559   0.994   6.948  0.3073  1.3697 -0.5266
  132MOL0     C17707   9.633   1.030   6.821 -0.1081  0.4668 -0.2993
  132MOL0     C17708   9.543   1.003   6.698 -0.6190 -0.0595  0.6798
  132MOL0     O17709   9.621   1.011   6.572  0.4396 -0.0285  0.0207
  132MOL0     C17710   9.739   0.938   6.557  0.0010  0.7858 -0.2485
  132MOL0     C17711   9.860   0.999   6.523  0.0308  0.2743 -0.4689
  132MOL0     C17712   9.991   0.929   6.532  1.3304 -0.2932  0.2193
  132MOL0     C17713  10.107   1.020   6.507  0.3082 -0.2226  0.1964
  132MOL0     C17714   9.988   0.790   6.563  0.6118  0.0585  0.6261
  132MOL0     C17715  10.109   0.703   6.592  0.1757 -0.8296  0.6016
  132MOL0     O17716  10.090   0.577   6.560  0.1921 -0.4243  0.3270
  132MOL0     C17717  10.213   0.512   6.532  0.3417  0.4117 -0.4498
  132MOL0     C17718  10.286   0.522   6.417  0.0868  0.7005  1.0164
  132MOL0     C17719  10.405   0.453   6.390 -0.3417  0.2452  0.0009
  132MOL0     C17720  10.456   0.372   6.493 -0.4769  0.6012  1.0325
  132MOL0     O17721  10.567   0.288   6.479 -0.0666  0.3370 -0.5183
  132MOL0     C17722  10.683   0.324   6.543 -0.1294  0.5574 -0.3824
  132MOL0     C17723  10.774   0.221   6.602 -0.3591  0.9004  0.4660
  132MOL0     C17724  10.697   0.140   6.712  0.7454  1.4346 -0.5989
  132MOL0     C17725  10.789   0.044   6.790 -0.2899 -0.0485  1.0296
  132MOL0     C17726  10.732  -0.093   6.826 -0.1675 -0.0487 -0.8628
  132MOL0     C17727  10.617  -0.077   6.926 -0.1749 -0.5651 -0.6829
  132MOL0     C17728  10.607  -0.216   7.003 -0.4066  0.2126 -0.1494
  132MOL0     C17729  10.487  -0.219   7.100  0.0556  0.6088 -0.0644
  132MOL0    Cl17730  10.488  -0.373   7.185 -0.1518  0.5412 -0.0768
  132MOL0     C17731  10.379   0.356   6.608 -0.3343 -0.3503 -0.9941
  132MOL0     C17732  10.260   0.420   6.634  0.5679  0.7260  0.1979
  132MOL0     O17733  10.219   0.759   6.623 -0.3944  0.6306 -0.0136
  132MOL0     C17734   9.867   0.731   6.572  0.3072  0.6124 -0.2130
  132MOL0     C17735   9.748   0.803   6.573  0.1641  0.1950  0.4288
  132MOL0     N17736   9.738   0.815   7.198  0.1622 -1.3612  1.6308
  132MOL0     N17737   9.860   0.771   7.210 -0.2266  0.1177 -0.2255
  132MOL0     C17738  10.690   0.673   6.391 -1.0637  0.0252 -0.1435
  132MOL0     C17739  10.756   0.618   6.282  0.3192  0.7281  0.1915
  132MOL0     C17740  11.128   0.510   6.067  0.4652  0.4061  0.1907
  132MOL0     C17741  11.088   0.480   5.934  0.0008  0.9804 -0.2884
  132MOL0     C17742  11.146   0.393   5.851  0.1880  0.9550 -0.6551
  132MOL0     C17743  11.251   0.315   5.901  0.3524  1.3187 -0.6334
  132MOL0     O17744  11.295   0.212   5.817 -0.1186 -0.2090 -0.9399
  132MOL0     C17745  11.427   0.157   5.826  0.0697 -0.0048  1.1042
  132MOL0     C17746  11.418   0.007   5.790 -0.5404  0.1895  0.0302
  132MOL0     C17747  11.371  -0.073   5.911  0.4309 -1.1194 -0.0539
  132MOL0     C17748  11.321  -0.212   5.870 -0.5267 -0.2565  0.2515
  132MOL0     C17749  11.303  -0.301   5.996 -0.5570  0.9839 -0.3497
  132MOL0     C17750  11.265  -0.368   6.092  0.8156 -1.2877 -0.1370
  132MOL0     C17751  11.296   0.329   6.036 -0.1648 -0.9386  0.0644
  132MOL0     C17752  11.231   0.428   6.114 -0.0302  0.4796  0.5936
  132MOL0     H17753  10.956   0.878   6.191 -0.3862 -1.0456 -2.3987
  132MOL0     H17754  10.828   0.981   6.394  2.8420  1.7316 -1.6960
  132MOL0     H17755  10.489   0.758   6.599 -2.2867  1.8793  2.7611
  132MOL0     H17756  10.651   0.739   6.657 -0.6943 -1.6129 -1.9027
  132MOL0     H17757  10.581   1.007   6.729  1.2346 -0.8222  2.6951
  132MOL0     H17758  10.413   0.938   6.688 -1.1053 -1.6194  0.9001
  132MOL0     H17759  10.613   0.833   6.895 -0.5425 -0.5495  2.6158
  132MOL0     H17760  10.507   0.972   6.926  1.1121  0.9954 -0.8986
  132MOL0     H17761  10.310   0.857   6.854  1.0193  2.1494 -0.7012
  132MOL0     H17762  10.390   0.699   6.846 -0.9009 -0.8655  1.1215
  132MOL0     H17763  10.474   0.709   7.074  0.6637 -2.5428 -4.2464
  132MOL0     H17764  10.372   0.850   7.098  3.9342 -0.1176  0.0367
  132MOL0     H17765  10.295   0.565   7.018  1.7281 -0.6481  2.3731
  132MOL0     H17766  10.271   0.615   7.177  2.4645 -2.6452 -0.0377
  132MOL0     H17767  10.122   0.753   6.934 -0.4047  1.5770  1.1464
  132MOL0     H17768  10.058   0.636   7.054  0.5245 -1.4613 -2.4001
  132MOL0     H17769  10.129   0.918   7.095 -2.8032  1.0587 -0.0471
  132MOL0     H17770  10.140   0.799   7.228 -0.7324 -0.4220  0.0200
  132MOL0     H17771   9.918   0.984   6.981 -3.7724  2.5256  0.4233
  132MOL0     H17772   9.565   1.017   7.167 -1.8751  0.9421 -2.0398
  132MOL0     H17773   9.683   1.119   7.073 -1.0637  0.7460 -3.0247
  132MOL0     H17774   9.465   1.048   6.959 -0.1407  0.4914  0.0957
  132MOL0     H17775   9.540   0.886   6.946  2.7340  0.8913 -0.6490
  132MOL0     H17776   9.721   0.964   6.815 -0.2574  0.3656 -1.7756
  132MOL0     H17777   9.663   1.135   6.822  2.6965 -0.2079 -1.7076
  132MOL0     H17778   9.457   1.071   6.697 -0.3973  0.3202 -2.2908
  132MOL0     H17779   9.500   0.904   6.709 -4.1586  1.5199  2.9275
  132MOL0     H17780   9.866   1.106   6.506  3.3621  0.4006  0.7241
  132MOL0     H17781  10.137   1.005   6.403  2.8287 -0.9866  0.9731
  132MOL0     H17782  10.075   1.122   6.529 -0.4062  0.2315 -2.5748
  132MOL0     H17783  10.193   1.011   6.573  0.7226 -0.8600 -0.4176
  132MOL0     H17784  10.241   0.584   6.340 -0.6411  0.4768  1.2522
  132MOL0     H17785  10.452   0.464   6.292 -1.7179 -2.3687 -1.0560
  132MOL0     H17786  10.735   0.393   6.477  2.9103 -2.2546 -1.1444
  132MOL0     H17787  10.662   0.387   6.631  0.7257 -1.2356  1.1747
  132MOL0     H17788  10.806   0.160   6.516 -0.4255  1.2511  0.1907
  132MOL0     H17789  10.860   0.267   6.651  0.7307 -1.3259  0.7897
  132MOL0     H17790  10.631   0.070   6.659  2.3538 -0.2311 -0.4864
  132MOL0     H17791  10.637   0.202   6.780  1.5042  1.6695 -0.1419
  132MOL0     H17792  10.879   0.019   6.734 -0.8230 -2.7792  1.2681
  132MOL0     H17793  10.813   0.101   6.881 -3.4657  1.1167  1.2419
  132MOL0     H17794  10.819  -0.139   6.873  0.6793  0.3643 -1.9784
  132MOL0     H17795  10.696  -0.160   6.747 -1.4736  1.5398 -1.6737
  132MOL0     H17796  10.644  -0.006   7.004  1.8606 -0.8578 -1.0697
  132MOL0     H17797  10.528  -0.051   6.867 -0.8775  0.5537  0.8241
  132MOL0     H17798  10.698  -0.227   7.062  0.0384 -1.6695 -1.1114
  132MOL0     H17799  10.605  -0.304   6.938  2.7787  0.5102 -0.7979
  132MOL0     H17800  10.403  -0.211   7.030  1.7654  0.5100 -2.2661
  132MOL0     H17801  10.479  -0.142   7.177 -1.4017  1.0306 -0.6010
  132MOL0     H17802  10.404   0.282   6.683 -1.3840 -1.0460 -1.3149
  132MOL0     H17803  10.202   0.400   6.724  2.6504  1.3947  1.7581
  132MOL0     H17804   9.849   0.625   6.592 -2.3865  0.8307 -1.0539
  132MOL0     H17805   9.656   0.750   6.593 -1.2806  2.8758  1.3911
  132MOL0     H17806  10.612   0.615   6.438 -3.9062  1.7964 -2.3774
  132MOL0     H17807  10.744   0.512   6.260 -2.8763  1.2728 -1.3102
  132MOL0     H17808  10.994   0.518   5.895 -0.3457  0.1095 -0.3113
  132MOL0     H17809  11.100   0.379   5.754  1.3660 -1.0790 -0.9817
  132MOL0     H17810  11.479   0.212   5.747 -1.8838  1.4638  0.7761
  132MOL0     H17811  11.479   0.173   5.920 -1.5059  1.6365  1.7536
  132MOL0     H17812  11.517  -0.017   5.751 -0.0479  2.9738 -0.6589
  132MOL0     H17813  11.345   0.003   5.708 -1.4523  4.6576  0.3745
  132MOL0     H17814  11.299  -0.024   5.977  1.3545 -2.2311  1.8425
  132MOL0     H17815  11.449  -0.098   5.982 -1.4128 -1.1927  2.0635
  132MOL0     H17816  11.403  -0.254   5.811  1.0388  1.2013  1.2652
  132MOL0     H17817  11.227  -0.200   5.817  0.8696 -1.1801 -2.6564
  132MOL0     H17818  11.231  -0.418   6.180  1.2957  3.5803  3.2172
  132MOL0     H17819  11.377   0.270   6.076 -0.0488  0.2132  1.6099
  132MOL0     H17820  11.253   0.427   6.220 -2.3079  0.2939  1.1139
  133MOL0     O17821   8.417   8.994   5.660 -0.1713 -0.2264 -0.3603
  133MOL0     C17822   8.349   8.941   5.746  0.2396  1.1724 -0.2429
  133MOL0     O17823   8.342   8.977   5.879  0.3328 -0.2227  0.0492
  133MOL0     C17824   8.407   9.088   5.925 -0.4081  0.4148  0.1488
  133MOL0     C17825   8.370   9.218   5.897 -1.2826  0.4414  0.4962
  133MOL0     C17826   8.431   9.330   5.960 -0.0200  0.9720  0.4643
  133MOL0     C17827   8.504   9.302   6.077 -0.4124 -0.4463  0.1580
  133MOL0     O17828   8.542   9.397   6.167  0.5193  0.5035 -0.5300
  133MOL0     C17829   8.469   9.523   6.163 -0.9445 -0.1527  0.4208
  133MOL0     C17830   8.510   9.608   6.291 -0.4409  0.9190  0.1072
  133MOL0     C17831   8.417   9.728   6.321 -0.3706  0.3603  1.3802
  133MOL0     C17832   8.455   9.801   6.456  0.2821  0.1606  0.4016
  133MOL0     C17833   8.396   9.939   6.478  0.1317 -0.1028 -0.1882
  133MOL0     C17834   8.268   9.937   6.552  0.1799 -1.3855  0.1734
  133MOL0     C17835   8.202  10.069   6.583  0.5396 -0.3703 -0.1278
  133MOL0     C17836   8.231  10.132   6.718 -0.4895 -0.0969 -0.3361
  133MOL0     N17837   8.363  10.204   6.724  0.7145  1.1623  0.4009
  133MOL0     C17838   8.480  10.140   6.781  0.6458  0.1702 -0.1038
  133MOL0     C17839   8.567  10.244   6.764  0.0981 -0.6010  0.6270
  133MOL0     C17840   8.703  10.251   6.829  1.0972 -0.4237 -0.1609
  133MOL0     C17841   8.812  10.283   6.727  0.0822 -0.1472 -0.4238
  133MOL0     C17842   8.948  10.279   6.798  0.4719 -0.0499 -0.7104
  133MOL0     C17843   9.051  10.292   6.684 -0.1682 -0.0635 -0.3592
  133MOL0     O17844   9.174  10.319   6.758 -0.3352  1.1103  0.4673
  133MOL0     C17845   9.280  10.354   6.680  0.1514  0.2427  0.1644
  133MOL0     C17846   9.374  10.417   6.750  0.4310 -0.3464 -0.3823
  133MOL0     C17847   9.488  10.460   6.696  0.2725  0.5356 -0.0744
  133MOL0     C17848   9.588  10.517   6.806 -0.1965  0.5417  0.6338
  133MOL0     C17849   9.507  10.444   6.556 -0.4783 -0.2685  1.0967
  133MOL0     C17850   9.629  10.469   6.480  0.2833 -0.5659  0.3679
  133MOL0     O17851   9.620  10.471   6.348  0.4742 -0.4502  0.1813
  133MOL0     C17852   9.719  10.520   6.257 -0.5234 -0.1522 -0.2507
  133MOL0     C17853   9.855  10.518   6.273 -0.6702 -0.1086 -0.1913
  133MOL0     C17854   9.947  10.568   6.177 -0.0197 -0.9724 -0.7262
  133MOL0     C17855   9.899  10.614   6.052  0.8564 -0.2295 -1.2345
  133MOL0     O17856   9.974  10.649   5.952  0.6842  0.7839  0.0889
  133MOL0     C17857  10.103  10.585   5.924  0.2951 -1.2890  0.0413
  133MOL0     C17858  10.171  10.682   5.821 -0.9337  0.6518 -0.5513
  133MOL0     C17859  10.093  10.689   5.683 -0.0375  0.0543 -0.2874
  133MOL0     C17860  10.160  10.747   5.565 -0.5594 -0.0026  0.1703
  133MOL0     C17861  10.257  10.647   5.501 -0.3953 -0.3327  0.3161
  133MOL0     C17862  10.339  10.703   5.384 -0.1631  0.4999 -0.1135
  133MOL0     C17863  10.441  10.591   5.340 -0.0751 -0.3990  0.4700
  133MOL0     C17864  10.550  10.643   5.235 -0.3580  0.0325  0.4471
  133MOL0    Cl17865  10.474  10.685   5.071 -0.4156  0.0286  0.0634
  133MOL0     C17866   9.758  10.616   6.036 -0.2529  0.0697  0.4194
  133MOL0     C17867   9.670  10.573   6.131 -1.0101  0.6564 -0.4188
  133MOL0     O17868   9.722  10.524   6.549  0.0542  0.7836  0.1984
  133MOL0     C17869   9.403  10.391   6.479  0.1542  0.2254 -0.5899
  133MOL0     C17870   9.290  10.340   6.541  0.1179 -0.6891  0.4110
  133MOL0     N17871   8.510  10.350   6.700  0.1468 -0.3101  0.2278
  133MOL0     N17872   8.392  10.334   6.686 -0.5521  0.1480 -0.2405
  133MOL0     C17873   8.555   9.178   6.101  1.2694 -0.3303 -0.4187
  133MOL0     C17874   8.506   9.072   6.022 -0.4805 -0.0324  0.0682
  133MOL0     C17875   8.280   8.821   5.696  0.7420  1.2785  0.0622
  133MOL0     C17876   8.197   8.741   5.784  0.2265 -1.3473 -0.5472
  133MOL0     C17877   8.125   8.629   5.740  0.3524 -0.0976  0.0299
  133MOL0     C17878   8.156   8.570   5.614 -0.4448 -1.2601  0.0248
  133MOL0     O17879   8.107   8.460   5.554 -0.2337  0.1202  0.2465
  133MOL0     C17880   8.065   8.349   5.628  0.1967 -0.6060 -0.1366
  133MOL0     C17881   8.165   8.242   5.640  0.3492  1.2996 -1.1293
  133MOL0     C17882   8.131   8.129   5.744 -0.4620 -0.2994 -0.5197
  133MOL0     C17883   8.257   8.042   5.754 -0.9147  0.2964 -0.0626
  133MOL0     C17884   8.247   7.921   5.837  0.1637 -0.2451 -0.0859
  133MOL0     C17885   8.240   7.825   5.915  0.0845 -0.2191 -0.4499
  133MOL0     C17886   8.245   8.648   5.530  0.0413 -1.0033 -0.3894
  133MOL0     C17887   8.316   8.765   5.573  0.8288 -0.1664 -0.1909
  133MOL0     H17888   8.299   9.229   5.816  0.8086 -0.0755 -1.5062
  133MOL0     H17889   8.410   9.432   5.929  2.9698  1.4887 -0.2518
  133MOL0     H17890   8.511   9.578   6.079  0.5896  0.7821  1.7326
  133MOL0     H17891   8.362   9.514   6.141 -0.3550 -2.8459 -1.9107
  133MOL0     H17892   8.512   9.539   6.377 -1.9468  2.0228  1.0649
  133MOL0     H17893   8.609   9.654   6.290 -1.7558  4.2670  3.1379
  133MOL0     H17894   8.416   9.790   6.231  2.0301 -1.5323 -0.0707
  133MOL0     H17895   8.313   9.692   6.324  0.4767 -2.5864 -0.4275
  133MOL0     H17896   8.435   9.732   6.538 -1.1435 -1.6257 -1.3562
  133MOL0     H17897   8.563   9.819   6.451  0.7384 -2.3133  0.1712
  133MOL0     H17898   8.465   9.988   6.547  2.3507 -0.4011 -2.0776
  133MOL0     H17899   8.400   9.993   6.383 -3.8586  0.4481 -0.1947
  133MOL0     H17900   8.201   9.865   6.505  0.8068 -3.1482  1.8189
  133MOL0     H17901   8.284   9.876   6.642 -0.9515 -2.6953 -0.4630
  133MOL0     H17902   8.227  10.143   6.506 -0.9797 -2.0387 -2.3353
  133MOL0     H17903   8.094  10.056   6.568 -0.0457  3.0894  0.0388
  133MOL0     H17904   8.226  10.059   6.799  1.3193 -1.4088 -1.3320
  133MOL0     H17905   8.156  10.209   6.736 -1.1314 -0.3688 -1.6989
  133MOL0     H17906   8.489  10.049   6.838 -1.4776  1.3318  2.2488
  133MOL0     H17907   8.701  10.330   6.905 -4.5343 -1.3669  1.1036
  133MOL0     H17908   8.716  10.157   6.884 -0.6685 -0.5429  0.1205
  133MOL0     H17909   8.808  10.384   6.685  4.4363 -0.1130 -1.1781
  133MOL0     H17910   8.805  10.209   6.648  4.0752 -1.1363 -0.0687
  133MOL0     H17911   8.966  10.192   6.861 -1.5226 -0.5933 -0.8183
  133MOL0     H17912   8.957  10.368   6.861 -2.8036 -1.6738  2.4417
  133MOL0     H17913   9.023  10.373   6.616 -0.5335  0.4601  0.4068
  133MOL0     H17914   9.075  10.202   6.626 -0.0283  0.4756 -1.1627
  133MOL0     H17915   9.362  10.417   6.858 -0.4564 -1.3781 -0.4623
  133MOL0     H17916   9.535  10.561   6.891  0.2354 -0.3090  1.3536
  133MOL0     H17917   9.667  10.447   6.835  0.8005  1.9139  1.3207
  133MOL0     H17918   9.633  10.610   6.769  0.2592  0.8924  2.0257
  133MOL0     H17919   9.890  10.486   6.370 -0.1811 -1.1449 -0.6906
  133MOL0     H17920  10.051  10.553   6.203 -0.8292 -0.4386  3.7503
  133MOL0     H17921  10.173  10.569   6.007 -1.1789  2.4721  2.2565
  133MOL0     H17922  10.097  10.487   5.874  2.3876 -0.9983 -0.8788
  133MOL0     H17923  10.173  10.780   5.870 -0.6253  1.1053 -1.4552
  133MOL0     H17924  10.272  10.650   5.793 -0.7970  1.1121 -0.5869
  133MOL0     H17925  10.010  10.751   5.719  2.2954  2.7349  0.8649
  133MOL0     H17926  10.060  10.587   5.660 -1.7193  0.8990 -1.8270
  133MOL0     H17927  10.077  10.766   5.497 -4.3786 -3.0597  3.4798
  133MOL0     H17928  10.214  10.840   5.588 -1.5186  0.5094  0.4296
  133MOL0     H17929  10.202  10.560   5.463 -3.2542  1.2313  0.5542
  133MOL0     H17930  10.313  10.593   5.578 -1.3810 -2.2738 -0.2400
  133MOL0     H17931  10.280  10.741   5.300 -0.1239  2.0168  0.5158
  133MOL0     H17932  10.407  10.778   5.426  1.3941 -0.7238 -0.3303
  133MOL0     H17933  10.379  10.510   5.301  1.2350 -0.8696 -0.7177
  133MOL0     H17934  10.487  10.576   5.438  0.1147  2.8431  0.9906
  133MOL0     H17935  10.639  10.580   5.224 -1.2695 -0.8334 -3.1906
  133MOL0     H17936  10.584  10.735   5.284  0.7794 -1.6115  2.9682
  133MOL0     H17937   9.708  10.641   5.943 -3.3995 -2.8493  1.1029
  133MOL0     H17938   9.563  10.580   6.118 -0.9136  2.7467 -0.4309
  133MOL0     H17939   9.409  10.377   6.371 -0.4918 -0.2910 -0.5700
  133MOL0     H17940   9.220  10.297   6.470  0.8448  0.5784 -1.1362
  133MOL0     H17941   8.615   9.153   6.188  3.0279  2.6009 -0.6687
  133MOL0     H17942   8.535   8.969   6.041  0.0558  0.3286  1.2989
  133MOL0     H17943   8.175   8.780   5.883  0.2821  0.8366 -1.3488
  133MOL0     H17944   8.057   8.581   5.809 -0.3539  0.6967 -0.1055
  133MOL0     H17945   8.047   8.377   5.732  2.7807 -1.4189  0.6168
  133MOL0     H17946   7.972   8.313   5.584  0.2199 -0.6248 -0.1707
  133MOL0     H17947   8.267   8.282   5.648  0.3061  1.7296 -2.5174
  133MOL0     H17948   8.167   8.190   5.544  1.9252 -2.5361  0.7374
  133MOL0     H17949   8.043   8.070   5.718 -0.9670  0.8502 -1.5209
  133MOL0     H17950   8.103   8.167   5.843 -2.2502 -0.1911 -1.0426
  133MOL0     H17951   8.349   8.090   5.788 -1.0129 -1.1269  2.4366
  133MOL0     H17952   8.276   7.999   5.655  0.4500  0.9148 -0.0777
  133MOL0     H17953   8.225   7.740   5.979 -3.0109 -2.8130 -4.1128
  133MOL0     H17954   8.279   8.619   5.431  0.2199  1.3020 -1.0634
  133MOL0     H17955   8.394   8.822   5.523  0.1560  2.9257  2.0329
  134MOL0     O17956   2.602   9.431   9.598 -0.5057 -0.2066 -0.4771
  134MOL0     C17957   2.668   9.336   9.563 -0.2688  0.3593 -0.9056
  134MOL0     O17958   2.642   9.204   9.595 -0.0022 -0.2517 -0.2729
  134MOL0     C17959   2.542   9.181   9.683 -0.4619 -0.0745  0.8223
  134MOL0     C17960   2.414   9.135   9.644 -0.2994  0.2699 -0.2893
  134MOL0     C17961   2.323   9.104   9.739  0.4495  0.0891 -0.5637
  134MOL0     C17962   2.341   9.118   9.879  0.0914  0.6970 -0.2028
  134MOL0     O17963   2.259   9.101   9.984  0.2185  0.5500  0.4871
  134MOL0     C17964   2.144   9.023   9.947 -0.8557  0.4432  1.0169
  134MOL0     C17965   2.074   9.003  10.073 -0.6026 -0.6913 -0.0938
  134MOL0     C17966   1.952   8.913  10.058 -0.0168 -0.3002 -0.1629
  134MOL0     C17967   1.865   8.908  10.181  0.2484 -0.3956  0.3207
  134MOL0     C17968   1.740   8.827  10.154 -1.0354 -0.4462 -0.1285
  134MOL0     C17969   1.756   8.676  10.189  0.8198 -0.4655  0.4867
  134MOL0     C17970   1.620   8.617  10.193 -0.6838  1.2029 -0.6230
  134MOL0     C17971   1.571   8.560  10.065  0.6996  1.3907 -0.3873
  134MOL0     N17972   1.521   8.419  10.088  0.0262  0.1207  0.1965
  134MOL0     C17973   1.398   8.384  10.123  0.7485 -0.5906  0.3124
  134MOL0     C17974   1.397   8.249  10.159 -0.9352  0.4444 -0.2089
  134MOL0     C17975   1.287   8.170  10.232 -0.0537 -0.1797  1.0421
  134MOL0     C17976   1.198   8.091  10.131 -0.7770  0.3540 -0.0383
  134MOL0     C17977   1.123   8.176  10.036 -0.0530 -0.2742  0.1214
  134MOL0     C17978   1.004   8.247  10.102  0.0452 -0.0892 -0.3499
  134MOL0     O17979   1.047   8.382  10.141  0.1606  0.7046 -0.1324
  134MOL0     C17980   0.950   8.471  10.187  0.1910 -0.0080  0.1098
  134MOL0     C17981   0.992   8.601  10.214  0.2962  0.8241 -0.5581
  134MOL0     C17982   0.898   8.697  10.257 -0.0294  0.2387  0.8348
  134MOL0     C17983   0.944   8.834  10.310  0.1878  0.9205 -0.5458
  134MOL0     C17984   0.771   8.655  10.272  0.0104 -0.6061 -0.6203
  134MOL0     C17985   0.666   8.735  10.331  0.8812 -0.6293  0.4474
  134MOL0     O17986   0.609   8.830  10.250  0.9198 -0.3113 -0.0571
  134MOL0     C17987   0.546   8.938  10.307  0.0568  1.0445 -0.6939
  134MOL0     C17988   0.600   9.074  10.310 -0.3666  0.7765 -0.4654
  134MOL0     C17989   0.539   9.174  10.382 -0.1227  0.5842  0.2530
  134MOL0     C17990   0.412   9.152  10.446  0.2232 -0.2707  0.0142
  134MOL0     O17991   0.344   9.245  10.518  0.8846 -0.3076 -0.6678
  134MOL0     C17992   0.394   9.379  10.509  0.3301 -0.3644 -0.0233
  134MOL0     C17993   0.311   9.471  10.595 -0.4084 -0.5506 -1.1633
  134MOL0     C17994   0.310   9.438  10.741 -0.7455 -0.5456 -0.7966
  134MOL0     C17995   0.253   9.550  10.831 -0.0802 -0.1310 -0.0573
  134MOL0     C17996   0.362   9.673  10.829  0.3999 -0.4660 -0.1387
  134MOL0     C17997   0.460   9.653  10.946 -0.2077  0.6415  0.6440
  134MOL0     C17998   0.580   9.746  10.928  0.6588  0.3300  1.0388
  134MOL0     C17999   0.692   9.696  11.022 -1.2249  0.0796  0.1376
  134MOL0    Cl18000   0.654   9.688  11.203  0.0081 -0.2229 -0.4730
  134MOL0     C18001   0.354   9.027  10.434  0.1373  0.6148  0.4154
  134MOL0     C18002   0.419   8.918  10.369  0.0844 -0.3254  0.5243
  134MOL0     O18003   0.639   8.714  10.449 -0.2508 -0.3738  0.3265
  134MOL0     C18004   0.728   8.527  10.241 -0.1248 -0.7486 -0.7282
  134MOL0     C18005   0.818   8.436  10.211 -0.2043  0.8074 -0.2142
  134MOL0     N18006   1.528   8.211  10.143  0.2363 -0.0012  0.0400
  134MOL0     N18007   1.602   8.314  10.095 -0.0158 -0.2698  0.7856
  134MOL0     C18008   2.467   9.164   9.914 -0.3749 -0.3430 -0.6460
  134MOL0     C18009   2.564   9.204   9.820 -0.2998 -0.6471 -0.4361
  134MOL0     C18010   2.787   9.360   9.484  0.8528 -1.4866  0.7475
  134MOL0     C18011   2.841   9.493   9.470  0.5680  0.0119  0.4628
  134MOL0     C18012   2.933   9.523   9.370 -0.4731 -0.4722 -0.6129
  134MOL0     C18013   2.977   9.423   9.282  0.6635 -1.1254 -0.4771
  134MOL0     O18014   3.051   9.481   9.179 -0.9018  0.0389 -0.2768
  134MOL0     C18015   3.120   9.388   9.099 -0.7431  0.4249  0.6370
  134MOL0     C18016   3.255   9.437   9.050  0.5225  1.2474  0.0075
  134MOL0     C18017   3.345   9.323   9.012 -0.2231  0.0657  0.0770
  134MOL0     C18018   3.309   9.273   8.871 -0.1293 -0.2194  0.0431
  134MOL0     C18019   3.354   9.361   8.760  0.1816 -0.0996  0.4730
  134MOL0     C18020   3.397   9.445   8.687 -0.2047  0.4500  0.3635
  134MOL0     C18021   2.932   9.288   9.299 -0.1228 -0.5304  0.7769
  134MOL0     C18022   2.850   9.263   9.405 -1.0597  0.4464 -0.6380
  134MOL0     H18023   2.389   9.114   9.540 -1.0107  0.4321 -0.1565
  134MOL0     H18024   2.230   9.068   9.696  1.0032 -1.5126 -0.5058
  134MOL0     H18025   2.081   9.077   9.876 -2.9021 -2.2331  0.6353
  134MOL0     H18026   2.179   8.929   9.903 -1.8357  0.9506 -0.9969
  134MOL0     H18027   2.144   8.959  10.143  1.1759 -2.0429 -2.5731
  134MOL0     H18028   2.038   9.092  10.125 -3.2091 -3.3348  3.0546
  134MOL0     H18029   1.893   8.929   9.967 -0.1500 -0.4467 -0.1049
  134MOL0     H18030   1.996   8.813  10.044 -0.6969 -0.6414  0.0638
  134MOL0     H18031   1.922   8.854  10.258  1.4394  0.0784 -0.2106
  134MOL0     H18032   1.834   9.004  10.223  0.7285  1.2244 -2.7293
  134MOL0     H18033   1.663   8.875  10.215 -0.9301 -0.6514  0.1691
  134MOL0     H18034   1.717   8.837  10.048  1.4273 -0.7417 -0.7448
  134MOL0     H18035   1.830   8.636  10.118 -0.1482  2.7411 -2.5865
  134MOL0     H18036   1.805   8.677  10.287  1.8933  1.9132  0.0032
  134MOL0     H18037   1.611   8.536  10.266  0.0222  0.8144 -0.9458
  134MOL0     H18038   1.548   8.689  10.232 -0.9510 -0.9384  3.3557
  134MOL0     H18039   1.649   8.558   9.988  1.0054 -2.3566 -0.1215
  134MOL0     H18040   1.489   8.613  10.014  1.7058  0.4088 -3.2016
  134MOL0     H18041   1.314   8.451  10.112 -0.6700 -2.2731  0.3985
  134MOL0     H18042   1.339   8.108  10.305  1.9060 -2.7902 -2.2967
  134MOL0     H18043   1.230   8.247  10.285  2.9606  0.3875  3.7150
  134MOL0     H18044   1.135   8.019  10.183 -1.6150  0.8204 -0.3940
  134MOL0     H18045   1.259   8.026  10.067 -1.6243  1.7126 -2.3346
  134MOL0     H18046   1.083   8.115   9.955  1.4987 -2.2008  0.7480
  134MOL0     H18047   1.188   8.247   9.984  0.1712 -0.1191  0.6037
  134MOL0     H18048   0.954   8.187  10.179 -6.6159  3.0053 -1.5571
  134MOL0     H18049   0.936   8.251  10.017  0.5577  2.0813 -0.7218
  134MOL0     H18050   1.096   8.634  10.207  0.0316  1.9280  0.3147
  134MOL0     H18051   1.039   8.834  10.255  0.2188 -4.0473 -0.9257
  134MOL0     H18052   0.882   8.921  10.288  0.0514  0.9081 -0.2264
  134MOL0     H18053   0.970   8.825  10.416 -1.5869  3.2107  0.1773
  134MOL0     H18054   0.698   9.093  10.268 -0.3294 -1.0293 -1.3017
  134MOL0     H18055   0.587   9.271  10.374  0.6036  0.0973 -3.5879
  134MOL0     H18056   0.495   9.380  10.549 -0.4637  0.9100  2.1431
  134MOL0     H18057   0.387   9.419  10.408 -2.2699  2.5181  1.1270
  134MOL0     H18058   0.348   9.573  10.576 -0.2625  0.1793  2.4697
  134MOL0     H18059   0.211   9.474  10.550  0.1261  1.9589 -2.3581
  134MOL0     H18060   0.411   9.428  10.781 -0.4879  1.2215 -0.9331
  134MOL0     H18061   0.246   9.353  10.764  1.2732 -2.1283 -0.7655
  134MOL0     H18062   0.155   9.583  10.794  0.6723  1.5564 -0.6616
  134MOL0     H18063   0.234   9.509  10.930 -2.0551  3.2267  1.1234
  134MOL0     H18064   0.312   9.770  10.836  0.1062 -0.2499 -3.4601
  134MOL0     H18065   0.413   9.666  10.732 -3.0508 -3.1457 -1.9737
  134MOL0     H18066   0.406   9.687  11.035 -2.3642  0.6248 -0.6072
  134MOL0     H18067   0.495   9.549  10.949 -1.3393  0.2581  2.3800
  134MOL0     H18068   0.558   9.849  10.957  1.6797  1.8308 -2.8237
  134MOL0     H18069   0.611   9.738  10.823 -0.8882 -0.7670  0.6165
  134MOL0     H18070   0.784   9.744  10.988 -1.3044  0.9823  1.1570
  134MOL0     H18071   0.713   9.592  10.998  1.1209  0.2863  1.0626
  134MOL0     H18072   0.255   9.007  10.474 -0.4056  0.9984 -0.6857
  134MOL0     H18073   0.374   8.820  10.358  1.4414 -0.9095 -0.0354
  134MOL0     H18074   0.627   8.495  10.263  0.2523 -1.8827 -0.6127
  134MOL0     H18075   0.783   8.333  10.210  0.1712  0.6677 -1.9818
  134MOL0     H18076   2.499   9.180  10.016  0.0894  0.4622 -0.9087
  134MOL0     H18077   2.654   9.253   9.859 -1.6232  1.6616 -0.0953
  134MOL0     H18078   2.800   9.572   9.532  0.9812  0.0879  0.6390
  134MOL0     H18079   2.965   9.623   9.342 -1.2562 -1.2185 -4.7836
  134MOL0     H18080   3.130   9.297   9.158  0.3302  0.5398  0.6639
  134MOL0     H18081   3.061   9.378   9.008 -1.1754  4.7029  0.2295
  134MOL0     H18082   3.303   9.501   9.124  0.3851  3.5178 -1.7467
  134MOL0     H18083   3.231   9.500   8.963 -0.2498  0.3558 -0.4503
  134MOL0     H18084   3.353   9.245   9.088  2.1435  0.1613 -0.0220
  134MOL0     H18085   3.446   9.363   9.004 -0.3680  0.3263 -0.4903
  134MOL0     H18086   3.201   9.258   8.861 -0.2598  0.5061  0.2412
  134MOL0     H18087   3.355   9.176   8.850  1.3997  1.0483 -3.2345
  134MOL0     H18088   3.426   9.509   8.606 -2.5005  0.2731 -0.6955
  134MOL0     H18089   2.964   9.206   9.235  0.4469  0.0472  0.3054
  134MOL0     H18090   2.813   9.163   9.426  2.7337 -0.9289  0.1836
  135MOL0     O18091   0.296   4.736   0.878 -0.4454 -0.1814 -0.4338
  135MOL0     C18092   0.386   4.818   0.882 -0.2951 -0.9619  0.8201
  135MOL0     O18093   0.367   4.948   0.847 -0.5453  0.5008  0.0727
  135MOL0     C18094   0.244   5.000   0.813  0.1641  0.0449  0.7317
  135MOL0     C18095   0.217   5.045   0.680 -0.1269  0.3923  0.1006
  135MOL0     C18096   0.095   5.105   0.653 -0.4722 -0.6189  0.3875
  135MOL0     C18097  -0.002   5.122   0.749 -0.3757 -0.4790 -0.0767
  135MOL0     O18098  -0.122   5.195   0.740 -0.3804  0.1068  0.3826
  135MOL0     C18099  -0.183   5.186   0.604 -0.6104 -0.8266  1.1367
  135MOL0     C18100  -0.137   5.311   0.518  0.5363 -0.1098 -0.2162
  135MOL0     C18101  -0.177   5.286   0.376  0.4435 -0.3446  0.0310
  135MOL0     C18102  -0.129   5.417   0.290  1.2605  0.0190  0.1138
  135MOL0     C18103  -0.152   5.376   0.144 -0.0931  0.8452 -0.3215
  135MOL0     C18104  -0.167   5.505   0.067  0.2253  0.0162 -0.1396
  135MOL0     C18105  -0.130   5.473  -0.075  0.1460  0.9500 -0.1934
  135MOL0     C18106  -0.142   5.605  -0.157  0.2955  0.3371  0.3324
  135MOL0     N18107  -0.120   5.579  -0.298 -0.1823  0.0822 -0.3148
  135MOL0     C18108   0.004   5.573  -0.349  0.2347 -0.3937 -0.0103
  135MOL0     C18109  -0.011   5.516  -0.475  0.1079 -0.2278  0.0073
  135MOL0     C18110   0.094   5.479  -0.576 -0.3068 -0.6485 -0.1221
  135MOL0     C18111   0.227   5.432  -0.526 -0.4785  0.3036  0.5135
  135MOL0     C18112   0.235   5.289  -0.481  0.2240  0.5213 -0.1329
  135MOL0     C18113   0.377   5.258  -0.433 -0.1253 -0.3583 -0.1191
  135MOL0     O18114   0.396   5.330  -0.310 -0.5912  0.2221 -0.8357
  135MOL0     C18115   0.519   5.319  -0.240  0.5996 -0.1364 -0.3680
  135MOL0     C18116   0.537   5.381  -0.116  0.2091  0.0377 -0.0527
  135MOL0     C18117   0.666   5.372  -0.049  0.2703 -0.4050  0.4905
  135MOL0     C18118   0.677   5.448   0.077 -1.1251 -0.7618 -0.0157
  135MOL0     C18119   0.765   5.288  -0.106 -1.0739  0.7688 -0.1371
  135MOL0     C18120   0.893   5.265  -0.048  0.4581 -0.7219 -0.4131
  135MOL0     O18121   0.934   5.144  -0.023 -0.3396  0.1929  0.3941
  135MOL0     C18122   1.031   5.123   0.070  0.2392  0.6650  0.6382
  135MOL0     C18123   1.100   5.006   0.057  0.7999 -0.3186 -0.5214
  135MOL0     C18124   1.198   4.965   0.145 -0.8257 -0.3261  0.6003
  135MOL0     C18125   1.251   5.043   0.246 -0.3423  0.9012 -0.5970
  135MOL0     O18126   1.354   4.995   0.325  0.0500  0.2618 -0.6719
  135MOL0     C18127   1.413   5.090   0.416  0.0690 -0.8374  0.0006
  135MOL0     C18128   1.534   5.156   0.360  0.6350 -0.6536 -0.0108
  135MOL0     C18129   1.607   5.232   0.473 -0.9657 -0.3445  0.1639
  135MOL0     C18130   1.750   5.270   0.427  0.2981  0.0595  0.2474
  135MOL0     C18131   1.807   5.352   0.545  0.4020 -0.0431  0.6362
  135MOL0     C18132   1.712   5.447   0.614  0.9659 -0.7741  0.2320
  135MOL0     C18133   1.775   5.528   0.733  0.4992  0.9312 -0.4054
  135MOL0     C18134   1.671   5.552   0.855 -0.2477 -0.7937  1.4570
  135MOL0    Cl18135   1.581   5.704   0.813  0.4445 -0.6276  0.4081
  135MOL0     C18136   1.186   5.171   0.249 -0.1509 -0.3590  0.0347
  135MOL0     C18137   1.084   5.208   0.163 -0.3617  0.3907 -0.1501
  135MOL0     O18138   0.965   5.367  -0.060  0.0412  0.1727  0.1303
  135MOL0     C18139   0.736   5.205  -0.225  0.5309  0.0390  0.0985
  135MOL0     C18140   0.624   5.242  -0.293 -0.1473  0.0425  0.0835
  135MOL0     N18141  -0.145   5.491  -0.493 -0.0417 -0.0976 -0.4322
  135MOL0     N18142  -0.210   5.531  -0.383  0.0932  0.1648  0.1483
  135MOL0     C18143   0.025   5.085   0.884  0.4383 -0.6787 -0.6054
  135MOL0     C18144   0.142   5.022   0.909 -0.8423 -0.3069 -0.1341
  135MOL0     C18145   0.525   4.776   0.897 -0.5339  0.2969 -0.1117
  135MOL0     C18146   0.558   4.640   0.919 -0.1675  0.1268 -0.3633
  135MOL0     C18147   0.687   4.601   0.953  0.2312 -0.9174 -0.3506
  135MOL0     C18148   0.782   4.701   0.954 -1.5079  0.1001  0.2797
  135MOL0     O18149   0.908   4.660   0.972  0.6127 -0.4247  0.5835
  135MOL0     C18150   1.011   4.750   1.008 -0.7298  1.4779  0.0557
  135MOL0     C18151   1.151   4.697   1.058 -0.8428 -0.1614 -0.4090
  135MOL0     C18152   1.144   4.641   1.197 -0.7443  0.4870  0.2686
  135MOL0     C18153   1.293   4.647   1.266  0.7145  0.0630  1.2039
  135MOL0     C18154   1.401   4.557   1.217  0.5123 -0.1729 -0.3895
  135MOL0     C18155   1.497   4.495   1.187 -0.2047  0.5208 -0.0521
  135MOL0     C18156   0.758   4.837   0.946  1.2475 -0.4502  0.3562
  135MOL0     C18157   0.627   4.873   0.919 -0.9247  0.2104 -0.3158
  135MOL0     H18158   0.296   5.042   0.605 -0.4407  0.1619 -0.2198
  135MOL0     H18159   0.074   5.157   0.560 -1.0245  0.5190  1.1270
  135MOL0     H18160  -0.146   5.093   0.560  0.2087  0.5847 -1.3683
  135MOL0     H18161  -0.292   5.187   0.615 -0.8208  0.1973 -0.6429
  135MOL0     H18162  -0.179   5.402   0.562 -2.4038 -1.8075  0.7495
  135MOL0     H18163  -0.028   5.323   0.514  0.3193  1.8378 -1.5287
  135MOL0     H18164  -0.122   5.198   0.341  1.8728 -0.4229  2.2932
  135MOL0     H18165  -0.285   5.268   0.368  0.9705 -3.9712 -0.9728
  135MOL0     H18166  -0.173   5.516   0.305  5.0337  2.0255 -0.7942
  135MOL0     H18167  -0.024   5.422   0.320  1.1765  2.7289  0.1665
  135MOL0     H18168  -0.067   5.317   0.110 -0.2588  0.1655  0.4287
  135MOL0     H18169  -0.244   5.318   0.138 -0.5863  1.7023 -1.4348
  135MOL0     H18170  -0.271   5.533   0.084 -0.5629 -2.2786 -0.7624
  135MOL0     H18171  -0.101   5.584   0.104  2.0100 -0.9267 -1.1485
  135MOL0     H18172  -0.026   5.441  -0.088  0.9391  2.3325  2.1610
  135MOL0     H18173  -0.200   5.397  -0.111  1.2534 -1.1533  1.8788
  135MOL0     H18174  -0.074   5.682  -0.121  0.2664  0.4440  0.1576
  135MOL0     H18175  -0.243   5.645  -0.144  0.7248  2.5926 -2.3873
  135MOL0     H18176   0.094   5.617  -0.307  0.7367 -1.8292  0.4807
  135MOL0     H18177   0.046   5.413  -0.650 -2.4809  0.2317  0.4409
  135MOL0     H18178   0.120   5.575  -0.622 -0.1544  0.3855  2.0411
  135MOL0     H18179   0.262   5.501  -0.449  0.0433 -0.0030  0.5587
  135MOL0     H18180   0.299   5.433  -0.608 -0.4359  1.2597  0.5579
  135MOL0     H18181   0.216   5.219  -0.563 -1.6660  3.8841 -2.8368
  135MOL0     H18182   0.168   5.285  -0.395  1.3183  0.9684  0.7565
  135MOL0     H18183   0.451   5.282  -0.510  0.0196  0.7883  0.3708
  135MOL0     H18184   0.390   5.151  -0.414  0.4752 -0.2444  0.1445
  135MOL0     H18185   0.466   5.437  -0.056 -1.1677 -1.2553 -0.4179
  135MOL0     H18186   0.577   5.446   0.122 -0.4885 -1.5117  1.4296
  135MOL0     H18187   0.741   5.400   0.151 -2.4294  0.1611  1.7760
  135MOL0     H18188   0.709   5.552   0.068 -2.5506 -0.4380 -2.4434
  135MOL0     H18189   1.073   4.947  -0.030  3.3131 -0.0533 -1.5708
  135MOL0     H18190   1.253   4.872   0.131  0.7269  0.8485 -1.8094
  135MOL0     H18191   1.348   5.163   0.466  0.4651 -1.5837  1.6750
  135MOL0     H18192   1.448   5.030   0.500 -3.0873 -0.1462  1.9581
  135MOL0     H18193   1.593   5.075   0.317 -1.5129 -2.3174 -0.0314
  135MOL0     H18194   1.518   5.219   0.271 -0.9382 -3.4225 -1.8269
  135MOL0     H18195   1.593   5.178   0.567 -2.0320 -3.0059 -1.4163
  135MOL0     H18196   1.554   5.328   0.469  1.5225  1.1376  0.1372
  135MOL0     H18197   1.817   5.186   0.408 -1.4034 -1.7244  1.7544
  135MOL0     H18198   1.759   5.330   0.336  0.2675 -2.1413 -1.2688
  135MOL0     H18199   1.891   5.413   0.510  0.4785 -0.4811  0.0574
  135MOL0     H18200   1.832   5.286   0.628  2.7763 -0.3858 -0.2647
  135MOL0     H18201   1.669   5.515   0.540  1.8442 -0.5683 -0.1054
  135MOL0     H18202   1.634   5.386   0.660  1.3621  0.4159  2.6447
  135MOL0     H18203   1.812   5.621   0.689  2.5177  0.9588  1.2258
  135MOL0     H18204   1.863   5.481   0.777 -0.6781  0.2227  1.3043
  135MOL0     H18205   1.725   5.579   0.946  3.3522  1.3508 -1.0461
  135MOL0     H18206   1.597   5.471   0.852 -0.4598 -0.5747 -0.9890
  135MOL0     H18207   1.233   5.249   0.307  1.8519 -1.7530  0.3991
  135MOL0     H18208   1.047   5.310   0.167 -0.5263  0.3163  4.4150
  135MOL0     H18209   0.803   5.131  -0.267  1.1462  1.3529 -1.3362
  135MOL0     H18210   0.604   5.188  -0.384 -3.6280  0.5703  0.4244
  135MOL0     H18211  -0.030   5.113   0.973  1.3061  2.0289 -0.8380
  135MOL0     H18212   0.172   4.983   1.005  3.0559  1.1733 -0.5819
  135MOL0     H18213   0.490   4.556   0.907  0.4481 -0.4461  0.1219
  135MOL0     H18214   0.711   4.495   0.955 -1.1258 -1.3259 -2.6617
  135MOL0     H18215   1.034   4.805   0.916  0.5724  1.7375  0.5159
  135MOL0     H18216   0.977   4.824   1.081  0.5972  2.5895 -0.4088
  135MOL0     H18217   1.229   4.773   1.047 -1.7617  0.6619 -1.5957
  135MOL0     H18218   1.165   4.610   0.993 -0.9500 -0.8877  0.5258
  135MOL0     H18219   1.124   4.534   1.180  0.7855  0.6430 -3.7545
  135MOL0     H18220   1.072   4.695   1.258 -1.1898  1.8399 -1.3879
  135MOL0     H18221   1.294   4.636   1.375  2.7603  1.2552  1.3606
  135MOL0     H18222   1.327   4.751   1.258 -0.9891  0.5676 -0.1256
  135MOL0     H18223   1.579   4.428   1.170 -1.3198 -0.8322 -0.2440
  135MOL0     H18224   0.826   4.921   0.955 -0.2125  1.0301 -1.4930
  135MOL0     H18225   0.602   4.977   0.903 -1.3164 -0.3060 -3.8679
  136MOL0     O18226   3.008   7.421   2.313  0.7753  0.1236 -0.4078
  136MOL0     C18227   2.932   7.364   2.390  0.3629  0.2142  0.2085
  136MOL0     O18228   2.831   7.282   2.348  0.3946 -0.0512  0.3854
  136MOL0     C18229   2.809   7.274   2.211 -0.9477 -0.1353 -0.7409
  136MOL0     C18230   2.880   7.193   2.123  0.4820  0.0343 -0.2748
  136MOL0     C18231   2.842   7.180   1.986  0.2467 -0.2541  0.5243
  136MOL0     C18232   2.750   7.274   1.935  1.6948 -0.2526 -0.9270
  136MOL0     O18233   2.685   7.259   1.804 -1.0446  0.3347 -0.1575
  136MOL0     C18234   2.612   7.137   1.784  0.4352 -0.5868 -0.5301
  136MOL0     C18235   2.487   7.175   1.697  0.0495  0.6336  0.3737
  136MOL0     C18236   2.381   7.063   1.665  0.2347  0.1648 -0.0681
  136MOL0     C18237   2.243   7.120   1.658  0.5527  0.5743 -0.0659
  136MOL0     C18238   2.159   7.017   1.580  0.5414  0.5656 -0.7588
  136MOL0     C18239   2.014   7.039   1.566 -0.5966  0.2877 -0.4143
  136MOL0     C18240   1.929   7.091   1.681 -0.3140 -0.4791 -0.3131
  136MOL0     C18241   1.776   7.103   1.644  0.3723  0.4777  0.1027
  136MOL0     N18242   1.718   6.976   1.613  0.7355 -0.1360 -0.5499
  136MOL0     C18243   1.705   6.931   1.486 -0.5825  0.4213  0.0721
  136MOL0     C18244   1.679   6.798   1.500  0.6393 -0.4551 -0.4103
  136MOL0     C18245   1.650   6.693   1.392 -0.0654 -1.0657 -0.3091
  136MOL0     C18246   1.509   6.711   1.366  0.2033  0.2240  1.3668
  136MOL0     C18247   1.475   6.632   1.233  0.2986  0.0102  0.2085
  136MOL0     C18248   1.337   6.671   1.175 -0.7004  0.4301  0.6692
  136MOL0     O18249   1.233   6.601   1.234 -0.0334  0.3644 -0.2416
  136MOL0     C18250   1.113   6.669   1.252  0.0906  0.2522  0.7015
  136MOL0     C18251   1.089   6.753   1.360 -0.0330 -1.3029  0.5104
  136MOL0     C18252   0.960   6.803   1.393 -0.2865  0.5092  0.3307
  136MOL0     C18253   0.937   6.865   1.525  0.5715 -1.0008 -0.2280
  136MOL0     C18254   0.854   6.768   1.309  0.4136  0.0520  0.2539
  136MOL0     C18255   0.715   6.821   1.319  0.5434  0.4049 -0.0582
  136MOL0     O18256   0.610   6.745   1.259 -0.2496  0.5828  0.1814
  136MOL0     C18257   0.482   6.780   1.297  0.3453  0.3931  0.8915
  136MOL0     C18258   0.409   6.880   1.224  0.5145  0.6001 -0.3413
  136MOL0     C18259   0.276   6.910   1.242  0.4388  0.2410 -0.4840
  136MOL0     C18260   0.208   6.830   1.330 -0.6778  0.7417 -0.4552
  136MOL0     O18261   0.069   6.840   1.324 -0.3077  0.1387 -0.6546
  136MOL0     C18262  -0.009   6.767   1.416  0.3234 -0.7341  0.5417
  136MOL0     C18263  -0.165   6.801   1.411  0.0643 -0.1187 -0.1785
  136MOL0     C18264  -0.244   6.720   1.309  0.4402  0.2666 -0.8487
  136MOL0     C18265  -0.387   6.763   1.286  0.6911  0.1469 -0.8340
  136MOL0     C18266  -0.461   6.674   1.176 -0.2120  0.5924 -0.0050
  136MOL0     C18267  -0.589   6.740   1.117 -0.0907 -0.2236 -0.0861
  136MOL0     C18268  -0.683   6.632   1.062  0.0718  0.8383 -0.8878
  136MOL0     C18269  -0.825   6.697   1.045 -0.7944  0.3350 -0.3687
  136MOL0    Cl18270  -0.948   6.604   0.970 -0.5553  0.0970  0.1227
  136MOL0     C18271   0.279   6.740   1.414 -0.0986 -0.0046  0.1653
  136MOL0     C18272   0.414   6.703   1.393  0.6235  0.9326  0.0888
  136MOL0     O18273   0.692   6.929   1.370 -0.5328 -0.5571 -0.0401
  136MOL0     C18274   0.880   6.681   1.193  1.1524 -0.9366  0.5141
  136MOL0     C18275   1.007   6.640   1.169 -0.7077 -0.1539  0.4042
  136MOL0     N18276   1.657   6.775   1.636  0.4811  0.0543  0.6036
  136MOL0     N18277   1.684   6.880   1.702 -0.2527 -0.1359  0.2923
  136MOL0     C18278   2.707   7.378   2.015 -0.5061 -0.3263  1.0100
  136MOL0     C18279   2.739   7.383   2.153 -0.3824 -0.5555 -0.6086
  136MOL0     C18280   2.948   7.378   2.538  0.9196  0.6275 -0.6214
  136MOL0     C18281   2.884   7.291   2.628  0.5730  0.1034  0.8737
  136MOL0     C18282   2.902   7.306   2.764 -0.6523  0.4997 -0.0742
  136MOL0     C18283   2.998   7.390   2.820 -0.4537 -0.5196 -0.3342
  136MOL0     O18284   3.037   7.406   2.954  1.0256  1.5996  0.3510
  136MOL0     C18285   2.990   7.314   3.061  0.2941  0.2452  0.5322
  136MOL0     C18286   3.098   7.301   3.158  0.0012 -0.6006 -0.7399
  136MOL0     C18287   3.087   7.180   3.254 -0.3698  0.0919 -0.1354
  136MOL0     C18288   3.210   7.148   3.340  0.0401  0.1934 -0.2946
  136MOL0     C18289   3.170   7.060   3.448 -0.1179  1.0218  0.7181
  136MOL0     C18290   3.149   6.984   3.535  0.0568  0.0946  0.1597
  136MOL0     C18291   3.075   7.468   2.730  1.0368 -0.3088  0.4327
  136MOL0     C18292   3.047   7.460   2.595 -0.5530 -0.5400  0.0439
  136MOL0     H18293   2.949   7.122   2.167 -0.4519 -0.6392  0.1325
  136MOL0     H18294   2.884   7.097   1.931 -0.6302 -0.2527 -0.1586
  136MOL0     H18295   2.678   7.069   1.730 -1.3140 -1.6509 -1.3917
  136MOL0     H18296   2.572   7.090   1.874  1.3294 -0.3411  0.0184
  136MOL0     H18297   2.441   7.258   1.751 -1.8637 -0.5347  0.6225
  136MOL0     H18298   2.511   7.208   1.595  0.0609 -1.7490 -0.4616
  136MOL0     H18299   2.390   7.023   1.563 -2.0564  0.2231 -0.3638
  136MOL0     H18300   2.386   6.978   1.734 -0.9712 -0.1637 -0.3555
  136MOL0     H18301   2.196   7.143   1.754  1.7379  0.9498  0.4423
  136MOL0     H18302   2.260   7.211   1.599 -1.4418  2.4733  2.0813
  136MOL0     H18303   2.195   7.002   1.478  1.0395 -1.7000 -0.3246
  136MOL0     H18304   2.166   6.920   1.631 -2.4066  0.1575 -0.9538
  136MOL0     H18305   2.004   7.101   1.476  0.6994 -0.5188 -1.1436
  136MOL0     H18306   1.969   6.941   1.547  0.3227 -0.9799  3.1601
  136MOL0     H18307   1.952   7.043   1.777  4.3020  1.6639 -0.0983
  136MOL0     H18308   1.965   7.192   1.700  2.6696 -1.0751 -2.2590
  136MOL0     H18309   1.754   7.174   1.563  0.5206  1.1198  0.6090
  136MOL0     H18310   1.735   7.151   1.734  2.2091  1.7728  0.3150
  136MOL0     H18311   1.720   6.976   1.389 -2.6064  0.9142 -0.0545
  136MOL0     H18312   1.721   6.717   1.312 -1.5051  0.5010 -1.1897
  136MOL0     H18313   1.670   6.595   1.437  2.2358 -1.0252 -1.1242
  136MOL0     H18314   1.480   6.816   1.360  3.5454  1.2594  1.7665
  136MOL0     H18315   1.472   6.656   1.453  0.0446 -0.0553  1.1249
  136MOL0     H18316   1.492   6.524   1.236  1.4491  0.1023 -1.6240
  136MOL0     H18317   1.551   6.673   1.166  0.1022  0.6469  0.3710
  136MOL0     H18318   1.343   6.638   1.071  2.4489 -0.7335  1.1128
  136MOL0     H18319   1.333   6.780   1.170 -1.3680  0.3665 -0.6830
  136MOL0     H18320   1.171   6.772   1.429 -1.5284  0.3323  1.9383
  136MOL0     H18321   0.959   6.971   1.510  0.3028 -0.9293 -0.1303
  136MOL0     H18322   0.834   6.862   1.564  0.0203  1.6132 -1.2532
  136MOL0     H18323   0.997   6.814   1.600  0.3348  0.5486  1.0921
  136MOL0     H18324   0.467   6.918   1.141  1.4918 -2.0834 -0.9711
  136MOL0     H18325   0.235   6.992   1.185 -0.4468  0.4874  0.4821
  136MOL0     H18326   0.008   6.659   1.413  0.1103 -0.8513  2.4049
  136MOL0     H18327   0.019   6.805   1.515  1.0621  0.4412 -0.0900
  136MOL0     H18328  -0.207   6.782   1.510  3.3808 -3.2138  0.8677
  136MOL0     H18329  -0.168   6.902   1.368  0.8622 -0.2526 -0.5753
  136MOL0     H18330  -0.235   6.615   1.338 -3.3430 -0.5346 -1.9280
  136MOL0     H18331  -0.195   6.739   1.213  1.1871  0.9901 -0.3377
  136MOL0     H18332  -0.449   6.749   1.375  4.2644 -3.5935  1.4055
  136MOL0     H18333  -0.388   6.870   1.261 -0.0300  0.4873  0.5467
  136MOL0     H18334  -0.481   6.577   1.223  2.7926  0.2203  0.7131
  136MOL0     H18335  -0.383   6.661   1.101 -1.6863 -1.2037 -1.3074
  136MOL0     H18336  -0.636   6.795   1.199 -0.9904  1.5103 -1.6811
  136MOL0     H18337  -0.558   6.809   1.038  0.3448  0.7449  0.8933
  136MOL0     H18338  -0.690   6.550   1.134 -2.6116  2.6668  1.1327
  136MOL0     H18339  -0.655   6.594   0.964  1.7421  0.3837 -0.2717
  136MOL0     H18340  -0.817   6.792   0.992  2.6232 -0.3524 -1.3083
  136MOL0     H18341  -0.859   6.717   1.147 -2.4022  0.5100 -0.9082
  136MOL0     H18342   0.226   6.693   1.496 -1.1099 -2.5241 -1.7843
  136MOL0     H18343   0.459   6.622   1.450  1.2872  1.0767 -0.2178
  136MOL0     H18344   0.795   6.652   1.132  1.2369 -1.4567  0.6393
  136MOL0     H18345   1.026   6.575   1.084  0.3121 -0.9154  1.1914
  136MOL0     H18346   2.637   7.452   1.978  0.8391  0.3660 -0.2523
  136MOL0     H18347   2.701   7.473   2.200 -0.7459  0.4720 -2.7405
  136MOL0     H18348   2.823   7.208   2.596  2.7863 -1.0752 -0.5468
  136MOL0     H18349   2.851   7.243   2.837  0.9362 -0.7444  0.0347
  136MOL0     H18350   2.900   7.344   3.116 -1.5833  0.1124 -2.2602
  136MOL0     H18351   2.956   7.219   3.020 -1.4360 -0.1113  2.5928
  136MOL0     H18352   3.101   7.394   3.215  2.0766 -1.1209  0.0805
  136MOL0     H18353   3.192   7.298   3.101  0.7800 -0.6931  0.5070
  136MOL0     H18354   3.082   7.085   3.200  1.9985 -1.6416  2.4482
  136MOL0     H18355   2.990   7.184   3.304 -1.8977 -2.7138 -2.5168
  136MOL0     H18356   3.251   7.241   3.382  0.3059 -1.1906  2.8083
  136MOL0     H18357   3.288   7.091   3.289 -2.0687 -3.2890  0.0699
  136MOL0     H18358   3.110   6.920   3.612  0.8940 -0.9132 -0.2323
  136MOL0     H18359   3.157   7.530   2.767 -0.4567 -0.4953  4.6288
  136MOL0     H18360   3.100   7.532   2.533 -1.7173 -1.3717 -2.0424
  137MOL0     O18361  10.090   5.392   4.779 -0.4526 -0.1374  0.5577
  137MOL0     C18362  10.212   5.373   4.797  0.1164 -0.2226  0.4782
  137MOL0     O18363  10.255   5.278   4.883 -0.4066 -0.3794  0.4646
  137MOL0     C18364  10.159   5.219   4.959 -0.6839  0.0270 -0.4990
  137MOL0     C18365  10.071   5.117   4.906 -0.4502 -0.1662 -0.6126
  137MOL0     C18366   9.951   5.087   4.977 -0.8506  0.0672 -0.4678
  137MOL0     C18367   9.937   5.139   5.111  0.3553  0.2596  0.2379
  137MOL0     O18368   9.821   5.128   5.182 -0.5762 -0.4040 -0.6471
  137MOL0     C18369   9.757   5.003   5.167 -0.2184 -0.0693  0.7017
  137MOL0     C18370   9.626   5.002   5.260 -0.1333 -1.4660 -0.1038
  137MOL0     C18371   9.507   4.920   5.206  0.1094 -0.7876  0.5632
  137MOL0     C18372   9.488   4.791   5.300 -0.3795 -0.2240 -0.5034
  137MOL0     C18373   9.362   4.701   5.258 -0.8825 -0.3207 -0.4742
  137MOL0     C18374   9.313   4.596   5.356 -0.8477 -0.0092  0.2753
  137MOL0     C18375   9.208   4.499   5.299  0.0217  0.5612 -0.1141
  137MOL0     C18376   9.063   4.559   5.271 -0.9181  0.1345 -0.2906
  137MOL0     N18377   8.964   4.472   5.209  0.2597 -0.0352  0.1072
  137MOL0     C18378   8.979   4.400   5.095  0.1826 -0.3800 -0.0920
  137MOL0     C18379   8.873   4.315   5.101  0.6154  0.4764 -0.6011
  137MOL0     C18380   8.832   4.224   4.984  0.1259  0.1897 -0.0179
  137MOL0     C18381   8.696   4.248   4.926  0.3347  0.7103 -0.2818
  137MOL0     C18382   8.640   4.129   4.836  1.5895 -0.1215 -0.7055
  137MOL0     C18383   8.486   4.134   4.837 -0.7543  0.8327  0.3703
  137MOL0     O18384   8.427   4.030   4.762 -0.3379 -0.4476 -0.4805
  137MOL0     C18385   8.286   4.037   4.758 -0.7608 -0.9043  1.3062
  137MOL0     C18386   8.199   4.130   4.809 -0.5942 -0.1172 -0.1614
  137MOL0     C18387   8.064   4.124   4.774  0.0422  0.4415 -0.1058
  137MOL0     C18388   7.986   4.250   4.804  0.3554  0.3912  0.7490
  137MOL0     C18389   8.013   4.024   4.689 -0.2222  0.4569 -0.5246
  137MOL0     C18390   7.862   4.000   4.670 -0.8775  0.3781 -0.4017
  137MOL0     O18391   7.826   3.939   4.554  0.5641 -0.2897  0.2198
  137MOL0     C18392   7.700   3.938   4.496  0.2747 -0.3764 -0.0150
  137MOL0     C18393   7.597   4.027   4.527  0.1664 -0.9023 -0.5334
  137MOL0     C18394   7.464   4.018   4.483  0.0073 -0.5631  0.4064
  137MOL0     C18395   7.436   3.925   4.384 -0.3511  0.2663 -0.3131
  137MOL0     O18396   7.305   3.923   4.334  0.2053  0.4875  0.0358
  137MOL0     C18397   7.249   3.791   4.314 -0.2798 -0.2911  0.8593
  137MOL0     C18398   7.140   3.768   4.419 -0.4103 -0.3425 -0.4552
  137MOL0     C18399   7.032   3.874   4.425  0.3553 -0.1370  0.9998
  137MOL0     C18400   6.944   3.885   4.291 -0.3120  0.4352 -0.6804
  137MOL0     C18401   6.826   3.977   4.324 -0.0249 -1.0371  0.3956
  137MOL0     C18402   6.716   3.961   4.210 -0.2296  0.7767 -0.3175
  137MOL0     C18403   6.625   3.847   4.242  0.0405  0.3265  0.4817
  137MOL0     C18404   6.499   3.836   4.154  0.6204 -1.3719  0.4100
  137MOL0    Cl18405   6.408   3.986   4.143 -0.3163  0.6131 -0.0077
  137MOL0     C18406   7.545   3.843   4.337  0.2799  0.6801  0.2969
  137MOL0     C18407   7.675   3.845   4.395  0.1981 -0.5320 -0.9473
  137MOL0     O18408   7.783   4.036   4.764 -0.3231  0.8029  0.0219
  137MOL0     C18409   8.109   3.939   4.628  0.3982  0.2731 -1.0425
  137MOL0     C18410   8.237   3.941   4.668  0.0974  0.5147  0.3995
  137MOL0     N18411   8.787   4.332   5.209 -0.7037  0.1512  0.5915
  137MOL0     N18412   8.842   4.430   5.271  0.1392  0.2084 -0.3327
  137MOL0     C18413  10.027   5.233   5.161 -0.6866  0.8335 -0.0326
  137MOL0     C18414  10.130   5.274   5.082  0.7622 -0.5166 -0.6722
  137MOL0     C18415  10.314   5.442   4.711  0.7672 -0.4570  0.4001
  137MOL0     C18416  10.271   5.557   4.656  0.4801  0.4365  0.5981
  137MOL0     C18417  10.370   5.640   4.593 -0.2346 -0.2024  0.8301
  137MOL0     C18418  10.498   5.594   4.559 -0.1577 -0.3957  0.1457
  137MOL0     O18419  10.595   5.654   4.480 -0.1788 -0.1511 -0.1079
  137MOL0     C18420  10.598   5.793   4.468  0.5839 -0.5069 -0.0105
  137MOL0     C18421  10.733   5.844   4.529  0.8668 -0.2077 -0.5224
  137MOL0     C18422  10.756   5.815   4.683 -0.1183 -0.2960 -0.3488
  137MOL0     C18423  10.888   5.875   4.729  0.2666  0.1969 -0.6862
  137MOL0     C18424  10.914   5.854   4.877 -0.5929  0.0732 -0.4243
  137MOL0     C18425  10.941   5.839   4.993 -0.1045  1.1762 -0.4264
  137MOL0     C18426  10.536   5.469   4.613  0.7905 -0.0989  0.8295
  137MOL0     C18427  10.447   5.401   4.691 -0.3248  0.4211  0.2826
  137MOL0     H18428  10.073   5.091   4.801 -3.0955  0.5031 -0.8895
  137MOL0     H18429   9.876   5.033   4.922  2.3116 -3.8812 -1.3653
  137MOL0     H18430   9.711   4.992   5.068 -0.9495 -0.3672  1.0690
  137MOL0     H18431   9.828   4.922   5.186  3.2639  2.5221 -0.1468
  137MOL0     H18432   9.671   4.974   5.355  2.0162  0.9755 -0.3037
  137MOL0     H18433   9.590   5.106   5.265 -0.0014 -1.2529 -2.4065
  137MOL0     H18434   9.415   4.980   5.202  2.4394  3.1541  0.6557
  137MOL0     H18435   9.529   4.886   5.105 -0.6983 -3.9956  1.3709
  137MOL0     H18436   9.578   4.729   5.292 -0.7886 -0.7947 -0.7169
  137MOL0     H18437   9.478   4.832   5.401  0.6351 -0.9772 -0.0769
  137MOL0     H18438   9.276   4.762   5.231 -1.8118 -2.3988 -2.5091
  137MOL0     H18439   9.390   4.649   5.166 -0.0332  0.0300 -0.4236
  137MOL0     H18440   9.403   4.539   5.380 -2.1185 -2.2054  0.1637
  137MOL0     H18441   9.274   4.641   5.448 -2.9762 -0.2433 -0.4491
  137MOL0     H18442   9.234   4.439   5.212  1.2273 -2.0393  1.9000
  137MOL0     H18443   9.198   4.428   5.381  1.3253  1.3337  0.7509
  137MOL0     H18444   9.083   4.649   5.211  5.1236  1.0466  2.2680
  137MOL0     H18445   9.024   4.593   5.368  0.9216  0.7980  0.2681
  137MOL0     H18446   9.058   4.404   5.021  0.7166 -1.4111  0.3908
  137MOL0     H18447   8.905   4.240   4.905  0.2485 -0.8011 -0.1174
  137MOL0     H18448   8.828   4.123   5.028  0.3382  0.1875 -0.0020
  137MOL0     H18449   8.689   4.342   4.870  0.8434 -0.2920 -2.1099
  137MOL0     H18450   8.622   4.241   5.006 -0.0763 -2.5179 -0.8053
  137MOL0     H18451   8.670   4.037   4.887  0.2029  0.1235  0.5997
  137MOL0     H18452   8.684   4.141   4.736  2.0923 -1.5706 -0.6724
  137MOL0     H18453   8.455   4.236   4.811  0.1928  1.5252  1.8003
  137MOL0     H18454   8.454   4.121   4.940 -0.6443 -1.0047  0.1983
  137MOL0     H18455   8.239   4.211   4.869  2.5466  1.4629 -3.8967
  137MOL0     H18456   8.041   4.337   4.768 -2.0231  0.9023 -1.9780
  137MOL0     H18457   7.891   4.245   4.750  0.1669 -4.8364  1.0462
  137MOL0     H18458   7.965   4.257   4.912 -1.8607  1.4919  0.3016
  137MOL0     H18459   7.629   4.100   4.601  0.0094 -0.7674 -0.5998
  137MOL0     H18460   7.382   4.075   4.525  0.8349 -0.2836  1.6794
  137MOL0     H18461   7.208   3.794   4.213  1.0233  1.4703  0.3407
  137MOL0     H18462   7.319   3.707   4.314  0.0615 -0.0430 -0.7765
  137MOL0     H18463   7.097   3.670   4.398 -1.9071  0.2864 -0.4447
  137MOL0     H18464   7.196   3.763   4.513  0.9233 -1.3028 -1.2568
  137MOL0     H18465   7.093   3.962   4.445  3.1965 -1.1057 -2.4382
  137MOL0     H18466   6.961   3.862   4.508 -2.0243  1.4966 -0.6567
  137MOL0     H18467   7.000   3.911   4.201  0.8878 -3.6031 -1.2776
  137MOL0     H18468   6.916   3.780   4.281  1.3565 -0.4460  2.4288
  137MOL0     H18469   6.856   4.081   4.309  0.4620 -1.3259 -0.7656
  137MOL0     H18470   6.777   3.973   4.422 -0.5913  2.3223  0.3527
  137MOL0     H18471   6.665   4.056   4.190 -2.6110 -0.3618  0.0932
  137MOL0     H18472   6.774   3.933   4.121 -1.3771  0.8506 -1.1090
  137MOL0     H18473   6.593   3.862   4.346  1.3098 -1.1476  1.1202
  137MOL0     H18474   6.680   3.753   4.242  0.5103  0.5992 -0.1293
  137MOL0     H18475   6.422   3.769   4.191 -2.4983  1.5704 -0.2716
  137MOL0     H18476   6.529   3.795   4.057  1.1975 -0.4567  0.1819
  137MOL0     H18477   7.534   3.771   4.256  0.1945  0.9870  0.0338
  137MOL0     H18478   7.752   3.788   4.344 -2.1588 -0.6961 -4.6814
  137MOL0     H18479   8.085   3.864   4.553 -1.6465  1.3516 -1.5495
  137MOL0     H18480   8.302   3.873   4.615 -0.8076  0.1581 -0.2871
  137MOL0     H18481  10.018   5.282   5.257  3.6889  1.3868  0.3223
  137MOL0     H18482  10.195   5.348   5.128  2.1675 -1.4446 -1.0769
  137MOL0     H18483  10.170   5.596   4.667 -0.0602  0.1052 -2.3283
  137MOL0     H18484  10.334   5.739   4.565 -2.4786 -0.6010  2.0056
  137MOL0     H18485  10.577   5.806   4.362 -0.0755 -2.0447 -0.0850
  137MOL0     H18486  10.516   5.848   4.516 -0.9573 -0.0283 -2.9462
  137MOL0     H18487  10.726   5.953   4.514  1.5836 -0.3399 -1.9877
  137MOL0     H18488  10.815   5.800   4.472 -1.2937 -3.0521 -1.6299
  137MOL0     H18489  10.756   5.706   4.698  0.0793 -0.1806  0.5707
  137MOL0     H18490  10.675   5.857   4.744 -0.5338 -0.7597 -0.5691
  137MOL0     H18491  10.890   5.984   4.717  1.1792  0.2546 -0.0748
  137MOL0     H18492  10.972   5.835   4.672  1.0714  0.2157  0.4513
  137MOL0     H18493  10.971   5.820   5.095 -3.2218 -1.4354  0.1608
  137MOL0     H18494  10.640   5.439   4.607  1.5045  2.2815  0.2681
  137MOL0     H18495  10.475   5.309   4.743 -0.5498  0.9400  1.3565
  138MOL0     O18496   4.128   4.305   8.243  0.2364  0.8115  0.0381
  138MOL0     C18497   4.172   4.244   8.345  0.7739 -0.5248  0.5501
  138MOL0     O18498   4.129   4.248   8.474  0.0366  0.2119  0.0287
  138MOL0     C18499   4.030   4.342   8.502 -0.2895 -0.9815 -0.5128
  138MOL0     C18500   3.925   4.294   8.576 -0.8159 -1.9413 -0.1315
  138MOL0     C18501   3.831   4.385   8.619  0.6206 -0.5858 -0.5236
  138MOL0     C18502   3.831   4.521   8.590 -0.5025 -0.2303  0.7303
  138MOL0     O18503   3.733   4.603   8.640  0.3343 -0.1470  0.0660
  138MOL0     C18504   3.709   4.585   8.777  0.5698 -1.1689 -1.0068
  138MOL0     C18505   3.639   4.708   8.825  0.1056  0.0031 -0.0021
  138MOL0     C18506   3.494   4.716   8.776  0.7138  0.0592  0.4293
  138MOL0     C18507   3.443   4.846   8.697 -0.5206 -0.2225 -0.0381
  138MOL0     C18508   3.408   4.965   8.788 -0.9307  0.5343 -0.0064
  138MOL0     C18509   3.512   5.003   8.905  0.1390 -0.4327  0.9517
  138MOL0     C18510   3.463   5.118   9.002  0.6534 -0.1300 -0.0212
  138MOL0     C18511   3.349   5.081   9.091 -0.3123 -0.2084 -0.2174
  138MOL0     N18512   3.386   4.981   9.201  0.0021  0.2981  1.4077
  138MOL0     C18513   3.441   5.014   9.324 -0.9124  0.1142  0.1800
  138MOL0     C18514   3.452   4.897   9.386  0.0528  0.4140 -0.0251
  138MOL0     C18515   3.524   4.875   9.523  0.8236 -0.3674  0.4588
  138MOL0     C18516   3.675   4.855   9.489 -0.0800 -0.6430 -0.5085
  138MOL0     C18517   3.764   4.839   9.618  1.0150  0.2005 -0.7692
  138MOL0     C18518   3.908   4.809   9.577  0.2569  0.0080  0.5582
  138MOL0     O18519   3.978   4.789   9.700  0.2044 -0.3548  0.4589
  138MOL0     C18520   4.116   4.772   9.687  0.9896 -0.5996  0.0210
  138MOL0     C18521   4.188   4.794   9.571  0.4339  0.5304 -0.1273
  138MOL0     C18522   4.322   4.774   9.571 -0.2592  0.6181  0.1527
  138MOL0     C18523   4.387   4.796   9.434  0.1174 -0.1947  0.3630
  138MOL0     C18524   4.399   4.747   9.695  0.9905 -0.3161  0.1766
  138MOL0     C18525   4.546   4.759   9.716  0.4020 -0.3064 -1.0728
  138MOL0     O18526   4.582   4.795   9.846  0.1840  0.3155  0.3276
  138MOL0     C18527   4.712   4.818   9.883 -0.2256  0.0090 -0.1767
  138MOL0     C18528   4.748   4.766  10.006  0.3699  0.0816 -0.8350
  138MOL0     C18529   4.880   4.773  10.063  0.0842  1.0242 -0.4201
  138MOL0     C18530   4.981   4.837   9.994 -0.4982  1.7423  0.0206
  138MOL0     O18531   5.109   4.844  10.043 -0.0629 -0.3511  0.1746
  138MOL0     C18532   5.209   4.786   9.958 -0.2334  0.1671  1.1853
  138MOL0     C18533   5.313   4.889   9.910 -0.4894 -0.0765 -0.5449
  138MOL0     C18534   5.408   4.926  10.028 -0.1847  0.0185  0.3513
  138MOL0     C18535   5.499   5.047   9.983 -0.6123  0.3399 -0.6255
  138MOL0     C18536   5.558   5.120  10.108  0.5118  0.2216 -1.5521
  138MOL0     C18537   5.659   5.033  10.179  0.1553  0.3574 -1.0885
  138MOL0     C18538   5.697   5.105  10.317 -0.2652 -0.3460 -0.2805
  138MOL0     C18539   5.817   5.190  10.279  0.2389 -0.1112  1.2950
  138MOL0    Cl18540   5.979   5.102  10.274 -0.0202  0.0416  0.5370
  138MOL0     C18541   4.945   4.883   9.865  0.1215  0.3822 -0.0098
  138MOL0     C18542   4.820   4.873   9.810 -0.1418 -0.3215 -0.4076
  138MOL0     O18543   4.626   4.738   9.627 -0.2026 -0.4976  0.2155
  138MOL0     C18544   4.314   4.724   9.811 -1.0510  0.2727  0.6295
  138MOL0     C18545   4.179   4.734   9.808  0.0617  0.2325 -0.3080
  138MOL0     N18546   3.398   4.791   9.317 -0.3731  0.1322 -0.1571
  138MOL0     N18547   3.365   4.844   9.200  0.1930 -0.2537  0.1969
  138MOL0     C18548   3.941   4.576   8.525 -0.8151  0.7498 -0.1612
  138MOL0     C18549   4.041   4.482   8.481  0.0798  0.0775 -1.2941
  138MOL0     C18550   4.267   4.138   8.323  0.2261  0.7334  0.2076
  138MOL0     C18551   4.362   4.140   8.216 -0.0403  0.0053  0.1279
  138MOL0     C18552   4.465   4.039   8.201  0.4524  0.3341  0.5184
  138MOL0     C18553   4.463   3.926   8.285  0.6700 -0.0019 -0.0731
  138MOL0     O18554   4.550   3.826   8.279  0.0701  0.2990  0.6072
  138MOL0     C18555   4.690   3.863   8.244 -0.5488 -0.1243 -0.6380
  138MOL0     C18556   4.772   3.740   8.191  0.3233 -0.7430  0.3743
  138MOL0     C18557   4.809   3.628   8.288  0.3039 -0.0538 -0.2409
  138MOL0     C18558   4.824   3.496   8.220  0.4406  0.5533 -0.0004
  138MOL0     C18559   4.937   3.505   8.130 -0.2606  0.6978  0.2099
  138MOL0     C18560   5.023   3.526   8.050  0.4617  0.3404  0.6595
  138MOL0     C18561   4.374   3.930   8.383  0.2633 -0.0200  0.0630
  138MOL0     C18562   4.280   4.032   8.411 -0.0713 -0.3469  0.8112
  138MOL0     H18563   3.915   4.188   8.592  1.1214 -2.4639 -1.9657
  138MOL0     H18564   3.753   4.347   8.683  1.9085 -2.1504  0.1813
  138MOL0     H18565   3.657   4.492   8.801 -2.6243  0.1617 -2.2451
  138MOL0     H18566   3.807   4.594   8.823  0.3357  2.5458 -0.9366
  138MOL0     H18567   3.635   4.713   8.934  0.2093  5.1350 -0.0126
  138MOL0     H18568   3.695   4.794   8.789  0.0815 -0.1996 -0.5429
  138MOL0     H18569   3.470   4.627   8.716 -0.0072  1.9322 -2.2353
  138MOL0     H18570   3.424   4.719   8.859 -0.2618  0.1447 -0.3736
  138MOL0     H18571   3.532   4.870   8.638  1.3557 -1.6339  2.0572
  138MOL0     H18572   3.357   4.821   8.634 -0.6324  0.5273 -0.1884
  138MOL0     H18573   3.382   5.049   8.723  1.5976  0.5243 -1.1629
  138MOL0     H18574   3.315   4.941   8.840 -0.6137  2.6493  1.7248
  138MOL0     H18575   3.548   4.917   8.961 -0.7492 -0.8373  0.9210
  138MOL0     H18576   3.605   5.033   8.857 -0.4984  1.9555  1.0998
  138MOL0     H18577   3.545   5.140   9.071 -0.6108 -2.1797  2.2786
  138MOL0     H18578   3.433   5.207   8.945  0.0973  0.8202  1.6967
  138MOL0     H18579   3.279   5.030   9.025  1.8781 -2.7403 -0.7554
  138MOL0     H18580   3.308   5.171   9.137  3.1100  0.4184  2.0572
  138MOL0     H18581   3.471   5.111   9.363 -1.0099 -0.4968  1.8877
  138MOL0     H18582   3.501   4.968   9.576 -1.3485 -0.7433  0.2569
  138MOL0     H18583   3.480   4.788   9.573  0.0385  1.1524  2.5686
  138MOL0     H18584   3.710   4.943   9.434 -1.4707 -0.5489 -1.2813
  138MOL0     H18585   3.684   4.766   9.426 -0.1732 -2.1807  1.5166
  138MOL0     H18586   3.730   4.762   9.688  0.4661  0.1002 -1.1464
  138MOL0     H18587   3.757   4.935   9.669  2.7226 -0.4988  0.9236
  138MOL0     H18588   3.951   4.898   9.530  0.6285 -0.6404 -0.3575
  138MOL0     H18589   3.906   4.716   9.519  0.7185 -0.2627  0.9654
  138MOL0     H18590   4.133   4.815   9.480 -2.1977  0.1656  1.2705
  138MOL0     H18591   4.315   4.808   9.353  0.3202 -1.7452 -0.0714
  138MOL0     H18592   4.462   4.876   9.435 -0.6602  0.6074 -1.4983
  138MOL0     H18593   4.440   4.707   9.400 -1.6782 -1.0183 -0.3998
  138MOL0     H18594   4.671   4.729  10.074  1.4898 -0.2309  0.2910
  138MOL0     H18595   4.895   4.726  10.160  0.6264 -1.0156 -1.4325
  138MOL0     H18596   5.252   4.703  10.014 -0.6750 -0.5396  0.5131
  138MOL0     H18597   5.162   4.750   9.866 -2.6398 -1.4861  2.9700
  138MOL0     H18598   5.385   4.853   9.836 -0.3110 -1.9372  0.4641
  138MOL0     H18599   5.256   4.974   9.872 -2.2123 -0.9070  0.0937
  138MOL0     H18600   5.471   4.843  10.060 -1.7686 -0.4382  2.5350
  138MOL0     H18601   5.347   4.953  10.115 -2.9924  1.3621 -1.8507
  138MOL0     H18602   5.584   5.018   9.921 -0.2509  2.0423 -0.9689
  138MOL0     H18603   5.436   5.120   9.931 -1.0198  0.5754  0.1659
  138MOL0     H18604   5.476   5.153  10.173  0.6933 -0.4951 -0.9471
  138MOL0     H18605   5.607   5.207  10.065 -2.7129  1.1180 -3.7442
  138MOL0     H18606   5.611   4.939  10.208  0.6872 -1.2287 -4.8310
  138MOL0     H18607   5.758   5.017  10.135  1.5197 -0.3383  1.9692
  138MOL0     H18608   5.720   5.032  10.395  1.7798  0.2691 -0.2595
  138MOL0     H18609   5.615   5.171  10.347  0.2942 -0.2351  1.0469
  138MOL0     H18610   5.826   5.279  10.341 -2.8707  1.7294 -0.6357
  138MOL0     H18611   5.807   5.238  10.181  0.7271 -0.3407  1.1280
  138MOL0     H18612   5.022   4.925   9.801 -0.2188  0.2538 -0.5153
  138MOL0     H18613   4.823   4.907   9.706  1.0368 -0.5252 -0.4534
  138MOL0     H18614   4.368   4.701   9.902  2.0051  3.2755 -0.2068
  138MOL0     H18615   4.113   4.720   9.893 -1.8489 -0.9409 -1.8870
  138MOL0     H18616   3.949   4.683   8.516 -0.5049  0.8429  1.0864
  138MOL0     H18617   4.128   4.524   8.432 -0.4717  2.9405 -0.0370
  138MOL0     H18618   4.385   4.237   8.174  2.1614 -0.7821 -0.6186
  138MOL0     H18619   4.538   4.051   8.121 -0.3308 -2.5631 -0.7458
  138MOL0     H18620   4.711   3.940   8.170 -0.4598  0.4934  0.0141
  138MOL0     H18621   4.737   3.915   8.329 -0.0782  0.8290 -1.4592
  138MOL0     H18622   4.854   3.788   8.137 -0.0820 -2.5769 -2.0417
  138MOL0     H18623   4.712   3.694   8.111 -2.0456  1.0799  1.0127
  138MOL0     H18624   4.721   3.615   8.352 -0.7068 -0.3173 -1.6299
  138MOL0     H18625   4.884   3.645   8.366 -2.5298 -2.0095  3.2362
  138MOL0     H18626   4.736   3.484   8.155  1.2852  0.5936 -1.1751
  138MOL0     H18627   4.846   3.420   8.295 -0.7237  1.0671  0.8947
  138MOL0     H18628   5.101   3.541   7.978 -0.3363 -0.5156 -0.4226
  138MOL0     H18629   4.362   3.838   8.439 -0.9043  0.6794  1.0346
  138MOL0     H18630   4.214   4.029   8.496 -2.9332 -1.9034 -1.2883
  139MOL0     O18631   7.125   8.782   3.887  0.0675  0.1650 -0.0060
  139MOL0     C18632   7.119   8.853   3.986  0.0449  0.2295  0.6778
  139MOL0     O18633   7.187   8.968   4.013  0.0387  0.7038  0.3844
  139MOL0     C18634   7.289   8.987   3.921  0.4345 -0.0227  0.4595
  139MOL0     C18635   7.427   8.977   3.960 -0.5825 -0.0401 -0.4181
  139MOL0     C18636   7.525   9.003   3.862 -0.4990  0.2142  0.4810
  139MOL0     C18637   7.497   9.051   3.737 -0.0105  0.4611 -0.2349
  139MOL0     O18638   7.610   9.097   3.665 -0.3009  0.0998 -0.0551
  139MOL0     C18639   7.590   9.096   3.520 -0.4193 -0.2988  0.5899
  139MOL0     C18640   7.564   8.971   3.427  0.0159 -0.8135 -0.9827
  139MOL0     C18641   7.599   8.983   3.281  0.4256  0.1867  0.4843
  139MOL0     C18642   7.746   8.956   3.246 -0.7712 -0.0975 -0.0235
  139MOL0     C18643   7.766   8.965   3.092 -0.1450  0.8248 -0.5470
  139MOL0     C18644   7.871   8.876   3.019  0.2853 -0.0554  1.0637
  139MOL0     C18645   8.016   8.890   3.063  0.0639 -0.5436 -0.0330
  139MOL0     C18646   8.074   9.029   3.047 -0.3914 -0.2663 -0.8573
  139MOL0     N18647   8.197   9.040   3.144  0.8405 -0.3073 -0.4406
  139MOL0     C18648   8.306   8.954   3.135  0.2288  0.3541 -0.7180
  139MOL0     C18649   8.385   8.983   3.237  0.5286  0.4532 -1.2967
  139MOL0     C18650   8.501   8.908   3.280 -0.1761 -1.0706 -0.5299
  139MOL0     C18651   8.615   8.939   3.189 -0.1265 -0.5432  0.0746
  139MOL0     C18652   8.724   8.836   3.179 -0.8784 -0.7730  0.4966
  139MOL0     C18653   8.796   8.818   3.312 -0.1459  1.6750  0.4651
  139MOL0     O18654   8.805   8.677   3.351  0.4680 -0.1837  0.4553
  139MOL0     C18655   8.928   8.617   3.347  0.0881 -0.0169  0.8776
  139MOL0     C18656   9.043   8.685   3.374 -0.8076  0.4256 -0.5525
  139MOL0     C18657   9.165   8.611   3.386  0.6853 -0.0127 -0.5206
  139MOL0     C18658   9.294   8.684   3.401  1.3068  0.3192 -0.7766
  139MOL0     C18659   9.155   8.471   3.387 -0.0799  0.6734  0.3682
  139MOL0     C18660   9.258   8.387   3.447  0.1783 -0.2208  0.2507
  139MOL0     O18661   9.262   8.272   3.381  0.8756  0.9097 -0.6453
  139MOL0     C18662   9.362   8.180   3.412  0.1611  0.5136  0.3784
  139MOL0     C18663   9.495   8.217   3.382  0.6975 -0.1318 -0.5615
  139MOL0     C18664   9.600   8.124   3.399  0.2370  0.8557  0.4105
  139MOL0     C18665   9.570   7.993   3.440  0.0291  0.3440 -0.0590
  139MOL0     O18666   9.681   7.903   3.449  0.2276  0.1889 -0.8524
  139MOL0     C18667   9.758   7.881   3.329  0.3218  0.1978 -0.0741
  139MOL0     C18668   9.901   7.932   3.369  0.0562  0.3306  0.4492
  139MOL0     C18669   9.981   7.878   3.485 -0.7114  0.3357 -0.0298
  139MOL0     C18670  10.032   7.732   3.441 -0.3623 -0.0654  0.3781
  139MOL0     C18671  10.158   7.731   3.364 -0.4929  0.5794 -0.7534
  139MOL0     C18672  10.183   7.597   3.306 -0.9423  0.1804  0.1931
  139MOL0     C18673  10.335   7.568   3.288  0.2785 -0.2154 -0.7204
  139MOL0     C18674  10.352   7.477   3.163  0.7494  0.7846 -0.0716
  139MOL0    Cl18675  10.316   7.317   3.213 -0.2822 -0.2746  0.3014
  139MOL0     C18676   9.439   7.956   3.477 -0.3692  0.2215  0.8446
  139MOL0     C18677   9.338   8.049   3.451  0.7101 -0.2297  0.2893
  139MOL0     O18678   9.333   8.417   3.542  0.3656  0.1866  0.4028
  139MOL0     C18679   9.035   8.413   3.363  0.9762 -0.0477  1.1316
  139MOL0     C18680   8.918   8.479   3.340  0.2407  0.1285  0.4884
  139MOL0     N18681   8.330   9.093   3.305  0.0718  0.1372  0.2017
  139MOL0     N18682   8.216   9.120   3.253  0.3357  0.2136  0.1017
  139MOL0     C18683   7.361   9.052   3.693 -0.0466  0.3939  0.1936
  139MOL0     C18684   7.257   9.019   3.788  1.2402 -0.4719 -0.1985
  139MOL0     C18685   7.047   8.801   4.108 -0.3683 -0.9920 -0.9856
  139MOL0     C18686   6.915   8.758   4.118 -0.5878 -0.1260  0.4818
  139MOL0     C18687   6.854   8.728   4.241  1.0534  0.1444 -0.0435
  139MOL0     C18688   6.917   8.756   4.358  0.4730  0.1095  1.1203
  139MOL0     O18689   6.847   8.749   4.470 -0.5058 -0.5899 -0.1129
  139MOL0     C18690   6.795   8.879   4.508  1.2250  1.1319 -0.0387
  139MOL0     C18691   6.726   8.854   4.644  0.2921 -0.4005 -0.1225
  139MOL0     C18692   6.572   8.883   4.645 -0.6429  0.4507 -1.0349
  139MOL0     C18693   6.479   8.790   4.569 -0.5490 -0.0954 -1.1432
  139MOL0     C18694   6.480   8.794   4.422  1.0981  1.2046 -0.1711
  139MOL0     C18695   6.476   8.805   4.308 -0.0782  0.8126  0.8304
  139MOL0     C18696   7.055   8.783   4.347 -0.1882 -0.9160 -0.0831
  139MOL0     C18697   7.118   8.813   4.228  0.2113  0.4384  0.6630
  139MOL0     H18698   7.466   8.964   4.060  1.0179  4.4111 -0.2405
  139MOL0     H18699   7.628   9.011   3.895 -0.3587 -2.2099  0.8057
  139MOL0     H18700   7.548   9.188   3.477 -0.3003 -0.4063  0.2398
  139MOL0     H18701   7.694   9.125   3.501 -1.6382  3.0814 -1.9018
  139MOL0     H18702   7.628   8.894   3.472  0.0933 -0.4492 -0.4523
  139MOL0     H18703   7.462   8.934   3.442 -0.0687  0.0911  0.9983
  139MOL0     H18704   7.539   8.906   3.232 -0.9240  1.1900  0.4948
  139MOL0     H18705   7.559   9.077   3.241 -2.0641 -1.8490 -2.2378
  139MOL0     H18706   7.808   9.034   3.292 -1.4567 -1.0240  2.6523
  139MOL0     H18707   7.783   8.859   3.279  2.0927  0.7477 -0.4466
  139MOL0     H18708   7.672   8.926   3.053 -0.7245  1.3095  0.3276
  139MOL0     H18709   7.774   9.070   3.065  1.2927  0.9145  0.1284
  139MOL0     H18710   7.845   8.771   3.035 -2.2592  0.1386 -1.0913
  139MOL0     H18711   7.856   8.908   2.916  0.7659 -0.4510  0.8671
  139MOL0     H18712   8.021   8.846   3.163  5.4415 -2.0738 -0.6800
  139MOL0     H18713   8.081   8.826   3.004  2.9599  1.3828  0.8649
  139MOL0     H18714   8.004   9.109   3.075  0.5704  0.4069 -0.3170
  139MOL0     H18715   8.112   9.051   2.947  1.4000 -0.6737 -0.2998
  139MOL0     H18716   8.322   8.872   3.065 -0.3453 -0.7395  0.3826
  139MOL0     H18717   8.538   8.945   3.376  0.5553  0.7546 -1.4556
  139MOL0     H18718   8.475   8.803   3.271 -1.7785 -0.6476 -1.3306
  139MOL0     H18719   8.660   9.037   3.204  0.7449 -0.4634 -2.5381
  139MOL0     H18720   8.589   8.940   3.083 -0.2183  0.6104  0.0955
  139MOL0     H18721   8.803   8.868   3.110  1.1478 -3.7105  1.2496
  139MOL0     H18722   8.671   8.747   3.143 -4.1916 -0.4387  3.9609
  139MOL0     H18723   8.732   8.854   3.393 -2.9501 -0.4088 -0.6561
  139MOL0     H18724   8.889   8.871   3.291 -0.2159  0.8397 -2.4184
  139MOL0     H18725   9.037   8.786   3.414  1.1894  0.0625  0.7771
  139MOL0     H18726   9.295   8.783   3.353  1.2954  0.3493 -0.7142
  139MOL0     H18727   9.323   8.698   3.505  4.2728 -2.7548 -1.0170
  139MOL0     H18728   9.365   8.625   3.342  0.8687  0.9754 -2.0183
  139MOL0     H18729   9.525   8.320   3.364  1.1229  0.1291  1.3537
  139MOL0     H18730   9.702   8.154   3.380  0.9008 -1.0087  0.8253
  139MOL0     H18731   9.772   7.774   3.308  1.6849 -0.1853  2.3795
  139MOL0     H18732   9.727   7.931   3.237  0.1460 -0.8267 -0.5904
  139MOL0     H18733   9.969   7.919   3.284  1.1637  1.0200  1.2095
  139MOL0     H18734   9.905   8.041   3.379  3.1510  0.7429 -2.8236
  139MOL0     H18735   9.925   7.872   3.579 -0.3856  1.4710  0.2527
  139MOL0     H18736  10.065   7.943   3.510 -1.0588  0.2442  1.4943
  139MOL0     H18737  10.048   7.663   3.524 -0.8844 -1.1514 -0.3906
  139MOL0     H18738   9.947   7.688   3.387  0.1726  0.1023 -0.6209
  139MOL0     H18739  10.243   7.759   3.427  0.5186  2.1753 -2.7114
  139MOL0     H18740  10.142   7.796   3.277 -2.7707  1.1916  0.0345
  139MOL0     H18741  10.142   7.516   3.367 -3.8811 -0.3169 -2.2064
  139MOL0     H18742  10.144   7.587   3.205  1.5698 -2.1479 -0.6744
  139MOL0     H18743  10.383   7.533   3.380 -0.5768  0.6510  0.0782
  139MOL0     H18744  10.384   7.665   3.273  0.7335  0.3378  3.3083
  139MOL0     H18745  10.453   7.494   3.125 -0.3288  1.4915 -2.9390
  139MOL0     H18746  10.295   7.502   3.072 -1.3063 -1.7307  0.4055
  139MOL0     H18747   9.435   7.853   3.513  2.2939 -0.0315  0.5744
  139MOL0     H18748   9.238   8.010   3.459  0.1162  1.3167  0.7883
  139MOL0     H18749   9.024   8.305   3.356 -2.4069  0.1085  1.9565
  139MOL0     H18750   8.835   8.414   3.313  0.3938  1.0211 -2.4262
  139MOL0     H18751   7.335   9.086   3.593  0.9533  2.4846  0.6150
  139MOL0     H18752   7.151   9.031   3.766  1.0116 -0.5230  0.8420
  139MOL0     H18753   6.866   8.745   4.022 -0.4800 -1.4825  0.5954
  139MOL0     H18754   6.754   8.689   4.227 -0.3903  3.5741 -0.4050
  139MOL0     H18755   6.880   8.946   4.520  2.2971 -0.2740  0.4631
  139MOL0     H18756   6.719   8.915   4.438  0.2162  0.6051  0.7549
  139MOL0     H18757   6.769   8.921   4.719  0.7271 -1.4695  0.6219
  139MOL0     H18758   6.755   8.753   4.675 -1.5201 -1.7341 -2.4451
  139MOL0     H18759   6.552   8.987   4.621 -0.2971  0.6904 -0.3381
  139MOL0     H18760   6.543   8.877   4.751 -1.3764  0.4126 -1.2325
  139MOL0     H18761   6.377   8.808   4.604  0.7963 -0.5652  3.8936
  139MOL0     H18762   6.513   8.690   4.598  0.6990 -0.1607 -2.6897
  139MOL0     H18763   6.470   8.802   4.201 -2.3474 -0.1859  0.9167
  139MOL0     H18764   7.116   8.804   4.434 -0.4257  1.9436 -0.4839
  139MOL0     H18765   7.217   8.854   4.215  0.5747 -0.3010  1.0113
  140MOL0     O18766   3.489   8.976   2.775 -0.0083 -0.3932 -0.9360
  140MOL0     C18767   3.583   9.052   2.752 -0.1347  0.5199 -0.1381
  140MOL0     O18768   3.712   9.009   2.708 -0.0387 -0.0196 -1.3274
  140MOL0     C18769   3.721   8.884   2.651 -0.1485 -0.1935  0.2133
  140MOL0     C18770   3.810   8.791   2.711  0.3899 -0.0995  0.1139
  140MOL0     C18771   3.815   8.659   2.657  0.0757  0.5491  0.0345
  140MOL0     C18772   3.751   8.627   2.529  0.0133  0.2701 -0.4931
  140MOL0     O18773   3.764   8.506   2.472 -0.5317  0.5895  0.1389
  140MOL0     C18774   3.643   8.432   2.472  0.1428 -0.0534 -0.2185
  140MOL0     C18775   3.646   8.375   2.624 -1.0224 -0.9046  0.2410
  140MOL0     C18776   3.519   8.300   2.639 -0.6364 -0.0575 -0.1032
  140MOL0     C18777   3.501   8.182   2.548  0.0033  0.4073  0.2407
  140MOL0     C18778   3.362   8.114   2.562 -0.0733  0.0321 -0.2168
  140MOL0     C18779   3.351   7.971   2.488  0.1447 -0.1043  0.2012
  140MOL0     C18780   3.208   7.947   2.454  0.5970 -0.2306 -0.3573
  140MOL0     C18781   3.104   7.965   2.569 -0.2656  1.0434  0.0763
  140MOL0     N18782   2.972   7.910   2.528 -0.2102  1.2141 -0.2257
  140MOL0     C18783   2.927   7.851   2.416 -0.7972  0.3963  0.0044
  140MOL0     C18784   2.795   7.839   2.425  0.4041  0.5073  1.2312
  140MOL0     C18785   2.712   7.795   2.302 -0.4300 -0.6350  0.1750
  140MOL0     C18786   2.717   7.902   2.187  0.1310  0.0304 -0.5849
  140MOL0     C18787   2.653   8.036   2.226 -0.0681 -0.3117 -0.0354
  140MOL0     C18788   2.662   8.135   2.098 -0.6395 -0.1484 -0.0974
  140MOL0     O18789   2.798   8.153   2.058 -0.6073  0.1949  0.3434
  140MOL0     C18790   2.879   8.242   2.135 -0.5790  0.4419  0.1261
  140MOL0     C18791   3.018   8.204   2.129  0.4795 -0.5009  0.4286
  140MOL0     C18792   3.116   8.287   2.197 -0.1341  0.0573 -0.5267
  140MOL0     C18793   3.263   8.254   2.176 -0.1180 -0.0222 -0.3948
  140MOL0     C18794   3.069   8.386   2.293 -0.9215  0.1733 -0.2319
  140MOL0     C18795   3.168   8.450   2.390  0.8587 -0.2277  0.2037
  140MOL0     O18796   3.132   8.463   2.519 -0.2837 -0.7973  0.3064
  140MOL0     C18797   3.217   8.512   2.617  0.0550  0.8225 -0.9851
  140MOL0     C18798   3.214   8.433   2.739 -0.2124 -0.5913  0.5338
  140MOL0     C18799   3.295   8.466   2.855  0.4303  0.7997  0.0506
  140MOL0     C18800   3.380   8.575   2.844  0.0420 -0.0056 -0.4295
  140MOL0     O18801   3.437   8.606   2.966 -0.2629 -0.0037  0.3319
  140MOL0     C18802   3.545   8.694   2.970  0.1065 -0.8651  0.8417
  140MOL0     C18803   3.593   8.699   3.115  0.5363 -0.4137 -0.9931
  140MOL0     C18804   3.693   8.590   3.149  0.2492  0.0117 -0.2601
  140MOL0     C18805   3.817   8.594   3.063  1.3643 -0.3855  0.0595
  140MOL0     C18806   3.941   8.536   3.131 -0.0965 -1.2520 -0.8271
  140MOL0     C18807   4.071   8.590   3.060 -0.2765 -0.0135 -0.3657
  140MOL0     C18808   4.195   8.520   3.121  0.0403 -0.2064  0.7177
  140MOL0     C18809   4.336   8.586   3.097  0.6303 -0.0397  0.3244
  140MOL0    Cl18810   4.353   8.631   2.921  0.1545 -0.4013  0.1574
  140MOL0     C18811   3.377   8.657   2.732 -0.7031 -0.4629 -0.3374
  140MOL0     C18812   3.301   8.628   2.616 -0.4873 -0.1275 -0.5632
  140MOL0     O18813   3.274   8.489   2.344 -0.0560  0.9308  0.3492
  140MOL0     C18814   2.929   8.408   2.317 -0.0817 -0.9710  0.2845
  140MOL0     C18815   2.834   8.333   2.237  0.0137 -0.9479 -0.2636
  140MOL0     N18816   2.753   7.876   2.553  0.5459  0.3304 -0.1604
  140MOL0     N18817   2.861   7.920   2.606 -0.0483 -0.4072 -0.4346
  140MOL0     C18818   3.666   8.725   2.471  0.2390  0.5919  0.0558
  140MOL0     C18819   3.657   8.859   2.528  0.4160  0.7114  0.0704
  140MOL0     C18820   3.572   9.195   2.789 -0.4517 -0.1264 -0.8278
  140MOL0     C18821   3.447   9.260   2.810 -0.6490  0.0048 -0.2771
  140MOL0     C18822   3.435   9.398   2.824 -0.2380 -0.5468  0.3833
  140MOL0     C18823   3.547   9.477   2.837  0.4074  0.0361  0.8366
  140MOL0     O18824   3.521   9.609   2.860  0.1291  0.5580 -0.1293
  140MOL0     C18825   3.635   9.688   2.896  0.2681 -0.3007 -0.5974
  140MOL0     C18826   3.591   9.834   2.912  0.3353  0.2378 -0.2574
  140MOL0     C18827   3.509   9.895   2.802 -0.2852  0.0081  0.5269
  140MOL0     C18828   3.513  10.046   2.811 -0.4258  0.1726 -0.5542
  140MOL0     C18829   3.422  10.103   2.716  1.0915 -0.1496  0.8312
  140MOL0     C18830   3.350  10.161   2.639  0.1293 -0.0532 -0.2465
  140MOL0     C18831   3.671   9.416   2.821 -0.4656 -0.1620 -0.4538
  140MOL0     C18832   3.685   9.275   2.797  0.9062 -0.3987  0.3397
  140MOL0     H18833   3.853   8.810   2.809 -0.6993 -0.0675  0.5985
  140MOL0     H18834   3.902   8.615   2.703  1.5440  2.1842 -1.0757
  140MOL0     H18835   3.546   8.476   2.446  0.5929  1.4228  0.4684
  140MOL0     H18836   3.662   8.354   2.397 -0.5979  0.2045 -0.6878
  140MOL0     H18837   3.730   8.306   2.630 -1.3630 -1.3746 -0.2141
  140MOL0     H18838   3.657   8.450   2.703  2.4463 -2.0810  1.0418
  140MOL0     H18839   3.519   8.260   2.741  2.1281 -2.4289 -0.9220
  140MOL0     H18840   3.438   8.371   2.619 -1.1275 -1.0190 -1.7441
  140MOL0     H18841   3.524   8.205   2.444 -0.8087 -0.9103 -0.2516
  140MOL0     H18842   3.562   8.100   2.587 -1.1377 -0.2945  0.5897
  140MOL0     H18843   3.336   8.110   2.669 -1.6923  0.1579 -0.5798
  140MOL0     H18844   3.289   8.187   2.527  0.2775  0.7583  0.5476
  140MOL0     H18845   3.395   7.971   2.388  1.3438 -0.3706  0.7115
  140MOL0     H18846   3.391   7.887   2.545 -1.1377  0.1155  1.4868
  140MOL0     H18847   3.182   8.008   2.367 -0.6795 -0.6136 -0.2534
  140MOL0     H18848   3.218   7.852   2.402  0.2229  0.5312 -1.8802
  140MOL0     H18849   3.081   8.067   2.600 -0.8182  0.9350  0.0391
  140MOL0     H18850   3.128   7.903   2.656 -3.1863 -1.0915 -0.4759
  140MOL0     H18851   2.975   7.852   2.319 -2.8983  5.8375 -1.3007
  140MOL0     H18852   2.751   7.706   2.252  1.4952 -0.5865  1.4556
  140MOL0     H18853   2.607   7.776   2.326 -1.5592  2.7436 -1.5331
  140MOL0     H18854   2.656   7.858   2.108 -3.4161  0.0205  1.9484
  140MOL0     H18855   2.816   7.919   2.143  0.6094 -1.7439 -0.2812
  140MOL0     H18856   2.704   8.097   2.301 -0.3754 -0.5847  0.3966
  140MOL0     H18857   2.551   8.020   2.261  0.6898 -0.3611  2.3179
  140MOL0     H18858   2.624   8.229   2.140  4.1797  1.5232  1.2731
  140MOL0     H18859   2.594   8.095   2.023 -3.6735  2.9365  0.7536
  140MOL0     H18860   3.055   8.130   2.059  4.2139  0.6412  0.9522
  140MOL0     H18861   3.313   8.341   2.132 -3.1060  0.4542 -3.2526
  140MOL0     H18862   3.311   8.219   2.268  0.6864 -1.4168 -1.3153
  140MOL0     H18863   3.275   8.167   2.111  2.5836  0.2329 -0.3317
  140MOL0     H18864   3.137   8.357   2.743  0.0455 -0.9446 -0.6467
  140MOL0     H18865   3.290   8.408   2.947 -1.9501  3.2486  1.6303
  140MOL0     H18866   3.629   8.671   2.903  1.2380  3.9774  0.1870
  140MOL0     H18867   3.515   8.798   2.953 -0.5096 -0.8888  1.7399
  140MOL0     H18868   3.635   8.798   3.135  0.3150 -0.4143 -0.5277
  140MOL0     H18869   3.500   8.684   3.169 -0.2650 -1.1239 -2.5001
  140MOL0     H18870   3.650   8.491   3.136 -0.1273 -0.1268  1.7334
  140MOL0     H18871   3.717   8.597   3.255 -1.3065 -1.8245  0.2635
  140MOL0     H18872   3.799   8.547   2.966 -2.2291 -1.9565  1.3125
  140MOL0     H18873   3.858   8.695   3.051  2.3143 -0.1596  3.8845
  140MOL0     H18874   3.947   8.427   3.138  1.4453 -1.1295  5.8657
  140MOL0     H18875   3.943   8.569   3.235 -4.0391 -1.6005 -0.5023
  140MOL0     H18876   4.067   8.557   2.956 -1.8912 -3.9042  0.7247
  140MOL0     H18877   4.084   8.697   3.079 -1.5172  0.1271 -0.1904
  140MOL0     H18878   4.206   8.423   3.071  2.9975  1.1461 -1.5734
  140MOL0     H18879   4.194   8.507   3.230  0.9711  3.7447  1.3253
  140MOL0     H18880   4.416   8.515   3.120  2.6522  1.8863 -0.4036
  140MOL0     H18881   4.349   8.671   3.165 -0.5755  1.0242 -0.7248
  140MOL0     H18882   3.451   8.732   2.708 -0.1972 -1.1355 -0.9088
  140MOL0     H18883   3.326   8.680   2.524 -0.5618 -0.0049 -0.5142
  140MOL0     H18884   2.890   8.476   2.392 -0.5787  0.5820 -1.2958
  140MOL0     H18885   2.727   8.346   2.248 -0.0689 -1.2576 -0.6921
  140MOL0     H18886   3.620   8.715   2.374  2.3365 -1.2595 -0.8439
  140MOL0     H18887   3.608   8.940   2.476 -0.7162 -0.2341 -0.3652
  140MOL0     H18888   3.352   9.206   2.813 -0.5221 -0.2228  2.6324
  140MOL0     H18889   3.336   9.439   2.844 -0.6356 -0.4184 -1.5897
  140MOL0     H18890   3.673   9.651   2.992 -1.4746 -2.5910 -0.7179
  140MOL0     H18891   3.713   9.686   2.820 -0.8574  0.4584 -1.8059
  140MOL0     H18892   3.682   9.895   2.915  1.8134 -1.8204 -0.9297
  140MOL0     H18893   3.534   9.840   3.005 -2.2203 -1.8502 -1.5476
  140MOL0     H18894   3.408   9.854   2.811 -0.4306  0.4359  0.8794
  140MOL0     H18895   3.535   9.858   2.703  0.2118 -0.0542  0.6801
  140MOL0     H18896   3.619  10.075   2.803 -0.4482  0.3665 -0.1794
  140MOL0     H18897   3.480  10.070   2.913  0.5255  0.2644 -0.2566
  140MOL0     H18898   3.288  10.219   2.574 -0.2622 -1.7545 -1.4472
  140MOL0     H18899   3.763   9.472   2.829  0.3028 -1.2584 -1.2145
  140MOL0     H18900   3.784   9.230   2.792  1.3472  0.5530  0.1925
  141MOL0     O18901   6.107   7.266   1.725  0.3254 -0.6733 -0.5487
  141MOL0     C18902   6.175   7.320   1.812  0.6824  0.1628 -0.1940
  141MOL0     O18903   6.307   7.351   1.801 -1.1621  0.2501  0.5920
  141MOL0     C18904   6.376   7.273   1.708 -0.5237 -0.6819 -0.1039
  141MOL0     C18905   6.437   7.151   1.739 -0.9994 -0.2669 -0.8474
  141MOL0     C18906   6.505   7.067   1.650  0.6878 -0.1928  0.1182
  141MOL0     C18907   6.508   7.105   1.520 -0.5617 -0.4141 -0.4139
  141MOL0     O18908   6.573   7.030   1.433 -0.1184 -0.4122 -0.5896
  141MOL0     C18909   6.545   6.885   1.430  0.8674  0.2571 -0.1048
  141MOL0     C18910   6.612   6.813   1.324 -1.0058 -0.1146 -0.4799
  141MOL0     C18911   6.762   6.830   1.327  0.2730  0.2578 -0.8002
  141MOL0     C18912   6.817   6.778   1.195 -1.0000  0.0945 -0.5298
  141MOL0     C18913   6.968   6.794   1.179 -0.1246  0.2065 -0.6495
  141MOL0     C18914   7.002   6.713   1.047 -0.4652  0.0846 -0.8697
  141MOL0     C18915   7.137   6.722   0.986  0.0366 -0.0034  1.1272
  141MOL0     C18916   7.175   6.864   0.952  0.6364 -0.2661 -0.0735
  141MOL0     N18917   7.079   6.912   0.852 -0.3719 -0.2259  0.2195
  141MOL0     C18918   7.106   6.901   0.718  0.0174 -0.6046 -1.0091
  141MOL0     C18919   7.014   6.980   0.660  0.0906  0.4427  0.4984
  141MOL0     C18920   7.013   7.005   0.513  0.1539  0.1239 -0.5898
  141MOL0     C18921   6.909   6.914   0.438  0.5880 -0.3697  1.0239
  141MOL0     C18922   6.766   6.943   0.467  0.1587 -0.0197  0.1350
  141MOL0     C18923   6.666   6.852   0.406 -0.9791 -0.1281  0.2591
  141MOL0     O18924   6.539   6.847   0.467  0.2256  0.2063  0.2361
  141MOL0     C18925   6.454   6.957   0.456 -0.0186 -0.2320  0.6451
  141MOL0     C18926   6.337   6.952   0.535 -0.2618 -0.5833 -0.1018
  141MOL0     C18927   6.247   7.060   0.531  0.3451 -0.7097  0.0839
  141MOL0     C18928   6.131   7.053   0.629 -0.2665 -0.1094 -1.0172
  141MOL0     C18929   6.267   7.172   0.442 -0.1376 -0.3912 -0.1521
  141MOL0     C18930   6.176   7.288   0.458 -0.7386  0.3860 -0.8817
  141MOL0     O18931   6.235   7.409   0.444 -0.6004 -0.3737  0.7138
  141MOL0     C18932   6.182   7.515   0.507  0.5658  0.0652  0.9539
  141MOL0     C18933   6.072   7.523   0.597  1.1092  0.9212 -0.5238
  141MOL0     C18934   6.021   7.637   0.658  0.8430 -0.5562  0.5062
  141MOL0     C18935   6.098   7.754   0.652  0.3888  0.2812  0.1328
  141MOL0     O18936   6.050   7.868   0.692  0.2089  0.0025  0.7053
  141MOL0     C18937   6.022   7.902   0.833  0.1469  0.1279  0.2390
  141MOL0     C18938   6.154   7.962   0.897  1.0886  0.2084  0.4165
  141MOL0     C18939   6.191   8.103   0.852  0.1677 -0.5207  0.3532
  141MOL0     C18940   6.072   8.201   0.830  0.3972  0.4383  0.8272
  141MOL0     C18941   5.991   8.218   0.962 -0.7257 -0.9590 -0.2579
  141MOL0     C18942   5.953   8.363   0.985 -0.0135  0.2930  0.2431
  141MOL0     C18943   5.890   8.369   1.125 -0.5140  0.6078  0.0269
  141MOL0     C18944   5.766   8.460   1.121 -0.7171  0.4559 -0.4928
  141MOL0    Cl18945   5.722   8.516   1.283  0.2018 -0.0075  0.1687
  141MOL0     C18946   6.216   7.749   0.579  0.3934  0.2750 -1.3073
  141MOL0     C18947   6.242   7.638   0.497  0.8326  0.2134  0.1229
  141MOL0     O18948   6.054   7.268   0.464 -0.3349 -0.5548  0.2924
  141MOL0     C18949   6.375   7.181   0.362 -1.1597  0.1183 -0.1561
  141MOL0     C18950   6.469   7.075   0.374 -0.5157  1.7625  0.0102
  141MOL0     N18951   6.934   7.041   0.752 -0.2435  0.0105 -0.5870
  141MOL0     N18952   6.974   7.004   0.870  0.5500  0.3201  0.4366
  141MOL0     C18953   6.451   7.231   1.479 -0.0260  0.1510  0.2839
  141MOL0     C18954   6.383   7.307   1.575 -0.3647 -1.2019 -0.0827
  141MOL0     C18955   6.104   7.359   1.938  0.1609  0.4218  0.0412
  141MOL0     C18956   5.971   7.311   1.963 -0.5979  0.4803  0.7425
  141MOL0     C18957   5.907   7.357   2.076  0.3170  0.2058  0.1739
  141MOL0     C18958   5.956   7.456   2.164  0.0251  0.4594  1.3267
  141MOL0     O18959   5.879   7.526   2.258 -0.1278 -0.6890 -0.8528
  141MOL0     C18960   5.740   7.505   2.260 -0.0395 -0.2895  0.0754
  141MOL0     C18961   5.704   7.394   2.357 -0.6090 -0.0258  0.5853
  141MOL0     C18962   5.698   7.435   2.505 -0.0130 -0.6329 -0.2220
  141MOL0     C18963   5.658   7.323   2.605 -0.3075  0.3978  0.4974
  141MOL0     C18964   5.762   7.214   2.590  0.1277  0.4313  0.6494
  141MOL0     C18965   5.859   7.143   2.559  0.5580  0.0349  0.0889
  141MOL0     C18966   6.089   7.486   2.149  0.4847  0.0399  0.3176
  141MOL0     C18967   6.164   7.424   2.048  0.4158 -0.3909 -0.1032
  141MOL0     H18968   6.439   7.128   1.846  1.3150 -2.0435 -1.1879
  141MOL0     H18969   6.551   6.972   1.675  1.5557 -0.9123 -3.6105
  141MOL0     H18970   6.574   6.825   1.517  0.3076  0.1022 -0.0180
  141MOL0     H18971   6.438   6.869   1.414  1.2416 -2.2519 -0.5006
  141MOL0     H18972   6.585   6.707   1.328 -4.3462  0.6725  0.4343
  141MOL0     H18973   6.579   6.847   1.226  0.5050 -0.7454 -1.2492
  141MOL0     H18974   6.795   6.934   1.336 -0.7967  0.5325  0.1827
  141MOL0     H18975   6.805   6.772   1.410 -2.5564 -0.6919  0.1149
  141MOL0     H18976   6.792   6.671   1.196  0.1214 -0.2226  2.1544
  141MOL0     H18977   6.771   6.833   1.113 -0.6900  2.1007  0.5919
  141MOL0     H18978   6.983   6.902   1.178 -1.0266  0.3430 -1.7675
  141MOL0     H18979   7.015   6.744   1.264  0.3975  0.9758 -0.4786
  141MOL0     H18980   6.985   6.608   1.073 -4.2294  1.0997  1.5015
  141MOL0     H18981   6.928   6.740   0.971  0.7761  0.7532 -1.9020
  141MOL0     H18982   7.207   6.679   1.058  0.6319 -0.9626  0.0060
  141MOL0     H18983   7.145   6.661   0.895  0.3529  0.8389  0.5850
  141MOL0     H18984   7.277   6.858   0.913  0.5110  1.6855 -0.8294
  141MOL0     H18985   7.183   6.919   1.046 -0.6638 -3.1679  1.8998
  141MOL0     H18986   7.184   6.847   0.665  0.0672  0.3401 -1.9303
  141MOL0     H18987   6.991   7.112   0.510  1.0479  0.3434  0.1424
  141MOL0     H18988   7.110   6.986   0.466 -0.1253 -0.9559 -0.7458
  141MOL0     H18989   6.932   6.814   0.477 -1.7845 -0.5999  1.9890
  141MOL0     H18990   6.913   6.906   0.329 -2.2361  0.8206  0.7615
  141MOL0     H18991   6.759   7.047   0.431 -0.8729 -0.4216 -0.9041
  141MOL0     H18992   6.758   6.945   0.576 -2.2333  0.4873  0.0188
  141MOL0     H18993   6.707   6.750   0.399 -0.9638 -0.0127 -2.3723
  141MOL0     H18994   6.676   6.885   0.303  2.0128  0.0674  0.5432
  141MOL0     H18995   6.314   6.869   0.600 -3.0643 -0.8337 -1.2787
  141MOL0     H18996   6.084   7.146   0.662  0.1095 -0.0196 -0.7288
  141MOL0     H18997   6.052   6.994   0.581 -0.3006  1.9465 -3.7178
  141MOL0     H18998   6.163   7.009   0.724 -1.8744 -0.6033 -0.6698
  141MOL0     H18999   6.006   7.439   0.614 -0.4854  1.9629 -1.3732
  141MOL0     H19000   5.933   7.633   0.721  0.8888 -0.5464  0.5711
  141MOL0     H19001   5.934   7.966   0.841  0.8018  1.2033 -0.8724
  141MOL0     H19002   5.990   7.808   0.878  0.0690 -0.5968 -1.2969
  141MOL0     H19003   6.125   7.976   1.001 -2.8867  1.9206 -0.7439
  141MOL0     H19004   6.235   7.889   0.884 -0.1285 -1.5020  1.9989
  141MOL0     H19005   6.242   8.118   0.756  0.3452  0.9518  0.6435
  141MOL0     H19006   6.256   8.139   0.932 -0.5197  0.6026  0.4212
  141MOL0     H19007   6.108   8.296   0.790 -1.6256  1.2646  0.8747
  141MOL0     H19008   6.002   8.158   0.757  0.9500 -2.5890  1.9475
  141MOL0     H19009   6.047   8.182   1.049  0.2021  1.0772  0.0449
  141MOL0     H19010   5.902   8.156   0.959  1.1258 -3.9110  0.9639
  141MOL0     H19011   6.035   8.436   0.975 -0.9059  1.7561  2.6823
  141MOL0     H19012   5.882   8.394   0.908 -0.7033  0.8143  1.0633
  141MOL0     H19013   5.965   8.414   1.190 -0.4001 -0.0357  0.3468
  141MOL0     H19014   5.863   8.274   1.172  1.3043  1.2739  2.6221
  141MOL0     H19015   5.679   8.407   1.080 -0.1859 -1.5941  0.9014
  141MOL0     H19016   5.788   8.541   1.050 -0.9195 -0.9007 -2.1886
  141MOL0     H19017   6.276   7.837   0.559 -0.2041  0.9047 -0.3825
  141MOL0     H19018   6.328   7.657   0.433  0.5341 -0.0529 -0.3651
  141MOL0     H19019   6.401   7.269   0.304  2.6634  1.1126  2.6194
  141MOL0     H19020   6.557   7.082   0.311  0.6842  1.3744  1.5659
  141MOL0     H19021   6.462   7.260   1.375  0.3302  1.0361  0.5601
  141MOL0     H19022   6.326   7.395   1.546  0.1645 -1.1163 -0.8932
  141MOL0     H19023   5.926   7.255   1.881  2.5248  0.5147 -1.1696
  141MOL0     H19024   5.806   7.322   2.090  0.4508  0.0325  0.7419
  141MOL0     H19025   5.690   7.599   2.286 -0.7428 -0.9558  1.2248
  141MOL0     H19026   5.693   7.491   2.162 -0.4046  1.1220  0.0227
  141MOL0     H19027   5.779   7.316   2.338 -4.0518 -2.4669 -6.1098
  141MOL0     H19028   5.610   7.345   2.330  1.1660 -2.4169 -1.8049
  141MOL0     H19029   5.620   7.512   2.504  1.5764  1.0460 -0.1764
  141MOL0     H19030   5.797   7.470   2.534  0.4542 -1.6492 -0.5305
  141MOL0     H19031   5.556   7.287   2.590  0.4087 -1.5131 -0.1738
  141MOL0     H19032   5.681   7.366   2.702  3.5138 -0.8098  0.2868
  141MOL0     H19033   5.926   7.067   2.524 -2.0359 -1.5325 -1.8376
  141MOL0     H19034   6.136   7.546   2.227 -2.2419 -0.5035  2.5643
  141MOL0     H19035   6.272   7.428   2.041  0.7337 -1.3166  2.8079
  142MOL0     O19036   2.064   3.469  10.417 -0.6074  0.5097  1.2513
  142MOL0     C19037   2.053   3.351  10.370  0.4503 -0.0795 -0.4783
  142MOL0     O19038   1.932   3.286  10.332  0.2036 -0.3898 -0.0894
  142MOL0     C19039   1.807   3.342  10.357  0.2903  0.6744 -0.4265
  142MOL0     C19040   1.772   3.459  10.433  0.8862 -1.6750 -0.4690
  142MOL0     C19041   1.643   3.502  10.434 -0.4092 -0.2710 -0.3053
  142MOL0     C19042   1.537   3.423  10.376 -0.0948 -0.9549 -0.7762
  142MOL0     O19043   1.404   3.482  10.374 -0.0224 -1.3279  0.2614
  142MOL0     C19044   1.289   3.402  10.327 -1.1452  0.4087 -0.0995
  142MOL0     C19045   1.161   3.468  10.354  0.2515 -0.9728 -1.4008
  142MOL0     C19046   1.138   3.604  10.299 -0.5109 -0.5937  0.6118
  142MOL0     C19047   1.016   3.673  10.362  0.2411 -0.2699 -1.1973
  142MOL0     C19048   0.895   3.593  10.342  0.4902 -0.1592  0.1867
  142MOL0     C19049   0.859   3.584  10.190  0.2417 -0.5244  0.0546
  142MOL0     C19050   0.717   3.526  10.178  0.1747  0.6319  0.9111
  142MOL0     C19051   0.682   3.512  10.037 -0.7504 -0.3963 -0.2014
  142MOL0     N19052   0.549   3.479  10.014  0.6018 -0.3276  0.1541
  142MOL0     C19053   0.494   3.352  10.015  0.2695 -0.9258 -0.7094
  142MOL0     C19054   0.356   3.374  10.029  0.2714  0.5260  1.0450
  142MOL0     C19055   0.241   3.271  10.035 -0.2772  0.2427  0.2258
  142MOL0     C19056   0.134   3.321  10.144  0.6685  0.6026  0.2146
  142MOL0     C19057   0.017   3.225  10.140  0.0276  0.0448  0.8146
  142MOL0     C19058  -0.112   3.278  10.200  1.3566 -0.3299 -0.3623
  142MOL0     O19059  -0.224   3.185  10.178 -0.4343  0.2409 -0.7764
  142MOL0     C19060  -0.360   3.236  10.180  0.0854  1.2053 -0.3723
  142MOL0     C19061  -0.407   3.333  10.273  0.3343 -0.4849  1.0277
  142MOL0     C19062  -0.545   3.355  10.292  0.1554  0.7949  0.7924
  142MOL0     C19063  -0.587   3.460  10.388 -0.4412 -0.2541 -0.3386
  142MOL0     C19064  -0.651   3.270  10.241  0.5272  0.3501  0.4473
  142MOL0     C19065  -0.794   3.280  10.270  0.6851  0.5661  0.0822
  142MOL0     O19066  -0.846   3.381  10.362  0.4849  0.4553 -0.3135
  142MOL0     C19067  -0.981   3.361  10.410 -1.0823 -1.1331  0.2196
  142MOL0     C19068  -1.004   3.338  10.547  0.4199 -0.3131  0.8223
  142MOL0     C19069  -1.128   3.328  10.609 -0.1172 -0.0964  0.5306
  142MOL0     C19070  -1.239   3.346  10.517  0.2711  0.2213  0.1932
  142MOL0     O19071  -1.370   3.349  10.557  0.8657  0.5068 -0.1735
  142MOL0     C19072  -1.390   3.261  10.664  0.9132  0.6752  0.2262
  142MOL0     C19073  -1.538   3.242  10.675  0.2790  0.1170  0.0825
  142MOL0     C19074  -1.581   3.093  10.698 -0.0822 -0.2932 -0.3310
  142MOL0     C19075  -1.729   3.095  10.716  0.3719 -0.1880  0.3906
  142MOL0     C19076  -1.781   2.944  10.739 -0.4953  0.1786 -0.4087
  142MOL0     C19077  -1.930   2.938  10.716  0.5097  0.0005  0.5316
  142MOL0     C19078  -2.006   3.019  10.822 -0.0890  0.5471 -0.7309
  142MOL0     C19079  -2.152   2.973  10.833 -0.2549 -0.5567  0.1440
  142MOL0    Cl19080  -2.229   3.032  10.674  0.3824 -0.1683 -0.1464
  142MOL0     C19081  -1.223   3.361  10.380  0.1195 -0.2094 -0.0276
  142MOL0     C19082  -1.093   3.372  10.327 -0.6099  0.1019  0.3697
  142MOL0     O19083  -0.866   3.193  10.223 -0.2273 -0.1843 -0.7239
  142MOL0     C19084  -0.599   3.160  10.164 -0.4757  0.0127  0.5870
  142MOL0     C19085  -0.463   3.156  10.129  0.1591  0.2219  0.2510
  142MOL0     N19086   0.328   3.511  10.024 -0.3889 -0.4045  0.5632
  142MOL0     N19087   0.440   3.566  10.015  0.2251  0.2054 -0.0774
  142MOL0     C19088   1.572   3.301  10.311  1.1622 -0.2821  0.3908
  142MOL0     C19089   1.702   3.261  10.305 -0.3479  0.1580  0.4725
  142MOL0     C19090   2.175   3.276  10.363 -0.5236 -1.2519  0.2031
  142MOL0     C19091   2.178   3.147  10.299 -0.5284 -0.3282 -0.6663
  142MOL0     C19092   2.296   3.077  10.277  0.8239  0.2852 -0.1603
  142MOL0     C19093   2.414   3.120  10.339 -0.3089 -0.0025  0.0635
  142MOL0     O19094   2.520   3.037  10.318 -0.5668  0.3693 -0.1330
  142MOL0     C19095   2.652   3.098  10.353 -0.0710  0.7667 -0.2717
  142MOL0     C19096   2.760   2.979  10.318 -0.2888 -0.6437  0.1505
  142MOL0     C19097   2.900   3.031  10.366 -1.0832  0.8626 -1.2787
  142MOL0     C19098   3.009   3.035  10.249  0.4847 -0.0380 -0.0440
  142MOL0     C19099   3.138   3.004  10.306  0.6143 -0.0991  0.5168
  142MOL0     C19100   3.246   2.971  10.349 -0.1858 -0.0433 -0.4196
  142MOL0     C19101   2.416   3.238  10.410  0.3578 -0.3129 -0.0368
  142MOL0     C19102   2.295   3.313  10.423 -0.2791 -0.4064  0.1247
  142MOL0     H19103   1.842   3.522  10.486 -3.5448  2.3555  1.3565
  142MOL0     H19104   1.622   3.599  10.478  0.7735 -0.3409  0.4401
  142MOL0     H19105   1.294   3.392  10.218 -3.0668  1.1830 -0.2995
  142MOL0     H19106   1.296   3.299  10.364  4.1442 -0.4909 -2.7189
  142MOL0     H19107   1.091   3.399  10.306 -1.4282 -1.5765  1.6094
  142MOL0     H19108   1.145   3.470  10.463 -1.2421  0.5452 -1.6070
  142MOL0     H19109   1.220   3.672  10.322 -0.1302 -0.8289 -0.0414
  142MOL0     H19110   1.144   3.590  10.190  0.1389  2.8237  0.0971
  142MOL0     H19111   1.040   3.687  10.468  0.7802 -1.4567 -1.1371
  142MOL0     H19112   1.001   3.774  10.324 -2.4937  1.7308  4.0789
  142MOL0     H19113   0.896   3.492  10.383 -0.3806 -0.9343 -1.5879
  142MOL0     H19114   0.820   3.649  10.398  0.6046  0.1414  0.0413
  142MOL0     H19115   0.853   3.687  10.152 -0.9497 -0.1471  1.1971
  142MOL0     H19116   0.934   3.525  10.137  1.4854  0.1154  1.0310
  142MOL0     H19117   0.721   3.425  10.221 -1.3706 -1.2498 -2.8706
  142MOL0     H19118   0.632   3.582  10.217 -1.0357 -0.9853  0.7011
  142MOL0     H19119   0.758   3.448   9.990  0.4479 -1.1671  2.6025
  142MOL0     H19120   0.688   3.603   9.977 -2.2857  1.4135  2.2009
  142MOL0     H19121   0.545   3.260  10.042  0.2787 -0.7734 -0.2162
  142MOL0     H19122   0.188   3.257   9.940 -2.7486  2.9505  1.0425
  142MOL0     H19123   0.285   3.177  10.067 -0.8304 -1.0593 -2.5068
  142MOL0     H19124   0.084   3.415  10.117 -2.5439 -0.8592  0.6413
  142MOL0     H19125   0.176   3.333  10.244 -0.8917  1.9296  0.7565
  142MOL0     H19126   0.043   3.133  10.192 -1.2776  0.8816  3.1110
  142MOL0     H19127  -0.001   3.210  10.034  0.9104 -1.5598  0.8599
  142MOL0     H19128  -0.123   3.383  10.170  0.3661  0.8551  3.5704
  142MOL0     H19129  -0.094   3.277  10.308 -1.0800 -0.5845  0.1042
  142MOL0     H19130  -0.334   3.393  10.326 -1.6342  0.1081  3.1703
  142MOL0     H19131  -0.635   3.543  10.337  1.4478  0.0839 -1.6475
  142MOL0     H19132  -0.655   3.417  10.462 -0.4856 -1.3102 -0.9637
  142MOL0     H19133  -0.502   3.487  10.452 -1.2387 -1.5945  1.3724
  142MOL0     H19134  -0.909   3.348  10.600  1.1211  1.1746 -0.6196
  142MOL0     H19135  -1.135   3.329  10.717 -1.8325  0.0539  0.4357
  142MOL0     H19136  -1.337   3.167  10.650 -0.2049 -0.2385  1.8653
  142MOL0     H19137  -1.356   3.296  10.761  0.1111 -1.8563  1.4970
  142MOL0     H19138  -1.573   3.302  10.760  0.4802 -0.3260  0.4785
  142MOL0     H19139  -1.587   3.284  10.586  0.5508  2.1111  0.8240
  142MOL0     H19140  -1.535   3.058  10.791  0.7154  1.2620 -0.1170
  142MOL0     H19141  -1.547   3.036  10.611  3.9603  1.0563  0.1468
  142MOL0     H19142  -1.743   3.157  10.805  0.9724  1.9168 -0.9101
  142MOL0     H19143  -1.780   3.140  10.630  0.7764 -1.7250 -0.6993
  142MOL0     H19144  -1.773   2.915  10.845  1.8343  0.7123 -0.3828
  142MOL0     H19145  -1.724   2.873  10.679 -1.9025 -1.5974  0.2496
  142MOL0     H19146  -1.951   2.975  10.615  1.8731  1.6710  0.8250
  142MOL0     H19147  -1.954   2.831  10.720  0.6064 -0.0784 -0.7534
  142MOL0     H19148  -1.995   3.124  10.795  0.9985  0.2979 -1.3115
  142MOL0     H19149  -1.964   2.997  10.920 -3.8238 -1.7226  0.5993
  142MOL0     H19150  -2.216   3.009  10.914  0.5774  0.3376  0.4277
  142MOL0     H19151  -2.151   2.864  10.832  2.2437 -0.6214 -2.0497
  142MOL0     H19152  -1.303   3.376  10.308  1.1993  1.6316 -0.9269
  142MOL0     H19153  -1.072   3.390  10.222 -0.1702 -6.0996 -1.0076
  142MOL0     H19154  -0.663   3.082  10.124 -0.0306  0.7979 -1.8266
  142MOL0     H19155  -0.438   3.081  10.054 -1.2260 -0.7485  0.7240
  142MOL0     H19156   1.490   3.244  10.270  0.9404 -1.2940  2.1447
  142MOL0     H19157   1.730   3.167  10.258  0.8973  0.9209 -0.3442
  142MOL0     H19158   2.084   3.111  10.259 -1.6417  3.0068 -1.3107
  142MOL0     H19159   2.292   2.983  10.224  1.0251  0.6911 -0.9069
  142MOL0     H19160   2.674   3.180  10.283 -0.3473 -0.8849 -2.3940
  142MOL0     H19161   2.659   3.128  10.458  0.0933 -0.3607  0.0570
  142MOL0     H19162   2.750   2.943  10.215 -2.2786 -0.9776  0.4220
  142MOL0     H19163   2.728   2.900  10.386  0.2875 -0.7318  0.3211
  142MOL0     H19164   2.935   2.952  10.433  1.2044 -0.0847 -3.4357
  142MOL0     H19165   2.896   3.125  10.421 -0.8061 -0.8387  1.8976
  142MOL0     H19166   3.003   3.132  10.198 -2.2969 -0.1030  0.0246
  142MOL0     H19167   2.978   2.961  10.175 -2.1848  0.4156  0.5021
  142MOL0     H19168   3.340   2.946  10.395 -0.3435 -2.4886 -1.2727
  142MOL0     H19169   2.502   3.274  10.464 -0.5521 -2.4631  3.1213
  142MOL0     H19170   2.306   3.395  10.494  2.2396 -0.4906 -0.0906
  143MOL0     O19171   0.242   1.317   0.914  0.2352  0.1427 -0.0128
  143MOL0     C19172   0.192   1.386   0.825 -0.5705 -0.3138 -0.3632
  143MOL0     O19173   0.255   1.480   0.741  0.2702  0.0130  0.0003
  143MOL0     C19174   0.386   1.488   0.751 -0.8307  0.6336  0.3173
  143MOL0     C19175   0.472   1.408   0.674  0.4181 -0.0213  0.3862
  143MOL0     C19176   0.608   1.409   0.697  1.0085  0.4255  0.1738
  143MOL0     C19177   0.661   1.501   0.793 -0.4696 -0.3126 -0.9214
  143MOL0     O19178   0.793   1.492   0.843  0.3492 -0.3046  0.2815
  143MOL0     C19179   0.903   1.468   0.755 -0.4332  0.0324  0.2138
  143MOL0     C19180   0.924   1.586   0.653  0.6871  0.2793 -0.0802
  143MOL0     C19181   0.936   1.723   0.695  0.1034 -0.3213 -1.1156
  143MOL0     C19182   0.982   1.804   0.575 -0.2811  0.3745  0.4260
  143MOL0     C19183   1.037   1.946   0.598  0.6611 -0.0159  0.7057
  143MOL0     C19184   0.963   2.030   0.699  0.5571 -0.3987  0.5965
  143MOL0     C19185   1.032   2.169   0.701  1.3219 -0.1354  0.4427
  143MOL0     C19186   1.018   2.258   0.573 -0.3123 -0.8694 -0.9196
  143MOL0     N19187   0.876   2.303   0.555 -0.3153  0.6083  0.1890
  143MOL0     C19188   0.780   2.316   0.653  0.3147  0.3764 -0.0405
  143MOL0     C19189   0.693   2.407   0.602 -0.0167 -0.0617  0.3475
  143MOL0     C19190   0.568   2.458   0.676  0.4609 -0.0041 -0.5805
  143MOL0     C19191   0.449   2.367   0.651 -0.0431 -0.1947 -1.2115
  143MOL0     C19192   0.421   2.353   0.499  0.2928  0.2008 -0.2604
  143MOL0     C19193   0.289   2.281   0.465 -0.0370  0.4404  0.2675
  143MOL0     O19194   0.288   2.152   0.544  0.0170 -1.3717 -0.5139
  143MOL0     C19195   0.173   2.076   0.542 -0.4286  0.2300 -0.5210
  143MOL0     C19196   0.174   1.968   0.631  0.1680 -1.0566 -0.1489
  143MOL0     C19197   0.061   1.886   0.639 -0.0704 -0.5863  0.2593
  143MOL0     C19198   0.077   1.778   0.736  0.3167  0.7756  0.4701
  143MOL0     C19199  -0.048   1.905   0.542  0.2875 -0.2332 -0.1138
  143MOL0     C19200  -0.166   1.812   0.543 -0.0992 -0.7974  0.2010
  143MOL0     O19201  -0.285   1.867   0.508  0.1430 -0.2332  0.0907
  143MOL0     C19202  -0.396   1.805   0.549 -0.0681  0.0714  0.4881
  143MOL0     C19203  -0.471   1.727   0.469  0.0737 -0.1190  0.2212
  143MOL0     C19204  -0.592   1.665   0.508 -0.4588  0.1499  0.1609
  143MOL0     C19205  -0.643   1.683   0.642 -0.1958 -0.8114  0.2110
  143MOL0     O19206  -0.757   1.623   0.677 -0.2403 -0.6441 -0.1303
  143MOL0     C19207  -0.796   1.611   0.818  1.0979  1.0431  0.8476
  143MOL0     C19208  -0.947   1.574   0.824  0.9142 -0.0538  0.1462
  143MOL0     C19209  -0.986   1.560   0.972  0.1189 -0.3176  0.5549
  143MOL0     C19210  -1.111   1.479   0.994 -0.8933  0.5486 -0.2745
  143MOL0     C19211  -1.105   1.441   1.147 -0.0805 -0.0045  0.4774
  143MOL0     C19212  -1.241   1.380   1.179  0.4570  0.3117 -0.0594
  143MOL0     C19213  -1.253   1.327   1.320 -0.2090  0.3558 -0.1343
  143MOL0     C19214  -1.367   1.225   1.322 -0.2519  0.4588 -0.6565
  143MOL0    Cl19215  -1.521   1.296   1.284  0.5916  0.0501  0.0089
  143MOL0     C19216  -0.561   1.763   0.727  0.0165  0.8055  0.2106
  143MOL0     C19217  -0.443   1.824   0.673  0.8463  1.0128 -0.5853
  143MOL0     O19218  -0.143   1.695   0.561  0.2526 -0.7597  0.5620
  143MOL0     C19219  -0.048   2.019   0.458 -0.5351 -0.1438 -0.0125
  143MOL0     C19220   0.065   2.108   0.456 -0.3016 -0.1516  0.0483
  143MOL0     N19221   0.736   2.446   0.480 -0.0023  0.2221 -0.1085
  143MOL0     N19222   0.844   2.378   0.447 -0.8269 -0.0797 -0.5755
  143MOL0     C19223   0.570   1.591   0.866 -0.3759 -0.4683  0.2595
  143MOL0     C19224   0.433   1.581   0.851  0.7494 -0.0754 -0.2591
  143MOL0     C19225   0.053   1.378   0.830  0.3982  0.5283  0.4431
  143MOL0     C19226  -0.011   1.314   0.930  0.6522  0.0975 -0.0982
  143MOL0     C19227  -0.156   1.314   0.935  0.3188  0.5089 -0.5199
  143MOL0     C19228  -0.232   1.362   0.827  0.5264  0.2591 -0.3946
  143MOL0     O19229  -0.367   1.352   0.802 -0.0526 -0.4020  0.4054
  143MOL0     C19230  -0.445   1.255   0.874 -0.0575 -0.4713 -0.4609
  143MOL0     C19231  -0.594   1.265   0.841 -0.3316  0.2241 -0.3856
  143MOL0     C19232  -0.672   1.162   0.923 -0.3036  0.9149  0.8848
  143MOL0     C19233  -0.818   1.200   0.945  0.2152 -0.2286  0.3893
  143MOL0     C19234  -0.900   1.107   1.020  0.0746 -0.9196  0.7490
  143MOL0     C19235  -0.981   1.030   1.071 -0.3034  0.1954  0.1198
  143MOL0     C19236  -0.168   1.430   0.730  0.7441 -0.3954 -0.6886
  143MOL0     C19237  -0.027   1.436   0.727 -0.0883  0.1370 -0.1242
  143MOL0     H19238   0.428   1.342   0.601 -0.6801  0.8112  0.2629
  143MOL0     H19239   0.674   1.336   0.651  0.8451  0.6976 -0.5083
  143MOL0     H19240   1.000   1.461   0.805 -1.3648 -2.6772  1.8583
  143MOL0     H19241   0.894   1.372   0.704  1.2068  0.5878 -1.2194
  143MOL0     H19242   1.019   1.561   0.604  1.0329 -1.0701  1.1922
  143MOL0     H19243   0.847   1.566   0.578 -1.1176 -0.7597  1.9453
  143MOL0     H19244   0.839   1.761   0.726  0.3865  1.4272 -2.2424
  143MOL0     H19245   1.001   1.734   0.783 -1.3464  1.4298 -0.2146
  143MOL0     H19246   1.067   1.751   0.531  0.1544  0.0617  1.5997
  143MOL0     H19247   0.904   1.816   0.498  2.3138  1.7526 -2.1816
  143MOL0     H19248   1.137   1.919   0.635 -0.3103 -2.5541  1.7511
  143MOL0     H19249   1.034   1.997   0.501 -1.8354 -0.0584  0.7124
  143MOL0     H19250   0.855   2.032   0.684  0.3370 -2.7147  1.5182
  143MOL0     H19251   0.965   1.982   0.797 -2.3676 -0.6983  0.5991
  143MOL0     H19252   0.997   2.228   0.786  0.5629 -0.7077  0.5382
  143MOL0     H19253   1.139   2.160   0.722  1.2737 -0.4142  0.5750
  143MOL0     H19254   1.054   2.200   0.488  1.0618 -0.5512 -0.5675
  143MOL0     H19255   1.081   2.347   0.573  0.7285 -1.5856 -0.9234
  143MOL0     H19256   0.792   2.271   0.751 -0.7807 -2.7751 -1.2175
  143MOL0     H19257   0.588   2.477   0.782 -0.8811 -1.1805 -0.0897
  143MOL0     H19258   0.542   2.554   0.631  1.1652 -0.0371 -1.0836
  143MOL0     H19259   0.362   2.416   0.695  0.4744  0.1683 -0.5883
  143MOL0     H19260   0.462   2.267   0.694  0.8872 -0.4747 -2.0852
  143MOL0     H19261   0.499   2.288   0.460  0.9357 -0.3351  1.7899
  143MOL0     H19262   0.424   2.454   0.457  0.1217 -0.5493 -2.1758
  143MOL0     H19263   0.275   2.267   0.358 -1.0829 -0.9401  0.5532
  143MOL0     H19264   0.206   2.341   0.503 -1.5152  1.2518 -3.7468
  143MOL0     H19265   0.264   1.958   0.692 -0.8696  0.3592  1.7035
  143MOL0     H19266   0.125   1.818   0.826 -1.1451  2.6380  0.4631
  143MOL0     H19267  -0.021   1.758   0.781 -0.8960  2.2411 -1.3905
  143MOL0     H19268   0.120   1.685   0.696 -4.0147 -1.2510  0.0100
  143MOL0     H19269  -0.437   1.710   0.368 -1.0197 -1.5353  0.0683
  143MOL0     H19270  -0.645   1.604   0.436  1.2715 -1.2102 -0.0394
  143MOL0     H19271  -0.740   1.522   0.848  1.7597  0.6796 -1.3160
  143MOL0     H19272  -0.776   1.696   0.883  1.0538  0.0225  2.2480
  143MOL0     H19273  -1.006   1.648   0.769  0.8976 -1.0929 -1.2889
  143MOL0     H19274  -0.959   1.478   0.772 -1.0273  0.0675  0.3195
  143MOL0     H19275  -1.003   1.660   1.013  0.4796 -1.1661  2.9046
  143MOL0     H19276  -0.900   1.508   1.015  0.1694 -1.8454 -1.2527
  143MOL0     H19277  -1.201   1.533   0.964 -0.6786  0.5115 -1.0252
  143MOL0     H19278  -1.097   1.382   0.946 -0.2860  0.1516  0.6842
  143MOL0     H19279  -1.097   1.528   1.212  2.4763  0.2113 -0.0224
  143MOL0     H19280  -1.022   1.371   1.157  0.7260  0.8600  0.1081
  143MOL0     H19281  -1.321   1.453   1.158 -1.4379 -1.9577 -1.2605
  143MOL0     H19282  -1.262   1.302   1.105  0.4515  0.2856 -0.0304
  143MOL0     H19283  -1.286   1.408   1.386  0.0743  1.2605 -1.0729
  143MOL0     H19284  -1.159   1.291   1.362 -1.1276 -1.8560  0.2006
  143MOL0     H19285  -1.384   1.204   1.428  0.7746 -0.9769 -0.7562
  143MOL0     H19286  -1.349   1.133   1.266  0.0054 -0.9630  1.6428
  143MOL0     H19287  -0.581   1.779   0.832 -0.2879  1.0514  0.1162
  143MOL0     H19288  -0.385   1.883   0.744  0.2440  3.7120 -2.2120
  143MOL0     H19289  -0.134   2.049   0.399  1.3768  0.7426 -2.5723
  143MOL0     H19290   0.074   2.185   0.380  1.1013 -1.5258 -1.2684
  143MOL0     H19291   0.603   1.654   0.947 -2.1040 -2.7843  2.9447
  143MOL0     H19292   0.362   1.641   0.907  0.2516 -3.2243  2.8688
  143MOL0     H19293   0.040   1.259   1.008 -1.6009  1.3576  2.3968
  143MOL0     H19294  -0.191   1.247   1.013  2.1052 -1.5295 -1.3668
  143MOL0     H19295  -0.407   1.154   0.858  2.0804  0.2511 -0.3733
  143MOL0     H19296  -0.437   1.270   0.982  0.4839 -1.3560 -0.3703
  143MOL0     H19297  -0.607   1.240   0.735  1.4746 -1.7345 -0.2199
  143MOL0     H19298  -0.614   1.364   0.882  1.4796  0.1488  0.7821
  143MOL0     H19299  -0.630   1.141   1.022  2.9068 -0.5308 -0.6245
  143MOL0     H19300  -0.662   1.063   0.878 -0.0903  1.0943  0.5223
  143MOL0     H19301  -0.863   1.214   0.846 -0.4205  1.6014  0.9019
  143MOL0     H19302  -0.826   1.298   0.993 -1.1398  0.1722 -0.6028
  143MOL0     H19303  -1.049   0.961   1.118 -0.0947 -1.4443 -1.8607
  143MOL0     H19304  -0.213   1.464   0.638  3.8681  1.7739 -1.6081
  143MOL0     H19305   0.010   1.487   0.638  0.3588 -0.3850 -0.2447
  144MOL0     O19306   1.652   4.219  10.719 -0.2383  0.2616  0.1305
  144MOL0     C19307   1.633   4.223  10.840 -0.0279  0.4686 -0.4602
  144MOL0     O19308   1.509   4.222  10.907  0.2723  0.3747 -1.2419
  144MOL0     C19309   1.397   4.242  10.831 -0.5807  0.6877  0.3658
  144MOL0     C19310   1.383   4.350  10.738 -0.3824  0.3060 -1.1070
  144MOL0     C19311   1.261   4.361  10.678  1.2671 -0.5969  0.3201
  144MOL0     C19312   1.159   4.267  10.690 -0.1023 -0.3289 -0.7768
  144MOL0     O19313   1.032   4.278  10.635  0.9550  0.3240  0.8566
  144MOL0     C19314   0.980   4.405  10.604  0.3964 -0.0630  0.0341
  144MOL0     C19315   0.830   4.398  10.546 -0.6274 -0.6679 -0.1107
  144MOL0     C19316   0.761   4.528  10.558 -0.3619  0.0381 -0.7455
  144MOL0     C19317   0.824   4.621  10.456  0.4467  0.2125 -0.1091
  144MOL0     C19318   0.762   4.761  10.467  0.4889  1.1089  0.8401
  144MOL0     C19319   0.835   4.848  10.352 -0.4341 -0.2699  0.8380
  144MOL0     C19320   0.754   4.967  10.295  0.8173  0.4022 -0.2093
  144MOL0     C19321   0.711   5.065  10.409  0.4687  0.6698  0.2088
  144MOL0     N19322   0.664   5.203  10.367 -0.5740  0.1633 -0.1762
  144MOL0     C19323   0.568   5.236  10.273 -0.0375 -0.6348 -0.5760
  144MOL0     C19324   0.559   5.367  10.259 -0.0619 -1.0560 -0.4040
  144MOL0     C19325   0.466   5.451  10.174  0.9936  0.7512 -0.7683
  144MOL0     C19326   0.490   5.608  10.185 -0.4448 -0.0862 -0.3009
  144MOL0     C19327   0.357   5.687  10.180  0.0539  0.0956 -0.1732
  144MOL0     C19328   0.277   5.673  10.057  0.0455 -0.0290 -0.0429
  144MOL0     O19329   0.254   5.540  10.037 -0.0629 -0.1096  0.4042
  144MOL0     C19330   0.160   5.508   9.950  0.2545  0.1001  0.9458
  144MOL0     C19331   0.165   5.559   9.819 -0.3162 -1.2428  0.4409
  144MOL0     C19332   0.050   5.552   9.737  0.1353  0.4093 -0.1912
  144MOL0     C19333   0.060   5.627   9.600  0.4519  0.0549  0.0087
  144MOL0     C19334  -0.066   5.475   9.772 -0.3483 -0.1816  0.5473
  144MOL0     C19335  -0.192   5.451   9.684 -0.0062 -0.8188  0.1644
  144MOL0     O19336  -0.314   5.459   9.747  0.4021 -0.0298 -0.5535
  144MOL0     C19337  -0.430   5.430   9.681 -1.1043 -1.4260 -0.3953
  144MOL0     C19338  -0.507   5.542   9.640 -0.1787 -0.4732 -0.1264
  144MOL0     C19339  -0.620   5.525   9.564  1.7748  0.4192  1.3810
  144MOL0     C19340  -0.681   5.397   9.540 -0.1889  1.1667  0.4085
  144MOL0     O19341  -0.795   5.352   9.472 -0.2349  0.0531 -0.7294
  144MOL0     C19342  -0.895   5.457   9.439  0.2772  0.0907  0.3254
  144MOL0     C19343  -0.872   5.524   9.309 -0.3993 -0.4312 -1.1659
  144MOL0     C19344  -0.867   5.425   9.193  0.8390  0.8443  0.1403
  144MOL0     C19345  -0.876   5.491   9.046 -0.2039 -0.4851 -0.0746
  144MOL0     C19346  -0.870   5.389   8.927  0.1767 -0.8067 -0.2613
  144MOL0     C19347  -0.729   5.343   8.898 -0.5274  0.8053  0.1200
  144MOL0     C19348  -0.742   5.261   8.767  0.3375 -0.0752  0.0398
  144MOL0     C19349  -0.619   5.202   8.710  0.5714 -0.1717 -0.2513
  144MOL0    Cl19350  -0.524   5.093   8.819 -0.1044  0.1779 -0.6949
  144MOL0     C19351  -0.602   5.288   9.577 -0.3245  0.0870  0.2984
  144MOL0     C19352  -0.478   5.303   9.647 -0.1901 -0.4523  0.5562
  144MOL0     O19353  -0.174   5.436   9.564  0.0704 -0.5346 -0.1406
  144MOL0     C19354  -0.061   5.415   9.901 -0.1040  0.1017 -0.0223
  144MOL0     C19355   0.046   5.437   9.984 -0.6178  0.2163  0.3244
  144MOL0     N19356   0.645   5.419  10.357  0.2028 -0.3624 -0.2978
  144MOL0     N19357   0.702   5.320  10.429 -0.1098  0.1788 -0.0285
  144MOL0     C19358   1.190   4.157  10.770 -0.3887 -0.9328 -0.4985
  144MOL0     C19359   1.309   4.144  10.847 -0.0067 -0.0999  0.6592
  144MOL0     C19360   1.748   4.221  10.933  0.1770  0.3510 -0.6277
  144MOL0     C19361   1.868   4.187  10.874 -0.1762 -0.5938  0.2663
  144MOL0     C19362   1.992   4.216  10.937  1.0549 -0.2872  0.4144
  144MOL0     C19363   1.987   4.250  11.074  0.1710 -0.5876 -0.3114
  144MOL0     O19364   2.101   4.274  11.150  0.5518 -0.0100  0.3243
  144MOL0     C19365   2.234   4.227  11.117  0.2747  0.7347  0.0991
  144MOL0     C19366   2.247   4.076  11.114  1.1402 -0.4036 -0.0629
  144MOL0     C19367   2.232   4.009  11.249 -0.0403  0.5572 -0.3110
  144MOL0     C19368   2.267   3.864  11.229  0.6440  0.1187  0.2977
  144MOL0     C19369   2.266   3.795  11.362  0.1193  0.3794 -0.4873
  144MOL0     C19370   2.265   3.740  11.468  0.1083 -0.0743 -0.5735
  144MOL0     C19371   1.864   4.264  11.139 -0.0930  0.7837  0.3084
  144MOL0     C19372   1.745   4.251  11.069  0.2334 -0.0976  0.9847
  144MOL0     H19373   1.460   4.424  10.719  1.4990  0.1041  4.1560
  144MOL0     H19374   1.260   4.444  10.608 -0.2205 -0.7885  0.0928
  144MOL0     H19375   0.983   4.466  10.694  1.0207  0.2707 -0.2067
  144MOL0     H19376   1.050   4.454  10.535  1.6241 -0.4101  1.0030
  144MOL0     H19377   0.826   4.356  10.444 -1.2486 -1.0828  0.0791
  144MOL0     H19378   0.762   4.337  10.606 -1.9912  1.3015  0.4246
  144MOL0     H19379   0.655   4.511  10.537 -0.0040 -2.3638 -0.9624
  144MOL0     H19380   0.778   4.566  10.659  5.1031  0.3051 -1.4737
  144MOL0     H19381   0.932   4.620  10.469  0.4500 -0.4469 -0.1191
  144MOL0     H19382   0.792   4.570  10.364 -0.5927 -0.4530  0.5910
  144MOL0     H19383   0.655   4.754  10.447  0.6348 -0.0510  0.3962
  144MOL0     H19384   0.774   4.813  10.563 -3.8803  1.4106  1.4284
  144MOL0     H19385   0.939   4.870  10.376 -0.0236 -2.4818  1.3102
  144MOL0     H19386   0.844   4.780  10.267 -2.2278 -0.1467  0.5044
  144MOL0     H19387   0.824   5.022  10.231  3.9646 -1.1773  1.6273
  144MOL0     H19388   0.667   4.939  10.235 -1.3836  0.4696  2.7516
  144MOL0     H19389   0.794   5.084  10.477 -0.5671  5.0083  0.5544
  144MOL0     H19390   0.628   5.019  10.463  0.7572  0.8138  0.7749
  144MOL0     H19391   0.513   5.165  10.212  1.1996 -1.3776 -0.8684
  144MOL0     H19392   0.487   5.419  10.071 -0.4488 -3.0366 -0.0613
  144MOL0     H19393   0.369   5.406  10.197  2.3723 -2.1977 -0.2188
  144MOL0     H19394   0.551   5.640  10.100 -0.5470  1.0738  0.0455
  144MOL0     H19395   0.535   5.628  10.282 -1.6933 -1.7416  0.6747
  144MOL0     H19396   0.386   5.793  10.184  2.6202 -0.3248 -3.3060
  144MOL0     H19397   0.285   5.656  10.256 -0.2403 -0.2418 -0.5889
  144MOL0     H19398   0.343   5.706   9.976  0.5994 -0.3942  0.2535
  144MOL0     H19399   0.185   5.733  10.059  0.1438  0.3933 -3.2175
  144MOL0     H19400   0.262   5.593   9.784 -0.1034  0.4718  2.4907
  144MOL0     H19401   0.158   5.675   9.588 -0.0711  1.5171  1.2010
  144MOL0     H19402   0.043   5.554   9.521  0.3145  0.4427 -0.3270
  144MOL0     H19403  -0.023   5.699   9.594 -0.2839 -0.8690 -2.9923
  144MOL0     H19404  -0.467   5.641   9.660 -2.1159  0.2427  0.4963
  144MOL0     H19405  -0.680   5.610   9.530  1.8457  0.8274  2.2531
  144MOL0     H19406  -0.994   5.412   9.434  0.7988 -1.0889  0.3031
  144MOL0     H19407  -0.899   5.537   9.513  0.5029  1.7997 -1.4180
  144MOL0     H19408  -0.961   5.586   9.298 -1.5509 -1.9688 -0.6726
  144MOL0     H19409  -0.785   5.590   9.314 -2.2944  2.3504 -2.2199
  144MOL0     H19410  -0.958   5.368   9.211  0.6201  0.7326 -1.1941
  144MOL0     H19411  -0.776   5.365   9.199  0.3427  0.1026  0.2902
  144MOL0     H19412  -0.971   5.543   9.033  0.4136  0.1186 -2.7614
  144MOL0     H19413  -0.796   5.564   9.030 -1.8714  1.4743  0.0945
  144MOL0     H19414  -0.914   5.438   8.840 -1.1950  0.0690  0.8679
  144MOL0     H19415  -0.939   5.306   8.944 -1.3156  0.2202 -1.0252
  144MOL0     H19416  -0.662   5.428   8.882 -0.8063  0.5386 -3.0127
  144MOL0     H19417  -0.698   5.270   8.974 -1.3269 -2.5678 -2.5457
  144MOL0     H19418  -0.793   5.305   8.681  0.1382 -1.2307 -0.4561
  144MOL0     H19419  -0.801   5.172   8.791  1.8983 -0.8108  1.3892
  144MOL0     H19420  -0.544   5.277   8.684  0.7778 -0.4721 -0.5382
  144MOL0     H19421  -0.644   5.138   8.624 -2.9501 -1.3609  1.4795
  144MOL0     H19422  -0.654   5.194   9.560 -0.5620  0.4491 -1.1380
  144MOL0     H19423  -0.430   5.211   9.679  0.1290  0.0156  1.4743
  144MOL0     H19424  -0.142   5.346   9.925 -0.7675  1.6911  2.7800
  144MOL0     H19425   0.058   5.397  10.084  1.0726  1.7872  0.8180
  144MOL0     H19426   1.114   4.083  10.790  0.9837 -2.3932 -0.4879
  144MOL0     H19427   1.317   4.061  10.916  0.4555 -0.6489 -0.0282
  144MOL0     H19428   1.869   4.152  10.771 -1.0742 -0.8028  0.3256
  144MOL0     H19429   2.080   4.221  10.875  1.2582 -2.4380  0.4521
  144MOL0     H19430   2.269   4.268  11.022  1.3558  0.7321  0.4806
  144MOL0     H19431   2.296   4.281  11.189 -1.6009  1.2697  1.4036
  144MOL0     H19432   2.340   4.047  11.065  0.5520 -1.6609 -0.4769
  144MOL0     H19433   2.172   4.036  11.045  1.2944 -0.8811  0.0438
  144MOL0     H19434   2.128   4.034  11.269 -0.3955 -0.0018 -1.3681
  144MOL0     H19435   2.300   4.059  11.318 -0.6777  1.8598 -0.6043
  144MOL0     H19436   2.369   3.854  11.191 -0.0540 -1.2270 -1.3286
  144MOL0     H19437   2.198   3.813  11.161  0.1090 -0.6040  1.3536
  144MOL0     H19438   2.283   3.688  11.560  2.3702  0.7950 -0.4540
  144MOL0     H19439   1.846   4.304  11.238  0.2864 -0.4980  0.9192
  144MOL0     H19440   1.648   4.278  11.110 -0.6091  0.3961 -1.2058
  145MOL0     O19441   4.576   4.072   0.233  0.6396  0.2248 -0.1774
  145MOL0     C19442   4.564   4.051   0.113 -0.1872  0.6647 -0.9959
  145MOL0     O19443   4.661   3.998   0.031 -0.5906 -0.5756 -1.0277
  145MOL0     C19444   4.778   3.958   0.085  0.2772 -0.7257 -0.0283
  145MOL0     C19445   4.854   3.903  -0.022 -0.2899 -0.1655 -0.4420
  145MOL0     C19446   4.992   3.866  -0.005  0.1553  0.8251 -0.0499
  145MOL0     C19447   5.047   3.879   0.127 -0.0864 -0.4749 -0.6936
  145MOL0     O19448   5.177   3.849   0.161  0.0495 -0.6379 -0.2315
  145MOL0     C19449   5.276   3.848   0.056  0.2421 -0.3312 -0.4369
  145MOL0     C19450   5.415   3.852   0.112  0.0602 -0.2747  0.4402
  145MOL0     C19451   5.457   3.730   0.200  0.4772  0.2843  0.3923
  145MOL0     C19452   5.609   3.719   0.226 -0.8683  0.4500 -0.2467
  145MOL0     C19453   5.650   3.598   0.307 -0.9350  0.5325 -0.2777
  145MOL0     C19454   5.807   3.597   0.326  0.8492 -0.4594  0.2138
  145MOL0     C19455   5.855   3.483   0.415 -0.0309  0.1939  0.3434
  145MOL0     C19456   5.972   3.410   0.360  0.0328  0.0362 -0.4633
  145MOL0     N19457   6.104   3.487   0.352  0.2714 -0.6591  0.5363
  145MOL0     C19458   6.156   3.501   0.229 -0.4733  0.1596  0.0548
  145MOL0     C19459   6.263   3.576   0.250  0.3250 -0.7004 -1.5638
  145MOL0     C19460   6.361   3.621   0.141  0.5083 -0.1915  0.0157
  145MOL0     C19461   6.458   3.709   0.197 -0.2356  0.4108  0.4410
  145MOL0     C19462   6.415   3.845   0.221 -0.6635  0.4732  0.8556
  145MOL0     C19463   6.518   3.934   0.293 -0.7609 -0.0790  0.4289
  145MOL0     O19464   6.623   3.960   0.197 -0.3910 -0.7060 -0.3293
  145MOL0     C19465   6.726   4.045   0.228 -0.9172  0.0826 -0.0410
  145MOL0     C19466   6.755   4.119   0.353  0.5456 -0.0875 -0.1659
  145MOL0     C19467   6.866   4.201   0.371 -0.0245  1.3263  0.2241
  145MOL0     C19468   6.890   4.265   0.507 -0.4426 -1.0673 -0.1639
  145MOL0     C19469   6.949   4.224   0.255 -0.7657 -0.1582 -0.5658
  145MOL0     C19470   7.068   4.324   0.256 -0.1865  0.1742 -0.2425
  145MOL0     O19471   7.121   4.353   0.137 -0.4218  0.0178 -0.1063
  145MOL0     C19472   7.262   4.386   0.126  0.3342  0.3350  0.3700
  145MOL0     C19473   7.311   4.325   0.006 -0.5606  0.2661 -1.2627
  145MOL0     C19474   7.452   4.338  -0.018  0.1318 -1.2539 -0.3130
  145MOL0     C19475   7.538   4.396   0.077  0.3376 -0.3653 -0.1486
  145MOL0     O19476   7.674   4.402   0.065  0.4512  0.2302 -0.0298
  145MOL0     C19477   7.743   4.367  -0.059  0.6684 -0.6179 -0.4505
  145MOL0     C19478   7.809   4.236  -0.052  0.5324  0.6557 -1.1389
  145MOL0     C19479   7.890   4.219  -0.178 -0.2309  0.9654 -0.1621
  145MOL0     C19480   7.946   4.078  -0.196  0.1521  0.5624  0.2125
  145MOL0     C19481   8.033   4.057  -0.325  0.6610  0.7825  0.0260
  145MOL0     C19482   8.075   3.911  -0.356  0.0483  0.1013 -0.1028
  145MOL0     C19483   7.949   3.825  -0.370  0.0604 -0.4044 -0.1422
  145MOL0     C19484   7.970   3.676  -0.403  0.0727  0.5578 -0.2444
  145MOL0    Cl19485   8.048   3.600  -0.247  0.2056  0.2031 -0.2589
  145MOL0     C19486   7.486   4.440   0.198  0.5554 -0.3983 -0.1355
  145MOL0     C19487   7.345   4.441   0.220 -0.1810  0.0629  0.1101
  145MOL0     O19488   7.100   4.379   0.363  0.5783  1.1624 -0.1554
  145MOL0     C19489   6.925   4.155   0.138  0.1732  1.3498  0.2843
  145MOL0     C19490   6.817   4.068   0.134  0.2636  0.5101  0.4835
  145MOL0     N19491   6.273   3.608   0.383 -0.3392 -0.3718 -1.0111
  145MOL0     N19492   6.163   3.562   0.443 -0.0703 -0.3871  0.4580
  145MOL0     C19493   4.965   3.925   0.228  0.2215 -0.5394  0.0381
  145MOL0     C19494   4.838   3.971   0.214 -0.2045 -0.0575  0.2675
  145MOL0     C19495   4.429   4.087   0.049 -0.2084  0.4483  0.2836
  145MOL0     C19496   4.330   4.134   0.144  0.4814 -0.0067 -0.2593
  145MOL0     C19497   4.194   4.144   0.092 -1.2285 -0.5750 -0.1398
  145MOL0     C19498   4.164   4.122  -0.048 -0.2586 -0.1033  0.3101
  145MOL0     O19499   4.028   4.137  -0.077  0.0292  0.1654  0.2021
  145MOL0     C19500   3.988   4.115  -0.212  0.2020 -0.4069 -0.4893
  145MOL0     C19501   3.998   4.231  -0.298  0.3283 -0.0646  0.2985
  145MOL0     C19502   3.981   4.185  -0.448 -0.8662 -0.1654 -0.2422
  145MOL0     C19503   4.105   4.148  -0.518 -0.0691 -1.1432  0.4841
  145MOL0     C19504   4.070   4.137  -0.659  0.8694  0.1101  0.0951
  145MOL0     C19505   4.054   4.112  -0.774  0.2068 -0.0399  0.4570
  145MOL0     C19506   4.267   4.076  -0.132  0.6477  0.6538 -0.4636
  145MOL0     C19507   4.394   4.063  -0.086 -0.2654 -0.1984 -0.1477
  145MOL0     H19508   4.818   3.880  -0.121 -1.5504 -3.3948  0.6316
  145MOL0     H19509   5.052   3.830  -0.087 -0.7347 -1.0255  0.0467
  145MOL0     H19510   5.273   3.765  -0.015  0.1434 -0.1952 -0.5931
  145MOL0     H19511   5.269   3.938  -0.006  2.3951 -0.4101 -0.8575
  145MOL0     H19512   5.493   3.852   0.035  1.7262  0.7274  2.0434
  145MOL0     H19513   5.430   3.945   0.168 -0.8358 -0.3764  0.8751
  145MOL0     H19514   5.416   3.739   0.301 -0.6932 -0.5561  0.0177
  145MOL0     H19515   5.431   3.636   0.150 -3.4010  0.2379  2.1228
  145MOL0     H19516   5.666   3.723   0.133 -1.4940 -0.2126 -0.6659
  145MOL0     H19517   5.632   3.805   0.290  1.4349  0.6095 -1.2076
  145MOL0     H19518   5.600   3.606   0.404 -2.0435  2.5010 -0.9499
  145MOL0     H19519   5.624   3.506   0.254  4.7538 -1.6559 -0.0081
  145MOL0     H19520   5.855   3.588   0.228  1.6207  0.1255  0.5225
  145MOL0     H19521   5.826   3.692   0.377 -1.1622 -0.0629  0.2876
  145MOL0     H19522   5.873   3.523   0.515  1.1403  2.5701 -0.7502
  145MOL0     H19523   5.775   3.408   0.424 -0.6106  0.9741  2.2362
  145MOL0     H19524   5.941   3.369   0.263 -0.5860  1.4201 -0.8757
  145MOL0     H19525   5.997   3.319   0.415  0.3510 -1.1983 -2.5444
  145MOL0     H19526   6.131   3.460   0.131  0.3430 -2.6569  0.9370
  145MOL0     H19527   6.405   3.533   0.092 -0.6120 -0.6867 -0.1177
  145MOL0     H19528   6.307   3.670   0.060  3.4240 -1.6506 -3.0759
  145MOL0     H19529   6.544   3.708   0.129 -0.5958 -1.3499 -0.0341
  145MOL0     H19530   6.488   3.656   0.288  1.4907  0.0675 -0.2960
  145MOL0     H19531   6.319   3.851   0.272 -1.5551 -3.3919 -0.0334
  145MOL0     H19532   6.407   3.885   0.119  0.2292 -1.3661  0.0135
  145MOL0     H19533   6.568   3.888   0.379  3.5450  3.7761  0.3564
  145MOL0     H19534   6.475   4.032   0.316 -1.6042 -0.1977 -0.5604
  145MOL0     H19535   6.681   4.101   0.430  1.0537 -3.2466 -0.2866
  145MOL0     H19536   6.983   4.231   0.553 -1.2680 -0.4510  2.0968
  145MOL0     H19537   6.895   4.374   0.514 -3.9647 -0.7375 -0.8713
  145MOL0     H19538   6.814   4.237   0.581 -0.6523 -4.8773 -1.5924
  145MOL0     H19539   7.254   4.253  -0.054 -0.5792 -0.5514 -0.2867
  145MOL0     H19540   7.483   4.281  -0.105  3.0667 -1.7825  0.9538
  145MOL0     H19541   7.668   4.370  -0.139  0.8901  1.1069 -0.6416
  145MOL0     H19542   7.824   4.431  -0.094 -0.8649 -0.3688 -4.0042
  145MOL0     H19543   7.866   4.233   0.042 -0.6932  4.3933 -0.1065
  145MOL0     H19544   7.733   4.160  -0.032 -2.3667  4.1141  2.9569
  145MOL0     H19545   7.965   4.298  -0.178 -0.2466  0.9820  0.5107
  145MOL0     H19546   7.832   4.241  -0.269  1.0402  0.2964 -1.1765
  145MOL0     H19547   8.007   4.049  -0.110  1.3954 -0.8128 -1.0732
  145MOL0     H19548   7.863   4.007  -0.187  2.4075 -2.1293  1.3851
  145MOL0     H19549   8.133   4.102  -0.319  1.4272 -1.0735  2.7498
  145MOL0     H19550   7.982   4.097  -0.414 -0.6945 -0.1453  0.3555
  145MOL0     H19551   8.140   3.910  -0.444 -0.4301  0.4682 -0.4630
  145MOL0     H19552   8.139   3.871  -0.277  3.8225 -1.3440 -3.5501
  145MOL0     H19553   7.873   3.869  -0.435 -1.1696  0.7804  1.9922
  145MOL0     H19554   7.902   3.828  -0.272  0.5474 -3.4500  0.2995
  145MOL0     H19555   8.036   3.664  -0.489 -0.0187  1.4800 -0.4539
  145MOL0     H19556   7.871   3.632  -0.417  0.9157 -1.9105  0.8966
  145MOL0     H19557   7.560   4.479   0.267  0.8571 -1.2573  0.0327
  145MOL0     H19558   7.300   4.477   0.312 -4.0020  0.2184 -1.6593
  145MOL0     H19559   6.991   4.173   0.054  1.0922  2.7870  1.2801
  145MOL0     H19560   6.814   4.009   0.043  1.5937 -1.3448  1.5833
  145MOL0     H19561   4.997   3.932   0.331 -1.2035 -0.9405  0.5371
  145MOL0     H19562   4.790   3.999   0.307  1.8969  3.9516  0.3888
  145MOL0     H19563   4.343   4.165   0.247 -2.1100 -0.5330  0.2943
  145MOL0     H19564   4.127   4.195   0.160 -1.4278 -2.5369  1.2145
  145MOL0     H19565   4.030   4.022  -0.251 -1.6681 -2.4391  1.9704
  145MOL0     H19566   3.880   4.101  -0.207  0.4035 -1.7193  0.8709
  145MOL0     H19567   4.093   4.284  -0.284 -1.1880  2.4018  2.0874
  145MOL0     H19568   3.922   4.307  -0.278  0.5281  0.1269  0.3399
  145MOL0     H19569   3.943   4.276  -0.495 -0.9132  0.9233  1.8295
  145MOL0     H19570   3.898   4.115  -0.460 -0.2888 -0.9948  0.4544
  145MOL0     H19571   4.150   4.059  -0.473 -0.8595 -1.9956 -0.3406
  145MOL0     H19572   4.176   4.230  -0.508 -0.2852 -0.8876 -0.0352
  145MOL0     H19573   4.036   4.075  -0.872  0.0465  2.8902 -0.7221
  145MOL0     H19574   4.256   4.065  -0.239  2.3184  0.5204 -0.6430
  145MOL0     H19575   4.465   4.019  -0.155 -0.5087 -1.0347  0.1292
  146MOL0     O19576   0.979   4.572   8.577  0.6259 -0.3887  0.5769
  146MOL0     C19577   0.867   4.514   8.588  0.3480 -0.4652 -0.8245
  146MOL0     O19578   0.828   4.436   8.687  0.3191  0.1208 -0.5714
  146MOL0     C19579   0.892   4.436   8.807  0.6548 -0.6411  0.5397
  146MOL0     C19580   0.967   4.543   8.872  0.4012  0.4055  0.4975
  146MOL0     C19581   1.017   4.521   8.999 -0.8407  0.7159  0.0609
  146MOL0     C19582   1.009   4.389   9.060  0.5266 -0.1032  0.3961
  146MOL0     O19583   1.064   4.369   9.182  0.1877 -0.3684  0.9939
  146MOL0     C19584   1.075   4.238   9.245 -0.2057  0.7602 -0.0063
  146MOL0     C19585   1.174   4.249   9.353  0.1991 -0.4672  0.3444
  146MOL0     C19586   1.206   4.118   9.418 -0.2050  0.1336  0.0474
  146MOL0     C19587   1.282   4.131   9.545 -0.1406  0.8615 -0.2154
  146MOL0     C19588   1.439   4.155   9.524  0.2058  0.8431 -0.0857
  146MOL0     C19589   1.504   4.162   9.660  0.6862 -0.0661 -0.1255
  146MOL0     C19590   1.651   4.219   9.667 -0.8111 -0.3930  0.5298
  146MOL0     C19591   1.768   4.128   9.624  1.0540  1.1027  0.3908
  146MOL0     N19592   1.899   4.175   9.662 -0.3766 -0.0449 -0.5250
  146MOL0     C19593   1.947   4.196   9.793 -0.2259  0.0886 -0.5341
  146MOL0     C19594   2.075   4.241   9.775  0.1389 -0.8328 -0.1011
  146MOL0     C19595   2.167   4.289   9.889  0.6184  0.3345 -0.6361
  146MOL0     C19596   2.320   4.244   9.895  0.8703 -0.1207 -0.3682
  146MOL0     C19597   2.342   4.095   9.841 -0.2326  0.2359 -0.4907
  146MOL0     C19598   2.259   3.991   9.898 -0.0973  0.6701  0.2836
  146MOL0     O19599   2.253   4.008  10.045 -0.6342 -0.2886 -0.6702
  146MOL0     C19600   2.334   3.932  10.125  0.8392  0.2642 -0.0529
  146MOL0     C19601   2.272   3.853  10.214 -1.6082  1.1635 -0.4690
  146MOL0     C19602   2.345   3.772  10.302 -1.2479 -0.3792  0.8004
  146MOL0     C19603   2.272   3.691  10.405 -0.5037 -0.4114  0.0362
  146MOL0     C19604   2.488   3.764  10.299 -0.1062 -0.5466  0.4915
  146MOL0     C19605   2.577   3.693  10.393 -0.4860 -0.1984 -0.4052
  146MOL0     O19606   2.707   3.711  10.383 -0.3471 -0.1572  0.4491
  146MOL0     C19607   2.795   3.707  10.486 -0.0594  0.3621 -0.2045
  146MOL0     C19608   2.877   3.815  10.518 -0.1886 -0.6566 -0.5793
  146MOL0     C19609   2.964   3.811  10.630  0.1690  0.4653 -0.4894
  146MOL0     C19610   2.966   3.699  10.709 -0.2589 -0.6609 -0.4031
  146MOL0     O19611   3.057   3.715  10.812  0.3362  0.6014  0.3894
  146MOL0     C19612   3.034   3.640  10.934 -0.9594  0.4873 -0.4473
  146MOL0     C19613   3.160   3.672  11.029  0.2490  0.2856 -0.3816
  146MOL0     C19614   3.303   3.643  10.970  0.3979  0.1908  0.2759
  146MOL0     C19615   3.315   3.529  10.869  0.4914 -0.1659  0.1019
  146MOL0     C19616   3.286   3.391  10.935 -0.1189 -0.0949 -0.3403
  146MOL0     C19617   3.287   3.274  10.835 -0.2661 -0.7575 -0.1183
  146MOL0     C19618   3.177   3.277  10.739  0.0299 -0.0792  0.4038
  146MOL0     C19619   3.152   3.152  10.641  0.6063 -0.8173 -0.3504
  146MOL0    Cl19620   3.079   3.014  10.723  0.0307  0.1799 -0.3413
  146MOL0     C19621   2.897   3.584  10.679 -0.5943 -0.6735 -0.1134
  146MOL0     C19622   2.809   3.597  10.570 -0.2669  0.0959  0.4585
  146MOL0     O19623   2.527   3.612  10.474  0.1875 -0.1508 -0.4926
  146MOL0     C19624   2.547   3.848  10.207  0.6401  0.2550 -0.0917
  146MOL0     C19625   2.471   3.931  10.122  0.1522 -0.4770 -0.0145
  146MOL0     N19626   2.106   4.251   9.638 -0.7294 -0.7752 -0.1680
  146MOL0     N19627   1.999   4.212   9.574 -0.0067 -0.3568  0.0199
  146MOL0     C19628   0.953   4.282   8.984 -0.0312  0.1236 -0.0855
  146MOL0     C19629   0.889   4.313   8.865 -0.3097  0.7340  0.7850
  146MOL0     C19630   0.765   4.524   8.483  0.1208  0.5348 -0.5208
  146MOL0     C19631   0.780   4.605   8.372 -0.4542  0.2107 -0.0488
  146MOL0     C19632   0.679   4.615   8.272 -0.7578 -0.5937 -0.7615
  146MOL0     C19633   0.566   4.538   8.285 -0.0241 -0.4276  0.2595
  146MOL0     O19634   0.481   4.546   8.172  0.2229  0.0076 -0.2512
  146MOL0     C19635   0.353   4.473   8.169 -0.3142  0.3567 -0.1297
  146MOL0     C19636   0.258   4.537   8.270 -0.1775 -0.6354 -0.2222
  146MOL0     C19637   0.119   4.472   8.266 -0.1276  0.1744  0.7115
  146MOL0     C19638   0.051   4.512   8.128  0.3204  0.4699  0.3218
  146MOL0     C19639  -0.072   4.430   8.121  0.1937  0.3213 -0.5776
  146MOL0     C19640  -0.186   4.390   8.151  1.2517  0.7952  0.1275
  146MOL0     C19641   0.561   4.444   8.387  0.0677 -0.7615  0.1523
  146MOL0     C19642   0.651   4.438   8.488  0.1878  0.3581 -0.5707
  146MOL0     H19643   0.990   4.637   8.823  0.4628 -0.5142 -1.3193
  146MOL0     H19644   1.077   4.598   9.046 -0.9977  0.7719  0.1717
  146MOL0     H19645   0.976   4.211   9.284  0.6603 -1.7432  0.6348
  146MOL0     H19646   1.124   4.176   9.170 -0.4815  0.9745 -0.3674
  146MOL0     H19647   1.267   4.287   9.311  0.4249  0.9307  1.9702
  146MOL0     H19648   1.142   4.326   9.424  0.8624 -0.5140  0.6995
  146MOL0     H19649   1.110   4.072   9.443 -0.0409 -2.0209 -2.7463
  146MOL0     H19650   1.269   4.063   9.347 -0.7820 -1.1410  0.4833
  146MOL0     H19651   1.243   4.212   9.607  0.7148  1.5686 -0.5805
  146MOL0     H19652   1.270   4.035   9.596 -5.0716  2.3750  2.0214
  146MOL0     H19653   1.484   4.070   9.472 -1.4601 -0.2337  0.1240
  146MOL0     H19654   1.449   4.238   9.454  1.6105  0.4423 -0.3746
  146MOL0     H19655   1.435   4.211   9.729 -1.0530 -0.2369 -1.6603
  146MOL0     H19656   1.511   4.061   9.701  2.8857 -1.4997 -3.5899
  146MOL0     H19657   1.662   4.311   9.608  0.6066  0.7713  2.4835
  146MOL0     H19658   1.671   4.247   9.771 -1.0778  2.4367 -0.0841
  146MOL0     H19659   1.769   4.111   9.516 -1.1113 -0.7068  0.5874
  146MOL0     H19660   1.750   4.028   9.664 -2.9382  0.9766 -1.2306
  146MOL0     H19661   1.893   4.178   9.886  0.8491 -1.0214 -0.0977
  146MOL0     H19662   2.157   4.397   9.877 -3.1232 -0.1286 -3.7414
  146MOL0     H19663   2.123   4.268   9.987 -0.7171  0.8163 -1.1069
  146MOL0     H19664   2.368   4.267   9.991  2.5375  0.3442 -1.2665
  146MOL0     H19665   2.369   4.316   9.829 -0.0966 -0.6626 -1.7340
  146MOL0     H19666   2.449   4.078   9.857 -0.4544 -1.3832 -0.5252
  146MOL0     H19667   2.316   4.098   9.735  0.3226  0.5744 -0.6190
  146MOL0     H19668   2.304   3.892   9.884 -0.5074  0.3464  1.1542
  146MOL0     H19669   2.167   3.988   9.838  0.5857  1.1707 -0.8302
  146MOL0     H19670   2.164   3.855  10.206 -1.5290  2.1519 -1.6901
  146MOL0     H19671   2.292   3.584  10.395 -0.2261 -0.3396 -0.1792
  146MOL0     H19672   2.290   3.720  10.509  3.2756 -0.0723 -0.5568
  146MOL0     H19673   2.165   3.701  10.383 -0.2742 -0.1956 -1.0354
  146MOL0     H19674   2.869   3.905  10.458 -4.9419 -0.0816  0.4534
  146MOL0     H19675   3.025   3.890  10.671  0.6656  0.2443 -0.7893
  146MOL0     H19676   2.952   3.683  10.992  2.0892  0.9207  4.0181
  146MOL0     H19677   3.025   3.533  10.916  1.4744 -0.4459  2.9360
  146MOL0     H19678   3.158   3.778  11.056  0.5828  0.6709 -1.8109
  146MOL0     H19679   3.140   3.613  11.119  2.7311  0.8450  0.6091
  146MOL0     H19680   3.379   3.637  11.049  0.7976 -2.4306 -0.2347
  146MOL0     H19681   3.339   3.732  10.917  1.1411  0.8170  1.7718
  146MOL0     H19682   3.251   3.542  10.781  1.5529 -0.9361 -0.8142
  146MOL0     H19683   3.416   3.536  10.828 -0.0325  2.4744 -0.9602
  146MOL0     H19684   3.191   3.390  10.987 -1.0448  3.3312 -1.6428
  146MOL0     H19685   3.362   3.379  11.013  0.6705  0.9253 -0.9139
  146MOL0     H19686   3.378   3.274  10.775  0.7428  0.9417  1.2795
  146MOL0     H19687   3.283   3.187  10.902  0.2582 -0.3019  0.5253
  146MOL0     H19688   3.178   3.362  10.671 -1.8904  0.3163  0.8307
  146MOL0     H19689   3.088   3.301  10.799 -1.0627  0.0899 -1.2295
  146MOL0     H19690   3.250   3.119  10.607 -0.0518 -2.9859 -0.2776
  146MOL0     H19691   3.084   3.178  10.559  0.6354  1.4149  0.2575
  146MOL0     H19692   2.893   3.493  10.737 -1.9402  1.6592  3.8517
  146MOL0     H19693   2.754   3.512  10.531 -1.7143  2.0958 -2.2411
  146MOL0     H19694   2.655   3.853  10.214  0.5652  0.7881  5.9598
  146MOL0     H19695   2.522   3.978  10.039  4.7983 -5.5277 -0.6000
  146MOL0     H19696   0.947   4.181   9.025 -0.3762  0.0525 -0.3174
  146MOL0     H19697   0.844   4.234   8.807  0.3556 -1.0661  2.5932
  146MOL0     H19698   0.877   4.650   8.350  1.3236 -2.6954  1.1938
  146MOL0     H19699   0.698   4.684   8.190  0.6511  0.4373  0.3702
  146MOL0     H19700   0.315   4.463   8.067  1.2201 -2.8400 -0.5244
  146MOL0     H19701   0.370   4.368   8.198 -0.2253  0.1334 -0.9692
  146MOL0     H19702   0.241   4.642   8.243 -3.2225 -0.7716  0.6929
  146MOL0     H19703   0.301   4.521   8.370  1.3329 -2.1680 -1.0617
  146MOL0     H19704   0.057   4.518   8.343 -1.0229  1.8763 -0.9440
  146MOL0     H19705   0.119   4.363   8.256 -0.4149  0.3097 -1.2095
  146MOL0     H19706   0.114   4.490   8.042 -0.1140  0.1176  0.0887
  146MOL0     H19707   0.028   4.618   8.120  0.4595  0.4015 -1.3828
  146MOL0     H19708  -0.287   4.372   8.183  0.5722 -0.8663 -2.6430
  146MOL0     H19709   0.479   4.373   8.391 -1.2731  0.7661  0.4788
  146MOL0     H19710   0.640   4.362   8.565  0.7325  0.6639 -0.1943
  147MOL0     O19711   6.391   9.064  11.176 -0.2602 -0.0584  0.1747
  147MOL0     C19712   6.308   8.979  11.142 -0.5436 -0.0006  0.0543
  147MOL0     O19713   6.333   8.850  11.096 -0.0011  0.3638 -1.1561
  147MOL0     C19714   6.471   8.821  11.087  0.0199 -0.4461 -0.5609
  147MOL0     C19715   6.565   8.893  11.012 -0.5642  0.1658  0.1677
  147MOL0     C19716   6.698   8.858  11.015 -0.1575 -0.0679  0.4113
  147MOL0     C19717   6.746   8.738  11.067 -0.8325 -0.6085 -1.1286
  147MOL0     O19718   6.889   8.725  11.058 -0.1221  0.6987 -0.1542
  147MOL0     C19719   6.937   8.639  11.165 -0.5922  0.1837 -0.1503
  147MOL0     C19720   7.081   8.654  11.160 -0.8654 -0.5976  0.3652
  147MOL0     C19721   7.134   8.590  11.287 -0.2605  0.2193 -0.8053
  147MOL0     C19722   7.284   8.580  11.294  0.3108  0.1786 -0.1805
  147MOL0     C19723   7.326   8.515  11.418 -0.7320 -0.2769 -0.3762
  147MOL0     C19724   7.299   8.595  11.541  0.3181 -0.0664  0.0616
  147MOL0     C19725   7.367   8.551  11.668 -0.2732 -0.0322 -0.0571
  147MOL0     C19726   7.348   8.413  11.705 -0.3163 -0.5960 -0.1797
  147MOL0     N19727   7.429   8.385  11.827  0.1889  0.2632  1.1600
  147MOL0     C19728   7.559   8.326  11.824  0.3237 -1.0157  0.0203
  147MOL0     C19729   7.584   8.284  11.952 -0.2053 -0.3634 -0.0749
  147MOL0     C19730   7.686   8.190  11.995  0.0969 -0.0909  0.5929
  147MOL0     C19731   7.824   8.217  11.936  0.9282 -0.2173  0.2498
  147MOL0     C19732   7.882   8.350  11.989 -0.2376  0.6890 -0.0347
  147MOL0     C19733   8.030   8.351  11.961 -0.2732  0.5110 -0.4275
  147MOL0     O19734   8.109   8.284  12.067  0.5695 -0.6075  0.7102
  147MOL0     C19735   8.197   8.361  12.132  0.3665  0.4132 -0.5657
  147MOL0     C19736   8.146   8.476  12.203  0.0338 -1.0428  0.0019
  147MOL0     C19737   8.231   8.543  12.286  0.3815 -0.2734 -0.8420
  147MOL0     C19738   8.173   8.646  12.381  0.1663 -0.0125  0.1681
  147MOL0     C19739   8.370   8.510  12.299 -0.2146  0.3865 -0.2150
  147MOL0     C19740   8.457   8.575  12.398  0.7620  0.6481 -0.1867
  147MOL0     O19741   8.566   8.639  12.350 -0.2243 -0.3914  0.4123
  147MOL0     C19742   8.647   8.717  12.434 -0.4913  0.1622 -0.4430
  147MOL0     C19743   8.731   8.662  12.530 -1.0777 -0.0435 -0.0409
  147MOL0     C19744   8.821   8.736  12.600 -0.6936  0.0805  0.4913
  147MOL0     C19745   8.838   8.875  12.569  0.3416 -0.3041 -1.0636
  147MOL0     O19746   8.927   8.957  12.634 -0.2345 -0.3945  0.2442
  147MOL0     C19747   9.063   8.899  12.635 -0.8546 -0.0670  0.2107
  147MOL0     C19748   9.111   8.837  12.505  0.2991  0.0145  0.3571
  147MOL0     C19749   9.262   8.824  12.494  1.5745  0.1196 -0.3875
  147MOL0     C19750   9.331   8.735  12.586 -0.4423 -0.4992  0.6249
  147MOL0     C19751   9.479   8.738  12.571 -0.0922 -0.0047 -0.5501
  147MOL0     C19752   9.528   8.666  12.448  0.2198  1.2695 -0.1979
  147MOL0     C19753   9.680   8.668  12.437  0.4651  0.9510  0.1536
  147MOL0     C19754   9.734   8.580  12.325  0.6045 -0.4447 -0.5022
  147MOL0    Cl19755   9.892   8.650  12.256 -0.0770 -0.1363  0.3911
  147MOL0     C19756   8.756   8.940  12.474 -0.3466  0.5395 -0.5979
  147MOL0     C19757   8.656   8.854  12.417  0.3205 -1.0383  0.4399
  147MOL0     O19758   8.429   8.562  12.511  0.3437 -0.2093 -0.6655
  147MOL0     C19759   8.415   8.399  12.222  0.4533  0.2237 -0.0766
  147MOL0     C19760   8.327   8.326  12.144  0.3125  0.0894  0.1993
  147MOL0     N19761   7.468   8.319  12.023 -0.1311 -0.2860 -0.8379
  147MOL0     N19762   7.391   8.390  11.955 -0.0112  0.3121  0.2012
  147MOL0     C19763   6.657   8.664  11.143 -0.1121 -0.1596  0.6033
  147MOL0     C19764   6.525   8.709  11.151 -0.1724  0.3863 -0.1720
  147MOL0     C19765   6.167   9.023  11.131 -0.7858  0.5634  0.3952
  147MOL0     C19766   6.075   8.951  11.052  0.4357  0.1503 -0.4614
  147MOL0     C19767   5.947   9.004  11.034  0.8888  0.4651  0.1271
  147MOL0     C19768   5.896   9.117  11.105 -0.9132 -0.1971 -0.1425
  147MOL0     O19769   5.770   9.146  11.095 -0.0131  0.3835  0.4197
  147MOL0     C19770   5.718   9.229  11.194  0.3244 -0.3620  0.9597
  147MOL0     C19771   5.570   9.271  11.167  0.2428  0.1760 -0.3088
  147MOL0     C19772   5.567   9.368  11.050  0.8857 -0.0060  0.3319
  147MOL0     C19773   5.642   9.502  11.063  0.5260  0.2059  0.2776
  147MOL0     C19774   5.635   9.579  10.937  0.0547  1.0229 -0.2574
  147MOL0     C19775   5.616   9.630  10.830  0.1953 -0.6661 -0.5009
  147MOL0     C19776   5.993   9.185  11.182 -0.1865 -0.7297 -0.3796
  147MOL0     C19777   6.123   9.139  11.197  0.5286  0.2326  0.3344
  147MOL0     H19778   6.543   8.970  10.938 -1.1971  0.6216  0.8166
  147MOL0     H19779   6.773   8.913  10.958  1.2402 -3.8289 -1.7512
  147MOL0     H19780   6.894   8.677  11.258  0.2696  1.9684 -0.4408
  147MOL0     H19781   6.909   8.534  11.155 -1.7606  0.6337 -2.1689
  147MOL0     H19782   7.120   8.604  11.070 -2.3011  1.1916 -1.3175
  147MOL0     H19783   7.114   8.758  11.157 -1.2442 -0.4519  1.0121
  147MOL0     H19784   7.082   8.643  11.368 -0.5426 -0.2604 -0.6691
  147MOL0     H19785   7.098   8.487  11.290 -0.5283  0.3200  1.4890
  147MOL0     H19786   7.325   8.512  11.219  1.0137  2.1058 -1.6277
  147MOL0     H19787   7.337   8.676  11.294  1.0471 -0.1970 -1.6342
  147MOL0     H19788   7.278   8.418  11.431 -0.3619 -0.5352 -0.9025
  147MOL0     H19789   7.434   8.495  11.414  0.0735  3.3685 -0.7768
  147MOL0     H19790   7.327   8.699  11.520  0.7746 -0.0862  0.5737
  147MOL0     H19791   7.190   8.590  11.555 -0.1178  1.8578 -1.9997
  147MOL0     H19792   7.473   8.577  11.655 -0.5079  0.6080 -0.6960
  147MOL0     H19793   7.326   8.612  11.749 -1.4426  0.5035 -1.0313
  147MOL0     H19794   7.367   8.349  11.618  0.7720 -1.7701  0.8875
  147MOL0     H19795   7.241   8.397  11.720 -0.5463  0.7806 -0.2279
  147MOL0     H19796   7.626   8.310  11.741  3.1258  0.2415  1.8848
  147MOL0     H19797   7.701   8.181  12.103  2.2968 -1.0711  0.2745
  147MOL0     H19798   7.654   8.090  11.969 -1.8013  0.5883  0.1831
  147MOL0     H19799   7.832   8.229  11.828  2.2723 -0.5012  0.2952
  147MOL0     H19800   7.898   8.145  11.974  0.3301 -1.2163 -0.4505
  147MOL0     H19801   7.846   8.366  12.091 -0.9428  2.8742 -0.5647
  147MOL0     H19802   7.847   8.433  11.927 -0.9129 -1.0514 -2.1019
  147MOL0     H19803   8.051   8.458  11.957 -0.7797  0.7710  2.1152
  147MOL0     H19804   8.043   8.316  11.859  2.8681 -1.0582  0.3683
  147MOL0     H19805   8.046   8.519  12.200 -0.0208 -1.1449  0.2433
  147MOL0     H19806   8.173   8.610  12.484  0.3399  2.0568  0.9451
  147MOL0     H19807   8.223   8.743  12.375 -0.5855  0.3337 -0.6389
  147MOL0     H19808   8.068   8.669  12.361  0.5305  0.2559 -1.6309
  147MOL0     H19809   8.726   8.557  12.559  1.7844 -0.4319 -0.7039
  147MOL0     H19810   8.880   8.690  12.678 -0.5728  0.8034  0.8402
  147MOL0     H19811   9.146   8.956  12.678 -1.4470 -0.4330  1.8945
  147MOL0     H19812   9.044   8.812  12.698  0.1692 -0.2026  0.3454
  147MOL0     H19813   9.069   8.739  12.481 -0.0267  0.8090 -2.7666
  147MOL0     H19814   9.077   8.898  12.422  1.2371  0.0605 -0.0059
  147MOL0     H19815   9.290   8.929  12.501  0.0318  0.4949  0.5653
  147MOL0     H19816   9.280   8.786  12.393 -1.3030 -0.2513 -0.8451
  147MOL0     H19817   9.303   8.761  12.689  1.7191  2.1427  0.6616
  147MOL0     H19818   9.306   8.634  12.553 -0.0779 -0.0677 -1.0913
  147MOL0     H19819   9.533   8.686  12.651  0.3245 -3.8655 -3.0574
  147MOL0     H19820   9.507   8.843  12.577 -3.9642  1.0811  2.1246
  147MOL0     H19821   9.502   8.560  12.453 -0.6258  1.5278  2.6946
  147MOL0     H19822   9.486   8.699  12.353  1.3433 -1.5816 -1.8062
  147MOL0     H19823   9.729   8.635  12.529  0.5765  1.1016  0.1488
  147MOL0     H19824   9.711   8.772  12.418  4.2541 -0.3387 -1.7495
  147MOL0     H19825   9.656   8.574  12.250 -3.8127  2.2357  3.3146
  147MOL0     H19826   9.768   8.487  12.372  2.0318 -0.7913 -2.1464
  147MOL0     H19827   8.764   9.048  12.464  0.6350  0.4017 -1.5139
  147MOL0     H19828   8.591   8.893  12.340  0.3960  1.2144  1.4365
  147MOL0     H19829   8.522   8.385  12.227  0.3359 -0.6769  0.0869
  147MOL0     H19830   8.361   8.249  12.076  1.3364  0.4193  0.3232
  147MOL0     H19831   6.695   8.573  11.189  1.2029 -0.4414 -0.9554
  147MOL0     H19832   6.453   8.643  11.198  0.2056 -0.1417 -0.3255
  147MOL0     H19833   6.096   8.870  10.983 -2.2052 -1.1275  0.1046
  147MOL0     H19834   5.877   8.943  10.978  0.4376  0.5248  0.6127
  147MOL0     H19835   5.716   9.172  11.287 -2.2984  0.0213  1.2004
  147MOL0     H19836   5.781   9.318  11.207  2.2573 -1.6119  0.6667
  147MOL0     H19837   5.526   9.324  11.252 -2.2272 -2.8058  0.4702
  147MOL0     H19838   5.504   9.185  11.158  0.1649 -0.0646  1.9880
  147MOL0     H19839   5.461   9.386  11.031  0.1501 -3.2429  0.8775
  147MOL0     H19840   5.616   9.309  10.972 -1.0746  1.1149 -1.8856
  147MOL0     H19841   5.748   9.485  11.084  0.9999  1.7452 -0.7061
  147MOL0     H19842   5.605   9.554  11.152 -0.6275  1.8723 -1.1318
  147MOL0     H19843   5.594   9.688  10.742 -0.1995  1.4699  0.9410
  147MOL0     H19844   5.963   9.273  11.238  0.9474 -0.8011  0.3644
  147MOL0     H19845   6.184   9.193  11.269  2.8370 -3.5042  1.4414
  148MOL0     O19846   9.185   7.563   7.793  0.0827  0.5040 -0.0970
  148MOL0     C19847   9.199   7.680   7.778  0.8166 -0.5958  0.4233
  148MOL0     O19848   9.267   7.765   7.859  0.0659  0.1141  0.0860
  148MOL0     C19849   9.350   7.710   7.956  0.5692  1.0703 -0.6902
  148MOL0     C19850   9.297   7.630   8.059  0.1562 -0.4337  0.4518
  148MOL0     C19851   9.384   7.572   8.147 -0.6378 -0.4045 -0.3243
  148MOL0     C19852   9.522   7.599   8.154 -0.4699  0.0937  0.4848
  148MOL0     O19853   9.584   7.534   8.256  0.5307  0.7223  0.6099
  148MOL0     C19854   9.718   7.558   8.259 -0.0849  0.5176 -0.3019
  148MOL0     C19855   9.769   7.498   8.388 -0.3301  0.7234 -0.2945
  148MOL0     C19856   9.907   7.573   8.415 -1.0354 -0.8551 -0.2624
  148MOL0     C19857   9.985   7.525   8.532 -0.3632 -0.0450  0.1554
  148MOL0     C19858  10.033   7.381   8.516  0.8443 -0.2061 -0.8011
  148MOL0     C19859  10.086   7.324   8.641 -0.6090 -0.4975  0.4048
  148MOL0     C19860  10.148   7.180   8.627  0.7490 -0.2907 -0.2323
  148MOL0     C19861  10.282   7.201   8.554 -0.5531 -0.3167 -0.2171
  148MOL0     N19862  10.379   7.255   8.650  0.7190 -0.6967  0.6264
  148MOL0     C19863  10.427   7.382   8.634 -0.8528 -0.4003  0.1446
  148MOL0     C19864  10.513   7.393   8.741 -0.0553  0.3768 -0.1360
  148MOL0     C19865  10.561   7.525   8.798  0.4226 -0.1674 -0.4908
  148MOL0     C19866  10.646   7.603   8.705  0.4428 -1.1552  0.3024
  148MOL0     C19867  10.750   7.529   8.639 -0.6454 -0.1119 -0.7153
  148MOL0     C19868  10.864   7.467   8.727 -0.2383 -0.5236 -0.2150
  148MOL0     O19869  10.956   7.408   8.641  0.2862  0.1452  0.2299
  148MOL0     C19870  10.965   7.277   8.607  0.0676  1.0196  0.4800
  148MOL0     C19871  10.854   7.198   8.590 -0.8628  0.0157 -0.2127
  148MOL0     C19872  10.859   7.068   8.538  0.6638 -0.0609  0.4699
  148MOL0     C19873  10.733   7.000   8.522  0.0546  0.2207 -0.0075
  148MOL0     C19874  10.987   7.012   8.514 -0.1738  0.3008 -0.0528
  148MOL0     C19875  11.019   6.867   8.483 -0.5250 -0.5128 -0.1356
  148MOL0     O19876  10.945   6.766   8.524 -0.0985  0.6396  0.0242
  148MOL0     C19877  10.979   6.634   8.500  0.1914 -0.1905 -0.1534
  148MOL0     C19878  11.016   6.586   8.370  1.1664 -0.8719  0.3487
  148MOL0     C19879  11.062   6.460   8.357  0.2912 -0.8010  0.8097
  148MOL0     C19880  11.064   6.374   8.464  0.0101  0.1537  1.2539
  148MOL0     O19881  11.089   6.242   8.425  0.2661 -0.0524  0.1789
  148MOL0     C19882  11.065   6.143   8.530 -0.7199  0.0810  0.1130
  148MOL0     C19883  11.169   6.118   8.638 -0.6816  0.8830  0.1450
  148MOL0     C19884  11.164   5.972   8.678 -0.0241 -0.7259 -0.4594
  148MOL0     C19885  11.228   5.952   8.818 -0.5968  0.2173  0.4344
  148MOL0     C19886  11.246   5.807   8.852 -0.1469 -0.1939 -0.6916
  148MOL0     C19887  11.267   5.783   9.000  0.2737  0.3892 -0.5776
  148MOL0     C19888  11.415   5.794   9.034 -0.1408  0.7008 -0.6095
  148MOL0     C19889  11.444   5.791   9.180 -0.2109 -0.1859  0.6932
  148MOL0    Cl19890  11.385   5.652   9.273 -0.2035 -0.0947 -0.2329
  148MOL0     C19891  11.029   6.419   8.592 -0.1066  0.8987  0.8509
  148MOL0     C19892  10.986   6.548   8.613 -0.0111  0.3878  0.4939
  148MOL0     O19893  11.122   6.856   8.417 -0.4892  0.5246 -0.6124
  148MOL0     C19894  11.101   7.092   8.535  0.2634 -0.0904 -0.5458
  148MOL0     C19895  11.090   7.223   8.568  0.5601 -0.4999  0.0756
  148MOL0     N19896  10.508   7.274   8.818  0.3921 -0.3504  0.8932
  148MOL0     N19897  10.426   7.198   8.756 -0.2888 -0.0911 -0.5459
  148MOL0     C19898   9.571   7.692   8.059 -0.1541  0.7367  0.1036
  148MOL0     C19899   9.484   7.739   7.959  0.3168 -0.8686  0.0646
  148MOL0     C19900   9.117   7.748   7.664 -0.8839  0.0776 -0.4200
  148MOL0     C19901   9.146   7.869   7.610 -0.5402  0.4412  0.0299
  148MOL0     C19902   9.061   7.920   7.512 -0.0517 -0.0359 -0.7621
  148MOL0     C19903   8.955   7.856   7.452  0.1233  1.2220  0.3449
  148MOL0     O19904   8.887   7.916   7.347  0.1488 -0.5362 -0.1587
  148MOL0     C19905   8.752   7.874   7.329  0.3548  0.2166 -0.6206
  148MOL0     C19906   8.755   7.751   7.231  0.1803  0.0476  0.0469
  148MOL0     C19907   8.624   7.673   7.219 -1.1009  0.1584  1.1225
  148MOL0     C19908   8.611   7.601   7.087  0.4549 -0.4496  0.2357
  148MOL0     C19909   8.720   7.511   7.050 -0.7153  0.1568 -0.4757
  148MOL0     C19910   8.824   7.453   7.015  0.2840  0.5515 -0.0846
  148MOL0     C19911   8.920   7.733   7.514 -0.3708  0.3495  0.5875
  148MOL0     C19912   9.006   7.685   7.620  0.1221  1.2202  0.7535
  148MOL0     H19913   9.189   7.619   8.060  0.2096 -0.9791  1.1598
  148MOL0     H19914   9.353   7.507   8.229 -0.1025 -0.1158  0.1143
  148MOL0     H19915   9.768   7.515   8.172 -0.1746  0.1031 -0.1524
  148MOL0     H19916   9.751   7.662   8.260  0.2081  0.4619 -2.1134
  148MOL0     H19917   9.709   7.524   8.476  1.0969  0.7737  0.6951
  148MOL0     H19918   9.774   7.389   8.385  0.5487  0.7789 -2.1550
  148MOL0     H19919   9.967   7.564   8.324  0.8380 -3.7613  1.0972
  148MOL0     H19920   9.895   7.681   8.424 -0.9698 -0.7639 -1.1908
  148MOL0     H19921  10.070   7.594   8.539  0.5629 -1.0256 -1.0333
  148MOL0     H19922   9.917   7.539   8.616 -0.0365  2.8232  0.0445
  148MOL0     H19923   9.956   7.317   8.473  0.7166 -0.0230 -0.8464
  148MOL0     H19924  10.119   7.389   8.449  1.0598  0.2418 -0.4795
  148MOL0     H19925  10.153   7.396   8.689  2.0799 -2.4107 -0.2625
  148MOL0     H19926   9.998   7.320   8.707 -1.0502  1.7801  0.0508
  148MOL0     H19927  10.151   7.134   8.726 -2.7068  0.1344  0.1956
  148MOL0     H19928  10.082   7.108   8.577  0.1078 -1.2166  1.8281
  148MOL0     H19929  10.275   7.259   8.462  0.1403 -0.6960 -0.5190
  148MOL0     H19930  10.314   7.100   8.526  0.4826  0.8872 -3.9725
  148MOL0     H19931  10.390   7.458   8.566  2.9187 -0.3372 -2.0920
  148MOL0     H19932  10.474   7.582   8.833  1.4090  1.9747 -1.3406
  148MOL0     H19933  10.622   7.504   8.886  1.1247 -1.4545 -1.2616
  148MOL0     H19934  10.682   7.692   8.758  1.8662 -0.1879 -2.1214
  148MOL0     H19935  10.572   7.640   8.633 -0.0541  1.7429  2.1272
  148MOL0     H19936  10.793   7.609   8.577  1.0164 -0.4014  0.0049
  148MOL0     H19937  10.715   7.445   8.577  0.1763 -2.0571  1.3184
  148MOL0     H19938  10.827   7.392   8.797  1.9891 -1.2862  0.2298
  148MOL0     H19939  10.913   7.542   8.790 -1.0172  0.0981 -0.3371
  148MOL0     H19940  10.755   7.239   8.605  0.0765  2.6946 -0.8694
  148MOL0     H19941  10.709   6.998   8.415  0.5228  1.4221 -0.1574
  148MOL0     H19942  10.730   6.895   8.551 -3.4616  0.3867  0.6821
  148MOL0     H19943  10.653   7.053   8.575  0.1491  0.5446 -0.1829
  148MOL0     H19944  11.011   6.648   8.281 -0.7893 -2.0175 -0.4074
  148MOL0     H19945  11.086   6.415   8.261  0.7565  0.5604  0.2679
  148MOL0     H19946  10.969   6.146   8.582  0.0503  0.0702  1.5743
  148MOL0     H19947  11.064   6.051   8.472 -0.7726 -0.0460  0.3129
  148MOL0     H19948  11.266   6.143   8.595 -0.5892 -0.7881 -0.7024
  148MOL0     H19949  11.155   6.175   8.730 -1.5347 -3.4952  3.0261
  148MOL0     H19950  11.220   5.923   8.598  2.1490  1.7710 -0.6024
  148MOL0     H19951  11.062   5.934   8.673 -0.2290 -0.0068 -3.3615
  148MOL0     H19952  11.326   6.002   8.820  0.4099 -1.6230 -0.2219
  148MOL0     H19953  11.169   5.998   8.897  0.2478  0.9275  0.6764
  148MOL0     H19954  11.338   5.770   8.805  1.7764 -0.5036  2.9406
  148MOL0     H19955  11.152   5.764   8.816 -0.8222  1.4977 -1.0459
  148MOL0     H19956  11.200   5.838   9.066  0.1580 -2.1462  1.6247
  148MOL0     H19957  11.248   5.676   9.016  1.2543  0.2264 -0.4643
  148MOL0     H19958  11.459   5.886   8.994  3.1737  0.2841  1.6798
  148MOL0     H19959  11.473   5.710   8.996 -2.2586 -0.9988 -0.2791
  148MOL0     H19960  11.389   5.872   9.228  1.6511  0.8442  1.2026
  148MOL0     H19961  11.551   5.807   9.195 -0.4496 -0.7126  3.4000
  148MOL0     H19962  11.043   6.350   8.674 -2.2011  0.2763  0.7343
  148MOL0     H19963  10.958   6.590   8.709  0.3961  2.9201 -0.4024
  148MOL0     H19964  11.205   7.067   8.522  0.4422  0.7484 -0.8176
  148MOL0     H19965  11.178   7.283   8.581  0.2411  0.2330 -1.0183
  148MOL0     H19966   9.676   7.715   8.050 -0.0297 -0.0833 -0.6174
  148MOL0     H19967   9.516   7.806   7.880  0.4979  0.5817  1.3133
  148MOL0     H19968   9.229   7.931   7.641  1.4742 -2.0417 -0.0439
  148MOL0     H19969   9.093   8.011   7.461 -0.7412  0.1431 -0.8813
  148MOL0     H19970   8.706   7.847   7.424 -1.2140  4.8029  0.1555
  148MOL0     H19971   8.690   7.956   7.293 -2.3019 -1.0942  0.6724
  148MOL0     H19972   8.833   7.678   7.254 -0.5490 -0.9242 -0.4739
  148MOL0     H19973   8.789   7.785   7.133  0.4568  3.7725  1.2720
  148MOL0     H19974   8.542   7.746   7.223 -1.5278 -0.0395 -1.8164
  148MOL0     H19975   8.633   7.597   7.297 -0.0883 -0.9770 -0.0420
  148MOL0     H19976   8.619   7.668   7.001 -0.3203  2.1628  2.1019
  148MOL0     H19977   8.519   7.542   7.082 -0.7651  1.0924  2.8251
  148MOL0     H19978   8.907   7.396   6.979 -0.8166  0.0186 -1.9028
  148MOL0     H19979   8.827   7.680   7.495 -0.4945  0.2623  1.3868
  148MOL0     H19980   8.984   7.587   7.661  2.6699 -0.8685 -2.4132
  149MOL0     O19981   3.645   2.922  10.305 -0.2939  0.1050 -0.2519
  149MOL0     C19982   3.711   2.822  10.316 -0.6006  0.5531 -0.0851
  149MOL0     O19983   3.667   2.701  10.353  0.5615 -0.7004  0.4647
  149MOL0     C19984   3.531   2.693  10.381  0.1630  0.6722 -0.7205
  149MOL0     C19985   3.478   2.737  10.510  0.0327 -0.5010 -0.1379
  149MOL0     C19986   3.345   2.721  10.553 -0.2898  0.1780  0.4102
  149MOL0     C19987   3.260   2.670  10.456  0.1322 -0.1899  0.7612
  149MOL0     O19988   3.120   2.653  10.471 -0.7037  0.2338  0.5354
  149MOL0     C19989   3.084   2.615  10.608  0.5255 -0.2566 -1.7784
  149MOL0     C19990   2.939   2.644  10.639 -0.2703 -0.2968  0.0698
  149MOL0     C19991   2.853   2.539  10.555 -0.8633  0.0899  1.2988
  149MOL0     C19992   2.703   2.582  10.523  0.3217  0.6529 -0.1662
  149MOL0     C19993   2.590   2.567  10.637  0.2119  0.0843 -0.6263
  149MOL0     C19994   2.565   2.416  10.662  1.1732  1.0665 -0.1884
  149MOL0     C19995   2.437   2.393  10.741  0.0002 -0.9127 -0.2174
  149MOL0     C19996   2.419   2.256  10.803 -1.2703 -0.0546 -0.1424
  149MOL0     N19997   2.308   2.261  10.891 -0.6542  0.0427 -0.5850
  149MOL0     C19998   2.171   2.245  10.866  0.0708  0.2029 -0.4862
  149MOL0     C19999   2.108   2.254  10.983 -0.8120 -0.3659  0.4607
  149MOL0     C20000   1.962   2.254  11.017  0.2702  0.5396 -0.0294
  149MOL0     C20001   1.917   2.156  11.122 -0.3278 -0.7032 -0.2345
  149MOL0     C20002   1.951   2.006  11.085 -0.6567  0.1660 -0.4983
  149MOL0     C20003   1.873   1.900  11.164  1.1899  0.5094 -0.1465
  149MOL0     O20004   1.725   1.911  11.153 -0.2321  0.1043 -0.1683
  149MOL0     C20005   1.658   1.895  11.031 -0.5441 -0.3125 -1.1524
  149MOL0     C20006   1.524   1.933  11.015  0.3922  0.2558 -0.1872
  149MOL0     C20007   1.452   1.903  10.894 -0.6369 -0.9696 -0.5812
  149MOL0     C20008   1.311   1.958  10.900 -1.1009 -0.6720  0.6006
  149MOL0     C20009   1.520   1.841  10.783  0.3581  0.1586  0.3251
  149MOL0     C20010   1.459   1.814  10.650 -0.4218 -0.0806 -0.1595
  149MOL0     O20011   1.535   1.757  10.551 -0.5820 -0.5125 -0.5205
  149MOL0     C20012   1.476   1.732  10.431  0.2470  0.5485 -0.0548
  149MOL0     C20013   1.427   1.604  10.403 -0.3799  0.2309  0.6258
  149MOL0     C20014   1.344   1.578  10.291 -0.4140  0.2173 -0.5568
  149MOL0     C20015   1.309   1.684  10.212 -0.1340  0.2691 -0.1592
  149MOL0     O20016   1.239   1.677  10.098  0.1806  0.8931  0.8456
  149MOL0     C20017   1.211   1.547  10.037 -0.3303  0.0729 -0.1869
  149MOL0     C20018   1.140   1.558   9.898  0.7942 -0.4966  0.3032
  149MOL0     C20019   1.171   1.432   9.807 -0.6018 -0.4261  0.7235
  149MOL0     C20020   1.089   1.445   9.684 -0.9430 -0.1154  0.5939
  149MOL0     C20021   1.144   1.360   9.567  0.7121 -0.3191 -0.4660
  149MOL0     C20022   1.042   1.350   9.460  0.3905 -0.0792 -0.4035
  149MOL0     C20023   1.021   1.493   9.383  0.4512  0.2967 -0.5850
  149MOL0     C20024   0.923   1.459   9.273  0.2052 -0.2507  0.0708
  149MOL0    Cl20025   0.866   1.622   9.198 -0.1522 -0.7934 -0.6180
  149MOL0     C20026   1.356   1.810  10.235 -0.6811  0.7649 -0.2752
  149MOL0     C20027   1.428   1.835  10.352  0.7400  0.9323 -0.6167
  149MOL0     O20028   1.337   1.846  10.643  0.1277  0.5082 -0.9325
  149MOL0     C20029   1.659   1.795  10.807  0.6761 -0.2334 -0.2609
  149MOL0     C20030   1.720   1.832  10.925  0.1526  0.4015 -0.4709
  149MOL0     N20031   2.198   2.255  11.084 -0.3149  0.0878 -0.2814
  149MOL0     N20032   2.323   2.249  11.031 -0.1059 -0.5067 -0.0809
  149MOL0     C20033   3.313   2.625  10.327  0.4230  0.1112 -0.7429
  149MOL0     C20034   3.444   2.628  10.293  0.1813 -0.2165  0.4704
  149MOL0     C20035   3.858   2.839  10.280 -0.0390 -0.5489  0.2689
  149MOL0     C20036   3.942   2.725  10.256  0.2569 -0.5005 -1.2532
  149MOL0     C20037   4.071   2.737  10.202  0.2265  0.4784 -0.6548
  149MOL0     C20038   4.129   2.854  10.167 -0.1130 -0.0112 -0.1987
  149MOL0     O20039   4.258   2.871  10.125 -0.5457 -0.2166  0.9475
  149MOL0     C20040   4.325   2.766  10.058 -0.7261  0.7915  0.4926
  149MOL0     C20041   4.479   2.792  10.039  0.7050 -0.9693  0.5054
  149MOL0     C20042   4.549   2.848  10.162 -0.7380 -0.4625  0.1601
  149MOL0     C20043   4.704   2.847  10.129 -0.0154 -0.8599 -0.9331
  149MOL0     C20044   4.786   2.911  10.238  0.1271  1.0887 -0.3773
  149MOL0     C20045   4.834   2.974  10.324 -0.0030 -0.4579  0.7192
  149MOL0     C20046   4.050   2.968  10.190  0.2566 -0.7027  0.1332
  149MOL0     C20047   3.916   2.960  10.240  0.1133  0.1378  0.4208
  149MOL0     H20048   3.549   2.778  10.581  1.0943  2.1340 -2.5258
  149MOL0     H20049   3.328   2.756  10.655 -0.8664  0.7097  0.1378
  149MOL0     H20050   3.091   2.505  10.611  1.9817 -0.2497 -3.5401
  149MOL0     H20051   3.154   2.654  10.682  1.1494 -1.9341 -1.4254
  149MOL0     H20052   2.914   2.638  10.746  1.4614  0.8101  0.5707
  149MOL0     H20053   2.918   2.743  10.598 -0.0768  0.8252  2.4789
  149MOL0     H20054   2.892   2.533  10.453  1.2520  1.1235  2.0026
  149MOL0     H20055   2.844   2.442  10.606 -1.3628  0.5017  2.0111
  149MOL0     H20056   2.692   2.683  10.481 -1.9194  0.8962  0.8748
  149MOL0     H20057   2.670   2.520  10.439  1.0752  2.1285 -1.6168
  149MOL0     H20058   2.623   2.615  10.730 -0.3743 -0.7989  0.0634
  149MOL0     H20059   2.504   2.618  10.593  0.3619 -1.2689 -2.5960
  149MOL0     H20060   2.558   2.360  10.568  5.2488 -0.5342  0.2405
  149MOL0     H20061   2.645   2.373  10.724  0.3626  0.7112  0.6327
  149MOL0     H20062   2.420   2.460  10.825 -1.8801 -0.1411 -1.1593
  149MOL0     H20063   2.351   2.400  10.673 -1.0302 -5.5618  0.2741
  149MOL0     H20064   2.502   2.222  10.865 -2.3971  3.3277  3.7462
  149MOL0     H20065   2.408   2.187  10.719  0.4969  1.4117 -1.6598
  149MOL0     H20066   2.129   2.221  10.769 -0.4119  0.4652 -0.3432
  149MOL0     H20067   1.925   2.353  11.042 -1.7491 -0.1956  0.0408
  149MOL0     H20068   1.918   2.226  10.921  1.2812  0.6623 -0.5489
  149MOL0     H20069   1.810   2.176  11.136 -0.1717 -0.4909  0.7322
  149MOL0     H20070   1.963   2.177  11.219  0.0558  0.0948 -0.5818
  149MOL0     H20071   2.052   1.980  11.119 -1.2464  0.8153  2.0019
  149MOL0     H20072   1.949   1.979  10.980  3.5898 -1.2216 -0.3891
  149MOL0     H20073   1.900   1.911  11.270 -3.1730 -0.9018  1.3186
  149MOL0     H20074   1.904   1.799  11.136  1.8938  0.5965  0.2950
  149MOL0     H20075   1.487   1.993  11.097  3.1858 -0.4019  1.7192
  149MOL0     H20076   1.236   1.887  10.864 -1.6928  0.9716 -1.6809
  149MOL0     H20077   1.291   1.979  11.005  1.6433 -2.1293  1.5222
  149MOL0     H20078   1.298   2.053  10.847 -1.4456 -0.5989  0.8155
  149MOL0     H20079   1.457   1.513  10.455 -0.4546  1.5343  3.1274
  149MOL0     H20080   1.301   1.481  10.270 -0.9843  0.3209  0.0872
  149MOL0     H20081   1.310   1.501  10.029  0.4979  1.2259  2.5414
  149MOL0     H20082   1.149   1.492  10.108  0.0566  0.3138  0.3482
  149MOL0     H20083   1.033   1.560   9.917  0.4354  2.9536 -1.4048
  149MOL0     H20084   1.179   1.651   9.856 -0.8956  0.8720  1.6188
  149MOL0     H20085   1.139   1.341   9.859  2.8417 -1.9716  0.4422
  149MOL0     H20086   1.279   1.424   9.789 -0.5779  0.3576  0.4943
  149MOL0     H20087   0.990   1.411   9.717 -0.4926 -4.1207 -1.5137
  149MOL0     H20088   1.085   1.544   9.639  3.2941  0.8520  1.8685
  149MOL0     H20089   1.157   1.263   9.617 -0.2460  0.8456  2.2508
  149MOL0     H20090   1.239   1.393   9.525  2.1550 -1.9434  1.2935
  149MOL0     H20091   1.081   1.284   9.381 -0.4239 -0.9271 -0.1091
  149MOL0     H20092   0.949   1.316   9.505  1.5925  0.3506  2.6022
  149MOL0     H20093   1.115   1.527   9.338 -1.8544  1.1556 -5.4631
  149MOL0     H20094   0.993   1.576   9.448  3.5453  2.2867 -1.5972
  149MOL0     H20095   0.834   1.409   9.314 -0.2097  0.3819 -0.0358
  149MOL0     H20096   0.981   1.405   9.198 -0.8270  0.3834 -1.2325
  149MOL0     H20097   1.332   1.895  10.172 -1.2602  1.3154  0.6704
  149MOL0     H20098   1.453   1.931  10.397 -0.2182  0.9630 -0.1329
  149MOL0     H20099   1.712   1.743  10.728  0.0007 -1.9444  0.3630
  149MOL0     H20100   1.824   1.805  10.941  0.1209 -0.6144 -1.7961
  149MOL0     H20101   3.251   2.570  10.256  0.4221 -1.4053  0.3916
  149MOL0     H20102   3.472   2.594  10.193 -2.0791 -0.9670  0.0355
  149MOL0     H20103   3.915   2.624  10.284 -0.5052  0.6042  2.5715
  149MOL0     H20104   4.126   2.645  10.187 -2.7806 -2.4869  4.0077
  149MOL0     H20105   4.327   2.687  10.134 -1.1164  1.0956  0.8180
  149MOL0     H20106   4.291   2.722   9.964  1.1424  0.5652 -0.1149
  149MOL0     H20107   4.499   2.866   9.960 -0.2575 -0.1388  1.0185
  149MOL0     H20108   4.523   2.698  10.005 -0.1582 -0.6944 -1.5295
  149MOL0     H20109   4.530   2.795  10.256 -0.4807  1.6994  1.4992
  149MOL0     H20110   4.515   2.950  10.179 -0.1530 -0.5143  1.8085
  149MOL0     H20111   4.724   2.889  10.030 -0.5429 -1.3034 -1.2311
  149MOL0     H20112   4.740   2.744  10.125  0.3094 -0.8642  0.9515
  149MOL0     H20113   4.880   3.042  10.393  1.5502 -3.4271  2.8330
  149MOL0     H20114   4.096   3.066  10.185  0.5836 -0.9085 -1.7942
  149MOL0     H20115   3.859   3.048  10.270 -0.2876 -0.4088  1.2978
  150MOL0     O20116   8.452   3.590   1.346  0.1373  0.5176  1.3968
  150MOL0     C20117   8.492   3.589   1.223 -0.1495  0.0304  0.0634
  150MOL0     O20118   8.603   3.525   1.183 -0.0095  0.3045  0.1048
  150MOL0     C20119   8.683   3.435   1.251 -0.7661  0.0956  1.0783
  150MOL0     C20120   8.806   3.406   1.190 -0.1923 -0.4275  0.7998
  150MOL0     C20121   8.899   3.323   1.247  0.2506 -0.5923 -0.1473
  150MOL0     C20122   8.872   3.248   1.363 -1.2894 -0.3489 -0.4836
  150MOL0     O20123   8.959   3.158   1.414 -0.0725 -0.4139 -1.1697
  150MOL0     C20124   8.992   3.164   1.559  0.1976  0.1543 -0.1799
  150MOL0     C20125   8.922   3.051   1.645 -0.3501 -0.6427 -0.0209
  150MOL0     C20126   8.965   3.033   1.788  0.1551  0.4186 -0.6622
  150MOL0     C20127   8.913   3.155   1.874 -0.1516  0.1096  0.1090
  150MOL0     C20128   8.939   3.125   2.021 -0.1348 -0.0456  0.1726
  150MOL0     C20129   8.817   3.054   2.075  0.0150 -0.4843  0.3224
  150MOL0     C20130   8.710   3.159   2.105 -0.0708 -0.1302 -0.1989
  150MOL0     C20131   8.575   3.148   2.017 -0.4279 -0.0724 -0.7841
  150MOL0     N20132   8.464   3.195   2.087 -0.1361  0.2756 -0.2484
  150MOL0     C20133   8.455   3.314   2.150 -0.3171  0.1604  0.5945
  150MOL0     C20134   8.334   3.318   2.221  0.3300 -0.0697  0.2883
  150MOL0     C20135   8.282   3.430   2.321 -0.9600 -0.0314 -0.0844
  150MOL0     C20136   8.268   3.570   2.264 -0.3833  0.1930 -0.8280
  150MOL0     C20137   8.180   3.593   2.134 -0.8478  0.5017 -0.0695
  150MOL0     C20138   8.057   3.509   2.140  0.0279  0.0472  0.2709
  150MOL0     O20139   7.994   3.545   2.264  0.0126 -0.0343 -0.2232
  150MOL0     C20140   7.856   3.527   2.270  0.2232 -0.4345  0.5278
  150MOL0     C20141   7.788   3.415   2.233  0.3750 -0.6321 -0.3286
  150MOL0     C20142   7.643   3.405   2.242  0.3343 -0.3166 -0.1510
  150MOL0     C20143   7.580   3.292   2.175 -0.2927 -0.1864 -0.9548
  150MOL0     C20144   7.574   3.509   2.309  0.9022 -0.9932 -0.2594
  150MOL0     C20145   7.427   3.488   2.348 -0.1554  0.5480  0.5717
  150MOL0     O20146   7.339   3.578   2.301 -0.5407 -0.2150  0.3530
  150MOL0     C20147   7.223   3.588   2.366  0.0652 -0.9455 -0.5311
  150MOL0     C20148   7.209   3.686   2.472  0.1766 -0.4720 -0.1606
  150MOL0     C20149   7.089   3.718   2.530  0.3877 -0.1773  0.7713
  150MOL0     C20150   6.970   3.646   2.492  0.0767 -0.3415 -0.4448
  150MOL0     O20151   6.858   3.677   2.566  0.2303 -0.1574 -0.0504
  150MOL0     C20152   6.737   3.715   2.486 -0.6148 -0.3221 -0.2444
  150MOL0     C20153   6.637   3.598   2.463 -0.0946  0.7256  0.7657
  150MOL0     C20154   6.493   3.641   2.429  0.5167  0.2484 -0.3552
  150MOL0     C20155   6.411   3.519   2.397  0.4864 -0.2760 -0.0495
  150MOL0     C20156   6.267   3.548   2.343  0.2691 -0.0956  0.1537
  150MOL0     C20157   6.211   3.420   2.291  0.1127  0.9436 -0.0852
  150MOL0     C20158   6.058   3.446   2.275  0.7453  0.2729  0.4821
  150MOL0     C20159   5.997   3.328   2.202 -0.2921 -0.3612  0.1280
  150MOL0    Cl20160   5.840   3.389   2.135 -0.0271 -0.5349 -0.0902
  150MOL0     C20161   6.972   3.550   2.385 -0.9657 -0.5994 -0.2095
  150MOL0     C20162   7.100   3.519   2.330  0.2764  0.0107  0.5356
  150MOL0     O20163   7.393   3.402   2.433  0.0429  0.2774  0.7502
  150MOL0     C20164   7.643   3.632   2.342  0.3531  0.4491  0.9289
  150MOL0     C20165   7.783   3.638   2.322 -0.6427 -0.6727 -0.4802
  150MOL0     N20166   8.270   3.201   2.194 -0.5538 -0.6747  0.5246
  150MOL0     N20167   8.348   3.126   2.122  0.6881  0.1302  0.1425
  150MOL0     C20168   8.754   3.279   1.429  0.7141  1.5800 -0.3255
  150MOL0     C20169   8.664   3.362   1.368  1.1361  0.0433  0.0781
  150MOL0     C20170   8.431   3.678   1.118  0.4527 -0.4230  1.0637
  150MOL0     C20171   8.297   3.715   1.130 -0.1540  0.0862 -0.3819
  150MOL0     C20172   8.227   3.772   1.023  0.1215  0.1585  0.0373
  150MOL0     C20173   8.292   3.793   0.899 -0.8098 -1.2983  0.3627
  150MOL0     O20174   8.219   3.828   0.784 -0.3033  0.5645 -0.9410
  150MOL0     C20175   8.076   3.819   0.780 -0.0952 -0.0255 -0.6482
  150MOL0     C20176   8.022   3.749   0.650  0.3682 -0.1598 -1.1477
  150MOL0     C20177   7.872   3.741   0.652  0.7627  0.2369  0.0150
  150MOL0     C20178   7.807   3.669   0.522 -0.1350 -1.1018 -0.2452
  150MOL0     C20179   7.855   3.528   0.505  0.2912  0.8743 -0.2510
  150MOL0     C20180   7.888   3.414   0.483 -0.0693  0.0708 -1.0071
  150MOL0     C20181   8.434   3.783   0.896  0.7188 -0.4070 -0.5670
  150MOL0     C20182   8.496   3.722   1.003 -0.3768 -0.0007  0.0493
  150MOL0     H20183   8.828   3.456   1.096 -5.3192  0.1963 -0.3470
  150MOL0     H20184   8.985   3.293   1.189  0.4995 -2.8761  1.2965
  150MOL0     H20185   9.100   3.154   1.573 -0.2383 -0.6702  4.1188
  150MOL0     H20186   8.979   3.264   1.603  0.7924 -0.3072  1.0849
  150MOL0     H20187   8.813   3.060   1.647 -0.2279  1.9255 -0.7605
  150MOL0     H20188   8.945   2.967   1.578  0.0321  1.7578 -3.1498
  150MOL0     H20189   8.920   2.940   1.822  1.3335  0.5926  1.5933
  150MOL0     H20190   9.073   3.022   1.800  0.2123  1.6184  0.0923
  150MOL0     H20191   8.979   3.240   1.855 -0.2308  0.2786  0.5929
  150MOL0     H20192   8.809   3.187   1.855 -0.3129  3.4455  4.8879
  150MOL0     H20193   9.023   3.055   2.020 -0.1885 -0.1708 -2.1023
  150MOL0     H20194   8.958   3.219   2.072 -1.7166  1.8751 -2.5144
  150MOL0     H20195   8.787   2.976   2.005  2.2843 -0.9878 -0.1571
  150MOL0     H20196   8.829   3.008   2.174 -0.0997  1.1015  1.1138
  150MOL0     H20197   8.687   3.163   2.212  0.5360  0.8523 -0.0881
  150MOL0     H20198   8.744   3.262   2.085 -2.3741  0.7278  0.0055
  150MOL0     H20199   8.553   3.046   1.985 -2.1607  0.6840 -2.2035
  150MOL0     H20200   8.590   3.214   1.931  4.0351  4.0462  2.5477
  150MOL0     H20201   8.534   3.388   2.157 -2.7460  3.2627 -2.0584
  150MOL0     H20202   8.183   3.394   2.350 -0.7182 -1.5181 -1.0009
  150MOL0     H20203   8.343   3.432   2.412 -0.8622  1.7690 -0.1668
  150MOL0     H20204   8.361   3.622   2.242  1.2523 -2.5931 -0.8552
  150MOL0     H20205   8.219   3.632   2.341 -0.5610  0.5142 -1.1936
  150MOL0     H20206   8.230   3.567   2.041  1.8774 -0.2322  1.4888
  150MOL0     H20207   8.160   3.701   2.130  2.7534  1.2860  0.0469
  150MOL0     H20208   8.065   3.400   2.138  3.8977  0.0048  4.0113
  150MOL0     H20209   7.984   3.530   2.060 -1.4924  3.0513  2.2344
  150MOL0     H20210   7.848   3.338   2.185  1.2602  1.1423 -2.1935
  150MOL0     H20211   7.645   3.236   2.108 -0.5903 -1.3523 -0.2917
  150MOL0     H20212   7.532   3.237   2.257  1.4273 -0.3220  0.0162
  150MOL0     H20213   7.498   3.331   2.114 -0.5009 -1.9936 -1.8741
  150MOL0     H20214   7.295   3.746   2.501  3.2162 -4.6009  0.1980
  150MOL0     H20215   7.065   3.806   2.589 -0.2796  1.7119 -2.1163
  150MOL0     H20216   6.690   3.796   2.543 -0.7585 -0.0838 -0.6941
  150MOL0     H20217   6.763   3.758   2.389 -3.3104  1.1376 -0.4236
  150MOL0     H20218   6.666   3.524   2.387 -0.8163 -0.2561  1.4164
  150MOL0     H20219   6.637   3.544   2.558 -1.1994  0.9321  0.9030
  150MOL0     H20220   6.497   3.711   2.345 -0.0511  1.0525  0.2672
  150MOL0     H20221   6.450   3.710   2.502 -0.1649 -0.6576  0.1110
  150MOL0     H20222   6.466   3.464   2.321  1.0945 -2.9192  2.1383
  150MOL0     H20223   6.403   3.459   2.488  0.5569  1.1148  0.9048
  150MOL0     H20224   6.274   3.623   2.264 -1.3893 -0.2256 -0.1479
  150MOL0     H20225   6.210   3.588   2.427 -2.2709 -3.6739  0.3628
  150MOL0     H20226   6.268   3.400   2.200  2.6899 -0.3703  1.6729
  150MOL0     H20227   6.221   3.336   2.361  0.4568  1.6888  0.7851
  150MOL0     H20228   6.048   3.529   2.204 -1.4308 -1.4678 -1.4201
  150MOL0     H20229   6.014   3.461   2.373  3.7975  3.0083  1.5847
  150MOL0     H20230   5.979   3.233   2.253  0.0030 -1.2737 -1.3908
  150MOL0     H20231   6.068   3.314   2.120  1.0619  2.2634  0.7309
  150MOL0     H20232   6.881   3.496   2.360 -0.1434 -2.1175 -0.0125
  150MOL0     H20233   7.108   3.443   2.252  2.3945 -0.0670  0.7781
  150MOL0     H20234   7.593   3.714   2.393 -1.3699  0.7507 -1.1289
  150MOL0     H20235   7.833   3.732   2.343 -0.6652 -1.3371  3.0326
  150MOL0     H20236   8.738   3.253   1.533 -1.0195 -0.1361 -0.9662
  150MOL0     H20237   8.571   3.366   1.423  1.6301 -0.8499  1.0107
  150MOL0     H20238   8.228   3.676   1.204  1.1970 -0.4731  0.6420
  150MOL0     H20239   8.129   3.816   1.037  1.0148  2.8430 -1.4887
  150MOL0     H20240   8.039   3.760   0.864  1.4746 -1.4960 -0.9301
  150MOL0     H20241   8.036   3.921   0.781  1.8004  0.7496 -0.6362
  150MOL0     H20242   8.070   3.650   0.644  0.5828 -0.5296  3.1467
  150MOL0     H20243   8.060   3.803   0.563  0.0082 -0.9181 -1.7851
  150MOL0     H20244   7.823   3.838   0.669 -0.0002  0.3253 -2.2950
  150MOL0     H20245   7.849   3.677   0.738 -2.2571  0.9491 -0.1552
  150MOL0     H20246   7.814   3.732   0.434 -1.8315 -1.4583 -0.6668
  150MOL0     H20247   7.699   3.667   0.536 -0.3602  0.7591 -1.4576
  150MOL0     H20248   7.928   3.314   0.481 -0.3654 -0.0695 -3.4769
  150MOL0     H20249   8.486   3.807   0.804 -2.7444 -2.6177 -3.3579
  150MOL0     H20250   8.603   3.722   0.981 -0.5478  1.2353 -0.8814
  151MOL0     O20251   5.162   7.973   2.078 -0.0728  0.1505 -0.3685
  151MOL0     C20252   5.080   7.996   1.992  0.0291  0.0759  1.3170
  151MOL0     O20253   4.942   7.988   2.004 -1.0183  0.1538 -0.0086
  151MOL0     C20254   4.883   7.948   2.124  0.6044  1.6608  0.0167
  151MOL0     C20255   4.824   8.042   2.202  0.8321 -0.6235 -0.3116
  151MOL0     C20256   4.749   8.008   2.314  0.3446  0.8317  0.3878
  151MOL0     C20257   4.717   7.873   2.346  0.4573 -0.5895 -0.7113
  151MOL0     O20258   4.633   7.837   2.446  0.2126  0.0321  0.6559
  151MOL0     C20259   4.502   7.891   2.449  0.3310 -0.0736 -0.0873
  151MOL0     C20260   4.391   7.786   2.412 -0.8234  0.3269 -1.0676
  151MOL0     C20261   4.388   7.752   2.264 -0.1494  0.1752  0.4879
  151MOL0     C20262   4.265   7.658   2.243  0.3096  0.0563 -0.0082
  151MOL0     C20263   4.278   7.571   2.115  0.1704  0.0964 -0.1195
  151MOL0     C20264   4.251   7.653   1.990 -0.0803 -0.6932 -0.7510
  151MOL0     C20265   4.268   7.579   1.855 -0.9634 -0.6980  0.1296
  151MOL0     C20266   4.143   7.506   1.811 -0.7371  0.0631 -0.6983
  151MOL0     N20267   4.167   7.431   1.690  0.8853  0.0577 -0.5529
  151MOL0     C20268   4.184   7.295   1.676  0.2874  0.2107  0.8394
  151MOL0     C20269   4.172   7.259   1.545 -0.1548 -0.2993  0.4803
  151MOL0     C20270   4.179   7.129   1.472  0.8147  0.0897  0.2200
  151MOL0     C20271   4.324   7.093   1.427 -0.0356 -0.2887 -0.3603
  151MOL0     C20272   4.334   6.952   1.365  0.0437 -1.2838 -1.2506
  151MOL0     C20273   4.475   6.924   1.315  1.1942 -0.4356 -0.3221
  151MOL0     O20274   4.489   6.805   1.235 -0.2137  0.3798 -0.1280
  151MOL0     C20275   4.612   6.772   1.199 -0.8168 -0.0158 -0.3648
  151MOL0     C20276   4.728   6.852   1.186 -0.2729 -0.2597 -0.9427
  151MOL0     C20277   4.848   6.805   1.128 -0.0053  0.5175  0.4400
  151MOL0     C20278   4.948   6.909   1.101  0.5058 -0.5374  0.2917
  151MOL0     C20279   4.873   6.667   1.112  0.3189 -0.6084 -1.4721
  151MOL0     C20280   5.007   6.604   1.104 -0.8681 -0.7560 -0.3550
  151MOL0     O20281   5.011   6.480   1.154 -0.3824 -1.0010  0.2157
  151MOL0     C20282   5.138   6.419   1.158  0.6163  0.4449  0.6386
  151MOL0     C20283   5.197   6.400   1.278 -0.3070 -0.2572  0.5190
  151MOL0     C20284   5.302   6.315   1.301  2.0356  0.3608  1.5860
  151MOL0     C20285   5.347   6.236   1.193  0.4885 -0.2400 -0.0714
  151MOL0     O20286   5.437   6.137   1.211  0.4132 -0.1314 -0.1080
  151MOL0     C20287   5.531   6.155   1.318  0.2300  0.3230  0.2378
  151MOL0     C20288   5.646   6.056   1.345  1.1500 -0.6516 -0.0168
  151MOL0     C20289   5.716   6.027   1.211  0.0251 -0.4681 -0.6128
  151MOL0     C20290   5.805   5.901   1.231 -0.0292  1.0035 -0.9188
  151MOL0     C20291   5.879   5.895   1.366 -0.8914  0.5613 -0.2447
  151MOL0     C20292   5.995   5.789   1.359  0.6787 -0.1106 -0.1263
  151MOL0     C20293   6.051   5.763   1.495 -0.7309  0.8696 -0.0818
  151MOL0     C20294   6.173   5.657   1.484  0.2373 -0.5642 -0.2905
  151MOL0    Cl20295   6.110   5.490   1.462 -0.2103  0.1381  0.3199
  151MOL0     C20296   5.282   6.254   1.070  0.4821  0.3969  0.2421
  151MOL0     C20297   5.181   6.344   1.048 -0.3262 -0.6666 -0.7905
  151MOL0     O20298   5.099   6.663   1.052  0.5761  0.4261  0.1900
  151MOL0     C20299   4.757   6.576   1.129 -0.8678  0.1415  0.4434
  151MOL0     C20300   4.633   6.637   1.160 -0.4152 -0.0430 -0.6611
  151MOL0     N20301   4.141   7.378   1.475  0.5607 -0.2161 -0.0497
  151MOL0     N20302   4.117   7.463   1.568  0.5296 -0.4455  0.3472
  151MOL0     C20303   4.794   7.777   2.263  1.0896 -0.1991 -0.2484
  151MOL0     C20304   4.874   7.811   2.159  1.1168 -0.7162  0.3843
  151MOL0     C20305   5.131   8.048   1.863  0.4401  0.0752  0.6079
  151MOL0     C20306   5.276   8.061   1.834  0.8679 -0.3356 -0.4799
  151MOL0     C20307   5.325   8.128   1.720 -0.1154 -0.1325 -1.0723
  151MOL0     C20308   5.231   8.169   1.626  0.6760 -0.5683  1.1650
  151MOL0     O20309   5.274   8.219   1.509 -0.3356 -0.7026  0.3023
  151MOL0     C20310   5.187   8.279   1.412 -0.3664  0.3730 -0.1882
  151MOL0     C20311   5.265   8.337   1.294 -0.1661 -0.2008 -0.5624
  151MOL0     C20312   5.341   8.461   1.338 -0.4971  0.0465  0.9180
  151MOL0     C20313   5.386   8.566   1.234 -0.4077 -0.4678  0.2723
  151MOL0     C20314   5.277   8.618   1.152 -0.1830 -0.3988 -0.4749
  151MOL0     C20315   5.181   8.648   1.087  0.4067 -0.8213 -1.3502
  151MOL0     C20316   5.087   8.161   1.652  0.0952  0.2738 -0.5700
  151MOL0     C20317   5.039   8.088   1.764  0.4331 -0.7209  0.4089
  151MOL0     H20318   4.819   8.143   2.162  1.5950  0.4693  2.1190
  151MOL0     H20319   4.685   8.086   2.355 -2.2597  0.3632 -2.4405
  151MOL0     H20320   4.486   7.936   2.548  0.4206  1.9680 -0.9554
  151MOL0     H20321   4.489   7.970   2.375  0.1091 -0.5360 -0.5512
  151MOL0     H20322   4.419   7.696   2.468 -0.7155  0.2782 -1.1989
  151MOL0     H20323   4.295   7.800   2.463  0.7416 -0.4508  2.3605
  151MOL0     H20324   4.391   7.841   2.200 -1.7325  0.1856  0.3824
  151MOL0     H20325   4.478   7.699   2.232  0.5254  0.4269  1.8848
  151MOL0     H20326   4.251   7.586   2.325 -1.6176  0.4830  0.0867
  151MOL0     H20327   4.175   7.720   2.236  0.9574  0.9924 -0.1630
  151MOL0     H20328   4.378   7.528   2.112  0.7634  0.8913  3.4911
  151MOL0     H20329   4.199   7.496   2.121 -0.4476  0.6193 -1.3486
  151MOL0     H20330   4.154   7.702   2.004 -1.4137 -3.2546 -0.3529
  151MOL0     H20331   4.323   7.735   1.984  0.3573 -0.7993  1.9966
  151MOL0     H20332   4.291   7.659   1.783 -1.7013  0.3470  1.0134
  151MOL0     H20333   4.353   7.510   1.857  0.4918  1.0105  0.0396
  151MOL0     H20334   4.061   7.578   1.799 -1.2932 -0.3976  0.2154
  151MOL0     H20335   4.113   7.432   1.886 -1.6560 -0.1464 -1.2568
  151MOL0     H20336   4.205   7.227   1.758  2.7928  1.6082  1.4538
  151MOL0     H20337   4.131   7.057   1.539 -0.7644  0.0646 -0.8708
  151MOL0     H20338   4.114   7.130   1.384  1.1736  0.3020 -0.0451
  151MOL0     H20339   4.388   7.092   1.516  1.9961 -2.2075 -1.7393
  151MOL0     H20340   4.360   7.160   1.349  2.4683 -1.5982 -0.4236
  151MOL0     H20341   4.264   6.957   1.281  0.4866 -1.3876 -1.6317
  151MOL0     H20342   4.301   6.879   1.439 -1.9917  4.5989  4.6291
  151MOL0     H20343   4.533   6.916   1.407  4.6985 -1.0687 -2.4014
  151MOL0     H20344   4.513   7.011   1.261 -0.4815  0.3480 -0.3007
  151MOL0     H20345   4.719   6.956   1.214 -2.7903 -0.5499 -0.4351
  151MOL0     H20346   5.024   6.911   1.179  2.2973 -0.4973 -1.3727
  151MOL0     H20347   5.012   6.885   1.015 -0.6339  0.3529 -0.8527
  151MOL0     H20348   4.897   7.005   1.087  3.1226  0.7966 -0.7369
  151MOL0     H20349   5.169   6.471   1.355  1.3741 -0.7081  1.5912
  151MOL0     H20350   5.321   6.291   1.405  2.0184 -1.2393  1.2469
  151MOL0     H20351   5.566   6.259   1.315 -0.2446  0.6835  3.3022
  151MOL0     H20352   5.478   6.144   1.413 -0.9242  2.4325 -0.1113
  151MOL0     H20353   5.711   6.100   1.421  2.6510 -2.4652 -0.1541
  151MOL0     H20354   5.608   5.964   1.389  1.0210  0.2370  1.8043
  151MOL0     H20355   5.776   6.117   1.192 -2.1171  1.1406 -0.1214
  151MOL0     H20356   5.656   6.011   1.122 -0.7275  4.0929 -1.1409
  151MOL0     H20357   5.732   5.819   1.228  1.5133 -0.5855  1.7167
  151MOL0     H20358   5.872   5.879   1.148 -0.4593 -1.2272 -0.7180
  151MOL0     H20359   5.813   5.869   1.449  0.2795 -2.4290 -0.1227
  151MOL0     H20360   5.923   5.995   1.374 -2.9749  1.3555  4.0090
  151MOL0     H20361   5.942   5.702   1.320 -1.2970  0.7067  0.5363
  151MOL0     H20362   6.071   5.813   1.285 -1.4255  1.2377 -1.9803
  151MOL0     H20363   5.974   5.726   1.564  0.3281  1.9451  1.7702
  151MOL0     H20364   6.089   5.858   1.534 -0.0244  0.7230 -0.4056
  151MOL0     H20365   6.236   5.657   1.573  1.2802 -1.3378 -1.0067
  151MOL0     H20366   6.236   5.686   1.399 -0.8557  2.3027 -0.2356
  151MOL0     H20367   5.319   6.181   0.999 -2.2968 -0.1399 -0.7630
  151MOL0     H20368   5.128   6.351   0.954  2.1649  0.0409 -2.2566
  151MOL0     H20369   4.773   6.470   1.112 -0.2726  0.4702 -1.2243
  151MOL0     H20370   4.550   6.570   1.177  0.4427 -1.3412 -1.3991
  151MOL0     H20371   4.781   7.671   2.280 -1.7700 -0.2331 -1.9942
  151MOL0     H20372   4.933   7.733   2.112 -0.5151 -1.5371 -0.3763
  151MOL0     H20373   5.346   8.027   1.909 -0.4617 -0.4439  0.7529
  151MOL0     H20374   5.433   8.127   1.711  0.0812 -2.7306  0.6484
  151MOL0     H20375   5.117   8.200   1.382  1.1696 -2.9802  3.9741
  151MOL0     H20376   5.121   8.357   1.453 -2.9177 -1.8220  0.2172
  151MOL0     H20377   5.192   8.359   1.215 -0.1194  0.6966 -0.3759
  151MOL0     H20378   5.340   8.275   1.245 -1.0034  0.0475 -2.2269
  151MOL0     H20379   5.436   8.430   1.383  0.7059  0.2680 -1.3111
  151MOL0     H20380   5.283   8.512   1.415  0.2082  1.8126  0.3423
  151MOL0     H20381   5.472   8.527   1.179  1.2739  2.2793  0.7213
  151MOL0     H20382   5.435   8.649   1.286 -0.8220  0.3578 -0.6233
  151MOL0     H20383   5.087   8.679   1.048  0.0006 -0.2062  0.0491
  151MOL0     H20384   5.003   8.201   1.596  0.6223 -1.0169 -2.3543
  151MOL0     H20385   4.932   8.075   1.779  0.5460 -4.5386 -0.9255
  152MOL0     O20386   9.322   5.605   6.527 -0.0030 -0.2444  0.8389
  152MOL0     C20387   9.436   5.564   6.541 -0.7356 -0.0290  0.0015
  152MOL0     O20388   9.474   5.458   6.616 -0.2399 -0.0698 -0.4306
  152MOL0     C20389   9.398   5.344   6.607 -0.1564 -0.3838  0.3327
  152MOL0     C20390   9.294   5.322   6.700 -1.3065  1.0728  0.4153
  152MOL0     C20391   9.223   5.199   6.688  1.0594  0.1243 -0.5642
  152MOL0     C20392   9.255   5.106   6.590  0.8914 -0.5162 -0.8026
  152MOL0     O20393   9.161   4.998   6.597  0.2102  0.6945 -0.6077
  152MOL0     C20394   9.209   4.869   6.545  0.4964  0.4399  0.2393
  152MOL0     C20395   9.128   4.737   6.582 -0.0376 -0.4240 -0.7849
  152MOL0     C20396   9.112   4.723   6.736 -0.0327  0.1890  1.2146
  152MOL0     C20397   9.236   4.683   6.818 -0.2418 -0.3874  0.3203
  152MOL0     C20398   9.207   4.653   6.964  0.1356 -0.2267 -0.4263
  152MOL0     C20399   9.348   4.641   7.027  0.0169  0.0364 -0.4514
  152MOL0     C20400   9.342   4.642   7.184  0.3961 -0.6727 -0.0953
  152MOL0     C20401   9.321   4.787   7.231  0.5344 -0.5721 -0.3025
  152MOL0     N20402   9.354   4.805   7.379 -1.1239  0.0982  1.0788
  152MOL0     C20403   9.389   4.715   7.479  0.2735 -0.6917  0.3642
  152MOL0     C20404   9.424   4.782   7.591 -0.3936  0.2753  0.2353
  152MOL0     C20405   9.448   4.725   7.728  1.0726  0.4337  0.1701
  152MOL0     C20406   9.334   4.663   7.808 -0.4237 -0.4656  0.5570
  152MOL0     C20407   9.220   4.752   7.837 -0.7635  0.1395  0.6172
  152MOL0     C20408   9.109   4.689   7.913 -0.0507  1.3659  0.0970
  152MOL0     O20409   9.026   4.616   7.818 -0.9018  0.6443  0.4115
  152MOL0     C20410   8.917   4.548   7.864 -0.5456 -1.0123 -0.4743
  152MOL0     C20411   8.861   4.537   7.999  0.8322  0.3434  0.9856
  152MOL0     C20412   8.750   4.453   8.023  0.8583  0.5649 -1.1969
  152MOL0     C20413   8.690   4.460   8.160  0.1099 -0.2032  1.1143
  152MOL0     C20414   8.699   4.368   7.924  0.1178 -0.7332 -0.4171
  152MOL0     C20415   8.587   4.267   7.941 -0.0186  0.4845 -0.6650
  152MOL0     O20416   8.543   4.210   7.828 -0.6350  0.0878  0.4985
  152MOL0     C20417   8.424   4.120   7.822 -0.2809 -0.9724  0.4347
  152MOL0     C20418   8.426   4.006   7.740  0.6504  0.9160 -0.8723
  152MOL0     C20419   8.309   3.926   7.719  0.4357 -0.7874  1.1246
  152MOL0     C20420   8.185   3.959   7.771 -0.5944  0.1089 -0.2450
  152MOL0     O20421   8.085   3.868   7.749 -0.0577  0.1891 -0.5374
  152MOL0     C20422   7.954   3.925   7.763 -0.1195 -0.2168  1.2004
  152MOL0     C20423   7.859   3.845   7.676  0.5418 -0.0382  0.7042
  152MOL0     C20424   7.722   3.903   7.698 -0.2225  1.0167 -0.6930
  152MOL0     C20425   7.620   3.842   7.599  0.9345 -0.1882  0.3198
  152MOL0     C20426   7.484   3.921   7.597  0.8460  0.2517 -1.5020
  152MOL0     C20427   7.386   3.863   7.508  0.4181 -0.0755 -0.3934
  152MOL0     C20428   7.320   3.739   7.574 -0.5016  0.0512  0.6172
  152MOL0     C20429   7.227   3.760   7.692  0.7785 -0.0021 -1.2909
  152MOL0    Cl20430   7.139   3.602   7.706 -0.2369 -0.0464  0.2287
  152MOL0     C20431   8.184   4.071   7.857 -0.5106 -0.5959 -0.3151
  152MOL0     C20432   8.305   4.150   7.890  0.0246 -0.8825 -0.2181
  152MOL0     O20433   8.553   4.239   8.054  0.3200  0.1389 -0.7340
  152MOL0     C20434   8.743   4.393   7.798 -0.3116 -0.3301 -0.1241
  152MOL0     C20435   8.841   4.483   7.770 -0.4835  0.9149 -0.1707
  152MOL0     N20436   9.403   4.917   7.567  0.0785  0.0616 -0.4497
  152MOL0     N20437   9.365   4.935   7.438 -0.5094  0.6769  0.3215
  152MOL0     C20438   9.356   5.133   6.506  0.0101  0.1835 -0.4532
  152MOL0     C20439   9.425   5.245   6.514  0.0311 -0.3654 -0.6445
  152MOL0     C20440   9.538   5.623   6.452  0.6070 -0.8011 -0.2781
  152MOL0     C20441   9.496   5.692   6.336 -0.4750  0.5424  0.3312
  152MOL0     C20442   9.590   5.744   6.246  1.0682  0.2699  0.5681
  152MOL0     C20443   9.717   5.712   6.262  0.3545  0.7348  0.1568
  152MOL0     O20444   9.818   5.734   6.169  0.8528  0.7161  0.8148
  152MOL0     C20445   9.791   5.777   6.039 -0.6960 -0.0765 -0.6384
  152MOL0     C20446   9.811   5.931   6.029  0.6603  1.1527  0.1644
  152MOL0     C20447   9.752   6.026   6.136  0.3107 -1.2155 -1.1261
  152MOL0     C20448   9.775   6.165   6.076 -0.1759  0.1149  0.5592
  152MOL0     C20449   9.694   6.203   5.959  0.6248  0.2572  0.4050
  152MOL0     C20450   9.631   6.252   5.868 -0.2246  0.6800 -0.0776
  152MOL0     C20451   9.763   5.661   6.387 -0.6074 -0.7008 -0.1682
  152MOL0     C20452   9.674   5.610   6.478  1.2698  0.3008  0.0936
  152MOL0     H20453   9.273   5.396   6.776  2.5523  0.9858  1.7472
  152MOL0     H20454   9.137   5.183   6.753  0.1514 -2.4847 -2.2455
  152MOL0     H20455   9.228   4.878   6.438  2.0433  1.2802  0.5545
  152MOL0     H20456   9.309   4.848   6.584 -0.2885 -4.8554  0.1785
  152MOL0     H20457   9.032   4.743   6.529 -1.0129  0.1803  0.9597
  152MOL0     H20458   9.190   4.652   6.553  0.7864 -0.1872  0.2059
  152MOL0     H20459   9.078   4.822   6.770 -0.9167  1.5551 -3.1039
  152MOL0     H20460   9.025   4.660   6.755  0.2934 -0.6265  0.0746
  152MOL0     H20461   9.285   4.594   6.780  0.9893  0.2224  0.4321
  152MOL0     H20462   9.310   4.763   6.804 -0.6244 -0.2580 -1.2030
  152MOL0     H20463   9.143   4.730   7.008 -2.9770 -0.6412 -3.7565
  152MOL0     H20464   9.156   4.557   6.976 -1.7781  0.9133  1.2742
  152MOL0     H20465   9.374   4.541   6.990  0.4458  0.4195 -1.2099
  152MOL0     H20466   9.422   4.708   6.982  0.3632 -0.9291 -1.3618
  152MOL0     H20467   9.252   4.590   7.218 -0.8280 -0.1514 -2.3455
  152MOL0     H20468   9.434   4.597   7.223  1.4414 -1.1849 -2.9530
  152MOL0     H20469   9.216   4.814   7.216  0.4289  0.6683  2.1528
  152MOL0     H20470   9.372   4.855   7.163 -0.0779 -2.2399 -2.5686
  152MOL0     H20471   9.388   4.607   7.479 -2.6379 -0.8360  3.4424
  152MOL0     H20472   9.528   4.651   7.714 -0.8458 -1.3915 -1.8236
  152MOL0     H20473   9.472   4.807   7.796 -1.5612  1.6016 -0.1847
  152MOL0     H20474   9.367   4.618   7.902  1.2629 -2.7662 -1.0226
  152MOL0     H20475   9.294   4.568   7.769 -1.0569  0.2725 -0.6516
  152MOL0     H20476   9.169   4.791   7.748  1.5520 -3.1432 -2.4374
  152MOL0     H20477   9.259   4.833   7.899 -1.1563  0.6736  0.1715
  152MOL0     H20478   9.039   4.758   7.963 -1.3515  0.9351 -1.0525
  152MOL0     H20479   9.154   4.625   7.989 -3.2084 -0.9576  0.2460
  152MOL0     H20480   8.884   4.601   8.084  1.1900  2.2208 -0.4478
  152MOL0     H20481   8.743   4.528   8.228 -2.6552  4.8936 -1.3132
  152MOL0     H20482   8.583   4.480   8.155  0.3801  1.1603  0.3488
  152MOL0     H20483   8.718   4.363   8.204 -0.1244 -0.0881  1.5261
  152MOL0     H20484   8.515   3.968   7.691 -0.4683 -0.3697 -2.0110
  152MOL0     H20485   8.316   3.837   7.658 -1.0952 -1.5319  1.9718
  152MOL0     H20486   7.907   3.926   7.862 -1.0097  0.0212  0.7831
  152MOL0     H20487   7.950   4.024   7.716 -4.1252  0.8153  3.2318
  152MOL0     H20488   7.894   3.848   7.573 -2.6673 -2.2196 -0.5954
  152MOL0     H20489   7.867   3.745   7.720  0.4060  1.7553  5.3684
  152MOL0     H20490   7.726   4.011   7.682  1.2861  0.8234 -1.8065
  152MOL0     H20491   7.693   3.889   7.803  1.5101  0.8602 -0.1964
  152MOL0     H20492   7.666   3.865   7.502  0.2333  1.5131  0.3672
  152MOL0     H20493   7.622   3.732   7.602 -0.0569 -0.2148  0.3051
  152MOL0     H20494   7.497   4.026   7.572  1.4717  1.4710  3.0336
  152MOL0     H20495   7.459   3.922   7.704 -3.2846  0.8409 -2.3388
  152MOL0     H20496   7.309   3.939   7.492  0.6487  0.9861  2.7761
  152MOL0     H20497   7.432   3.833   7.414 -0.1284 -1.7657 -0.1608
  152MOL0     H20498   7.410   3.681   7.595  1.3303  0.8315 -3.8897
  152MOL0     H20499   7.267   3.694   7.490  1.8518 -0.0370 -0.9115
  152MOL0     H20500   7.155   3.841   7.681  0.9763  0.5819  1.1881
  152MOL0     H20501   7.285   3.771   7.783  2.1091  0.2623 -2.1391
  152MOL0     H20502   8.098   4.084   7.921 -0.1952 -1.0021  0.1948
  152MOL0     H20503   8.294   4.224   7.968 -0.2744 -0.8572 -0.2824
  152MOL0     H20504   8.706   4.343   7.709 -1.6733  2.2814 -1.1223
  152MOL0     H20505   8.872   4.515   7.670  1.2180 -1.0711 -0.3534
  152MOL0     H20506   9.383   5.054   6.437  0.6165 -2.2246  2.2930
  152MOL0     H20507   9.488   5.273   6.430 -0.4693  2.1915 -0.2594
  152MOL0     H20508   9.393   5.715   6.311 -0.7006 -0.6571  0.0527
  152MOL0     H20509   9.555   5.780   6.150  1.3192 -1.8356 -0.3737
  152MOL0     H20510   9.845   5.718   5.964 -0.7974 -0.9423 -0.0453
  152MOL0     H20511   9.690   5.752   6.005 -1.1065 -0.1825  0.6119
  152MOL0     H20512   9.787   5.951   5.925  0.2590  0.9408  0.2152
  152MOL0     H20513   9.918   5.954   6.030  0.8586  0.5480 -2.2751
  152MOL0     H20514   9.803   6.018   6.232 -0.7984  2.7474 -0.0264
  152MOL0     H20515   9.643   6.018   6.146  0.2670 -0.1610 -0.6606
  152MOL0     H20516   9.878   6.175   6.040 -0.1378  1.8758  1.0811
  152MOL0     H20517   9.752   6.238   6.154  0.5812 -0.6026  1.4841
  152MOL0     H20518   9.566   6.285   5.790 -3.3775 -0.5209  1.8140
  152MOL0     H20519   9.869   5.641   6.397 -0.0727  0.3585 -2.8434
  152MOL0     H20520   9.702   5.552   6.565 -2.4594 -0.8021  0.7214
  153MOL0     O20521  11.249   6.501   9.527 -0.2570 -0.4614  0.5326
  153MOL0     C20522  11.361   6.527   9.472  0.1751 -0.8713 -0.4648
  153MOL0     O20523  11.409   6.653   9.454 -0.4347 -0.1836 -0.0757
  153MOL0     C20524  11.354   6.757   9.531  0.0796  1.3152  0.8652
  153MOL0     C20525  11.322   6.742   9.663 -0.6454  0.3071 -0.7074
  153MOL0     C20526  11.284   6.850   9.737 -0.1771  0.0325  0.9836
  153MOL0     C20527  11.264   6.976   9.672 -0.3562 -0.5436 -0.5334
  153MOL0     O20528  11.218   7.070   9.760 -0.0615 -0.0538  0.1339
  153MOL0     C20529  11.176   7.195   9.694 -0.0178  0.2679 -0.9945
  153MOL0     C20530  11.145   7.292   9.810 -0.5076 -0.8201  0.2949
  153MOL0     C20531  11.090   7.425   9.759 -0.3862 -0.3176 -0.0589
  153MOL0     C20532  11.040   7.527   9.869 -1.1204 -0.1035 -0.9371
  153MOL0     C20533  11.150   7.574   9.964 -0.3769 -0.2114 -0.4021
  153MOL0     C20534  11.230   7.692   9.917 -0.5784  0.4117  0.2900
  153MOL0     C20535  11.256   7.797  10.029  0.8595 -0.4494 -0.3943
  153MOL0     C20536  11.332   7.921   9.975  1.3352 -0.1991  0.3653
  153MOL0     N20537  11.478   7.908   9.976 -0.0158  0.0673  0.9264
  153MOL0     C20538  11.569   7.877   9.877 -0.4946  0.8915  0.5925
  153MOL0     C20539  11.686   7.874   9.943  0.5720  0.3197 -0.5080
  153MOL0     C20540  11.803   7.817   9.879 -0.0938 -0.4437  0.0466
  153MOL0     C20541  11.820   7.662   9.905 -0.5672  0.3761  0.7000
  153MOL0     C20542  11.922   7.653  10.023 -0.4412 -0.0724 -0.4964
  153MOL0     C20543  11.911   7.504  10.069  0.0137 -0.3093  0.0581
  153MOL0     O20544  11.974   7.435   9.955  0.3371 -0.3356 -0.0776
  153MOL0     C20545  11.999   7.296   9.968 -0.1427  0.0299 -0.9326
  153MOL0     C20546  12.109   7.249   9.902  0.8936  0.5441  0.1534
  153MOL0     C20547  12.144   7.115   9.913 -0.1467  0.0194  0.1270
  153MOL0     C20548  12.264   7.076   9.821  0.4897 -0.2737  0.1649
  153MOL0     C20549  12.077   7.026   9.997  0.9162 -0.1566 -0.4069
  153MOL0     C20550  12.099   6.874  10.015 -0.7650 -0.9581  0.2159
  153MOL0     O20551  12.005   6.807  10.091 -0.0222 -0.2071  0.0359
  153MOL0     C20552  12.011   6.671  10.062  0.7142 -0.2870 -0.1400
  153MOL0     C20553  12.065   6.602  10.173  0.1927 -0.3771 -0.2909
  153MOL0     C20554  12.093   6.462  10.166 -0.1616 -0.0789  0.2759
  153MOL0     C20555  12.072   6.400  10.048 -0.3818  0.5349  0.7367
  153MOL0     O20556  12.102   6.264  10.060  0.6456  0.1220 -0.4528
  153MOL0     C20557  12.100   6.189   9.935  0.2182  0.5858  0.1078
  153MOL0     C20558  12.147   6.042   9.962  0.0444 -0.0527 -0.2500
  153MOL0     C20559  12.283   6.047  10.023 -0.4320  0.1252 -0.6522
  153MOL0     C20560  12.342   5.907  10.061  0.1875  0.8302 -1.4931
  153MOL0     C20561  12.300   5.872  10.205  0.4861  0.0590 -0.0011
  153MOL0     C20562  12.381   5.746  10.259  0.4239  0.3303  0.0183
  153MOL0     C20563  12.324   5.721  10.401  0.1240  0.7221  1.2497
  153MOL0     C20564  12.403   5.617  10.481  0.3728  0.7111 -0.2901
  153MOL0    Cl20565  12.426   5.467  10.392  0.4741  0.6895  0.5045
  153MOL0     C20566  12.012   6.469   9.944  0.0882  0.5612  0.1882
  153MOL0     C20567  11.982   6.604   9.945  0.2373  0.1268  0.1174
  153MOL0     O20568  12.201   6.821   9.973 -0.1300  0.2308 -0.3748
  153MOL0     C20569  11.966   7.079  10.079 -0.2505  0.7856  0.8162
  153MOL0     C20570  11.929   7.213  10.060 -0.8704 -0.4259 -0.2194
  153MOL0     N20571  11.669   7.898  10.076  0.1143  0.0150 -0.1344
  153MOL0     N20572  11.544   7.922  10.097  0.1803  0.1241  0.0859
  153MOL0     C20573  11.278   6.981   9.535 -0.0081 -0.6317  0.0204
  153MOL0     C20574  11.326   6.873   9.463  1.2849  0.1461  0.0956
  153MOL0     C20575  11.435   6.414   9.402  0.0790 -0.5973 -0.3530
  153MOL0     C20576  11.371   6.296   9.386 -0.8477 -0.7366  0.2270
  153MOL0     C20577  11.426   6.189   9.316 -0.0455  0.2178 -0.4452
  153MOL0     C20578  11.550   6.197   9.267  0.5391  0.0656  0.5585
  153MOL0     O20579  11.578   6.092   9.177 -0.1672  0.2259  0.7882
  153MOL0     C20580  11.685   6.107   9.086  0.1213 -0.5658 -0.1926
  153MOL0     C20581  11.646   6.210   8.974 -0.3870 -0.1433 -0.4058
  153MOL0     C20582  11.743   6.187   8.853 -0.9797  0.8022 -1.0073
  153MOL0     C20583  11.680   6.265   8.736  0.3139  0.2121 -0.7926
  153MOL0     C20584  11.652   6.405   8.772 -0.5883  0.1589 -0.4107
  153MOL0     C20585  11.616   6.521   8.784  0.1585  0.5341 -0.2465
  153MOL0     C20586  11.623   6.312   9.290  0.4262 -0.0329 -0.0184
  153MOL0     C20587  11.570   6.428   9.354  0.2956  0.2195  0.1399
  153MOL0     H20588  11.322   6.643   9.706 -1.9296  0.3294 -0.6205
  153MOL0     H20589  11.285   6.849   9.845  1.6765  1.4054  1.0249
  153MOL0     H20590  11.258   7.241   9.639  1.6063 -0.4984  0.6444
  153MOL0     H20591  11.089   7.171   9.632  0.1329  2.2819 -2.0625
  153MOL0     H20592  11.059   7.257   9.867  0.3939 -2.1450  0.8773
  153MOL0     H20593  11.234   7.307   9.872 -0.1755 -1.8204  0.0692
  153MOL0     H20594  11.163   7.480   9.699  0.2374 -0.1933  0.8134
  153MOL0     H20595  11.002   7.412   9.694  0.1154 -2.1586 -0.4309
  153MOL0     H20596  10.989   7.613   9.825 -1.9332 -0.0147  0.1385
  153MOL0     H20597  10.972   7.462   9.925  2.1813 -2.8626  0.2381
  153MOL0     H20598  11.107   7.589  10.063  2.6766  1.2096  0.8557
  153MOL0     H20599  11.228   7.499   9.980  0.0149  0.3535  0.4322
  153MOL0     H20600  11.322   7.655   9.870 -2.7667 -2.8871 -1.7804
  153MOL0     H20601  11.167   7.739   9.841  1.3913  3.1639  0.2055
  153MOL0     H20602  11.156   7.837  10.052  1.3181 -0.4252  1.7473
  153MOL0     H20603  11.296   7.760  10.124 -1.7591 -1.2510  0.5124
  153MOL0     H20604  11.304   8.011  10.030  0.1021  1.5230 -2.8190
  153MOL0     H20605  11.311   7.939   9.869 -0.8125  2.6718  1.1490
  153MOL0     H20606  11.557   7.854   9.772  0.3002 -1.4377  0.9374
  153MOL0     H20607  11.784   7.830   9.772 -1.2858 -0.4806  0.2346
  153MOL0     H20608  11.898   7.858   9.913 -1.6729  1.6204  2.3405
  153MOL0     H20609  11.859   7.616   9.814  0.5168  0.6981  0.9850
  153MOL0     H20610  11.728   7.608   9.931  1.5164 -2.0626  3.8421
  153MOL0     H20611  11.897   7.717  10.108  2.5591  0.8873 -0.2322
  153MOL0     H20612  12.027   7.669   9.997 -0.1923 -1.3054 -0.3288
  153MOL0     H20613  11.809   7.466  10.079  0.5293 -1.9732 -0.6746
  153MOL0     H20614  11.964   7.483  10.163  1.9994  0.8494 -0.7569
  153MOL0     H20615  12.160   7.315   9.832 -0.4874  0.6667 -0.7866
  153MOL0     H20616  12.325   7.003   9.875  0.7355  1.9173  3.0747
  153MOL0     H20617  12.221   7.024   9.735  1.8387 -1.5989  0.2309
  153MOL0     H20618  12.318   7.162   9.781 -1.2428  0.4470 -0.7300
  153MOL0     H20619  12.088   6.651  10.268 -0.4407 -1.8529  0.6642
  153MOL0     H20620  12.125   6.413  10.258  0.2935 -1.6579 -0.6767
  153MOL0     H20621  12.002   6.193   9.887 -0.4395  2.8912  1.4943
  153MOL0     H20622  12.175   6.241   9.875  1.4008  1.3348  2.1302
  153MOL0     H20623  12.082   5.996  10.036 -1.3504  0.0357 -1.3672
  153MOL0     H20624  12.153   5.986   9.868 -2.6464  0.2424 -0.6776
  153MOL0     H20625  12.287   6.113  10.110  4.3705 -2.3321  1.4299
  153MOL0     H20626  12.359   6.086   9.954 -0.2959 -0.4875 -0.8611
  153MOL0     H20627  12.314   5.820  10.000  2.8118 -2.2479  1.3227
  153MOL0     H20628  12.449   5.922  10.073 -0.2769  2.0066  3.3678
  153MOL0     H20629  12.194   5.848  10.203  0.4470  0.1375  0.7516
  153MOL0     H20630  12.314   5.950  10.281  0.3600 -1.1587  1.2975
  153MOL0     H20631  12.359   5.658  10.197  0.3817  0.0550  0.4180
  153MOL0     H20632  12.488   5.766  10.248  0.2451  0.2828 -2.2908
  153MOL0     H20633  12.218   5.694  10.390  0.5978 -0.8586  0.3104
  153MOL0     H20634  12.333   5.811  10.463 -4.1530  1.7725  0.7043
  153MOL0     H20635  12.356   5.604  10.579  0.2901  2.2201 -0.0942
  153MOL0     H20636  12.497   5.671  10.499  0.2476  0.8897 -0.1706
  153MOL0     H20637  11.992   6.419   9.849 -2.3315  0.3771  0.7149
  153MOL0     H20638  11.956   6.661   9.856  1.3326  1.0661  0.3811
  153MOL0     H20639  11.900   7.024  10.145 -4.4010  2.0052 -1.9146
  153MOL0     H20640  11.845   7.246  10.119  0.6381  1.5609  0.9732
  153MOL0     H20641  11.261   7.078   9.490 -0.8697 -1.3185 -1.1994
  153MOL0     H20642  11.346   6.883   9.356  1.2052 -1.3844 -0.0871
  153MOL0     H20643  11.281   6.275   9.442 -0.8312 -0.7626  0.2429
  153MOL0     H20644  11.378   6.092   9.304 -1.4573  1.1314 -2.7261
  153MOL0     H20645  11.780   6.135   9.133 -0.7912  0.1832  1.2997
  153MOL0     H20646  11.705   6.006   9.049  0.6704 -0.6409  0.2819
  153MOL0     H20647  11.666   6.306   9.023  2.1507 -1.9179  2.4142
  153MOL0     H20648  11.543   6.186   8.946  1.0376 -3.3874 -3.7878
  153MOL0     H20649  11.737   6.080   8.832  0.1114 -0.0203  2.2266
  153MOL0     H20650  11.846   6.219   8.872 -1.6774  1.6367  1.9000
  153MOL0     H20651  11.586   6.222   8.700  0.9969 -1.8149 -0.2256
  153MOL0     H20652  11.744   6.248   8.649  0.5493 -0.3541 -0.5093
  153MOL0     H20653  11.580   6.621   8.799 -3.7927 -0.2452 -3.1192
  153MOL0     H20654  11.723   6.328   9.251 -0.5784  1.6019 -2.1157
  153MOL0     H20655  11.613   6.526   9.373  1.9899 -0.7451  1.5843
  154MOL0     O20656   2.850   0.496   9.100 -0.4927 -0.1055  0.0819
  154MOL0     C20657   2.898   0.603   9.130 -0.6069  0.4258  0.3157
  154MOL0     O20658   2.833   0.709   9.193  0.0099 -0.3978  0.4219
  154MOL0     C20659   2.696   0.712   9.220 -0.5146  0.5408  0.1256
  154MOL0     C20660   2.668   0.800   9.319  0.6375  0.1003 -0.9349
  154MOL0     C20661   2.537   0.829   9.358  0.3046  0.7170 -0.6281
  154MOL0     C20662   2.433   0.758   9.304  0.2383 -0.2434  0.8992
  154MOL0     O20663   2.299   0.774   9.353 -0.6204  0.2543 -0.0861
  154MOL0     C20664   2.286   0.779   9.492 -0.1118  0.0176 -0.1903
  154MOL0     C20665   2.147   0.725   9.519  0.0533  0.6683  0.5287
  154MOL0     C20666   2.132   0.575   9.501 -0.1732 -0.5971  0.4900
  154MOL0     C20667   1.983   0.534   9.532  0.0539 -0.2086  1.1416
  154MOL0     C20668   1.957   0.386   9.510  0.9016 -0.1175  0.6306
  154MOL0     C20669   1.938   0.344   9.363  0.0949 -0.1781 -0.5612
  154MOL0     C20670   1.933   0.185   9.348 -0.6760  0.8435  0.2749
  154MOL0     C20671   1.892   0.146   9.213  0.4560 -0.2793  1.1173
  154MOL0     N20672   1.972   0.198   9.101 -0.1658  0.1985 -0.4416
  154MOL0     C20673   2.104   0.155   9.074 -0.4153 -0.4335  0.4532
  154MOL0     C20674   2.145   0.232   8.976 -0.1422 -0.3655 -1.1732
  154MOL0     C20675   2.272   0.214   8.895 -0.2815 -0.7777  0.0095
  154MOL0     C20676   2.399   0.286   8.952  1.0805 -0.3952 -1.0056
  154MOL0     C20677   2.510   0.289   8.848  0.5839 -0.2760  0.1449
  154MOL0     C20678   2.480   0.397   8.753  0.7292 -1.2768 -0.5227
  154MOL0     O20679   2.582   0.379   8.657  0.5304  0.6568 -0.0317
  154MOL0     C20680   2.690   0.464   8.650 -0.2270 -0.2485 -0.6656
  154MOL0     C20681   2.720   0.575   8.731 -0.5791 -0.1212  0.0690
  154MOL0     C20682   2.836   0.659   8.710 -0.2608  0.5397  1.1924
  154MOL0     C20683   2.851   0.780   8.788  0.0479 -0.1834 -1.0005
  154MOL0     C20684   2.929   0.618   8.618 -1.0739 -0.2376 -0.3566
  154MOL0     C20685   3.050   0.695   8.589 -0.3334  0.0784 -1.0084
  154MOL0     O20686   3.085   0.812   8.667  1.0255  0.4381  0.1744
  154MOL0     C20687   3.201   0.875   8.638 -0.5021 -0.0201  0.1415
  154MOL0     C20688   3.315   0.849   8.711 -0.1974 -0.4769 -0.1859
  154MOL0     C20689   3.436   0.900   8.665 -0.0336  0.0921  0.4675
  154MOL0     C20690   3.439   0.982   8.551  0.9563  0.0859 -0.9398
  154MOL0     O20691   3.566   1.031   8.518 -0.7757  0.2487 -0.6120
  154MOL0     C20692   3.572   1.174   8.536  0.3722  0.7627 -0.5315
  154MOL0     C20693   3.661   1.205   8.423 -0.3097 -0.2624  0.0411
  154MOL0     C20694   3.806   1.149   8.430  0.0017  0.5849 -0.0749
  154MOL0     C20695   3.890   1.183   8.311  0.7282 -0.0666  0.8382
  154MOL0     C20696   4.037   1.175   8.333 -1.0783  0.0282  0.3331
  154MOL0     C20697   4.121   1.104   8.220  1.2241 -0.6252  0.0699
  154MOL0     C20698   4.269   1.124   8.254  0.2911 -0.6668 -0.3158
  154MOL0     C20699   4.332   1.210   8.142  0.5029 -0.0035 -0.5782
  154MOL0    Cl20700   4.335   1.097   7.996  0.1628 -0.0935 -0.0689
  154MOL0     C20701   3.325   1.018   8.491  0.6696 -0.2410 -0.8268
  154MOL0     C20702   3.208   0.965   8.535  0.8315 -0.2611 -0.5126
  154MOL0     O20703   3.117   0.659   8.493  0.4095  0.2060  0.4970
  154MOL0     C20704   2.904   0.508   8.535 -0.1667  0.5143  1.5543
  154MOL0     C20705   2.788   0.432   8.554  0.2300  0.7568 -0.6228
  154MOL0     N20706   2.050   0.327   8.955  0.0849 -0.9038  0.1185
  154MOL0     N20707   1.944   0.302   9.028  0.5715 -0.2610 -0.0605
  154MOL0     C20708   2.458   0.666   9.201  1.1018 -0.1026  0.0593
  154MOL0     C20709   2.592   0.639   9.156 -0.0406  0.2367 -0.5986
  154MOL0     C20710   3.037   0.617   9.091 -0.0607 -0.0311  0.7853
  154MOL0     C20711   3.118   0.702   9.164 -0.7472 -0.5838  0.5893
  154MOL0     C20712   3.252   0.715   9.133 -0.1687 -0.7481 -0.2265
  154MOL0     C20713   3.304   0.658   9.016  0.6152 -0.6743  0.0340
  154MOL0     O20714   3.436   0.682   8.976 -0.6794 -0.0209 -0.0095
  154MOL0     C20715   3.518   0.768   9.061 -0.8951  0.1305  0.7533
  154MOL0     C20716   3.568   0.702   9.192 -0.0289  0.4749 -0.3468
  154MOL0     C20717   3.664   0.791   9.277 -0.0144  1.0218  0.3108
  154MOL0     C20718   3.787   0.722   9.336  0.3218  0.8122  0.6316
  154MOL0     C20719   3.862   0.821   9.414  0.3208  0.1184  0.1081
  154MOL0     C20720   3.928   0.909   9.476 -0.6848  0.1489  0.3455
  154MOL0     C20721   3.219   0.575   8.935 -0.0781  0.7229 -0.4157
  154MOL0     C20722   3.084   0.545   8.974 -0.5521  0.4846 -0.3363
  154MOL0     H20723   2.749   0.852   9.370  2.2715 -1.5707 -1.7361
  154MOL0     H20724   2.515   0.901   9.437  0.7537  1.1241 -0.8715
  154MOL0     H20725   2.359   0.712   9.539 -0.6118  0.1141  0.7364
  154MOL0     H20726   2.286   0.885   9.521 -0.9809 -0.3568  1.2563
  154MOL0     H20727   2.133   0.751   9.625  0.6271  1.2107  0.4749
  154MOL0     H20728   2.069   0.784   9.472  0.6012  0.3521 -0.8210
  154MOL0     H20729   2.169   0.558   9.400 -1.1790 -0.0719  0.0132
  154MOL0     H20730   2.197   0.530   9.577  0.2446  0.2131  0.6315
  154MOL0     H20731   1.956   0.545   9.637 -0.7804  3.6507  0.6832
  154MOL0     H20732   1.918   0.595   9.468 -0.0128 -1.5345 -0.1050
  154MOL0     H20733   2.033   0.326   9.560  0.2141 -1.7556 -0.2333
  154MOL0     H20734   1.874   0.342   9.564  1.7717 -1.4308  0.9241
  154MOL0     H20735   1.852   0.396   9.320  0.7005  2.1751  0.9126
  154MOL0     H20736   2.023   0.376   9.302 -0.3508 -1.7129 -2.0712
  154MOL0     H20737   2.027   0.140   9.382  1.1041  3.4779 -0.7764
  154MOL0     H20738   1.858   0.131   9.406 -0.9154 -0.7877 -1.4671
  154MOL0     H20739   1.792   0.188   9.196 -0.0445 -2.5589 -3.0712
  154MOL0     H20740   1.883   0.037   9.202  1.0087 -0.2837  0.6710
  154MOL0     H20741   2.157   0.071   9.117  0.6852  0.6814  1.3625
  154MOL0     H20742   2.296   0.107   8.893  1.5476 -0.4055 -1.6956
  154MOL0     H20743   2.243   0.253   8.797  0.6423  2.0537  0.7937
  154MOL0     H20744   2.434   0.232   9.041  1.8032  1.6183  0.0125
  154MOL0     H20745   2.367   0.384   8.988 -0.3220 -1.2545  0.2211
  154MOL0     H20746   2.529   0.195   8.797  0.1474 -0.1825 -0.1930
  154MOL0     H20747   2.599   0.322   8.902 -0.0635 -0.6386  1.4785
  154MOL0     H20748   2.471   0.502   8.782 -2.5052 -1.1970 -1.4193
  154MOL0     H20749   2.390   0.372   8.696  1.5299  1.1269 -3.0748
  154MOL0     H20750   2.648   0.605   8.807 -0.1352  1.7908 -0.2038
  154MOL0     H20751   2.759   0.804   8.842  1.1991 -0.1343  1.0643
  154MOL0     H20752   2.933   0.777   8.861 -0.9378 -1.2261  0.1117
  154MOL0     H20753   2.862   0.869   8.725 -0.8013  0.9735  0.4091
  154MOL0     H20754   3.312   0.782   8.796 -0.0490  1.7491  1.6515
  154MOL0     H20755   3.534   0.873   8.703  0.8616 -1.7889 -2.7876
  154MOL0     H20756   3.473   1.219   8.529  0.2372  0.6307  0.3219
  154MOL0     H20757   3.620   1.195   8.632  2.0742  0.4720 -1.2899
  154MOL0     H20758   3.608   1.178   8.331 -1.4262  1.0537  0.2563
  154MOL0     H20759   3.667   1.314   8.424 -1.4681 -0.1651  1.9206
  154MOL0     H20760   3.797   1.041   8.439 -3.3199  0.7105 -0.5006
  154MOL0     H20761   3.855   1.194   8.517  2.2364  2.7510 -2.3029
  154MOL0     H20762   3.852   1.122   8.228 -0.8755  1.9911 -0.0312
  154MOL0     H20763   3.864   1.284   8.278 -1.0419 -1.4260 -2.3642
  154MOL0     H20764   4.064   1.139   8.433  0.2471  0.5647  0.2014
  154MOL0     H20765   4.076   1.277   8.346  0.6889 -0.9669  4.5281
  154MOL0     H20766   4.096   0.998   8.233 -2.5331 -0.0069 -1.0859
  154MOL0     H20767   4.099   1.136   8.118 -3.3501 -0.5019  0.9005
  154MOL0     H20768   4.318   1.026   8.257  1.5057 -0.1065  3.1214
  154MOL0     H20769   4.283   1.166   8.355 -2.5773  0.6881 -0.3948
  154MOL0     H20770   4.437   1.234   8.166  0.1766  0.5550  0.3555
  154MOL0     H20771   4.280   1.306   8.130  0.2903  0.1658  1.3946
  154MOL0     H20772   3.339   1.080   8.403  1.7545  0.1356 -0.4004
  154MOL0     H20773   3.117   0.991   8.481 -0.8154 -0.3980  2.0151
  154MOL0     H20774   2.958   0.471   8.449  0.7874  0.7563  2.0349
  154MOL0     H20775   2.761   0.357   8.480  1.4253 -0.9283  0.5705
  154MOL0     H20776   2.367   0.625   9.160 -1.1792  1.0925  3.4133
  154MOL0     H20777   2.617   0.582   9.067 -1.6131 -1.6683  0.1088
  154MOL0     H20778   3.082   0.777   9.234 -1.2818  1.9137 -2.1351
  154MOL0     H20779   3.304   0.785   9.198 -0.4275 -1.1466  0.4291
  154MOL0     H20780   3.607   0.805   9.010  0.6962  0.4195  3.5333
  154MOL0     H20781   3.461   0.860   9.080 -1.2493  0.6985 -2.4230
  154MOL0     H20782   3.612   0.604   9.173  0.1443  0.3221  0.7548
  154MOL0     H20783   3.482   0.695   9.260  1.4638  0.8430  1.6860
  154MOL0     H20784   3.606   0.839   9.356  2.7934  2.6661  1.5049
  154MOL0     H20785   3.705   0.872   9.216  2.8249 -1.3058 -1.1731
  154MOL0     H20786   3.843   0.670   9.258 -2.1272 -1.7072  0.3709
  154MOL0     H20787   3.751   0.642   9.401  0.9961  0.6678  0.8368
  154MOL0     H20788   3.991   0.980   9.524  1.0885 -2.1929  1.6465
  154MOL0     H20789   3.263   0.540   8.842  0.7897 -0.5627  0.4457
  154MOL0     H20790   3.012   0.479   8.927  0.5007 -1.9530  1.2748
  155MOL0     O20791   0.829   7.479   7.577  0.1768 -0.0791  0.2127
  155MOL0     C20792   0.734   7.504   7.653 -0.0071  0.7980  0.2269
  155MOL0     O20793   0.651   7.406   7.698 -0.5675  0.4928  0.5504
  155MOL0     C20794   0.687   7.282   7.662 -0.5547 -0.5638  0.5783
  155MOL0     C20795   0.649   7.221   7.541 -1.5297  0.4682 -1.1747
  155MOL0     C20796   0.695   7.090   7.512  0.4976  0.6706  0.2949
  155MOL0     C20797   0.771   7.015   7.608  0.2227 -0.0202 -0.3532
  155MOL0     O20798   0.815   6.891   7.583  0.0635 -0.0802 -0.1983
  155MOL0     C20799   0.708   6.798   7.589  0.7281 -0.2943 -0.4908
  155MOL0     C20800   0.697   6.699   7.474  0.6430 -0.1099  0.8568
  155MOL0     C20801   0.818   6.612   7.465 -0.2853 -0.2016  0.1744
  155MOL0     C20802   0.798   6.501   7.362  0.9136 -0.0677  0.8275
  155MOL0     C20803   0.928   6.421   7.320 -0.4785  0.5967  0.2659
  155MOL0     C20804   0.887   6.298   7.228 -1.0783 -0.4374 -0.2810
  155MOL0     C20805   1.019   6.222   7.178 -0.8175  0.0277  0.7918
  155MOL0     C20806   1.079   6.142   7.295  0.4442  0.6205 -0.3794
  155MOL0     N20807   1.186   6.212   7.378 -0.4568 -0.5030  0.3230
  155MOL0     C20808   1.262   6.320   7.340 -0.3386  1.5107 -0.2276
  155MOL0     C20809   1.366   6.323   7.431  1.1551 -0.0171  0.1849
  155MOL0     C20810   1.484   6.411   7.444  0.0108 -0.4910  0.3941
  155MOL0     C20811   1.467   6.514   7.552 -0.0873  1.0426  0.5823
  155MOL0     C20812   1.585   6.604   7.553  0.4117  0.1220 -0.0287
  155MOL0     C20813   1.573   6.704   7.673 -0.7070 -0.5395 -0.3592
  155MOL0     O20814   1.686   6.787   7.676 -0.9118  0.0126  0.1607
  155MOL0     C20815   1.658   6.919   7.693 -1.1281 -0.5870 -0.6974
  155MOL0     C20816   1.651   7.013   7.596 -0.5199 -0.4038 -0.5120
  155MOL0     C20817   1.650   7.154   7.614 -0.3712 -0.4317  0.3023
  155MOL0     C20818   1.670   7.246   7.497 -0.6492 -0.2460 -0.2184
  155MOL0     C20819   1.664   7.204   7.750 -0.6735 -0.1184  0.5593
  155MOL0     C20820   1.660   7.342   7.792 -0.9120 -0.5521 -0.1202
  155MOL0     O20821   1.708   7.370   7.920  0.4382  0.0751 -0.6102
  155MOL0     C20822   1.666   7.467   8.007 -0.1482  0.2804 -0.6276
  155MOL0     C20823   1.745   7.468   8.119 -0.3743  0.3566 -0.7995
  155MOL0     C20824   1.721   7.565   8.223 -0.5240 -0.2073 -0.2457
  155MOL0     C20825   1.609   7.641   8.222 -0.7124 -0.0012 -0.6790
  155MOL0     O20826   1.571   7.708   8.341  0.3456  0.8397 -0.0870
  155MOL0     C20827   1.674   7.772   8.419  0.3875  0.0947 -0.2212
  155MOL0     C20828   1.622   7.829   8.542 -0.3825 -0.1101 -0.2587
  155MOL0     C20829   1.523   7.939   8.517  0.5252 -0.7444  0.4433
  155MOL0     C20830   1.433   7.950   8.649 -0.4746 -0.6244 -0.1078
  155MOL0     C20831   1.340   8.068   8.641 -0.3359  0.8054  0.4211
  155MOL0     C20832   1.397   8.187   8.707 -0.8306 -0.3283  0.5161
  155MOL0     C20833   1.333   8.310   8.654 -0.4230  0.1258  0.1886
  155MOL0     C20834   1.358   8.421   8.756  0.1794 -0.0684  0.1217
  155MOL0    Cl20835   1.535   8.451   8.766  0.3209  0.2237  0.1681
  155MOL0     C20836   1.524   7.632   8.115  0.3323  0.0636 -0.1029
  155MOL0     C20837   1.550   7.545   8.009 -0.0303 -0.0023 -0.4879
  155MOL0     O20838   1.610   7.422   7.721 -0.1758  0.4192  0.2683
  155MOL0     C20839   1.671   7.102   7.846 -0.0561  0.2457 -1.0416
  155MOL0     C20840   1.668   6.966   7.825 -0.6029 -0.1944  1.1406
  155MOL0     N20841   1.337   6.221   7.532 -0.7655  1.1652  0.4826
  155MOL0     N20842   1.230   6.165   7.498 -0.2293  0.0749 -0.3021
  155MOL0     C20843   0.808   7.076   7.726  0.2039 -0.1315  0.4777
  155MOL0     C20844   0.771   7.208   7.749 -0.5784 -0.6884 -0.0516
  155MOL0     C20845   0.720   7.640   7.699  1.1313  0.4042 -0.3885
  155MOL0     C20846   0.782   7.751   7.637  0.0874  0.1757 -0.2805
  155MOL0     C20847   0.773   7.872   7.695  0.1370 -0.1733  0.0901
  155MOL0     C20848   0.696   7.896   7.811 -0.9200 -0.7466  0.2669
  155MOL0     O20849   0.694   8.017   7.880 -0.3826 -0.1069  0.0773
  155MOL0     C20850   0.684   8.133   7.801 -0.5682  0.0889  0.7627
  155MOL0     C20851   0.598   8.239   7.869 -0.1810  0.2885  0.1097
  155MOL0     C20852   0.690   8.301   7.983 -0.3549  0.7483 -1.0665
  155MOL0     C20853   0.589   8.338   8.096 -0.1059  0.0739 -0.0716
  155MOL0     C20854   0.557   8.481   8.077  0.3683  0.8922  0.6722
  155MOL0     C20855   0.531   8.595   8.049 -0.8607  0.0408  0.1582
  155MOL0     C20856   0.629   7.790   7.867 -0.2864 -0.7842  0.3764
  155MOL0     C20857   0.629   7.661   7.804  0.0624 -0.7619  0.4214
  155MOL0     H20858   0.600   7.294   7.477 -1.7934 -0.2365 -1.7949
  155MOL0     H20859   0.670   7.037   7.421 -1.3538  0.9781  0.5958
  155MOL0     H20860   0.704   6.735   7.678 -0.2247 -2.4349 -1.9711
  155MOL0     H20861   0.611   6.850   7.582  1.5335  1.8515  2.2925
  155MOL0     H20862   0.602   6.644   7.481  0.6732 -0.9411 -3.0431
  155MOL0     H20863   0.694   6.752   7.379 -1.2065 -2.5614 -0.5806
  155MOL0     H20864   0.912   6.666   7.451 -0.7523  0.1068 -2.3324
  155MOL0     H20865   0.815   6.564   7.563 -0.7049 -0.2371  0.1436
  155MOL0     H20866   0.726   6.430   7.404 -0.1226  0.3029 -0.2848
  155MOL0     H20867   0.751   6.551   7.277  3.8832 -0.3568 -1.1272
  155MOL0     H20868   1.006   6.486   7.279 -2.0370  1.1452 -1.9788
  155MOL0     H20869   0.964   6.379   7.414  1.2727  2.4537  0.4929
  155MOL0     H20870   0.822   6.233   7.287 -1.7602  0.7553  0.3140
  155MOL0     H20871   0.839   6.338   7.139  1.1751  0.2366 -1.2593
  155MOL0     H20872   0.995   6.169   7.086 -1.0208  2.7265 -0.8294
  155MOL0     H20873   1.090   6.298   7.144 -1.1989 -0.1192 -0.3722
  155MOL0     H20874   1.111   6.047   7.251 -0.2799  0.7055 -1.1206
  155MOL0     H20875   1.005   6.106   7.367 -0.8597 -0.3503 -2.1141
  155MOL0     H20876   1.249   6.377   7.248  1.1620  0.2591 -1.2749
  155MOL0     H20877   1.576   6.355   7.462 -0.5043 -1.5398 -0.2117
  155MOL0     H20878   1.496   6.467   7.351  0.5455  1.3171  1.4989
  155MOL0     H20879   1.449   6.479   7.654 -1.6516  2.9454  1.0140
  155MOL0     H20880   1.375   6.565   7.520 -3.8188 -2.3860  4.4993
  155MOL0     H20881   1.596   6.656   7.458  1.0682 -2.9725 -1.7610
  155MOL0     H20882   1.674   6.544   7.575 -0.1895  0.2380  3.3272
  155MOL0     H20883   1.556   6.663   7.773  1.5010  0.7123  0.6059
  155MOL0     H20884   1.488   6.767   7.645  0.4539  1.2385  0.0011
  155MOL0     H20885   1.663   6.983   7.493  0.0410  1.1504 -0.9283
  155MOL0     H20886   1.700   7.193   7.406  0.5024  1.1641 -0.7105
  155MOL0     H20887   1.587   7.314   7.474 -0.1734  1.1299  1.7845
  155MOL0     H20888   1.754   7.315   7.513 -1.7885  1.7333 -2.0873
  155MOL0     H20889   1.829   7.400   8.130 -2.8056 -2.5337  1.9183
  155MOL0     H20890   1.797   7.567   8.300  1.3367  0.6414 -2.0138
  155MOL0     H20891   1.747   7.694   8.445 -0.4423 -0.6076  0.0465
  155MOL0     H20892   1.718   7.847   8.353 -3.6923  2.7396 -0.2901
  155MOL0     H20893   1.571   7.754   8.603 -1.5038  0.2850 -0.6776
  155MOL0     H20894   1.704   7.860   8.607 -2.4816 -1.5177  3.3672
  155MOL0     H20895   1.449   7.912   8.442 -2.1125  0.3237  2.4887
  155MOL0     H20896   1.570   8.033   8.488 -1.9854 -0.2806 -2.6269
  155MOL0     H20897   1.381   7.855   8.666  3.2315 -2.4627  2.3217
  155MOL0     H20898   1.500   7.961   8.735  0.0949 -1.2642 -0.4594
  155MOL0     H20899   1.239   8.044   8.677 -0.8321  1.6663 -0.3319
  155MOL0     H20900   1.319   8.104   8.539 -1.6144  0.4545  0.5408
  155MOL0     H20901   1.389   8.184   8.816 -0.1987  0.8918  0.6046
  155MOL0     H20902   1.502   8.198   8.680 -0.9103  0.9602  0.6834
  155MOL0     H20903   1.225   8.305   8.637 -0.1042  1.1110 -2.6995
  155MOL0     H20904   1.385   8.332   8.560  0.7450  0.3947  0.8745
  155MOL0     H20905   1.331   8.394   8.859 -0.5524  0.9638  0.2180
  155MOL0     H20906   1.307   8.512   8.721  3.9923  0.2707 -5.8245
  155MOL0     H20907   1.437   7.695   8.103  0.3102 -0.3551 -2.7687
  155MOL0     H20908   1.493   7.562   7.918  1.8166 -6.4097 -3.3864
  155MOL0     H20909   1.690   7.126   7.951  1.4664 -2.4429 -0.6082
  155MOL0     H20910   1.682   6.896   7.907  0.7317 -2.1848 -0.6861
  155MOL0     H20911   0.878   7.034   7.797  2.2716 -1.0444 -1.9461
  155MOL0     H20912   0.803   7.261   7.839 -1.6018  1.3245 -0.8087
  155MOL0     H20913   0.864   7.732   7.568  4.3947  2.3445  3.6824
  155MOL0     H20914   0.834   7.950   7.649  0.8058 -0.9996 -0.4499
  155MOL0     H20915   0.779   8.179   7.772 -0.8470 -1.1574 -2.5356
  155MOL0     H20916   0.632   8.103   7.710 -1.9873 -1.5913  2.0499
  155MOL0     H20917   0.508   8.191   7.908 -0.2772  0.7550  0.4679
  155MOL0     H20918   0.569   8.315   7.795 -1.1972 -0.7436 -0.5788
  155MOL0     H20919   0.744   8.390   7.947  3.4357 -1.3054 -0.9300
  155MOL0     H20920   0.764   8.233   8.026 -0.6807  0.3891 -1.0801
  155MOL0     H20921   0.633   8.326   8.196  3.1876  0.3023 -1.3702
  155MOL0     H20922   0.495   8.281   8.096 -1.0172  1.5298 -0.8664
  155MOL0     H20923   0.496   8.695   8.035 -0.3103  0.2771  0.4241
  155MOL0     H20924   0.572   7.801   7.959  0.1681 -1.9690  0.8197
  155MOL0     H20925   0.576   7.576   7.845  0.3746 -1.6314 -0.9152
  156MOL0     O20926   4.374   5.970   1.341  0.3913 -0.0228  1.0186
  156MOL0     C20927   4.454   5.936   1.425  0.9976  0.1830 -0.8394
  156MOL0     O20928   4.478   5.810   1.465 -0.6712 -0.3520  0.2605
  156MOL0     C20929   4.417   5.691   1.417  1.3796 -0.2391 -0.0383
  156MOL0     C20930   4.498   5.579   1.391 -0.6502 -0.8933 -0.6009
  156MOL0     C20931   4.445   5.452   1.365  0.7571  0.2101  0.0471
  156MOL0     C20932   4.307   5.432   1.370  0.6623  0.1443 -0.7221
  156MOL0     O20933   4.233   5.316   1.370 -0.5901  0.0381  0.3118
  156MOL0     C20934   4.274   5.205   1.285  0.0665  0.0653 -0.4380
  156MOL0     C20935   4.228   5.074   1.358  1.2775 -0.0883  0.5738
  156MOL0     C20936   4.073   5.079   1.392  0.3892 -0.3041  0.7307
  156MOL0     C20937   4.048   4.977   1.503  0.1970 -0.0998  0.2007
  156MOL0     C20938   3.913   4.942   1.543 -0.1437  0.5557 -0.5790
  156MOL0     C20939   3.835   4.887   1.429  0.6146 -1.4811 -0.1502
  156MOL0     C20940   3.682   4.859   1.478 -1.2016 -0.0346 -0.2232
  156MOL0     C20941   3.675   4.737   1.566  0.6493  0.3909  0.0457
  156MOL0     N20942   3.535   4.704   1.592  0.2197  0.9336  0.2927
  156MOL0     C20943   3.439   4.650   1.503  0.6262  0.7013 -0.4053
  156MOL0     C20944   3.320   4.659   1.567  0.0741 -0.0021 -0.1640
  156MOL0     C20945   3.183   4.639   1.505 -0.0571  0.1957  0.6248
  156MOL0     C20946   3.124   4.773   1.443  0.1023  0.3765 -0.2228
  156MOL0     C20947   3.002   4.738   1.355 -0.2425 -0.1393  0.4494
  156MOL0     C20948   2.879   4.715   1.436  0.1238  0.3649  0.5998
  156MOL0     O20949   2.848   4.836   1.489  1.1869 -0.2636 -0.5977
  156MOL0     C20950   2.723   4.848   1.557 -0.3201 -0.4161 -0.1568
  156MOL0     C20951   2.689   4.970   1.597 -0.8957 -0.4776 -0.1677
  156MOL0     C20952   2.564   4.987   1.660 -0.5595  0.4770 -0.7596
  156MOL0     C20953   2.519   5.133   1.675  0.6630  0.3202 -0.2864
  156MOL0     C20954   2.478   4.887   1.692  0.4659  0.2181  0.4563
  156MOL0     C20955   2.358   4.902   1.776  0.1404  0.1648 -0.1929
  156MOL0     O20956   2.291   4.783   1.788 -0.5262 -0.1624 -0.0940
  156MOL0     C20957   2.209   4.773   1.895 -1.0037  0.3454  0.2171
  156MOL0     C20958   2.254   4.789   2.033 -0.4771 -0.3464 -0.2709
  156MOL0     C20959   2.163   4.781   2.137 -1.1822 -0.6280  0.5198
  156MOL0     C20960   2.031   4.741   2.108 -0.9285 -0.6094  0.9179
  156MOL0     O20961   1.937   4.719   2.206 -0.2175  0.2246  0.1933
  156MOL0     C20962   1.975   4.669   2.335 -0.4317 -0.0599 -0.1777
  156MOL0     C20963   2.008   4.528   2.336  0.5172 -0.1132  0.2518
  156MOL0     C20964   1.895   4.432   2.275 -0.3127  0.4681 -0.0621
  156MOL0     C20965   1.951   4.293   2.222 -0.6840 -0.6820 -0.1659
  156MOL0     C20966   1.821   4.211   2.186 -0.5992 -0.8099 -0.0463
  156MOL0     C20967   1.857   4.075   2.149 -0.4717 -0.6196  0.2428
  156MOL0     C20968   1.741   3.979   2.146  0.1118  1.2631 -0.1283
  156MOL0     C20969   1.792   3.848   2.082  0.2522  0.8890  0.1361
  156MOL0    Cl20970   1.687   3.718   2.077  0.0360  0.1138  0.4222
  156MOL0     C20971   1.989   4.724   1.977  0.1287 -1.0570  1.0815
  156MOL0     C20972   2.075   4.735   1.875  0.5815 -0.3654  0.2877
  156MOL0     O20973   2.320   5.008   1.830  0.0929  1.0430  0.3926
  156MOL0     C20974   2.525   4.758   1.652 -0.5302 -0.2974 -0.3218
  156MOL0     C20975   2.639   4.737   1.582 -0.7364 -0.4030 -0.1877
  156MOL0     N20976   3.349   4.721   1.687 -0.2760 -0.2810 -0.3756
  156MOL0     N20977   3.473   4.743   1.701  0.3545 -0.9920 -0.0172
  156MOL0     C20978   4.227   5.542   1.381 -0.5655  0.1533  0.3369
  156MOL0     C20979   4.276   5.669   1.398  0.2093  0.9044  0.2993
  156MOL0     C20980   4.543   6.046   1.481 -0.6180  0.4202  0.3065
  156MOL0     C20981   4.542   6.177   1.444  0.1603 -0.1619 -0.3264
  156MOL0     C20982   4.641   6.274   1.488 -0.6910  0.2066 -0.1911
  156MOL0     C20983   4.749   6.225   1.562 -0.1636  0.7146 -0.6896
  156MOL0     O20984   4.861   6.299   1.597 -0.7704  0.0514  0.1592
  156MOL0     C20985   4.856   6.442   1.576  0.2843  0.4731  0.2953
  156MOL0     C20986   4.984   6.506   1.630  0.2980 -0.1714 -0.0665
  156MOL0     C20987   4.974   6.659   1.609  0.2069  0.4477 -0.7196
  156MOL0     C20988   5.093   6.725   1.666  0.6361 -0.4890  0.0128
  156MOL0     C20989   5.214   6.703   1.580 -0.1681 -0.7056  1.0851
  156MOL0     C20990   5.309   6.675   1.508  0.0403  0.2975 -0.3990
  156MOL0     C20991   4.741   6.099   1.616 -0.3399 -0.3253  0.3849
  156MOL0     C20992   4.641   6.008   1.575  0.3023  0.5662  0.1197
  156MOL0     H20993   4.604   5.603   1.386 -0.0021 -2.2221  3.4219
  156MOL0     H20994   4.510   5.365   1.358  0.9594  0.4873 -2.0630
  156MOL0     H20995   4.234   5.202   1.183 -0.7536  0.8103 -0.1500
  156MOL0     H20996   4.381   5.187   1.272  0.6744  0.1553  3.2988
  156MOL0     H20997   4.239   4.983   1.298  0.8938  0.7862 -0.8651
  156MOL0     H20998   4.284   5.072   1.452 -1.6537  0.4034  2.5014
  156MOL0     H20999   4.047   5.179   1.428 -0.5389  0.4117 -1.7088
  156MOL0     H21000   4.015   5.059   1.302  1.0786  0.6590  0.0622
  156MOL0     H21001   4.101   4.885   1.478  1.7525  0.7364  0.2953
  156MOL0     H21002   4.101   5.011   1.593  5.5447 -0.6278 -2.3649
  156MOL0     H21003   3.924   4.859   1.615 -1.8757  0.2934 -0.5741
  156MOL0     H21004   3.857   5.022   1.592 -1.3234 -0.5488 -0.0611
  156MOL0     H21005   3.815   4.965   1.356 -3.6631 -2.8224 -0.7018
  156MOL0     H21006   3.884   4.797   1.392 -0.5946 -1.6656 -1.3734
  156MOL0     H21007   3.646   4.947   1.532 -0.1066  0.8605 -0.9062
  156MOL0     H21008   3.618   4.846   1.390 -0.7694 -2.5980 -0.2557
  156MOL0     H21009   3.730   4.758   1.658  1.6470  2.4324 -0.9545
  156MOL0     H21010   3.715   4.645   1.522  2.3434 -0.0942  2.4220
  156MOL0     H21011   3.461   4.609   1.405  4.2319 -1.3793  1.0688
  156MOL0     H21012   3.184   4.570   1.420  1.0354  3.3202 -2.1205
  156MOL0     H21013   3.126   4.599   1.590 -0.3133  0.0404  0.3817
  156MOL0     H21014   3.185   4.827   1.371 -3.0064  0.9333 -2.6695
  156MOL0     H21015   3.095   4.843   1.522  1.9338  1.9070 -0.8411
  156MOL0     H21016   3.012   4.641   1.305 -0.7848 -0.9646  1.8894
  156MOL0     H21017   3.007   4.821   1.285  0.7131 -1.2885 -0.9078
  156MOL0     H21018   2.906   4.641   1.512 -2.8895 -0.1212  1.3478
  156MOL0     H21019   2.799   4.678   1.371 -0.6725 -2.7165  3.0910
  156MOL0     H21020   2.750   5.058   1.579 -0.9800 -0.6790 -1.5549
  156MOL0     H21021   2.417   5.147   1.636 -0.0616 -3.8044 -0.3559
  156MOL0     H21022   2.522   5.163   1.780  0.3677 -1.9645  0.4388
  156MOL0     H21023   2.572   5.202   1.610  0.8150  2.4838  1.9859
  156MOL0     H21024   2.360   4.809   2.049 -0.4587  1.2957 -2.0815
  156MOL0     H21025   2.192   4.806   2.239  1.1532  0.3867 -0.3278
  156MOL0     H21026   2.060   4.727   2.374 -0.6849  1.4277 -1.7636
  156MOL0     H21027   1.901   4.666   2.415 -1.0579 -0.4588 -0.7681
  156MOL0     H21028   2.100   4.505   2.282  0.0645 -1.6482  0.0905
  156MOL0     H21029   2.029   4.491   2.436 -1.5260 -1.9788  0.0679
  156MOL0     H21030   1.854   4.474   2.183  3.3794 -3.4055 -4.0193
  156MOL0     H21031   1.815   4.423   2.349  0.8580  0.5174  1.2461
  156MOL0     H21032   2.007   4.313   2.130  3.4492 -2.5969  1.6919
  156MOL0     H21033   2.007   4.233   2.294  1.3706  1.8957  0.5618
  156MOL0     H21034   1.763   4.267   2.112 -1.4490 -2.1754 -0.4461
  156MOL0     H21035   1.761   4.197   2.276  0.8584  1.7900  1.4336
  156MOL0     H21036   1.907   4.078   2.052 -0.4933 -0.9574  0.2186
  156MOL0     H21037   1.923   4.041   2.230 -0.9120 -0.4895  0.6659
  156MOL0     H21038   1.662   4.016   2.079  1.5237 -0.3275 -2.8558
  156MOL0     H21039   1.702   3.961   2.246 -4.9270 -1.8008 -2.2468
  156MOL0     H21040   1.882   3.821   2.138  0.3733 -0.8719 -0.8500
  156MOL0     H21041   1.831   3.877   1.984  0.9825 -1.8508 -0.4631
  156MOL0     H21042   1.886   4.692   1.964 -0.7908  1.7656  0.8753
  156MOL0     H21043   2.033   4.723   1.776 -0.8294  0.0927  0.8128
  156MOL0     H21044   2.471   4.665   1.668 -1.0382 -0.1535 -1.1465
  156MOL0     H21045   2.653   4.637   1.543 -3.2989 -0.9104  0.0356
  156MOL0     H21046   4.120   5.525   1.382 -0.8936  1.1977 -3.3184
  156MOL0     H21047   4.205   5.749   1.420 -3.0605 -1.0386 -2.2055
  156MOL0     H21048   4.456   6.223   1.397 -1.5787  3.4105  5.3482
  156MOL0     H21049   4.627   6.378   1.459 -2.5211  0.3012  0.8850
  156MOL0     H21050   4.842   6.451   1.468  0.7213 -4.2479 -0.3675
  156MOL0     H21051   4.770   6.494   1.619  0.0545  1.0820 -0.8547
  156MOL0     H21052   5.071   6.461   1.583 -0.5527 -2.0614  0.0690
  156MOL0     H21053   4.996   6.483   1.736 -2.7339  0.6359  0.5674
  156MOL0     H21054   4.881   6.700   1.651  0.9822  0.5168  1.0280
  156MOL0     H21055   4.968   6.667   1.500  1.9856 -2.1283 -1.1045
  156MOL0     H21056   5.115   6.695   1.769 -0.6087  1.8725  1.0575
  156MOL0     H21057   5.060   6.829   1.673  0.9033 -0.2107 -2.1263
  156MOL0     H21058   5.397   6.642   1.457 -0.1907 -0.7782 -0.1241
  156MOL0     H21059   4.820   6.062   1.680 -2.3265 -1.2487  2.4527
  156MOL0     H21060   4.624   5.913   1.625 -0.4176 -1.0489 -2.9549
  157MOL0     O21061   2.746   4.463   7.410 -0.0001  0.0366 -0.2688
  157MOL0     C21062   2.718   4.452   7.525 -0.7510  0.8081 -0.6310
  157MOL0     O21063   2.595   4.482   7.576  0.6748 -0.1585 -0.5401
  157MOL0     C21064   2.497   4.478   7.480  0.4545 -0.5804 -1.0867
  157MOL0     C21065   2.473   4.589   7.397 -0.4787 -0.9763 -0.0239
  157MOL0     C21066   2.363   4.605   7.312  0.8829  0.7037 -0.1876
  157MOL0     C21067   2.271   4.500   7.315 -0.5312  0.2211 -0.0881
  157MOL0     O21068   2.164   4.512   7.225 -0.3719 -0.0690 -0.5348
  157MOL0     C21069   2.035   4.494   7.278 -0.7563  0.2632 -0.1509
  157MOL0     C21070   1.942   4.587   7.184 -0.2482  0.2629 -0.6572
  157MOL0     C21071   1.807   4.574   7.250  0.1749  0.3337  1.2328
  157MOL0     C21072   1.688   4.588   7.150 -0.3216  0.2557 -0.5806
  157MOL0     C21073   1.548   4.605   7.217 -0.4651  0.9400 -0.9393
  157MOL0     C21074   1.512   4.468   7.274 -0.1489 -1.1075 -0.2664
  157MOL0     C21075   1.367   4.445   7.336  1.1188 -0.0503 -0.8392
  157MOL0     C21076   1.346   4.539   7.460 -0.2226 -0.7141 -0.2570
  157MOL0     N21077   1.272   4.468   7.576 -0.3270  0.1781  0.4834
  157MOL0     C21078   1.267   4.501   7.708  0.0657 -0.9868 -0.5852
  157MOL0     C21079   1.167   4.435   7.768  0.4241  0.4130  0.3620
  157MOL0     C21080   1.136   4.433   7.916 -0.7702 -0.2726  0.1150
  157MOL0     C21081   1.086   4.567   7.980  0.5772  0.3927 -0.2446
  157MOL0     C21082   0.969   4.622   7.905  0.6140  0.3383  0.2777
  157MOL0     C21083   0.853   4.526   7.881  0.0434  1.3224 -1.0049
  157MOL0     O21084   0.822   4.447   8.001 -0.5458 -0.3217  0.4243
  157MOL0     C21085   0.721   4.356   7.998  0.1648  0.5008 -0.2006
  157MOL0     C21086   0.635   4.343   7.894 -0.0283  0.3957 -1.1583
  157MOL0     C21087   0.526   4.258   7.890 -0.3782  0.2691 -0.9495
  157MOL0     C21088   0.432   4.256   7.782  0.3404  0.0353 -0.2131
  157MOL0     C21089   0.502   4.174   8.008  0.0603 -0.0323  0.7429
  157MOL0     C21090   0.402   4.070   8.036 -0.2827  0.4428 -0.6008
  157MOL0     O21091   0.340   4.083   8.149  0.0717  0.5262  0.6517
  157MOL0     C21092   0.231   4.001   8.164  0.4088 -0.0240  0.1642
  157MOL0     C21093   0.237   3.913   8.275 -0.0937 -0.4377  0.0632
  157MOL0     C21094   0.134   3.821   8.294  0.2084  0.1282 -0.1191
  157MOL0     C21095   0.016   3.829   8.215 -0.3216  0.2665 -0.4063
  157MOL0     O21096  -0.084   3.741   8.237 -0.1660 -1.1004 -0.5366
  157MOL0     C21097  -0.136   3.659   8.132 -0.1930  0.4423  0.2854
  157MOL0     C21098  -0.224   3.564   8.217 -0.5765 -0.8887  0.5921
  157MOL0     C21099  -0.345   3.637   8.273  0.8709 -0.7176 -0.0754
  157MOL0     C21100  -0.436   3.521   8.331  0.1629 -0.4393 -0.4283
  157MOL0     C21101  -0.585   3.562   8.333 -0.6700  0.1593  0.4460
  157MOL0     C21102  -0.666   3.437   8.353 -0.1300  0.3819 -0.1724
  157MOL0     C21103  -0.652   3.400   8.495  0.2594 -0.4128  0.7606
  157MOL0     C21104  -0.763   3.312   8.545  0.4926  0.7930 -0.6505
  157MOL0    Cl21105  -0.901   3.411   8.617 -0.4532 -0.1543  0.0116
  157MOL0     C21106   0.016   3.916   8.104 -0.2413 -0.2372 -0.5812
  157MOL0     C21107   0.116   4.004   8.085  0.2917 -0.2439 -0.0943
  157MOL0     O21108   0.384   3.982   7.953  0.2206 -0.6198 -0.1913
  157MOL0     C21109   0.604   4.170   8.104  0.5359 -0.1775 -0.5603
  157MOL0     C21110   0.712   4.260   8.105 -0.4825 -0.9699 -0.0908
  157MOL0     N21111   1.108   4.363   7.671 -0.1707  0.2255  0.1416
  157MOL0     N21112   1.169   4.384   7.558  1.0509  0.4704 -0.3718
  157MOL0     C21113   2.287   4.389   7.398 -0.2038 -0.5535 -0.3202
  157MOL0     C21114   2.389   4.381   7.488  0.1904 -0.3168  0.4172
  157MOL0     C21115   2.832   4.411   7.617 -0.3076  0.3704  0.2634
  157MOL0     C21116   2.943   4.344   7.555 -1.2107 -0.3003 -0.2060
  157MOL0     C21117   3.058   4.296   7.618  0.2007  0.2787 -0.5688
  157MOL0     C21118   3.058   4.298   7.754  0.4960 -0.2444  0.0152
  157MOL0     O21119   3.162   4.233   7.824  0.9489 -0.9304  0.7903
  157MOL0     C21120   3.299   4.278   7.808  0.1706  0.5674  0.4165
  157MOL0     C21121   3.390   4.185   7.886  0.1227 -0.1992  0.0626
  157MOL0     C21122   3.535   4.194   7.829  0.1769  0.2019 -0.5609
  157MOL0     C21123   3.599   4.332   7.858 -0.4429 -0.4212 -0.2617
  157MOL0     C21124   3.736   4.326   7.914  0.7978 -0.9859  0.1810
  157MOL0     C21125   3.835   4.324   7.986  0.4058 -0.1328  0.0825
  157MOL0     C21126   2.942   4.337   7.828 -0.0639 -1.0111  0.5806
  157MOL0     C21127   2.825   4.384   7.756  0.4973 -1.7395 -0.3843
  157MOL0     H21128   2.537   4.677   7.401 -0.6926 -0.8449  0.9682
  157MOL0     H21129   2.337   4.692   7.253 -0.2387  1.8697  1.8747
  157MOL0     H21130   2.011   4.388   7.287 -0.7554  0.2962  0.2501
  157MOL0     H21131   2.030   4.537   7.378  0.3233 -0.9452  0.4484
  157MOL0     H21132   1.985   4.687   7.173 -0.9426  1.2060  3.3041
  157MOL0     H21133   1.935   4.548   7.082 -0.8027  2.1365 -1.3741
  157MOL0     H21134   1.790   4.476   7.296 -6.8188  0.5180  0.1831
  157MOL0     H21135   1.794   4.642   7.334  0.6202 -0.2623  1.7921
  157MOL0     H21136   1.703   4.669   7.078 -0.0383  0.4007 -0.3597
  157MOL0     H21137   1.704   4.501   7.086  1.0706 -0.3329  0.5166
  157MOL0     H21138   1.550   4.692   7.283 -2.5677 -0.0265  0.5067
  157MOL0     H21139   1.469   4.631   7.145 -1.5600  1.3584  0.3600
  157MOL0     H21140   1.533   4.395   7.195  1.3942 -1.5472  0.5149
  157MOL0     H21141   1.589   4.429   7.340  1.5952 -2.3607 -2.8508
  157MOL0     H21142   1.290   4.466   7.261 -1.3140 -1.2418  1.1946
  157MOL0     H21143   1.358   4.339   7.360 -0.8949  0.3869  0.5968
  157MOL0     H21144   1.294   4.629   7.424 -1.2193 -0.4834  1.6343
  157MOL0     H21145   1.445   4.568   7.497  0.6929 -0.6952 -2.5689
  157MOL0     H21146   1.339   4.570   7.752 -2.2867  0.9054  0.5432
  157MOL0     H21147   1.061   4.353   7.923 -0.8168 -0.3579 -1.1835
  157MOL0     H21148   1.218   4.400   7.981  1.1792 -0.4855 -2.2982
  157MOL0     H21149   1.175   4.631   7.974  1.7188 -1.1933 -0.9357
  157MOL0     H21150   1.067   4.558   8.088 -0.0584  1.4116 -0.2665
  157MOL0     H21151   1.002   4.674   7.814 -0.7512  1.8190  0.5730
  157MOL0     H21152   0.931   4.705   7.966  1.0980 -0.2844  1.4563
  157MOL0     H21153   0.880   4.465   7.795 -0.9814 -1.5075  0.5453
  157MOL0     H21154   0.769   4.591   7.853  0.5555  1.2291 -2.8534
  157MOL0     H21155   0.654   4.387   7.797  2.6839 -0.6965 -1.2093
  157MOL0     H21156   0.382   4.353   7.770 -0.6124 -0.2348  1.3467
  157MOL0     H21157   0.489   4.256   7.688  0.2443  2.0207 -0.3205
  157MOL0     H21158   0.350   4.184   7.788  0.4955 -0.4477 -2.7727
  157MOL0     H21159   0.323   3.905   8.341  0.4969 -0.6694 -0.7084
  157MOL0     H21160   0.133   3.749   8.375 -0.7324 -0.8557 -0.9852
  157MOL0     H21161  -0.201   3.724   8.072 -1.0180  1.3372  2.0927
  157MOL0     H21162  -0.059   3.603   8.077 -1.1892 -2.6393  1.7777
  157MOL0     H21163  -0.247   3.482   8.149  1.6216 -0.5672 -0.6628
  157MOL0     H21164  -0.152   3.528   8.291  2.7840  0.5549 -1.7045
  157MOL0     H21165  -0.384   3.699   8.191  2.0791  0.1155 -0.0340
  157MOL0     H21166  -0.319   3.707   8.352  0.1468 -0.7674  0.2225
  157MOL0     H21167  -0.416   3.434   8.269  2.7439 -0.1414 -0.1106
  157MOL0     H21168  -0.396   3.498   8.430  0.6161 -2.9440 -1.1316
  157MOL0     H21169  -0.605   3.605   8.234 -0.7495  1.8462  1.1617
  157MOL0     H21170  -0.600   3.648   8.400  0.2878 -0.9779  2.1864
  157MOL0     H21171  -0.769   3.471   8.343  0.0958  0.7126 -1.6383
  157MOL0     H21172  -0.637   3.359   8.282 -1.7663 -1.3084  0.9345
  157MOL0     H21173  -0.632   3.481   8.566 -0.9841 -1.3475  2.2394
  157MOL0     H21174  -0.559   3.343   8.507  1.7270  1.2637 -1.6683
  157MOL0     H21175  -0.723   3.243   8.620 -1.7633  1.5207  1.3433
  157MOL0     H21176  -0.804   3.246   8.468 -1.1921 -0.5808  1.2813
  157MOL0     H21177  -0.078   3.913   8.050  0.2309  5.0697 -2.2318
  157MOL0     H21178   0.102   4.066   7.997  0.2716  0.1868  0.2089
  157MOL0     H21179   0.601   4.114   8.197  2.6702  1.6972  0.7403
  157MOL0     H21180   0.788   4.260   8.183  2.3668  1.5111 -2.5675
  157MOL0     H21181   2.218   4.304   7.403 -1.7678  0.6574  4.2894
  157MOL0     H21182   2.385   4.297   7.557 -1.4255 -2.5860 -2.2053
  157MOL0     H21183   2.957   4.335   7.447 -0.7466  2.2804 -0.4354
  157MOL0     H21184   3.143   4.255   7.565 -0.3937 -0.1789 -1.1838
  157MOL0     H21185   3.326   4.277   7.702  0.9548  1.2992  0.5985
  157MOL0     H21186   3.307   4.383   7.838  0.4637  0.6586  0.0230
  157MOL0     H21187   3.361   4.081   7.870  0.2148  0.0296 -1.7734
  157MOL0     H21188   3.399   4.207   7.993  2.6544  0.6225 -0.2306
  157MOL0     H21189   3.529   4.172   7.722 -3.0631 -2.8059  0.0337
  157MOL0     H21190   3.595   4.115   7.876 -0.4322  1.5021  2.7021
  157MOL0     H21191   3.529   4.380   7.928 -1.9914 -2.9110  0.0210
  157MOL0     H21192   3.613   4.399   7.773  0.3609 -1.4226 -0.9392
  157MOL0     H21193   3.915   4.322   8.057  0.4321  2.1611  0.1912
  157MOL0     H21194   2.947   4.347   7.936  3.1582  0.5141  0.4088
  157MOL0     H21195   2.729   4.403   7.803  1.0506 -1.7458  0.7687
  158MOL0     O21196   1.552   9.374   8.995 -0.2445  0.0414  0.4971
  158MOL0     C21197   1.522   9.268   9.047 -0.1422  0.3111 -0.0663
  158MOL0     O21198   1.408   9.244   9.111 -0.1461 -0.5403  0.0924
  158MOL0     C21199   1.310   9.338   9.145 -0.0722  0.3232  0.3572
  158MOL0     C21200   1.224   9.402   9.046  0.3442  0.1366 -0.3362
  158MOL0     C21201   1.121   9.489   9.096 -0.4235  0.2196  0.1721
  158MOL0     C21202   1.109   9.521   9.230  0.0564  0.4611 -0.0534
  158MOL0     O21203   1.008   9.595   9.276 -0.1770  0.1423  0.3487
  158MOL0     C21204   1.022   9.733   9.259  0.3265  0.2341  0.3471
  158MOL0     C21205   0.883   9.798   9.297  0.7793 -0.0065  0.4965
  158MOL0     C21206   0.873   9.949   9.266  0.3626  0.8889  0.1565
  158MOL0     C21207   0.842   9.974   9.123  0.0741 -0.4205  0.2481
  158MOL0     C21208   0.880  10.120   9.085 -0.9275  0.6176  0.4370
  158MOL0     C21209   0.799  10.160   8.963 -0.0565  0.4570 -0.4236
  158MOL0     C21210   0.836  10.298   8.919  0.5850  0.7273  0.2241
  158MOL0     C21211   0.755  10.334   8.791 -1.2110  0.1640 -0.7824
  158MOL0     N21212   0.807  10.461   8.741  0.4842  0.1945  0.1300
  158MOL0     C21213   0.778  10.581   8.796  1.0135 -0.6476  1.4192
  158MOL0     C21214   0.830  10.668   8.700 -0.3021  0.4769  0.8922
  158MOL0     C21215   0.829  10.818   8.706  0.7917 -0.5375  0.2558
  158MOL0     C21216   0.744  10.879   8.596  0.2874 -0.1288 -0.4045
  158MOL0     C21217   0.606  10.812   8.595  0.5881 -0.4988  0.2710
  158MOL0     C21218   0.526  10.835   8.726 -0.2121 -0.5784 -0.1413
  158MOL0     O21219   0.389  10.848   8.690  0.0187 -0.5821  0.3237
  158MOL0     C21220   0.298  10.794   8.773  0.7274 -0.6250  0.7089
  158MOL0     C21221   0.184  10.865   8.782  0.0995 -0.3148  0.0166
  158MOL0     C21222   0.078  10.832   8.864 -0.2492  0.0359  0.1977
  158MOL0     C21223  -0.047  10.912   8.835 -0.4969  0.5686  0.8212
  158MOL0     C21224   0.080  10.707   8.939 -0.7288  0.3682  0.7624
  158MOL0     C21225  -0.033  10.661   9.032 -1.4128 -0.0585  0.3041
  158MOL0     O21226  -0.115  10.750   9.083  0.1121  0.3346  0.1421
  158MOL0     C21227  -0.173  10.732   9.208  0.3929 -0.4898 -0.2536
  158MOL0     C21228  -0.286  10.645   9.233 -0.8809 -0.3640  0.5587
  158MOL0     C21229  -0.344  10.641   9.356  0.4597 -0.6224 -0.4576
  158MOL0     C21230  -0.279  10.713   9.458  0.4504 -0.6453  0.0135
  158MOL0     O21231  -0.323  10.712   9.588 -0.8502 -0.2995 -0.6785
  158MOL0     C21232  -0.443  10.627   9.624  0.1629  0.1287 -0.5551
  158MOL0     C21233  -0.435  10.590   9.775  0.0019  0.3528  0.2868
  158MOL0     C21234  -0.563  10.515   9.813 -0.2023 -0.0292 -0.5190
  158MOL0     C21235  -0.675  10.599   9.875  0.5962  0.1893 -0.3676
  158MOL0     C21236  -0.798  10.508   9.906 -0.0134 -0.3992 -0.3938
  158MOL0     C21237  -0.899  10.481   9.791  0.2137  1.1789 -0.4981
  158MOL0     C21238  -1.019  10.402   9.856  0.5237  0.9016 -0.7460
  158MOL0     C21239  -1.116  10.335   9.748 -0.6704  0.9834  0.4794
  158MOL0    Cl21240  -1.020  10.248   9.633 -0.0286  0.5976  0.2059
  158MOL0     C21241  -0.179  10.808   9.437  0.4995 -0.0509 -0.2149
  158MOL0     C21242  -0.128  10.822   9.305  0.3071 -0.2506  0.4174
  158MOL0     O21243  -0.016  10.548   9.077  0.0047  0.1730  0.4589
  158MOL0     C21244   0.196  10.635   8.924  0.1145  0.5707 -0.2707
  158MOL0     C21245   0.307  10.681   8.851  0.6484  1.2224 -0.5487
  158MOL0     N21246   0.878  10.593   8.586  0.8599  0.3765 -0.1179
  158MOL0     N21247   0.865  10.466   8.617  0.5075  0.2558 -0.8489
  158MOL0     C21248   1.196   9.465   9.326 -0.0626 -0.6186 -0.2634
  158MOL0     C21249   1.291   9.369   9.288 -0.8777  0.2742 -0.1587
  158MOL0     C21250   1.608   9.154   9.003  0.6321 -0.6606 -0.5322
  158MOL0     C21251   1.738   9.189   8.974 -0.0482 -0.0492 -0.8376
  158MOL0     C21252   1.832   9.097   8.942 -1.1246  0.2465  0.8096
  158MOL0     C21253   1.796   8.965   8.920 -0.0921 -0.3423 -0.1617
  158MOL0     O21254   1.893   8.880   8.876  0.0310 -0.0807 -0.1756
  158MOL0     C21255   1.868   8.749   8.822  0.6978  0.2386 -0.2074
  158MOL0     C21256   1.982   8.681   8.767 -0.5094 -0.2346 -1.0961
  158MOL0     C21257   2.047   8.760   8.653  0.8640 -0.1515  0.3907
  158MOL0     C21258   2.171   8.669   8.606  0.5490  0.6535  0.7707
  158MOL0     C21259   2.256   8.740   8.507 -0.0154 -0.2557  0.3710
  158MOL0     C21260   2.324   8.804   8.434  0.5517  0.0460  0.2447
  158MOL0     C21261   1.669   8.919   8.958 -0.6583 -0.5238 -0.0256
  158MOL0     C21262   1.580   9.017   8.997  0.7131 -0.3576 -0.2705
  158MOL0     H21263   1.236   9.384   8.940  1.5477 -0.0517 -0.1811
  158MOL0     H21264   1.043   9.510   9.024  1.6942 -1.6641 -2.9147
  158MOL0     H21265   1.093   9.769   9.333 -2.4905  2.3315  2.2148
  158MOL0     H21266   1.058   9.756   9.158  0.7745 -0.1977  0.4005
  158MOL0     H21267   0.799   9.753   9.242 -0.3106  3.1376 -0.6190
  158MOL0     H21268   0.857   9.790   9.403  1.4910  3.0829  0.9822
  158MOL0     H21269   0.786   9.987   9.321 -0.3996  2.2368 -1.8790
  158MOL0     H21270   0.965   9.997   9.301  0.5660  1.0196 -0.5368
  158MOL0     H21271   0.894   9.910   9.052 -2.3236 -0.6279 -1.4134
  158MOL0     H21272   0.738   9.952   9.096  0.5537  0.0469 -2.1601
  158MOL0     H21273   0.861  10.179   9.174  0.0553  2.7643 -0.6981
  158MOL0     H21274   0.986  10.126   9.057 -0.4544 -3.0270  0.9038
  158MOL0     H21275   0.814  10.079   8.890 -1.3143 -0.1098 -0.0890
  158MOL0     H21276   0.694  10.154   8.995 -0.2071  1.8968 -0.6007
  158MOL0     H21277   0.790  10.364   8.993 -3.8073 -2.1393  0.4541
  158MOL0     H21278   0.943  10.317   8.918  0.6278  0.6786 -2.3631
  158MOL0     H21279   0.648  10.349   8.808 -1.0929  1.2955 -0.9527
  158MOL0     H21280   0.783  10.255   8.722  0.7708 -0.2279  0.3772
  158MOL0     H21281   0.722  10.603   8.887 -1.4586  2.5284 -0.6583
  158MOL0     H21282   0.792  10.844   8.806  1.2100 -3.0183  1.1289
  158MOL0     H21283   0.931  10.856   8.702  0.6657  0.1422  2.3204
  158MOL0     H21284   0.795  10.857   8.502  0.3621  0.8940 -0.6171
  158MOL0     H21285   0.730  10.986   8.615  2.0512 -0.0916  0.9876
  158MOL0     H21286   0.618  10.708   8.565 -1.4166 -0.3203 -1.3643
  158MOL0     H21287   0.543  10.855   8.516 -1.7496 -2.5999  0.8724
  158MOL0     H21288   0.560  10.926   8.777 -3.0127  0.1205  0.6378
  158MOL0     H21289   0.547  10.754   8.797 -4.3125  1.1327  3.5216
  158MOL0     H21290   0.176  10.946   8.710  0.0344 -1.6537 -1.5335
  158MOL0     H21291  -0.054  10.985   8.917  0.2476 -0.2298  1.6286
  158MOL0     H21292  -0.029  10.965   8.741  5.0485 -0.5624  0.8589
  158MOL0     H21293  -0.139  10.858   8.816 -2.0549  3.7615 -1.5840
  158MOL0     H21294  -0.317  10.586   9.148 -1.8251 -1.5071  1.6737
  158MOL0     H21295  -0.441  10.591   9.362  0.7528 -1.1089  0.4075
  158MOL0     H21296  -0.532  10.689   9.608  0.4527  0.3760 -1.2104
  158MOL0     H21297  -0.446  10.529   9.574  2.4878 -0.0442 -0.4684
  158MOL0     H21298  -0.350  10.520   9.780 -0.2875 -0.0806 -0.5672
  158MOL0     H21299  -0.427  10.678   9.839 -4.0023  2.1101 -1.3067
  158MOL0     H21300  -0.538  10.438   9.886 -0.3788  1.3871  1.1218
  158MOL0     H21301  -0.602  10.459   9.727  0.0115 -1.0317  0.0283
  158MOL0     H21302  -0.636  10.632   9.972  2.3299 -1.9374 -0.2606
  158MOL0     H21303  -0.704  10.688   9.818 -2.3472  0.7242  1.7468
  158MOL0     H21304  -0.849  10.564   9.985 -0.2669 -1.7586  0.4435
  158MOL0     H21305  -0.770  10.416   9.958  2.8562  1.7064  2.2149
  158MOL0     H21306  -0.920  10.579   9.748  2.9974  1.9030 -0.4222
  158MOL0     H21307  -0.850  10.410   9.724 -0.4063 -0.0529  0.2952
  158MOL0     H21308  -1.085  10.464   9.918  1.7432  0.1930  1.3594
  158MOL0     H21309  -0.979  10.325   9.922  0.1093  1.0828 -0.2759
  158MOL0     H21310  -1.181  10.412   9.705 -1.8890 -0.2031  0.1144
  158MOL0     H21311  -1.175  10.255   9.793  0.7771 -0.4917 -0.1339
  158MOL0     H21312  -0.161  10.872   9.523 -1.5910 -0.6848  0.7813
  158MOL0     H21313  -0.060  10.901   9.273 -1.4213  0.4779 -1.7345
  158MOL0     H21314   0.223  10.542   8.973  2.4246  1.4618  0.2929
  158MOL0     H21315   0.396  10.619   8.855 -0.8000 -1.1709 -2.5284
  158MOL0     H21316   1.202   9.501   9.429 -0.9273 -1.5918  0.1499
  158MOL0     H21317   1.346   9.319   9.366 -0.6664  1.1864  0.2848
  158MOL0     H21318   1.768   9.293   8.967  3.9126 -1.1555 -3.8032
  158MOL0     H21319   1.931   9.138   8.927 -0.6174 -1.0718  0.4381
  158MOL0     H21320   1.811   8.681   8.887 -3.0940  0.3945 -2.9800
  158MOL0     H21321   1.801   8.769   8.738  0.5917 -2.9419 -1.0416
  158MOL0     H21322   1.955   8.586   8.720  1.7468 -1.0752 -0.8205
  158MOL0     H21323   2.058   8.657   8.842  1.7021 -2.1068 -3.7363
  158MOL0     H21324   2.088   8.850   8.701  0.4188 -0.1205  0.7160
  158MOL0     H21325   1.986   8.772   8.563  0.6282 -5.0956 -0.3965
  158MOL0     H21326   2.129   8.575   8.570 -2.5824  1.7980  1.1260
  158MOL0     H21327   2.220   8.654   8.702 -1.3288 -1.2628  1.5086
  158MOL0     H21328   2.391   8.855   8.367  2.6966 -1.5577  1.0349
  158MOL0     H21329   1.644   8.816   8.934 -0.6016 -0.2912 -1.0999
  158MOL0     H21330   1.473   8.999   9.009  1.1040 -2.7858  0.0224
  159MOL0     O21331   3.890   7.224   7.991  0.5265 -0.3780  0.9966
  159MOL0     C21332   3.941   7.111   7.978 -0.4582 -0.3225 -0.7872
  159MOL0     O21333   4.067   7.085   7.987  0.2405 -0.0997  0.3099
  159MOL0     C21334   4.157   7.187   7.972 -0.1606  0.4043 -0.2971
  159MOL0     C21335   4.270   7.201   8.067 -0.2823  0.1634  0.4032
  159MOL0     C21336   4.340   7.321   8.058 -0.2500 -0.2527  0.1268
  159MOL0     C21337   4.319   7.416   7.968  0.2943  0.1729 -0.1845
  159MOL0     O21338   4.396   7.526   7.983 -0.9582 -0.4885 -0.2705
  159MOL0     C21339   4.419   7.606   7.861 -1.0292  0.0038  0.0250
  159MOL0     C21340   4.525   7.713   7.902  0.7057  0.4862  0.3164
  159MOL0     C21341   4.467   7.804   8.016 -0.0652 -0.6958  0.7282
  159MOL0     C21342   4.547   7.776   8.146  0.0498  0.0727 -0.6200
  159MOL0     C21343   4.480   7.870   8.242 -0.0038 -0.8899 -1.2508
  159MOL0     C21344   4.361   7.801   8.312 -0.1744  0.0455  0.0008
  159MOL0     C21345   4.224   7.857   8.276  0.5137 -0.2552  0.1877
  159MOL0     C21346   4.130   7.753   8.219  0.0455  0.6768  0.0130
  159MOL0     N21347   4.085   7.648   8.325 -0.4589 -0.2737 -0.2328
  159MOL0     C21348   4.135   7.526   8.345 -0.6087 -0.3122 -0.6725
  159MOL0     C21349   4.049   7.460   8.426 -0.5374  0.3065 -0.1918
  159MOL0     C21350   4.065   7.319   8.487  0.3374 -0.1760  0.6947
  159MOL0     C21351   4.047   7.211   8.386 -0.9693 -0.5575  0.4512
  159MOL0     C21352   3.912   7.197   8.310 -0.6867  0.7018  0.1383
  159MOL0     C21353   3.785   7.167   8.403 -0.9223 -0.6498 -0.3414
  159MOL0     O21354   3.675   7.133   8.310 -0.3400 -0.0820 -0.4659
  159MOL0     C21355   3.557   7.073   8.343  0.2798  0.2550 -0.4788
  159MOL0     C21356   3.456   7.066   8.247  0.1971 -0.4410 -1.0995
  159MOL0     C21357   3.328   7.021   8.279 -0.6939 -0.1781 -0.7938
  159MOL0     C21358   3.234   7.011   8.156  0.1470  0.6083  0.3636
  159MOL0     C21359   3.301   6.971   8.410 -0.4436 -0.0519 -0.0730
  159MOL0     C21360   3.171   6.919   8.456 -0.3844  0.3348 -0.3348
  159MOL0     O21361   3.170   6.861   8.581 -0.5726  0.3038 -0.4847
  159MOL0     C21362   3.054   6.811   8.642  0.5648 -0.1155  0.6777
  159MOL0     C21363   3.051   6.694   8.698 -0.2279  0.4647  0.4606
  159MOL0     C21364   2.938   6.634   8.753  1.2030  0.2429 -0.0500
  159MOL0     C21365   2.815   6.708   8.749 -1.3255  0.3264  0.6881
  159MOL0     O21366   2.694   6.662   8.793 -0.1406 -0.8766 -0.1650
  159MOL0     C21367   2.694   6.578   8.913  0.1849  0.6895  0.4871
  159MOL0     C21368   2.556   6.572   8.959  0.7356  0.4554  0.2945
  159MOL0     C21369   2.532   6.486   9.084 -0.4121 -0.3519  0.5546
  159MOL0     C21370   2.410   6.512   9.173 -0.1727  0.5563 -0.2755
  159MOL0     C21371   2.286   6.503   9.073 -0.5010 -0.2409 -0.5768
  159MOL0     C21372   2.162   6.572   9.132 -0.1053 -0.6224  0.6995
  159MOL0     C21373   2.034   6.534   9.060  0.4975  0.3298 -0.5329
  159MOL0     C21374   1.922   6.624   9.124 -0.8886  0.6744  0.7981
  159MOL0    Cl21375   1.934   6.790   9.067  0.3118 -0.4933  0.5565
  159MOL0     C21376   2.819   6.832   8.694  0.4493 -0.1456  0.4188
  159MOL0     C21377   2.936   6.889   8.635 -0.5310 -0.2024 -0.8862
  159MOL0     O21378   3.070   6.924   8.384  1.0624 -0.1554  0.8985
  159MOL0     C21379   3.406   6.986   8.512 -0.5175 -0.2500 -0.0697
  159MOL0     C21380   3.534   7.035   8.476 -0.2185  0.8615  0.1938
  159MOL0     N21381   3.953   7.546   8.457  0.7644 -0.3902  0.4628
  159MOL0     N21382   3.972   7.660   8.398  0.3268 -0.2800  0.7099
  159MOL0     C21383   4.231   7.392   7.863  0.6122 -0.8521  0.0902
  159MOL0     C21384   4.152   7.280   7.866 -0.1450  0.2592  0.2119
  159MOL0     C21385   3.844   7.001   7.937 -0.1743  0.3528 -0.6827
  159MOL0     C21386   3.887   6.894   7.856  0.1923 -0.6320  1.0184
  159MOL0     C21387   3.789   6.808   7.795 -0.4254  0.1683  0.1504
  159MOL0     C21388   3.657   6.825   7.824  0.5782 -0.1199 -0.6896
  159MOL0     O21389   3.572   6.731   7.768  0.1481  0.0321  0.1629
  159MOL0     C21390   3.428   6.736   7.789 -0.3891 -0.1285  0.4557
  159MOL0     C21391   3.367   6.674   7.909 -0.8650  0.3305  0.1510
  159MOL0     C21392   3.209   6.681   7.905 -0.5341  0.6210 -0.0129
  159MOL0     C21393   3.148   6.616   8.029 -0.6246 -0.1192 -0.0334
  159MOL0     C21394   3.143   6.466   8.001  0.0223 -0.3432  0.7127
  159MOL0     C21395   3.142   6.347   7.980 -0.2343  0.8153  0.5719
  159MOL0     C21396   3.615   6.930   7.910 -0.1394 -0.0882  0.6549
  159MOL0     C21397   3.705   7.014   7.960 -0.6874 -0.4051  0.6273
  159MOL0     H21398   4.297   7.127   8.143 -0.3081  1.1323  1.3797
  159MOL0     H21399   4.412   7.330   8.140  0.4249  2.1999 -0.6503
  159MOL0     H21400   4.474   7.544   7.789  1.0927  1.5380  0.2222
  159MOL0     H21401   4.329   7.648   7.816 -1.0836 -2.6435 -2.6516
  159MOL0     H21402   4.620   7.664   7.924  0.5639  0.1117  0.1200
  159MOL0     H21403   4.547   7.776   7.815 -3.1617  1.1550 -0.3790
  159MOL0     H21404   4.480   7.909   7.987  0.3701 -0.5211  1.5267
  159MOL0     H21405   4.359   7.790   8.026 -0.1435 -1.6461 -1.0141
  159MOL0     H21406   4.548   7.673   8.182  1.6831  0.3673  0.2696
  159MOL0     H21407   4.647   7.813   8.122 -0.2698  2.4870  1.3058
  159MOL0     H21408   4.547   7.892   8.325 -1.8949  0.5161  0.0100
  159MOL0     H21409   4.448   7.968   8.204  1.1113  0.7018  1.6062
  159MOL0     H21410   4.359   7.692   8.299 -3.4872  0.0988 -1.0793
  159MOL0     H21411   4.360   7.823   8.419 -0.4826  1.4201 -0.2717
  159MOL0     H21412   4.170   7.894   8.363  0.0915  1.3888 -0.7356
  159MOL0     H21413   4.240   7.936   8.202 -0.0210 -2.4118 -2.4135
  159MOL0     H21414   4.193   7.700   8.147  1.9691  0.2705  1.8828
  159MOL0     H21415   4.045   7.807   8.176 -0.3854 -0.2426 -0.3116
  159MOL0     H21416   4.229   7.484   8.312 -1.1117 -2.5775  0.5395
  159MOL0     H21417   4.162   7.306   8.535  0.6038  0.1596  0.2477
  159MOL0     H21418   3.987   7.320   8.564 -0.7723  0.1760 -0.3892
  159MOL0     H21419   4.070   7.111   8.424 -0.1358 -0.1404  1.0792
  159MOL0     H21420   4.121   7.232   8.307  0.7111 -2.5687  1.4028
  159MOL0     H21421   3.926   7.108   8.249  0.9850 -0.4090  2.0013
  159MOL0     H21422   3.892   7.281   8.243 -2.9152  0.9793  1.0692
  159MOL0     H21423   3.762   7.264   8.449 -0.7609 -0.1736 -1.2418
  159MOL0     H21424   3.816   7.101   8.485  2.3982  1.1206  0.0425
  159MOL0     H21425   3.480   7.105   8.148 -0.6243  0.1041 -1.1011
  159MOL0     H21426   3.164   6.927   8.153  0.3020  0.4800  0.2900
  159MOL0     H21427   3.165   7.095   8.162  1.0391  1.3812  0.0490
  159MOL0     H21428   3.285   7.005   8.059  0.3281 -0.0935  0.4909
  159MOL0     H21429   3.141   6.636   8.675 -1.7765 -0.6449 -3.6791
  159MOL0     H21430   2.940   6.528   8.774  0.1515 -0.1691 -1.7588
  159MOL0     H21431   2.721   6.477   8.879 -2.4298  0.0183  0.1647
  159MOL0     H21432   2.761   6.611   8.993 -0.1957  1.0510  0.6574
  159MOL0     H21433   2.536   6.677   8.981  1.3603  0.6480 -0.0180
  159MOL0     H21434   2.492   6.529   8.883  1.2487 -0.0361  0.1328
  159MOL0     H21435   2.619   6.498   9.149  0.2254  1.6642 -0.5886
  159MOL0     H21436   2.531   6.383   9.046 -0.4213 -0.9872  2.1484
  159MOL0     H21437   2.408   6.436   9.252  2.1275  2.0393  1.3474
  159MOL0     H21438   2.403   6.603   9.234  1.3713  1.2282 -1.0645
  159MOL0     H21439   2.262   6.399   9.052 -0.8546 -0.3541  0.3321
  159MOL0     H21440   2.306   6.562   8.983  0.5526 -0.0621 -0.2381
  159MOL0     H21441   2.167   6.554   9.239  1.5088  0.0505  0.7800
  159MOL0     H21442   2.159   6.681   9.120 -1.5441 -0.6625  0.5235
  159MOL0     H21443   2.012   6.428   9.078  2.7040  0.2731  2.6577
  159MOL0     H21444   2.050   6.549   8.953 -0.1099 -0.9536 -0.8370
  159MOL0     H21445   1.938   6.614   9.231 -0.9509 -0.5927  0.6983
  159MOL0     H21446   1.826   6.577   9.100  0.5874 -2.1528 -0.0301
  159MOL0     H21447   2.730   6.894   8.694  0.4697 -0.0548  1.9832
  159MOL0     H21448   2.950   6.988   8.593  2.5837 -0.4606 -0.6912
  159MOL0     H21449   3.390   6.978   8.619 -1.3010  4.7506  0.4081
  159MOL0     H21450   3.610   7.035   8.553  1.1006  1.0825 -1.0770
  159MOL0     H21451   4.221   7.458   7.777  1.7909  2.4495  2.2788
  159MOL0     H21452   4.093   7.250   7.779  2.2517  0.7902 -1.7001
  159MOL0     H21453   3.988   6.873   7.825 -0.1127 -0.0587 -0.4823
  159MOL0     H21454   3.817   6.735   7.720  0.5449 -1.5069  2.0387
  159MOL0     H21455   3.400   6.842   7.785  2.4067  0.6523 -1.6913
  159MOL0     H21456   3.387   6.686   7.701 -1.9745  1.1974  0.4037
  159MOL0     H21457   3.415   6.718   7.997  1.1146 -0.2817 -0.5774
  159MOL0     H21458   3.407   6.573   7.903  3.8105  1.7757  2.1634
  159MOL0     H21459   3.184   6.626   7.815 -2.6634  2.2247 -0.4864
  159MOL0     H21460   3.173   6.784   7.896 -0.0689  1.0482  2.3451
  159MOL0     H21461   3.046   6.650   8.045 -0.4369  0.2151  0.4893
  159MOL0     H21462   3.207   6.653   8.113  1.5778 -3.6581  0.1695
  159MOL0     H21463   3.140   6.240   7.973 -0.6890  0.8003  0.8453
  159MOL0     H21464   3.508   6.942   7.928 -0.5002  0.8182 -1.7658
  159MOL0     H21465   3.686   7.095   8.029  0.3687 -0.9242  1.5572
  160MOL0     O21466   3.370   7.695  10.327 -0.2354  0.4256  0.2566
  160MOL0     C21467   3.271   7.632  10.292 -1.6148  0.1449  0.6036
  160MOL0     O21468   3.256   7.500  10.292  0.6134 -0.0758 -0.4761
  160MOL0     C21469   3.351   7.428  10.358 -0.5104  0.1938 -0.0690
  160MOL0     C21470   3.377   7.430  10.501  1.0946 -0.6716  0.1004
  160MOL0     C21471   3.488   7.377  10.558 -0.0188 -0.5395 -0.0802
  160MOL0     C21472   3.574   7.294  10.474  1.9065 -0.4735 -0.2918
  160MOL0     O21473   3.692   7.245  10.514 -0.1345  0.4350 -1.1565
  160MOL0     C21474   3.715   7.233  10.653  0.5322 -0.3753 -0.0685
  160MOL0     C21475   3.760   7.091  10.674 -0.3059 -0.1220 -0.3824
  160MOL0     C21476   3.813   7.065  10.812  1.0866  0.2292  0.2233
  160MOL0     C21477   3.958   7.104  10.821 -1.2854  0.2730  0.2030
  160MOL0     C21478   4.016   7.075  10.962 -0.5538  0.6482 -0.9101
  160MOL0     C21479   4.062   6.927  10.973  0.1835  0.1622  0.9989
  160MOL0     C21480   4.213   6.900  10.965 -0.6103 -0.3894  0.2272
  160MOL0     C21481   4.272   6.763  10.992  0.7121 -0.2556 -0.0993
  160MOL0     N21482   4.209   6.701  11.113  0.0534  0.2102  0.3212
  160MOL0     C21483   4.196   6.750  11.244  0.3270 -0.1824  1.2012
  160MOL0     C21484   4.153   6.648  11.318 -0.1593 -0.5705  0.4063
  160MOL0     C21485   4.149   6.648  11.471  0.8722 -0.0222 -0.6099
  160MOL0     C21486   4.246   6.556  11.553 -0.3206 -0.7336  0.3624
  160MOL0     C21487   4.394   6.568  11.516 -0.8080  0.6523 -0.2115
  160MOL0     C21488   4.468   6.678  11.596  0.5167  0.1140  0.0094
  160MOL0     O21489   4.405   6.799  11.583  0.8635  0.1648 -0.6655
  160MOL0     C21490   4.480   6.910  11.600 -0.5941 -1.0725  0.1405
  160MOL0     C21491   4.496   6.966  11.724  0.2150 -0.2632  0.5456
  160MOL0     C21492   4.592   7.072  11.745 -0.2779  0.3809  0.0366
  160MOL0     C21493   4.577   7.115  11.889 -0.3266 -0.6168 -0.7175
  160MOL0     C21494   4.657   7.132  11.641 -0.8737  0.1150 -0.6682
  160MOL0     C21495   4.744   7.248  11.659  0.6940 -0.4404 -0.0369
  160MOL0     O21496   4.717   7.332  11.775  0.1740  0.3988  0.6779
  160MOL0     C21497   4.789   7.444  11.799 -0.0448  0.5993 -0.5744
  160MOL0     C21498   4.770   7.489  11.930  0.7015 -0.8363  0.3574
  160MOL0     C21499   4.846   7.593  11.977  0.0162  0.5260 -0.0515
  160MOL0     C21500   4.919   7.670  11.884  0.3007  0.1629 -0.2547
  160MOL0     O21501   4.996   7.779  11.919 -0.7552  0.4389  0.5574
  160MOL0     C21502   4.983   7.905  11.852  0.0161  1.3565  0.6767
  160MOL0     C21503   5.045   8.013  11.935 -0.3944  0.8065 -0.4499
  160MOL0     C21504   5.202   8.024  11.927 -0.4597 -0.0068 -0.1614
  160MOL0     C21505   5.250   8.044  11.776  0.7254  0.7551 -0.5788
  160MOL0     C21506   5.410   8.034  11.779  0.0575  0.4124 -0.1406
  160MOL0     C21507   5.465   8.080  11.646 -1.3208 -0.3404 -0.1718
  160MOL0     C21508   5.627   8.073  11.643  1.2638 -0.3048 -1.2948
  160MOL0     C21509   5.683   8.153  11.530  0.8865  0.7274 -0.1195
  160MOL0    Cl21510   5.637   8.322  11.534  0.5404 -0.4283 -0.3015
  160MOL0     C21511   4.926   7.633  11.748 -0.2694  0.3777 -0.1978
  160MOL0     C21512   4.865   7.514  11.703 -0.0436 -0.0611  0.3670
  160MOL0     O21513   4.828   7.268  11.572  0.1641 -0.5282  0.1434
  160MOL0     C21514   4.640   7.069  11.515  0.7745 -0.5240 -0.7284
  160MOL0     C21515   4.542   6.972  11.494 -0.6488  0.5327 -0.3376
  160MOL0     N21516   4.119   6.544  11.233  0.0518 -0.0319 -0.4714
  160MOL0     N21517   4.160   6.575  11.117  0.0441 -0.0182  0.0862
  160MOL0     C21518   3.538   7.280  10.338 -0.7049  0.0539  0.5639
  160MOL0     C21519   3.425   7.343  10.274 -1.1236 -0.2863 -0.0466
  160MOL0     C21520   3.172   7.717  10.228 -0.7356 -0.0068  0.1335
  160MOL0     C21521   3.184   7.856  10.225 -0.6216 -0.5776  0.5100
  160MOL0     C21522   3.090   7.924  10.138 -1.0928  0.6114  0.1597
  160MOL0     C21523   2.978   7.863  10.076  0.6364  0.5963  0.0374
  160MOL0     O21524   2.885   7.931  10.003  0.0357 -0.3295  0.2004
  160MOL0     C21525   2.911   8.069   9.968 -0.4550 -0.8159  0.3972
  160MOL0     C21526   2.792   8.125   9.894 -0.6509 -0.6457  0.2509
  160MOL0     C21527   2.668   8.141   9.986  0.4180  0.0019  0.2623
  160MOL0     C21528   2.575   8.258   9.944 -0.3215 -0.2366  0.0236
  160MOL0     C21529   2.637   8.390   9.982 -0.0353  0.0306 -1.2514
  160MOL0     C21530   2.691   8.485  10.033 -1.4350  1.2591 -0.5550
  160MOL0     C21531   2.959   7.728  10.112  0.5547  0.4936 -0.5593
  160MOL0     C21532   3.057   7.655  10.175 -0.0853  0.0081  0.7006
  160MOL0     H21533   3.315   7.499  10.558  0.9715 -0.4858 -0.2494
  160MOL0     H21534   3.501   7.401  10.663  1.2039 -1.0826 -0.0900
  160MOL0     H21535   3.804   7.291  10.681  1.3249  0.4774 -3.7646
  160MOL0     H21536   3.628   7.245  10.717  0.7915 -1.9866  0.6399
  160MOL0     H21537   3.673   7.026  10.660 -0.0308 -1.2039  2.3865
  160MOL0     H21538   3.830   7.057  10.597 -2.6289 -0.0085 -2.6789
  160MOL0     H21539   3.763   7.128  10.886  3.7220  3.0137 -0.1656
  160MOL0     H21540   3.794   6.960  10.835 -1.8170  0.3458 -1.1893
  160MOL0     H21541   4.026   7.059  10.748  0.7717  3.4801 -0.0275
  160MOL0     H21542   3.971   7.211  10.801 -1.5631  0.0121 -1.4652
  160MOL0     H21543   4.102   7.134  10.995 -1.8628  1.8911  0.4859
  160MOL0     H21544   3.944   7.106  11.039  1.7860  1.5910  1.0401
  160MOL0     H21545   4.032   6.883  11.069 -0.4753 -3.3828 -0.6379
  160MOL0     H21546   4.002   6.868  10.902  2.0949 -0.8754  0.1684
  160MOL0     H21547   4.247   6.923  10.863 -2.1951 -0.5299 -0.3528
  160MOL0     H21548   4.262   6.966  11.038 -0.6942 -0.2150  0.1272
  160MOL0     H21549   4.378   6.773  11.014  0.1545  0.8819  2.4221
  160MOL0     H21550   4.248   6.694  10.910 -1.7431 -2.7703  2.5141
  160MOL0     H21551   4.241   6.844  11.275 -0.2206 -0.0579  1.6600
  160MOL0     H21552   4.163   6.749  11.511 -1.2988 -0.6468  2.0253
  160MOL0     H21553   4.052   6.613  11.506  0.8396  0.1034 -0.5751
  160MOL0     H21554   4.223   6.450  11.535 -0.8840 -0.3434 -1.4072
  160MOL0     H21555   4.243   6.574  11.660  0.9585  1.1233  0.1355
  160MOL0     H21556   4.391   6.594  11.410 -0.3576  0.2253 -0.3305
  160MOL0     H21557   4.449   6.474  11.527  1.1597  1.9909  2.8163
  160MOL0     H21558   4.569   6.692  11.555  1.0939 -1.9865  0.5605
  160MOL0     H21559   4.477   6.631  11.694 -1.3483 -1.5169 -0.5251
  160MOL0     H21560   4.444   6.916  11.805  2.2277 -1.8524  0.9504
  160MOL0     H21561   4.662   7.172  11.926  1.6992 -2.1657 -2.6956
  160MOL0     H21562   4.487   7.176  11.903  1.3363  1.3906  2.1594
  160MOL0     H21563   4.585   7.023  11.947  0.4474 -0.8499 -1.1751
  160MOL0     H21564   4.706   7.439  12.002 -5.0676  0.6433 -3.0833
  160MOL0     H21565   4.846   7.612  12.084 -0.2993 -0.1590  0.0761
  160MOL0     H21566   5.021   7.898  11.749  1.5821 -0.5737  1.3205
  160MOL0     H21567   4.875   7.921  11.853 -0.9489 -3.6711  1.6444
  160MOL0     H21568   5.008   8.106  11.890 -0.2270  0.1030 -2.1006
  160MOL0     H21569   5.014   8.006  12.040 -0.8069 -0.9688 -0.6682
  160MOL0     H21570   5.240   7.923  11.947 -0.5262 -0.0405 -0.2020
  160MOL0     H21571   5.244   8.096  11.996 -1.2893  0.2733  0.0630
  160MOL0     H21572   5.197   7.987  11.699  0.6176 -1.6719  1.1564
  160MOL0     H21573   5.208   8.142  11.752 -0.3978  0.8472  1.5263
  160MOL0     H21574   5.445   7.933  11.801 -1.3364 -0.0560  0.0107
  160MOL0     H21575   5.449   8.102  11.855  0.5957  0.0477 -0.0880
  160MOL0     H21576   5.442   8.025  11.555 -1.6567 -0.4001 -0.0544
  160MOL0     H21577   5.430   8.183  11.633  1.4661  0.5130 -1.6470
  160MOL0     H21578   5.668   7.973  11.628  0.3239 -1.3623  2.1841
  160MOL0     H21579   5.660   8.118  11.737 -2.9282  0.2833  0.1190
  160MOL0     H21580   5.646   8.114  11.434 -0.3348  0.2350  0.5316
  160MOL0     H21581   5.791   8.139  11.520  0.6608 -1.0672 -0.3990
  160MOL0     H21582   4.999   7.681  11.683 -1.4050  1.5693 -0.6522
  160MOL0     H21583   4.864   7.495  11.596  2.0082  1.3706  0.0252
  160MOL0     H21584   4.682   7.120  11.429  0.2902  3.4253  1.1155
  160MOL0     H21585   4.536   6.915  11.401 -0.2673 -1.3198  0.7136
  160MOL0     H21586   3.622   7.231  10.290 -2.1447 -2.1178  0.1313
  160MOL0     H21587   3.393   7.341  10.171 -1.1427 -0.1182 -0.0451
  160MOL0     H21588   3.268   7.912  10.264 -1.2016 -0.3460  1.4398
  160MOL0     H21589   3.101   8.031  10.121  1.4086  0.4865  0.6290
  160MOL0     H21590   2.929   8.127  10.058  1.6356 -1.3772  0.3974
  160MOL0     H21591   3.001   8.070   9.905 -0.1339 -1.4921  0.8300
  160MOL0     H21592   2.771   8.058   9.810  3.6219  0.2259 -1.7640
  160MOL0     H21593   2.812   8.221   9.847  0.4012 -0.2815  1.3845
  160MOL0     H21594   2.711   8.150  10.086  5.1004  0.6249 -1.5923
  160MOL0     H21595   2.603   8.054   9.972  1.3014 -0.6684  0.2393
  160MOL0     H21596   2.488   8.251  10.010  0.1124 -0.7981  0.5582
  160MOL0     H21597   2.544   8.259   9.840 -0.8967  2.4502  0.1667
  160MOL0     H21598   2.751   8.560  10.079  1.2121  0.3050 -2.2182
  160MOL0     H21599   2.869   7.677  10.079  0.0263  1.0094  0.0621
  160MOL0     H21600   3.031   7.552  10.196 -4.0167  0.6519 -0.1723
  161MOL0     O21601   8.709   2.376  10.156 -0.3423 -0.2791  0.1557
  161MOL0     C21602   8.699   2.326  10.046  0.0251  0.2280  0.6949
  161MOL0     O21603   8.587   2.288   9.986  0.2799 -0.1647  1.5256
  161MOL0     C21604   8.469   2.284  10.048 -1.1130 -0.7531 -0.0441
  161MOL0     C21605   8.398   2.390  10.097 -0.3588 -0.5948 -0.9005
  161MOL0     C21606   8.270   2.371  10.160  0.4088 -0.2316  0.5215
  161MOL0     C21607   8.213   2.242  10.168  0.0665  0.1618  0.1608
  161MOL0     O21608   8.081   2.225  10.203 -0.2925 -0.1742  0.2036
  161MOL0     C21609   7.989   2.316  10.134  0.1656  0.2441  0.0502
  161MOL0     C21610   7.851   2.237  10.132  0.1405 -0.1253 -0.3761
  161MOL0     C21611   7.844   2.138  10.021  0.1683 -0.5016 -0.4690
  161MOL0     C21612   7.704   2.088  10.006  0.5498  0.6344  0.9796
  161MOL0     C21613   7.704   1.943   9.941 -0.6117 -0.9269  0.5700
  161MOL0     C21614   7.767   1.933   9.803 -0.3752 -0.2934 -0.2420
  161MOL0     C21615   7.778   1.797   9.740  0.7784  0.3684  0.3730
  161MOL0     C21616   7.857   1.703   9.834 -0.8444  0.1140 -0.3748
  161MOL0     N21617   7.991   1.748   9.866  0.2383 -0.7136  0.2608
  161MOL0     C21618   8.088   1.789   9.768  0.2434  0.6510 -0.8610
  161MOL0     C21619   8.198   1.832   9.843  0.3412  0.3377 -0.1443
  161MOL0     C21620   8.327   1.877   9.793 -0.0486 -0.2393  0.1486
  161MOL0     C21621   8.447   1.788   9.829  0.2358 -1.4352 -0.2137
  161MOL0     C21622   8.572   1.857   9.777 -0.2668  0.6425 -0.0199
  161MOL0     C21623   8.690   1.758   9.773 -0.7212 -0.0152 -0.7846
  161MOL0     O21624   8.812   1.826   9.742  0.2635  0.5071 -0.4987
  161MOL0     C21625   8.925   1.748   9.738  0.1875  0.0214 -0.2124
  161MOL0     C21626   8.930   1.610   9.755  0.7188 -0.1654  0.2520
  161MOL0     C21627   9.045   1.544   9.792 -0.4835 -0.0358  0.1816
  161MOL0     C21628   9.046   1.394   9.800  0.5284  0.3122 -0.4821
  161MOL0     C21629   9.162   1.615   9.815 -0.8214 -0.0064 -0.1041
  161MOL0     C21630   9.298   1.563   9.865  0.5005  0.0559  0.2489
  161MOL0     O21631   9.300   1.432   9.917  0.2867 -0.3226  0.3772
  161MOL0     C21632   9.408   1.370   9.969 -0.5108  1.0869 -0.2790
  161MOL0     C21633   9.389   1.239  10.022 -0.3986  0.5141 -0.8250
  161MOL0     C21634   9.486   1.151  10.072  0.0480 -1.0838 -0.7745
  161MOL0     C21635   9.615   1.190  10.075 -0.1011 -0.8040 -0.4255
  161MOL0     O21636   9.708   1.098  10.118  0.7733 -0.4657 -0.4975
  161MOL0     C21637   9.812   1.143  10.213  0.5227 -0.0231  1.1085
  161MOL0     C21638   9.943   1.064  10.181 -0.0717  0.3633  0.1007
  161MOL0     C21639   9.961   1.066  10.021  0.3413  0.0900 -0.4274
  161MOL0     C21640  10.103   1.048   9.979  0.2195  0.5393  0.1194
  161MOL0     C21641  10.106   1.028   9.828  0.0214  0.3527  0.5559
  161MOL0     C21642  10.244   0.978   9.794  0.2112  0.1033  0.2005
  161MOL0     C21643  10.343   1.090   9.799 -0.1129  0.5501  0.1389
  161MOL0     C21644  10.490   1.069   9.749  0.3695 -0.2725 -0.0687
  161MOL0    Cl21645  10.566   1.218   9.685  0.1910  0.0947 -0.4545
  161MOL0     C21646   9.645   1.310  10.027  0.2737  0.2182 -0.0239
  161MOL0     C21647   9.549   1.402   9.976  0.0040 -0.2433 -1.1914
  161MOL0     O21648   9.392   1.641   9.875  0.0393  0.2556 -0.6838
  161MOL0     C21649   9.157   1.758   9.793 -0.8970 -0.3474 -0.3074
  161MOL0     C21650   9.049   1.823   9.751 -0.4273 -0.4634  0.3529
  161MOL0     N21651   8.153   1.840   9.976  0.0309  0.4459 -0.8224
  161MOL0     N21652   8.035   1.793   9.985 -0.7255 -0.0494  0.0985
  161MOL0     C21653   8.282   2.133  10.113 -0.0345 -0.1003  0.5254
  161MOL0     C21654   8.413   2.152  10.058  0.3121  0.1942 -0.1852
  161MOL0     C21655   8.822   2.300   9.973  0.2299 -0.6780 -0.7387
  161MOL0     C21656   8.819   2.220   9.859 -0.0019  0.8810 -0.0299
  161MOL0     C21657   8.947   2.188   9.807  0.3363  0.4383 -0.1230
  161MOL0     C21658   9.068   2.243   9.845  0.5829 -1.1141 -0.0256
  161MOL0     O21659   9.187   2.204   9.785  0.0362 -0.7901 -0.3725
  161MOL0     C21660   9.312   2.230   9.857 -0.2208 -0.3159 -0.7006
  161MOL0     C21661   9.422   2.205   9.756 -0.0085  0.3755  0.5733
  161MOL0     C21662   9.557   2.178   9.820 -0.3164 -0.5974  0.1918
  161MOL0     C21663   9.644   2.100   9.722 -0.0498 -0.4358 -0.5473
  161MOL0     C21664   9.759   2.043   9.787  0.4580  0.1866 -0.5416
  161MOL0     C21665   9.857   1.998   9.847 -0.1019 -0.1839  0.5391
  161MOL0     C21666   9.069   2.336   9.946  0.4176  0.1250  0.6150
  161MOL0     C21667   8.946   2.358  10.008 -0.2720 -0.6901 -0.1636
  161MOL0     H21668   8.447   2.487  10.094  0.6278 -1.0825 -0.9228
  161MOL0     H21669   8.219   2.457  10.200  1.2559  1.5562 -2.0118
  161MOL0     H21670   7.967   2.409  10.186 -0.4385  1.6727 -2.6112
  161MOL0     H21671   8.012   2.326  10.028  0.1723 -5.5065 -0.8477
  161MOL0     H21672   7.833   2.189  10.229  0.5803 -3.0984 -1.6848
  161MOL0     H21673   7.772   2.311  10.115  0.8110  0.6434 -0.1829
  161MOL0     H21674   7.888   2.180   9.931  1.4231 -1.4201 -0.3084
  161MOL0     H21675   7.902   2.048  10.044 -1.3925 -1.1886  1.0487
  161MOL0     H21676   7.659   2.073  10.105 -4.6731 -1.1567 -1.3306
  161MOL0     H21677   7.640   2.150   9.942  2.7095 -0.0435 -2.0627
  161MOL0     H21678   7.761   1.891  10.018 -1.4847  1.5599  3.0570
  161MOL0     H21679   7.608   1.890   9.938 -1.2181  0.1552 -0.2093
  161MOL0     H21680   7.711   1.994   9.732 -0.7009  1.9852  1.8234
  161MOL0     H21681   7.869   1.974   9.806 -0.3676 -0.3188 -0.1484
  161MOL0     H21682   7.678   1.754   9.729  0.9538  0.3624 -1.5029
  161MOL0     H21683   7.818   1.803   9.638  2.4073  0.1721  0.9710
  161MOL0     H21684   7.881   1.609   9.784  2.0220  0.2033  0.6591
  161MOL0     H21685   7.802   1.676   9.925 -2.4958  1.1170 -1.0326
  161MOL0     H21686   8.081   1.785   9.660 -1.1803 -0.2275 -0.7643
  161MOL0     H21687   8.318   1.894   9.685 -0.1635  0.0442  0.2021
  161MOL0     H21688   8.352   1.976   9.831  0.1092  0.4865 -1.7056
  161MOL0     H21689   8.445   1.694   9.773 -0.4457  1.2802 -5.3673
  161MOL0     H21690   8.450   1.772   9.937 -1.9478  1.7105  0.4241
  161MOL0     H21691   8.604   1.950   9.824  3.7869  0.0988 -1.3007
  161MOL0     H21692   8.542   1.892   9.678 -2.3465  0.0306  0.3489
  161MOL0     H21693   8.677   1.680   9.697  2.0353 -1.8268  0.4376
  161MOL0     H21694   8.704   1.710   9.870  0.6545  0.7229 -0.5908
  161MOL0     H21695   8.834   1.565   9.731  1.2374 -0.1196 -2.1209
  161MOL0     H21696   9.055   1.364   9.904 -1.5134 -0.9916 -0.6333
  161MOL0     H21697   8.954   1.345   9.768  0.1233  0.7765 -0.0343
  161MOL0     H21698   9.124   1.345   9.740 -1.3049 -0.3118 -2.4989
  161MOL0     H21699   9.285   1.211  10.010 -1.1897  2.5230  0.7229
  161MOL0     H21700   9.456   1.050  10.098 -4.4949 -0.4610 -2.5781
  161MOL0     H21701   9.837   1.247  10.191 -3.1495  0.6001 -0.8920
  161MOL0     H21702   9.774   1.131  10.315  1.6313  1.2785  1.6971
  161MOL0     H21703  10.031   1.107  10.229  0.8600  1.4104 -2.3545
  161MOL0     H21704   9.923   0.964  10.219  0.1971  0.7483  1.3175
  161MOL0     H21705   9.929   1.154   9.963  0.4549 -2.0913 -4.0740
  161MOL0     H21706   9.896   0.984   9.991  0.1892 -0.0441  0.2673
  161MOL0     H21707  10.167   1.130  10.011  2.6407 -0.8458 -0.9270
  161MOL0     H21708  10.131   0.959  10.037  0.4910  0.5844  0.0558
  161MOL0     H21709  10.077   1.117   9.771  1.0963  0.4088  0.0840
  161MOL0     H21710  10.028   0.957   9.801 -1.0199  1.2603  1.0553
  161MOL0     H21711  10.270   0.900   9.867 -1.8652 -1.3538 -0.5383
  161MOL0     H21712  10.237   0.954   9.688  1.5411 -0.3014  0.1832
  161MOL0     H21713  10.353   1.121   9.904 -1.9483  1.1109  0.1726
  161MOL0     H21714  10.305   1.177   9.744  0.2278 -0.4487 -1.7412
  161MOL0     H21715  10.501   1.002   9.663 -1.4644  0.5051 -0.9798
  161MOL0     H21716  10.542   1.022   9.832 -1.4815 -1.3410  0.5590
  161MOL0     H21717   9.748   1.340  10.009  0.2684  2.3605  2.8050
  161MOL0     H21718   9.579   1.496   9.932  3.8040 -1.6150 -1.9073
  161MOL0     H21719   9.249   1.814   9.795  0.2563 -2.1416  2.0528
  161MOL0     H21720   9.053   1.924   9.712  1.8132 -1.6523 -2.9225
  161MOL0     H21721   8.231   2.038  10.113 -0.8334  0.2970 -1.5047
  161MOL0     H21722   8.471   2.070  10.016  0.2612 -0.7101  1.4360
  161MOL0     H21723   8.736   2.172   9.808  1.6388 -1.2404 -0.8290
  161MOL0     H21724   8.956   2.127   9.717 -1.2135  1.0066 -0.7070
  161MOL0     H21725   9.331   2.330   9.897  2.4455 -0.7314 -0.7027
  161MOL0     H21726   9.321   2.164   9.944 -2.9259  0.3913  0.2145
  161MOL0     H21727   9.423   2.293   9.691  1.6445 -0.6561 -0.8814
  161MOL0     H21728   9.395   2.119   9.693 -1.2097  1.9603 -1.1675
  161MOL0     H21729   9.555   2.107   9.903 -1.5390 -4.3558 -2.7837
  161MOL0     H21730   9.599   2.278   9.839  1.3082 -1.3134  0.4827
  161MOL0     H21731   9.673   2.161   9.635  0.0676 -1.5816 -1.3354
  161MOL0     H21732   9.597   2.015   9.672 -0.7046 -1.2890  1.4588
  161MOL0     H21733   9.944   1.968   9.902  0.3991  0.9405  0.3808
  161MOL0     H21734   9.159   2.386   9.982  0.0603  1.3868 -0.1640
  161MOL0     H21735   8.950   2.432  10.087 -1.1243 -0.0779 -0.6818
  162MOL0     O21736   6.556  10.610   5.592  0.4650 -0.1035  0.0679
  162MOL0     C21737   6.671  10.580   5.625  0.7439 -0.7520 -0.5987
  162MOL0     O21738   6.698  10.508   5.733 -0.4638  0.6142 -0.2879
  162MOL0     C21739   6.604  10.465   5.817 -0.4027  0.0625 -0.0821
  162MOL0     C21740   6.615  10.506   5.952 -1.0744 -0.3821  0.8332
  162MOL0     C21741   6.520  10.478   6.053 -0.5275  0.4222  0.4194
  162MOL0     C21742   6.419  10.388   6.028  0.1101  0.5523 -0.1364
  162MOL0     O21743   6.334  10.365   6.128 -0.0989 -0.5019  0.4927
  162MOL0     C21744   6.227  10.274   6.105  0.1196 -0.6332  0.4528
  162MOL0     C21745   6.148  10.260   6.237  1.2058  0.7180 -0.6817
  162MOL0     C21746   6.044  10.146   6.224 -0.3566  0.6035 -0.5088
  162MOL0     C21747   5.941  10.130   6.338  0.5326  0.3058  1.1308
  162MOL0     C21748   5.838  10.017   6.326  0.3577 -0.1649 -0.0218
  162MOL0     C21749   5.871   9.872   6.324  0.0337 -0.3819  0.1192
  162MOL0     C21750   5.764   9.780   6.371  0.6556  0.2882  0.5395
  162MOL0     C21751   5.656   9.748   6.262  0.4739  0.3591  0.1030
  162MOL0     N21752   5.563   9.637   6.290  0.3775 -0.5871  0.3730
  162MOL0     C21753   5.583   9.501   6.257  0.5933 -0.0068 -0.1629
  162MOL0     C21754   5.459   9.450   6.271 -0.1416 -0.3200 -0.0813
  162MOL0     C21755   5.419   9.311   6.238  0.7667 -0.0393  0.7030
  162MOL0     C21756   5.271   9.294   6.278 -0.8806 -0.4393 -0.5141
  162MOL0     C21757   5.221   9.155   6.225  0.2755  0.0835  0.5722
  162MOL0     C21758   5.074   9.149   6.236  0.4744  0.3172  0.0800
  162MOL0     O21759   5.041   9.160   6.369 -0.2972 -0.0746 -0.4044
  162MOL0     C21760   4.915   9.113   6.408  0.3820  0.1073 -0.3506
  162MOL0     C21761   4.891   9.077   6.542  0.1741 -1.0047  0.3126
  162MOL0     C21762   4.768   9.033   6.592 -0.0958 -0.1990 -0.2721
  162MOL0     C21763   4.756   8.989   6.739  0.2287 -0.0570  0.2524
  162MOL0     C21764   4.655   9.033   6.501  0.6317  0.0871 -0.8435
  162MOL0     C21765   4.515   8.985   6.535 -0.1088 -0.2352 -0.0358
  162MOL0     O21766   4.437   8.940   6.438  0.0668  0.5576  0.0450
  162MOL0     C21767   4.303   8.946   6.449  0.0547  0.2205 -0.5037
  162MOL0     C21768   4.219   9.019   6.540  0.1131 -0.5567  0.0607
  162MOL0     C21769   4.077   9.037   6.511 -0.8713  0.5545  0.2970
  162MOL0     C21770   4.016   8.956   6.411  0.0091 -0.5434  0.0416
  162MOL0     O21771   3.880   8.969   6.385 -0.5040  0.2168 -0.9769
  162MOL0     C21772   3.797   9.063   6.473 -0.7175 -0.4534  0.4286
  162MOL0     C21773   3.642   9.017   6.463 -0.2818 -0.2529  0.2311
  162MOL0     C21774   3.561   9.051   6.588 -0.9768 -0.5630  0.7153
  162MOL0     C21775   3.425   8.991   6.584  0.1672 -0.2385  0.1890
  162MOL0     C21776   3.344   9.007   6.717 -0.6369 -0.0686 -0.3864
  162MOL0     C21777   3.215   8.937   6.693 -1.5490  0.1511 -0.3775
  162MOL0     C21778   3.102   8.973   6.788  0.2243  0.3388  0.5552
  162MOL0     C21779   3.029   8.857   6.842  0.1790 -0.6633  1.3161
  162MOL0    Cl21780   2.912   8.932   6.946 -0.1279 -0.3368 -0.5597
  162MOL0     C21781   4.096   8.878   6.337  1.0482  0.4995  0.2141
  162MOL0     C21782   4.230   8.866   6.355  0.3234 -0.2112  0.8811
  162MOL0     O21783   4.475   9.006   6.652 -0.7844  0.5916 -1.1722
  162MOL0     C21784   4.681   9.065   6.368 -0.1477  0.3115 -0.3821
  162MOL0     C21785   4.811   9.090   6.320  1.7565  0.1956  0.2085
  162MOL0     N21786   5.365   9.544   6.325 -0.0098  0.6304  0.4680
  162MOL0     N21787   5.432   9.651   6.330 -0.7510 -0.3500 -0.7849
  162MOL0     C21788   6.411  10.331   5.892  0.3652 -0.0321 -0.5093
  162MOL0     C21789   6.500  10.373   5.794  1.0944 -0.3334 -0.8171
  162MOL0     C21790   6.778  10.656   5.550  0.3216  0.7660 -0.1059
  162MOL0     C21791   6.741  10.732   5.432 -0.1323 -0.4864 -0.1604
  162MOL0     C21792   6.850  10.783   5.358  0.0494  0.1689  0.2524
  162MOL0     C21793   6.986  10.772   5.396  0.6141 -0.2049 -0.7484
  162MOL0     O21794   7.069  10.859   5.326 -0.1754  0.2626  0.3979
  162MOL0     C21795   7.201  10.803   5.300  0.0517  0.1042  0.5097
  162MOL0     C21796   7.293  10.896   5.371 -0.1204  1.1045 -0.2317
  162MOL0     C21797   7.440  10.877   5.326 -0.3430 -0.5390  0.7737
  162MOL0     C21798   7.521  11.003   5.349  1.0793 -0.5432 -0.3203
  162MOL0     C21799   7.514  11.060   5.484  0.1537  0.1577 -0.3338
  162MOL0     C21800   7.494  11.088   5.603 -0.3560  0.5650 -0.4450
  162MOL0     C21801   7.010  10.684   5.505 -0.2273  0.2404  0.7481
  162MOL0     C21802   6.911  10.630   5.579  0.3781  0.4692 -0.3501
  162MOL0     H21803   6.697  10.575   5.970  0.2012 -2.0060  1.5334
  162MOL0     H21804   6.523  10.532   6.148  0.4171 -0.6318  1.0090
  162MOL0     H21805   6.156  10.307   6.028  0.1061  2.3788  1.6316
  162MOL0     H21806   6.259  10.177   6.066  4.0675  1.2786 -1.7314
  162MOL0     H21807   6.220  10.228   6.312  0.4284  0.5170 -0.0093
  162MOL0     H21808   6.110  10.352   6.282  0.1746 -0.1384  0.2534
  162MOL0     H21809   6.009  10.134   6.122 -1.4289 -2.2108  0.1140
  162MOL0     H21810   6.103  10.056   6.244 -0.1591  0.3022 -2.3548
  162MOL0     H21811   6.001  10.129   6.430  2.9138 -1.5087 -0.3270
  162MOL0     H21812   5.890  10.227   6.334 -1.3564 -0.6337 -3.5529
  162MOL0     H21813   5.782  10.026   6.419  0.7590 -0.2169  0.2249
  162MOL0     H21814   5.778  10.034   6.236 -2.2312 -0.3657  1.5817
  162MOL0     H21815   5.905   9.858   6.220  1.9570  1.1594  0.4805
  162MOL0     H21816   5.963   9.848   6.378 -0.9538 -2.8724  0.8336
  162MOL0     H21817   5.808   9.688   6.409  0.5387  0.1767  0.4114
  162MOL0     H21818   5.709   9.831   6.450 -0.5471  2.1581 -1.4003
  162MOL0     H21819   5.719   9.725   6.176  0.0541  1.9728 -0.6663
  162MOL0     H21820   5.602   9.834   6.223  2.7226  1.7023 -0.2653
  162MOL0     H21821   5.675   9.457   6.223  0.2892  0.4947 -1.7056
  162MOL0     H21822   5.416   9.292   6.130 -3.3370  0.4303  0.5782
  162MOL0     H21823   5.486   9.247   6.296 -0.0378 -0.0844  1.6107
  162MOL0     H21824   5.214   9.380   6.241 -1.1962 -0.1754  0.5497
  162MOL0     H21825   5.245   9.307   6.384 -1.3830 -0.5728 -0.6178
  162MOL0     H21826   5.269   9.081   6.290 -1.5474 -1.4207  0.2994
  162MOL0     H21827   5.245   9.150   6.119 -2.2536  0.4722 -0.0962
  162MOL0     H21828   5.032   9.052   6.206 -0.5264  0.3836  1.2026
  162MOL0     H21829   5.023   9.230   6.183 -2.0313 -0.6206  0.9380
  162MOL0     H21830   4.973   9.088   6.612 -0.2545 -0.1971  0.7021
  162MOL0     H21831   4.695   8.899   6.757 -0.4421  0.3341 -0.0240
  162MOL0     H21832   4.854   8.976   6.786  0.4024  0.3747  0.0077
  162MOL0     H21833   4.704   9.070   6.792 -3.4846 -0.1972 -2.7165
  162MOL0     H21834   4.260   9.069   6.627  0.6715 -2.3154  0.8590
  162MOL0     H21835   4.030   9.112   6.573  0.4161  1.1874  0.5582
  162MOL0     H21836   3.824   9.062   6.579 -1.4206 -0.1013  0.6154
  162MOL0     H21837   3.801   9.163   6.428 -2.8957 -1.2053 -1.6673
  162MOL0     H21838   3.590   9.052   6.373 -0.0851  0.9978  0.5882
  162MOL0     H21839   3.638   8.910   6.440  2.0618 -0.1866 -0.8330
  162MOL0     H21840   3.546   9.159   6.598 -1.0331 -0.4472 -0.4898
  162MOL0     H21841   3.615   9.023   6.679  0.3988 -2.4828 -0.6265
  162MOL0     H21842   3.366   9.019   6.496 -0.7607 -3.6123 -0.4216
  162MOL0     H21843   3.435   8.882   6.572  1.0131  0.0211 -1.9502
  162MOL0     H21844   3.324   9.110   6.749 -0.5861 -0.5833  1.4312
  162MOL0     H21845   3.385   8.959   6.806  0.4164 -1.2761 -1.4819
  162MOL0     H21846   3.183   8.974   6.595 -0.5672  3.2344  0.3466
  162MOL0     H21847   3.241   8.830   6.695  3.9500  1.1588 -0.7790
  162MOL0     H21848   3.031   9.043   6.741  1.9693  0.3524 -2.2777
  162MOL0     H21849   3.136   9.024   6.878 -0.4342 -1.0343  1.6071
  162MOL0     H21850   3.097   8.786   6.890  1.2820  1.1454  2.5235
  162MOL0     H21851   2.959   8.810   6.772 -0.0660  0.1097  1.0421
  162MOL0     H21852   4.051   8.818   6.259  0.4499  1.8675 -0.5356
  162MOL0     H21853   4.282   8.797   6.291 -2.0316 -1.2077 -0.0598
  162MOL0     H21854   4.601   9.052   6.297 -2.5901  2.0682  1.8555
  162MOL0     H21855   4.823   9.094   6.213 -0.3375 -1.7529 -0.1609
  162MOL0     H21856   6.327  10.265   5.872 -0.8245  1.6248 -1.2409
  162MOL0     H21857   6.489  10.319   5.700  0.3645  2.5008 -2.4943
  162MOL0     H21858   6.639  10.747   5.396 -1.0755 -0.3521  2.3455
  162MOL0     H21859   6.821  10.842   5.272 -1.5813 -0.8866  0.0275
  162MOL0     H21860   7.202  10.699   5.336  0.3438 -1.4407 -3.4709
  162MOL0     H21861   7.224  10.811   5.194  0.6448 -1.0743  0.5311
  162MOL0     H21862   7.290  10.861   5.475  0.8502  0.8109 -0.2935
  162MOL0     H21863   7.270  11.003   5.370  0.5523  1.2514 -0.3844
  162MOL0     H21864   7.447  10.860   5.218  0.9432 -0.2045  0.7819
  162MOL0     H21865   7.480  10.789   5.376 -4.7328 -2.6041  1.1140
  162MOL0     H21866   7.495  11.086   5.284  2.6377 -0.5269 -0.9797
  162MOL0     H21867   7.629  10.988   5.337  0.9708 -1.0246 -0.7135
  162MOL0     H21868   7.493  11.111   5.708  0.4855  2.9334 -0.8810
  162MOL0     H21869   7.113  10.675   5.537  0.0282  0.2017 -0.0449
  162MOL0     H21870   6.927  10.575   5.671 -0.2785 -1.2639 -1.2381
  163MOL0     O21871   9.109   0.833   6.757  0.3421 -0.2692  0.7328
  163MOL0     C21872   9.056   0.743   6.808  0.2754  0.0264 -0.2547
  163MOL0     O21873   9.112   0.634   6.857 -0.3278 -0.7785 -0.1456
  163MOL0     C21874   9.252   0.620   6.840 -0.0945  0.6986 -0.1477
  163MOL0     C21875   9.306   0.608   6.713  0.8183 -1.0234  0.2838
  163MOL0     C21876   9.445   0.610   6.696 -0.0942 -0.2546 -0.0984
  163MOL0     C21877   9.529   0.613   6.810 -0.1858 -0.0183 -0.0373
  163MOL0     O21878   9.664   0.606   6.780  0.4308  1.3172  0.1871
  163MOL0     C21879   9.765   0.614   6.884  0.1590  0.8974 -0.0050
  163MOL0     C21880   9.792   0.473   6.955 -0.4008 -0.7186  0.6512
  163MOL0     C21881   9.889   0.399   6.864  0.5893  0.1403 -0.1889
  163MOL0     C21882   9.924   0.253   6.908  0.4706 -0.1207  0.2018
  163MOL0     C21883  10.007   0.184   6.796 -0.1851 -0.2954 -0.9660
  163MOL0     C21884  10.025   0.033   6.819  0.7842 -0.1718 -0.0627
  163MOL0     C21885   9.909  -0.064   6.786 -0.7900  0.2778  0.0412
  163MOL0     C21886   9.935  -0.210   6.798  0.4878 -0.8224  0.3883
  163MOL0     N21887  10.011  -0.256   6.913 -0.2313  0.7758 -0.3219
  163MOL0     C21888   9.959  -0.259   7.041  0.4341  0.2385 -0.5149
  163MOL0     C21889  10.056  -0.313   7.112 -1.0092 -0.2823  0.7411
  163MOL0     C21890  10.050  -0.322   7.267 -0.0544 -0.4722  0.4578
  163MOL0     C21891  10.009  -0.466   7.326 -0.4963  0.7033  0.6157
  163MOL0     C21892   9.982  -0.472   7.474 -0.5784 -0.1132  0.3884
  163MOL0     C21893  10.088  -0.413   7.568 -0.8985 -0.4492  0.8345
  163MOL0     O21894  10.194  -0.508   7.577 -0.0253  0.5068 -0.4595
  163MOL0     C21895  10.319  -0.446   7.593  0.0125  0.6430  0.4920
  163MOL0     C21896  10.344  -0.338   7.670 -0.3805  1.0754 -0.1387
  163MOL0     C21897  10.476  -0.300   7.697  0.4762 -0.4276  0.1535
  163MOL0     C21898  10.488  -0.191   7.797  0.2489 -0.1232  0.3362
  163MOL0     C21899  10.589  -0.348   7.616  0.9578 -0.1995  1.4100
  163MOL0     C21900  10.727  -0.290   7.604  0.9974 -0.3371 -0.2500
  163MOL0     O21901  10.783  -0.308   7.489  0.2264  0.1149 -1.1699
  163MOL0     C21902  10.915  -0.267   7.469 -0.4275 -0.8262 -0.0415
  163MOL0     C21903  10.942  -0.240   7.335 -0.2332  0.5626 -0.3444
  163MOL0     C21904  11.072  -0.211   7.293 -0.0146 -0.3236  0.3163
  163MOL0     C21905  11.183  -0.211   7.382  0.0908  0.3746 -0.1245
  163MOL0     O21906  11.303  -0.164   7.335  0.3116 -0.2049 -0.4045
  163MOL0     C21907  11.427  -0.175   7.411 -0.0647  0.8616  0.1454
  163MOL0     C21908  11.547  -0.179   7.312 -0.7658  0.0357  0.2634
  163MOL0     C21909  11.670  -0.236   7.377 -0.2770 -0.3177 -0.5266
  163MOL0     C21910  11.810  -0.220   7.307 -0.7846  0.7104 -0.4690
  163MOL0     C21911  11.913  -0.305   7.376 -0.2780  0.1538 -0.5915
  163MOL0     C21912  12.055  -0.282   7.312 -0.4965 -0.2863 -0.8270
  163MOL0     C21913  12.148  -0.397   7.348 -0.2129 -0.8622  0.5231
  163MOL0     C21914  12.284  -0.381   7.269 -0.5349  0.0219  0.2726
  163MOL0    Cl21915  12.367  -0.237   7.314  0.0241  0.1406  0.0847
  163MOL0     C21916  11.148  -0.229   7.520 -0.4179  0.3937  0.1082
  163MOL0     C21917  11.018  -0.254   7.556  0.0147 -0.3870  0.0796
  163MOL0     O21918  10.761  -0.217   7.694 -0.4769 -0.7594 -0.8311
  163MOL0     C21919  10.552  -0.444   7.520  0.1770 -0.5551 -0.1663
  163MOL0     C21920  10.428  -0.499   7.517  0.5788  0.0860  1.0241
  163MOL0     N21921  10.166  -0.342   7.036  0.9072  0.3657 -1.4861
  163MOL0     N21922  10.138  -0.316   6.913  0.0149 -0.9125 -0.2976
  163MOL0     C21923   9.480   0.599   6.937  1.5243 -0.4630 -0.1210
  163MOL0     C21924   9.339   0.612   6.950  0.1983 -0.0289  0.3961
  163MOL0     C21925   8.907   0.740   6.814 -0.5168  0.3898 -0.3112
  163MOL0     C21926   8.833   0.623   6.861 -0.0078 -0.3565  0.7667
  163MOL0     C21927   8.693   0.633   6.854 -0.5456 -0.4919 -1.0942
  163MOL0     C21928   8.621   0.738   6.801 -0.3615  0.8601  0.0439
  163MOL0     O21929   8.484   0.723   6.810 -0.8317  0.0245 -0.4680
  163MOL0     C21930   8.401   0.835   6.778 -0.4923  0.3743 -0.3905
  163MOL0     C21931   8.253   0.795   6.787 -0.1257 -0.0473 -0.3567
  163MOL0     C21932   8.228   0.795   6.935  0.5645 -0.4234 -0.1068
  163MOL0     C21933   8.078   0.762   6.968 -0.2452 -0.4675  0.5785
  163MOL0     C21934   8.001   0.887   6.997 -0.1528 -0.3194  0.0215
  163MOL0     C21935   7.934   0.982   7.005  1.2721  0.7424  0.2662
  163MOL0     C21936   8.696   0.850   6.764 -0.8207  0.1071 -0.7324
  163MOL0     C21937   8.840   0.849   6.761  0.1030  0.7321 -0.0535
  163MOL0     H21938   9.252   0.598   6.620 -0.2643 -1.9796  0.9846
  163MOL0     H21939   9.486   0.610   6.596 -0.6618 -3.2652 -0.4128
  163MOL0     H21940   9.861   0.653   6.850  0.8608 -0.2335  0.6000
  163MOL0     H21941   9.724   0.687   6.954 -1.6004  1.4558 -1.5261
  163MOL0     H21942   9.834   0.486   7.055 -1.6565 -2.3183  1.4475
  163MOL0     H21943   9.699   0.421   6.982 -1.1038  0.3592  0.3617
  163MOL0     H21944   9.841   0.382   6.767  1.3065  0.6072 -0.6392
  163MOL0     H21945   9.980   0.459   6.853 -0.4640  2.0653  1.0938
  163MOL0     H21946   9.991   0.262   6.994  1.4737  1.0829 -0.6610
  163MOL0     H21947   9.830   0.200   6.918 -1.0803  1.9552 -2.1570
  163MOL0     H21948   9.950   0.204   6.705 -2.2366 -3.6548 -0.5930
  163MOL0     H21949  10.105   0.231   6.803  0.4811 -1.6485 -0.7819
  163MOL0     H21950  10.117  -0.000   6.769  0.9766 -3.8530  2.3657
  163MOL0     H21951  10.054   0.027   6.924  3.0084 -0.6490 -0.6393
  163MOL0     H21952   9.834  -0.045   6.863 -2.7204 -2.2496 -1.0869
  163MOL0     H21953   9.861  -0.050   6.689  1.4544  2.8352 -0.8254
  163MOL0     H21954   9.997  -0.244   6.714 -1.7278 -1.3083 -1.1465
  163MOL0     H21955   9.835  -0.252   6.793 -2.2675  4.6649  1.6675
  163MOL0     H21956   9.863  -0.221   7.073 -1.1250 -2.6027 -1.4306
  163MOL0     H21957  10.148  -0.291   7.306 -0.9438  2.2302  0.6956
  163MOL0     H21958   9.983  -0.246   7.306  0.9228  0.5259  0.2502
  163MOL0     H21959  10.090  -0.537   7.305 -1.9569 -0.9968  0.5018
  163MOL0     H21960   9.928  -0.512   7.269 -2.5226  1.6963  2.5611
  163MOL0     H21961   9.947  -0.569   7.510 -0.5835  0.5914  2.4307
  163MOL0     H21962   9.896  -0.408   7.497 -0.8924 -0.3687 -0.0704
  163MOL0     H21963  10.043  -0.398   7.667 -3.5217 -4.4917  0.4879
  163MOL0     H21964  10.144  -0.323   7.540  1.4650 -1.6121  1.5106
  163MOL0     H21965  10.264  -0.278   7.712 -1.6717  0.4309 -1.5738
  163MOL0     H21966  10.564  -0.210   7.874 -2.0311  0.2495  2.8270
  163MOL0     H21967  10.514  -0.101   7.742  1.3132  0.0489  1.0877
  163MOL0     H21968  10.396  -0.185   7.856  1.0000 -1.8642  1.7785
  163MOL0     H21969  10.857  -0.254   7.268 -2.1217  2.0225  1.6136
  163MOL0     H21970  11.104  -0.200   7.190 -2.9932 -0.4926 -0.7016
  163MOL0     H21971  11.435  -0.077   7.460  0.4589 -0.4847  2.9419
  163MOL0     H21972  11.430  -0.259   7.481  1.6688  0.8251  0.0591
  163MOL0     H21973  11.528  -0.242   7.224  2.4185  1.2837 -1.4881
  163MOL0     H21974  11.569  -0.078   7.277 -0.1335 -0.2651 -0.2280
  163MOL0     H21975  11.650  -0.342   7.393  0.6402  0.0399  4.6480
  163MOL0     H21976  11.698  -0.201   7.476  5.1044 -3.6833 -0.4325
  163MOL0     H21977  11.806  -0.261   7.206  1.0350 -1.3716  0.2048
  163MOL0     H21978  11.831  -0.113   7.308 -0.0846  0.5856 -0.9038
  163MOL0     H21979  11.899  -0.412   7.389  2.1701 -0.0697  0.6994
  163MOL0     H21980  11.916  -0.278   7.482  2.1496  0.1875 -0.6185
  163MOL0     H21981  12.045  -0.265   7.205 -2.5202  0.3561 -0.5838
  163MOL0     H21982  12.097  -0.187   7.346 -0.0785  0.0086 -2.1264
  163MOL0     H21983  12.105  -0.492   7.315 -0.2200 -0.1117 -1.8201
  163MOL0     H21984  12.166  -0.396   7.456  0.4124 -1.0039  0.4238
  163MOL0     H21985  12.268  -0.386   7.161 -1.7039 -0.8295  0.4691
  163MOL0     H21986  12.330  -0.479   7.285 -2.0969 -1.2644 -2.3647
  163MOL0     H21987  11.223  -0.225   7.598 -0.9094 -2.8581  0.8995
  163MOL0     H21988  10.987  -0.268   7.659 -1.3092 -1.7877 -0.4752
  163MOL0     H21989  10.627  -0.495   7.460 -0.3802 -0.4617 -0.9558
  163MOL0     H21990  10.404  -0.587   7.458 -0.7827  0.2135  1.3736
  163MOL0     H21991   9.537   0.598   7.029  1.2390  0.2593  0.0716
  163MOL0     H21992   9.284   0.610   7.043  0.7083  2.3658  0.8075
  163MOL0     H21993   8.880   0.537   6.906 -2.0843 -1.5788  0.7375
  163MOL0     H21994   8.642   0.564   6.921 -0.7106 -0.1600 -0.8790
  163MOL0     H21995   8.425   0.925   6.836  0.5220  0.2588 -0.6286
  163MOL0     H21996   8.413   0.867   6.674  0.8715  0.8716 -0.0950
  163MOL0     H21997   8.231   0.700   6.739  2.2885 -0.8712  0.0231
  163MOL0     H21998   8.192   0.873   6.740 -0.3803  1.4596  2.2919
  163MOL0     H21999   8.274   0.881   6.984  2.5891 -2.2240  1.3601
  163MOL0     H22000   8.282   0.704   6.965 -0.2639 -0.3076  1.8873
  163MOL0     H22001   8.064   0.694   7.053  2.2250 -0.2052  1.2867
  163MOL0     H22002   8.036   0.723   6.875  3.3643  0.4850 -1.6448
  163MOL0     H22003   7.886   1.078   7.005 -0.3091 -0.0100  0.8030
  163MOL0     H22004   8.652   0.946   6.739 -2.2444 -0.0586  0.9780
  163MOL0     H22005   8.893   0.931   6.714 -0.9288  1.2247 -0.3782
  164MOL0     O22006   8.111   7.793   9.294  0.2560 -0.3440  0.6165
  164MOL0     C22007   8.076   7.716   9.203 -0.5414  0.1267 -0.5643
  164MOL0     O22008   7.989   7.742   9.102  0.1200 -0.7722 -0.3978
  164MOL0     C22009   7.935   7.868   9.099  0.0383  0.4870 -0.4353
  164MOL0     C22010   7.816   7.876   9.165  0.7579 -1.4541 -0.8939
  164MOL0     C22011   7.745   7.994   9.164  0.3157 -0.4365 -0.1664
  164MOL0     C22012   7.810   8.116   9.132  1.1910  0.3436 -0.1658
  164MOL0     O22013   7.755   8.240   9.139  0.4777  0.2419 -0.1285
  164MOL0     C22014   7.659   8.257   9.247  0.2796 -0.0363 -0.2559
  164MOL0     C22015   7.510   8.244   9.217  1.6306 -0.6075  0.0997
  164MOL0     C22016   7.476   8.360   9.114 -0.7642 -0.0679 -0.3702
  164MOL0     C22017   7.323   8.364   9.096  0.5559 -0.0360  0.4212
  164MOL0     C22018   7.269   8.269   8.993  0.3831 -0.2343  0.7082
  164MOL0     C22019   7.118   8.231   9.011  0.0753 -0.1137 -0.0226
  164MOL0     C22020   7.049   8.151   8.899  0.5987  0.5935 -0.9687
  164MOL0     C22021   7.081   8.007   8.916 -0.3579 -0.4790  0.6944
  164MOL0     N22022   7.008   7.930   8.807 -0.8144 -0.1103 -0.7558
  164MOL0     C22023   7.061   7.902   8.688 -0.3674  0.3634 -0.5101
  164MOL0     C22024   6.991   7.791   8.643  0.1322  0.4522 -1.3463
  164MOL0     C22025   7.024   7.722   8.512  0.1282  0.5081 -1.1678
  164MOL0     C22026   6.963   7.805   8.407  0.8420  0.2844  0.6028
  164MOL0     C22027   6.956   7.715   8.280  0.3848  0.9216  0.7608
  164MOL0     C22028   6.815   7.633   8.263 -0.8595  0.5117  0.3365
  164MOL0     O22029   6.822   7.565   8.142  0.1899 -0.1899  0.4331
  164MOL0     C22030   6.806   7.627   8.022 -0.3673  0.6799 -0.0529
  164MOL0     C22031   6.913   7.622   7.932 -0.5493  0.5263 -0.3816
  164MOL0     C22032   6.906   7.687   7.812 -0.3741 -0.2224  0.1486
  164MOL0     C22033   7.017   7.665   7.712  0.2972  0.6773 -0.7143
  164MOL0     C22034   6.796   7.764   7.774 -0.0261 -0.2988  0.3988
  164MOL0     C22035   6.791   7.829   7.633  0.5002  0.5692 -1.6397
  164MOL0     O22036   6.752   7.966   7.628 -0.2716 -0.2005  0.1358
  164MOL0     C22037   6.752   8.036   7.513 -0.0690 -0.5411 -0.1555
  164MOL0     C22038   6.636   8.065   7.441 -0.0916 -0.9968 -1.1512
  164MOL0     C22039   6.646   8.128   7.317  0.0547  0.3899 -0.1452
  164MOL0     C22040   6.772   8.166   7.264  0.6511 -0.1561  0.6009
  164MOL0     O22041   6.779   8.233   7.140  0.9521  0.1267 -0.7719
  164MOL0     C22042   6.673   8.337   7.123 -0.2953 -0.5006  0.6810
  164MOL0     C22043   6.748   8.476   7.126 -0.0723  0.0732  0.4564
  164MOL0     C22044   6.837   8.494   7.001 -0.0142  0.0971 -0.7272
  164MOL0     C22045   6.855   8.648   6.958 -0.5263 -0.0490 -0.6002
  164MOL0     C22046   6.884   8.741   7.079 -0.5923 -0.1219 -0.5536
  164MOL0     C22047   6.895   8.882   7.032  0.0715 -0.4912  0.2022
  164MOL0     C22048   6.851   8.978   7.140  1.5692 -0.2184 -0.9593
  164MOL0     C22049   6.841   9.132   7.088  0.3954  0.6022 -0.2847
  164MOL0    Cl22050   7.001   9.218   7.102  0.4897 -0.4100 -0.0335
  164MOL0     C22051   6.884   8.130   7.332 -0.7515  0.5260  0.0459
  164MOL0     C22052   6.875   8.078   7.456 -0.0059  0.8884 -0.8152
  164MOL0     O22053   6.815   7.755   7.543 -0.0713  0.4838  0.2474
  164MOL0     C22054   6.698   7.790   7.870  0.0910  0.6052  0.1894
  164MOL0     C22055   6.705   7.718   7.993  1.2014  0.0268  0.2657
  164MOL0     N22056   6.895   7.766   8.746 -0.4301  0.0377 -0.0229
  164MOL0     N22057   6.911   7.839   8.845  0.7070 -0.0690 -0.0205
  164MOL0     C22058   7.936   8.106   9.067 -0.0670 -0.0793  0.7232
  164MOL0     C22059   8.000   7.983   9.051 -0.3480 -0.4078 -0.3039
  164MOL0     C22060   8.168   7.606   9.180  0.3071  0.0916 -0.0524
  164MOL0     C22061   8.229   7.546   9.293  0.2951 -0.9266 -0.4670
  164MOL0     C22062   8.315   7.434   9.281 -0.0869 -0.1955  0.4790
  164MOL0     C22063   8.335   7.382   9.153  0.4706  0.3230 -0.4057
  164MOL0     O22064   8.414   7.267   9.133 -0.4965  0.2865 -1.0184
  164MOL0     C22065   8.488   7.221   9.250 -0.3570  0.2736 -0.1106
  164MOL0     C22066   8.595   7.119   9.202 -0.2492  1.3189  0.0847
  164MOL0     C22067   8.532   6.980   9.160 -0.1532  0.6307 -0.1132
  164MOL0     C22068   8.635   6.871   9.124 -0.0651  0.1473 -0.7675
  164MOL0     C22069   8.596   6.786   9.015  0.9974  0.2471 -0.4323
  164MOL0     C22070   8.563   6.700   8.930 -0.5269 -0.3323 -0.0773
  164MOL0     C22071   8.281   7.437   9.042 -0.5547 -0.2785 -0.6207
  164MOL0     C22072   8.190   7.542   9.049 -0.1152  0.4141 -0.5402
  164MOL0     H22073   7.756   7.797   9.207 -2.7526  1.2979 -0.3029
  164MOL0     H22074   7.642   7.995   9.197  0.7207 -3.0573  1.4880
  164MOL0     H22075   7.687   8.199   9.336 -0.1000 -0.8644 -0.6641
  164MOL0     H22076   7.670   8.362   9.275  0.0376  0.6072 -2.3810
  164MOL0     H22077   7.487   8.146   9.172  4.0794 -1.1129 -0.2119
  164MOL0     H22078   7.456   8.270   9.309 -1.9393  6.5618 -3.1925
  164MOL0     H22079   7.509   8.456   9.155 -1.0793  0.4777 -1.3576
  164MOL0     H22080   7.519   8.342   9.015 -0.9761  1.1969 -0.7130
  164MOL0     H22081   7.274   8.352   9.193  2.9436 -1.3967  1.5460
  164MOL0     H22082   7.302   8.465   9.059  0.6728 -0.3438 -0.5162
  164MOL0     H22083   7.272   8.331   8.903  0.6734  1.0190  1.5512
  164MOL0     H22084   7.339   8.185   8.990 -0.1328 -0.6556 -0.6267
  164MOL0     H22085   7.094   8.190   9.109 -0.8967  2.5140  0.9308
  164MOL0     H22086   7.066   8.326   9.024 -1.8365 -1.2573  1.3328
  164MOL0     H22087   6.943   8.172   8.914 -0.1521 -2.7778 -0.7833
  164MOL0     H22088   7.062   8.185   8.796 -3.6189 -1.5259 -2.4132
  164MOL0     H22089   7.044   7.970   9.012  0.1170 -3.3852 -0.1422
  164MOL0     H22090   7.190   8.001   8.911 -0.3258 -0.0408  0.8223
  164MOL0     H22091   7.146   7.949   8.639 -0.1932 -1.2238 -1.8449
  164MOL0     H22092   7.131   7.717   8.488 -0.0229  0.8906 -1.9636
  164MOL0     H22093   6.979   7.624   8.497  0.1505  0.9429 -5.8143
  164MOL0     H22094   7.024   7.894   8.389  0.0117  0.5948 -0.8332
  164MOL0     H22095   6.861   7.832   8.435 -0.7445 -1.7888 -2.5763
  164MOL0     H22096   7.047   7.656   8.266 -1.3552 -1.8308  0.2031
  164MOL0     H22097   6.949   7.783   8.195 -0.8021 -1.5489 -1.2712
  164MOL0     H22098   6.733   7.705   8.263 -0.3190  1.2816 -2.7713
  164MOL0     H22099   6.806   7.556   8.340 -1.9559  4.1700  4.2258
  164MOL0     H22100   6.995   7.557   7.961 -0.2390  0.7753 -0.6928
  164MOL0     H22101   7.103   7.635   7.773  0.1060  1.4562 -0.0480
  164MOL0     H22102   6.985   7.589   7.641  2.4780  0.2856 -1.3755
  164MOL0     H22103   7.038   7.755   7.654  3.4098 -0.7440 -2.0140
  164MOL0     H22104   6.539   8.035   7.480  0.1359 -0.8264 -0.4433
  164MOL0     H22105   6.556   8.154   7.263 -2.8016 -3.2770  2.3785
  164MOL0     H22106   6.623   8.304   7.032 -0.5755  1.1748  0.1807
  164MOL0     H22107   6.594   8.334   7.199 -1.6536  0.5950 -0.6175
  164MOL0     H22108   6.676   8.558   7.132 -2.4624 -1.9037  0.6950
  164MOL0     H22109   6.812   8.481   7.215  1.4930 -0.3467 -0.5925
  164MOL0     H22110   6.788   8.435   6.923 -2.6095  1.1300 -0.0115
  164MOL0     H22111   6.930   8.441   7.022  0.4059  1.4707  1.2307
  164MOL0     H22112   6.945   8.659   6.896 -0.2253  1.5347  0.0518
  164MOL0     H22113   6.768   8.695   6.912 -0.7953 -0.2944 -0.3438
  164MOL0     H22114   6.982   8.724   7.124 -1.0906  1.0985  1.0763
  164MOL0     H22115   6.810   8.722   7.158  2.8236  1.1090  3.3029
  164MOL0     H22116   7.000   8.896   7.007  0.8712 -0.1477  3.3265
  164MOL0     H22117   6.840   8.908   6.942 -4.3916 -0.8691  2.5343
  164MOL0     H22118   6.910   8.958   7.230 -0.2921  0.6945  0.5260
  164MOL0     H22119   6.752   8.936   7.163  0.6443  2.0134 -0.6343
  164MOL0     H22120   6.758   9.187   7.134 -0.3499 -0.6859 -0.0302
  164MOL0     H22121   6.817   9.122   6.981  1.5857  1.3203 -0.6414
  164MOL0     H22122   6.984   8.158   7.298 -0.6973 -1.4239 -1.6136
  164MOL0     H22123   6.960   8.042   7.512 -1.9667 -0.8683  1.1800
  164MOL0     H22124   6.620   7.863   7.849  0.6167  1.2069  0.2781
  164MOL0     H22125   6.621   7.725   8.062 -0.4795  0.6232 -1.7270
  164MOL0     H22126   7.999   8.190   9.042  2.2373 -1.6350  1.0318
  164MOL0     H22127   8.098   7.982   9.005  1.8647 -1.6794  3.8870
  164MOL0     H22128   8.214   7.585   9.393  0.0593 -0.4437 -0.6890
  164MOL0     H22129   8.346   7.376   9.368  1.8039 -2.0991 -1.3555
  164MOL0     H22130   8.528   7.310   9.300 -0.7523  0.3444  0.0861
  164MOL0     H22131   8.418   7.172   9.318 -1.2162 -0.2061 -1.3088
  164MOL0     H22132   8.658   7.101   9.290 -0.2363 -1.0635 -0.3542
  164MOL0     H22133   8.655   7.165   9.124  2.7574 -0.8215  0.9633
  164MOL0     H22134   8.451   6.987   9.088  0.3625  0.7861 -0.6826
  164MOL0     H22135   8.486   6.930   9.246  1.0183 -1.5996 -0.7334
  164MOL0     H22136   8.653   6.810   9.213 -2.3050 -0.1363 -0.4518
  164MOL0     H22137   8.728   6.919   9.093  0.6833 -0.8311 -0.0771
  164MOL0     H22138   8.512   6.641   8.857 -0.6095  0.4858 -0.7055
  164MOL0     H22139   8.316   7.383   8.955  2.5764 -0.9386  0.9165
  164MOL0     H22140   8.143   7.587   8.962 -0.1944  0.3828 -0.5133
  165MOL0     O22141   0.990   8.180   8.549  0.0267 -0.1787  0.2107
  165MOL0     C22142   0.904   8.091   8.569 -1.1372  0.8625 -0.3423
  165MOL0     O22143   0.783   8.098   8.618 -0.0365 -0.7776 -0.3000
  165MOL0     C22144   0.715   8.212   8.624 -0.3550 -0.5015 -0.6363
  165MOL0     C22145   0.637   8.250   8.736  0.4724  0.7726  0.2118
  165MOL0     C22146   0.551   8.360   8.731 -0.3294 -0.4607 -0.5743
  165MOL0     C22147   0.553   8.444   8.617 -0.3636  0.0598 -0.4322
  165MOL0     O22148   0.480   8.558   8.622  0.0286 -0.2732 -0.6194
  165MOL0     C22149   0.399   8.598   8.515 -0.4668 -0.1047  0.2663
  165MOL0     C22150   0.332   8.737   8.545  0.2849 -0.2023  0.3768
  165MOL0     C22151   0.435   8.850   8.537 -0.4840 -0.6204 -0.8292
  165MOL0     C22152   0.389   8.997   8.543 -0.3948  0.4003  0.0434
  165MOL0     C22153   0.502   9.100   8.531 -1.4822 -0.5867 -0.3598
  165MOL0     C22154   0.446   9.248   8.529 -0.0336 -0.0083 -0.1239
  165MOL0     C22155   0.366   9.297   8.411 -0.3276  0.4214  0.3592
  165MOL0     C22156   0.431   9.262   8.275  0.9860  0.4321 -0.2603
  165MOL0     N22157   0.337   9.180   8.184 -0.0864  0.2301 -0.2389
  165MOL0     C22158   0.249   9.236   8.086 -0.3775  1.3074  0.2884
  165MOL0     C22159   0.198   9.128   8.009  0.3414  0.0515  0.3429
  165MOL0     C22160   0.087   9.138   7.910  0.1215 -0.4695  0.4829
  165MOL0     C22161  -0.009   9.020   7.933  0.1051  0.0511 -0.1720
  165MOL0     C22162  -0.077   9.028   8.075  0.5982  0.9773 -0.0110
  165MOL0     C22163  -0.212   8.952   8.076  0.1179 -1.0958 -0.5398
  165MOL0     O22164  -0.307   9.009   7.977  0.0516 -0.2042  0.0488
  165MOL0     C22165  -0.433   8.953   7.955 -0.4108 -0.1210  0.0910
  165MOL0     C22166  -0.499   9.009   7.846 -0.0374  0.6626 -0.6409
  165MOL0     C22167  -0.607   8.951   7.787 -0.6091 -0.6683  0.3591
  165MOL0     C22168  -0.672   9.013   7.667  0.1191 -0.4603  0.6513
  165MOL0     C22169  -0.652   8.830   7.838  0.0081 -0.1966 -0.2807
  165MOL0     C22170  -0.771   8.751   7.776 -0.1342  0.0144  0.5872
  165MOL0     O22171  -0.860   8.711   7.869  0.8709  0.5595  0.7332
  165MOL0     C22172  -0.981   8.653   7.826  0.6393 -0.5278 -1.1977
  165MOL0     C22173  -1.053   8.725   7.729 -0.0372  0.4997 -0.1476
  165MOL0     C22174  -1.170   8.661   7.683  0.1964 -0.0040  1.1402
  165MOL0     C22175  -1.213   8.535   7.723  0.3945 -0.3818  0.0560
  165MOL0     O22176  -1.321   8.479   7.663 -0.2679  0.6634 -0.9713
  165MOL0     C22177  -1.388   8.365   7.717  0.4016  0.1244 -0.1200
  165MOL0     C22178  -1.528   8.350   7.645  0.8925 -0.2523  0.2374
  165MOL0     C22179  -1.568   8.201   7.610  0.4639 -1.5000  0.2749
  165MOL0     C22180  -1.556   8.095   7.724  0.9672 -0.5285  0.3072
  165MOL0     C22181  -1.651   7.968   7.711 -0.1999  0.1347 -0.2606
  165MOL0     C22182  -1.619   7.868   7.822  0.6542  0.6654  0.1754
  165MOL0     C22183  -1.473   7.816   7.817  0.0210  0.4492 -0.7598
  165MOL0     C22184  -1.450   7.672   7.860  1.0756 -0.0264  0.5827
  165MOL0    Cl22185  -1.481   7.648   8.033 -0.0145 -0.1510  0.1148
  165MOL0     C22186  -1.141   8.470   7.825  0.0003  0.0410  0.0100
  165MOL0     C22187  -1.026   8.530   7.877 -0.2240 -0.0682 -1.0489
  165MOL0     O22188  -0.774   8.728   7.654  0.1200 -0.2050  0.4679
  165MOL0     C22189  -0.599   8.782   7.959  0.0805  0.2021 -0.3790
  165MOL0     C22190  -0.485   8.842   8.018 -0.0078  0.4401  0.3806
  165MOL0     N22191   0.251   9.007   8.069 -0.2787  0.8209  1.2868
  165MOL0     N22192   0.332   9.044   8.165  0.5899 -0.0056 -0.5933
  165MOL0     C22193   0.625   8.408   8.507 -0.4772  0.1619  0.5296
  165MOL0     C22194   0.709   8.297   8.508 -1.0344  0.7589 -0.7668
  165MOL0     C22195   0.956   7.957   8.519  0.0314  0.8137 -0.4900
  165MOL0     C22196   0.889   7.837   8.553  0.5561  0.5901  0.4115
  165MOL0     C22197   0.936   7.712   8.502 -0.1082  0.9783 -0.4324
  165MOL0     C22198   1.045   7.701   8.414  0.1837 -0.4155 -0.8503
  165MOL0     O22199   1.081   7.575   8.378  0.4301  0.7570 -0.2483
  165MOL0     C22200   1.216   7.543   8.335 -0.4292  0.4539 -0.5743
  165MOL0     C22201   1.321   7.549   8.451 -0.4612 -0.0972  0.1463
  165MOL0     C22202   1.300   7.460   8.572  0.0412 -0.3082 -0.7181
  165MOL0     C22203   1.387   7.492   8.695  0.2781 -0.2488 -0.1378
  165MOL0     C22204   1.381   7.393   8.810 -0.9838 -0.0288 -0.7495
  165MOL0     C22205   1.350   7.333   8.914 -0.8194 -0.5835 -0.4799
  165MOL0     C22206   1.122   7.822   8.398 -0.2927  0.2660  0.6527
  165MOL0     C22207   1.074   7.940   8.437  1.3220 -0.3072 -0.2684
  165MOL0     H22208   0.634   8.180   8.819 -4.2098  1.0573  0.5747
  165MOL0     H22209   0.499   8.382   8.823 -0.1680  0.6864 -0.7416
  165MOL0     H22210   0.453   8.603   8.420 -0.0377 -3.2730  0.2487
  165MOL0     H22211   0.328   8.517   8.495  1.2605 -1.7481  0.5629
  165MOL0     H22212   0.265   8.746   8.459  0.4886  0.1540  0.2564
  165MOL0     H22213   0.277   8.745   8.640  0.5863  2.8124  0.3698
  165MOL0     H22214   0.506   8.822   8.616 -1.7260 -3.3602 -0.5615
  165MOL0     H22215   0.482   8.847   8.438  1.5694  2.2039 -0.0766
  165MOL0     H22216   0.310   9.028   8.474  1.2320  4.5246 -0.2544
  165MOL0     H22217   0.342   9.002   8.642 -1.7174  2.0899 -0.6143
  165MOL0     H22218   0.567   9.090   8.618  1.4261  1.5522 -2.1298
  165MOL0     H22219   0.569   9.077   8.448 -0.6058 -0.2983  0.2511
  165MOL0     H22220   0.401   9.279   8.624 -0.7950 -2.1377  0.2572
  165MOL0     H22221   0.536   9.308   8.511 -0.0420 -0.2222 -0.9148
  165MOL0     H22222   0.261   9.271   8.427 -0.4421  1.3787  1.2714
  165MOL0     H22223   0.376   9.406   8.420  2.2645  0.3613 -0.7691
  165MOL0     H22224   0.526   9.210   8.290  0.3999  0.3027  4.8363
  165MOL0     H22225   0.453   9.346   8.208 -1.2154 -0.5301 -2.3209
  165MOL0     H22226   0.228   9.340   8.066  0.1529  1.1361 -1.2540
  165MOL0     H22227   0.040   9.236   7.926 -3.3785 -1.8145 -0.6555
  165MOL0     H22228   0.115   9.142   7.805 -3.3605 -2.0987 -0.6620
  165MOL0     H22229   0.036   8.922   7.920  3.1174  1.5037 -1.7384
  165MOL0     H22230  -0.091   9.015   7.862 -1.1407 -1.8084  1.2942
  165MOL0     H22231  -0.097   9.131   8.107 -0.1416  0.4450  1.3280
  165MOL0     H22232  -0.011   8.979   8.148 -1.2335  0.8918  1.6884
  165MOL0     H22233  -0.257   8.962   8.176 -1.9406 -0.6635 -1.4625
  165MOL0     H22234  -0.189   8.847   8.055  1.0537 -0.7343 -1.4226
  165MOL0     H22235  -0.446   9.092   7.800  1.8003 -1.4310 -2.5586
  165MOL0     H22236  -0.596   9.049   7.597  0.1780  0.4834  1.1806
  165MOL0     H22237  -0.759   8.956   7.632 -0.3799 -0.1713  1.3860
  165MOL0     H22238  -0.733   9.097   7.702 -1.8201 -2.3080  2.0197
  165MOL0     H22239  -1.027   8.826   7.698 -1.6477  1.0799  0.2817
  165MOL0     H22240  -1.223   8.710   7.602  1.9473  0.0486 -0.0274
  165MOL0     H22241  -1.323   8.281   7.687 -3.2205 -2.6770 -0.8764
  165MOL0     H22242  -1.420   8.371   7.821 -0.6925  2.9493 -0.5452
  165MOL0     H22243  -1.604   8.372   7.721  1.1539  0.8427  0.1996
  165MOL0     H22244  -1.537   8.411   7.554 -1.5721 -0.3929  0.3010
  165MOL0     H22245  -1.507   8.185   7.520  0.2767  2.3590 -0.7369
  165MOL0     H22246  -1.667   8.224   7.570  1.9894  1.4247 -2.2699
  165MOL0     H22247  -1.448   8.082   7.723  0.7890 -2.3029  0.3648
  165MOL0     H22248  -1.578   8.151   7.816 -1.4367  2.2312 -1.7653
  165MOL0     H22249  -1.641   7.929   7.609  4.2195  0.7950 -0.2780
  165MOL0     H22250  -1.754   8.006   7.716  0.2600  1.6320 -1.2700
  165MOL0     H22251  -1.654   7.896   7.921  1.2651  2.2459 -0.0328
  165MOL0     H22252  -1.675   7.777   7.798  1.5357 -0.0803  0.8978
  165MOL0     H22253  -1.418   7.871   7.895 -0.5849 -2.1390  1.6808
  165MOL0     H22254  -1.428   7.808   7.718  0.5351 -0.3791 -0.4715
  165MOL0     H22255  -1.354   7.635   7.825 -0.4447 -3.8479  0.0027
  165MOL0     H22256  -1.526   7.614   7.807  1.0138  0.4155  0.1744
  165MOL0     H22257  -1.152   8.370   7.864  3.3848 -1.8328 -3.1972
  165MOL0     H22258  -0.969   8.476   7.952  1.4192  1.0706 -1.4079
  165MOL0     H22259  -0.626   8.680   7.983  2.2801 -0.5956 -1.0407
  165MOL0     H22260  -0.450   8.803   8.113  1.4107  0.9770  0.1020
  165MOL0     H22261   0.637   8.470   8.418 -0.4636 -0.0426  0.3904
  165MOL0     H22262   0.761   8.281   8.414  0.7625  3.9812 -0.4829
  165MOL0     H22263   0.796   7.835   8.609  1.3545  0.2028  1.7500
  165MOL0     H22264   0.886   7.617   8.520  1.8035  0.2823  1.5745
  165MOL0     H22265   1.219   7.444   8.289  4.2238  0.1684 -0.1116
  165MOL0     H22266   1.253   7.614   8.261  4.1307 -0.5759  0.4409
  165MOL0     H22267   1.344   7.651   8.485  2.0040 -0.1338 -1.1617
  165MOL0     H22268   1.409   7.509   8.400 -1.5755 -1.7906 -0.5279
  165MOL0     H22269   1.313   7.357   8.539 -1.2232 -0.6415 -0.2306
  165MOL0     H22270   1.197   7.468   8.608  1.0358  0.9286  2.1548
  165MOL0     H22271   1.354   7.583   8.745 -2.8362 -1.7596  0.8305
  165MOL0     H22272   1.492   7.508   8.673  0.2964  0.4448  0.4136
  165MOL0     H22273   1.323   7.292   9.009 -3.1818  0.3633 -0.6737
  165MOL0     H22274   1.213   7.810   8.342 -2.5548 -2.3676 -2.8719
  165MOL0     H22275   1.127   8.030   8.406  0.8418  0.1513  0.2123
  166MOL0     O22276   3.187   3.679   6.129 -0.4296 -0.2775  0.4864
  166MOL0     C22277   3.291   3.738   6.150  0.4654  0.3635  0.1231
  166MOL0     O22278   3.316   3.798   6.270  0.0761  0.2130 -0.5352
  166MOL0     C22279   3.224   3.785   6.371 -0.2899  1.1160 -0.2833
  166MOL0     C22280   3.253   3.689   6.470 -0.5516  0.4023  0.4855
  166MOL0     C22281   3.166   3.677   6.579 -0.6017 -0.0151  1.2370
  166MOL0     C22282   3.042   3.739   6.582 -0.7717 -0.2660 -0.6605
  166MOL0     O22283   2.965   3.709   6.694  0.2717 -0.6844 -0.2439
  166MOL0     C22284   2.857   3.791   6.733 -0.6305  0.8387  0.4451
  166MOL0     C22285   2.907   3.913   6.801 -0.9026 -0.2672 -1.0130
  166MOL0     C22286   2.798   4.009   6.840 -0.3016  0.0926 -0.3721
  166MOL0     C22287   2.698   3.937   6.942  0.6079 -0.4262  0.0218
  166MOL0     C22288   2.606   4.037   7.015 -0.4043 -0.2218  0.0153
  166MOL0     C22289   2.519   4.119   6.924  0.8280  0.2477 -0.1941
  166MOL0     C22290   2.385   4.177   6.987  0.1380  0.1010  1.3634
  166MOL0     C22291   2.410   4.283   7.099 -0.2302  0.3617  0.8047
  166MOL0     N22292   2.502   4.399   7.069 -0.4964 -0.7912  0.4288
  166MOL0     C22293   2.622   4.430   7.130 -0.4686  0.2444  0.0128
  166MOL0     C22294   2.654   4.551   7.074 -0.4333  0.2435  0.0161
  166MOL0     C22295   2.783   4.623   7.100 -0.0144 -1.1063  0.7592
  166MOL0     C22296   2.884   4.581   6.994  0.8225  0.5245 -0.5681
  166MOL0     C22297   2.951   4.709   6.953  0.0829 -0.1248  0.3278
  166MOL0     C22298   3.073   4.692   6.854  0.3777 -0.4121  0.1340
  166MOL0     O22299   3.179   4.622   6.910 -0.3161  0.2569 -0.2699
  166MOL0     C22300   3.287   4.583   6.840 -0.6208 -0.2034  0.8506
  166MOL0     C22301   3.324   4.644   6.719  0.6842  0.4638  0.0517
  166MOL0     C22302   3.438   4.601   6.648  0.0933 -0.1490 -0.3518
  166MOL0     C22303   3.460   4.667   6.510 -0.0172 -0.1372  0.9535
  166MOL0     C22304   3.525   4.492   6.696 -0.1906 -0.7916 -1.1502
  166MOL0     C22305   3.645   4.438   6.629  0.3509 -0.2766 -0.0091
  166MOL0     O22306   3.738   4.376   6.705  0.4488 -0.4687  0.3863
  166MOL0     C22307   3.864   4.345   6.653  1.1737  0.0696  0.2447
  166MOL0     C22308   3.929   4.228   6.696  0.2814  0.4567  0.1638
  166MOL0     C22309   4.049   4.191   6.650  0.2656 -0.4467 -0.4674
  166MOL0     C22310   4.124   4.269   6.562 -0.6011  0.9961 -0.4708
  166MOL0     O22311   4.233   4.220   6.502 -0.4538 -0.4797 -0.8102
  166MOL0     C22312   4.324   4.142   6.583  0.0956 -0.0932 -0.2938
  166MOL0     C22313   4.433   4.073   6.493 -0.2139 -0.8323 -0.3673
  166MOL0     C22314   4.578   4.073   6.562 -1.3492 -1.0003  0.0121
  166MOL0     C22315   4.674   3.980   6.491  0.2615 -0.2798 -0.3319
  166MOL0     C22316   4.821   4.004   6.527 -0.4585  0.1901  0.5004
  166MOL0     C22317   4.878   4.130   6.457  0.7276 -0.0842 -0.0522
  166MOL0     C22318   5.018   4.157   6.507  0.1743  0.9487 -0.3981
  166MOL0     C22319   5.062   4.295   6.462 -0.5809  0.5175  0.0533
  166MOL0    Cl22320   5.221   4.317   6.549 -0.2086  0.4157 -0.5602
  166MOL0     C22321   4.065   4.381   6.504 -0.1581  0.0146  0.4178
  166MOL0     C22322   3.935   4.417   6.550 -0.1459  0.1081  0.2252
  166MOL0     O22323   3.652   4.454   6.504 -0.6563  0.3991 -0.4234
  166MOL0     C22324   3.488   4.441   6.818 -0.3429 -0.3547 -0.0008
  166MOL0     C22325   3.377   4.484   6.890 -0.2130 -0.2308  0.5954
  166MOL0     N22326   2.548   4.591   6.990  0.4002  0.1161  0.4124
  166MOL0     N22327   2.464   4.492   6.983  0.5008 -0.4719  0.0892
  166MOL0     C22328   3.020   3.836   6.484 -0.0016 -0.7574  0.1449
  166MOL0     C22329   3.113   3.856   6.379 -0.0460  0.2112  0.6138
  166MOL0     C22330   3.391   3.757   6.046  0.3443  0.4249  0.1419
  166MOL0     C22331   3.395   3.652   5.942  0.8968 -0.9992  0.2249
  166MOL0     C22332   3.500   3.660   5.858 -0.3723  0.0559 -0.1668
  166MOL0     C22333   3.601   3.746   5.866  0.0192  0.0414 -0.8772
  166MOL0     O22334   3.687   3.738   5.761  0.3820 -0.1433 -0.3582
  166MOL0     C22335   3.718   3.860   5.692  0.3011 -0.2948  0.3913
  166MOL0     C22336   3.869   3.885   5.683 -0.9975  0.3614  0.1906
  166MOL0     C22337   3.896   4.004   5.585 -0.4639 -0.8468 -0.1635
  166MOL0     C22338   4.037   4.065   5.613 -0.4016  0.0156  0.3946
  166MOL0     C22339   4.072   4.174   5.515  0.2571  0.3061 -1.0508
  166MOL0     C22340   4.104   4.260   5.441 -0.6678 -1.2475  0.5408
  166MOL0     C22341   3.588   3.849   5.957  0.2069  0.6921  0.9914
  166MOL0     C22342   3.490   3.855   6.058  0.3540  0.1698  0.1655
  166MOL0     H22343   3.340   3.625   6.475 -0.1318  0.9948  0.9423
  166MOL0     H22344   3.204   3.623   6.665  4.0346 -0.4072 -0.7573
  166MOL0     H22345   2.793   3.821   6.649 -0.3224  0.4018  0.0530
  166MOL0     H22346   2.806   3.730   6.808  1.9165  0.8236  2.2663
  166MOL0     H22347   2.969   3.884   6.887 -1.3686 -2.5794 -1.3804
  166MOL0     H22348   2.972   3.968   6.733 -1.5710  0.6772 -0.9025
  166MOL0     H22349   2.840   4.091   6.899 -0.3493 -1.4739  2.0137
  166MOL0     H22350   2.742   4.043   6.753  0.7162 -0.6746 -1.3543
  166MOL0     H22351   2.635   3.868   6.884 -0.7230 -0.9656  2.0162
  166MOL0     H22352   2.751   3.890   7.025 -0.4088  1.5461  1.8745
  166MOL0     H22353   2.556   3.980   7.094  1.5721 -0.1307  1.3915
  166MOL0     H22354   2.662   4.110   7.073 -1.1146 -0.9790  1.7413
  166MOL0     H22355   2.570   4.203   6.875 -2.3401  1.5747 -1.5146
  166MOL0     H22356   2.482   4.052   6.847 -1.9227 -1.4240  2.3732
  166MOL0     H22357   2.330   4.218   6.902  3.7604 -1.1682 -1.8542
  166MOL0     H22358   2.333   4.087   7.023 -1.1078  0.2992  0.1384
  166MOL0     H22359   2.450   4.223   7.181  2.4845 -0.6115 -1.0648
  166MOL0     H22360   2.312   4.324   7.122  0.0373  1.7749 -0.4543
  166MOL0     H22361   2.688   4.384   7.202 -1.3606  2.1211  2.1687
  166MOL0     H22362   2.765   4.731   7.102  0.4932 -0.9600 -0.9693
  166MOL0     H22363   2.811   4.602   7.203 -1.8923 -0.3120  1.4735
  166MOL0     H22364   2.828   4.533   6.913  1.3774  0.9217 -1.2119
  166MOL0     H22365   2.948   4.501   7.032 -0.8903 -0.5271  0.1700
  166MOL0     H22366   2.975   4.766   7.043 -1.1669  1.1350 -0.0926
  166MOL0     H22367   2.880   4.767   6.893  1.2009  0.9676  0.0348
  166MOL0     H22368   3.102   4.797   6.842  1.6028 -0.9871 -2.5284
  166MOL0     H22369   3.038   4.649   6.760 -1.2651  0.3239  0.3647
  166MOL0     H22370   3.259   4.724   6.684  1.1386  1.1211  0.6843
  166MOL0     H22371   3.375   4.726   6.473  0.6086 -1.0482 -2.3256
  166MOL0     H22372   3.558   4.713   6.494  0.1800 -1.3928 -2.3981
  166MOL0     H22373   3.458   4.579   6.445 -1.9388  0.3278  0.3295
  166MOL0     H22374   3.888   4.165   6.774  3.0642 -1.0997  0.4663
  166MOL0     H22375   4.095   4.104   6.696  0.4007 -1.1399 -1.8363
  166MOL0     H22376   4.361   4.200   6.669 -2.5497  2.2988 -0.6376
  166MOL0     H22377   4.281   4.050   6.624  0.5195  0.7374  2.1935
  166MOL0     H22378   4.399   3.970   6.477 -0.5388 -0.7276 -0.3750
  166MOL0     H22379   4.432   4.122   6.395 -1.2023  2.4192  1.1492
  166MOL0     H22380   4.570   4.054   6.669  0.8955 -1.0055  0.2224
  166MOL0     H22381   4.624   4.172   6.561 -1.3115 -1.0033  0.9831
  166MOL0     H22382   4.644   3.877   6.509 -0.9266 -0.2755 -2.0341
  166MOL0     H22383   4.653   3.995   6.385 -1.2393  2.6826  0.2831
  166MOL0     H22384   4.873   3.910   6.506  0.4062 -0.0087  3.2178
  166MOL0     H22385   4.829   4.001   6.636  0.7160  0.0714  0.4226
  166MOL0     H22386   4.872   4.125   6.348 -0.4782 -1.6709  0.0459
  166MOL0     H22387   4.817   4.219   6.479 -1.1391 -0.6092 -2.7038
  166MOL0     H22388   5.084   4.078   6.471 -1.9073 -0.3323 -1.5914
  166MOL0     H22389   5.010   4.140   6.615  0.9720 -0.6694 -0.5696
  166MOL0     H22390   4.993   4.373   6.494 -2.3248 -0.6821 -0.6011
  166MOL0     H22391   5.079   4.305   6.354  0.3395  2.0025  0.3156
  166MOL0     H22392   4.125   4.431   6.428 -0.4089 -0.2170  0.0647
  166MOL0     H22393   3.887   4.507   6.513  0.5335 -0.5661 -2.4691
  166MOL0     H22394   3.541   4.355   6.859 -1.4499 -0.1716  1.9245
  166MOL0     H22395   3.364   4.430   6.983  1.4991 -2.1756 -0.2189
  166MOL0     H22396   2.932   3.896   6.502  1.1778  0.1333  4.0801
  166MOL0     H22397   3.090   3.925   6.298 -2.4084 -0.4512  0.6311
  166MOL0     H22398   3.316   3.576   5.944 -2.3088  2.0489 -0.5309
  166MOL0     H22399   3.493   3.589   5.777 -0.7622 -0.3400  0.2102
  166MOL0     H22400   3.679   3.858   5.589  0.9035  0.1214  0.1469
  166MOL0     H22401   3.678   3.947   5.744 -1.5759  0.3330 -1.9519
  166MOL0     H22402   3.914   3.788   5.658  0.5825  0.7932  1.1883
  166MOL0     H22403   3.910   3.914   5.780  0.2346 -0.6030 -0.0165
  166MOL0     H22404   3.833   4.090   5.610 -2.1280 -1.6444 -1.4630
  166MOL0     H22405   3.889   3.984   5.478  1.6542 -2.2566 -0.0997
  166MOL0     H22406   4.109   3.983   5.600 -3.3935 -2.5082 -1.4892
  166MOL0     H22407   4.042   4.107   5.714  1.3288  5.0400 -1.4661
  166MOL0     H22408   4.141   4.329   5.368  0.9047  1.5140  3.6529
  166MOL0     H22409   3.654   3.934   5.955  2.0370 -0.6763 -0.5796
  166MOL0     H22410   3.470   3.938   6.125 -0.8467 -2.2290  2.9761
  167MOL0     O22411   4.962  10.148   8.551 -0.0034  0.5701 -0.6813
  167MOL0     C22412   5.048  10.103   8.620 -0.3228  0.5723 -0.5670
  167MOL0     O22413   5.170  10.052   8.581 -0.4065  0.6174  0.3915
  167MOL0     C22414   5.219  10.072   8.454  0.1393  0.6044  0.0330
  167MOL0     C22415   5.345  10.128   8.452  1.4027 -0.1714 -0.1918
  167MOL0     C22416   5.410  10.136   8.329  0.7903  0.6604  0.7303
  167MOL0     C22417   5.346  10.105   8.211 -1.1497  0.6500  0.3340
  167MOL0     O22418   5.412  10.133   8.093  0.4480 -0.0762  0.7914
  167MOL0     C22419   5.404  10.052   7.980  0.7468  0.5232  0.8812
  167MOL0     C22420   5.539  10.053   7.896  0.8781  0.6619  0.0975
  167MOL0     C22421   5.654   9.986   7.973 -0.6102 -0.2231  0.4531
  167MOL0     C22422   5.721  10.069   8.082  1.1523  0.2470  0.7307
  167MOL0     C22423   5.838   9.997   8.138 -0.1309 -0.7016  0.1775
  167MOL0     C22424   5.884  10.077   8.264  0.1842  0.0760  0.3593
  167MOL0     C22425   6.011  10.017   8.329 -0.8552 -0.5830  0.0302
  167MOL0     C22426   6.063  10.125   8.430 -0.1932 -0.5838  0.6565
  167MOL0     N22427   5.969  10.142   8.542  0.3352 -0.6938  0.8266
  167MOL0     C22428   5.927  10.048   8.627 -0.1170  0.5085 -0.5950
  167MOL0     C22429   5.817  10.103   8.685 -0.1205  0.9434 -0.1748
  167MOL0     C22430   5.740  10.041   8.798  0.4315 -0.1172  0.1077
  167MOL0     C22431   5.743   9.884   8.814 -0.4880 -0.2157 -0.2592
  167MOL0     C22432   5.650   9.814   8.709  0.4555  0.8129 -0.3901
  167MOL0     C22433   5.508   9.876   8.694  0.1609 -0.1761 -0.5400
  167MOL0     O22434   5.444   9.905   8.825  0.2091  0.7013 -0.1477
  167MOL0     C22435   5.434   9.807   8.921  0.2109  0.3195 -0.1178
  167MOL0     C22436   5.428   9.669   8.896  0.4617 -0.0345  0.2865
  167MOL0     C22437   5.393   9.574   9.000 -0.3270 -0.2954 -0.1512
  167MOL0     C22438   5.396   9.427   8.951  0.2246  0.1378  0.4049
  167MOL0     C22439   5.369   9.622   9.137  0.7675  0.0292  0.1358
  167MOL0     C22440   5.328   9.538   9.252 -0.3147 -0.2771  0.1690
  167MOL0     O22441   5.276   9.615   9.358 -0.5454 -0.0386  0.0497
  167MOL0     C22442   5.230   9.559   9.478  0.1042 -0.5231 -0.4140
  167MOL0     C22443   5.197   9.421   9.504 -0.6329  0.0031 -0.5241
  167MOL0     C22444   5.166   9.389   9.635  0.1016  0.2158  0.1181
  167MOL0     C22445   5.141   9.490   9.731 -0.2833  0.0685 -0.1851
  167MOL0     O22446   5.094   9.471   9.861  0.2849 -0.1455  0.1472
  167MOL0     C22447   5.034   9.348   9.902 -0.5339  0.1172  0.3581
  167MOL0     C22448   5.025   9.355  10.058  0.2990  0.5571  0.1407
  167MOL0     C22449   4.904   9.272  10.100 -1.0452 -0.3626 -0.1338
  167MOL0     C22450   4.901   9.129  10.038  0.1509 -0.6420  0.8955
  167MOL0     C22451   4.842   9.025  10.124  0.7796  0.6837 -0.5827
  167MOL0     C22452   4.691   9.028  10.146 -0.2770  0.1489  0.5788
  167MOL0     C22453   4.646   8.921  10.245 -0.1866 -0.6278  0.0984
  167MOL0     C22454   4.493   8.900  10.254 -0.4728  0.0300  0.5601
  167MOL0    Cl22455   4.408   9.048  10.320 -0.0972  0.1579  0.3424
  167MOL0     C22456   5.161   9.626   9.698  0.1279 -1.0640  0.1764
  167MOL0     C22457   5.201   9.661   9.568  0.2200 -0.2603  1.0687
  167MOL0     O22458   5.340   9.416   9.244 -0.0897  0.1900  0.4217
  167MOL0     C22459   5.384   9.761   9.152 -0.6677 -0.4370  0.8195
  167MOL0     C22460   5.412   9.853   9.052 -0.3235  0.2564  0.2736
  167MOL0     N22461   5.791  10.225   8.627  0.1602  0.0962  0.1655
  167MOL0     N22462   5.881  10.244   8.540  0.6752 -0.6926 -0.1632
  167MOL0     C22463   5.218  10.053   8.210 -0.0875  0.7453 -0.8862
  167MOL0     C22464   5.151  10.043   8.332 -0.0495 -0.4543 -0.6727
  167MOL0     C22465   5.006  10.066   8.760 -0.0883 -0.3962  0.4862
  167MOL0     C22466   4.888  10.115   8.814 -0.1882  0.2185  0.2048
  167MOL0     C22467   4.846  10.092   8.945 -0.5148 -0.4118  0.0232
  167MOL0     C22468   4.928  10.016   9.033 -1.3877 -0.8309 -0.0517
  167MOL0     O22469   4.893   9.989   9.168  0.0684 -0.2183 -0.0555
  167MOL0     C22470   4.992   9.994   9.269  1.2695 -0.2928  0.5423
  167MOL0     C22471   5.028  10.132   9.295  0.7913 -0.5666 -0.3749
  167MOL0     C22472   5.113  10.144   9.419 -0.3328 -0.1978  0.7892
  167MOL0     C22473   5.170  10.287   9.449 -0.0801  0.3798  0.1814
  167MOL0     C22474   5.276  10.328   9.352  0.2736 -1.4512  1.0032
  167MOL0     C22475   5.330  10.373   9.254 -0.8147  0.5083 -0.3162
  167MOL0     C22476   5.055   9.966   8.978  1.0672 -0.5999  0.8379
  167MOL0     C22477   5.086   9.995   8.845  0.7463  0.4404  0.4699
  167MOL0     H22478   5.398  10.148   8.544  1.8283  0.9091 -0.6480
  167MOL0     H22479   5.511  10.175   8.320  2.2386 -2.1800  2.9341
  167MOL0     H22480   5.393   9.945   8.001  1.4276  0.2453 -0.1058
  167MOL0     H22481   5.328  10.091   7.912  2.9221 -1.0712 -2.8096
  167MOL0     H22482   5.520   9.997   7.804  2.7461 -2.6466  1.5526
  167MOL0     H22483   5.572  10.152   7.863  0.0961  0.6023 -0.8963
  167MOL0     H22484   5.633   9.886   8.011  1.3562  0.1395  2.7029
  167MOL0     H22485   5.731   9.983   7.895 -2.4330 -0.3376 -1.4424
  167MOL0     H22486   5.756  10.165   8.043  2.1627  0.6871  2.5586
  167MOL0     H22487   5.642  10.087   8.156  0.5995 -0.8891  0.4332
  167MOL0     H22488   5.827   9.891   8.162  2.6977 -0.1709  5.1251
  167MOL0     H22489   5.921   9.998   8.068 -0.9634  0.1778 -0.8323
  167MOL0     H22490   5.901  10.182   8.238  0.8472 -0.4349 -1.4380
  167MOL0     H22491   5.794  10.063   8.326 -1.0096 -0.6794 -1.4559
  167MOL0     H22492   5.993   9.918   8.372 -2.7885 -0.4567 -0.3640
  167MOL0     H22493   6.092  10.010   8.255  0.4286  0.6371  1.2594
  167MOL0     H22494   6.063  10.222   8.379  0.8913 -0.2010  1.3602
  167MOL0     H22495   6.164  10.109   8.468  0.1068 -0.9521 -0.2696
  167MOL0     H22496   5.972   9.952   8.651 -3.5362 -0.9687  0.5644
  167MOL0     H22497   5.769  10.087   8.893 -0.3729 -0.3043  0.4530
  167MOL0     H22498   5.638  10.078   8.795  0.7629  1.0808  1.8302
  167MOL0     H22499   5.711   9.852   8.913  2.5777 -2.0138  0.2635
  167MOL0     H22500   5.845   9.845   8.808 -1.2265 -2.0341 -2.3160
  167MOL0     H22501   5.636   9.710   8.739 -2.6989  1.9109  2.4957
  167MOL0     H22502   5.701   9.827   8.613 -0.5959 -0.8325 -1.2012
  167MOL0     H22503   5.445   9.804   8.641  0.5887 -1.1311  0.2110
  167MOL0     H22504   5.522   9.971   8.641 -1.7992 -0.3472 -1.4444
  167MOL0     H22505   5.430   9.634   8.793  0.8551  1.3858 -0.2132
  167MOL0     H22506   5.403   9.426   8.842  0.3614  0.7466  0.4039
  167MOL0     H22507   5.471   9.374   9.010  0.8458 -0.5470 -0.9751
  167MOL0     H22508   5.299   9.381   8.974 -0.5369  1.2071 -0.5432
  167MOL0     H22509   5.224   9.344   9.433 -1.0522 -0.6140 -0.0254
  167MOL0     H22510   5.146   9.288   9.670 -2.0636  1.1561  1.7885
  167MOL0     H22511   4.936   9.335   9.853  2.0184 -3.8771 -4.6607
  167MOL0     H22512   5.096   9.261   9.877  1.3911  0.7961  2.5300
  167MOL0     H22513   5.119   9.318  10.100  0.5162  2.2785  1.2744
  167MOL0     H22514   5.022   9.452  10.109  2.4581 -0.5348  2.5970
  167MOL0     H22515   4.806   9.310  10.070 -1.6433 -1.1252  0.8142
  167MOL0     H22516   4.907   9.262  10.209 -3.2264 -0.2085 -0.0108
  167MOL0     H22517   4.849   9.126   9.942 -0.3673  0.5550  1.1166
  167MOL0     H22518   5.005   9.108  10.013  0.4602  2.1019 -0.4615
  167MOL0     H22519   4.897   9.033  10.218 -0.6236  0.3540  0.3027
  167MOL0     H22520   4.873   8.931  10.076 -0.4857  0.3159 -0.7141
  167MOL0     H22521   4.664   9.127  10.185 -0.0874  0.2840  0.3728
  167MOL0     H22522   4.642   9.015  10.049  0.4843  1.0050  0.0607
  167MOL0     H22523   4.678   8.955  10.344  0.0585  1.1244 -0.5445
  167MOL0     H22524   4.694   8.827  10.216  1.0086 -0.0513  0.1857
  167MOL0     H22525   4.479   8.822  10.329 -1.2177 -0.4543 -0.0580
  167MOL0     H22526   4.440   8.877  10.160 -4.0652 -0.6799  2.5565
  167MOL0     H22527   5.131   9.701   9.771  0.1758  0.8885 -1.7208
  167MOL0     H22528   5.227   9.764   9.544  0.7437 -0.0953  2.2761
  167MOL0     H22529   5.376   9.810   9.248  2.6705  0.4786  0.7375
  167MOL0     H22530   5.439   9.955   9.075 -0.8336  0.6961 -0.9984
  167MOL0     H22531   5.156  10.057   8.121  0.6380  2.3546 -1.3581
  167MOL0     H22532   5.053   9.998   8.340 -0.8554  1.1081 -1.4480
  167MOL0     H22533   4.820  10.172   8.751 -1.0880 -3.8636 -3.0049
  167MOL0     H22534   4.752  10.126   8.988 -1.1128  0.5140 -1.8927
  167MOL0     H22535   4.954   9.961   9.366  0.7247  0.0954  0.4635
  167MOL0     H22536   5.080   9.934   9.243  0.8442 -0.6275 -0.1437
  167MOL0     H22537   4.943  10.192   9.327  1.0734  0.6868 -1.8776
  167MOL0     H22538   5.080  10.182   9.213  0.8867 -0.4076 -0.2173
  167MOL0     H22539   5.198  10.079   9.399 -0.3345 -0.1546  0.6418
  167MOL0     H22540   5.056  10.119   9.509 -0.1753 -1.6095  0.5105
  167MOL0     H22541   5.211  10.288   9.551 -2.7562  0.1286  1.3358
  167MOL0     H22542   5.081  10.350   9.451 -1.1210 -1.0232  2.6688
  167MOL0     H22543   5.400  10.409   9.181  0.0236  0.4620  0.4349
  167MOL0     H22544   5.125   9.902   9.031  2.1654 -0.4614 -0.4015
  167MOL0     H22545   5.183   9.962   8.809  1.4122  1.1130  1.5938
  168MOL0     O22546   5.043   2.834  10.894  0.3027  0.8009 -0.3011
  168MOL0     C22547   5.002   2.887  10.792  0.3740  0.1620 -0.5540
  168MOL0     O22548   5.074   2.906  10.678  0.1930  0.7676  0.3640
  168MOL0     C22549   5.212   2.927  10.684 -0.6913 -1.0625 -0.6924
  168MOL0     C22550   5.295   2.818  10.690 -1.1987  0.8857  0.1351
  168MOL0     C22551   5.435   2.843  10.715  1.7328 -0.0519 -0.1779
  168MOL0     C22552   5.490   2.971  10.708  0.6915 -0.1175  0.3055
  168MOL0     O22553   5.622   2.995  10.712  0.5350 -0.6491 -0.5029
  168MOL0     C22554   5.710   2.884  10.705 -0.1008 -0.1567 -0.5281
  168MOL0     C22555   5.853   2.951  10.715  0.9086  0.9774  0.5577
  168MOL0     C22556   5.968   2.845  10.706  1.0923  0.3408 -0.5265
  168MOL0     C22557   6.103   2.923  10.687 -0.5530 -0.5038  1.1550
  168MOL0     C22558   6.227   2.838  10.668  0.7774  0.0608 -0.5153
  168MOL0     C22559   6.349   2.922  10.647 -1.2263 -0.3622  0.6073
  168MOL0     C22560   6.492   2.892  10.711  0.1870  0.5575  0.5128
  168MOL0     C22561   6.542   2.748  10.663 -0.2125  0.0334 -0.9431
  168MOL0     N22562   6.493   2.653  10.760  0.2158  0.0369 -0.0536
  168MOL0     C22563   6.541   2.652  10.888  0.0128 -0.0732  0.7177
  168MOL0     C22564   6.475   2.551  10.939 -0.5646 -0.1730 -0.4179
  168MOL0     C22565   6.516   2.498  11.078  0.1859 -0.5772 -0.3120
  168MOL0     C22566   6.432   2.373  11.122  0.1694 -0.5906 -0.0556
  168MOL0     C22567   6.300   2.429  11.179 -0.6802 -0.6020 -0.7284
  168MOL0     C22568   6.196   2.339  11.251 -0.0423 -0.6365  0.1908
  168MOL0     O22569   6.200   2.221  11.172  0.6032  0.3904 -0.4298
  168MOL0     C22570   6.091   2.132  11.195  0.2087 -0.0918 -0.6031
  168MOL0     C22571   6.116   2.001  11.232  0.5815 -0.0291 -0.2844
  168MOL0     C22572   6.017   1.903  11.254  0.5047  0.5842 -0.8087
  168MOL0     C22573   6.052   1.760  11.288 -0.0802  0.8693 -0.5832
  168MOL0     C22574   5.883   1.949  11.253  0.1525  0.8763 -0.1668
  168MOL0     C22575   5.766   1.872  11.291  0.3207 -0.5361  0.5990
  168MOL0     O22576   5.640   1.935  11.294  0.1160  0.1582  0.7615
  168MOL0     C22577   5.523   1.867  11.310 -0.3252  0.1682  1.1002
  168MOL0     C22578   5.412   1.935  11.258 -0.2566  0.5905 -0.0947
  168MOL0     C22579   5.288   1.866  11.263  0.0262 -0.0142  0.0704
  168MOL0     C22580   5.274   1.739  11.325 -0.3359 -0.3593 -0.3273
  168MOL0     O22581   5.162   1.657  11.306 -0.1523 -0.3352  0.2294
  168MOL0     C22582   5.108   1.655  11.175 -0.0783 -0.0192 -0.1245
  168MOL0     C22583   4.971   1.582  11.172 -0.3263 -0.6752 -0.0825
  168MOL0     C22584   4.864   1.664  11.240  0.3633  0.3115 -0.9075
  168MOL0     C22585   4.778   1.746  11.157 -0.7032 -0.3798 -0.4420
  168MOL0     C22586   4.691   1.824  11.260  0.4717 -0.4878  0.1018
  168MOL0     C22587   4.583   1.895  11.176 -0.4415  0.4654 -0.2308
  168MOL0     C22588   4.495   1.987  11.273 -0.2442 -0.0821  0.7016
  168MOL0     C22589   4.356   2.032  11.227 -0.2774 -0.1787 -0.3225
  168MOL0    Cl22590   4.253   1.894  11.172 -0.1871 -0.2703 -0.1373
  168MOL0     C22591   5.378   1.678  11.394 -0.0380  0.1417  0.7864
  168MOL0     C22592   5.503   1.743  11.391  0.1657 -0.3124  0.1309
  168MOL0     O22593   5.780   1.754  11.307 -0.0132  0.1814  0.2694
  168MOL0     C22594   5.854   2.082  11.213  0.3102 -0.0034  0.5461
  168MOL0     C22595   5.959   2.171  11.185 -0.3357 -0.4769 -0.2733
  168MOL0     N22596   6.375   2.506  10.851  0.1587 -0.1706  0.0388
  168MOL0     N22597   6.389   2.570  10.745  0.3537  0.3821  0.5058
  168MOL0     C22598   5.400   3.079  10.693 -0.2489 -0.1891 -0.7380
  168MOL0     C22599   5.263   3.054  10.677 -0.1438  0.1942  0.3781
  168MOL0     C22600   4.856   2.921  10.796 -0.5459 -0.5114  0.2154
  168MOL0     C22601   4.775   2.925  10.677 -0.7894  0.9272 -0.4345
  168MOL0     C22602   4.635   2.953  10.678  0.0423  1.6923  0.0465
  168MOL0     C22603   4.570   2.955  10.804 -1.2849  0.0794 -0.6017
  168MOL0     O22604   4.433   2.959  10.810 -0.5819  0.0963  0.3331
  168MOL0     C22605   4.357   2.960  10.932 -0.1639 -0.6095  0.5836
  168MOL0     C22606   4.239   3.058  10.915  0.0741 -0.4390 -0.2719
  168MOL0     C22607   4.120   2.981  10.866 -0.0461  0.2757  0.6522
  168MOL0     C22608   3.995   3.079  10.844  0.4186 -0.5894 -0.2806
  168MOL0     C22609   3.884   3.006  10.769  0.1467  0.2387 -0.8346
  168MOL0     C22610   3.791   2.966  10.699  0.0885 -0.0242 -1.0948
  168MOL0     C22611   4.654   2.956  10.917 -0.3692  0.5800  0.0795
  168MOL0     C22612   4.788   2.935  10.920  0.2981 -0.1449  0.4138
  168MOL0     H22613   5.249   2.720  10.685  1.1413 -0.4359  2.1511
  168MOL0     H22614   5.500   2.756  10.711 -0.5008 -1.8007 -3.2888
  168MOL0     H22615   5.705   2.828  10.799  0.2835  0.7170  0.0287
  168MOL0     H22616   5.696   2.826  10.613  0.1718  2.0403 -2.0138
  168MOL0     H22617   5.870   3.021  10.634 -1.2735 -0.0314 -0.8813
  168MOL0     H22618   5.864   3.011  10.806 -0.4289 -0.7668  1.9567
  168MOL0     H22619   5.979   2.778  10.791  2.7863 -1.0314 -1.7506
  168MOL0     H22620   5.937   2.795  10.613  0.9237 -2.3390  0.8886
  168MOL0     H22621   6.082   2.982  10.597  2.3785  0.0800  0.7678
  168MOL0     H22622   6.113   2.998  10.765  0.2532  2.5951 -1.7005
  168MOL0     H22623   6.240   2.784  10.762 -1.2511  2.5536  1.3686
  168MOL0     H22624   6.216   2.764  10.589  2.0855 -0.7195  0.0027
  168MOL0     H22625   6.358   2.930  10.539  0.1864  3.8898  0.8486
  168MOL0     H22626   6.312   3.021  10.678  0.4844 -0.6530  4.1332
  168MOL0     H22627   6.554   2.974  10.674  0.0393  0.4110 -0.0620
  168MOL0     H22628   6.490   2.889  10.820 -0.1517 -0.2723  0.4931
  168MOL0     H22629   6.650   2.735  10.667 -0.5463 -3.4056  1.4697
  168MOL0     H22630   6.511   2.713  10.564 -1.5165 -1.5561 -0.0332
  168MOL0     H22631   6.630   2.685  10.940 -0.0673 -0.4114  1.0760
  168MOL0     H22632   6.622   2.479  11.059 -0.3942 -0.9251 -3.8885
  168MOL0     H22633   6.500   2.578  11.151 -3.1888 -0.1632 -1.3139
  168MOL0     H22634   6.477   2.310  11.199 -1.8097 -0.2212  1.4727
  168MOL0     H22635   6.415   2.300  11.042  1.2882  1.1106 -1.9689
  168MOL0     H22636   6.239   2.478  11.102 -1.5482 -0.7419 -0.1433
  168MOL0     H22637   6.327   2.501  11.258 -3.8752 -3.0241  2.9509
  168MOL0     H22638   6.097   2.384  11.246  0.7518  1.4731  1.7819
  168MOL0     H22639   6.227   2.325  11.355  0.9485 -1.4448 -0.1964
  168MOL0     H22640   6.222   1.982  11.244  0.5770  0.2943  0.2948
  168MOL0     H22641   6.054   1.755  11.397  0.7853  2.0181 -0.5300
  168MOL0     H22642   5.985   1.691  11.237  3.2808 -0.6126 -3.4476
  168MOL0     H22643   6.155   1.741  11.257  1.4927  2.5936  2.9758
  168MOL0     H22644   5.419   2.029  11.204  0.5887  0.3382 -0.4519
  168MOL0     H22645   5.203   1.908  11.209  0.2036  1.3026  0.7692
  168MOL0     H22646   5.087   1.752  11.127 -0.4300 -0.4261 -0.8121
  168MOL0     H22647   5.174   1.602  11.106 -1.0099 -0.9598 -0.3085
  168MOL0     H22648   4.949   1.568  11.066 -1.2808  1.6343 -0.2565
  168MOL0     H22649   4.983   1.480  11.209 -0.2046 -1.8016 -2.9792
  168MOL0     H22650   4.900   1.716  11.329 -1.7564 -3.0873  2.1831
  168MOL0     H22651   4.810   1.579  11.282 -1.1633  1.2313 -0.9313
  168MOL0     H22652   4.836   1.807  11.087 -0.8141  0.0456 -0.1670
  168MOL0     H22653   4.727   1.688  11.080  0.5616 -0.3262 -1.3571
  168MOL0     H22654   4.729   1.891  11.337 -1.5585 -0.5993  1.2714
  168MOL0     H22655   4.642   1.742  11.315  1.6134 -0.7248  0.7881
  168MOL0     H22656   4.625   1.937  11.084  3.0701 -3.0005 -0.4634
  168MOL0     H22657   4.518   1.813  11.143  0.0232  0.2031 -0.4972
  168MOL0     H22658   4.553   2.080  11.288  0.8718 -0.2360 -2.1494
  168MOL0     H22659   4.476   1.946  11.373  0.1330 -0.4285  0.6314
  168MOL0     H22660   4.377   2.102  11.145 -0.7190 -0.1220 -0.3944
  168MOL0     H22661   4.310   2.088  11.309  0.1614 -1.0671  0.5330
  168MOL0     H22662   5.370   1.586  11.451 -0.3021  0.9268  2.0498
  168MOL0     H22663   5.581   1.704  11.454 -2.0097  0.2853  3.4171
  168MOL0     H22664   5.757   2.130  11.212  1.3102  2.1400  1.5475
  168MOL0     H22665   5.929   2.268  11.148 -1.2679 -0.3230  0.8104
  168MOL0     H22666   5.435   3.182  10.696 -0.6687 -0.0611  1.8670
  168MOL0     H22667   5.200   3.141  10.662  2.7675  1.9388 -3.0708
  168MOL0     H22668   4.817   2.903  10.580 -0.9767  1.8944 -0.7504
  168MOL0     H22669   4.572   2.949  10.590  1.8790  1.0237 -1.3262
  168MOL0     H22670   4.334   2.861  10.972  1.2416 -2.1961 -2.2182
  168MOL0     H22671   4.416   3.013  11.008 -0.0243 -2.3003  1.6930
  168MOL0     H22672   4.268   3.130  10.838 -0.7465 -0.6603 -0.7923
  168MOL0     H22673   4.215   3.107  11.010  1.2113 -1.1962  0.4331
  168MOL0     H22674   4.086   2.902  10.933  1.5083  0.9918  2.3665
  168MOL0     H22675   4.147   2.943  10.767  1.3443  2.0437  0.3113
  168MOL0     H22676   4.018   3.179  10.807  0.5775  0.0721  1.4969
  168MOL0     H22677   3.951   3.108  10.940 -5.0557  1.0485 -2.9179
  168MOL0     H22678   3.712   2.949  10.628  0.3397 -0.3150 -1.3055
  168MOL0     H22679   4.619   2.967  11.020 -3.0698 -0.1226 -0.6746
  168MOL0     H22680   4.844   2.915  11.011  0.2574 -0.4560  0.3711
  169MOL0     O22681   1.189   9.987   1.800  0.0841  0.3506 -0.1632
  169MOL0     C22682   1.284   9.923   1.745  0.1927  0.0495 -0.6134
  169MOL0     O22683   1.268   9.826   1.653  0.4382 -0.8821  0.3903
  169MOL0     C22684   1.138   9.772   1.620 -0.0039  0.0780  0.5643
  169MOL0     C22685   1.040   9.749   1.718  0.4174 -0.0559 -0.4907
  169MOL0     C22686   0.905   9.716   1.678 -0.4060 -0.3411 -0.8102
  169MOL0     C22687   0.871   9.693   1.542  0.5346 -0.4586 -0.7333
  169MOL0     O22688   0.743   9.666   1.520 -0.2250 -0.1701  0.3410
  169MOL0     C22689   0.715   9.617   1.388 -0.1376 -0.4829  0.3218
  169MOL0     C22690   0.560   9.572   1.394 -0.2558 -0.4110 -0.5345
  169MOL0     C22691   0.458   9.690   1.392 -0.3396 -0.0444 -0.0563
  169MOL0     C22692   0.456   9.793   1.496 -0.2864 -0.6291 -0.9938
  169MOL0     C22693   0.340   9.887   1.468 -0.3670  0.7557 -0.2153
  169MOL0     C22694   0.328  10.004   1.573  0.0057 -0.0151  0.2928
  169MOL0     C22695   0.250  10.126   1.513  0.4473  0.9312  0.1989
  169MOL0     C22696   0.272  10.241   1.604  0.7161  0.3961  0.0211
  169MOL0     N22697   0.185  10.238   1.723 -0.4955  0.1807  0.0308
  169MOL0     C22698   0.206  10.156   1.828  0.2835 -0.7576 -0.3994
  169MOL0     C22699   0.104  10.189   1.917  0.6112  0.0224  0.2348
  169MOL0     C22700   0.079  10.142   2.053 -0.3769 -0.0357  0.2793
  169MOL0     C22701   0.194  10.191   2.131 -0.9074  0.2561 -0.5637
  169MOL0     C22702   0.205  10.104   2.263 -0.1308 -0.0923 -0.0898
  169MOL0     C22703   0.301  10.166   2.362  0.2955  0.3531 -0.1684
  169MOL0     O22704   0.438  10.150   2.316  0.0744 -0.4781 -0.2974
  169MOL0     C22705   0.536  10.234   2.369  0.1523 -0.4957 -0.1361
  169MOL0     C22706   0.513  10.311   2.480  0.2790 -0.1818 -0.7842
  169MOL0     C22707   0.621  10.378   2.545  0.5190 -0.6431  0.5538
  169MOL0     C22708   0.591  10.452   2.671 -0.2392  0.5433  0.0281
  169MOL0     C22709   0.749  10.375   2.480  0.5576 -0.4640 -0.9537
  169MOL0     C22710   0.870  10.441   2.542 -0.5712  0.2999 -0.4474
  169MOL0     O22711   0.976  10.456   2.456 -0.0477  0.1100  0.4206
  169MOL0     C22712   1.093  10.510   2.489  0.6133 -0.0081 -0.4483
  169MOL0     C22713   1.170  10.589   2.393 -0.1840  0.6025 -0.8007
  169MOL0     C22714   1.301  10.635   2.425  0.8438  0.4148  0.6387
  169MOL0     C22715   1.361  10.589   2.544  0.8587 -0.1799 -0.2976
  169MOL0     O22716   1.483  10.631   2.592 -0.1684 -0.5957  0.1877
  169MOL0     C22717   1.556  10.708   2.490  0.5732 -0.7770  0.5792
  169MOL0     C22718   1.700  10.733   2.532  0.7531  0.0678 -0.1127
  169MOL0     C22719   1.787  10.789   2.419  0.4299 -0.2165  0.2038
  169MOL0     C22720   1.926  10.797   2.468  0.5343 -0.1528  0.7625
  169MOL0     C22721   2.015  10.888   2.374 -0.2307  0.3183 -0.6437
  169MOL0     C22722   2.156  10.898   2.428  0.6519 -0.4472  0.6326
  169MOL0     C22723   2.244  10.985   2.338  0.0923 -0.1814  0.1053
  169MOL0     C22724   2.386  11.026   2.395 -0.2162  0.3931 -0.0087
  169MOL0    Cl22725   2.475  10.877   2.417  0.4214  0.0698  0.3487
  169MOL0     C22726   1.284  10.515   2.630 -0.1529 -0.3149 -0.0527
  169MOL0     C22727   1.160  10.468   2.608  0.6313  0.5001  0.1856
  169MOL0     O22728   0.875  10.464   2.660 -0.0947 -0.3392 -0.7930
  169MOL0     C22729   0.753  10.326   2.350 -0.2196 -0.3026 -0.2573
  169MOL0     C22730   0.655  10.248   2.297  0.5935 -0.0569 -0.7303
  169MOL0     N22731   0.022  10.278   1.858  0.1971  0.2288 -0.0017
  169MOL0     N22732   0.072  10.308   1.737 -0.0254  0.4211 -0.5251
  169MOL0     C22733   0.980   9.700   1.448  0.0684 -0.7175  0.9644
  169MOL0     C22734   1.108   9.743   1.481 -0.3578  1.4490  0.1456
  169MOL0     C22735   1.427   9.966   1.783 -0.1209 -1.1517 -0.2563
  169MOL0     C22736   1.456  10.057   1.894 -0.4274 -0.4589 -0.3685
  169MOL0     C22737   1.583  10.111   1.911 -1.3028 -0.2272 -0.4739
  169MOL0     C22738   1.681  10.090   1.816 -0.1503  0.6131  0.5070
  169MOL0     O22739   1.791  10.165   1.846 -0.7360 -0.3069  0.4828
  169MOL0     C22740   1.914  10.151   1.769  0.1461 -0.2140 -0.1718
  169MOL0     C22741   2.042  10.236   1.807 -0.2401 -0.8532  0.4628
  169MOL0     C22742   2.162  10.184   1.718  0.8210  0.1262  0.6590
  169MOL0     C22743   2.283  10.255   1.772 -1.0997 -0.3083  0.1053
  169MOL0     C22744   2.278  10.386   1.707  0.7177 -0.2058 -0.1261
  169MOL0     C22745   2.278  10.496   1.656  0.5097  0.9840 -0.4440
  169MOL0     C22746   1.662   9.999   1.715  1.0190 -0.6845 -0.5238
  169MOL0     C22747   1.538   9.934   1.703 -0.8419 -0.0307  0.5719
  169MOL0     H22748   1.063   9.776   1.821  5.0090  0.8323 -1.5127
  169MOL0     H22749   0.847   9.693   1.767 -0.5675  1.8826 -0.2707
  169MOL0     H22750   0.730   9.693   1.311  0.6695 -2.1519 -1.2208
  169MOL0     H22751   0.775   9.527   1.377  0.0943 -0.2455 -0.4435
  169MOL0     H22752   0.554   9.505   1.308 -2.9280  0.3464 -1.0288
  169MOL0     H22753   0.544   9.510   1.482  0.2897 -0.0144 -0.1457
  169MOL0     H22754   0.473   9.729   1.291 -1.8383 -0.7856 -0.5984
  169MOL0     H22755   0.358   9.648   1.381 -1.5905  2.5840  0.4522
  169MOL0     H22756   0.438   9.747   1.593  1.1571 -1.4519 -1.0919
  169MOL0     H22757   0.548   9.852   1.501 -0.2747 -0.3832 -3.0504
  169MOL0     H22758   0.347   9.932   1.369  2.6589 -1.3329 -1.0888
  169MOL0     H22759   0.246   9.833   1.462 -1.4362  2.6455 -1.3880
  169MOL0     H22760   0.276   9.967   1.662 -0.7491  1.4470  0.4974
  169MOL0     H22761   0.422  10.055   1.593 -2.1120  4.7146 -0.4689
  169MOL0     H22762   0.297  10.148   1.416  1.2403 -0.6471  0.2040
  169MOL0     H22763   0.144  10.101   1.508  1.0070 -1.6528  0.0946
  169MOL0     H22764   0.239  10.329   1.548 -0.3780  1.6558  2.4867
  169MOL0     H22765   0.378  10.254   1.628  0.9887  1.8506 -1.7573
  169MOL0     H22766   0.297  10.102   1.850  0.8088  1.4238  3.7970
  169MOL0     H22767  -0.024  10.165   2.085 -1.1518 -0.0599 -2.0436
  169MOL0     H22768   0.076  10.033   2.061  1.4227 -0.0144  1.9613
  169MOL0     H22769   0.183  10.299   2.148  1.2100  0.4816 -0.3341
  169MOL0     H22770   0.288  10.179   2.076 -0.5634 -0.4121  0.1448
  169MOL0     H22771   0.238  10.003   2.235 -1.4103 -0.4314 -0.4322
  169MOL0     H22772   0.107  10.101   2.311 -0.8798 -0.8629 -1.5939
  169MOL0     H22773   0.287  10.116   2.458  1.4583  0.7366  0.2142
  169MOL0     H22774   0.273  10.272   2.367  1.8812  0.7360  1.1720
  169MOL0     H22775   0.423  10.307   2.542 -0.0501 -0.3364 -1.2615
  169MOL0     H22776   0.620  10.555   2.694  1.5950  0.1913 -0.5746
  169MOL0     H22777   0.484  10.468   2.687 -0.6895 -0.8847 -1.4023
  169MOL0     H22778   0.618  10.380   2.749  0.4415  0.1198 -0.5913
  169MOL0     H22779   1.119  10.624   2.304 -0.7317  0.7582 -0.4350
  169MOL0     H22780   1.337  10.702   2.347  0.0994 -2.0379 -1.9490
  169MOL0     H22781   1.565  10.650   2.398 -0.8132 -0.8757  0.4856
  169MOL0     H22782   1.501  10.799   2.465 -0.3981 -1.0881  1.5006
  169MOL0     H22783   1.708  10.801   2.617 -0.6882  0.3283 -0.1675
  169MOL0     H22784   1.731  10.632   2.563 -3.5639 -0.9059  1.8467
  169MOL0     H22785   1.745  10.886   2.389 -0.0032 -1.2753 -2.9562
  169MOL0     H22786   1.781  10.733   2.326 -0.3730 -0.6867  0.5344
  169MOL0     H22787   1.932  10.838   2.570  1.9292  0.4392  0.4637
  169MOL0     H22788   1.966  10.695   2.475 -0.5498 -0.5248  1.8974
  169MOL0     H22789   1.964  10.984   2.374 -0.0366  0.4341  0.2105
  169MOL0     H22790   2.013  10.863   2.268 -2.4668  1.8767 -1.0418
  169MOL0     H22791   2.159  10.952   2.523 -1.3849 -1.1263  1.1252
  169MOL0     H22792   2.193  10.795   2.435  0.7728 -0.4191  0.4105
  169MOL0     H22793   2.190  11.077   2.313  1.3168  0.8480  1.0943
  169MOL0     H22794   2.259  10.931   2.244  1.7907  0.9787 -0.3516
  169MOL0     H22795   2.371  11.078   2.489  0.7915  1.3784 -0.3655
  169MOL0     H22796   2.436  11.090   2.322  1.2125 -0.6376  0.0041
  169MOL0     H22797   1.334  10.487   2.722  1.1806 -0.4900 -0.8013
  169MOL0     H22798   1.114  10.401   2.680 -1.2277 -0.0659 -1.4151
  169MOL0     H22799   0.849  10.321   2.299  1.9801 -0.1219  3.5282
  169MOL0     H22800   0.676  10.182   2.214  2.1124  0.2070 -0.5867
  169MOL0     H22801   0.966   9.667   1.345  1.7858 -0.7413  0.7033
  169MOL0     H22802   1.184   9.753   1.404 -0.6329 -1.8267 -0.6832
  169MOL0     H22803   1.381  10.070   1.971 -2.9058 -2.2347 -2.2613
  169MOL0     H22804   1.600  10.175   1.997 -0.0218 -1.5147  0.2751
  169MOL0     H22805   1.947  10.046   1.774  1.6764  0.0850 -2.3105
  169MOL0     H22806   1.898  10.164   1.662  2.7033 -0.2881 -0.6299
  169MOL0     H22807   2.071  10.208   1.908  0.0694 -0.4643  0.4827
  169MOL0     H22808   2.019  10.342   1.794 -2.1785 -1.0451  1.9131
  169MOL0     H22809   2.148  10.206   1.612  1.6991  0.6717  0.6457
  169MOL0     H22810   2.176  10.079   1.748 -0.2748 -0.1264  0.3311
  169MOL0     H22811   2.379  10.210   1.747 -0.9583  0.5175 -0.8997
  169MOL0     H22812   2.275  10.267   1.880 -1.9291  1.1791 -0.1012
  169MOL0     H22813   2.279  10.597   1.621  0.1652  0.3425 -2.4731
  169MOL0     H22814   1.740   9.988   1.641  0.1687  3.1172 -2.2269
  169MOL0     H22815   1.534   9.854   1.629 -0.4509 -1.3522  1.9102
  170MOL0     O22816  10.941   4.086   2.820  0.4583 -0.0912  0.7368
  170MOL0     C22817  10.915   4.135   2.928  0.4294  0.1142  0.9232
  170MOL0     O22818  10.813   4.226   2.950  0.2059 -0.8759 -0.5624
  170MOL0     C22819  10.742   4.262   2.843  0.1190 -0.1999  0.7701
  170MOL0     C22820  10.651   4.169   2.778 -0.5612 -0.8068 -0.0686
  170MOL0     C22821  10.576   4.217   2.673 -0.2411 -0.4801 -0.8346
  170MOL0     C22822  10.580   4.355   2.631 -0.0577  0.4287  0.3368
  170MOL0     O22823  10.507   4.405   2.526  0.6811 -0.3579  0.3111
  170MOL0     C22824  10.360   4.378   2.525  0.3416 -0.2374 -1.1209
  170MOL0     C22825  10.292   4.445   2.647 -0.5387 -0.0629  0.7797
  170MOL0     C22826  10.142   4.429   2.643 -0.9370 -0.2441 -0.0532
  170MOL0     C22827  10.074   4.450   2.505  0.2031  0.4876  0.8542
  170MOL0     C22828   9.925   4.486   2.494 -0.6500  0.6232 -0.3575
  170MOL0     C22829   9.902   4.629   2.542  1.0894 -0.2290 -0.0259
  170MOL0     C22830   9.753   4.679   2.507 -1.1017 -0.5374  0.0769
  170MOL0     C22831   9.708   4.808   2.582 -0.6818  0.5146 -0.5561
  170MOL0     N22832   9.579   4.865   2.536 -0.6332  0.0729  0.3953
  170MOL0     C22833   9.511   4.961   2.604 -0.2232 -0.0507 -0.6691
  170MOL0     C22834   9.402   4.987   2.531  0.2510  0.0984  0.7106
  170MOL0     C22835   9.301   5.092   2.564  0.3973 -0.2416  0.4261
  170MOL0     C22836   9.167   5.037   2.528  0.2123  0.0588  0.0500
  170MOL0     C22837   9.057   5.136   2.573 -0.4297 -0.2300  0.0404
  170MOL0     C22838   8.922   5.070   2.571  0.1108  0.0034  1.2610
  170MOL0     O22839   8.850   5.142   2.463  0.7540  0.1542 -0.1291
  170MOL0     C22840   8.712   5.165   2.496  0.0989 -0.3786 -0.1860
  170MOL0     C22841   8.609   5.067   2.480  0.7437 -0.0124 -0.0935
  170MOL0     C22842   8.474   5.097   2.501 -0.5013  0.6498 -1.1086
  170MOL0     C22843   8.375   4.979   2.488  0.6097 -0.4792  0.6904
  170MOL0     C22844   8.445   5.230   2.542 -0.7014 -1.3231 -0.2788
  170MOL0     C22845   8.312   5.272   2.582 -0.5984 -1.2905  0.5847
  170MOL0     O22846   8.201   5.201   2.529  0.5123 -0.1644  0.2281
  170MOL0     C22847   8.069   5.230   2.542  0.3758  0.1835  0.4161
  170MOL0     C22848   7.973   5.151   2.478  0.4317 -0.4439 -0.6788
  170MOL0     C22849   7.834   5.165   2.509 -0.8488  0.0262  0.0798
  170MOL0     C22850   7.792   5.247   2.607  0.5534 -0.1784  0.2723
  170MOL0     O22851   7.660   5.256   2.631 -0.2903 -0.3611 -0.4978
  170MOL0     C22852   7.625   5.179   2.743 -0.7525 -0.8275 -0.4908
  170MOL0     C22853   7.485   5.204   2.790 -0.3027 -0.3018  0.3233
  170MOL0     C22854   7.387   5.113   2.712  0.0850 -0.6120  0.4715
  170MOL0     C22855   7.392   5.131   2.557  0.2341 -0.3038 -0.3809
  170MOL0     C22856   7.268   5.072   2.483  0.3600  0.0554  1.1460
  170MOL0     C22857   7.241   4.922   2.516 -0.7699 -0.8316 -0.6931
  170MOL0     C22858   7.132   4.859   2.431  0.7796 -0.9082  0.0012
  170MOL0     C22859   7.145   4.850   2.282  0.7854 -0.2550  0.2173
  170MOL0    Cl22860   7.127   5.016   2.206  0.7781  0.1810 -0.1407
  170MOL0     C22861   7.881   5.317   2.679 -0.4539  0.0867 -0.4779
  170MOL0     C22862   8.019   5.319   2.646 -0.1947 -0.1714  0.3308
  170MOL0     O22863   8.305   5.369   2.657 -0.2410  0.3352  0.3661
  170MOL0     C22864   8.550   5.331   2.553 -0.0901  0.5982  0.2159
  170MOL0     C22865   8.684   5.295   2.532  0.0374 -0.8658 -0.0262
  170MOL0     N22866   9.414   4.915   2.415 -0.2255 -0.0907  0.5032
  170MOL0     N22867   9.524   4.852   2.413  0.4491  0.1031 -0.0098
  170MOL0     C22868  10.663   4.442   2.700 -0.4220 -0.1165  0.2220
  170MOL0     C22869  10.748   4.398   2.802 -0.3480 -0.8152 -0.4144
  170MOL0     C22870  10.990   4.090   3.044 -0.6902 -0.8426  0.3880
  170MOL0     C22871  11.127   4.054   3.034  0.1193 -0.6438  0.3844
  170MOL0     C22872  11.195   4.025   3.152 -0.9798  0.5224  1.0016
  170MOL0     C22873  11.127   4.007   3.267 -0.1031  1.1725  0.0382
  170MOL0     O22874  11.197   3.960   3.370 -0.2642 -0.6645 -0.7971
  170MOL0     C22875  11.246   4.073   3.445  1.1399  0.3279  0.6166
  170MOL0     C22876  11.371   4.033   3.515 -0.9968 -0.0046 -0.5524
  170MOL0     C22877  11.476   3.969   3.420 -0.9203 -0.1166 -0.3358
  170MOL0     C22878  11.516   3.831   3.466 -0.5113 -1.2516 -1.5383
  170MOL0     C22879  11.574   3.826   3.598  0.1100 -0.2456 -0.1702
  170MOL0     C22880  11.615   3.800   3.705  1.1385  0.8380 -1.1176
  170MOL0     C22881  10.999   4.046   3.282  0.7483  0.0969  0.2606
  170MOL0     C22882  10.924   4.081   3.169  0.1358 -0.5205  0.3893
  170MOL0     H22883  10.649   4.068   2.818  1.2672  0.0741  2.5574
  170MOL0     H22884  10.515   4.145   2.618  0.1678 -0.4381 -1.3525
  170MOL0     H22885  10.320   4.411   2.429  0.8964  1.7382 -0.7119
  170MOL0     H22886  10.333   4.272   2.527 -1.8375  0.2770 -1.2925
  170MOL0     H22887  10.329   4.386   2.731 -0.2046 -3.7870 -1.7726
  170MOL0     H22888  10.326   4.548   2.664 -0.1023  0.0695 -0.7253
  170MOL0     H22889  10.114   4.327   2.672 -0.7319 -0.4855 -0.6972
  170MOL0     H22890  10.093   4.495   2.716 -0.2488 -0.0667  0.2560
  170MOL0     H22891  10.131   4.530   2.457 -2.0336  0.3846 -2.2610
  170MOL0     H22892  10.083   4.363   2.440 -2.0660 -1.3513  2.8433
  170MOL0     H22893   9.887   4.473   2.392 -0.2910 -0.7850 -0.3205
  170MOL0     H22894   9.866   4.415   2.552 -2.6962  2.1472 -0.4345
  170MOL0     H22895   9.902   4.628   2.651 -1.3711 -0.8670  0.0309
  170MOL0     H22896   9.980   4.696   2.505  1.7460 -1.7483 -1.5089
  170MOL0     H22897   9.764   4.708   2.402  0.8518 -2.0565 -0.1989
  170MOL0     H22898   9.680   4.602   2.533  0.0903 -0.8962  2.7251
  170MOL0     H22899   9.771   4.896   2.567  0.6938 -0.5387 -1.1202
  170MOL0     H22900   9.710   4.782   2.688  3.2056 -0.8647 -0.8013
  170MOL0     H22901   9.529   5.010   2.699 -1.4775 -0.4766 -0.1944
  170MOL0     H22902   9.307   5.129   2.667  2.5751 -0.5770  0.4839
  170MOL0     H22903   9.333   5.181   2.508  2.2421 -0.6208  0.7950
  170MOL0     H22904   9.136   4.942   2.575 -1.1817  0.4038 -0.1370
  170MOL0     H22905   9.159   5.032   2.419  1.7459 -2.9187 -0.0431
  170MOL0     H22906   9.055   5.231   2.520  0.8299  0.8696  1.8489
  170MOL0     H22907   9.067   5.153   2.681 -3.5423 -3.3681  1.0453
  170MOL0     H22908   8.877   5.093   2.668 -0.8827 -2.9305  1.6152
  170MOL0     H22909   8.917   4.963   2.546  1.3762  0.2134 -0.0346
  170MOL0     H22910   8.640   4.968   2.449 -1.2364  0.5911 -4.9495
  170MOL0     H22911   8.312   4.978   2.578  0.3423 -1.8194  0.4975
  170MOL0     H22912   8.319   4.997   2.397 -1.4651  3.1442  2.4491
  170MOL0     H22913   8.429   4.885   2.474  3.2688  1.2838 -2.2929
  170MOL0     H22914   7.997   5.073   2.407 -0.2936 -0.2779 -1.1188
  170MOL0     H22915   7.773   5.085   2.467  2.7646 -2.3959 -1.0053
  170MOL0     H22916   7.659   5.076   2.730  0.1160 -0.6489  0.2307
  170MOL0     H22917   7.679   5.206   2.834 -1.6714  1.1593 -0.4915
  170MOL0     H22918   7.472   5.200   2.899  3.6874  2.6989  1.1325
  170MOL0     H22919   7.468   5.310   2.769  1.8670 -0.2312 -1.4838
  170MOL0     H22920   7.289   5.147   2.746 -0.1143 -1.2965  0.6078
  170MOL0     H22921   7.408   5.009   2.741  1.9324 -0.3111  0.3694
  170MOL0     H22922   7.390   5.240   2.545  0.4811 -0.2267  0.2551
  170MOL0     H22923   7.481   5.089   2.511  1.1030 -0.6590  1.5398
  170MOL0     H22924   7.292   5.087   2.378 -0.1844  0.6194  1.0980
  170MOL0     H22925   7.174   5.120   2.511  0.6766  1.6222 -0.3690
  170MOL0     H22926   7.333   4.866   2.499 -0.0484  0.5027 -1.3630
  170MOL0     H22927   7.207   4.923   2.620  1.2846 -1.1026  0.0259
  170MOL0     H22928   7.048   4.922   2.462  1.9815  1.4357 -1.2657
  170MOL0     H22929   7.108   4.762   2.475  4.7757 -2.0777  0.0268
  170MOL0     H22930   7.067   4.780   2.249  1.2073 -0.6584  0.0601
  170MOL0     H22931   7.243   4.811   2.252  0.5155 -0.9395  0.1904
  170MOL0     H22932   7.854   5.371   2.769  4.5679 -0.0647  1.4630
  170MOL0     H22933   8.083   5.373   2.715  1.8411 -1.8876 -0.1302
  170MOL0     H22934   8.517   5.424   2.598 -0.1319 -0.0634  1.6159
  170MOL0     H22935   8.769   5.360   2.548 -1.3498  0.6501  1.5640
  170MOL0     H22936  10.662   4.549   2.682 -0.0174 -0.4652 -2.2475
  170MOL0     H22937  10.809   4.468   2.857 -0.5158 -0.2335 -0.9560
  170MOL0     H22938  11.173   4.054   2.936 -0.9778  0.9372 -0.1569
  170MOL0     H22939  11.300   4.001   3.141 -0.8870  1.3486 -0.0530
  170MOL0     H22940  11.267   4.162   3.384  0.6754 -0.3000 -0.4742
  170MOL0     H22941  11.168   4.111   3.511 -0.7699 -1.4979 -0.4771
  170MOL0     H22942  11.344   3.958   3.589  3.6772 -0.3197  1.1599
  170MOL0     H22943  11.416   4.125   3.555 -0.2808  0.3289 -2.0393
  170MOL0     H22944  11.568   4.029   3.412  0.2735 -1.7830  0.2204
  170MOL0     H22945  11.442   3.951   3.318  3.0324 -2.0315 -1.5439
  170MOL0     H22946  11.569   3.773   3.390  1.5782 -0.5257 -0.6906
  170MOL0     H22947  11.419   3.782   3.479 -0.0291 -1.7062  0.6666
  170MOL0     H22948  11.643   3.774   3.805 -2.6648 -0.5754 -0.2106
  170MOL0     H22949  10.949   4.035   3.378  0.4560 -2.0186 -0.0957
  170MOL0     H22950  10.819   4.106   3.182 -0.0088 -1.0075  0.1629
  171MOL0     O22951   4.248   8.051  10.433 -0.1423  0.0097  0.0666
  171MOL0     C22952   4.344   8.013  10.504 -0.0701 -0.4385  0.4742
  171MOL0     O22953   4.346   7.987  10.636  0.2361  0.8752  0.9844
  171MOL0     C22954   4.226   7.984  10.705  0.9513  0.1122 -0.3123
  171MOL0     C22955   4.171   7.863  10.746  0.0604  0.1918 -0.4752
  171MOL0     C22956   4.048   7.868  10.825  0.6796  0.7408  0.3884
  171MOL0     C22957   3.980   7.985  10.849 -0.1784  0.2059 -0.0951
  171MOL0     O22958   3.853   7.974  10.906  0.6601 -0.5695  0.2600
  171MOL0     C22959   3.765   8.085  10.896 -0.0684 -0.2768  0.4845
  171MOL0     C22960   3.623   8.066  10.951  0.7939 -0.4928  0.5987
  171MOL0     C22961   3.515   8.182  10.970 -0.4882 -0.4128 -0.4523
  171MOL0     C22962   3.443   8.183  10.838 -0.4044  0.1861 -0.9113
  171MOL0     C22963   3.347   8.308  10.798 -0.4243  0.6465 -0.1188
  171MOL0     C22964   3.223   8.320  10.885  0.0987 -0.4383  0.9525
  171MOL0     C22965   3.159   8.189  10.916 -0.2636 -0.0133 -0.6872
  171MOL0     C22966   3.020   8.215  10.972  0.3964  0.1788  0.5399
  171MOL0     N22967   2.971   8.098  11.053  0.5218 -0.2685 -0.0266
  171MOL0     C22968   3.006   8.065  11.183  0.1880  0.5211  0.0732
  171MOL0     C22969   2.937   7.957  11.216 -0.6065  0.6157  0.4184
  171MOL0     C22970   2.939   7.881  11.347 -0.4033 -1.1052 -0.4053
  171MOL0     C22971   2.919   7.729  11.338  0.1074 -0.9290  0.4965
  171MOL0     C22972   2.886   7.667  11.472 -0.5163  0.7230  0.0725
  171MOL0     C22973   2.874   7.520  11.443  0.1937  0.4913  0.3402
  171MOL0     O22974   2.750   7.489  11.367  0.5828  0.3580  0.5981
  171MOL0     C22975   2.733   7.355  11.384  0.4190  0.2139 -0.0573
  171MOL0     C22976   2.805   7.254  11.322 -0.8729 -1.0030  1.1797
  171MOL0     C22977   2.796   7.117  11.333 -0.3125 -0.9784  0.2030
  171MOL0     C22978   2.869   7.018  11.252 -0.3882 -0.8859 -0.4054
  171MOL0     C22979   2.697   7.088  11.431 -0.2774  0.7119  0.2928
  171MOL0     C22980   2.659   6.957  11.454  0.5470 -0.2467  0.5821
  171MOL0     O22981   2.674   6.894  11.573  0.4247 -0.5139 -0.6341
  171MOL0     C22982   2.758   6.939  11.671  0.4136 -1.3444  0.4999
  171MOL0     C22983   2.703   6.989  11.792  0.1004 -0.4413 -0.5563
  171MOL0     C22984   2.781   7.038  11.890 -0.4484 -0.4928  1.1763
  171MOL0     C22985   2.924   7.025  11.878 -0.2342  0.4539 -0.4545
  171MOL0     O22986   3.012   7.084  11.970 -0.4808 -0.3707 -0.7885
  171MOL0     C22987   2.973   7.191  12.043 -0.6296 -0.9313 -0.1334
  171MOL0     C22988   3.098   7.245  12.125  0.5052  0.4647 -0.7988
  171MOL0     C22989   3.051   7.362  12.218 -0.3056 -0.4077  0.2845
  171MOL0     C22990   3.006   7.310  12.353  0.1762 -0.8456  0.3882
  171MOL0     C22991   3.111   7.275  12.455  0.2531 -0.0375 -0.2333
  171MOL0     C22992   3.150   7.397  12.549 -0.8101  0.5117  0.1519
  171MOL0     C22993   3.232   7.352  12.660 -0.2624  0.2372 -0.3212
  171MOL0     C22994   3.171   7.239  12.751  0.1853  0.4831 -0.1002
  171MOL0    Cl22995   3.264   7.245  12.907 -0.4501  0.4461  0.1133
  171MOL0     C22996   2.978   6.965  11.772 -0.2290 -0.5038 -0.2184
  171MOL0     C22997   2.897   6.930  11.661  0.3430 -0.3734 -0.6547
  171MOL0     O22998   2.604   6.902  11.360  0.4341  0.5340  0.4711
  171MOL0     C22999   2.615   7.181  11.499  0.4951 -0.1238 -0.4274
  171MOL0     C23000   2.627   7.315  11.477 -0.3390 -0.9182  0.0387
  171MOL0     N23001   2.855   7.928  11.112  0.1107 -0.1356  0.3195
  171MOL0     N23002   2.872   8.012  11.015 -0.2710  0.1635  0.0557
  171MOL0     C23003   4.035   8.099  10.793  0.6424  0.4015  0.2148
  171MOL0     C23004   4.161   8.101  10.740 -0.2447  0.6293  1.3093
  171MOL0     C23005   4.467   7.982  10.432 -0.1567  0.0029  0.2599
  171MOL0     C23006   4.584   7.929  10.494  0.2965  0.3026  0.0233
  171MOL0     C23007   4.699   7.909  10.426 -0.1325 -0.4711  0.8634
  171MOL0     C23008   4.722   7.948  10.292 -0.9296  0.3144 -0.1886
  171MOL0     O23009   4.858   7.939  10.252 -0.9225 -0.2395  0.2079
  171MOL0     C23010   4.897   7.918  10.115  0.1203 -1.1572  0.1422
  171MOL0     C23011   4.831   7.802  10.056 -0.3898 -1.0136  0.5839
  171MOL0     C23012   4.869   7.673  10.133  0.5705  0.0029  0.7170
  171MOL0     C23013   4.752   7.571  10.117 -0.2206 -0.4627 -0.9609
  171MOL0     C23014   4.773   7.446  10.188  0.0539 -0.4244  0.2293
  171MOL0     C23015   4.783   7.345  10.247  0.5987 -0.2027 -0.2294
  171MOL0     C23016   4.611   7.996  10.225  0.3316 -0.0037 -0.2869
  171MOL0     C23017   4.491   8.016  10.291  0.3455  0.5018 -0.1747
  171MOL0     H23018   4.225   7.770  10.733  0.6551  0.4248  0.2673
  171MOL0     H23019   3.997   7.774  10.841  0.7952  0.5942 -0.0736
  171MOL0     H23020   3.815   8.171  10.942 -0.9731  1.0149 -0.8392
  171MOL0     H23021   3.751   8.101  10.788 -3.0853  0.7514  0.9155
  171MOL0     H23022   3.579   7.981  10.897  0.3771  0.2309 -0.2235
  171MOL0     H23023   3.636   8.025  11.051 -3.5253 -3.2049  0.3159
  171MOL0     H23024   3.449   8.172  11.057  0.7163  1.9105  0.8680
  171MOL0     H23025   3.550   8.283  10.994 -3.6764  0.2704  2.0187
  171MOL0     H23026   3.516   8.174  10.757  0.5264 -1.8941  0.0729
  171MOL0     H23027   3.383   8.091  10.842 -0.2329  0.1125  0.9736
  171MOL0     H23028   3.394   8.405  10.815 -0.0203  0.8402 -2.0335
  171MOL0     H23029   3.323   8.294  10.692 -0.1185 -0.7636 -0.0259
  171MOL0     H23030   3.256   8.368  10.977  1.5031  0.6752 -0.0877
  171MOL0     H23031   3.157   8.388  10.831 -0.2627 -1.7089 -0.2712
  171MOL0     H23032   3.130   8.135  10.826  0.0971 -0.2166 -0.6835
  171MOL0     H23033   3.212   8.125  10.988 -0.6839 -1.5292 -1.6850
  171MOL0     H23034   2.952   8.237  10.889 -0.1161 -3.2599 -0.0812
  171MOL0     H23035   3.020   8.300  11.041 -1.2225  0.0407  0.7275
  171MOL0     H23036   3.075   8.120  11.246  0.3674 -0.1690  0.4931
  171MOL0     H23037   3.041   7.893  11.385 -1.4389 -0.3326  2.3914
  171MOL0     H23038   2.878   7.932  11.422 -1.8999  0.3543 -2.5147
  171MOL0     H23039   3.009   7.692  11.288  0.9987  1.0100  0.6029
  171MOL0     H23040   2.836   7.711  11.270 -0.7143 -2.4790  1.8316
  171MOL0     H23041   2.791   7.703  11.514 -1.2043 -0.0990 -0.7436
  171MOL0     H23042   2.969   7.682  11.541  1.9485 -0.6736 -2.4117
  171MOL0     H23043   2.889   7.468  11.538  1.8459 -0.1583 -0.2430
  171MOL0     H23044   2.959   7.487  11.382  2.7847  0.7221  3.5750
  171MOL0     H23045   2.874   7.288  11.245 -2.3093 -3.1411 -1.2054
  171MOL0     H23046   2.976   7.027  11.271 -0.4428  0.6232 -0.6644
  171MOL0     H23047   2.836   6.918  11.281  0.4529 -1.3085 -0.8835
  171MOL0     H23048   2.857   7.020  11.144  1.2500 -3.0077 -0.6671
  171MOL0     H23049   2.595   6.999  11.800  0.1841 -0.8433  1.5462
  171MOL0     H23050   2.737   7.088  11.976 -1.3765 -0.1914  0.5385
  171MOL0     H23051   2.928   7.277  11.991  1.4928 -0.1765 -0.8502
  171MOL0     H23052   2.903   7.157  12.120 -0.8755  0.0658  0.1094
  171MOL0     H23053   3.138   7.154  12.169  1.7061 -2.0009 -6.2330
  171MOL0     H23054   3.173   7.286  12.057  0.0281  1.7158 -0.6004
  171MOL0     H23055   2.980   7.414  12.154  0.4316 -0.2873 -0.4515
  171MOL0     H23056   3.136   7.431  12.226 -0.5626 -0.1418  0.7492
  171MOL0     H23057   2.931   7.377  12.396 -1.5558 -1.3172 -1.6680
  171MOL0     H23058   2.952   7.221  12.317  1.1136 -0.4631 -2.2236
  171MOL0     H23059   3.200   7.229  12.412 -0.1301 -1.2415  0.2181
  171MOL0     H23060   3.053   7.207  12.518 -2.4686 -0.0955 -2.5990
  171MOL0     H23061   3.209   7.472  12.495  0.6398 -0.9010 -0.3305
  171MOL0     H23062   3.057   7.445  12.579 -0.9063  1.2800 -1.2734
  171MOL0     H23063   3.261   7.439  12.719  2.3296 -0.3859 -0.5905
  171MOL0     H23064   3.325   7.308  12.625 -0.8847  0.8457 -2.9216
  171MOL0     H23065   3.176   7.144  12.698  0.8073 -1.4180  3.0889
  171MOL0     H23066   3.069   7.267  12.778 -0.4369 -3.2105  2.0237
  171MOL0     H23067   3.085   6.945  11.769 -0.4657 -1.9004 -0.1404
  171MOL0     H23068   2.954   6.894  11.576  2.8657  2.9095 -0.5467
  171MOL0     H23069   2.536   7.147  11.566  0.7721 -0.6707 -0.3769
  171MOL0     H23070   2.561   7.386  11.524 -2.3159 -1.8891 -1.1542
  171MOL0     H23071   3.988   8.197  10.802  1.0179  0.4297  2.5769
  171MOL0     H23072   4.218   8.187  10.705  3.2425 -2.3000 -0.9928
  171MOL0     H23073   4.598   7.889  10.594 -0.7741 -1.0181 -0.3276
  171MOL0     H23074   4.785   7.873  10.481  0.2624  0.3937  0.8092
  171MOL0     H23075   4.869   8.012  10.067  0.7562 -0.6300  0.7625
  171MOL0     H23076   5.006   7.911  10.110  0.2574 -0.0477  0.9907
  171MOL0     H23077   4.883   7.802   9.960  0.0215 -0.6543  0.8043
  171MOL0     H23078   4.722   7.813  10.056 -0.5479 -2.3294 -0.5542
  171MOL0     H23079   4.898   7.697  10.236 -0.6150  0.4351  0.9711
  171MOL0     H23080   4.953   7.628  10.080 -0.1848  0.5160 -0.9622
  171MOL0     H23081   4.737   7.548  10.011 -0.9242 -0.4521 -0.8687
  171MOL0     H23082   4.661   7.622  10.149  1.3415  2.8008 -1.2717
  171MOL0     H23083   4.786   7.251  10.299 -0.5046 -0.2064 -0.1351
  171MOL0     H23084   4.613   8.049  10.130 -1.8049  3.8576  1.5535
  171MOL0     H23085   4.407   8.038  10.225  0.2055 -1.4486 -0.7180
  172MOL0     O23086   9.939   7.857   5.503  0.1321  0.1691  0.4483
  172MOL0     C23087  10.049   7.803   5.511 -0.2242  0.1158  0.6169
  172MOL0     O23088  10.080   7.709   5.603  0.1322  0.2325 -0.6835
  172MOL0     C23089   9.994   7.663   5.699  0.1306  0.0883 -0.2328
  172MOL0     C23090  10.042   7.612   5.820 -0.0906  0.8565  0.4337
  172MOL0     C23091   9.947   7.582   5.926 -0.8271  0.1656  0.8168
  172MOL0     C23092   9.812   7.592   5.914  1.6824  0.3831  0.0259
  172MOL0     O23093   9.723   7.534   6.007 -0.4303  0.2639 -0.1088
  172MOL0     C23094   9.718   7.582   6.141 -0.5459  0.4871  0.2984
  172MOL0     C23095   9.641   7.480   6.224 -0.2072 -0.3881  0.2997
  172MOL0     C23096   9.634   7.524   6.375  0.5303  0.3554  0.4427
  172MOL0     C23097   9.578   7.409   6.470 -0.6966  0.1681  0.3892
  172MOL0     C23098   9.619   7.417   6.615  0.6665  0.3754 -0.1246
  172MOL0     C23099   9.525   7.351   6.722 -0.4715 -0.1007 -0.1119
  172MOL0     C23100   9.537   7.204   6.686 -0.7322  0.6651 -0.1499
  172MOL0     C23101   9.527   7.123   6.820  0.0299  0.1865 -0.4824
  172MOL0     N23102   9.536   6.981   6.820 -0.5160 -0.0160 -0.2561
  172MOL0     C23103   9.586   6.892   6.914 -0.1370 -0.0389  0.3344
  172MOL0     C23104   9.606   6.785   6.842 -0.1364  0.1364  0.3797
  172MOL0     C23105   9.656   6.645   6.894  0.2945 -0.1959  1.5586
  172MOL0     C23106   9.601   6.520   6.813 -0.1673 -0.5470 -0.2424
  172MOL0     C23107   9.474   6.493   6.899  0.2820 -0.1568 -0.0722
  172MOL0     C23108   9.393   6.371   6.842  0.3153 -0.2476  0.1152
  172MOL0     O23109   9.327   6.296   6.940 -0.8154  0.6753 -0.6053
  172MOL0     C23110   9.200   6.253   6.910 -0.1986  0.4447  0.5549
  172MOL0     C23111   9.116   6.235   7.016  0.6241  0.5834  1.0183
  172MOL0     C23112   8.986   6.182   7.004 -0.4165 -0.8697  0.3447
  172MOL0     C23113   8.900   6.201   7.123 -0.4669 -0.7725 -0.0444
  172MOL0     C23114   8.941   6.131   6.877 -0.5181  0.4993  0.6105
  172MOL0     C23115   8.806   6.077   6.849  0.2600 -0.5233  0.0196
  172MOL0     O23116   8.694   6.130   6.921  0.0354  0.7842  0.1760
  172MOL0     C23117   8.581   6.076   6.875  0.3961 -0.5625  0.1503
  172MOL0     C23118   8.478   6.172   6.832 -0.0455 -1.1831  0.2548
  172MOL0     C23119   8.356   6.124   6.777  0.0696  0.1926  0.2256
  172MOL0     C23120   8.320   5.994   6.771 -0.2229 -0.5408  0.1593
  172MOL0     O23121   8.198   5.964   6.719  0.6983 -0.0506 -1.1049
  172MOL0     C23122   8.210   5.944   6.582  0.1763 -0.1089  0.9147
  172MOL0     C23123   8.076   5.905   6.518  0.1586 -0.1790  0.1425
  172MOL0     C23124   7.998   6.031   6.493  0.0721 -0.1808  0.5439
  172MOL0     C23125   7.858   5.997   6.461  0.4115  1.0850 -0.4492
  172MOL0     C23126   7.790   6.129   6.419 -0.2390  0.4311 -0.1077
  172MOL0     C23127   7.646   6.107   6.369  0.6193 -0.5756  0.6636
  172MOL0     C23128   7.649   6.052   6.219 -0.0680  0.8022  0.3030
  172MOL0     C23129   7.513   6.006   6.178  0.4778  0.2210  0.2662
  172MOL0    Cl23130   7.381   6.137   6.165 -0.4539 -0.1058  0.1923
  172MOL0     C23131   8.415   5.899   6.816  0.2106  0.4058 -0.5625
  172MOL0     C23132   8.542   5.943   6.872 -0.3821 -0.4066  0.7534
  172MOL0     O23133   8.794   5.990   6.766  0.1133  0.1124 -0.3657
  172MOL0     C23134   9.038   6.145   6.765 -0.0208  0.5042  0.3670
  172MOL0     C23135   9.164   6.209   6.785  0.1832 -0.7651  0.1338
  172MOL0     N23136   9.582   6.802   6.707  0.8041 -0.2874 -0.0024
  172MOL0     N23137   9.546   6.926   6.694 -0.8409  0.4989 -0.7631
  172MOL0     C23138   9.765   7.628   5.790 -0.5829 -0.3967 -0.3679
  172MOL0     C23139   9.852   7.674   5.690  0.2671  0.2441 -0.9876
  172MOL0     C23140  10.143   7.850   5.411 -0.2384 -0.3655  0.1102
  172MOL0     C23141  10.107   7.927   5.300  0.4140 -1.1176  0.5641
  172MOL0     C23142  10.201   7.959   5.207  0.2788  0.1975  0.6737
  172MOL0     C23143  10.336   7.942   5.227  0.1885  0.4989  0.1466
  172MOL0     O23144  10.433   7.978   5.141 -0.2988 -0.0649  0.1353
  172MOL0     C23145  10.406   8.006   4.999  0.4799 -0.5313 -0.5017
  172MOL0     C23146  10.533   8.040   4.916  0.5202 -0.4370  0.2675
  172MOL0     C23147  10.615   8.153   4.961 -0.7229 -0.5598 -0.0347
  172MOL0     C23148  10.563   8.290   4.916  0.0731  0.3714 -0.3066
  172MOL0     C23149  10.657   8.400   4.933  0.6870  0.0488 -0.7419
  172MOL0     C23150  10.735   8.497   4.940  0.1000 -0.2416  1.0860
  172MOL0     C23151  10.379   7.887   5.348  0.1112  0.5243  0.1567
  172MOL0     C23152  10.278   7.841   5.440 -0.4611  0.6416 -0.3808
  172MOL0     H23153  10.148   7.610   5.842 -0.2961  1.9590  1.6552
  172MOL0     H23154   9.969   7.527   6.016 -1.7668 -2.5622 -0.5031
  172MOL0     H23155   9.814   7.593   6.192  0.6389  0.7231 -1.8634
  172MOL0     H23156   9.689   7.688   6.136  3.9092  1.9645  1.0982
  172MOL0     H23157   9.535   7.468   6.200  0.1038 -0.7634 -0.9959
  172MOL0     H23158   9.680   7.377   6.222  1.6315  0.2767 -0.5298
  172MOL0     H23159   9.738   7.552   6.397  0.7048 -0.3204  0.4913
  172MOL0     H23160   9.566   7.609   6.373 -2.7645 -2.1158 -0.1508
  172MOL0     H23161   9.469   7.424   6.466 -0.9824 -1.7218  0.2921
  172MOL0     H23162   9.613   7.314   6.430 -1.2918 -1.4764  3.4559
  172MOL0     H23163   9.721   7.378   6.619  2.0144  3.6337  0.5446
  172MOL0     H23164   9.625   7.522   6.645 -1.5514  0.5998 -0.2976
  172MOL0     H23165   9.565   7.376   6.821 -1.9731  0.6103  0.3427
  172MOL0     H23166   9.424   7.389   6.709 -0.5558 -0.3346 -0.1400
  172MOL0     H23167   9.455   7.174   6.620  1.1647 -3.5666 -0.9389
  172MOL0     H23168   9.628   7.165   6.638 -1.8725 -0.2932 -1.6293
  172MOL0     H23169   9.432   7.157   6.863  1.9366  1.7518  2.8053
  172MOL0     H23170   9.602   7.152   6.893 -1.7776 -1.2439  2.0906
  172MOL0     H23171   9.598   6.898   7.022 -1.9888 -0.9013  0.6232
  172MOL0     H23172   9.764   6.640   6.883  0.0696 -0.2377 -1.4626
  172MOL0     H23173   9.643   6.634   7.002  1.6582  0.4513  1.8139
  172MOL0     H23174   9.664   6.431   6.813  0.7978  0.0855 -1.9489
  172MOL0     H23175   9.568   6.541   6.710  0.9823 -1.2306 -0.7701
  172MOL0     H23176   9.408   6.580   6.909  1.4539  0.8033 -0.3941
  172MOL0     H23177   9.502   6.462   7.000 -2.0977 -0.4927  0.5441
  172MOL0     H23178   9.464   6.302   6.795  2.3686 -0.0291  2.6171
  172MOL0     H23179   9.317   6.416   6.778 -1.2581  0.9546  2.6520
  172MOL0     H23180   9.164   6.251   7.113  4.0643  2.3365 -0.8001
  172MOL0     H23181   8.791   6.210   7.119 -0.3548  1.2656  0.7505
  172MOL0     H23182   8.914   6.112   7.186 -0.1129 -0.6248  0.0887
  172MOL0     H23183   8.940   6.287   7.177 -0.3366 -2.0036  1.9667
  172MOL0     H23184   8.516   6.274   6.834 -0.3479 -1.0612 -0.2400
  172MOL0     H23185   8.283   6.194   6.738  1.9932  0.4889 -3.2480
  172MOL0     H23186   8.251   6.035   6.539  0.0948 -0.0067  1.0520
  172MOL0     H23187   8.283   5.867   6.555  3.5933  3.0092  0.6086
  172MOL0     H23188   8.094   5.844   6.429 -1.8827 -0.1489 -0.3505
  172MOL0     H23189   8.026   5.843   6.594  0.1537  1.5953  1.6453
  172MOL0     H23190   8.042   6.082   6.407  2.3967 -1.9792  0.5815
  172MOL0     H23191   8.005   6.087   6.586  1.6446 -2.7750  2.1147
  172MOL0     H23192   7.861   5.925   6.378  3.8192  0.1335  0.3166
  172MOL0     H23193   7.804   5.960   6.548 -3.4354  2.2577 -2.1128
  172MOL0     H23194   7.836   6.183   6.336  1.9190 -1.6018 -0.3340
  172MOL0     H23195   7.813   6.188   6.508  3.1104  0.7022 -1.0385
  172MOL0     H23196   7.586   6.039   6.431  1.4721 -1.9931 -0.0290
  172MOL0     H23197   7.593   6.203   6.373  1.2531 -0.2164  0.5909
  172MOL0     H23198   7.715   5.965   6.217  0.0877  0.9213  0.3000
  172MOL0     H23199   7.671   6.130   6.146 -2.3345  0.6670 -0.6168
  172MOL0     H23200   7.465   5.938   6.249 -1.1032 -0.4869 -1.3911
  172MOL0     H23201   7.507   5.962   6.079 -2.9358  0.2838  0.3207
  172MOL0     H23202   8.403   5.794   6.791  0.9106  0.0237  0.6329
  172MOL0     H23203   8.610   5.869   6.913 -0.8426  0.1589  2.6144
  172MOL0     H23204   9.010   6.119   6.663 -0.8275 -2.0344  1.1612
  172MOL0     H23205   9.234   6.211   6.702  1.6366  2.3947  1.2844
  172MOL0     H23206   9.663   7.607   5.762 -0.8966 -0.3760  0.7169
  172MOL0     H23207   9.805   7.706   5.597 -1.7027 -0.0176 -0.1181
  172MOL0     H23208  10.007   7.964   5.280  0.0133 -1.5431  1.7047
  172MOL0     H23209  10.169   8.012   5.118  2.3767 -0.9844 -0.8479
  172MOL0     H23210  10.343   7.930   4.954 -1.9830  1.0981  0.0162
  172MOL0     H23211  10.354   8.099   4.976  0.8130 -0.3437 -0.5154
  172MOL0     H23212  10.504   8.057   4.812  0.9828  1.1433  0.3759
  172MOL0     H23213  10.604   7.956   4.911  0.2636 -0.6676  0.4607
  172MOL0     H23214  10.717   8.144   4.920  0.1383  2.5634  1.1570
  172MOL0     H23215  10.618   8.147   5.070 -0.8432 -1.3567 -0.0700
  172MOL0     H23216  10.470   8.316   4.967 -1.4152 -1.6520 -1.8370
  172MOL0     H23217  10.534   8.289   4.811  1.6851  2.1136 -0.8358
  172MOL0     H23218  10.797   8.584   4.955  1.6486 -0.3969 -3.1424
  172MOL0     H23219  10.485   7.888   5.369 -0.4046  2.1011  3.2245
  172MOL0     H23220  10.310   7.794   5.532  1.3189  2.1516 -0.1699
  173MOL0     O23221   0.528   8.335   4.763 -0.6668 -0.4799  0.4939
  173MOL0     C23222   0.587   8.438   4.806 -0.4951 -0.2011  0.0834
  173MOL0     O23223   0.530   8.561   4.798 -0.0656 -0.1983 -0.1435
  173MOL0     C23224   0.422   8.569   4.715  1.0450  0.0603 -0.0278
  173MOL0     C23225   0.293   8.526   4.767 -0.2925 -0.1200  0.8375
  173MOL0     C23226   0.185   8.523   4.680  0.6836  0.2826 -0.0599
  173MOL0     C23227   0.185   8.586   4.554 -0.1974  0.9793  0.0843
  173MOL0     O23228   0.069   8.596   4.482 -0.0987  0.9544  0.8884
  173MOL0     C23229   0.035   8.726   4.434  0.0371 -0.0815  0.2736
  173MOL0     C23230  -0.105   8.711   4.375 -0.5046  0.1078  0.3305
  173MOL0     C23231  -0.207   8.706   4.484 -0.3873  0.3757  0.2560
  173MOL0     C23232  -0.346   8.679   4.441  0.4117 -0.7104 -0.1831
  173MOL0     C23233  -0.450   8.678   4.562 -0.4149 -0.4600  0.4965
  173MOL0     C23234  -0.586   8.671   4.494 -0.5140 -0.6059 -0.3847
  173MOL0     C23235  -0.659   8.535   4.529 -0.3065  0.4625  0.3539
  173MOL0     C23236  -0.813   8.548   4.504 -0.5120 -0.1638 -0.1551
  173MOL0     N23237  -0.847   8.604   4.367 -0.3764  0.4411 -0.0973
  173MOL0     C23238  -0.840   8.522   4.258 -0.3825 -0.2902 -0.0171
  173MOL0     C23239  -0.855   8.611   4.159 -0.2823 -0.3023  0.0475
  173MOL0     C23240  -0.858   8.572   4.010  0.1882  0.4336  0.2721
  173MOL0     C23241  -0.995   8.557   3.946  0.0346  0.1307 -0.2278
  173MOL0     C23242  -1.007   8.494   3.807 -0.4066 -0.4292  0.0391
  173MOL0     C23243  -1.152   8.475   3.761 -0.5031 -0.4943  0.6320
  173MOL0     O23244  -1.219   8.598   3.713 -0.1007  0.9372  0.1679
  173MOL0     C23245  -1.172   8.662   3.604 -0.0335  0.5882 -0.2551
  173MOL0     C23246  -1.193   8.797   3.599  0.1933 -0.0076 -0.5664
  173MOL0     C23247  -1.159   8.868   3.482 -0.7552  0.2077 -0.3065
  173MOL0     C23248  -1.202   9.012   3.484  0.3565  0.5027  0.2348
  173MOL0     C23249  -1.093   8.802   3.375 -0.4549  0.4150 -0.5705
  173MOL0     C23250  -1.032   8.876   3.251  0.3228  0.9092 -0.0012
  173MOL0     O23251  -1.046   9.015   3.242 -0.1107  0.2747 -0.0959
  173MOL0     C23252  -1.032   9.073   3.115 -0.1387 -0.1230  0.2042
  173MOL0     C23253  -1.012   9.211   3.113 -0.5139  0.0535 -0.1858
  173MOL0     C23254  -1.014   9.275   2.980  0.6619  0.4615 -0.1170
  173MOL0     C23255  -1.045   9.200   2.860  1.0180 -0.3835 -0.0918
  173MOL0     O23256  -1.034   9.254   2.735  0.7922 -0.3221  0.2738
  173MOL0     C23257  -0.935   9.355   2.713  0.0603  0.2129  0.2249
  173MOL0     C23258  -0.960   9.393   2.564  0.3311  0.2006 -0.0775
  173MOL0     C23259  -0.853   9.495   2.510 -0.0732  0.4262 -0.1432
  173MOL0     C23260  -0.877   9.534   2.362  0.7463  0.5892 -0.1157
  173MOL0     C23261  -0.746   9.586   2.313  0.2893 -0.3386 -0.2783
  173MOL0     C23262  -0.747   9.639   2.167 -0.5611 -0.0609 -0.0468
  173MOL0     C23263  -0.599   9.668   2.128  1.4589 -0.3844 -0.3541
  173MOL0     C23264  -0.590   9.763   2.006 -0.5927  0.2144  0.2859
  173MOL0    Cl23265  -0.559   9.648   1.876 -0.3838  0.5207 -0.1837
  173MOL0     C23266  -1.075   9.069   2.871  0.4212  0.2821  0.5175
  173MOL0     C23267  -1.066   9.010   2.994 -0.5274  0.0214  0.3426
  173MOL0     O23268  -0.973   8.803   3.162  0.6454  0.3471 -0.4574
  173MOL0     C23269  -1.070   8.666   3.382  0.1840 -0.0119  0.4331
  173MOL0     C23270  -1.115   8.598   3.492 -0.0628  0.5445 -0.6682
  173MOL0     N23271  -0.862   8.748   4.206 -1.3425 -0.2525 -0.2074
  173MOL0     N23272  -0.841   8.737   4.334  1.0008 -0.2087  0.1630
  173MOL0     C23273   0.311   8.631   4.510 -0.4762  0.3152  0.4057
  173MOL0     C23274   0.429   8.622   4.583 -0.5629  0.7448  0.0048
  173MOL0     C23275   0.712   8.421   4.887 -0.6432  0.2029  0.0717
  173MOL0     C23276   0.779   8.298   4.892 -0.3135  0.1130 -0.1128
  173MOL0     C23277   0.894   8.275   4.979 -0.8831  0.8236  0.6793
  173MOL0     C23278   0.947   8.382   5.053  1.1058 -0.3277  1.1620
  173MOL0     O23279   1.029   8.358   5.154 -0.4543  0.1102  1.1116
  173MOL0     C23280   1.172   8.381   5.118  0.0253  0.0309 -0.2604
  173MOL0     C23281   1.208   8.516   5.189 -0.4029  0.8985  0.3447
  173MOL0     C23282   1.303   8.595   5.108 -0.6832  0.8215  0.2397
  173MOL0     C23283   1.330   8.736   5.161  0.4922 -0.8690 -0.0921
  173MOL0     C23284   1.354   8.723   5.305 -0.6884  0.6272 -0.0790
  173MOL0     C23285   1.394   8.732   5.423  0.8207 -0.7881  0.6035
  173MOL0     C23286   0.895   8.512   5.029  0.1571  0.7158 -0.2756
  173MOL0     C23287   0.783   8.528   4.946 -0.0788  0.3566 -0.2965
  173MOL0     H23288   0.291   8.471   4.861 -0.1082  0.0571  0.9464
  173MOL0     H23289   0.098   8.476   4.725  0.2760 -0.1899 -1.2821
  173MOL0     H23290   0.021   8.796   4.517  2.6864  0.0538  0.6852
  173MOL0     H23291   0.106   8.771   4.363  1.1970 -0.5756  1.0805
  173MOL0     H23292  -0.133   8.793   4.308 -1.9613 -0.8143 -0.2452
  173MOL0     H23293  -0.125   8.621   4.316  2.2434  1.1928 -2.5413
  173MOL0     H23294  -0.174   8.632   4.558  1.8534  2.0472  1.0007
  173MOL0     H23295  -0.213   8.800   4.539  0.1447  0.1431  0.7208
  173MOL0     H23296  -0.368   8.764   4.375  1.6335 -2.0220 -2.4076
  173MOL0     H23297  -0.346   8.591   4.377  0.8570  0.1452 -1.4062
  173MOL0     H23298  -0.420   8.593   4.623  0.5164 -2.6757 -2.7647
  173MOL0     H23299  -0.441   8.776   4.611  3.9902 -0.1375 -0.5054
  173MOL0     H23300  -0.646   8.757   4.525  1.9717  2.0044 -2.2624
  173MOL0     H23301  -0.585   8.693   4.387 -0.0897  0.8692 -0.1021
  173MOL0     H23302  -0.604   8.467   4.464 -0.1865  0.7053  0.2005
  173MOL0     H23303  -0.639   8.491   4.627  1.5547 -2.3693 -1.1641
  173MOL0     H23304  -0.852   8.616   4.581  2.1094  1.8649 -0.4902
  173MOL0     H23305  -0.866   8.453   4.514 -1.2231  0.2309 -0.1020
  173MOL0     H23306  -0.829   8.415   4.248  2.5929  0.1363 -3.1688
  173MOL0     H23307  -0.802   8.636   3.941 -0.6361 -0.3087 -1.1552
  173MOL0     H23308  -0.820   8.470   3.999 -2.3491 -1.0860  3.7728
  173MOL0     H23309  -1.034   8.659   3.932  0.4977  0.0858 -2.2403
  173MOL0     H23310  -1.061   8.500   4.011  0.0496  0.2561 -0.1018
  173MOL0     H23311  -0.942   8.406   3.813 -0.5272 -0.4313  2.9101
  173MOL0     H23312  -0.948   8.555   3.738  2.5813 -2.2876  0.7739
  173MOL0     H23313  -1.210   8.446   3.849 -0.5414  0.7515  1.0357
  173MOL0     H23314  -1.150   8.403   3.679  2.7151  1.1878 -0.9566
  173MOL0     H23315  -1.248   8.831   3.686  0.8492  2.1424 -0.9164
  173MOL0     H23316  -1.121   9.077   3.520 -2.0195  3.2297  1.0631
  173MOL0     H23317  -1.235   9.042   3.385  0.9078 -2.6530 -1.0109
  173MOL0     H23318  -1.297   9.023   3.536 -0.0246 -1.0306 -0.0797
  173MOL0     H23319  -1.006   9.263   3.208  0.5525 -0.1688 -0.1160
  173MOL0     H23320  -0.984   9.378   2.996  1.4204 -0.2704  4.7032
  173MOL0     H23321  -0.940   9.446   2.774  2.8189 -0.6357  1.9302
  173MOL0     H23322  -0.835   9.312   2.721  0.3819  0.6583 -1.1082
  173MOL0     H23323  -0.974   9.303   2.504  0.5747 -1.6136  2.4286
  173MOL0     H23324  -1.050   9.455   2.555 -0.7439 -1.4063 -0.8291
  173MOL0     H23325  -0.751   9.456   2.517  0.7671  2.5117  0.2269
  173MOL0     H23326  -0.855   9.581   2.578  4.0891  2.8328 -2.6066
  173MOL0     H23327  -0.916   9.463   2.289 -0.8603  2.7274 -1.4924
  173MOL0     H23328  -0.952   9.614   2.360 -1.3863 -1.2721  1.2189
  173MOL0     H23329  -0.671   9.508   2.328 -0.7478 -1.9432 -2.7560
  173MOL0     H23330  -0.714   9.669   2.376 -2.4180  2.0849 -1.8542
  173MOL0     H23331  -0.777   9.558   2.100 -1.5771 -1.0561  1.5224
  173MOL0     H23332  -0.821   9.719   2.158  0.1620  0.7289  0.8174
  173MOL0     H23333  -0.537   9.579   2.112  0.5709 -1.1975  0.5789
  173MOL0     H23334  -0.557   9.720   2.214  0.3450 -0.4518  0.2509
  173MOL0     H23335  -0.518   9.845   2.016 -2.7655  2.0802  2.0358
  173MOL0     H23336  -0.686   9.817   2.007 -1.1221 -0.6388 -1.3319
  173MOL0     H23337  -1.105   9.010   2.785  1.0067  0.6629  0.0506
  173MOL0     H23338  -1.113   8.912   2.998 -2.5925  1.0201  1.9703
  173MOL0     H23339  -1.034   8.603   3.301  1.7183 -4.9234  4.3560
  173MOL0     H23340  -1.115   8.490   3.482 -0.6266  0.6095 -1.4329
  173MOL0     H23341   0.309   8.669   4.409 -1.7825  0.0434  0.3104
  173MOL0     H23342   0.517   8.664   4.536 -1.2623 -2.2370 -4.5900
  173MOL0     H23343   0.739   8.207   4.849 -0.1816 -0.8464  1.6845
  173MOL0     H23344   0.923   8.172   4.990  0.2672  1.1228  0.5995
  173MOL0     H23345   1.234   8.296   5.149 -3.4029 -1.4085  3.6037
  173MOL0     H23346   1.176   8.397   5.010 -1.8933 -1.5602 -0.6185
  173MOL0     H23347   1.253   8.498   5.287  3.7703 -3.2723 -1.9279
  173MOL0     H23348   1.120   8.578   5.209  1.1668  3.1747  0.5882
  173MOL0     H23349   1.275   8.598   5.002  0.1402  0.7869  0.0146
  173MOL0     H23350   1.397   8.540   5.115 -1.3987 -0.4957 -0.1488
  173MOL0     H23351   1.256   8.809   5.129  2.9322  2.1318  0.6928
  173MOL0     H23352   1.426   8.769   5.119  0.5300  1.6869  1.8066
  173MOL0     H23353   1.449   8.758   5.510  2.2037  2.4056 -1.0619
  173MOL0     H23354   0.940   8.605   5.061 -0.8813  1.7749 -1.7422
  173MOL0     H23355   0.740   8.628   4.947 -2.2128 -0.4493 -2.1193
  174MOL0     O23356   2.120   6.353   8.840 -0.2860  0.2903  0.8830
  174MOL0     C23357   2.053   6.265   8.781  0.5710 -1.0301 -0.6648
  174MOL0     O23358   2.082   6.140   8.796 -0.3399 -0.1602  0.5684
  174MOL0     C23359   2.182   6.092   8.882  0.1080 -0.1359  0.2174
  174MOL0     C23360   2.306   6.143   8.908 -0.8707  0.3034  0.2671
  174MOL0     C23361   2.402   6.078   8.975  0.0829  0.4596  1.1652
  174MOL0     C23362   2.365   5.951   9.045 -0.5356 -0.5660  0.4533
  174MOL0     O23363   2.432   5.877   9.131 -0.3409  0.0887  0.7905
  174MOL0     C23364   2.502   5.954   9.233  0.8276  0.8270 -0.0655
  174MOL0     C23365   2.453   5.886   9.368  0.6750 -0.3029  0.5890
  174MOL0     C23366   2.549   5.931   9.484  0.0811 -0.7753 -0.0004
  174MOL0     C23367   2.557   6.084   9.502 -0.2890 -0.0740 -0.4271
  174MOL0     C23368   2.426   6.153   9.533 -0.1028 -0.8301 -0.6651
  174MOL0     C23369   2.379   6.101   9.673  1.1562 -0.2682 -0.7458
  174MOL0     C23370   2.261   6.191   9.720 -0.4216  0.0497  0.2542
  174MOL0     C23371   2.240   6.203   9.879 -0.7105  0.1200  0.5112
  174MOL0     N23372   2.138   6.312   9.892  0.8721  0.8425 -1.0486
  174MOL0     C23373   2.160   6.442   9.875 -1.1089  0.5224 -0.0292
  174MOL0     C23374   2.050   6.504   9.906 -0.1665 -0.2022 -0.1979
  174MOL0     C23375   2.031   6.654   9.891 -0.1135 -0.1443 -0.7835
  174MOL0     C23376   2.010   6.675   9.742 -0.0959 -0.6571 -0.3301
  174MOL0     C23377   1.974   6.819   9.704  1.0983 -0.2737  0.3415
  174MOL0     C23378   1.918   6.827   9.566 -0.2457 -0.3848  0.3222
  174MOL0     O23379   1.883   6.959   9.536 -0.1342 -0.0692 -0.0090
  174MOL0     C23380   1.799   6.969   9.425  0.2653  0.3683  0.2410
  174MOL0     C23381   1.677   6.897   9.420 -0.5952  0.8644 -0.0107
  174MOL0     C23382   1.591   6.910   9.315 -0.3666  0.3420  0.5791
  174MOL0     C23383   1.450   6.843   9.326 -0.5084  0.1783  0.2650
  174MOL0     C23384   1.626   6.997   9.212 -0.3170 -0.1453  0.2540
  174MOL0     C23385   1.544   6.995   9.090 -0.6660  0.3784  0.3088
  174MOL0     O23386   1.556   6.880   9.015 -0.5150  1.0347  0.7112
  174MOL0     C23387   1.513   6.876   8.889 -0.9244 -0.2186  0.4411
  174MOL0     C23388   1.547   6.985   8.803  0.4666 -0.6996  0.1037
  174MOL0     C23389   1.498   6.979   8.666 -0.6448  0.6873 -0.1436
  174MOL0     C23390   1.420   6.869   8.622 -0.1227  0.5990 -0.0960
  174MOL0     O23391   1.342   6.864   8.508  0.2433 -0.3324 -0.1244
  174MOL0     C23392   1.321   6.993   8.450 -1.0905 -0.0192 -0.1588
  174MOL0     C23393   1.202   6.997   8.356  0.8808  0.8958 -0.9146
  174MOL0     C23394   1.199   6.879   8.260 -0.0678  0.2148  0.2816
  174MOL0     C23395   1.071   6.896   8.175 -0.3685 -0.3269  0.5006
  174MOL0     C23396   1.037   6.787   8.077 -0.3023  0.1044  0.2947
  174MOL0     C23397   1.131   6.768   7.956  0.1952 -0.6025 -0.6333
  174MOL0     C23398   1.113   6.643   7.876  0.0845  0.5217  0.4656
  174MOL0     C23399   1.189   6.647   7.749 -0.2274  0.2779  0.0587
  174MOL0    Cl23400   1.119   6.529   7.632 -0.1699  0.2187 -0.0746
  174MOL0     C23401   1.412   6.762   8.706 -0.2025 -0.6693  0.8573
  174MOL0     C23402   1.462   6.762   8.835  0.5130  0.1737  0.1970
  174MOL0     O23403   1.456   7.079   9.072  0.1813 -0.4900 -0.0880
  174MOL0     C23404   1.743   7.080   9.218 -0.5123 -0.9020 -0.2935
  174MOL0     C23405   1.830   7.064   9.325 -0.0645 -0.5304  0.1193
  174MOL0     N23406   1.957   6.410   9.946 -0.3576  0.0417  0.1045
  174MOL0     N23407   2.006   6.293   9.931 -0.0834 -0.4193  0.6901
  174MOL0     C23408   2.243   5.892   9.015  0.2816 -0.2960  0.7601
  174MOL0     C23409   2.154   5.966   8.930 -0.3709  0.2997  0.1754
  174MOL0     C23410   1.943   6.314   8.699 -0.3079  0.3675  0.3705
  174MOL0     C23411   1.913   6.239   8.580  0.3106  0.4427 -0.4003
  174MOL0     C23412   1.811   6.285   8.495 -0.0924 -0.6126 -0.0675
  174MOL0     C23413   1.741   6.402   8.519 -0.3175 -0.1604  0.4247
  174MOL0     O23414   1.648   6.440   8.420 -0.0475  0.1330  0.1694
  174MOL0     C23415   1.556   6.545   8.444 -0.2830  0.2680  0.2053
  174MOL0     C23416   1.456   6.563   8.321  0.0281 -0.4900 -0.1355
  174MOL0     C23417   1.531   6.565   8.191 -0.7830  1.0214 -0.6060
  174MOL0     C23418   1.448   6.563   8.064 -0.1207 -0.1828 -0.0348
  174MOL0     C23419   1.362   6.446   8.043  0.0738  0.5646  0.0779
  174MOL0     C23420   1.284   6.349   8.039 -0.1723 -0.7243  0.5880
  174MOL0     C23421   1.775   6.473   8.640  0.0486  0.2580  0.4750
  174MOL0     C23422   1.875   6.425   8.726  0.8805 -0.7085 -0.4354
  174MOL0     H23423   2.343   6.227   8.850  1.0266 -0.8775 -0.3347
  174MOL0     H23424   2.499   6.127   8.982  1.0621 -1.6225  5.3020
  174MOL0     H23425   2.609   5.940   9.212  0.4805 -0.5890 -0.9979
  174MOL0     H23426   2.471   6.058   9.251 -1.4842  0.6079 -2.3209
  174MOL0     H23427   2.346   5.900   9.383  0.4672 -0.5461 -0.5712
  174MOL0     H23428   2.457   5.776   9.362 -0.7792 -0.4247  1.5833
  174MOL0     H23429   2.511   5.881   9.574  1.0621 -1.8194 -0.1347
  174MOL0     H23430   2.649   5.887   9.472  0.0518 -1.4668  1.9557
  174MOL0     H23431   2.628   6.104   9.583  0.9911 -2.0745 -0.9815
  174MOL0     H23432   2.612   6.133   9.421  1.9019 -1.4210  0.1644
  174MOL0     H23433   2.456   6.258   9.549  0.3420 -0.3224 -4.1682
  174MOL0     H23434   2.347   6.148   9.458 -1.8451  1.8583  0.8168
  174MOL0     H23435   2.346   5.999   9.652  1.6771 -0.5823 -0.0911
  174MOL0     H23436   2.448   6.090   9.757 -3.2747 -0.7265  3.1804
  174MOL0     H23437   2.276   6.289   9.673  0.2732  0.5927  1.5684
  174MOL0     H23438   2.165   6.151   9.684 -1.9968  0.2727  3.7662
  174MOL0     H23439   2.330   6.228   9.935 -1.7185 -0.6042  2.5463
  174MOL0     H23440   2.205   6.108   9.921  1.4110 -1.3743 -0.9263
  174MOL0     H23441   2.248   6.488   9.831 -0.7452  1.2322  1.4060
  174MOL0     H23442   1.942   6.677   9.951  0.6213  0.5296  0.0717
  174MOL0     H23443   2.113   6.713   9.932 -0.7684  1.7391 -2.0736
  174MOL0     H23444   1.927   6.609   9.716 -1.0131  1.0696 -2.0110
  174MOL0     H23445   2.101   6.644   9.689  0.2494 -0.0501 -0.1015
  174MOL0     H23446   2.064   6.881   9.709  2.1723 -1.5481 -1.5727
  174MOL0     H23447   1.900   6.852   9.777  1.3960  1.6928 -0.2012
  174MOL0     H23448   1.832   6.760   9.563  0.4320 -1.4513  2.4516
  174MOL0     H23449   1.988   6.779   9.497  1.4980  0.9943  1.0441
  174MOL0     H23450   1.653   6.820   9.493  1.4928  2.1672  2.1638
  174MOL0     H23451   1.395   6.858   9.233  1.0198  3.4823 -0.2636
  174MOL0     H23452   1.461   6.735   9.336  2.8233  0.4129  0.3267
  174MOL0     H23453   1.403   6.886   9.415  0.6358  2.2780 -0.0718
  174MOL0     H23454   1.598   7.071   8.844  0.3795  0.0513 -1.2896
  174MOL0     H23455   1.524   7.061   8.600  0.7837  2.4841  2.4700
  174MOL0     H23456   1.302   7.071   8.523 -2.5284  1.0753 -1.6277
  174MOL0     H23457   1.411   7.025   8.397 -0.4070 -0.6358  0.5970
  174MOL0     H23458   1.108   6.992   8.412  0.7977  1.0091 -1.0453
  174MOL0     H23459   1.203   7.094   8.307 -2.4498  1.3745 -0.2750
  174MOL0     H23460   1.189   6.779   8.303 -0.4418 -0.9722 -2.3476
  174MOL0     H23461   1.287   6.876   8.195  0.6891 -0.2766  1.3029
  174MOL0     H23462   0.983   6.905   8.240  1.3416 -1.4162  3.1548
  174MOL0     H23463   1.084   6.987   8.117  0.1277 -1.9226 -2.0306
  174MOL0     H23464   0.939   6.811   8.035 -1.1262 -1.8104  0.9898
  174MOL0     H23465   1.032   6.693   8.134 -1.0129 -0.4143 -0.5902
  174MOL0     H23466   1.116   6.856   7.893  2.6565  1.2671  1.2197
  174MOL0     H23467   1.233   6.784   7.990 -0.7272  1.4196  1.4568
  174MOL0     H23468   1.006   6.634   7.859  0.2314 -1.0572  0.1520
  174MOL0     H23469   1.144   6.553   7.931 -3.7351 -0.6960  0.8711
  174MOL0     H23470   1.296   6.630   7.767 -0.0629  3.4425  3.2691
  174MOL0     H23471   1.168   6.748   7.714 -1.7777  0.7938  2.2428
  174MOL0     H23472   1.362   6.676   8.664  0.6412  0.3794 -2.6099
  174MOL0     H23473   1.461   6.670   8.893  0.1360 -0.3083 -0.5589
  174MOL0     H23474   1.775   7.156   9.147  1.4451 -3.4087 -2.2885
  174MOL0     H23475   1.922   7.122   9.328 -0.0721 -0.5126  3.2324
  174MOL0     H23476   2.221   5.788   9.039 -0.5707 -0.8051 -1.8657
  174MOL0     H23477   2.060   5.917   8.907  0.0720 -0.7025  0.4262
  174MOL0     H23478   1.965   6.145   8.567  0.2309  0.4230 -0.5712
  174MOL0     H23479   1.799   6.239   8.397 -0.2200  0.6599 -0.6805
  174MOL0     H23480   1.509   6.529   8.541  1.4334  0.0437  1.0259
  174MOL0     H23481   1.616   6.636   8.451  2.3042 -1.2470 -0.7783
  174MOL0     H23482   1.405   6.658   8.336  2.9261  1.1524 -0.0263
  174MOL0     H23483   1.379   6.487   8.336 -2.4504  2.4493  4.0855
  174MOL0     H23484   1.583   6.469   8.180 -1.2165  0.8254 -0.9507
  174MOL0     H23485   1.599   6.649   8.171 -1.5715  1.3044 -2.2835
  174MOL0     H23486   1.510   6.565   7.974 -1.4658  0.3983 -0.9872
  174MOL0     H23487   1.389   6.656   8.064 -1.1945 -0.7689  2.7643
  174MOL0     H23488   1.230   6.257   8.024 -0.3011 -0.5729  0.1114
  174MOL0     H23489   1.729   6.571   8.643 -0.8423 -0.1196 -0.2125
  174MOL0     H23490   1.905   6.495   8.804 -0.5806  0.2684 -0.7121
  175MOL0     O23491   2.926   5.739  10.819 -0.1908  0.7975 -0.7002
  175MOL0     C23492   2.881   5.638  10.873 -0.1469  0.2568  0.6617
  175MOL0     O23493   2.784   5.556  10.825 -0.4830 -0.4993  0.1701
  175MOL0     C23494   2.713   5.577  10.701 -0.0967  0.2526  0.2969
  175MOL0     C23495   2.595   5.508  10.694 -0.6355  0.2053  0.3974
  175MOL0     C23496   2.512   5.526  10.587 -0.6749  0.6407 -0.8005
  175MOL0     C23497   2.550   5.599  10.470  0.4799  0.1286 -0.6568
  175MOL0     O23498   2.490   5.616  10.348 -0.0111  0.0126  0.3830
  175MOL0     C23499   2.356   5.670  10.361 -0.7300 -0.5898 -1.1688
  175MOL0     C23500   2.264   5.550  10.327  0.5324 -0.6168 -0.1788
  175MOL0     C23501   2.271   5.502  10.180  0.1670  0.4728  0.5127
  175MOL0     C23502   2.175   5.384  10.173 -0.1243 -0.5538 -0.2329
  175MOL0     C23503   2.195   5.316  10.039  0.4449 -0.3565  0.4908
  175MOL0     C23504   2.116   5.189  10.037  0.1525 -0.7094  0.1051
  175MOL0     C23505   2.129   5.118   9.901  0.7990  0.6885 -0.3053
  175MOL0     C23506   2.018   5.013   9.885 -0.6552 -1.0025  0.9214
  175MOL0     N23507   2.043   4.949   9.751  0.5246 -0.2862 -0.8666
  175MOL0     C23508   1.938   4.887   9.694 -0.8132 -0.2190  0.1117
  175MOL0     C23509   2.003   4.799   9.605  0.6247  0.3264  0.6655
  175MOL0     C23510   1.922   4.728   9.500  0.6043 -0.0739 -0.1414
  175MOL0     C23511   1.951   4.575   9.480  0.0099 -0.2599  0.3071
  175MOL0     C23512   2.088   4.544   9.422  0.0228  0.0812 -0.7983
  175MOL0     C23513   2.126   4.626   9.301 -1.0360 -0.3790  0.2884
  175MOL0     O23514   2.013   4.629   9.209 -0.5297  0.3252 -0.0621
  175MOL0     C23515   2.033   4.661   9.077  0.0855  0.0039 -0.6442
  175MOL0     C23516   1.918   4.686   9.009 -0.0154 -0.8675 -0.1761
  175MOL0     C23517   1.917   4.724   8.874 -0.2196  0.6136 -0.3785
  175MOL0     C23518   1.779   4.756   8.821 -0.4569  0.3258  0.7240
  175MOL0     C23519   2.038   4.733   8.803 -0.6642 -0.1543 -0.0272
  175MOL0     C23520   2.055   4.780   8.660 -0.1258 -0.9379  0.2198
  175MOL0     O23521   2.182   4.835   8.632  0.9182 -0.8035 -0.3276
  175MOL0     C23522   2.198   4.908   8.521 -0.2222  0.4877  1.0463
  175MOL0     C23523   2.198   5.053   8.525 -0.2836 -0.4091  0.2246
  175MOL0     C23524   2.221   5.123   8.404  0.3053 -0.5030  0.2019
  175MOL0     C23525   2.242   5.051   8.285 -0.2505 -0.2883  0.6899
  175MOL0     O23526   2.266   5.121   8.171  0.6819 -0.0597 -0.0411
  175MOL0     C23527   2.390   5.195   8.160 -0.2552 -0.2754 -0.5909
  175MOL0     C23528   2.408   5.242   8.017 -0.3061  0.1068 -0.9050
  175MOL0     C23529   2.452   5.139   7.912  0.1663 -0.2512 -0.0551
  175MOL0     C23530   2.416   5.174   7.774  0.1045  0.9913  0.3374
  175MOL0     C23531   2.483   5.075   7.680  0.5075 -0.1758  0.4007
  175MOL0     C23532   2.452   5.124   7.538  0.2211  0.4039  0.1798
  175MOL0     C23533   2.505   5.021   7.434  0.2658  0.4298  0.2607
  175MOL0     C23534   2.529   5.081   7.300 -0.3677  0.3929  0.0662
  175MOL0    Cl23535   2.679   5.180   7.306 -0.0424  0.0643  0.2231
  175MOL0     C23536   2.240   4.916   8.283  0.3124  0.2000 -0.4408
  175MOL0     C23537   2.218   4.836   8.398 -0.0447 -0.2883 -0.8469
  175MOL0     O23538   1.971   4.749   8.579  0.3038  0.5144 -1.0189
  175MOL0     C23539   2.156   4.708   8.878  0.6002 -0.3040 -0.1279
  175MOL0     C23540   2.154   4.672   9.009  1.3017  0.3927 -0.3109
  175MOL0     N23541   2.137   4.803   9.624 -0.3375 -0.8862  0.4706
  175MOL0     N23542   2.158   4.885   9.720  0.6635 -1.3516  0.5977
  175MOL0     C23543   2.672   5.668  10.477 -0.1849  0.3134  0.3074
  175MOL0     C23544   2.750   5.661  10.593 -0.4841 -0.5232 -0.2841
  175MOL0     C23545   2.935   5.606  11.007 -0.7534 -0.1888  0.5969
  175MOL0     C23546   3.004   5.710  11.082  0.5788  0.7491 -0.9409
  175MOL0     C23547   3.039   5.676  11.218  0.7584  0.1554  0.1498
  175MOL0     C23548   3.017   5.556  11.272 -0.3551  0.4135 -0.0491
  175MOL0     O23549   3.052   5.514  11.403  0.3695 -0.2219 -0.2308
  175MOL0     C23550   3.076   5.615  11.509 -0.4667 -0.2353 -0.3845
  175MOL0     C23551   3.056   5.554  11.655 -0.8380  0.5104  0.1651
  175MOL0     C23552   2.909   5.504  11.666 -0.6429 -0.4664  0.6488
  175MOL0     C23553   2.888   5.418  11.787 -0.6340 -0.7080 -0.5155
  175MOL0     C23554   2.746   5.416  11.828 -0.4089 -0.5795  0.1020
  175MOL0     C23555   2.635   5.413  11.866 -0.0470  0.3287  0.1632
  175MOL0     C23556   2.958   5.460  11.190 -0.6361  1.2125  0.4599
  175MOL0     C23557   2.903   5.482  11.062  0.1851 -0.1148  0.6636
  175MOL0     H23558   2.558   5.443  10.773 -0.1581  1.6356  1.8543
  175MOL0     H23559   2.417   5.478  10.565 -0.9905  1.2966 -0.8850
  175MOL0     H23560   2.331   5.707  10.461 -1.0513  3.5665 -2.6031
  175MOL0     H23561   2.345   5.752  10.290  0.9586  0.3595 -0.3951
  175MOL0     H23562   2.276   5.463  10.392 -1.7830 -1.2671 -0.5282
  175MOL0     H23563   2.159   5.582  10.335 -0.9291 -4.8754  0.4427
  175MOL0     H23564   2.234   5.572  10.105 -0.8479 -1.0402 -0.4458
  175MOL0     H23565   2.370   5.476  10.140  1.0186  1.4130  1.8766
  175MOL0     H23566   2.200   5.308  10.248 -0.0318  1.1951  1.5818
  175MOL0     H23567   2.072   5.419  10.189 -0.5832  0.0470 -3.7921
  175MOL0     H23568   2.174   5.389   9.960  1.8934 -1.5419 -1.0380
  175MOL0     H23569   2.300   5.288  10.033  1.0407  1.7119  0.3839
  175MOL0     H23570   2.157   5.118  10.108  2.5562  1.9206  1.5336
  175MOL0     H23571   2.013   5.223  10.056  1.4460  3.8843  0.0130
  175MOL0     H23572   2.137   5.186   9.816 -1.9995  1.6083  0.0663
  175MOL0     H23573   2.216   5.051   9.897  0.4058  0.1835 -0.6787
  175MOL0     H23574   1.923   5.065   9.903  0.8059  2.0522  0.5377
  175MOL0     H23575   2.028   4.930   9.956 -0.1013 -2.3107 -0.6320
  175MOL0     H23576   1.832   4.904   9.711 -0.2066  1.1974  3.1586
  175MOL0     H23577   1.813   4.731   9.516  0.5303  0.2882 -0.6952
  175MOL0     H23578   1.938   4.780   9.406  3.6103 -2.8745 -1.3329
  175MOL0     H23579   1.872   4.525   9.423  0.1040  0.8750 -0.8854
  175MOL0     H23580   1.956   4.533   9.581  0.6620 -1.0207 -0.0337
  175MOL0     H23581   2.095   4.436   9.403  1.8933  0.4479 -2.5156
  175MOL0     H23582   2.168   4.564   9.494 -0.6466  2.0031 -0.5462
  175MOL0     H23583   2.206   4.573   9.250 -1.6263  0.0494 -1.1196
  175MOL0     H23584   2.155   4.728   9.329  0.4226  0.0319 -2.4711
  175MOL0     H23585   1.823   4.667   9.058  1.9988 -4.0934  2.9696
  175MOL0     H23586   1.771   4.711   8.721  0.5698 -1.4309  1.3859
  175MOL0     H23587   1.696   4.720   8.882  0.4775  0.5189  2.1372
  175MOL0     H23588   1.765   4.863   8.804  0.1417  0.1119 -1.5154
  175MOL0     H23589   2.183   5.103   8.620  2.3259  1.0240 -0.0293
  175MOL0     H23590   2.220   5.231   8.403 -2.0802 -0.4284 -2.9334
  175MOL0     H23591   2.375   5.284   8.221  1.4823 -2.1579  2.8849
  175MOL0     H23592   2.476   5.136   8.194 -0.0516 -0.2861 -1.1112
  175MOL0     H23593   2.319   5.299   7.988  0.9116  4.0980  2.2055
  175MOL0     H23594   2.481   5.323   8.028 -1.3549  1.0548 -0.7566
  175MOL0     H23595   2.393   5.047   7.923 -1.7143  0.3872 -3.2354
  175MOL0     H23596   2.561   5.129   7.910  0.2089  0.1542 -2.1333
  175MOL0     H23597   2.307   5.160   7.773  0.1508  0.6148 -0.3998
  175MOL0     H23598   2.443   5.277   7.747  0.7044  0.5856 -0.6962
  175MOL0     H23599   2.438   4.977   7.701 -1.9675  1.1718  1.7772
  175MOL0     H23600   2.592   5.071   7.694  0.3576 -2.9342  1.6600
  175MOL0     H23601   2.347   5.139   7.514 -0.1461 -1.0771  0.7189
  175MOL0     H23602   2.506   5.218   7.526 -0.0294  0.3759 -1.4575
  175MOL0     H23603   2.422   4.950   7.425  0.8796 -0.0336 -2.3444
  175MOL0     H23604   2.593   4.959   7.454 -1.1837 -1.8641 -0.0181
  175MOL0     H23605   2.443   5.136   7.261 -0.2032  1.9818  1.8072
  175MOL0     H23606   2.542   5.007   7.220 -1.1638 -0.5058  0.7498
  175MOL0     H23607   2.255   4.864   8.189  0.4108 -2.5173  0.9876
  175MOL0     H23608   2.215   4.728   8.405  1.6742 -0.4463 -2.0674
  175MOL0     H23609   2.251   4.719   8.826  1.0479 -1.3337  0.4472
  175MOL0     H23610   2.240   4.642   9.068  0.4889 -2.3937 -0.4091
  175MOL0     H23611   2.717   5.718  10.391  0.4149  0.7179  0.8455
  175MOL0     H23612   2.832   5.733  10.592 -3.1910  2.8280 -1.1915
  175MOL0     H23613   3.013   5.811  11.044 -1.1241  0.3002 -2.6660
  175MOL0     H23614   3.081   5.766  11.262  0.5765 -0.1533  0.9704
  175MOL0     H23615   3.179   5.650  11.495 -1.8561  4.2556 -1.0629
  175MOL0     H23616   3.009   5.701  11.494 -0.7283 -0.9403 -4.2500
  175MOL0     H23617   3.075   5.629  11.733  1.7310  1.0828 -0.9013
  175MOL0     H23618   3.112   5.463  11.677  0.3086  0.7226 -1.6868
  175MOL0     H23619   2.884   5.436  11.584 -0.9430 -0.1288  0.4585
  175MOL0     H23620   2.834   5.583  11.665 -0.6847 -0.5159 -0.4725
  175MOL0     H23621   2.943   5.467  11.867 -1.7652 -1.3942  0.7229
  175MOL0     H23622   2.924   5.317  11.770  2.6759  0.6173 -2.2921
  175MOL0     H23623   2.530   5.408  11.887  0.1801  2.3132  2.1839
  175MOL0     H23624   2.943   5.360  11.231 -0.3462 -0.1335 -2.4688
  175MOL0     H23625   2.858   5.409  10.996 -0.1668  1.5828 -1.0740
  176MOL0     O23626  10.635  11.390   2.882 -0.2194  0.2893  0.0009
  176MOL0     C23627  10.593  11.270   2.911 -0.6497 -0.0083  0.1385
  176MOL0     O23628  10.676  11.166   2.949 -0.0414  0.3232  0.8197
  176MOL0     C23629  10.816  11.176   2.928  0.2857 -0.4446 -0.1960
  176MOL0     C23630  10.876  11.199   2.803 -0.0033  0.1082 -0.1694
  176MOL0     C23631  11.013  11.202   2.795  0.1975 -0.1686 -0.2806
  176MOL0     C23632  11.091  11.188   2.915  0.1210  0.0309 -0.4320
  176MOL0     O23633  11.223  11.186   2.921 -0.5575  0.0859 -0.2222
  176MOL0     C23634  11.297  11.298   2.857  0.9420 -0.2659 -0.1469
  176MOL0     C23635  11.436  11.275   2.894  0.6976  0.8480 -0.1836
  176MOL0     C23636  11.491  11.160   2.810  0.4920 -0.2007 -0.0868
  176MOL0     C23637  11.634  11.135   2.863 -0.4149 -0.4554 -0.2710
  176MOL0     C23638  11.726  11.041   2.779  0.7265 -0.3475 -0.3796
  176MOL0     C23639  11.858  11.030   2.843 -0.8359  0.2795  0.1284
  176MOL0     C23640  11.940  10.936   2.752 -0.3816  0.1663 -0.3362
  176MOL0     C23641  12.013  11.021   2.635 -0.0778  0.1129 -0.6732
  176MOL0     N23642  12.126  11.083   2.698 -0.0164 -0.3019 -0.1407
  176MOL0     C23643  12.249  11.029   2.714  0.2059 -0.2878  0.1934
  176MOL0     C23644  12.315  11.132   2.773  0.6572  0.7001  0.3204
  176MOL0     C23645  12.458  11.139   2.816  0.6675 -0.2499 -0.1272
  176MOL0     C23646  12.524  10.998   2.844 -0.2296 -0.3280  1.0347
  176MOL0     C23647  12.581  10.957   2.705  0.4770  0.4602 -1.0991
  176MOL0     C23648  12.679  10.841   2.723 -0.1819 -0.3785  0.2886
  176MOL0     O23649  12.785  10.848   2.818  0.0043  0.1525 -0.2969
  176MOL0     C23650  12.896  10.929   2.791  0.2244 -0.4538  0.0174
  176MOL0     C23651  12.908  11.021   2.686  0.2245 -0.8884 -0.9331
  176MOL0     C23652  13.015  11.109   2.682  0.2792 -0.0881 -0.2620
  176MOL0     C23653  13.019  11.198   2.556 -0.1786  0.4988  0.0591
  176MOL0     C23654  13.129  11.095   2.772  0.1589  0.2077 -0.3373
  176MOL0     C23655  13.240  11.192   2.764 -0.1929  0.2563  0.0925
  176MOL0     O23656  13.370  11.151   2.767  1.0267  0.2734 -0.2377
  176MOL0     C23657  13.458  11.257   2.753 -0.3548  0.1777 -0.0890
  176MOL0     C23658  13.483  11.357   2.852  0.1874  0.0685 -0.3282
  176MOL0     C23659  13.565  11.466   2.815 -0.3654  0.7398  0.1690
  176MOL0     C23660  13.651  11.472   2.705  0.2984  0.4189 -0.2611
  176MOL0     O23661  13.753  11.561   2.684 -0.2890  0.0330  0.2525
  176MOL0     C23662  13.791  11.653   2.781  0.5767 -0.4891  0.8987
  176MOL0     C23663  13.916  11.728   2.748 -0.7804 -0.2662 -0.7789
  176MOL0     C23664  13.967  11.815   2.869 -0.3276 -0.8304  0.0447
  176MOL0     C23665  14.071  11.922   2.819  0.2769  0.2038 -0.0855
  176MOL0     C23666  14.200  11.871   2.773  0.4447  0.1010 -0.6015
  176MOL0     C23667  14.298  11.799   2.877 -0.0031 -0.2948  0.6343
  176MOL0     C23668  14.426  11.757   2.808  0.1137  0.3430 -0.2090
  176MOL0     C23669  14.540  11.858   2.851 -0.4181 -0.3383  0.7855
  176MOL0    Cl23670  14.580  11.852   3.029 -0.1972  0.2736 -0.5394
  176MOL0     C23671  13.635  11.368   2.610 -0.1861 -0.0117 -0.4238
  176MOL0     C23672  13.538  11.262   2.633  0.1153  0.6027 -0.2337
  176MOL0     O23673  13.201  11.310   2.767 -0.0060 -0.0979  0.2325
  176MOL0     C23674  13.121  10.997   2.867 -0.2483 -0.6947  0.9692
  176MOL0     C23675  13.006  10.919   2.874  0.3846 -0.3040 -0.2341
  176MOL0     N23676  12.238  11.249   2.790  0.0243 -0.7525  0.1317
  176MOL0     N23677  12.125  11.215   2.741 -0.4092  0.4311 -0.6688
  176MOL0     C23678  11.034  11.173   3.038  0.0435  0.6055  0.5834
  176MOL0     C23679  10.898  11.166   3.041 -0.3701 -0.1292 -1.1433
  176MOL0     C23680  10.448  11.240   2.911  0.3910 -0.7677 -0.3242
  176MOL0     C23681  10.364  11.340   2.881  0.7487 -0.8067  0.7839
  176MOL0     C23682  10.235  11.323   2.876  0.0346 -0.5149 -0.0430
  176MOL0     C23683  10.182  11.195   2.902 -0.9839 -0.5359  0.0508
  176MOL0     O23684  10.043  11.182   2.893 -0.3817 -0.4904 -0.1662
  176MOL0     C23685   9.961  11.077   2.945 -0.9707  0.0309 -0.8620
  176MOL0     C23686   9.971  10.952   2.858  0.4915 -0.4773 -0.7763
  176MOL0     C23687   9.943  10.979   2.711  0.1849  0.2821  0.0350
  176MOL0     C23688  10.067  10.987   2.626  0.1822 -0.7750 -0.4839
  176MOL0     C23689  10.140  10.860   2.618  0.5666  0.5970 -0.3484
  176MOL0     C23690  10.196  10.758   2.604 -0.1750  0.5110 -0.3113
  176MOL0     C23691  10.266  11.090   2.935 -0.3051  0.3205 -1.0443
  176MOL0     C23692  10.397  11.108   2.939  0.2524 -0.7077  0.3729
  176MOL0     H23693  10.815  11.207   2.714  0.1695  2.0160 -0.1509
  176MOL0     H23694  11.056  11.218   2.697 -0.6119  1.3218 -0.4304
  176MOL0     H23695  11.278  11.301   2.749 -4.3133 -2.9760  0.3824
  176MOL0     H23696  11.277  11.395   2.905 -2.7718  0.2485 -2.2954
  176MOL0     H23697  11.501  11.363   2.889  2.6842 -0.5883 -1.3506
  176MOL0     H23698  11.431  11.242   2.998  0.1712  1.9800  0.1641
  176MOL0     H23699  11.426  11.074   2.831  0.5240  0.2038  1.8263
  176MOL0     H23700  11.499  11.177   2.702  4.0305 -0.9283 -0.0792
  176MOL0     H23701  11.681  11.233   2.872 -4.5043  1.5703  1.3479
  176MOL0     H23702  11.632  11.090   2.963 -0.3091 -1.6825 -0.8000
  176MOL0     H23703  11.684  10.943   2.758  2.2191 -1.1885  0.4118
  176MOL0     H23704  11.726  11.089   2.680  0.3742 -1.0230 -0.7095
  176MOL0     H23705  11.907  11.127   2.854  0.7621 -0.2231 -1.9472
  176MOL0     H23706  11.838  10.971   2.933 -1.3864 -1.1766 -0.9087
  176MOL0     H23707  12.024  10.890   2.806 -0.3311 -0.1686 -0.6977
  176MOL0     H23708  11.878  10.855   2.714  0.8762 -2.3062  2.4372
  176MOL0     H23709  11.948  11.101   2.598  2.2054  1.4627 -2.0345
  176MOL0     H23710  12.037  10.949   2.556 -0.9733 -2.7230  1.4549
  176MOL0     H23711  12.279  10.927   2.690  3.8048  1.2142 -2.7059
  176MOL0     H23712  12.511  11.196   2.741 -1.5313  0.5039 -1.1956
  176MOL0     H23713  12.462  11.209   2.900 -0.0530  1.0233 -1.1108
  176MOL0     H23714  12.444  10.927   2.864  0.0651 -0.5490  1.4664
  176MOL0     H23715  12.601  11.005   2.923  1.9226  0.1369 -0.9880
  176MOL0     H23716  12.632  11.038   2.651  2.1908 -0.1994 -0.5423
  176MOL0     H23717  12.502  10.910   2.646  0.5413 -1.5795  0.3546
  176MOL0     H23718  12.724  10.824   2.624  0.6049  1.2947  0.3169
  176MOL0     H23719  12.622  10.750   2.744  0.5344 -1.2232 -1.2742
  176MOL0     H23720  12.834  11.028   2.606  1.7334  0.8474 -2.2629
  176MOL0     H23721  13.080  11.155   2.476 -0.2604  1.2961 -0.4471
  176MOL0     H23722  12.919  11.204   2.512  0.4664 -2.0158 -1.9884
  176MOL0     H23723  13.049  11.298   2.589 -3.1722  1.4377  0.1890
  176MOL0     H23724  13.432  11.356   2.948 -0.9396 -2.0565 -0.8677
  176MOL0     H23725  13.568  11.553   2.879  0.0984 -0.0146  1.2032
  176MOL0     H23726  13.711  11.728   2.784 -1.1154 -2.2422  1.5453
  176MOL0     H23727  13.801  11.601   2.877  0.1887 -3.9399 -0.7955
  176MOL0     H23728  13.994  11.657   2.719  3.2368  3.6781 -0.6528
  176MOL0     H23729  13.897  11.783   2.656  3.0530 -1.5672 -2.5494
  176MOL0     H23730  14.002  11.748   2.947  1.2352  0.1942  0.2842
  176MOL0     H23731  13.878  11.872   2.897 -0.8396 -1.6938  0.2104
  176MOL0     H23732  14.030  11.986   2.740  3.1000 -1.0201 -2.7557
  176MOL0     H23733  14.092  11.994   2.898  0.2062 -0.0932  0.2028
  176MOL0     H23734  14.257  11.959   2.742 -0.3021  0.7644 -0.1149
  176MOL0     H23735  14.191  11.804   2.687  0.7651 -0.7187 -0.0226
  176MOL0     H23736  14.318  11.860   2.966  1.9094  0.0543  0.0074
  176MOL0     H23737  14.252  11.706   2.911 -1.4871 -0.6126 -2.0240
  176MOL0     H23738  14.402  11.766   2.702 -3.1686  3.2428  0.5940
  176MOL0     H23739  14.468  11.661   2.840 -0.4672  0.6590  1.6166
  176MOL0     H23740  14.518  11.961   2.824  1.1552 -0.5463 -1.6377
  176MOL0     H23741  14.628  11.827   2.794  0.3315  1.2956  0.9974
  176MOL0     H23742  13.696  11.367   2.521 -1.6105 -2.9884 -1.5123
  176MOL0     H23743  13.522  11.181   2.564  0.3829 -1.5006  2.0401
  176MOL0     H23744  13.196  10.986   2.946 -1.3935  0.4946  2.2666
  176MOL0     H23745  12.995  10.847   2.954  2.0809 -0.4081 -0.0501
  176MOL0     H23746  11.099  11.147   3.121 -0.1136 -0.7330  0.3133
  176MOL0     H23747  10.846  11.155   3.135 -0.3124  1.8950 -0.8404
  176MOL0     H23748  10.409  11.435   2.856  1.5227 -0.9105  1.7430
  176MOL0     H23749  10.164  11.403   2.857 -0.7327 -1.1940 -0.0955
  176MOL0     H23750  10.003  11.056   3.043 -1.5499  0.6402 -0.4770
  176MOL0     H23751   9.860  11.117   2.954 -1.0964 -0.4117 -0.2507
  176MOL0     H23752   9.891  10.886   2.893  0.2068  0.1060 -0.3186
  176MOL0     H23753  10.060  10.889   2.872  0.8978  0.1052 -0.7055
  176MOL0     H23754   9.882  11.069   2.698  2.1710  1.8631  1.1691
  176MOL0     H23755   9.875  10.903   2.672  0.9794 -1.1503  1.3463
  176MOL0     H23756  10.132  11.067   2.663 -1.8008  1.9165 -2.5202
  176MOL0     H23757  10.042  11.019   2.525  4.8888  1.2327 -1.2988
  176MOL0     H23758  10.242  10.663   2.587 -0.5185  0.2717  0.0538
  176MOL0     H23759  10.224  10.998   2.973 -0.5086  1.6916  2.5072
  176MOL0     H23760  10.470  11.031   2.960  0.9536 -0.0410  0.4495
  177MOL0     O23761   7.885   3.298   5.299  0.7895  0.3409 -1.2022
  177MOL0     C23762   7.976   3.378   5.304 -0.2940  1.6092 -0.2595
  177MOL0     O23763   7.963   3.505   5.336 -0.3392  0.0594 -0.0626
  177MOL0     C23764   7.844   3.573   5.344 -0.0211  0.2985 -0.1567
  177MOL0     C23765   7.857   3.713   5.330  0.3385  0.1364 -0.9704
  177MOL0     C23766   7.747   3.800   5.339 -0.2168 -0.7548  0.4945
  177MOL0     C23767   7.626   3.748   5.353  0.5266 -0.1171 -0.6006
  177MOL0     O23768   7.513   3.820   5.330  0.4217 -0.9284  0.2902
  177MOL0     C23769   7.518   3.943   5.255 -0.2936 -0.0671 -0.9769
  177MOL0     C23770   7.545   3.944   5.109 -0.0265 -0.3930 -1.6127
  177MOL0     C23771   7.470   3.846   5.023  0.7339  0.0551 -0.0502
  177MOL0     C23772   7.522   3.841   4.880 -0.1733 -1.0308  0.8879
  177MOL0     C23773   7.452   3.737   4.791 -0.2253 -0.1067  0.6700
  177MOL0     C23774   7.489   3.593   4.831 -0.1934  0.3758 -0.3215
  177MOL0     C23775   7.446   3.483   4.726 -0.4446  0.7033  0.0876
  177MOL0     C23776   7.310   3.504   4.659  0.0581  0.8567 -0.8514
  177MOL0     N23777   7.200   3.532   4.747  1.2616 -0.0717 -0.0744
  177MOL0     C23778   7.182   3.490   4.880  0.1906  0.2794  0.1454
  177MOL0     C23779   7.072   3.547   4.924 -0.2301 -0.2963 -0.5104
  177MOL0     C23780   7.028   3.536   5.069 -0.4501 -0.2028  0.1325
  177MOL0     C23781   7.113   3.632   5.160 -0.6015 -0.2326 -0.2205
  177MOL0     C23782   7.020   3.676   5.276 -0.2482  0.3587  0.8814
  177MOL0     C23783   7.089   3.721   5.404  0.8938  1.3611  1.3202
  177MOL0     O23784   6.989   3.780   5.483  1.1121  0.4166  0.3789
  177MOL0     C23785   7.021   3.877   5.578  0.6268 -0.2303 -0.0809
  177MOL0     C23786   6.958   3.865   5.701  0.0872  0.0962  0.1156
  177MOL0     C23787   6.981   3.947   5.811 -0.8750 -0.5560 -0.3861
  177MOL0     C23788   6.899   3.922   5.926 -0.2784  0.1233 -0.0149
  177MOL0     C23789   7.081   4.051   5.794  0.3654 -0.2891 -0.3796
  177MOL0     C23790   7.119   4.149   5.898  0.1426  0.1289  0.5689
  177MOL0     O23791   7.233   4.222   5.865 -0.2236  0.8101 -0.4004
  177MOL0     C23792   7.264   4.335   5.921  0.0922  0.9150 -0.3235
  177MOL0     C23793   7.400   4.359   5.938  1.1831  0.4348  1.2869
  177MOL0     C23794   7.451   4.476   5.991  0.7090 -0.6524 -0.4458
  177MOL0     C23795   7.356   4.572   6.037  0.1574  0.1463 -0.1080
  177MOL0     O23796   7.405   4.677   6.099  0.1155 -1.2135 -0.4615
  177MOL0     C23797   7.342   4.810   6.087  0.3199 -0.0019 -0.2866
  177MOL0     C23798   7.416   4.910   6.168 -1.1676 -0.2164 -0.5844
  177MOL0     C23799   7.548   4.935   6.092 -0.8234 -0.5963 -0.7576
  177MOL0     C23800   7.649   4.992   6.191 -0.0208 -0.6175  0.4352
  177MOL0     C23801   7.782   5.012   6.123  0.0051 -0.2042 -0.2417
  177MOL0     C23802   7.830   4.891   6.041 -0.7499  0.3274  0.5874
  177MOL0     C23803   7.827   4.755   6.135 -1.0812 -0.3607  0.0919
  177MOL0     C23804   7.906   4.637   6.072 -0.0430 -0.6935  1.4277
  177MOL0    Cl23805   7.811   4.595   5.918 -0.5947 -0.1261  0.1278
  177MOL0     C23806   7.220   4.557   6.014 -0.6618  0.1852  0.1266
  177MOL0     C23807   7.174   4.436   5.957  0.5732  0.5747  0.1376
  177MOL0     O23808   7.075   4.141   6.008  0.2047 -0.6411  0.1852
  177MOL0     C23809   7.137   4.065   5.669 -0.4696 -0.3428  0.0972
  177MOL0     C23810   7.106   3.989   5.561  0.6428  0.3853  0.2432
  177MOL0     N23811   7.028   3.641   4.833 -1.5372  0.7148 -0.1348
  177MOL0     N23812   7.098   3.623   4.725 -0.2869 -0.1312 -0.0332
  177MOL0     C23813   7.609   3.605   5.376  0.3302 -0.5385  0.8862
  177MOL0     C23814   7.715   3.519   5.365  0.8226 -0.4683 -0.8573
  177MOL0     C23815   8.112   3.340   5.258 -0.3606  0.1010  0.0021
  177MOL0     C23816   8.222   3.426   5.254 -0.1713 -0.2984  0.3639
  177MOL0     C23817   8.349   3.384   5.213  0.9171 -0.4080 -0.4330
  177MOL0     C23818   8.371   3.247   5.189 -0.3405 -0.2972  0.0139
  177MOL0     O23819   8.501   3.232   5.140  0.0527  0.6566 -0.8044
  177MOL0     C23820   8.548   3.098   5.128 -0.1552  0.7563  0.0277
  177MOL0     C23821   8.685   3.096   5.049  0.0964  0.4082 -0.7450
  177MOL0     C23822   8.804   3.142   5.136 -0.2191 -0.1289  0.0315
  177MOL0     C23823   8.855   3.279   5.095 -0.0482  0.0350 -0.3221
  177MOL0     C23824   8.896   3.306   4.949  0.2834 -0.5943 -0.0836
  177MOL0     C23825   8.944   3.312   4.840 -0.2253 -0.7310  0.3577
  177MOL0     C23826   8.263   3.155   5.202  0.6837 -0.3814 -0.6434
  177MOL0     C23827   8.133   3.202   5.240  0.3009 -0.2357  0.5932
  177MOL0     H23828   7.951   3.763   5.309 -0.5101  2.4152  0.3581
  177MOL0     H23829   7.768   3.906   5.332  3.3967 -1.2236  1.8440
  177MOL0     H23830   7.428   4.000   5.282  0.2241  0.0470  0.6127
  177MOL0     H23831   7.585   4.018   5.298 -1.5863  0.1153  0.8220
  177MOL0     H23832   7.546   4.046   5.067 -0.3453  0.0368 -0.5967
  177MOL0     H23833   7.652   3.930   5.087  0.1741  0.8215 -1.5108
  177MOL0     H23834   7.487   3.744   5.060 -0.1186 -0.4030 -0.8551
  177MOL0     H23835   7.363   3.870   5.022  0.6339 -0.3631  0.2397
  177MOL0     H23836   7.512   3.938   4.830  1.8549  0.7390  3.5779
  177MOL0     H23837   7.631   3.831   4.874 -0.0195  0.2514  1.2743
  177MOL0     H23838   7.343   3.747   4.798 -0.3308  0.6054 -1.3855
  177MOL0     H23839   7.483   3.754   4.688 -0.7830 -1.9573  0.1491
  177MOL0     H23840   7.598   3.586   4.830 -0.1142  0.3989  1.9717
  177MOL0     H23841   7.456   3.572   4.933  3.1649  2.9397  1.5038
  177MOL0     H23842   7.524   3.473   4.649  0.3462  0.1036  0.9433
  177MOL0     H23843   7.447   3.386   4.776 -3.0254  1.4592  1.7507
  177MOL0     H23844   7.279   3.429   4.586 -1.2758  1.1810 -0.6590
  177MOL0     H23845   7.316   3.587   4.588  1.0424 -0.3776 -2.2623
  177MOL0     H23846   7.238   3.414   4.933  0.4154  0.0845 -0.3637
  177MOL0     H23847   6.920   3.554   5.072 -0.1409  1.7739  1.1542
  177MOL0     H23848   7.034   3.429   5.092 -1.6355 -0.6199 -1.3073
  177MOL0     H23849   7.137   3.713   5.091  0.2767 -0.6808 -0.4509
  177MOL0     H23850   7.199   3.572   5.191 -0.2288  0.7340  0.6586
  177MOL0     H23851   6.961   3.590   5.307 -1.4164  0.7555 -0.1599
  177MOL0     H23852   6.958   3.761   5.246  1.3801  1.4376  0.4089
  177MOL0     H23853   7.167   3.797   5.392  2.3591  0.6531  5.0383
  177MOL0     H23854   7.148   3.647   5.459  1.0914  1.3326  1.0725
  177MOL0     H23855   6.893   3.781   5.723  1.5564 -1.1347 -0.0243
  177MOL0     H23856   6.811   3.861   5.903 -1.0838  1.2108  0.0982
  177MOL0     H23857   6.954   3.877   6.009 -0.0864 -0.5591 -0.5039
  177MOL0     H23858   6.858   4.012   5.971  2.2871 -0.5800  4.2741
  177MOL0     H23859   7.466   4.285   5.895  0.2365  0.8745 -1.1088
  177MOL0     H23860   7.555   4.499   6.012 -0.1770  2.7029  0.8782
  177MOL0     H23861   7.325   4.821   5.980  0.8232 -3.5664 -0.8550
  177MOL0     H23862   7.239   4.809   6.125  0.1633 -0.9110 -0.7288
  177MOL0     H23863   7.350   4.996   6.174  1.1275  1.5412  2.1312
  177MOL0     H23864   7.444   4.869   6.265 -0.4090  2.4140  0.3738
  177MOL0     H23865   7.543   5.009   6.011  0.1114  2.2156  1.5853
  177MOL0     H23866   7.583   4.845   6.042  0.3686  0.5777 -2.1481
  177MOL0     H23867   7.608   5.087   6.229 -2.3401 -1.6401  0.6597
  177MOL0     H23868   7.658   4.930   6.281  1.3638  0.7892  1.3224
  177MOL0     H23869   7.863   5.053   6.184 -0.4392 -0.1172  0.2923
  177MOL0     H23870   7.759   5.078   6.039 -2.6888 -0.1996  0.4069
  177MOL0     H23871   7.770   4.884   5.950 -1.0829  0.4758  0.7935
  177MOL0     H23872   7.932   4.906   6.003 -0.6350 -2.7683 -0.6102
  177MOL0     H23873   7.723   4.724   6.147 -0.9709 -1.9025 -2.2622
  177MOL0     H23874   7.876   4.772   6.231  1.4322  2.5957 -1.5235
  177MOL0     H23875   7.909   4.545   6.132 -0.1874 -2.3831 -1.0073
  177MOL0     H23876   8.006   4.678   6.052 -0.4119 -0.4610 -0.0381
  177MOL0     H23877   7.149   4.629   6.053 -0.2264 -1.0017  3.4475
  177MOL0     H23878   7.066   4.435   5.967  0.6731  1.3310  1.4905
  177MOL0     H23879   7.208   4.144   5.645 -1.5535  1.4645  2.4643
  177MOL0     H23880   7.138   4.014   5.461  0.1666 -2.2763 -0.6544
  177MOL0     H23881   7.510   3.561   5.380  1.1427 -2.9892 -1.9652
  177MOL0     H23882   7.682   3.417   5.385 -1.9518  0.7658  1.5271
  177MOL0     H23883   8.214   3.534   5.263 -0.5086 -0.1461 -1.4672
  177MOL0     H23884   8.429   3.453   5.234  0.6811 -0.5500  1.0483
  177MOL0     H23885   8.560   3.065   5.232  0.6337  0.2172 -0.2202
  177MOL0     H23886   8.477   3.032   5.077 -0.1511  1.0526 -0.3624
  177MOL0     H23887   8.678   3.160   4.961 -1.4749  1.3541  0.0345
  177MOL0     H23888   8.696   2.992   5.019  2.1136  1.6284 -5.0717
  177MOL0     H23889   8.894   3.080   5.133  1.2357  1.7400  2.0153
  177MOL0     H23890   8.774   3.148   5.241  1.5059 -2.7247  0.7730
  177MOL0     H23891   8.940   3.301   5.160  0.3348  3.6272 -1.8346
  177MOL0     H23892   8.777   3.352   5.120  0.2145 -0.4702  2.1999
  177MOL0     H23893   8.995   3.322   4.746 -0.5743  0.0161  0.2413
  177MOL0     H23894   8.280   3.049   5.189 -0.2684 -0.6052 -0.1363
  177MOL0     H23895   8.051   3.132   5.254 -0.8824  0.7012 -1.2813
  178MOL0     O23896   3.584   6.076   4.433 -0.2358 -0.5175 -0.2561
  178MOL0     C23897   3.465   6.090   4.406  0.4077  0.3689  1.0035
  178MOL0     O23898   3.367   6.147   4.484  0.0054 -1.3274 -0.4524
  178MOL0     C23899   3.406   6.198   4.604 -0.6397  0.2284  0.4832
  178MOL0     C23900   3.375   6.136   4.723  0.0826 -0.0701  0.1111
  178MOL0     C23901   3.411   6.192   4.846 -0.0498  1.3808  0.0056
  178MOL0     C23902   3.496   6.303   4.850  0.8415  0.1307 -1.0488
  178MOL0     O23903   3.533   6.351   4.969 -0.2093 -0.0118  0.5364
  178MOL0     C23904   3.452   6.345   5.083 -0.9050  0.4549  0.0882
  178MOL0     C23905   3.513   6.439   5.185  1.2659  0.3344  0.4620
  178MOL0     C23906   3.443   6.431   5.325  0.1914 -0.0896  0.4351
  178MOL0     C23907   3.510   6.522   5.429  0.3295  0.3770  0.0278
  178MOL0     C23908   3.657   6.503   5.458 -1.1226  0.2726 -0.4656
  178MOL0     C23909   3.752   6.618   5.419  0.2324 -0.3635 -0.4380
  178MOL0     C23910   3.896   6.611   5.463 -0.6110  0.1374 -0.5407
  178MOL0     C23911   3.966   6.481   5.441 -0.2279 -0.0926  0.3841
  178MOL0     N23912   4.111   6.481   5.478  0.7367 -0.1766 -0.1678
  178MOL0     C23913   4.191   6.381   5.423 -1.2226  0.1308  0.5075
  178MOL0     C23914   4.298   6.393   5.499 -0.5776 -0.8774 -0.3903
  178MOL0     C23915   4.409   6.281   5.499 -0.0712 -0.4676  0.1570
  178MOL0     C23916   4.555   6.346   5.485  0.8195 -1.3532  1.0646
  178MOL0     C23917   4.665   6.267   5.536 -0.3559 -0.1297 -0.1679
  178MOL0     C23918   4.665   6.267   5.689 -0.0578 -0.4854  0.6296
  178MOL0     O23919   4.744   6.157   5.736 -0.0320 -0.1769  0.2106
  178MOL0     C23920   4.799   6.157   5.867  0.1104  0.2156  0.7370
  178MOL0     C23921   4.805   6.030   5.934  0.1164 -0.5168 -0.7773
  178MOL0     C23922   4.837   6.010   6.066 -0.1977  0.0579  0.0289
  178MOL0     C23923   4.838   5.866   6.110 -0.6161  0.3325  0.0029
  178MOL0     C23924   4.879   6.124   6.139 -0.9683  1.1790  0.1108
  178MOL0     C23925   4.933   6.108   6.272 -0.1046 -0.5189 -0.0051
  178MOL0     O23926   5.032   6.192   6.306 -0.2949  0.6172 -0.2612
  178MOL0     C23927   5.069   6.201   6.443 -0.6641  0.3010  0.2029
  178MOL0     C23928   5.166   6.123   6.507 -0.3477  0.7286  0.2816
  178MOL0     C23929   5.188   6.138   6.646 -0.0826  0.7689 -0.1163
  178MOL0     C23930   5.125   6.239   6.720 -0.8280  0.9474  0.1088
  178MOL0     O23931   5.163   6.253   6.855  0.4154  0.5914  0.3243
  178MOL0     C23932   5.075   6.338   6.927  0.1275 -0.8887 -0.5261
  178MOL0     C23933   5.125   6.364   7.073  0.0662  0.6033 -0.8530
  178MOL0     C23934   5.261   6.426   7.093  0.5617 -0.6692  0.5485
  178MOL0     C23935   5.275   6.564   7.023 -0.8382 -0.5011 -0.3389
  178MOL0     C23936   5.378   6.646   7.101  0.0879 -0.0551  0.5373
  178MOL0     C23937   5.306   6.730   7.202  0.5874  0.2302  0.1537
  178MOL0     C23938   5.409   6.828   7.265  1.3468  0.0937  0.8080
  178MOL0     C23939   5.352   6.873   7.398 -1.1891 -0.4798 -0.4977
  178MOL0    Cl23940   5.436   6.998   7.482  0.2699 -0.5072 -0.0897
  178MOL0     C23941   5.023   6.316   6.653 -0.4158 -0.5389  1.0110
  178MOL0     C23942   4.998   6.292   6.525  0.5555  0.4174  0.3329
  178MOL0     O23943   4.884   6.020   6.342 -0.4812 -0.5976  1.3463
  178MOL0     C23944   4.876   6.250   6.076 -0.2546  1.0279 -0.7911
  178MOL0     C23945   4.843   6.265   5.942  0.3744  0.1820 -1.0159
  178MOL0     N23946   4.290   6.506   5.588 -0.4220 -0.1217  0.1515
  178MOL0     N23947   4.175   6.553   5.575 -0.3513  0.1321 -0.0404
  178MOL0     C23948   3.544   6.354   4.732  0.5671 -0.4726 -0.2019
  178MOL0     C23949   3.491   6.313   4.611  0.3329  0.5440  0.1123
  178MOL0     C23950   3.422   6.036   4.276  0.2229 -0.7753 -0.1567
  178MOL0     C23951   3.286   6.043   4.246 -0.0772  0.2590  0.4810
  178MOL0     C23952   3.239   5.984   4.125 -0.4006  0.0463  0.0012
  178MOL0     C23953   3.328   5.912   4.050  0.0375 -0.1503  0.2367
  178MOL0     O23954   3.261   5.856   3.943 -0.5869  0.0305 -0.0219
  178MOL0     C23955   3.335   5.759   3.871 -0.5366  0.3200  1.5448
  178MOL0     C23956   3.251   5.721   3.740  0.4602  0.0936  0.3713
  178MOL0     C23957   3.340   5.631   3.653 -0.8499  0.9204 -0.4218
  178MOL0     C23958   3.261   5.582   3.534  0.7483  0.2602  0.6460
  178MOL0     C23959   3.305   5.455   3.495 -0.5571  0.8776 -0.2430
  178MOL0     C23960   3.363   5.340   3.480  0.3890 -0.2820  0.5435
  178MOL0     C23961   3.458   5.901   4.089  0.2444 -0.0387  1.3895
  178MOL0     C23962   3.512   5.964   4.199  0.4396 -0.2231 -0.4137
  178MOL0     H23963   3.314   6.046   4.717  2.0158 -1.3781 -0.9629
  178MOL0     H23964   3.394   6.135   4.936  1.0894 -0.3722 -0.8185
  178MOL0     H23965   3.355   6.381   5.048 -0.0739  1.5966 -1.1202
  178MOL0     H23966   3.454   6.243   5.122  0.3338 -0.7317 -2.7423
  178MOL0     H23967   3.622   6.432   5.192  1.6903  4.6574  0.3708
  178MOL0     H23968   3.512   6.542   5.150  2.5377  1.2485  2.8668
  178MOL0     H23969   3.334   6.436   5.316  0.2592 -1.1840 -1.5142
  178MOL0     H23970   3.462   6.328   5.356 -1.2736 -0.1732  1.1491
  178MOL0     H23971   3.480   6.627   5.421  0.3907  0.2857 -2.0076
  178MOL0     H23972   3.468   6.504   5.528 -1.4808 -0.6442 -0.8689
  178MOL0     H23973   3.661   6.499   5.568  2.3626  1.0085 -0.4429
  178MOL0     H23974   3.693   6.415   5.405  4.1274  0.1445  2.6198
  178MOL0     H23975   3.742   6.628   5.310 -1.6089  1.3660 -0.1722
  178MOL0     H23976   3.721   6.710   5.470 -1.4687 -0.9207 -0.4178
  178MOL0     H23977   3.950   6.686   5.404 -1.0266  0.9481  0.0826
  178MOL0     H23978   3.908   6.645   5.566 -1.3875 -0.4789 -0.2347
  178MOL0     H23979   3.972   6.464   5.333  0.5497  0.0496  0.3985
  178MOL0     H23980   3.911   6.399   5.489  0.5102 -1.5859 -1.2003
  178MOL0     H23981   4.173   6.292   5.364 -0.9516 -0.5302  1.3904
  178MOL0     H23982   4.384   6.236   5.596  1.2007 -1.1852  0.1728
  178MOL0     H23983   4.389   6.210   5.418 -1.1603  0.5144 -0.4712
  178MOL0     H23984   4.567   6.449   5.521 -0.4747  0.1959 -2.4530
  178MOL0     H23985   4.565   6.354   5.376 -1.8613 -2.5982  0.6623
  178MOL0     H23986   4.761   6.299   5.495 -0.8717 -0.2764 -1.5615
  178MOL0     H23987   4.650   6.163   5.503  0.4772 -0.3979  0.2749
  178MOL0     H23988   4.561   6.247   5.716 -0.4016  1.6262  1.0380
  178MOL0     H23989   4.694   6.364   5.730 -1.5413  0.4035 -0.3151
  178MOL0     H23990   4.777   5.946   5.871 -0.7042  0.2140 -1.4270
  178MOL0     H23991   4.739   5.826   6.090  0.0444 -0.6106 -1.5907
  178MOL0     H23992   4.895   5.806   6.039  1.6910  2.1657  0.1710
  178MOL0     H23993   4.877   5.839   6.208 -1.4965 -3.1017 -0.4775
  178MOL0     H23994   5.233   6.062   6.448  0.7722  0.7242  1.5320
  178MOL0     H23995   5.266   6.084   6.697  0.3305  2.3748  1.0469
  178MOL0     H23996   5.062   6.438   6.884  1.1307  0.3495  1.8595
  178MOL0     H23997   4.975   6.293   6.930 -0.0322 -0.5684 -0.9034
  178MOL0     H23998   5.046   6.417   7.126 -1.0740 -1.9285  0.1740
  178MOL0     H23999   5.123   6.267   7.123  0.9081  1.6305  1.2784
  178MOL0     H24000   5.345   6.367   7.055 -0.4216 -2.8221  1.5521
  178MOL0     H24001   5.284   6.445   7.198  0.2043  0.1190  0.4873
  178MOL0     H24002   5.305   6.558   6.918  0.3267  1.5684 -0.1911
  178MOL0     H24003   5.185   6.624   7.034 -0.6009 -0.4486  1.9578
  178MOL0     H24004   5.420   6.720   7.033  0.3531 -0.3246  0.4065
  178MOL0     H24005   5.460   6.585   7.139 -0.7128 -1.6333 -0.1943
  178MOL0     H24006   5.238   6.803   7.158  0.3006  0.6861  1.3059
  178MOL0     H24007   5.238   6.671   7.264  0.2214 -0.5182 -0.9291
  178MOL0     H24008   5.434   6.913   7.200 -0.7339  0.8453  0.9106
  178MOL0     H24009   5.506   6.780   7.282  2.8142  3.0042  1.3002
  178MOL0     H24010   5.352   6.784   7.462 -3.4693 -0.7273 -0.7864
  178MOL0     H24011   5.249   6.908   7.397 -0.1496  2.9441  0.0425
  178MOL0     H24012   4.963   6.386   6.709 -1.5349 -2.1428  1.9171
  178MOL0     H24013   4.920   6.355   6.483  1.4287  1.3171  0.0039
  178MOL0     H24014   4.915   6.338   6.127 -1.1335  0.2644  1.2763
  178MOL0     H24015   4.861   6.364   5.900 -2.1964  2.1703  2.0911
  178MOL0     H24016   3.613   6.437   4.731  0.4243 -0.3547 -0.4779
  178MOL0     H24017   3.523   6.366   4.522 -2.9742 -1.1435 -2.2804
  178MOL0     H24018   3.213   6.091   4.310 -1.3443 -0.9955  0.0117
  178MOL0     H24019   3.135   5.996   4.099 -0.6142 -0.2814  0.6660
  178MOL0     H24020   3.424   5.813   3.838  0.2743 -2.0212 -0.4070
  178MOL0     H24021   3.355   5.671   3.933 -2.9111 -1.8917 -0.6045
  178MOL0     H24022   3.234   5.811   3.681 -1.0661 -0.3720  0.0709
  178MOL0     H24023   3.157   5.675   3.772  1.8452 -2.1305  1.4711
  178MOL0     H24024   3.369   5.546   3.716 -3.1178 -1.8545 -2.8403
  178MOL0     H24025   3.429   5.682   3.615  1.8465 -2.7400  0.4015
  178MOL0     H24026   3.272   5.655   3.453  1.7443  1.1872  1.5767
  178MOL0     H24027   3.152   5.580   3.548  0.5733 -2.4648 -0.5918
  178MOL0     H24028   3.393   5.237   3.481 -0.3994 -0.5267 -0.2997
  178MOL0     H24029   3.519   5.841   4.022 -1.6390  1.2262 -1.7207
  178MOL0     H24030   3.618   5.973   4.216  1.4113 -0.2507 -5.0638
  179MOL0     O24031   8.567   6.989   1.978  0.1472 -0.8214 -1.0312
  179MOL0     C24032   8.531   7.054   1.875 -1.3267 -0.2804 -0.5614
  179MOL0     O24033   8.606   7.064   1.766  0.5024 -0.4761 -0.1845
  179MOL0     C24034   8.705   6.971   1.740 -0.9810 -0.6723  0.4968
  179MOL0     C24035   8.818   7.007   1.664 -0.1508  0.8187 -0.1588
  179MOL0     C24036   8.921   6.915   1.631  0.8784  0.0496 -0.3082
  179MOL0     C24037   8.912   6.786   1.674 -0.1608 -0.6463 -0.9584
  179MOL0     O24038   9.012   6.702   1.627  0.3493 -0.0063  0.9470
  179MOL0     C24039   9.009   6.564   1.671 -0.7559 -0.4705  0.1782
  179MOL0     C24040   9.126   6.502   1.597  1.2344 -0.0303  0.0791
  179MOL0     C24041   9.265   6.528   1.642  0.7201  0.2912  0.2473
  179MOL0     C24042   9.381   6.489   1.543  0.8183  0.1391  0.0032
  179MOL0     C24043   9.514   6.540   1.596 -0.4913  0.1110  0.4407
  179MOL0     C24044   9.614   6.478   1.497 -0.8864 -0.5397  0.8861
  179MOL0     C24045   9.752   6.544   1.536  0.2889  0.2175 -0.6826
  179MOL0     C24046   9.771   6.696   1.528  0.2320  0.0629  0.1715
  179MOL0     N24047   9.898   6.731   1.583 -0.2527 -0.1174 -0.1730
  179MOL0     C24048  10.022   6.719   1.516  0.5148 -0.2385 -0.2940
  179MOL0     C24049  10.112   6.768   1.607  0.0829 -0.1358  0.3420
  179MOL0     C24050  10.264   6.770   1.587 -0.1606  0.1559  0.2439
  179MOL0     C24051  10.351   6.717   1.706  0.4392  0.4736 -0.5472
  179MOL0     C24052  10.501   6.727   1.672 -0.0322 -0.5661  0.2530
  179MOL0     C24053  10.587   6.773   1.795 -0.4508 -0.3952  0.0995
  179MOL0     O24054  10.719   6.830   1.763 -1.2875  1.0890 -0.1052
  179MOL0     C24055  10.812   6.836   1.862  0.1225  0.1801  1.7134
  179MOL0     C24056  10.787   6.827   1.998 -0.3253  0.8303 -0.5036
  179MOL0     C24057  10.887   6.827   2.091 -0.0799  0.1692 -0.6447
  179MOL0     C24058  10.849   6.796   2.240  0.3773 -0.0616  0.1185
  179MOL0     C24059  11.016   6.857   2.059  0.5299  0.8022 -0.4913
  179MOL0     C24060  11.134   6.889   2.157  0.0090 -1.1083  0.0164
  179MOL0     O24061  11.250   6.924   2.085  0.3010 -0.1124 -0.1218
  179MOL0     C24062  11.367   6.945   2.155  1.0300 -0.2254  0.2260
  179MOL0     C24063  11.453   7.028   2.093 -0.6003  0.6968  0.5494
  179MOL0     C24064  11.571   7.070   2.168  0.9042 -0.0322  0.9482
  179MOL0     C24065  11.612   6.999   2.278 -0.2806 -0.3818 -0.5040
  179MOL0     O24066  11.707   7.048   2.365 -0.4257  0.0358 -0.1755
  179MOL0     C24067  11.814   7.133   2.316  0.5501 -0.3227  0.3280
  179MOL0     C24068  11.903   7.066   2.194  0.3530  0.9452 -0.5849
  179MOL0     C24069  11.960   6.925   2.242  0.2949 -0.4386  0.3993
  179MOL0     C24070  12.109   6.927   2.208 -0.1311  1.0437  0.3349
  179MOL0     C24071  12.174   6.791   2.202  1.0175 -0.2522  0.1985
  179MOL0     C24072  12.313   6.802   2.148  0.5902  0.3364  1.0251
  179MOL0     C24073  12.330   6.795   1.997  0.3435  0.4850 -1.2675
  179MOL0     C24074  12.244   6.704   1.900  0.4828 -0.0732  0.0970
  179MOL0    Cl24075  12.238   6.538   1.964 -0.1294  0.0797  0.0932
  179MOL0     C24076  11.525   6.897   2.328  0.3593 -0.3530  0.1512
  179MOL0     C24077  11.405   6.869   2.264 -0.9416 -0.0304  0.0404
  179MOL0     O24078  11.116   6.894   2.279  0.2985 -0.0343  0.0517
  179MOL0     C24079  11.041   6.868   1.925 -0.2621  0.8646 -0.4256
  179MOL0     C24080  10.945   6.860   1.827 -0.6918  0.8986  0.5589
  179MOL0     N24081  10.049   6.817   1.717 -0.6179  0.1425 -0.1565
  179MOL0     N24082   9.923   6.792   1.702  0.2419  0.0851 -0.0938
  179MOL0     C24083   8.802   6.745   1.753 -0.7888 -0.0641 -0.3832
  179MOL0     C24084   8.699   6.834   1.780  0.0635 -1.0857  1.5089
  179MOL0     C24085   8.415   7.138   1.873  0.7883  0.5213  0.8657
  179MOL0     C24086   8.309   7.116   1.961 -0.8413  0.3635  0.0422
  179MOL0     C24087   8.201   7.210   1.971 -0.3441 -0.2613  0.0102
  179MOL0     C24088   8.185   7.315   1.886  0.4529  0.8825 -0.4748
  179MOL0     O24089   8.100   7.425   1.893 -1.1637  0.5532  0.3384
  179MOL0     C24090   7.999   7.402   1.988 -0.1484 -0.3633 -0.9506
  179MOL0     C24091   7.891   7.502   1.959  0.0146 -0.2066  0.0947
  179MOL0     C24092   7.935   7.644   1.928 -0.1537 -0.3697  1.0219
  179MOL0     C24093   8.012   7.704   2.037 -0.6254 -0.7217  0.6451
  179MOL0     C24094   7.923   7.749   2.139 -0.0781  0.2796 -0.0673
  179MOL0     C24095   7.830   7.771   2.217 -0.4964 -0.8059  0.5861
  179MOL0     C24096   8.285   7.321   1.790  0.2070 -1.1072  0.5478
  179MOL0     C24097   8.394   7.237   1.780 -0.8755  0.1226  0.1395
  179MOL0     H24098   8.814   7.109   1.627 -0.6073  0.7385 -0.3381
  179MOL0     H24099   9.005   6.946   1.570 -0.9587  4.6272 -0.8809
  179MOL0     H24100   9.017   6.564   1.780  2.6853  2.9572  0.1339
  179MOL0     H24101   8.917   6.513   1.640  0.0951 -1.1947 -1.2464
  179MOL0     H24102   9.115   6.394   1.603  0.5323 -0.1218 -1.9282
  179MOL0     H24103   9.106   6.535   1.494 -4.7380 -1.7614  0.3124
  179MOL0     H24104   9.273   6.637   1.650 -0.8485  0.6092 -1.8353
  179MOL0     H24105   9.283   6.476   1.737  1.6912 -0.9443 -0.5954
  179MOL0     H24106   9.376   6.380   1.531 -2.8374  0.3320 -1.4523
  179MOL0     H24107   9.345   6.539   1.452 -1.1757 -0.1723  0.5715
  179MOL0     H24108   9.513   6.647   1.617  0.3236  0.3197 -0.4909
  179MOL0     H24109   9.531   6.486   1.690 -1.2221 -2.2828 -0.7070
  179MOL0     H24110   9.610   6.369   1.506 -0.8487 -0.4235  2.8018
  179MOL0     H24111   9.591   6.493   1.391 -0.3322  0.4523  0.8930
  179MOL0     H24112   9.768   6.508   1.638 -2.8822 -0.7321 -0.4050
  179MOL0     H24113   9.824   6.500   1.465  0.7067 -0.1779 -0.0264
  179MOL0     H24114   9.700   6.755   1.587  0.9123 -0.8228  1.9779
  179MOL0     H24115   9.761   6.720   1.422  1.1318 -2.9139 -0.7045
  179MOL0     H24116  10.039   6.675   1.419  3.2060 -1.2146  0.5244
  179MOL0     H24117  10.287   6.704   1.502  0.1083  0.1209  0.3443
  179MOL0     H24118  10.286   6.876   1.575 -1.0182  0.2319 -0.8457
  179MOL0     H24119  10.321   6.616   1.736 -1.4345  1.3820  0.8212
  179MOL0     H24120  10.329   6.782   1.791  2.1895  1.3525 -0.7303
  179MOL0     H24121  10.516   6.804   1.595  0.1469 -0.7824  0.0698
  179MOL0     H24122  10.545   6.638   1.625  5.5476  1.4690  0.7596
  179MOL0     H24123  10.593   6.686   1.862  0.0373 -2.5237 -2.5223
  179MOL0     H24124  10.524   6.843   1.851 -1.9131 -0.8845 -0.8783
  179MOL0     H24125  10.682   6.809   2.022 -0.8370  2.3390 -1.4952
  179MOL0     H24126  10.747   6.760   2.225  0.3582  0.5509 -1.3392
  179MOL0     H24127  10.914   6.724   2.290  1.1605  0.7993  0.3696
  179MOL0     H24128  10.848   6.886   2.303 -0.2065 -1.3770  2.0952
  179MOL0     H24129  11.423   7.070   1.998 -1.2988 -0.2105  0.3628
  179MOL0     H24130  11.622   7.158   2.129 -1.0872  0.1105 -1.6090
  179MOL0     H24131  11.769   7.225   2.277 -1.2025 -0.7927  1.1153
  179MOL0     H24132  11.876   7.166   2.399 -1.1612 -0.7083  1.8371
  179MOL0     H24133  11.841   7.047   2.106 -0.2594  5.0523 -1.2292
  179MOL0     H24134  11.979   7.137   2.161  2.6841 -0.7324  0.8894
  179MOL0     H24135  11.905   6.841   2.199 -2.6979 -0.4867  3.8048
  179MOL0     H24136  11.943   6.915   2.350  2.2284  0.2811  0.8107
  179MOL0     H24137  12.123   6.961   2.105  1.5142 -3.7226 -1.2438
  179MOL0     H24138  12.157   6.994   2.281 -0.4922 -0.1477  1.7171
  179MOL0     H24139  12.114   6.728   2.137 -0.6131 -1.1738  2.4963
  179MOL0     H24140  12.176   6.747   2.302  0.7177  0.1795  0.3980
  179MOL0     H24141  12.377   6.881   2.187 -0.0147  2.6497 -2.1743
  179MOL0     H24142  12.359   6.710   2.184  1.2307  0.7853  1.3574
  179MOL0     H24143  12.433   6.761   1.990  0.9455  0.8307  3.2296
  179MOL0     H24144  12.339   6.899   1.965 -1.7979  1.0822 -0.1273
  179MOL0     H24145  12.291   6.692   1.802 -1.7369  1.5497 -1.2468
  179MOL0     H24146  12.145   6.748   1.883  0.5047 -0.1175 -0.1375
  179MOL0     H24147  11.560   6.856   2.422 -0.7073 -0.7667  0.3740
  179MOL0     H24148  11.340   6.804   2.321 -1.2786  0.6358  0.4291
  179MOL0     H24149  11.145   6.878   1.895  0.1129  0.9545  0.8584
  179MOL0     H24150  10.980   6.865   1.725 -2.3106  0.0288 -0.0793
  179MOL0     H24151   8.794   6.648   1.801  0.6416 -0.0613 -0.0894
  179MOL0     H24152   8.610   6.800   1.832 -1.5570 -0.0697 -0.4172
  179MOL0     H24153   8.305   7.036   2.035  0.4135 -1.1301 -1.4040
  179MOL0     H24154   8.141   7.185   2.058 -1.0801 -0.1010 -0.4510
  179MOL0     H24155   7.960   7.300   1.981  0.4108 -0.5178 -1.9641
  179MOL0     H24156   8.036   7.434   2.086 -0.4647  1.0989 -1.2928
  179MOL0     H24157   7.813   7.494   2.036 -2.3104 -1.5333 -2.2658
  179MOL0     H24158   7.838   7.469   1.869 -1.0533  2.6313 -0.4091
  179MOL0     H24159   7.849   7.704   1.897 -0.7360 -1.7398 -0.1323
  179MOL0     H24160   8.007   7.637   1.846 -0.8455  0.0078  0.3627
  179MOL0     H24161   8.063   7.792   1.996 -0.3367 -0.0380  2.3777
  179MOL0     H24162   8.083   7.635   2.083 -0.0052  0.8495  2.1580
  179MOL0     H24163   7.742   7.780   2.277 -0.7616  1.2587 -0.0168
  179MOL0     H24164   8.287   7.395   1.710  3.2766 -2.5108 -0.8095
  179MOL0     H24165   8.463   7.248   1.697 -0.9310 -0.6377 -0.0111
  180MOL0     O24166   1.472   3.668   3.360  0.0358  0.4232  0.2451
  180MOL0     C24167   1.547   3.768   3.366  0.2385 -1.1551 -0.2319
  180MOL0     O24168   1.622   3.815   3.474  0.0118 -0.2866  0.3571
  180MOL0     C24169   1.655   3.742   3.586 -0.6229 -0.2051 -0.5810
  180MOL0     C24170   1.639   3.602   3.602 -0.9741 -0.1743 -0.4699
  180MOL0     C24171   1.684   3.528   3.707 -0.1397 -0.1766 -0.5205
  180MOL0     C24172   1.750   3.599   3.806  0.0860  0.4746  0.2166
  180MOL0     O24173   1.797   3.518   3.912 -0.2312 -0.3875  0.5017
  180MOL0     C24174   1.909   3.575   3.985 -0.5461  0.5592 -0.1373
  180MOL0     C24175   1.955   3.452   4.063 -0.2263 -1.0839 -0.4591
  180MOL0     C24176   2.050   3.482   4.178  0.1897 -1.1006 -0.4733
  180MOL0     C24177   2.043   3.365   4.288 -0.6234 -0.3494 -0.1124
  180MOL0     C24178   2.150   3.384   4.393  0.2586  0.6396  0.0502
  180MOL0     C24179   2.181   3.257   4.471  0.4837 -0.0861  0.9750
  180MOL0     C24180   2.296   3.280   4.559  0.0136  0.0575  0.4446
  180MOL0     C24181   2.265   3.356   4.701 -0.3896 -0.1219  0.6041
  180MOL0     N24182   2.266   3.498   4.685  0.3253 -0.6951  0.1645
  180MOL0     C24183   2.370   3.584   4.665 -0.0248  0.1147 -0.0898
  180MOL0     C24184   2.327   3.707   4.685  0.1513  0.1535 -0.3498
  180MOL0     C24185   2.403   3.842   4.677 -0.0346 -0.2591  0.5570
  180MOL0     C24186   2.440   3.875   4.525 -0.5491  0.4978  0.0922
  180MOL0     C24187   2.504   4.015   4.513 -0.4014 -0.9097  0.0768
  180MOL0     C24188   2.529   4.054   4.373  0.8532 -0.3656  0.5333
  180MOL0     O24189   2.553   4.194   4.361 -0.2481 -0.4753  0.1629
  180MOL0     C24190   2.674   4.248   4.415 -0.1161  0.2599 -0.3596
  180MOL0     C24191   2.786   4.248   4.332 -0.2061 -0.0378 -0.5610
  180MOL0     C24192   2.906   4.303   4.374  0.5467  0.9084  0.5394
  180MOL0     C24193   3.023   4.285   4.277 -0.2915 -0.2500 -0.1652
  180MOL0     C24194   2.913   4.383   4.490 -0.1016  0.0214 -0.5956
  180MOL0     C24195   3.042   4.447   4.536  0.5092 -0.4587  0.7338
  180MOL0     O24196   3.101   4.531   4.442 -0.1494  0.6970  0.9409
  180MOL0     C24197   3.213   4.597   4.478  0.1742  0.1051 -0.2031
  180MOL0     C24198   3.238   4.667   4.602  0.8879 -0.6985  0.8197
  180MOL0     C24199   3.349   4.743   4.619  0.0194  0.4282 -0.4907
  180MOL0     C24200   3.451   4.747   4.530  0.2998  0.2001 -0.1188
  180MOL0     O24201   3.550   4.828   4.566 -0.1474  0.0776  0.0456
  180MOL0     C24202   3.689   4.779   4.568  0.2884  0.0655  0.3020
  180MOL0     C24203   3.785   4.890   4.539 -0.7097 -0.5918  0.0679
  180MOL0     C24204   3.935   4.869   4.553 -0.2371 -0.1519 -0.4192
  180MOL0     C24205   3.998   4.836   4.414  0.3867  0.2965 -0.4060
  180MOL0     C24206   4.153   4.839   4.415 -0.1777 -0.5544 -0.7583
  180MOL0     C24207   4.231   4.827   4.280 -0.8017 -0.1578 -0.9780
  180MOL0     C24208   4.390   4.835   4.294  0.6402 -0.1668 -0.2144
  180MOL0     C24209   4.451   4.851   4.147 -0.2978  0.1233 -0.7217
  180MOL0    Cl24210   4.426   5.019   4.079  0.0327  0.3622  0.0463
  180MOL0     C24211   3.423   4.697   4.404 -0.4454  0.5017 -0.8792
  180MOL0     C24212   3.312   4.619   4.382 -0.2534  0.0062 -0.6452
  180MOL0     O24213   3.065   4.442   4.655 -0.4255  0.2928  0.4570
  180MOL0     C24214   2.802   4.384   4.574 -0.1759  0.7452  0.4918
  180MOL0     C24215   2.686   4.314   4.537 -0.2347 -0.5361  0.0229
  180MOL0     N24216   2.191   3.700   4.729  0.0499 -0.0275  0.0613
  180MOL0     N24217   2.158   3.574   4.720  0.5248  0.0386  0.7906
  180MOL0     C24218   1.773   3.732   3.798  0.4983  0.1737  0.1279
  180MOL0     C24219   1.723   3.807   3.688  0.1783 -0.3397 -0.8073
  180MOL0     C24220   1.564   3.845   3.238 -0.6697 -0.1498 -0.5429
  180MOL0     C24221   1.475   3.832   3.129 -0.1336  0.4937  0.0228
  180MOL0     C24222   1.487   3.921   3.018 -0.2328 -0.0250 -0.2590
  180MOL0     C24223   1.600   4.010   3.007 -0.9522 -0.1358  0.8588
  180MOL0     O24224   1.634   4.091   2.902  0.2738  0.2869  0.3443
  180MOL0     C24225   1.566   4.066   2.774  0.0868  0.1875 -1.1978
  180MOL0     C24226   1.650   4.136   2.659  0.5241 -0.5574  1.1774
  180MOL0     C24227   1.801   4.103   2.662 -0.4137  0.1571 -0.2379
  180MOL0     C24228   1.872   4.151   2.546 -0.7650 -0.7599  0.3011
  180MOL0     C24229   2.011   4.185   2.574  0.1616  0.1789  0.6537
  180MOL0     C24230   2.128   4.221   2.590  0.2859 -0.5514  0.2917
  180MOL0     C24231   1.689   4.024   3.123  0.2534  0.5698  0.2844
  180MOL0     C24232   1.668   3.941   3.231 -0.0446 -1.2952 -1.1064
  180MOL0     H24233   1.593   3.552   3.518  2.6112 -2.2401 -1.3959
  180MOL0     H24234   1.663   3.422   3.718 -3.3389  0.0750 -2.8607
  180MOL0     H24235   1.987   3.622   3.925 -0.8878 -1.9582 -2.7563
  180MOL0     H24236   1.862   3.642   4.058 -2.2360  0.7548 -1.3428
  180MOL0     H24237   1.869   3.399   4.107  0.5829 -1.0901  1.2119
  180MOL0     H24238   2.001   3.388   3.988  1.3210  1.0754 -1.4314
  180MOL0     H24239   2.147   3.496   4.129 -1.0937  0.7800 -2.7014
  180MOL0     H24240   2.010   3.570   4.230 -0.1414 -1.8098  0.4964
  180MOL0     H24241   1.942   3.364   4.331 -2.2477  1.9334 -3.4056
  180MOL0     H24242   2.059   3.270   4.237  3.5979  0.2588 -0.2420
  180MOL0     H24243   2.241   3.411   4.337 -0.3958  0.7657 -0.9853
  180MOL0     H24244   2.111   3.470   4.448  0.1399  2.7290 -3.0153
  180MOL0     H24245   2.097   3.232   4.536 -0.2074  0.5303  0.3333
  180MOL0     H24246   2.189   3.173   4.400  0.0443 -0.4015  1.2939
  180MOL0     H24247   2.335   3.181   4.586 -1.9015 -0.6176  0.9505
  180MOL0     H24248   2.371   3.344   4.511  0.4186 -1.1544 -0.5883
  180MOL0     H24249   2.348   3.336   4.769  1.0861  0.8961 -0.8141
  180MOL0     H24250   2.171   3.325   4.746 -0.2192 -0.1603  0.9396
  180MOL0     H24251   2.471   3.557   4.636  2.2814  2.6485  4.4790
  180MOL0     H24252   2.333   3.919   4.710 -2.6685 -2.3137  0.0953
  180MOL0     H24253   2.502   3.820   4.720 -0.3361 -3.0766 -0.0171
  180MOL0     H24254   2.349   3.888   4.465  1.2106  2.4470 -2.3423
  180MOL0     H24255   2.509   3.797   4.492 -1.1634 -0.6777  1.4610
  180MOL0     H24256   2.602   4.015   4.561  0.4964 -2.3884 -1.6351
  180MOL0     H24257   2.443   4.096   4.554  1.9174  1.6212 -1.1500
  180MOL0     H24258   2.438   4.032   4.316  1.1301  0.2839 -0.1892
  180MOL0     H24259   2.604   3.990   4.327  1.9680  1.7467 -0.7651
  180MOL0     H24260   2.782   4.184   4.245  0.2456 -1.4559  0.4227
  180MOL0     H24261   3.109   4.234   4.321  0.2754  0.2785 -0.6430
  180MOL0     H24262   2.993   4.227   4.189 -2.2324  1.6758 -0.8696
  180MOL0     H24263   3.054   4.381   4.234 -1.0531 -0.5970 -1.5735
  180MOL0     H24264   3.160   4.659   4.677 -0.7561 -1.2348 -0.8823
  180MOL0     H24265   3.329   4.808   4.703 -2.9369  2.2030 -2.4008
  180MOL0     H24266   3.698   4.722   4.660  4.8109 -2.3884 -1.3595
  180MOL0     H24267   3.706   4.698   4.497  0.7869 -0.2089  0.7315
  180MOL0     H24268   3.758   4.937   4.444  0.5684  1.7826  0.7948
  180MOL0     H24269   3.765   4.966   4.616  1.9698  0.6644 -0.3647
  180MOL0     H24270   3.948   4.788   4.625  0.1819  1.2880  1.1839
  180MOL0     H24271   3.976   4.963   4.590 -0.2713  0.8131 -2.6382
  180MOL0     H24272   3.958   4.741   4.377 -0.4062  0.6480 -0.4534
  180MOL0     H24273   3.965   4.915   4.346 -3.0159  2.4673  3.3490
  180MOL0     H24274   4.193   4.761   4.481  1.2824 -1.2095 -2.3322
  180MOL0     H24275   4.188   4.931   4.462  4.2662 -1.9154 -0.8813
  180MOL0     H24276   4.205   4.732   4.231 -2.3590 -0.4374  0.3168
  180MOL0     H24277   4.194   4.909   4.218 -2.8680 -1.2047 -1.2098
  180MOL0     H24278   4.425   4.741   4.338 -1.8999 -0.8562  0.4989
  180MOL0     H24279   4.414   4.925   4.351 -1.5674  1.0177 -1.0065
  180MOL0     H24280   4.407   4.779   4.077 -0.4051  2.0913 -2.7875
  180MOL0     H24281   4.554   4.820   4.165 -0.0852  1.5114  0.7120
  180MOL0     H24282   3.496   4.694   4.324  1.7954 -1.4406  1.0874
  180MOL0     H24283   3.302   4.557   4.293  0.4815 -1.4975  0.2873
  180MOL0     H24284   2.808   4.421   4.676 -0.3242 -1.0895  1.2115
  180MOL0     H24285   2.607   4.313   4.612  2.9872 -0.9641  3.7544
  180MOL0     H24286   1.834   3.782   3.872 -0.3875 -0.4357  1.3016
  180MOL0     H24287   1.729   3.912   3.663 -3.5277 -0.7156 -4.5479
  180MOL0     H24288   1.401   3.752   3.131 -0.3211  0.6116 -1.2332
  180MOL0     H24289   1.415   3.893   2.941 -1.5837 -1.3670  1.4010
  180MOL0     H24290   1.572   3.959   2.754 -0.4762 -0.2639  0.8275
  180MOL0     H24291   1.466   4.107   2.789 -0.3504 -1.9768  4.9609
  180MOL0     H24292   1.619   4.241   2.666 -0.9749 -0.5807 -2.5679
  180MOL0     H24293   1.611   4.090   2.567  1.4622 -0.9756  0.9769
  180MOL0     H24294   1.804   3.994   2.652 -0.7326 -0.0302  1.4516
  180MOL0     H24295   1.844   4.138   2.756  0.8839 -0.0516 -0.7335
  180MOL0     H24296   1.829   4.248   2.522  1.5234  0.5257  1.0842
  180MOL0     H24297   1.864   4.088   2.456 -0.9678 -1.3433  0.7201
  180MOL0     H24298   2.226   4.264   2.585  0.2372 -0.5496 -0.8000
  180MOL0     H24299   1.766   4.100   3.117  3.5666 -2.1680  3.6358
  180MOL0     H24300   1.732   3.965   3.316  1.3925 -0.5450 -2.3649
  181MOL0     O24301   8.382   0.345   7.545 -0.1810  0.5082 -0.6019
  181MOL0     C24302   8.376   0.346   7.669  0.2716 -1.3450  0.1426
  181MOL0     O24303   8.480   0.365   7.748 -0.4196  0.3464 -0.6369
  181MOL0     C24304   8.605   0.375   7.703 -0.4326  0.9883 -0.5780
  181MOL0     C24305   8.647   0.459   7.608 -0.0379 -0.1817 -1.3800
  181MOL0     C24306   8.781   0.462   7.564 -0.4208  0.8310  0.5071
  181MOL0     C24307   8.880   0.378   7.617  0.6561  0.1877  0.6230
  181MOL0     O24308   9.011   0.390   7.574  0.1640 -0.3467 -0.4730
  181MOL0     C24309   9.082   0.269   7.548  0.8858 -1.6154  0.3189
  181MOL0     C24310   9.227   0.287   7.505  0.5254  1.0390 -0.3406
  181MOL0     C24311   9.319   0.307   7.628  1.0495 -0.2368  0.0399
  181MOL0     C24312   9.457   0.338   7.571 -0.1856  0.8912 -0.6344
  181MOL0     C24313   9.561   0.353   7.684 -0.0834  0.8477 -0.4866
  181MOL0     C24314   9.561   0.496   7.731  0.1443 -0.3117  1.1436
  181MOL0     C24315   9.641   0.499   7.858 -0.6317 -0.3055 -0.1092
  181MOL0     C24316   9.708   0.626   7.894  0.0355  0.5810  0.6517
  181MOL0     N24317   9.846   0.626   7.875 -1.1581  0.3624  0.8800
  181MOL0     C24318   9.912   0.619   7.751  0.1257 -0.2060  0.3911
  181MOL0     C24319  10.040   0.616   7.786 -0.2995 -0.1754  0.4896
  181MOL0     C24320  10.159   0.606   7.690 -0.6456 -0.3623  0.7879
  181MOL0     C24321  10.125   0.566   7.551 -0.2505 -0.8243  1.1542
  181MOL0     C24322  10.084   0.421   7.533 -0.2506  0.4586 -0.0183
  181MOL0     C24323  10.006   0.379   7.409 -0.4101 -0.2170 -0.5895
  181MOL0     O24324   9.872   0.439   7.398  0.1448  0.4078 -0.7768
  181MOL0     C24325   9.770   0.383   7.319 -0.5997  0.4883  0.1390
  181MOL0     C24326   9.784   0.259   7.261 -0.9318 -0.6745 -0.4655
  181MOL0     C24327   9.673   0.199   7.204 -0.2917  0.5246  0.4608
  181MOL0     C24328   9.703   0.058   7.158 -0.0546  0.2560 -1.4664
  181MOL0     C24329   9.549   0.270   7.195 -0.0590 -0.1822 -0.2240
  181MOL0     C24330   9.423   0.203   7.142 -0.0688 -0.1350 -0.5317
  181MOL0     O24331   9.323   0.286   7.117  0.3023 -0.2661 -0.2706
  181MOL0     C24332   9.200   0.244   7.083  0.6308 -0.0742 -0.5285
  181MOL0     C24333   9.102   0.339   7.116 -0.2496  0.4603  0.1824
  181MOL0     C24334   8.962   0.324   7.085  0.3954  0.0006 -0.3617
  181MOL0     C24335   8.924   0.206   7.012 -0.8301 -0.2556 -0.2421
  181MOL0     O24336   8.796   0.174   6.989  0.0590  0.2057 -0.1218
  181MOL0     C24337   8.687   0.247   7.053  0.3802 -1.0637 -0.2301
  181MOL0     C24338   8.563   0.154   7.051  0.3718  0.3537  0.1827
  181MOL0     C24339   8.426   0.205   7.107  0.0446  0.7588 -0.3814
  181MOL0     C24340   8.324   0.098   7.111 -0.0920 -0.4230 -1.0697
  181MOL0     C24341   8.195   0.171   7.170  0.1064 -0.3888  0.5067
  181MOL0     C24342   8.078   0.074   7.218 -0.2878 -0.1669 -0.1033
  181MOL0     C24343   7.993   0.154   7.318  0.4314 -1.3182  0.8852
  181MOL0     C24344   7.934   0.047   7.418 -0.9560 -0.1285  0.1814
  181MOL0    Cl24345   7.822   0.133   7.538 -0.4495  0.0415  0.3548
  181MOL0     C24346   9.024   0.115   6.978 -0.2136  0.7207  0.5283
  181MOL0     C24347   9.156   0.135   7.018 -0.1383 -0.2326 -0.5412
  181MOL0     O24348   9.421   0.083   7.139 -0.2798  0.1909  0.4605
  181MOL0     C24349   9.554   0.406   7.236 -0.3257  0.4588  0.3469
  181MOL0     C24350   9.661   0.460   7.295 -0.2533  0.1938 -0.3085
  181MOL0     N24351  10.063   0.610   7.922 -0.4164 -0.2670  0.9404
  181MOL0     N24352   9.936   0.614   7.976 -0.1587  1.2398 -0.6795
  181MOL0     C24353   8.843   0.291   7.724  1.2357  0.0278  0.0998
  181MOL0     C24354   8.708   0.298   7.765 -0.0294  1.1784  0.2202
  181MOL0     C24355   8.244   0.336   7.736 -0.7307  0.4975  0.2406
  181MOL0     C24356   8.232   0.325   7.869 -0.4596 -0.4326  0.7593
  181MOL0     C24357   8.108   0.321   7.932  0.4194 -0.9811 -0.2497
  181MOL0     C24358   7.989   0.320   7.860 -0.0754  0.5344  0.4471
  181MOL0     O24359   7.862   0.310   7.916 -0.0196 -0.0194 -0.6142
  181MOL0     C24360   7.850   0.325   8.057  0.1125 -0.1783 -1.0428
  181MOL0     C24361   7.880   0.467   8.101 -1.0349  0.1894  0.1972
  181MOL0     C24362   7.783   0.564   8.028 -0.5904  0.0434 -0.6313
  181MOL0     C24363   7.774   0.703   8.097  0.0506 -0.4543  0.1118
  181MOL0     C24364   7.670   0.782   8.049  0.3804 -0.1712 -0.7187
  181MOL0     C24365   7.591   0.839   7.977  0.2877  0.2114  0.1508
  181MOL0     C24366   8.005   0.331   7.720  0.7239  0.0873  0.0286
  181MOL0     C24367   8.125   0.363   7.663 -0.6601  0.3382 -0.5444
  181MOL0     H24368   8.573   0.517   7.554 -2.6242 -1.4691  0.6004
  181MOL0     H24369   8.800   0.516   7.472  0.6136 -1.6961 -0.8754
  181MOL0     H24370   9.079   0.209   7.639 -1.6747  1.0987  2.2171
  181MOL0     H24371   9.029   0.203   7.479 -1.2312  0.5860 -0.3144
  181MOL0     H24372   9.241   0.195   7.448  0.3514  1.4053 -0.9850
  181MOL0     H24373   9.242   0.363   7.428  4.7089 -0.8982 -1.7267
  181MOL0     H24374   9.270   0.396   7.666 -1.2409 -2.2421  2.1373
  181MOL0     H24375   9.320   0.223   7.698  0.1332  0.8017  1.3449
  181MOL0     H24376   9.489   0.250   7.515  0.7626  0.1925  0.9523
  181MOL0     H24377   9.467   0.431   7.514  0.3937  0.5567 -1.0818
  181MOL0     H24378   9.532   0.290   7.768  1.1915  3.9422  2.5365
  181MOL0     H24379   9.666   0.330   7.661  1.0252  1.9032  2.9209
  181MOL0     H24380   9.604   0.567   7.661  2.0899 -1.9687  0.5567
  181MOL0     H24381   9.459   0.529   7.752 -0.5853 -1.5672 -0.2752
  181MOL0     H24382   9.589   0.460   7.946 -1.4867 -0.2593 -0.5883
  181MOL0     H24383   9.721   0.425   7.870  1.1922  1.9977  4.0709
  181MOL0     H24384   9.679   0.648   7.997 -4.0880  1.8466 -0.5783
  181MOL0     H24385   9.662   0.709   7.840 -1.6508 -2.3077 -2.7643
  181MOL0     H24386   9.856   0.624   7.658 -0.7164  1.5901  0.9584
  181MOL0     H24387  10.213   0.701   7.688 -1.1398 -0.0035 -3.1495
  181MOL0     H24388  10.230   0.531   7.727 -1.2739 -0.5389  1.6594
  181MOL0     H24389  10.222   0.573   7.501 -1.3511 -5.8454 -2.4352
  181MOL0     H24390  10.050   0.632   7.506  0.6474 -1.2907 -1.1231
  181MOL0     H24391  10.015   0.389   7.612 -2.6670  0.0965 -2.1314
  181MOL0     H24392  10.170   0.355   7.547  0.1519  1.4947  3.3024
  181MOL0     H24393  10.007   0.270   7.405  0.5427 -0.1790 -1.7336
  181MOL0     H24394  10.061   0.407   7.319  1.0983 -2.9852 -0.6343
  181MOL0     H24395   9.878   0.205   7.271  1.7927  3.7869  0.7466
  181MOL0     H24396   9.799   0.026   7.199 -1.0081 -0.6112  0.1850
  181MOL0     H24397   9.629  -0.017   7.189  2.2907 -1.0751  1.3149
  181MOL0     H24398   9.715   0.041   7.050  3.9776 -2.6423 -0.8163
  181MOL0     H24399   9.138   0.429   7.164 -0.2765 -0.2141  1.5128
  181MOL0     H24400   8.892   0.403   7.112  2.3392  1.0679  1.8996
  181MOL0     H24401   8.707   0.277   7.156 -0.7207  0.1359 -0.3461
  181MOL0     H24402   8.675   0.343   7.001 -0.1647 -0.4149  1.0471
  181MOL0     H24403   8.542   0.131   6.947  1.4449 -3.3505  0.6432
  181MOL0     H24404   8.594   0.061   7.099  0.0880  0.6902  1.0379
  181MOL0     H24405   8.391   0.293   7.053  2.3064  3.3697  2.0538
  181MOL0     H24406   8.448   0.243   7.207  1.0469  2.7362 -1.2823
  181MOL0     H24407   8.304   0.072   7.007  0.3116 -1.1567 -0.9707
  181MOL0     H24408   8.343   0.007   7.170  0.3296 -0.9181 -1.9585
  181MOL0     H24409   8.159   0.237   7.091 -1.1648 -0.1274  1.2617
  181MOL0     H24410   8.236   0.236   7.248  0.2507 -0.8246  0.8036
  181MOL0     H24411   8.013   0.023   7.146 -3.0962 -1.2212  2.9050
  181MOL0     H24412   8.133  -0.007   7.267 -0.5982 -1.0061 -1.1016
  181MOL0     H24413   7.923   0.219   7.264  0.9606 -2.8806 -1.8724
  181MOL0     H24414   8.051   0.220   7.383  0.7247 -0.9659  0.2724
  181MOL0     H24415   8.015   0.001   7.476 -1.1501 -1.2765 -0.4359
  181MOL0     H24416   7.874  -0.027   7.365 -1.0638 -0.3375  0.5845
  181MOL0     H24417   8.999   0.024   6.923 -1.2972  0.5146  1.3201
  181MOL0     H24418   9.230   0.057   7.004 -0.7615 -0.7805 -0.8638
  181MOL0     H24419   9.466   0.469   7.231  0.8018  2.4570  3.0789
  181MOL0     H24420   9.663   0.565   7.322 -1.7964  1.4545 -4.4590
  181MOL0     H24421   8.909   0.230   7.785  0.2895  0.2008  1.3390
  181MOL0     H24422   8.686   0.222   7.839 -2.0427 -2.1506 -3.4386
  181MOL0     H24423   8.324   0.314   7.925  2.2676 -0.9650 -3.3557
  181MOL0     H24424   8.121   0.322   8.040 -0.6927 -2.0846 -0.0851
  181MOL0     H24425   7.750   0.314   8.100  0.9662  2.6706  2.0818
  181MOL0     H24426   7.922   0.262   8.110 -0.9868  0.2665  1.0792
  181MOL0     H24427   7.984   0.498   8.088 -1.6216  2.3798  0.2853
  181MOL0     H24428   7.865   0.461   8.209  1.5231  0.3470  0.6262
  181MOL0     H24429   7.684   0.518   8.035 -1.1310  0.7862 -2.5723
  181MOL0     H24430   7.805   0.571   7.921 -2.9548 -0.8519 -1.2521
  181MOL0     H24431   7.870   0.757   8.099 -1.0799  1.6381  2.1835
  181MOL0     H24432   7.754   0.689   8.204 -1.0245  1.8210  0.2549
  181MOL0     H24433   7.529   0.889   7.905  1.5485  1.8449  0.1527
  181MOL0     H24434   7.913   0.333   7.663  0.2167  0.9852  0.8671
  181MOL0     H24435   8.129   0.387   7.557  0.1335 -0.5821 -0.7437
  182MOL0     O24436   9.539   6.153  10.455  0.5979 -0.2589 -0.4517
  182MOL0     C24437   9.561   6.223  10.554  0.4163 -1.2356  0.3547
  182MOL0     O24438   9.570   6.185  10.682  0.1396  0.1808  0.1917
  182MOL0     C24439   9.565   6.054  10.714  0.2102  1.2464  0.0416
  182MOL0     C24440   9.499   5.942  10.644 -0.2329 -0.3780  0.7516
  182MOL0     C24441   9.494   5.812  10.688 -1.1392  1.1861 -0.3206
  182MOL0     C24442   9.566   5.771  10.800 -0.6959 -0.4857  0.2011
  182MOL0     O24443   9.562   5.647  10.864 -0.4673  0.3159 -0.4413
  182MOL0     C24444   9.463   5.541  10.821 -0.2764  0.0009 -0.4479
  182MOL0     C24445   9.464   5.420  10.914 -0.0837 -0.4247  0.3652
  182MOL0     C24446   9.441   5.447  11.062  0.3683  0.5027  0.5580
  182MOL0     C24447   9.292   5.408  11.097 -0.1350  0.2164  0.7727
  182MOL0     C24448   9.260   5.442  11.240  0.2827 -0.6229  0.3547
  182MOL0     C24449   9.118   5.387  11.262 -0.1820 -0.1784 -0.3306
  182MOL0     C24450   9.077   5.394  11.405  0.6139  0.3793  0.1424
  182MOL0     C24451   9.005   5.521  11.455 -0.0793  1.7524 -0.5837
  182MOL0     N24452   8.960   5.508  11.593  0.7476 -0.0748  0.4523
  182MOL0     C24453   9.019   5.467  11.700 -0.4656  0.5414 -0.8976
  182MOL0     C24454   8.928   5.468  11.799 -0.4311  0.3543  0.9938
  182MOL0     C24455   8.950   5.417  11.937 -0.9010 -0.3117  0.7743
  182MOL0     C24456   8.847   5.312  12.000  0.6215 -0.3886 -0.7409
  182MOL0     C24457   8.831   5.169  11.929  0.1112  0.5156 -0.2368
  182MOL0     C24458   8.718   5.153  11.819 -0.2488 -0.1826 -0.8727
  182MOL0     O24459   8.608   5.235  11.851 -0.0511  0.1574  0.4416
  182MOL0     C24460   8.517   5.172  11.930  0.7824  0.2031  0.2578
  182MOL0     C24461   8.473   5.047  11.897  1.2443 -0.3822  0.6282
  182MOL0     C24462   8.394   4.966  11.980  0.7840 -0.6681 -0.3651
  182MOL0     C24463   8.342   4.831  11.929 -0.6429 -0.3537 -0.1312
  182MOL0     C24464   8.352   5.021  12.107  0.2485  0.5840  0.3501
  182MOL0     C24465   8.258   4.951  12.200  0.3605 -0.3761 -0.7247
  182MOL0     O24466   8.251   5.005  12.328 -0.5869  0.5337  0.0542
  182MOL0     C24467   8.170   4.951  12.421 -0.3781  0.7002  0.2755
  182MOL0     C24468   8.027   4.932  12.394 -0.3305 -0.0481  0.2647
  182MOL0     C24469   7.942   4.898  12.496 -0.6809  0.5346 -0.3071
  182MOL0     C24470   7.996   4.869  12.625 -1.0596  0.1512  0.9757
  182MOL0     O24471   7.922   4.834  12.733  0.2401 -0.0181 -0.0797
  182MOL0     C24472   7.785   4.889  12.725 -0.4493  1.0933  0.0365
  182MOL0     C24473   7.723   4.883  12.865  0.8122 -0.0874  0.2953
  182MOL0     C24474   7.562   4.876  12.848 -0.7117 -0.4354 -0.2387
  182MOL0     C24475   7.503   4.873  12.981 -0.0519  0.5171 -0.7501
  182MOL0     C24476   7.349   4.827  12.985  0.6997 -0.2801 -0.4155
  182MOL0     C24477   7.306   4.768  13.125 -0.4987  0.4422 -0.0278
  182MOL0     C24478   7.166   4.709  13.099  0.1612 -0.4005 -0.4774
  182MOL0     C24479   7.136   4.613  13.211  0.6537 -0.1012  0.2626
  182MOL0    Cl24480   7.085   4.703  13.361 -0.2045  0.4941 -0.3810
  182MOL0     C24481   8.135   4.894  12.643 -0.3832 -0.1906 -1.2914
  182MOL0     C24482   8.214   4.941  12.549  0.0521 -0.0188 -1.0342
  182MOL0     O24483   8.210   4.851  12.169  0.7024  0.0033  0.4010
  182MOL0     C24484   8.384   5.155  12.134 -0.5737 -0.3144 -1.0556
  182MOL0     C24485   8.466   5.228  12.045 -0.3492 -0.1213  1.0861
  182MOL0     N24486   8.810   5.525  11.752  0.4968  1.2484  1.0052
  182MOL0     N24487   8.826   5.528  11.621  0.6382  0.3874 -0.9142
  182MOL0     C24488   9.640   5.879  10.865 -0.1365 -0.7446 -0.7840
  182MOL0     C24489   9.639   6.018  10.820 -0.6833  1.4274 -0.7459
  182MOL0     C24490   9.568   6.365  10.521 -0.3291  0.4500 -0.5649
  182MOL0     C24491   9.594   6.463  10.626 -0.2766 -0.3156 -0.6629
  182MOL0     C24492   9.633   6.592  10.594 -0.1687  0.2006  0.7072
  182MOL0     C24493   9.638   6.635  10.456 -0.2355 -0.7238  0.1015
  182MOL0     O24494   9.663   6.770  10.426 -0.5895  0.6245  0.0893
  182MOL0     C24495   9.675   6.805  10.286 -0.5918  0.2410 -0.5661
  182MOL0     C24496   9.704   6.952  10.283 -0.3489 -0.2662  0.2543
  182MOL0     C24497   9.681   7.016  10.143  0.0833 -0.1629 -0.3354
  182MOL0     C24498   9.781   7.114  10.106 -0.4346  0.6232  0.0803
  182MOL0     C24499   9.743   7.168   9.979 -0.2874  0.0363 -0.1128
  182MOL0     C24500   9.703   7.207   9.868  0.6860  0.6580 -0.4303
  182MOL0     C24501   9.611   6.538  10.354 -0.4757 -0.6064 -0.1784
  182MOL0     C24502   9.581   6.408  10.392  0.2333 -0.1755  1.1563
  182MOL0     H24503   9.455   5.953  10.546  1.9424 -1.5594 -0.4182
  182MOL0     H24504   9.441   5.733  10.636  0.5382 -2.1667  2.5982
  182MOL0     H24505   9.363   5.580  10.802 -1.0295 -1.2318  0.8207
  182MOL0     H24506   9.495   5.501  10.724 -2.1253 -2.1749 -0.2467
  182MOL0     H24507   9.396   5.346  10.872  2.8575 -1.6985 -2.5696
  182MOL0     H24508   9.563   5.373  10.918  0.5812  0.9677  1.7741
  182MOL0     H24509   9.507   5.387  11.125 -2.0914 -2.2103  0.7712
  182MOL0     H24510   9.463   5.550  11.091 -2.0803  0.4909  2.9029
  182MOL0     H24511   9.229   5.472  11.033  1.8682  2.8197  1.2117
  182MOL0     H24512   9.286   5.300  11.084  2.0788  0.0486  0.7344
  182MOL0     H24513   9.327   5.401  11.316  0.5872  2.2346  1.7443
  182MOL0     H24514   9.257   5.551  11.242 -2.7254 -0.5978 -0.4929
  182MOL0     H24515   9.041   5.444  11.208  1.4336  1.1994 -1.2997
  182MOL0     H24516   9.098   5.283  11.235 -4.4297 -0.7510  3.7773
  182MOL0     H24517   9.009   5.312  11.430  0.5452  0.5270  0.4439
  182MOL0     H24518   9.163   5.378  11.471  1.6040 -2.7355 -1.6884
  182MOL0     H24519   8.915   5.539  11.396  0.7272  2.5859 -1.6003
  182MOL0     H24520   9.073   5.607  11.446  2.3305 -0.1263 -1.1529
  182MOL0     H24521   9.123   5.440  11.717 -0.3217 -0.5158 -3.1492
  182MOL0     H24522   9.046   5.366  11.947  0.5931  2.5694  2.3912
  182MOL0     H24523   8.959   5.507  11.999 -0.7880  2.7689 -3.3072
  182MOL0     H24524   8.750   5.361  11.986  1.6099  1.3037 -1.9797
  182MOL0     H24525   8.859   5.302  12.108 -2.7903 -1.6210 -0.3463
  182MOL0     H24526   8.817   5.099  12.012  0.6956  3.5884  2.6690
  182MOL0     H24527   8.923   5.139  11.878 -0.7401 -4.3903  0.5641
  182MOL0     H24528   8.701   5.047  11.798  1.9215 -0.6250 -0.6829
  182MOL0     H24529   8.765   5.193  11.729  2.2448 -1.3096 -0.1576
  182MOL0     H24530   8.499   5.006  11.800 -1.7892 -4.5281  1.2779
  182MOL0     H24531   8.236   4.851  11.912 -0.5210 -1.3828 -2.5470
  182MOL0     H24532   8.381   4.803  11.831  0.2934 -0.5926  0.2929
  182MOL0     H24533   8.367   4.744  11.992 -1.4952 -0.0717  0.6077
  182MOL0     H24534   7.987   4.960  12.297 -1.5020 -1.6035  0.2606
  182MOL0     H24535   7.836   4.892  12.475 -0.5438  0.8020 -1.0779
  182MOL0     H24536   7.780   4.996  12.700  4.1413  2.4478  3.4780
  182MOL0     H24537   7.724   4.842  12.647  1.3436  0.4837 -1.0568
  182MOL0     H24538   7.756   4.793  12.918 -0.9505 -1.1102 -0.2695
  182MOL0     H24539   7.750   4.977  12.914  0.6928  0.9303 -1.5002
  182MOL0     H24540   7.538   4.790  12.785  0.4473 -3.3499  2.9847
  182MOL0     H24541   7.539   4.976  12.808  1.5131  0.8759  1.5132
  182MOL0     H24542   7.560   4.798  13.035 -0.4677  0.3785 -0.5003
  182MOL0     H24543   7.514   4.970  13.029 -3.2347  0.2830  0.7072
  182MOL0     H24544   7.335   4.745  12.914 -2.5454  1.0386 -1.4885
  182MOL0     H24545   7.287   4.906  12.943 -1.7477 -1.1443  1.3704
  182MOL0     H24546   7.382   4.694  13.150  0.0980  0.4712 -1.6390
  182MOL0     H24547   7.303   4.845  13.203 -1.7758 -1.0438  1.4506
  182MOL0     H24548   7.177   4.643  13.013  1.8439  0.1186 -0.6902
  182MOL0     H24549   7.090   4.786  13.084  0.9446  0.6177  0.6022
  182MOL0     H24550   7.223   4.551  13.233  0.4665 -0.6020 -0.3610
  182MOL0     H24551   7.057   4.546  13.173  2.4011 -1.1646 -1.7076
  182MOL0     H24552   8.180   4.870  12.739  1.3855 -0.5225 -2.1634
  182MOL0     H24553   8.322   4.930  12.559 -0.1565 -2.3076 -0.6277
  182MOL0     H24554   8.363   5.184  12.237 -4.8294  0.0718 -1.8482
  182MOL0     H24555   8.499   5.328  12.071  0.6763 -0.2728  0.4171
  182MOL0     H24556   9.690   5.842  10.954  1.1448  0.3523 -1.0127
  182MOL0     H24557   9.714   6.088  10.855  1.5803 -1.1890  0.0147
  182MOL0     H24558   9.598   6.442  10.732 -1.4253  2.8215  0.1146
  182MOL0     H24559   9.635   6.661  10.677 -1.9950  2.5644 -1.0895
  182MOL0     H24560   9.747   6.752  10.224  2.2909  1.9063  1.1299
  182MOL0     H24561   9.576   6.788  10.243 -0.6441 -1.9207  0.3032
  182MOL0     H24562   9.806   6.967  10.320  0.0277 -1.1741 -0.4017
  182MOL0     H24563   9.640   7.010  10.350 -2.0067  0.2049 -1.6418
  182MOL0     H24564   9.580   7.055  10.131 -0.6113 -1.8064 -0.0989
  182MOL0     H24565   9.691   6.943  10.062 -0.1250  0.7726 -1.2350
  182MOL0     H24566   9.880   7.067  10.102 -0.7326 -0.1363  1.2228
  182MOL0     H24567   9.782   7.197  10.177 -1.0285  0.3629  0.4041
  182MOL0     H24568   9.680   7.232   9.767 -1.4582  1.9068  0.3015
  182MOL0     H24569   9.620   6.569  10.250  3.4703  3.5100  1.0280
  182MOL0     H24570   9.562   6.328  10.321  1.9311  0.1806  0.2648
  183MOL0     O24571   5.637   2.042   7.464  0.2631  0.5839  0.2119
  183MOL0     C24572   5.670   2.007   7.351 -1.0019 -0.4563 -0.4519
  183MOL0     O24573   5.586   1.986   7.242 -0.1917  0.0042  0.3277
  183MOL0     C24574   5.452   2.007   7.244  0.1417 -0.3956  0.3417
  183MOL0     C24575   5.380   1.922   7.151  0.6884  0.4212  0.5096
  183MOL0     C24576   5.244   1.924   7.147 -0.6365 -0.1462  0.7374
  183MOL0     C24577   5.169   2.015   7.230  0.1248  1.1674 -0.4060
  183MOL0     O24578   5.034   2.004   7.231 -0.7354 -0.2964  0.9481
  183MOL0     C24579   4.966   1.881   7.270 -0.0536  0.1232  0.4657
  183MOL0     C24580   4.901   1.904   7.410 -0.8283 -0.2524  0.6205
  183MOL0     C24581   4.809   1.787   7.454 -0.6749  0.2751 -0.0730
  183MOL0     C24582   4.691   1.750   7.371  0.0944 -0.5817  0.5924
  183MOL0     C24583   4.599   1.640   7.429 -0.0222 -0.6043 -0.0741
  183MOL0     C24584   4.484   1.622   7.319 -0.3794 -0.1328 -0.0396
  183MOL0     C24585   4.402   1.497   7.352 -0.1872 -1.3286  0.6705
  183MOL0     C24586   4.281   1.479   7.258 -0.6262  0.1287  0.5531
  183MOL0     N24587   4.187   1.590   7.250  0.4570  0.0629  0.2380
  183MOL0     C24588   4.199   1.710   7.176 -0.7390 -0.7360 -0.3046
  183MOL0     C24589   4.084   1.773   7.210 -0.6283 -0.1104 -0.2984
  183MOL0     C24590   4.064   1.910   7.153 -0.3123 -0.3417  0.0811
  183MOL0     C24591   3.910   1.945   7.151 -1.2432  0.8210  0.7716
  183MOL0     C24592   3.840   1.849   7.046  0.1716 -0.3112  0.2645
  183MOL0     C24593   3.697   1.901   7.014  0.3605  0.8061 -0.2492
  183MOL0     O24594   3.706   2.031   6.958  0.5969 -1.3559 -0.5391
  183MOL0     C24595   3.592   2.097   6.913  0.5700  1.0417 -1.0058
  183MOL0     C24596   3.461   2.044   6.914  0.3744 -0.0470 -0.7776
  183MOL0     C24597   3.358   2.119   6.845 -0.5312  0.2849  0.5880
  183MOL0     C24598   3.225   2.042   6.828  0.4799  0.1673 -0.2887
  183MOL0     C24599   3.378   2.251   6.808  0.1779  0.0707  0.9355
  183MOL0     C24600   3.273   2.337   6.748  0.6086  0.5032  0.7901
  183MOL0     O24601   3.165   2.365   6.818 -0.2968  0.4287 -0.5659
  183MOL0     C24602   3.054   2.418   6.764  0.9115 -0.0569 -0.0618
  183MOL0     C24603   2.949   2.330   6.739  0.3846  0.0308 -0.4335
  183MOL0     C24604   2.837   2.369   6.674 -0.3482 -0.9178 -0.2840
  183MOL0     C24605   2.821   2.505   6.641  1.0219  0.2865  0.1563
  183MOL0     O24606   2.710   2.554   6.583  0.4400  0.0614  0.1328
  183MOL0     C24607   2.600   2.593   6.677 -0.0739  0.1301  0.1250
  183MOL0     C24608   2.577   2.746   6.686  0.8322  0.4435  0.2129
  183MOL0     C24609   2.498   2.784   6.564  0.4024 -0.3733  0.2345
  183MOL0     C24610   2.468   2.934   6.564  0.4615 -0.6501 -0.6506
  183MOL0     C24611   2.455   3.014   6.426  0.0939  0.7680 -0.5270
  183MOL0     C24612   2.333   2.966   6.345 -0.0813  0.3330  0.7179
  183MOL0     C24613   2.316   3.047   6.212 -0.1109  0.0714  0.9229
  183MOL0     C24614   2.187   3.025   6.134 -0.4203 -0.1258 -0.6462
  183MOL0    Cl24615   2.154   3.159   6.009  0.0240  0.4113  0.1066
  183MOL0     C24616   2.928   2.596   6.659  1.0520 -0.5341 -0.4382
  183MOL0     C24617   3.043   2.554   6.721  0.2689  0.4451  0.2171
  183MOL0     O24618   3.298   2.370   6.631 -0.2355 -0.4583 -0.0757
  183MOL0     C24619   3.503   2.304   6.802 -0.5484 -0.0498 -0.4886
  183MOL0     C24620   3.604   2.226   6.862 -0.0371  0.0453  0.0354
  183MOL0     N24621   4.015   1.707   7.303 -0.1689 -0.0710 -0.1148
  183MOL0     N24622   4.071   1.589   7.317 -0.1207  0.7573 -0.4206
  183MOL0     C24623   5.247   2.107   7.305  0.3744  1.1739 -1.2002
  183MOL0     C24624   5.382   2.102   7.317  0.4402 -0.0410  0.4263
  183MOL0     C24625   5.816   1.992   7.311 -0.6293  0.7187 -0.0466
  183MOL0     C24626   5.857   1.952   7.181  1.2168  0.8317 -0.3940
  183MOL0     C24627   5.982   1.912   7.153 -0.5985  1.0834 -0.2468
  183MOL0     C24628   6.084   1.926   7.251 -0.3935 -0.1006 -0.0858
  183MOL0     O24629   6.214   1.886   7.227 -0.4255 -0.2812  0.2880
  183MOL0     C24630   6.281   1.990   7.157 -0.2989  0.9572 -0.3260
  183MOL0     C24631   6.391   1.938   7.065  0.0318 -0.5158  0.0979
  183MOL0     C24632   6.350   1.860   6.949 -0.6008  0.2883  0.2470
  183MOL0     C24633   6.474   1.855   6.857 -0.2830 -0.2186  0.2865
  183MOL0     C24634   6.457   1.743   6.762  0.0610 -1.0395 -0.0679
  183MOL0     C24635   6.456   1.646   6.694  0.3388 -0.1268  0.0216
  183MOL0     C24636   6.053   1.980   7.369 -0.3430  0.2432  0.0856
  183MOL0     C24637   5.924   2.012   7.398 -0.1131  1.0342  0.4651
  183MOL0     H24638   5.436   1.849   7.093 -0.9567 -1.3844  1.0960
  183MOL0     H24639   5.198   1.863   7.070  2.4858 -0.2789 -1.1932
  183MOL0     H24640   4.889   1.885   7.192 -1.4050  1.3445  1.7963
  183MOL0     H24641   5.026   1.789   7.270 -0.5994 -0.2467  1.3542
  183MOL0     H24642   4.979   1.903   7.486 -0.9306  0.4209  0.7357
  183MOL0     H24643   4.844   1.997   7.411  1.6248  1.3341  0.9706
  183MOL0     H24644   4.879   1.704   7.462  1.0218  1.4119 -2.1100
  183MOL0     H24645   4.763   1.804   7.552 -0.6969  0.3010 -0.0872
  183MOL0     H24646   4.625   1.836   7.355 -0.7088 -1.3027 -0.1404
  183MOL0     H24647   4.724   1.714   7.273 -2.9908  0.1993 -0.8704
  183MOL0     H24648   4.658   1.548   7.430  2.6193  0.9587 -1.7401
  183MOL0     H24649   4.561   1.665   7.528  1.5239 -0.3680  0.4822
  183MOL0     H24650   4.419   1.709   7.306 -2.0474 -1.3527 -0.2419
  183MOL0     H24651   4.524   1.599   7.220 -1.2499 -4.2873  0.4045
  183MOL0     H24652   4.473   1.414   7.356 -0.3792 -1.4784  0.9969
  183MOL0     H24653   4.360   1.497   7.453  0.0448 -0.1755  0.7825
  183MOL0     H24654   4.215   1.402   7.298 -0.6933  0.2920  0.7582
  183MOL0     H24655   4.321   1.447   7.161 -0.0408  2.3906 -0.0194
  183MOL0     H24656   4.277   1.755   7.115 -0.0089  1.7223  2.2197
  183MOL0     H24657   4.112   1.968   7.233  1.5017  0.2257 -1.3633
  183MOL0     H24658   4.112   1.932   7.058 -1.3197 -2.4425 -0.9713
  183MOL0     H24659   3.885   2.046   7.117  1.2036  1.6908  1.3579
  183MOL0     H24660   3.872   1.931   7.252  3.0271 -1.8224  2.2738
  183MOL0     H24661   3.837   1.743   7.074  0.9909 -0.9281 -1.7567
  183MOL0     H24662   3.896   1.852   6.952  2.3917  0.4839  1.5385
  183MOL0     H24663   3.629   1.903   7.100  0.5348 -0.3655 -0.0681
  183MOL0     H24664   3.651   1.829   6.947  0.8960  1.4684 -1.3558
  183MOL0     H24665   3.445   1.942   6.948  2.8831 -0.1184  0.4143
  183MOL0     H24666   3.233   1.934   6.808 -1.0759 -0.3916  1.7512
  183MOL0     H24667   3.170   2.047   6.922  1.8398 -3.4500  0.8595
  183MOL0     H24668   3.158   2.081   6.751  0.4948 -0.7750 -0.8033
  183MOL0     H24669   2.952   2.225   6.767  2.4964 -0.5059 -2.3752
  183MOL0     H24670   2.758   2.296   6.663 -0.6605 -1.2424  3.1656
  183MOL0     H24671   2.516   2.540   6.630 -2.5218  3.7120  0.0496
  183MOL0     H24672   2.627   2.566   6.779  0.4039  2.6017  0.7068
  183MOL0     H24673   2.509   2.752   6.771 -0.1742 -0.3226 -0.5238
  183MOL0     H24674   2.659   2.818   6.692 -0.6517  2.3021 -0.6613
  183MOL0     H24675   2.397   2.742   6.564 -0.7787  2.2476  1.4994
  183MOL0     H24676   2.547   2.759   6.469 -1.2802 -0.5958 -0.6267
  183MOL0     H24677   2.379   2.947   6.626  0.2936 -0.9768 -0.8197
  183MOL0     H24678   2.550   2.990   6.609  0.3807  1.0889 -2.5211
  183MOL0     H24679   2.541   2.992   6.361  1.7158 -1.6701  2.2122
  183MOL0     H24680   2.443   3.121   6.443 -2.0503  1.4900 -5.0633
  183MOL0     H24681   2.338   2.859   6.320 -1.6905  0.8528 -2.2978
  183MOL0     H24682   2.239   2.976   6.400  0.4598 -0.3291  1.8040
  183MOL0     H24683   2.395   3.032   6.137 -2.2260  1.1534 -1.6903
  183MOL0     H24684   2.318   3.154   6.237  1.0522 -0.3936  3.0292
  183MOL0     H24685   2.107   3.016   6.207  1.5222  1.1423  1.7952
  183MOL0     H24686   2.191   2.937   6.070  0.3027 -0.5794  0.0051
  183MOL0     H24687   2.922   2.699   6.626  0.1683  0.2731  2.0094
  183MOL0     H24688   3.121   2.629   6.727 -0.5969  2.2176 -5.1547
  183MOL0     H24689   3.512   2.400   6.753 -4.0916  1.4333  1.4414
  183MOL0     H24690   3.707   2.259   6.849  0.4259 -1.8938 -1.6459
  183MOL0     H24691   5.188   2.170   7.372  1.6794 -0.4200  1.6538
  183MOL0     H24692   5.434   2.166   7.388 -0.0052 -0.8703  1.5263
  183MOL0     H24693   5.779   1.923   7.110  0.7741 -1.0240  0.7711
  183MOL0     H24694   6.017   1.887   7.053  1.8890 -3.2420  1.4189
  183MOL0     H24695   6.214   2.033   7.083 -1.3414 -1.1168 -0.6571
  183MOL0     H24696   6.305   2.071   7.227 -0.6356  0.8246 -0.0543
  183MOL0     H24697   6.474   1.888   7.117  0.9304 -1.1577 -1.8271
  183MOL0     H24698   6.433   2.031   7.025 -4.5345  1.5465 -0.5494
  183MOL0     H24699   6.263   1.910   6.906  0.2169  2.1449  0.6555
  183MOL0     H24700   6.323   1.757   6.973  1.0785 -0.3781 -0.5710
  183MOL0     H24701   6.565   1.837   6.914 -0.0474  0.0659  0.0036
  183MOL0     H24702   6.487   1.948   6.801  0.4360 -1.3502 -1.4988
  183MOL0     H24703   6.457   1.546   6.655 -0.2417 -0.9492  1.9780
  183MOL0     H24704   6.138   1.993   7.435 -1.3694 -1.1644  1.7690
  183MOL0     H24705   5.893   2.055   7.493 -2.0295 -0.8035  0.7386
  184MOL0     O24706   2.684   8.327   9.052 -0.2240  0.7421  0.4243
  184MOL0     C24707   2.729   8.427   9.101  0.1230 -0.6732 -0.7975
  184MOL0     O24708   2.718   8.553   9.045 -0.6914 -0.0079 -0.0255
  184MOL0     C24709   2.694   8.560   8.915 -0.3632 -0.2383  0.3894
  184MOL0     C24710   2.769   8.490   8.823  0.9576  0.0410  0.6050
  184MOL0     C24711   2.739   8.495   8.681 -0.2715  0.6935 -0.1816
  184MOL0     C24712   2.633   8.581   8.645 -0.4789  0.3865 -0.2595
  184MOL0     O24713   2.593   8.592   8.519 -0.1505  0.2617  0.4088
  184MOL0     C24714   2.666   8.533   8.412  0.1814 -0.1584 -0.3471
  184MOL0     C24715   2.584   8.556   8.288 -0.1498 -0.4917 -0.6206
  184MOL0     C24716   2.627   8.683   8.224  0.6823  0.7410  0.1360
  184MOL0     C24717   2.539   8.708   8.104 -0.5416 -0.2456  0.6449
  184MOL0     C24718   2.575   8.835   8.019 -0.7191  0.4435  0.6907
  184MOL0     C24719   2.497   8.833   7.885  0.7989 -0.1013 -0.6913
  184MOL0     C24720   2.532   8.953   7.794 -1.1359 -0.1132 -0.3641
  184MOL0     C24721   2.680   8.961   7.743 -0.1431  1.2309 -0.0020
  184MOL0     N24722   2.671   9.047   7.623  0.0395  0.4654 -0.0187
  184MOL0     C24723   2.693   9.008   7.489  0.3356  0.0918  0.6478
  184MOL0     C24724   2.705   9.127   7.429  0.0836  0.5457  0.2392
  184MOL0     C24725   2.739   9.139   7.281  0.0466 -0.2175  0.2498
  184MOL0     C24726   2.867   9.234   7.266 -0.1465 -0.1947  0.8769
  184MOL0     C24727   2.880   9.258   7.111  0.3811 -0.2490 -1.0910
  184MOL0     C24728   3.028   9.279   7.082 -0.1038 -0.8726 -0.1482
  184MOL0     O24729   3.117   9.166   7.105 -0.5674 -0.0718  0.7305
  184MOL0     C24730   3.248   9.190   7.066  1.0019 -0.0042  0.6921
  184MOL0     C24731   3.292   9.315   7.006 -0.3345 -1.0909  0.0298
  184MOL0     C24732   3.428   9.335   6.968  0.9149 -0.6887 -0.2060
  184MOL0     C24733   3.460   9.462   6.893 -0.1269  0.1561  0.0308
  184MOL0     C24734   3.524   9.224   6.989  0.6306  0.2264  0.1815
  184MOL0     C24735   3.657   9.223   6.940 -0.1659 -0.1456  0.8069
  184MOL0     O24736   3.690   9.310   6.836  0.1334 -0.4042  0.0928
  184MOL0     C24737   3.817   9.329   6.789  0.0382  0.1162 -0.1866
  184MOL0     C24738   3.832   9.396   6.665  0.2092  0.1407 -0.2363
  184MOL0     C24739   3.954   9.415   6.609 -0.8836  0.7193 -0.1108
  184MOL0     C24740   4.068   9.366   6.680 -0.1328 -0.4834  0.1012
  184MOL0     O24741   4.188   9.365   6.618 -0.1259 -0.2763  0.1037
  184MOL0     C24742   4.309   9.359   6.704 -0.1067  0.1814  0.3711
  184MOL0     C24743   4.435   9.383   6.616 -0.9424  0.6333 -0.5664
  184MOL0     C24744   4.548   9.408   6.711 -0.5177 -0.0379  0.4064
  184MOL0     C24745   4.675   9.395   6.637 -0.3661 -0.1789 -0.0541
  184MOL0     C24746   4.791   9.423   6.733 -0.2716 -0.2779  0.0329
  184MOL0     C24747   4.902   9.514   6.680 -0.8583  0.2622  0.3985
  184MOL0     C24748   4.975   9.471   6.551  0.3048  0.1431 -0.3379
  184MOL0     C24749   5.068   9.587   6.507 -0.4592 -0.3358 -1.1880
  184MOL0    Cl24750   5.183   9.634   6.645 -0.3820  0.0241  0.0258
  184MOL0     C24751   4.057   9.302   6.813 -0.3177  0.0184  0.9071
  184MOL0     C24752   3.934   9.290   6.862  0.0219  0.4229  0.1826
  184MOL0     O24753   3.727   9.135   6.985 -0.1761 -0.4906 -0.2193
  184MOL0     C24754   3.478   9.112   7.061  0.2632 -0.6598  0.7410
  184MOL0     C24755   3.344   9.091   7.096 -0.4072  0.6354  0.0977
  184MOL0     N24756   2.689   9.227   7.516 -0.3331 -0.2147  0.0643
  184MOL0     N24757   2.673   9.178   7.634  0.2168  0.7452 -0.2715
  184MOL0     C24758   2.565   8.662   8.740 -0.8214  0.3301  0.5133
  184MOL0     C24759   2.594   8.650   8.883 -0.4270 -0.2682  0.4127
  184MOL0     C24760   2.790   8.415   9.239 -0.2404  1.4660  0.5234
  184MOL0     C24761   2.901   8.483   9.285  0.2315 -0.4653 -0.2499
  184MOL0     C24762   2.943   8.475   9.417  0.7243  0.9032  0.2577
  184MOL0     C24763   2.873   8.402   9.508 -0.0577  0.7054 -0.2350
  184MOL0     O24764   2.903   8.401   9.644 -0.6640  0.3452 -0.4158
  184MOL0     C24765   3.011   8.478   9.693  0.5925 -0.2065 -0.4163
  184MOL0     C24766   3.033   8.453   9.842 -0.1547  0.1380 -0.5314
  184MOL0     C24767   3.123   8.564   9.899 -0.1717 -0.1411  1.2507
  184MOL0     C24768   3.130   8.555  10.051 -0.1979 -0.0744  0.2726
  184MOL0     C24769   3.216   8.453  10.104 -0.3095  0.0636 -0.5752
  184MOL0     C24770   3.297   8.377  10.150 -1.4763 -0.4700  0.4273
  184MOL0     C24771   2.777   8.313   9.469  0.0859  0.5329  0.2592
  184MOL0     C24772   2.733   8.331   9.329  0.6609  0.7824 -0.3295
  184MOL0     H24773   2.843   8.420   8.861  0.5085 -0.3505  0.7570
  184MOL0     H24774   2.799   8.442   8.607  0.2340 -0.3818  0.9697
  184MOL0     H24775   2.757   8.591   8.393 -1.4160  2.3187 -0.9554
  184MOL0     H24776   2.678   8.425   8.420 -0.1612 -0.3116 -1.7290
  184MOL0     H24777   2.606   8.468   8.226  0.6824  0.8608 -2.3350
  184MOL0     H24778   2.480   8.550   8.320 -0.1801  1.7164 -0.1691
  184MOL0     H24779   2.603   8.753   8.304 -3.1977 -0.9551  0.6786
  184MOL0     H24780   2.733   8.674   8.199  0.2511  0.5757 -1.7792
  184MOL0     H24781   2.538   8.624   8.034 -1.6832 -0.8403  1.3322
  184MOL0     H24782   2.435   8.724   8.134 -0.6845  2.5580 -1.0477
  184MOL0     H24783   2.568   8.923   8.083 -1.3993  0.5973  0.4085
  184MOL0     H24784   2.682   8.829   7.995  0.1579  2.5619  3.4733
  184MOL0     H24785   2.526   8.741   7.833 -1.2007 -0.0286 -2.0624
  184MOL0     H24786   2.392   8.851   7.909  1.4056  0.2571  1.9635
  184MOL0     H24787   2.458   8.961   7.714  2.2709  1.1484 -3.6960
  184MOL0     H24788   2.525   9.044   7.854 -2.2007 -1.4876  1.7526
  184MOL0     H24789   2.727   8.866   7.715  1.7873  1.3009  2.6583
  184MOL0     H24790   2.749   8.995   7.821  0.2160  3.2046 -1.1204
  184MOL0     H24791   2.726   8.913   7.448  1.3093  0.7068 -0.0448
  184MOL0     H24792   2.764   9.039   7.246  2.1286  0.6227 -0.8285
  184MOL0     H24793   2.658   9.185   7.223  1.3325  0.4787 -1.0304
  184MOL0     H24794   2.956   9.195   7.316  1.6907  4.4366  1.7373
  184MOL0     H24795   2.835   9.330   7.308  0.8297  0.4120  0.2548
  184MOL0     H24796   2.831   9.348   7.074  3.6108  2.4680  0.6126
  184MOL0     H24797   2.843   9.170   7.057 -1.4647 -0.7748  0.9045
  184MOL0     H24798   3.062   9.370   7.132 -0.8114 -0.1845 -0.8972
  184MOL0     H24799   3.039   9.305   6.976  2.3867 -2.6094 -0.4257
  184MOL0     H24800   3.227   9.402   7.005 -2.7988 -2.8232 -1.3985
  184MOL0     H24801   3.465   9.436   6.787  1.0680  0.5324 -0.0164
  184MOL0     H24802   3.381   9.539   6.896 -2.4651 -2.0477 -0.9208
  184MOL0     H24803   3.553   9.510   6.925  1.0582 -2.0750  0.0940
  184MOL0     H24804   3.743   9.426   6.611  0.1163  2.4504  1.0776
  184MOL0     H24805   3.965   9.459   6.511 -0.3133 -1.9738 -1.3521
  184MOL0     H24806   4.309   9.432   6.785 -0.2710  0.8397 -0.2191
  184MOL0     H24807   4.326   9.257   6.739  0.2653  0.5863  1.3913
  184MOL0     H24808   4.447   9.294   6.553  2.3183  1.2183 -0.9399
  184MOL0     H24809   4.435   9.461   6.539  0.1195  0.9630 -0.2552
  184MOL0     H24810   4.546   9.330   6.788 -4.2384 -1.3795 -0.8092
  184MOL0     H24811   4.531   9.507   6.753 -2.8823 -0.1135 -0.2467
  184MOL0     H24812   4.679   9.299   6.585  0.9268  1.3382 -3.0439
  184MOL0     H24813   4.666   9.467   6.555 -2.3246  1.1975  1.2549
  184MOL0     H24814   4.830   9.325   6.761 -2.0511 -0.9375  0.3518
  184MOL0     H24815   4.763   9.477   6.824  1.7383  1.5259 -0.3414
  184MOL0     H24816   4.851   9.610   6.663 -0.9564  0.1150 -0.1568
  184MOL0     H24817   4.971   9.523   6.764 -1.2096  2.0590  0.5264
  184MOL0     H24818   4.898   9.463   6.474 -1.3236 -0.8008  1.3123
  184MOL0     H24819   5.038   9.382   6.562  0.8635  0.6769  1.1219
  184MOL0     H24820   5.019   9.684   6.492 -0.2615 -0.1960 -0.9536
  184MOL0     H24821   5.121   9.556   6.416  1.0027 -0.7340 -0.2428
  184MOL0     H24822   4.134   9.248   6.867 -0.1051 -0.5771  0.0298
  184MOL0     H24823   3.921   9.231   6.952 -0.7699 -1.6869 -1.2482
  184MOL0     H24824   3.545   9.027   7.073  1.9405  0.2786 -1.2825
  184MOL0     H24825   3.324   9.001   7.154  0.6949 -0.1524 -0.7007
  184MOL0     H24826   2.490   8.733   8.707 -0.2394  1.0144  0.6393
  184MOL0     H24827   2.546   8.712   8.959  2.2742 -0.8373  2.7274
  184MOL0     H24828   2.944   8.561   9.223 -2.0513  1.9479  0.9954
  184MOL0     H24829   3.022   8.538   9.455  1.9942 -2.5315  4.0902
  184MOL0     H24830   3.099   8.446   9.635 -1.0391 -1.6242 -2.2466
  184MOL0     H24831   2.984   8.581   9.672 -0.7933 -0.4270  0.1881
  184MOL0     H24832   3.079   8.355   9.856  3.1884  1.6617  0.3614
  184MOL0     H24833   2.939   8.456   9.897 -1.5664 -0.0121 -2.8310
  184MOL0     H24834   3.085   8.662   9.868 -0.1779 -1.0432 -1.9034
  184MOL0     H24835   3.226   8.557   9.862 -1.6544 -2.8414 -3.1372
  184MOL0     H24836   3.026   8.533  10.079  0.5515 -2.9693  1.1782
  184MOL0     H24837   3.159   8.651  10.093  1.1554 -0.3652  0.0629
  184MOL0     H24838   3.373   8.310  10.185  0.2498  2.0398  1.8314
  184MOL0     H24839   2.723   8.252   9.540  3.6253 -1.0067  1.8414
  184MOL0     H24840   2.645   8.284   9.286  1.1524  0.9119 -1.5092
  185MOL0     O24841   2.413   0.326   1.294  0.1455 -0.5605  0.2720
  185MOL0     C24842   2.344   0.423   1.344 -0.4546  0.8571 -0.9557
  185MOL0     O24843   2.377   0.554   1.337 -0.4262  0.2329  0.5796
  185MOL0     C24844   2.462   0.592   1.229 -0.2877 -0.4095 -0.4106
  185MOL0     C24845   2.412   0.676   1.124  0.0024  0.0451 -0.1055
  185MOL0     C24846   2.504   0.718   1.022 -0.4003 -0.1665  0.8685
  185MOL0     C24847   2.644   0.690   1.036 -0.8640  0.0346 -0.6198
  185MOL0     O24848   2.736   0.739   0.945 -0.4136  0.4591  0.0222
  185MOL0     C24849   2.706   0.868   0.900 -0.4334 -0.0437 -0.6678
  185MOL0     C24850   2.653   0.857   0.760 -0.5876 -0.2679  0.5384
  185MOL0     C24851   2.639   1.011   0.719 -0.6093  0.3831 -1.4435
  185MOL0     C24852   2.606   1.012   0.567 -1.1069 -0.3112 -0.3927
  185MOL0     C24853   2.568   1.152   0.526 -0.1969 -0.1878  0.6591
  185MOL0     C24854   2.498   1.155   0.389  0.0842 -0.6254 -0.4794
  185MOL0     C24855   2.572   1.091   0.263 -0.2133  0.0061 -0.1665
  185MOL0     C24856   2.721   1.139   0.255  0.7362  0.4590 -0.8747
  185MOL0     N24857   2.792   1.080   0.145 -0.4897  0.3777  0.1047
  185MOL0     C24858   2.931   1.109   0.123  0.3104  0.4179 -0.4641
  185MOL0     C24859   2.968   1.026   0.015 -0.3040 -0.9623  0.4775
  185MOL0     C24860   3.095   1.047  -0.046  0.3215 -0.5025  0.1753
  185MOL0     C24861   3.213   0.986   0.033 -0.4349  0.4344  0.4711
  185MOL0     C24862   3.297   1.084   0.104  0.4977  0.0250 -0.1611
  185MOL0     C24863   3.426   1.025   0.144  0.1073 -0.6245 -0.3012
  185MOL0     O24864   3.499   1.111   0.241  0.0508  0.3011  0.2450
  185MOL0     C24865   3.626   1.076   0.261  0.7621  0.2553  0.0657
  185MOL0     C24866   3.679   0.954   0.242 -0.1056 -0.3789  0.3908
  185MOL0     C24867   3.801   0.920   0.301 -0.6767 -0.1171  0.4222
  185MOL0     C24868   3.848   0.775   0.271 -0.0263 -0.2753  0.4635
  185MOL0     C24869   3.878   1.022   0.362  0.4564  0.8163  0.6114
  185MOL0     C24870   4.004   0.995   0.423 -0.2561  0.6602 -0.3774
  185MOL0     O24871   4.116   1.034   0.348  0.4406  0.7633 -0.6701
  185MOL0     C24872   4.238   1.070   0.414 -0.0088  0.9789  1.1363
  185MOL0     C24873   4.343   1.098   0.327 -0.6514 -0.3347  0.3785
  185MOL0     C24874   4.462   1.144   0.385 -1.2304 -0.1006  0.3577
  185MOL0     C24875   4.485   1.152   0.525  0.4467  0.0528 -0.6374
  185MOL0     O24876   4.605   1.197   0.588  0.8254  0.0415  0.3472
  185MOL0     C24877   4.728   1.175   0.509  1.0803 -0.2623  0.5822
  185MOL0     C24878   4.855   1.214   0.594  0.2071 -0.5930 -0.1490
  185MOL0     C24879   4.852   1.362   0.646 -0.8490  0.5819  0.1299
  185MOL0     C24880   4.972   1.396   0.742  0.2720 -0.2883  0.2375
  185MOL0     C24881   5.055   1.525   0.723 -0.6786 -0.7853  0.2426
  185MOL0     C24882   5.145   1.573   0.842 -0.2779 -0.1924  0.1700
  185MOL0     C24883   5.239   1.683   0.785 -0.0748 -0.4898 -0.2675
  185MOL0     C24884   5.379   1.702   0.868 -0.7938 -0.7883  0.4595
  185MOL0    Cl24885   5.349   1.754   1.039  0.3455 -0.2625 -0.1531
  185MOL0     C24886   4.377   1.120   0.607 -0.6034  0.4246  0.5190
  185MOL0     C24887   4.257   1.092   0.556 -0.5793 -0.2915 -0.3812
  185MOL0     O24888   4.000   0.933   0.529 -0.1768  1.2653 -0.4242
  185MOL0     C24889   3.832   1.155   0.355  0.3565 -0.2436  0.5239
  185MOL0     C24890   3.702   1.179   0.315  0.1370 -0.1518 -0.7595
  185MOL0     N24891   2.843   0.968  -0.029  0.0748 -0.0628  1.3084
  185MOL0     N24892   2.749   0.990   0.051 -0.0374 -0.1073 -0.1540
  185MOL0     C24893   2.692   0.627   1.154  0.1157  0.5810 -1.1227
  185MOL0     C24894   2.599   0.570   1.241 -0.4628 -0.7573 -0.5060
  185MOL0     C24895   2.200   0.400   1.400 -0.2889 -0.2374  0.1562
  185MOL0     C24896   2.149   0.273   1.418  0.2795 -0.2571 -0.1775
  185MOL0     C24897   2.022   0.250   1.468  0.3749 -0.0964 -0.3808
  185MOL0     C24898   1.932   0.363   1.479  1.3091  0.0613  0.2028
  185MOL0     O24899   1.801   0.331   1.508 -0.6755  0.1893 -0.2561
  185MOL0     C24900   1.710   0.437   1.506 -0.6775 -0.0238  0.1862
  185MOL0     C24901   1.567   0.383   1.524  0.4916  0.3811 -0.4440
  185MOL0     C24902   1.559   0.333   1.667  0.2575  0.0685 -0.1995
  185MOL0     C24903   1.429   0.248   1.683  0.8153  0.1162 -0.0320
  185MOL0     C24904   1.439   0.112   1.632 -0.2650 -0.0091 -0.4693
  185MOL0     C24905   1.464   0.008   1.593 -1.1553  0.1823  0.0449
  185MOL0     C24906   1.984   0.493   1.449  0.8082  0.0979 -0.6993
  185MOL0     C24907   2.110   0.512   1.413 -0.6556  0.5352  0.4169
  185MOL0     H24908   2.308   0.707   1.115 -0.4623 -1.3256  0.2938
  185MOL0     H24909   2.464   0.762   0.931 -0.6374 -2.7134 -0.3473
  185MOL0     H24910   2.650   0.927   0.972  1.2340 -0.1121  0.7483
  185MOL0     H24911   2.802   0.920   0.895 -0.8124  0.9100  1.0994
  185MOL0     H24912   2.721   0.799   0.698  0.1770  1.2080 -0.0737
  185MOL0     H24913   2.562   0.798   0.748 -0.3346 -0.2087 -2.1739
  185MOL0     H24914   2.554   1.059   0.768  1.3055  3.2331 -0.6009
  185MOL0     H24915   2.723   1.072   0.754 -0.9067  0.3515 -0.6573
  185MOL0     H24916   2.698   0.987   0.514 -0.8965  1.8435 -1.1111
  185MOL0     H24917   2.524   0.942   0.548 -3.1652  2.1615 -1.2159
  185MOL0     H24918   2.513   1.205   0.604  2.2554  2.8684  0.5278
  185MOL0     H24919   2.662   1.208   0.518  0.7933 -1.7577  0.6761
  185MOL0     H24920   2.398   1.111   0.393 -0.8999  1.3664 -1.5329
  185MOL0     H24921   2.484   1.260   0.361 -1.2431 -0.5824  0.2505
  185MOL0     H24922   2.568   0.982   0.277 -1.8136  0.1357  0.6382
  185MOL0     H24923   2.525   1.123   0.170  1.3957  2.3639 -0.2445
  185MOL0     H24924   2.775   1.116   0.348 -1.3860 -1.1205  0.0579
  185MOL0     H24925   2.720   1.247   0.239 -1.8495  0.8268  1.1477
  185MOL0     H24926   2.994   1.191   0.154  2.5118 -0.2027 -2.9217
  185MOL0     H24927   3.091   0.990  -0.140 -1.0725 -1.8288  0.9899
  185MOL0     H24928   3.126   1.151  -0.057  1.9842 -1.0420 -0.5845
  185MOL0     H24929   3.270   0.929  -0.041  2.1886  1.0284  1.9317
  185MOL0     H24930   3.189   0.908   0.106 -0.6573 -0.6676 -0.7296
  185MOL0     H24931   3.246   1.103   0.199 -0.5519  1.5666 -0.9959
  185MOL0     H24932   3.311   1.183   0.060  0.7290  0.9662  1.9414
  185MOL0     H24933   3.483   1.007   0.052  0.9854  3.0581 -0.6658
  185MOL0     H24934   3.411   0.925   0.185  1.8447  0.1471  2.4325
  185MOL0     H24935   3.637   0.876   0.179  2.0523 -0.9958 -0.3735
  185MOL0     H24936   3.907   0.735   0.354 -0.2779  0.0326  0.7939
  185MOL0     H24937   3.763   0.706   0.264  0.4490 -0.8839  0.5676
  185MOL0     H24938   3.894   0.766   0.172 -1.2731 -0.6262 -0.0998
  185MOL0     H24939   4.340   1.083   0.219 -0.4235  0.8295  0.1931
  185MOL0     H24940   4.541   1.164   0.314  0.2957 -0.7562  1.7982
  185MOL0     H24941   4.738   1.068   0.488 -0.6306 -0.0708 -1.4692
  185MOL0     H24942   4.722   1.222   0.411 -0.5672 -1.5787  0.0077
  185MOL0     H24943   4.869   1.134   0.667  0.0379 -1.0229 -0.5820
  185MOL0     H24944   4.950   1.201   0.541  1.2200 -1.6270  1.7800
  185MOL0     H24945   4.758   1.382   0.698 -0.5856 -2.5738  2.0416
  185MOL0     H24946   4.856   1.426   0.558 -1.5251 -1.3018 -1.3379
  185MOL0     H24947   4.923   1.396   0.840  0.0788 -0.4150  0.1413
  185MOL0     H24948   5.041   1.312   0.732 -0.2942 -0.7460  0.1254
  185MOL0     H24949   4.990   1.609   0.694  1.7222  1.4823  0.9761
  185MOL0     H24950   5.115   1.510   0.633 -0.4733  0.3168  0.1774
  185MOL0     H24951   5.081   1.608   0.924 -0.9401  0.6368 -0.6756
  185MOL0     H24952   5.208   1.491   0.877  0.0236  0.2385  0.6324
  185MOL0     H24953   5.187   1.780   0.787 -2.1773 -1.5325 -1.1056
  185MOL0     H24954   5.270   1.660   0.682 -1.6773  0.2820 -0.9633
  185MOL0     H24955   5.437   1.781   0.818 -0.8824 -1.0245 -0.0247
  185MOL0     H24956   5.447   1.617   0.869  1.8170  1.1269 -0.9346
  185MOL0     H24957   4.377   1.128   0.715 -4.5440  2.3829  0.5684
  185MOL0     H24958   4.173   1.071   0.621 -1.1772 -0.5207 -1.2149
  185MOL0     H24959   3.901   1.237   0.366  1.6500 -0.8683 -2.0955
  185MOL0     H24960   3.663   1.279   0.331  1.2064 -0.0734  1.7422
  185MOL0     H24961   2.797   0.611   1.178 -1.0322 -1.1648  4.0061
  185MOL0     H24962   2.643   0.525   1.330  4.0209  1.4937 -1.2967
  185MOL0     H24963   2.215   0.189   1.403  1.3957  0.2063  1.8459
  185MOL0     H24964   2.001   0.148   1.498  1.2550 -0.5735 -1.2912
  185MOL0     H24965   1.730   0.509   1.586  0.0235 -1.3684  1.2685
  185MOL0     H24966   1.700   0.486   1.409  0.2277 -2.9029 -1.4526
  185MOL0     H24967   1.543   0.301   1.456 -0.8617  0.3641  0.0242
  185MOL0     H24968   1.486   0.457   1.520 -0.2288 -0.2110  1.5709
  185MOL0     H24969   1.554   0.423   1.729  0.1903  0.5085 -0.8336
  185MOL0     H24970   1.640   0.261   1.685  1.0371  0.6432 -1.3025
  185MOL0     H24971   1.339   0.285   1.633  0.0874  0.2138  1.2920
  185MOL0     H24972   1.406   0.245   1.790  0.4892  4.6472  0.2138
  185MOL0     H24973   1.484  -0.087   1.548 -1.2108  1.5722 -3.2246
  185MOL0     H24974   1.919   0.580   1.454 -0.5522 -0.9450  2.2601
  185MOL0     H24975   2.154   0.608   1.389  1.4121 -0.6944 -1.0544
  186MOL0     O24976   2.287   7.165   2.632 -0.1984 -0.4310 -0.0141
  186MOL0     C24977   2.272   7.057   2.695  0.2532  0.5901  0.1899
  186MOL0     O24978   2.265   7.024   2.831  0.1285  0.5766 -0.6433
  186MOL0     C24979   2.307   7.110   2.932  0.1760  0.9744 -0.6048
  186MOL0     C24980   2.377   7.230   2.918  0.4106 -0.4889 -0.4465
  186MOL0     C24981   2.440   7.294   3.020  0.4326 -0.1088 -0.1242
  186MOL0     C24982   2.428   7.243   3.150 -1.3073  0.1501  0.5874
  186MOL0     O24983   2.517   7.284   3.260  0.2365  0.4129 -0.1287
  186MOL0     C24984   2.530   7.424   3.276 -0.3760  0.4306 -0.3813
  186MOL0     C24985   2.585   7.465   3.413  0.4181  0.0856 -0.2968
  186MOL0     C24986   2.719   7.394   3.440  0.5096 -0.0900 -0.2153
  186MOL0     C24987   2.796   7.453   3.562 -0.2988 -0.3765  0.3000
  186MOL0     C24988   2.935   7.397   3.557  1.1416  0.6874  0.2051
  186MOL0     C24989   3.019   7.424   3.683  0.1148  0.6406  0.0599
  186MOL0     C24990   3.138   7.329   3.688  0.2698 -0.1684 -0.5023
  186MOL0     C24991   3.232   7.370   3.795 -0.2812  0.6038  0.5132
  186MOL0     N24992   3.334   7.262   3.820 -0.0788 -0.5829  0.8538
  186MOL0     C24993   3.302   7.142   3.878  0.4754  0.7748 -0.3647
  186MOL0     C24994   3.412   7.062   3.872 -0.1205  0.3807  0.8027
  186MOL0     C24995   3.422   6.929   3.931 -0.1315  0.6063  0.0962
  186MOL0     C24996   3.352   6.826   3.836 -0.3632  0.6540  0.2186
  186MOL0     C24997   3.411   6.801   3.702 -0.8897  0.3616  0.2603
  186MOL0     C24998   3.544   6.715   3.718  1.2320  0.1982 -0.6213
  186MOL0     O24999   3.542   6.586   3.777 -0.0243 -0.6683  0.1944
  186MOL0     C25000   3.501   6.484   3.698  0.4072  0.5757 -0.1149
  186MOL0     C25001   3.519   6.358   3.760  0.7249  0.1826  0.6094
  186MOL0     C25002   3.465   6.236   3.699 -0.4195 -0.2808  0.6712
  186MOL0     C25003   3.490   6.106   3.768 -0.0533 -0.5582  0.0632
  186MOL0     C25004   3.418   6.246   3.568  0.8093 -1.2891  0.7098
  186MOL0     C25005   3.364   6.136   3.487 -0.4365 -0.0752 -0.5901
  186MOL0     O25006   3.274   6.171   3.389 -0.0223  0.0478  0.2285
  186MOL0     C25007   3.234   6.067   3.307 -0.4466 -0.6288 -0.4432
  186MOL0     C25008   3.097   6.073   3.271 -0.0692  0.4292 -0.3047
  186MOL0     C25009   3.031   5.958   3.220 -0.5473  0.9218 -0.3027
  186MOL0     C25010   3.107   5.837   3.195 -0.9988  0.2520 -0.7156
  186MOL0     O25011   3.062   5.725   3.131 -0.3097 -0.3296  0.7185
  186MOL0     C25012   2.941   5.672   3.186 -0.0050  0.5218  0.5699
  186MOL0     C25013   2.829   5.699   3.086 -0.3515 -0.3969 -0.7737
  186MOL0     C25014   2.860   5.682   2.938  0.2939 -0.3637 -0.4392
  186MOL0     C25015   2.755   5.611   2.861  0.9942 -0.4145  0.1542
  186MOL0     C25016   2.783   5.643   2.713  0.5664  0.3769  0.8397
  186MOL0     C25017   2.681   5.580   2.618  0.6396  0.0313  0.0529
  186MOL0     C25018   2.699   5.635   2.477  0.7466 -0.5150 -0.2549
  186MOL0     C25019   2.634   5.768   2.440  0.7194 -0.4523  0.2252
  186MOL0    Cl25020   2.461   5.743   2.408  0.2770 -0.2709  0.0322
  186MOL0     C25021   3.243   5.839   3.222 -0.5206  0.4979 -0.4124
  186MOL0     C25022   3.312   5.954   3.273  0.5557 -0.5237 -0.7424
  186MOL0     O25023   3.382   6.021   3.529 -0.0303 -0.8938 -0.5601
  186MOL0     C25024   3.405   6.375   3.505 -0.9122 -0.9373 -0.7230
  186MOL0     C25025   3.452   6.488   3.570  0.2079  0.0163  0.4507
  186MOL0     N25026   3.511   7.129   3.807 -0.2542  0.3512 -0.5342
  186MOL0     N25027   3.470   7.253   3.785  0.0286  0.1471  0.2679
  186MOL0     C25028   2.361   7.131   3.165 -0.5114  0.5833 -1.1666
  186MOL0     C25029   2.294   7.062   3.064  0.7135  0.2848 -0.2365
  186MOL0     C25030   2.244   6.947   2.598 -0.9817 -0.0639 -1.5033
  186MOL0     C25031   2.204   6.977   2.465  0.0227  0.5918 -0.3548
  186MOL0     C25032   2.151   6.879   2.383  0.5037  0.2794 -0.3018
  186MOL0     C25033   2.141   6.748   2.424 -0.3317 -0.0966  0.7029
  186MOL0     O25034   2.106   6.658   2.328  0.0774  0.5025  0.2453
  186MOL0     C25035   2.061   6.528   2.377  1.2415 -0.5861  0.9136
  186MOL0     C25036   2.019   6.452   2.246  0.1699 -0.0990 -1.3405
  186MOL0     C25037   2.142   6.430   2.158  0.7502  0.6910  0.0030
  186MOL0     C25038   2.143   6.347   2.031 -0.4808  0.1407  0.0790
  186MOL0     C25039   2.262   6.372   1.950  0.3856  0.4839 -0.2024
  186MOL0     C25040   2.373   6.381   1.893  0.6490 -0.4621 -0.2726
  186MOL0     C25041   2.186   6.718   2.554  0.0447 -0.1435 -0.8534
  186MOL0     C25042   2.240   6.817   2.639  0.2232 -0.0044  0.5884
  186MOL0     H25043   2.398   7.259   2.816  0.4952  0.2127 -0.2351
  186MOL0     H25044   2.505   7.381   3.009  0.9868 -0.3311  1.1166
  186MOL0     H25045   2.598   7.462   3.199 -1.4471  1.3415 -0.9042
  186MOL0     H25046   2.432   7.468   3.256 -1.6315 -2.7031 -1.7979
  186MOL0     H25047   2.595   7.574   3.403 -2.2504  0.3408 -1.1034
  186MOL0     H25048   2.514   7.437   3.492 -1.4243  1.8109 -1.2555
  186MOL0     H25049   2.704   7.288   3.463  0.9133  0.4727  3.2488
  186MOL0     H25050   2.775   7.402   3.347  0.8383 -1.9405 -0.2039
  186MOL0     H25051   2.796   7.562   3.561  0.4840 -0.2964  2.7652
  186MOL0     H25052   2.749   7.427   3.657  0.7773  2.8289  1.8330
  186MOL0     H25053   2.927   7.288   3.551  0.8678  0.5939  1.8202
  186MOL0     H25054   2.978   7.440   3.467  0.3108 -0.5751 -0.8350
  186MOL0     H25055   3.067   7.522   3.677  2.0228 -0.2211  0.3784
  186MOL0     H25056   2.963   7.404   3.775  2.3391 -1.9434  0.9966
  186MOL0     H25057   3.093   7.231   3.705  0.7462 -0.3680 -0.3814
  186MOL0     H25058   3.183   7.339   3.588  1.6071  1.6191  0.2115
  186MOL0     H25059   3.176   7.392   3.887 -0.5429  1.0406  0.2526
  186MOL0     H25060   3.288   7.461   3.770  1.4981 -0.2354  1.2544
  186MOL0     H25061   3.203   7.110   3.908  0.0311  1.4806 -1.0208
  186MOL0     H25062   3.527   6.902   3.950 -0.6065 -0.5192  1.2683
  186MOL0     H25063   3.373   6.914   4.028 -2.0800 -2.1053 -1.1993
  186MOL0     H25064   3.249   6.861   3.824 -0.6019  0.0215  0.3484
  186MOL0     H25065   3.345   6.728   3.885  2.4870 -0.8530 -2.0399
  186MOL0     H25066   3.422   6.893   3.645 -5.3591  1.0418  0.1452
  186MOL0     H25067   3.346   6.743   3.637  2.5776 -1.3716 -1.9349
  186MOL0     H25068   3.611   6.770   3.785  1.1456  2.2720 -2.1543
  186MOL0     H25069   3.595   6.706   3.622  0.1327 -0.0243 -1.1985
  186MOL0     H25070   3.571   6.369   3.855  1.8209  0.4134  0.0069
  186MOL0     H25071   3.553   6.041   3.707 -0.1398  0.4160 -1.0875
  186MOL0     H25072   3.533   6.128   3.867 -1.6715  0.9701  0.4857
  186MOL0     H25073   3.403   6.043   3.791  2.0549 -2.4126  4.3654
  186MOL0     H25074   3.041   6.165   3.280 -1.7961 -0.5615 -0.5306
  186MOL0     H25075   2.926   5.969   3.195 -0.2417  2.6672 -0.9424
  186MOL0     H25076   2.949   5.563   3.190 -0.5013  0.4513 -0.1830
  186MOL0     H25077   2.926   5.709   3.288  1.1251 -0.2213  1.0204
  186MOL0     H25078   2.748   5.634   3.119  0.8521 -0.8055  1.6109
  186MOL0     H25079   2.808   5.806   3.101  3.9102  0.9257 -2.6205
  186MOL0     H25080   2.962   5.642   2.935  1.8712  3.1904  1.1494
  186MOL0     H25081   2.877   5.777   2.888  0.3204 -0.5581 -0.8077
  186MOL0     H25082   2.759   5.503   2.880 -2.2132 -0.4684  1.0009
  186MOL0     H25083   2.662   5.657   2.893  1.7927  0.6820  0.9715
  186MOL0     H25084   2.877   5.600   2.678 -0.1854 -3.1320  2.6292
  186MOL0     H25085   2.779   5.752   2.709 -1.5492  0.3970  1.8171
  186MOL0     H25086   2.695   5.472   2.624  0.2117  0.0258  3.6889
  186MOL0     H25087   2.575   5.593   2.640  0.6852  0.9910 -0.2634
  186MOL0     H25088   2.645   5.566   2.412  1.3107  1.4242 -2.9897
  186MOL0     H25089   2.805   5.641   2.450  0.9480  2.5572  0.8286
  186MOL0     H25090   2.677   5.814   2.350  2.6791  1.2681  1.9342
  186MOL0     H25091   2.649   5.840   2.521 -3.3967 -0.2929  1.0822
  186MOL0     H25092   3.309   5.757   3.193  1.3819  2.7070 -2.7738
  186MOL0     H25093   3.419   5.947   3.289  0.4608  0.1126  0.2148
  186MOL0     H25094   3.353   6.393   3.411  0.0454  0.9186 -0.9640
  186MOL0     H25095   3.459   6.587   3.526  1.2052 -0.0982  0.3346
  186MOL0     H25096   2.370   7.091   3.266  0.3198  1.8979 -0.6950
  186MOL0     H25097   2.234   6.974   3.089  0.4481 -1.1924 -5.0199
  186MOL0     H25098   2.220   7.079   2.432 -1.6703  1.0750  0.2625
  186MOL0     H25099   2.125   6.912   2.283  2.1343 -1.9776 -1.5619
  186MOL0     H25100   2.140   6.477   2.434  0.7241  0.7250  2.9015
  186MOL0     H25101   1.976   6.549   2.442 -1.4977 -3.3285 -1.4932
  186MOL0     H25102   1.940   6.503   2.190 -0.4475 -0.3435 -0.7046
  186MOL0     H25103   1.984   6.354   2.279 -0.6240  0.3520 -0.8043
  186MOL0     H25104   2.233   6.402   2.211 -0.2051  0.0739  1.3963
  186MOL0     H25105   2.170   6.528   2.120  0.5886  0.5148 -0.5854
  186MOL0     H25106   2.060   6.374   1.964 -0.2465 -0.4706 -0.4639
  186MOL0     H25107   2.154   6.241   2.054  1.8677 -0.1386 -1.9686
  186MOL0     H25108   2.468   6.375   1.843  1.0407 -0.1579  0.4311
  186MOL0     H25109   2.181   6.624   2.607 -2.0947  1.6454  2.4454
  186MOL0     H25110   2.263   6.792   2.742  0.4701 -3.4801 -0.1916
  187MOL0     O25111  11.044   3.844   0.671  0.2446 -0.3336  0.6348
  187MOL0     C25112  11.035   3.961   0.641  0.4787 -0.6344 -0.5634
  187MOL0     O25113  11.111   4.063   0.695 -0.7637 -0.1545 -0.1153
  187MOL0     C25114  11.216   4.026   0.772 -0.4245 -0.4521 -0.3214
  187MOL0     C25115  11.327   3.952   0.714  0.2235  0.2873 -0.8699
  187MOL0     C25116  11.444   3.936   0.796 -0.4705 -0.9472  0.4605
  187MOL0     C25117  11.449   3.979   0.929  0.6009 -0.1536  0.5310
  187MOL0     O25118  11.554   3.951   1.014 -0.1269  0.4012 -0.6503
  187MOL0     C25119  11.577   3.809   1.020 -0.0419  0.0374  0.2175
  187MOL0     C25120  11.649   3.780   1.153  0.2761  0.5585  0.2172
  187MOL0     C25121  11.769   3.862   1.189 -0.0118  0.5858  0.2042
  187MOL0     C25122  11.854   3.781   1.287 -0.2975  0.6395  0.3957
  187MOL0     C25123  11.947   3.883   1.356  0.4219  0.5639 -0.2483
  187MOL0     C25124  12.033   3.813   1.469  0.5259 -0.3449  0.0178
  187MOL0     C25125  12.141   3.720   1.422 -1.3475  0.5861  0.4485
  187MOL0     C25126  12.260   3.801   1.364  0.3889  0.3485 -0.4171
  187MOL0     N25127  12.346   3.722   1.282  0.0013  0.2529 -0.1893
  187MOL0     C25128  12.346   3.718   1.147 -0.2703 -0.5338  0.1187
  187MOL0     C25129  12.457   3.645   1.108 -0.1791  0.1485 -0.7780
  187MOL0     C25130  12.494   3.619   0.965  0.6496 -0.9678  0.1268
  187MOL0     C25131  12.597   3.507   0.948  0.8609  0.6639 -0.2243
  187MOL0     C25132  12.736   3.543   0.990  0.8055 -0.0165 -0.4515
  187MOL0     C25133  12.835   3.585   0.881  0.2037 -0.3008 -0.4212
  187MOL0     O25134  12.945   3.650   0.947  0.1881 -0.3326 -0.0587
  187MOL0     C25135  13.052   3.657   0.860  0.0827 -0.0410 -0.2069
  187MOL0     C25136  13.105   3.779   0.812 -0.1314 -0.6331 -0.6784
  187MOL0     C25137  13.222   3.793   0.742 -1.1272  0.3009  1.0658
  187MOL0     C25138  13.262   3.940   0.716 -0.0171  0.0739  0.8217
  187MOL0     C25139  13.297   3.677   0.712  0.7634  1.3911  0.2385
  187MOL0     C25140  13.419   3.669   0.632 -0.3207 -0.1449  0.1309
  187MOL0     O25141  13.432   3.553   0.556  0.2771  0.9291 -0.2500
  187MOL0     C25142  13.530   3.541   0.458 -0.3279  0.1509  0.2229
  187MOL0     C25143  13.487   3.448   0.364 -0.1626  1.0343  0.5350
  187MOL0     C25144  13.577   3.416   0.257  0.2551 -0.2536  0.0634
  187MOL0     C25145  13.703   3.468   0.243  0.5269  0.2680 -0.1010
  187MOL0     O25146  13.785   3.426   0.147  0.3294  0.1592  0.6335
  187MOL0     C25147  13.929   3.421   0.168 -0.4737 -0.1438  0.4134
  187MOL0     C25148  13.995   3.386   0.039 -0.3030 -0.3240 -0.0682
  187MOL0     C25149  14.158   3.386   0.034  0.0446 -0.2793  0.6939
  187MOL0     C25150  14.197   3.426  -0.104  0.0797  0.8492  0.1158
  187MOL0     C25151  14.344   3.462  -0.124 -0.0053  0.2262 -0.0464
  187MOL0     C25152  14.382   3.602  -0.053  0.2434 -0.6670 -0.2785
  187MOL0     C25153  14.327   3.730  -0.126  0.1999  0.0587  0.1848
  187MOL0     C25154  14.362   3.865  -0.062 -0.0684 -0.3236  0.4415
  187MOL0    Cl25155  14.528   3.866  -0.017  0.4462 -0.1087  0.3102
  187MOL0     C25156  13.748   3.542   0.352  0.0669 -0.7500  0.0420
  187MOL0     C25157  13.660   3.586   0.459  0.1665  0.6762  0.3730
  187MOL0     O25158  13.490   3.771   0.632 -0.8506 -0.3743  0.1464
  187MOL0     C25159  13.246   3.558   0.765 -0.1693 -1.1257  0.8550
  187MOL0     C25160  13.133   3.546   0.839  0.2672 -0.5397 -0.0026
  187MOL0     N25161  12.519   3.596   1.226 -0.8156 -0.0073  0.5823
  187MOL0     N25162  12.455   3.648   1.329  0.0255  0.0055 -0.4021
  187MOL0     C25163  11.326   4.032   0.992  0.3760  0.7399 -0.1056
  187MOL0     C25164  11.217   4.052   0.909  0.2894  0.0500 -0.1779
  187MOL0     C25165  10.929   3.999   0.548  0.2188 -0.2202 -0.5045
  187MOL0     C25166  10.872   3.912   0.460 -0.4373  0.6496 -0.1162
  187MOL0     C25167  10.769   3.958   0.366  0.5316  0.8734  0.0493
  187MOL0     C25168  10.730   4.087   0.359  0.0447 -0.8207 -0.1678
  187MOL0     O25169  10.658   4.131   0.252 -0.7208 -0.1348  0.1060
  187MOL0     C25170  10.633   4.268   0.237  0.1600  0.1905 -0.4952
  187MOL0     C25171  10.508   4.323   0.306 -0.5741 -0.1292 -0.6502
  187MOL0     C25172  10.490   4.470   0.295 -0.0096 -0.1385  0.0284
  187MOL0     C25173  10.391   4.509   0.179 -1.1240 -0.5139 -0.1238
  187MOL0     C25174  10.457   4.499   0.044  0.2391 -0.7859 -0.6726
  187MOL0     C25175  10.504   4.487  -0.062 -0.1256 -0.2541  0.0895
  187MOL0     C25176  10.774   4.168   0.464 -0.1922  0.2202 -0.0365
  187MOL0     C25177  10.879   4.135   0.553  0.3534  0.1501  0.5062
  187MOL0     H25178  11.313   3.920   0.611 -2.2646  2.6933 -1.4184
  187MOL0     H25179  11.540   3.896   0.763  0.2346 -0.1381  1.4474
  187MOL0     H25180  11.481   3.757   1.011  0.8586 -1.8777  1.1211
  187MOL0     H25181  11.636   3.778   0.933  0.3665  1.1735  0.0789
  187MOL0     H25182  11.574   3.790   1.231 -1.0503 -1.1306 -0.7870
  187MOL0     H25183  11.682   3.676   1.150 -0.4421  0.3341 -2.6947
  187MOL0     H25184  11.829   3.880   1.099  2.2373 -1.1430  1.2472
  187MOL0     H25185  11.738   3.957   1.233  1.1476  1.1309 -0.1074
  187MOL0     H25186  11.792   3.740   1.366 -1.4081 -1.5138 -1.4722
  187MOL0     H25187  11.915   3.704   1.239  1.1633  1.2893  1.1252
  187MOL0     H25188  12.012   3.937   1.286  1.5339 -1.6264 -0.9766
  187MOL0     H25189  11.876   3.957   1.394 -0.5603  0.9301 -2.6473
  187MOL0     H25190  12.087   3.887   1.529 -1.0932 -0.6489  1.9771
  187MOL0     H25191  11.964   3.751   1.526 -0.8821  0.0022 -1.2351
  187MOL0     H25192  12.178   3.672   1.513 -2.5457 -1.5043 -0.1088
  187MOL0     H25193  12.110   3.644   1.349 -1.0392  2.4080 -1.7082
  187MOL0     H25194  12.314   3.867   1.432 -0.3341  2.3508 -1.6899
  187MOL0     H25195  12.224   3.885   1.304  1.2355  1.5211  0.6549
  187MOL0     H25196  12.269   3.759   1.083  0.4306 -0.9803 -1.0464
  187MOL0     H25197  12.404   3.600   0.906  0.3827  1.4225 -0.3189
  187MOL0     H25198  12.536   3.715   0.935 -1.3899  1.2091  3.5159
  187MOL0     H25199  12.585   3.462   0.849 -1.1603  0.2140  0.1673
  187MOL0     H25200  12.559   3.427   1.011  0.5020 -1.1624 -2.5989
  187MOL0     H25201  12.773   3.446   1.026 -1.9485 -2.1791 -2.9087
  187MOL0     H25202  12.724   3.623   1.063  0.9498 -0.5155  0.1233
  187MOL0     H25203  12.791   3.654   0.808  2.3155 -0.1048 -1.6007
  187MOL0     H25204  12.864   3.496   0.825 -0.5861 -0.8522  0.0341
  187MOL0     H25205  13.045   3.867   0.834  0.7069 -0.5078  1.3632
  187MOL0     H25206  13.369   3.950   0.735 -0.0258 -1.0635  1.5790
  187MOL0     H25207  13.256   3.966   0.610  0.0745  1.8513  1.2231
  187MOL0     H25208  13.210   4.024   0.762 -2.7947 -0.5678 -0.9241
  187MOL0     H25209  13.385   3.410   0.370 -0.2086  1.3337  2.2456
  187MOL0     H25210  13.546   3.362   0.169 -0.1401  1.9006 -1.1837
  187MOL0     H25211  13.970   3.517   0.201  0.3958  0.2900 -1.7441
  187MOL0     H25212  13.959   3.343   0.239  1.5627 -0.5325 -0.8013
  187MOL0     H25213  13.962   3.284   0.014 -0.3864 -0.0462 -1.1419
  187MOL0     H25214  13.951   3.459  -0.030 -0.3730 -0.0888  0.2234
  187MOL0     H25215  14.193   3.286   0.062  0.7081  1.0614  5.6116
  187MOL0     H25216  14.198   3.466   0.097  1.3672  0.0958 -0.5884
  187MOL0     H25217  14.167   3.344  -0.171 -0.4858  1.4142 -0.3233
  187MOL0     H25218  14.132   3.510  -0.130 -2.5516 -1.2314 -0.4671
  187MOL0     H25219  14.351   3.478  -0.232 -1.8317 -0.6632 -0.3422
  187MOL0     H25220  14.409   3.378  -0.098 -0.7973 -0.3845  0.0206
  187MOL0     H25221  14.348   3.605   0.051 -1.8318 -0.3682 -0.9127
  187MOL0     H25222  14.490   3.612  -0.043  0.2444  3.2170 -2.1213
  187MOL0     H25223  14.218   3.718  -0.131  0.3732 -1.5823 -0.5507
  187MOL0     H25224  14.368   3.732  -0.228 -0.7652 -0.7634 -0.2417
  187MOL0     H25225  14.291   3.890   0.017 -0.6160 -1.0936  0.2083
  187MOL0     H25226  14.349   3.938  -0.143  0.7605 -1.3901 -0.6849
  187MOL0     H25227  13.847   3.586   0.362 -0.1022 -0.6017  1.2640
  187MOL0     H25228  13.691   3.632   0.552  0.0269  0.6112  0.4516
  187MOL0     H25229  13.297   3.462   0.758  2.1176 -0.2248  3.2889
  187MOL0     H25230  13.107   3.453   0.889  1.1956 -1.1083 -0.5360
  187MOL0     H25231  11.337   4.055   1.098  2.4854  3.1636 -0.7414
  187MOL0     H25232  11.119   4.076   0.950  1.0842  0.1250  1.7764
  187MOL0     H25233  10.895   3.806   0.457  0.0533  0.7415  0.2583
  187MOL0     H25234  10.716   3.889   0.301 -1.5252  0.9003  1.5874
  187MOL0     H25235  10.727   4.319   0.262 -0.0167 -1.0590  3.2747
  187MOL0     H25236  10.603   4.283   0.133 -1.7109  0.9628  0.1054
  187MOL0     H25237  10.513   4.297   0.412 -1.4162 -0.4984 -0.6919
  187MOL0     H25238  10.415   4.277   0.271 -2.4880  1.6844  1.6494
  187MOL0     H25239  10.589   4.515   0.288 -0.6513  1.5267  1.0462
  187MOL0     H25240  10.443   4.513   0.384 -2.5256  0.0984 -1.2991
  187MOL0     H25241  10.364   4.614   0.196 -3.0793 -0.6563 -1.8732
  187MOL0     H25242  10.296   4.455   0.185 -1.5631  0.1795 -0.6908
  187MOL0     H25243  10.552   4.483  -0.158  0.2386  1.1165  0.1870
  187MOL0     H25244  10.739   4.270   0.462 -0.7902  0.0078 -1.0337
  187MOL0     H25245  10.924   4.211   0.616  3.4034 -1.8424  0.9406
  188MOL0     O25246  10.715   9.954   2.574  0.6581 -0.2814  0.6158
  188MOL0     C25247  10.627   9.916   2.652 -0.5762  0.5808  0.1780
  188MOL0     O25248  10.515   9.982   2.682  0.0839  0.0991 -0.9799
  188MOL0     C25249  10.460  10.092   2.619 -0.5462  0.4475  0.0167
  188MOL0     C25250  10.336  10.119   2.663 -0.1469 -0.5414 -0.8824
  188MOL0     C25251  10.273  10.237   2.612 -1.3054  0.7394 -0.8728
  188MOL0     C25252  10.346  10.324   2.531  0.1217 -0.5299 -0.0410
  188MOL0     O25253  10.271  10.438   2.496  0.8951  0.3791  0.2579
  188MOL0     C25254  10.272  10.473   2.357  0.3843  0.8061  0.1215
  188MOL0     C25255  10.123  10.511   2.321 -0.7000  0.4128 -0.4627
  188MOL0     C25256  10.012  10.419   2.377 -0.2995  0.1402  0.2514
  188MOL0     C25257   9.875  10.475   2.347  1.2800 -0.2879 -0.0950
  188MOL0     C25258   9.752  10.411   2.419 -0.6935 -0.1204 -0.6335
  188MOL0     C25259   9.692  10.307   2.326 -0.0127  0.1157 -0.5838
  188MOL0     C25260   9.595  10.370   2.226  0.4020  0.1667 -0.7170
  188MOL0     C25261   9.530  10.268   2.128 -0.6433 -0.0431  0.3271
  188MOL0     N25262   9.423  10.194   2.193 -0.1249  0.3597  0.2822
  188MOL0     C25263   9.291  10.241   2.209  0.3150 -0.0616 -1.1349
  188MOL0     C25264   9.226  10.140   2.279  0.2390 -0.2969 -0.5709
  188MOL0     C25265   9.077  10.113   2.303  0.1309 -0.6680 -0.1085
  188MOL0     C25266   9.013  10.174   2.428 -0.3124  0.0305  0.9054
  188MOL0     C25267   8.955  10.319   2.402 -0.8959 -0.2588  0.0108
  188MOL0     C25268   8.868  10.365   2.520  0.0305  0.7317 -0.1993
  188MOL0     O25269   8.732  10.346   2.473  0.2405  0.4064  0.3125
  188MOL0     C25270   8.621  10.363   2.558  0.0315 -0.4648  0.0063
  188MOL0     C25271   8.613  10.424   2.691 -0.2721 -0.3822  0.1532
  188MOL0     C25272   8.492  10.426   2.763 -0.1605 -0.1104  0.6620
  188MOL0     C25273   8.491  10.507   2.894 -0.6757  0.5318 -0.0744
  188MOL0     C25274   8.373  10.373   2.709 -0.4586 -0.1743 -0.4510
  188MOL0     C25275   8.245  10.379   2.776  0.6248 -0.2948 -0.1251
  188MOL0     O25276   8.240  10.401   2.910  0.6130 -1.0680  0.5420
  188MOL0     C25277   8.114  10.411   2.960  0.3868  0.6217  0.0706
  188MOL0     C25278   8.046  10.299   3.023  0.4724 -0.3913  0.2975
  188MOL0     C25279   7.918  10.326   3.071 -0.1772 -0.0351  1.5413
  188MOL0     C25280   7.852  10.450   3.054 -0.1949 -0.6443 -0.5673
  188MOL0     O25281   7.725  10.456   3.107  0.0237  0.6763 -0.4656
  188MOL0     C25282   7.650  10.569   3.093  0.2338 -0.6399 -0.3695
  188MOL0     C25283   7.506  10.541   3.115  0.0293  0.3313  0.1257
  188MOL0     C25284   7.422  10.660   3.069  0.4998 -0.4671 -0.0014
  188MOL0     C25285   7.369  10.657   2.925 -0.6318 -0.3732  0.4724
  188MOL0     C25286   7.297  10.784   2.896  0.0093  0.3413 -0.3847
  188MOL0     C25287   7.176  10.801   2.993  0.0033  0.5855  0.1069
  188MOL0     C25288   7.062  10.890   2.932  0.1250  1.0412  0.1481
  188MOL0     C25289   6.954  10.947   3.021 -0.3200  0.2466  0.5805
  188MOL0    Cl25290   7.039  11.059   3.130  0.0760  0.3804  0.0245
  188MOL0     C25291   7.914  10.553   2.980  0.2577  0.7857 -0.3065
  188MOL0     C25292   8.046  10.530   2.942 -0.0539  0.3303 -0.5294
  188MOL0     O25293   8.142  10.353   2.709  0.1046  0.3684  0.4116
  188MOL0     C25294   8.379  10.317   2.582 -0.5314  0.4801 -0.4392
  188MOL0     C25295   8.503  10.309   2.513  0.1332  0.2702 -0.1976
  188MOL0     N25296   9.330  10.037   2.287  0.6121 -0.0326  0.1208
  188MOL0     N25297   9.439  10.069   2.245 -0.0510  0.0336 -0.1009
  188MOL0     C25298  10.466  10.297   2.490 -0.7463  0.4167 -0.6308
  188MOL0     C25299  10.526  10.174   2.537  0.6071 -0.2035  1.1195
  188MOL0     C25300  10.660   9.810   2.746  0.1410 -0.0342 -0.2746
  188MOL0     C25301  10.584   9.776   2.872 -0.5241  0.7413  0.7159
  188MOL0     C25302  10.610   9.657   2.948 -0.2701 -0.2824  0.6446
  188MOL0     C25303  10.715   9.570   2.921  1.2304 -0.0471  0.6426
  188MOL0     O25304  10.740   9.466   3.006 -0.1413 -0.1495  0.3095
  188MOL0     C25305  10.846   9.372   2.988  0.4454  0.3306  0.2302
  188MOL0     C25306  10.960   9.391   3.086 -0.1459  0.5492 -0.2831
  188MOL0     C25307  11.050   9.504   3.032 -0.0362  0.3300 -0.8131
  188MOL0     C25308  11.168   9.511   3.126  0.4497 -0.3299 -0.3114
  188MOL0     C25309  11.260   9.619   3.087  0.0200 -0.4836 -0.7114
  188MOL0     C25310  11.321   9.724   3.057 -0.6562 -0.1722 -0.4896
  188MOL0     C25311  10.789   9.613   2.806 -0.2475  0.0831 -0.6212
  188MOL0     C25312  10.767   9.724   2.724 -0.0103  0.7857  0.0472
  188MOL0     H25313  10.296  10.049   2.735 -1.6396 -0.6368 -1.7462
  188MOL0     H25314  10.173  10.265   2.642 -1.6595 -2.6709  1.8124
  188MOL0     H25315  10.348  10.550   2.338 -0.0068  1.3474  0.7034
  188MOL0     H25316  10.308  10.386   2.301 -1.6732 -0.3841  0.5743
  188MOL0     H25317  10.108  10.614   2.355 -2.5865 -0.3252  1.1691
  188MOL0     H25318  10.120  10.506   2.212  0.5782 -0.8272 -0.4658
  188MOL0     H25319  10.027  10.323   2.327  0.4089  1.5472 -2.4052
  188MOL0     H25320  10.014  10.418   2.487  2.3978 -0.3367  0.2853
  188MOL0     H25321   9.872  10.578   2.384  3.6385 -0.8717  2.0335
  188MOL0     H25322   9.860  10.474   2.239  1.0239  0.8129 -0.0844
  188MOL0     H25323   9.798  10.363   2.506 -0.3747  4.2407  1.9096
  188MOL0     H25324   9.681  10.482   2.462  0.8053  0.1718  1.5406
  188MOL0     H25325   9.772  10.247   2.281 -1.0272 -0.2024 -2.0598
  188MOL0     H25326   9.644  10.231   2.388  0.5995 -0.3413 -0.6616
  188MOL0     H25327   9.519  10.435   2.269 -0.4565 -1.5874  0.5147
  188MOL0     H25328   9.658  10.437   2.166  1.3626 -2.1913 -2.4907
  188MOL0     H25329   9.602  10.193   2.094  0.9937 -0.7280  4.7029
  188MOL0     H25330   9.494  10.323   2.040  1.9325  1.1001 -0.0858
  188MOL0     H25331   9.263  10.343   2.186  0.5885  1.1104  3.0067
  188MOL0     H25332   9.024  10.145   2.213  3.2461 -0.5485 -2.0346
  188MOL0     H25333   9.054  10.006   2.307 -0.9036 -0.4311  0.8707
  188MOL0     H25334   9.087  10.175   2.509 -3.1178  0.2191  3.6426
  188MOL0     H25335   8.932  10.102   2.439 -0.8453  0.8042  2.2819
  188MOL0     H25336   8.893  10.316   2.312 -0.0894  1.7260 -0.6771
  188MOL0     H25337   9.032  10.394   2.381  1.7052 -1.7944  3.1603
  188MOL0     H25338   8.894  10.465   2.555 -0.7555  0.7719  0.3086
  188MOL0     H25339   8.891  10.292   2.598 -1.9505 -0.1055 -0.3403
  188MOL0     H25340   8.705  10.466   2.731 -0.4464  0.6372 -0.4683
  188MOL0     H25341   8.412  10.582   2.896 -0.9464  0.2373  0.4613
  188MOL0     H25342   8.477  10.441   2.980 -2.2935 -0.5140 -1.0781
  188MOL0     H25343   8.593  10.545   2.899 -0.0672 -0.4784 -2.8497
  188MOL0     H25344   8.103  10.208   3.040  0.5705  0.0236  2.4428
  188MOL0     H25345   7.871  10.251   3.134  0.8480 -1.4911  0.6327
  188MOL0     H25346   7.678  10.651   3.160 -2.8607 -1.3075  1.9738
  188MOL0     H25347   7.663  10.608   2.992 -2.2789  0.2344 -0.4360
  188MOL0     H25348   7.490  10.447   3.063  2.5398 -0.9690  1.5104
  188MOL0     H25349   7.486  10.510   3.218  1.1805 -2.9503 -0.5175
  188MOL0     H25350   7.479  10.753   3.070 -1.0631  0.5250 -0.2549
  188MOL0     H25351   7.339  10.663   3.140 -0.1241  1.1886 -0.7432
  188MOL0     H25352   7.454  10.649   2.856  1.7463  1.7497  2.9465
  188MOL0     H25353   7.311  10.564   2.924 -0.3188 -0.7276  3.9706
  188MOL0     H25354   7.270  10.797   2.791 -2.3062  3.6996  0.4764
  188MOL0     H25355   7.359  10.874   2.908  0.8209  0.0593 -2.1487
  188MOL0     H25356   7.125  10.707   3.016 -3.1983  2.7826  3.0124
  188MOL0     H25357   7.215  10.850   3.083  0.3680 -0.3467  0.4613
  188MOL0     H25358   7.020  10.828   2.852 -0.7852  1.4429  0.2965
  188MOL0     H25359   7.105  10.972   2.875  0.4341 -0.9441 -2.7046
  188MOL0     H25360   6.914  10.873   3.091  1.1854  0.8197  2.1206
  188MOL0     H25361   6.868  10.997   2.976 -0.1940  1.0355  1.1904
  188MOL0     H25362   7.867  10.644   2.945  2.5769  2.3615  0.4157
  188MOL0     H25363   8.097  10.614   2.895  0.3990 -1.4372 -3.4687
  188MOL0     H25364   8.288  10.271   2.545 -0.7715 -0.7842  1.5855
  188MOL0     H25365   8.488  10.263   2.415 -2.6196  0.8329 -0.1159
  188MOL0     H25366  10.528  10.360   2.427 -0.0561 -2.1998 -2.7826
  188MOL0     H25367  10.631  10.167   2.510  0.4564  2.6882 -0.6687
  188MOL0     H25368  10.505   9.845   2.899  0.4053  2.0023  0.3427
  188MOL0     H25369  10.542   9.625   3.027 -1.4789  0.3564 -0.0994
  188MOL0     H25370  10.792   9.280   3.010 -0.8177  0.8751 -0.4484
  188MOL0     H25371  10.884   9.362   2.886 -0.5456 -0.2408 -0.0914
  188MOL0     H25372  11.012   9.296   3.096  1.1861  1.2904  0.2128
  188MOL0     H25373  10.938   9.424   3.189  5.2457 -0.5598  1.5607
  188MOL0     H25374  10.995   9.598   3.033 -1.2768 -0.3736 -0.2726
  188MOL0     H25375  11.097   9.479   2.937  0.6384  0.9152 -0.6363
  188MOL0     H25376  11.225   9.418   3.131  4.3491  1.8227 -0.6841
  188MOL0     H25377  11.145   9.535   3.230 -2.2992  1.4268 -1.2107
  188MOL0     H25378  11.370   9.812   3.022  1.0357 -1.9140 -2.8023
  188MOL0     H25379  10.880   9.559   2.783  3.2095  2.6346  5.0181
  188MOL0     H25380  10.829   9.723   2.635  1.4836 -0.5181  1.0653
  189MOL0     O25381   3.199   2.766   2.602 -0.1388 -0.8168  0.2566
  189MOL0     C25382   3.209   2.861   2.680 -0.4048  0.3261 -0.6557
  189MOL0     O25383   3.103   2.921   2.761 -0.0282  0.4260 -0.2129
  189MOL0     C25384   2.977   2.857   2.769 -1.0749 -0.2824  0.9273
  189MOL0     C25385   2.888   2.911   2.855  0.0306 -0.0467  0.0585
  189MOL0     C25386   2.759   2.870   2.871  0.2472  0.1273 -0.7626
  189MOL0     C25387   2.707   2.756   2.801 -1.2450 -0.5190 -0.2086
  189MOL0     O25388   2.579   2.700   2.805  0.3148  0.0113  0.2260
  189MOL0     C25389   2.485   2.753   2.891 -0.6374 -0.8409 -0.2203
  189MOL0     C25390   2.357   2.680   2.855 -0.9682  0.6316 -0.5335
  189MOL0     C25391   2.264   2.697   2.988 -0.1290  0.3792  0.9897
  189MOL0     C25392   2.108   2.686   2.943  0.0189 -0.2100  0.6758
  189MOL0     C25393   2.006   2.689   3.056  0.1328  0.0812  0.1948
  189MOL0     C25394   1.991   2.569   3.145 -0.0125  0.6947 -0.8152
  189MOL0     C25395   1.879   2.585   3.246  0.5285  0.1136  0.2183
  189MOL0     C25396   1.872   2.716   3.333  0.5607  0.7826  0.0201
  189MOL0     N25397   1.986   2.719   3.425  0.5966  0.7792 -0.3654
  189MOL0     C25398   2.115   2.744   3.393 -0.2100 -0.7070 -0.1576
  189MOL0     C25399   2.191   2.710   3.503  0.1213 -0.1152  0.3978
  189MOL0     C25400   2.339   2.697   3.497 -0.0795  0.2078 -0.8635
  189MOL0     C25401   2.390   2.610   3.379  0.2105  0.2457 -0.5158
  189MOL0     C25402   2.353   2.460   3.393  0.6950 -0.3018  0.1831
  189MOL0     C25403   2.402   2.404   3.520  0.7736  1.6814  0.8654
  189MOL0     O25404   2.398   2.264   3.520  1.4404 -0.0278 -0.1145
  189MOL0     C25405   2.277   2.206   3.547  0.1413 -0.0909 -0.6987
  189MOL0     C25406   2.153   2.274   3.550 -1.2250  1.7319  0.0730
  189MOL0     C25407   2.033   2.212   3.577 -0.2561  0.4410 -0.0275
  189MOL0     C25408   1.915   2.296   3.594  0.3352 -0.2141 -0.0387
  189MOL0     C25409   2.030   2.069   3.607  0.5452  0.0974  0.2033
  189MOL0     C25410   1.904   2.003   3.635  0.5450 -0.3199  0.8766
  189MOL0     O25411   1.808   2.061   3.708  0.0973  0.4733 -0.3100
  189MOL0     C25412   1.680   2.013   3.719 -0.3221  0.9941  1.0143
  189MOL0     C25413   1.619   2.015   3.846  0.5336  0.7033  0.7674
  189MOL0     C25414   1.488   1.964   3.852  0.2169 -0.9300 -0.2999
  189MOL0     C25415   1.427   1.905   3.753  0.1354 -0.3424 -0.6630
  189MOL0     O25416   1.304   1.841   3.774 -0.3466  0.1097  0.0634
  189MOL0     C25417   1.327   1.705   3.799  0.4676  0.6837 -0.5910
  189MOL0     C25418   1.195   1.631   3.776 -0.3879 -0.4394  0.6759
  189MOL0     C25419   1.072   1.696   3.854 -0.7527  0.6972  0.0593
  189MOL0     C25420   0.936   1.661   3.801  0.3745  0.5790  0.5869
  189MOL0     C25421   0.912   1.503   3.803  0.2763 -0.5144 -0.5555
  189MOL0     C25422   0.768   1.479   3.761 -0.0570 -0.5119 -0.1835
  189MOL0     C25423   0.730   1.329   3.767 -0.3216 -0.1579 -0.2245
  189MOL0     C25424   0.594   1.311   3.699  0.4785  0.3459  0.7236
  189MOL0    Cl25425   0.467   1.396   3.792 -0.1035  0.7900 -0.2246
  189MOL0     C25426   1.490   1.900   3.628  0.3411 -0.9980  0.1201
  189MOL0     C25427   1.617   1.965   3.610 -0.5148 -1.2887 -0.3935
  189MOL0     O25428   1.899   1.893   3.585 -0.3644  0.5548 -0.0085
  189MOL0     C25429   2.151   2.003   3.595 -0.3778  0.5305  0.2392
  189MOL0     C25430   2.268   2.066   3.554 -0.4255 -0.9494 -0.5524
  189MOL0     N25431   2.103   2.690   3.602 -0.8958  0.0731  0.3824
  189MOL0     N25432   1.981   2.698   3.560 -0.3595 -0.1098  0.4678
  189MOL0     C25433   2.794   2.705   2.702 -0.0126 -0.4606  0.4164
  189MOL0     C25434   2.925   2.761   2.683  0.7379  0.6002 -0.7138
  189MOL0     C25435   3.341   2.926   2.680  0.4054 -0.2859 -0.2822
  189MOL0     C25436   3.359   3.058   2.729  0.1712 -0.6971 -0.7893
  189MOL0     C25437   3.490   3.113   2.736 -0.6653 -0.8938 -1.0446
  189MOL0     C25438   3.591   3.042   2.679  0.4096  0.0776 -0.3833
  189MOL0     O25439   3.721   3.096   2.672 -0.3530 -0.2779  0.3353
  189MOL0     C25440   3.785   3.119   2.798 -0.4537  0.3968 -0.8458
  189MOL0     C25441   3.834   3.270   2.803 -0.6389  0.6312 -0.0702
  189MOL0     C25442   3.897   3.333   2.676  0.2461  0.3676  1.8116
  189MOL0     C25443   4.017   3.254   2.619 -0.3549 -0.0339  0.7344
  189MOL0     C25444   4.117   3.209   2.717  0.7748  0.5898  0.4556
  189MOL0     C25445   4.195   3.171   2.801  0.8354  1.5822  0.1866
  189MOL0     C25446   3.573   2.912   2.628 -0.1360  0.3324  0.8589
  189MOL0     C25447   3.453   2.853   2.632  0.2252 -0.3292 -0.0879
  189MOL0     H25448   2.937   2.991   2.910 -0.3515  0.4844 -0.3581
  189MOL0     H25449   2.690   2.922   2.938 -1.5279 -1.6586 -1.1077
  189MOL0     H25450   2.527   2.745   2.991 -1.1829 -0.2855  0.0597
  189MOL0     H25451   2.467   2.856   2.859  3.2788 -0.4047 -1.5483
  189MOL0     H25452   2.315   2.727   2.766  0.4562  1.4289 -0.8284
  189MOL0     H25453   2.376   2.574   2.842  1.4973  0.2698  3.9321
  189MOL0     H25454   2.295   2.610   3.046  2.5136  0.9520  0.5382
  189MOL0     H25455   2.288   2.790   3.040 -1.0562 -0.1574  2.4252
  189MOL0     H25456   2.102   2.772   2.877  2.6844 -0.5354 -0.1105
  189MOL0     H25457   2.095   2.595   2.884  0.4744  0.3233 -0.2659
  189MOL0     H25458   2.024   2.781   3.111 -0.6700  1.1943 -1.3129
  189MOL0     H25459   1.915   2.694   2.995  1.3629  0.6694 -1.6686
  189MOL0     H25460   1.976   2.483   3.079 -0.1083  1.0755 -1.3009
  189MOL0     H25461   2.085   2.554   3.199 -0.2433 -0.4577 -0.7176
  189MOL0     H25462   1.787   2.585   3.187  0.0381  2.3693  0.8668
  189MOL0     H25463   1.871   2.500   3.314 -3.4936 -1.2804 -1.6947
  189MOL0     H25464   1.779   2.709   3.390 -0.7380 -0.3698 -2.1203
  189MOL0     H25465   1.863   2.808   3.275 -3.5290  0.0143 -0.8197
  189MOL0     H25466   2.143   2.783   3.296 -1.8431  1.9160  0.3270
  189MOL0     H25467   2.375   2.799   3.482 -2.9096  1.2209 -1.3139
  189MOL0     H25468   2.370   2.663   3.596 -2.4496 -1.4557 -0.5957
  189MOL0     H25469   2.498   2.617   3.363  0.0272  0.3453 -1.7851
  189MOL0     H25470   2.345   2.648   3.287 -1.1389 -0.4925 -0.1828
  189MOL0     H25471   2.400   2.399   3.316  0.2926 -2.8402  1.8289
  189MOL0     H25472   2.245   2.460   3.373  1.0342  0.1116 -1.8100
  189MOL0     H25473   2.342   2.447   3.602 -0.5658  1.2497  0.1456
  189MOL0     H25474   2.506   2.432   3.540  2.5464 -1.5691 -2.5592
  189MOL0     H25475   2.142   2.381   3.533 -0.1108  1.7849 -0.4315
  189MOL0     H25476   1.882   2.285   3.698 -0.0244 -0.3231 -0.1615
  189MOL0     H25477   1.939   2.400   3.573 -0.9999 -0.4176 -2.9880
  189MOL0     H25478   1.836   2.261   3.527 -0.5343  0.4581  0.6072
  189MOL0     H25479   1.668   2.052   3.935  3.3572 -4.0980  1.5879
  189MOL0     H25480   1.448   1.956   3.953  1.3606 -0.7090  0.1782
  189MOL0     H25481   1.407   1.653   3.745 -1.5579 -3.7115  0.2064
  189MOL0     H25482   1.351   1.702   3.905  4.6745  3.9535 -1.1665
  189MOL0     H25483   1.170   1.632   3.670 -3.9728  1.9038  1.3494
  189MOL0     H25484   1.224   1.534   3.817 -4.1411 -2.0919 -0.1436
  189MOL0     H25485   1.085   1.804   3.851  3.7882  0.3683  0.6507
  189MOL0     H25486   1.087   1.680   3.961  0.1644  3.1028  0.3384
  189MOL0     H25487   0.859   1.707   3.864 -0.5969 -1.8901  1.3480
  189MOL0     H25488   0.930   1.704   3.701  0.1266  1.9216  1.1556
  189MOL0     H25489   0.935   1.454   3.897  0.7127  1.5532  0.4625
  189MOL0     H25490   0.969   1.460   3.720  0.6231  1.1341 -1.2146
  189MOL0     H25491   0.721   1.538   3.840  0.4494  3.2327 -2.4426
  189MOL0     H25492   0.747   1.528   3.666  2.2430  0.4056 -0.2806
  189MOL0     H25493   0.736   1.290   3.869  0.4431 -4.8071 -1.8113
  189MOL0     H25494   0.809   1.274   3.715  0.5492  1.4762 -0.7357
  189MOL0     H25495   0.558   1.208   3.702  1.1409  0.1224  1.2957
  189MOL0     H25496   0.587   1.351   3.598  0.2221  0.4770  0.7922
  189MOL0     H25497   1.431   1.867   3.544 -2.0487  1.2539  0.7631
  189MOL0     H25498   1.668   1.968   3.515  2.0110 -1.1167  0.8921
  189MOL0     H25499   2.156   1.895   3.601  0.2733  0.5800  0.5910
  189MOL0     H25500   2.364   2.016   3.549 -1.6322 -3.6776  1.1227
  189MOL0     H25501   2.749   2.640   2.628 -0.1573  0.4359 -0.2933
  189MOL0     H25502   2.978   2.712   2.602 -2.6544 -1.4781 -1.9006
  189MOL0     H25503   3.275   3.116   2.766  0.1517 -1.5515  0.5436
  189MOL0     H25504   3.500   3.207   2.790 -2.1049 -1.5836  0.4989
  189MOL0     H25505   3.723   3.090   2.883 -0.4896  1.2694 -0.5695
  189MOL0     H25506   3.877   3.059   2.797  0.2752  1.3272  1.8227
  189MOL0     H25507   3.904   3.292   2.885 -0.6711 -3.2400  1.1873
  189MOL0     H25508   3.742   3.322   2.831  0.0809  0.6884  2.4568
  189MOL0     H25509   3.934   3.429   2.712  0.6938  0.3258  1.4742
  189MOL0     H25510   3.817   3.346   2.603  1.3504 -0.1097  0.4643
  189MOL0     H25511   4.071   3.305   2.539  1.7892 -2.7002  0.3509
  189MOL0     H25512   3.974   3.170   2.564  0.5611  0.2373 -0.4443
  189MOL0     H25513   4.270   3.125   2.862  0.2817 -0.7258 -0.7740
  189MOL0     H25514   3.661   2.879   2.573 -0.8029  2.9632 -2.0465
  189MOL0     H25515   3.452   2.749   2.599  0.9367  0.1109 -1.5871
  190MOL0     O25516   7.413   2.754   6.396  0.2828  0.6711  0.5684
  190MOL0     C25517   7.299   2.775   6.364  0.3434 -0.5634  0.5842
  190MOL0     O25518   7.222   2.878   6.401 -0.3083  0.6596  0.1784
  190MOL0     C25519   7.271   2.989   6.468  1.0242  0.5656  0.1994
  190MOL0     C25520   7.174   3.061   6.540  0.7890  0.1106  0.3727
  190MOL0     C25521   7.218   3.177   6.603  0.8161  0.2550  0.3189
  190MOL0     C25522   7.352   3.226   6.599 -0.3239  1.0911  0.6445
  190MOL0     O25523   7.404   3.340   6.654  0.4791 -0.4543 -0.0968
  190MOL0     C25524   7.439   3.439   6.560 -0.5017  0.6488  0.5587
  190MOL0     C25525   7.494   3.565   6.630 -0.2316 -0.2944  0.2764
  190MOL0     C25526   7.374   3.629   6.723  0.1500 -0.0853 -0.2328
  190MOL0     C25527   7.382   3.577   6.875  0.6400 -0.4108 -0.0387
  190MOL0     C25528   7.292   3.659   6.974  0.1141  0.3401  0.0092
  190MOL0     C25529   7.370   3.784   7.022 -0.1922  0.2080 -0.2500
  190MOL0     C25530   7.292   3.840   7.136  0.1377  0.5831 -0.3362
  190MOL0     C25531   7.161   3.922   7.105 -0.1027  0.4006 -0.0825
  190MOL0     N25532   7.120   3.990   7.232 -0.2095 -0.6422  0.9149
  190MOL0     C25533   7.148   4.124   7.248  0.0153 -0.6600 -0.8643
  190MOL0     C25534   7.097   4.150   7.374  0.3769 -0.4303  0.6849
  190MOL0     C25535   7.104   4.279   7.448 -0.1193  0.4465 -0.4719
  190MOL0     C25536   7.243   4.314   7.490 -0.2121 -0.5161  0.8653
  190MOL0     C25537   7.236   4.459   7.537  0.5455 -0.0260 -0.1528
  190MOL0     C25538   7.379   4.506   7.547  0.3027  0.1035 -0.3345
  190MOL0     O25539   7.382   4.637   7.597 -0.1767  0.3303  0.6893
  190MOL0     C25540   7.509   4.681   7.629 -0.0028 -0.9913  0.6581
  190MOL0     C25541   7.627   4.616   7.639 -1.0329  0.8555  1.1232
  190MOL0     C25542   7.747   4.677   7.692  0.6292 -0.5651  0.0789
  190MOL0     C25543   7.868   4.596   7.667 -0.4386  0.3100 -0.9575
  190MOL0     C25544   7.748   4.805   7.753  0.9112  0.2023 -0.6171
  190MOL0     C25545   7.864   4.874   7.818  0.0799 -0.4564  0.5973
  190MOL0     O25546   7.838   4.988   7.890  0.1762  0.6817 -0.2301
  190MOL0     C25547   7.952   5.050   7.941  0.0445  0.0683 -0.2579
  190MOL0     C25548   8.020   5.001   8.047  0.5214  0.0642 -0.3399
  190MOL0     C25549   8.138   5.056   8.098 -0.0675 -0.4638  0.7043
  190MOL0     C25550   8.183   5.173   8.041 -0.6511 -0.7212 -0.6667
  190MOL0     O25551   8.305   5.232   8.067 -0.0965 -0.2560 -0.0051
  190MOL0     C25552   8.362   5.197   8.192 -0.0489 -0.0137  0.4060
  190MOL0     C25553   8.498   5.260   8.185 -0.0743  0.7603 -0.0084
  190MOL0     C25554   8.589   5.165   8.097  0.6301  0.6801  0.1725
  190MOL0     C25555   8.735   5.204   8.111  0.6314 -0.3389  0.1710
  190MOL0     C25556   8.829   5.115   8.030  0.4953  0.5571 -0.4752
  190MOL0     C25557   8.829   4.964   8.066  0.1215  0.4094  0.0843
  190MOL0     C25558   8.841   4.925   8.212  0.1787  0.3837  0.2079
  190MOL0     C25559   8.947   4.990   8.303  0.2206  0.4038  0.8050
  190MOL0    Cl25560   9.094   4.933   8.223 -0.0179  0.4662 -0.0933
  190MOL0     C25561   8.125   5.221   7.927  0.6595 -0.3795  0.8740
  190MOL0     C25562   8.006   5.166   7.877 -0.0986 -0.0705 -0.6045
  190MOL0     O25563   7.974   4.842   7.775 -0.8732 -0.0366  0.2873
  190MOL0     C25564   7.623   4.871   7.742 -0.2017 -0.2478 -0.5529
  190MOL0     C25565   7.508   4.818   7.677  0.1141 -0.2056 -1.1493
  190MOL0     N25566   7.055   4.036   7.435 -0.0048  0.5947  0.1040
  190MOL0     N25567   7.058   3.942   7.341 -0.1927 -0.2924 -0.4103
  190MOL0     C25568   7.438   3.156   6.525 -0.6624  0.1482  1.4147
  190MOL0     C25569   7.404   3.035   6.468 -0.1715 -0.9279 -0.4446
  190MOL0     C25570   7.255   2.706   6.238  0.2499 -0.1429 -0.7776
  190MOL0     C25571   7.118   2.703   6.194 -0.4342  0.1661  0.5536
  190MOL0     C25572   7.085   2.637   6.066 -0.4946  0.5950 -0.4796
  190MOL0     C25573   7.180   2.567   5.991 -0.4461  0.3710 -0.1136
  190MOL0     O25574   7.146   2.516   5.865  0.1389  0.4135  0.2703
  190MOL0     C25575   7.249   2.467   5.782  0.2866  0.0777  0.5652
  190MOL0     C25576   7.160   2.413   5.663 -0.2223  0.8270  0.0963
  190MOL0     C25577   7.095   2.278   5.702 -0.1125 -0.7936 -0.0015
  190MOL0     C25578   7.010   2.212   5.582  0.1290  0.3397  0.3398
  190MOL0     C25579   6.874   2.192   5.609  0.2884  0.9643 -0.1169
  190MOL0     C25580   6.769   2.162   5.649  0.2423  0.8846  0.6915
  190MOL0     C25581   7.313   2.555   6.051  0.6045  0.7199 -0.6592
  190MOL0     C25582   7.346   2.626   6.170  0.5614 -0.2076  0.8628
  190MOL0     H25583   7.070   3.032   6.540  1.2509 -1.6897 -0.4937
  190MOL0     H25584   7.141   3.226   6.661 -3.3325 -3.9105 -1.0728
  190MOL0     H25585   7.520   3.417   6.491 -2.1789  0.4847 -1.4549
  190MOL0     H25586   7.347   3.464   6.508 -1.1906  2.0724  2.3436
  190MOL0     H25587   7.590   3.553   6.681 -0.2366 -1.8644 -0.0497
  190MOL0     H25588   7.523   3.634   6.550 -0.9454  0.7822  0.9139
  190MOL0     H25589   7.377   3.738   6.716 -2.5145  0.0581 -0.0508
  190MOL0     H25590   7.280   3.601   6.674  1.4581  0.4976 -3.3095
  190MOL0     H25591   7.346   3.474   6.876  0.6981 -0.4413 -0.7008
  190MOL0     H25592   7.481   3.575   6.920  0.7025 -0.5166 -0.1787
  190MOL0     H25593   7.207   3.701   6.919 -0.9906  0.0691  1.4558
  190MOL0     H25594   7.258   3.597   7.057 -0.7225  0.0565 -0.5307
  190MOL0     H25595   7.470   3.756   7.055 -0.2609  0.3020  0.0432
  190MOL0     H25596   7.374   3.860   6.943  0.3697 -0.2221 -0.6366
  190MOL0     H25597   7.269   3.757   7.204  1.8850  0.1200 -0.2798
  190MOL0     H25598   7.365   3.898   7.192  0.8153  1.0746 -1.6712
  190MOL0     H25599   7.071   3.868   7.073 -0.2960  0.4762  0.3252
  190MOL0     H25600   7.185   3.994   7.026  0.4891  0.5711  0.2480
  190MOL0     H25601   7.212   4.194   7.195  1.7704  0.2595  2.2531
  190MOL0     H25602   7.069   4.355   7.378  1.7813  0.8038 -1.0873
  190MOL0     H25603   7.052   4.282   7.544  0.5024  3.7046 -0.1384
  190MOL0     H25604   7.309   4.312   7.403  0.4542  1.1043  1.3112
  190MOL0     H25605   7.289   4.240   7.557 -1.5399 -2.3541 -0.1335
  190MOL0     H25606   7.180   4.469   7.630 -1.3900  1.7668 -1.4154
  190MOL0     H25607   7.179   4.521   7.467  0.1729 -1.3300 -1.0280
  190MOL0     H25608   7.431   4.493   7.451 -0.9032 -1.0876 -0.8578
  190MOL0     H25609   7.419   4.438   7.622  0.5087 -0.5094 -0.9812
  190MOL0     H25610   7.633   4.521   7.588 -0.1136  0.9831  0.9870
  190MOL0     H25611   7.954   4.606   7.734 -0.6438  0.7387 -0.7542
  190MOL0     H25612   7.837   4.492   7.683  0.8020  0.1890  0.9818
  190MOL0     H25613   7.903   4.608   7.564 -0.0477  0.2746 -0.8306
  190MOL0     H25614   7.983   4.915   8.102  0.7985  2.4079  3.9546
  190MOL0     H25615   8.184   4.999   8.179 -1.9244 -2.8350  0.1995
  190MOL0     H25616   8.302   5.252   8.266  0.0789  1.7502 -0.7401
  190MOL0     H25617   8.382   5.091   8.210 -0.0212 -0.2049 -0.7120
  190MOL0     H25618   8.502   5.363   8.146 -0.1532  0.0671 -1.9330
  190MOL0     H25619   8.547   5.252   8.282 -3.0840  0.4815  1.6140
  190MOL0     H25620   8.564   5.163   7.991  0.0598  0.0738  0.3092
  190MOL0     H25621   8.573   5.064   8.137 -1.1421  0.8638  0.0125
  190MOL0     H25622   8.751   5.309   8.089 -1.8291 -0.0707 -0.7037
  190MOL0     H25623   8.748   5.200   8.220  2.6924 -4.3349 -0.0302
  190MOL0     H25624   8.927   5.155   8.055  1.3856 -3.5378  4.0848
  190MOL0     H25625   8.801   5.127   7.925 -2.2605 -1.8288 -0.1533
  190MOL0     H25626   8.738   4.918   8.027  1.0243  0.0102 -1.6513
  190MOL0     H25627   8.912   4.922   8.008  0.3870  0.2245  0.5899
  190MOL0     H25628   8.851   4.816   8.217  0.0152  0.3687  0.2436
  190MOL0     H25629   8.751   4.942   8.272  1.1773  1.2524  1.5039
  190MOL0     H25630   8.938   4.958   8.407 -1.3841  2.3735  1.3321
  190MOL0     H25631   8.949   5.100   8.300 -1.9112  0.4649  0.4855
  190MOL0     H25632   8.174   5.314   7.902  1.3929  0.2523  4.2315
  190MOL0     H25633   7.965   5.194   7.780  3.7609  1.5457 -1.9667
  190MOL0     H25634   7.604   4.966   7.793 -0.1550 -0.9788  0.8878
  190MOL0     H25635   7.413   4.870   7.677 -0.6221 -1.5197 -0.8215
  190MOL0     H25636   7.540   3.193   6.519 -0.3386 -0.8392  0.2571
  190MOL0     H25637   7.484   2.996   6.407  0.2755 -1.0931  0.2390
  190MOL0     H25638   7.039   2.748   6.254 -0.9432 -2.3263  1.9128
  190MOL0     H25639   6.983   2.636   6.029 -0.3189  2.2023 -1.0838
  190MOL0     H25640   7.313   2.552   5.757  2.9282 -2.6662 -3.3785
  190MOL0     H25641   7.305   2.385   5.827 -0.9020 -1.6623 -0.9648
  190MOL0     H25642   7.222   2.392   5.575 -0.1721  0.0033  0.3213
  190MOL0     H25643   7.082   2.483   5.631 -2.8279 -2.2857 -0.9346
  190MOL0     H25644   7.034   2.287   5.793 -1.0614 -2.1844 -0.4637
  190MOL0     H25645   7.168   2.197   5.714  0.4720 -0.0912  1.4147
  190MOL0     H25646   7.062   2.123   5.545 -1.5435  1.0520 -4.3522
  190MOL0     H25647   7.016   2.283   5.500 -2.5754  0.6110  0.2805
  190MOL0     H25648   6.675   2.135   5.693  0.9734 -1.2784  1.0719
  190MOL0     H25649   7.396   2.502   6.007 -0.6391 -0.8402 -1.2226
  190MOL0     H25650   7.451   2.638   6.193  0.0367  0.6421  3.0941
  191MOL0     O25651   4.576   8.334  10.838 -0.1760 -0.2139  0.1357
  191MOL0     C25652   4.483   8.266  10.879 -0.3617  0.7938  0.5519
  191MOL0     O25653   4.355   8.311  10.907 -0.4248 -0.2086 -0.2527
  191MOL0     C25654   4.327   8.441  10.867  0.1155  0.6453 -0.1886
  191MOL0     C25655   4.403   8.552  10.905  0.2780  0.3545 -0.3313
  191MOL0     C25656   4.365   8.685  10.885  0.3661  0.6939 -0.4796
  191MOL0     C25657   4.244   8.715  10.829  0.1776 -1.5824  0.5714
  191MOL0     O25658   4.203   8.847  10.809 -0.3631 -0.4058  0.3500
  191MOL0     C25659   4.162   8.880  10.676 -0.6480 -0.1457 -1.0695
  191MOL0     C25660   4.183   9.030  10.652 -0.6482  0.8353 -0.2846
  191MOL0     C25661   4.061   9.120  10.673  0.1645  0.3539 -0.3376
  191MOL0     C25662   4.029   9.169  10.825 -0.7672 -0.5847  0.4116
  191MOL0     C25663   3.902   9.243  10.843  0.2272  0.2047 -0.2584
  191MOL0     C25664   3.772   9.166  10.824  0.7324  0.2193 -0.2124
  191MOL0     C25665   3.658   9.257  10.845 -0.0039  0.0632  0.0691
  191MOL0     C25666   3.533   9.174  10.877  0.1319 -0.4282  0.7554
  191MOL0     N25667   3.426   9.267  10.920  0.0310  0.5303 -0.1029
  191MOL0     C25668   3.401   9.316  11.046  0.1146  0.2059 -0.5115
  191MOL0     C25669   3.302   9.408  11.033 -0.1363  0.5544  0.1461
  191MOL0     C25670   3.242   9.471  11.151  0.3656  0.8873 -0.4396
  191MOL0     C25671   3.139   9.368  11.212 -1.2791 -0.2908  0.7047
  191MOL0     C25672   3.076   9.430  11.335 -0.0376  0.3476  0.2181
  191MOL0     C25673   2.949   9.364  11.400  0.5063  0.0656 -0.1477
  191MOL0     O25674   2.857   9.365  11.289 -0.7227  0.1334 -0.2875
  191MOL0     C25675   2.764   9.276  11.295 -0.7048 -0.5341  0.7048
  191MOL0     C25676   2.714   9.221  11.175  0.5418 -0.2441  0.2613
  191MOL0     C25677   2.618   9.120  11.175 -1.1214  0.2797 -0.0604
  191MOL0     C25678   2.595   9.049  11.048 -0.1826 -0.0854 -0.3235
  191MOL0     C25679   2.553   9.082  11.298 -0.3906 -0.1159 -0.8675
  191MOL0     C25680   2.448   8.975  11.312  0.7322  0.6978 -0.3463
  191MOL0     O25681   2.392   8.969  11.437 -0.2541  0.1697  1.3251
  191MOL0     C25682   2.296   8.874  11.465  0.9755  0.1609 -0.6786
  191MOL0     C25683   2.194   8.830  11.387  0.4282  0.7856 -0.2433
  191MOL0     C25684   2.123   8.711  11.418 -0.2123 -1.2700  0.7666
  191MOL0     C25685   2.139   8.648  11.540 -0.8373  0.5995  0.1432
  191MOL0     O25686   2.076   8.534  11.582  0.4721  0.6203 -0.2328
  191MOL0     C25687   2.124   8.412  11.523 -0.2741  0.2722  0.4280
  191MOL0     C25688   2.012   8.323  11.473  0.9569  0.3991 -0.3053
  191MOL0     C25689   2.044   8.174  11.483 -0.6529 -0.0821 -0.5136
  191MOL0     C25690   1.941   8.098  11.399 -0.4635  0.6065 -0.6563
  191MOL0     C25691   1.919   7.952  11.444  0.0464 -0.3536 -0.1692
  191MOL0     C25692   1.794   7.901  11.367 -0.2313 -0.3609  0.2385
  191MOL0     C25693   1.820   7.865  11.219 -0.6909  0.1858 -0.3614
  191MOL0     C25694   1.690   7.789  11.171 -0.0047  0.1627 -0.2872
  191MOL0    Cl25695   1.550   7.894  11.153 -0.1490 -0.2310  0.2013
  191MOL0     C25696   2.235   8.701  11.623 -0.6761  0.0804 -0.6285
  191MOL0     C25697   2.324   8.808  11.589  0.0789 -0.0999 -0.1960
  191MOL0     O25698   2.412   8.913  11.214 -1.1287  0.5078 -0.2924
  191MOL0     C25699   2.600   9.140  11.415  0.3784 -0.3482  0.6255
  191MOL0     C25700   2.701   9.238  11.410 -0.0282 -0.3415 -0.3807
  191MOL0     N25701   3.272   9.425  10.897  0.4970  0.0809  0.3100
  191MOL0     N25702   3.348   9.337  10.831 -0.5468  0.2135 -0.6473
  191MOL0     C25703   4.164   8.610  10.780 -0.2555  0.4606 -0.2684
  191MOL0     C25704   4.206   8.472  10.796 -0.4267 -1.3267 -0.5427
  191MOL0     C25705   4.514   8.135  10.927  0.2855  0.6693 -0.4453
  191MOL0     C25706   4.643   8.078  10.919  0.1692 -0.5752 -0.1599
  191MOL0     C25707   4.664   7.940  10.940 -0.7864  0.1518  0.8099
  191MOL0     C25708   4.570   7.861  10.995  0.5096  0.5695  0.5487
  191MOL0     O25709   4.603   7.730  11.042 -0.4909 -0.1566  0.3287
  191MOL0     C25710   4.503   7.631  11.023 -0.1288  0.0429  0.4793
  191MOL0     C25711   4.581   7.503  11.018  0.4229  0.1491  0.1896
  191MOL0     C25712   4.489   7.389  10.963 -0.7897  0.2433  0.1485
  191MOL0     C25713   4.565   7.249  10.979 -0.6257  0.0373  0.7511
  191MOL0     C25714   4.510   7.178  11.091 -1.1745  0.4624 -0.1612
  191MOL0     C25715   4.443   7.114  11.165 -0.0824  0.2157  0.2928
  191MOL0     C25716   4.442   7.912  11.012 -0.4522  1.0280 -0.0166
  191MOL0     C25717   4.412   8.051  10.983 -0.6103  0.0243  0.9596
  191MOL0     H25718   4.491   8.544  10.969  1.3132  2.3794 -1.4057
  191MOL0     H25719   4.413   8.765  10.940 -0.4933 -1.1870  3.3066
  191MOL0     H25720   4.227   8.832  10.602 -0.4422  0.9182 -1.6049
  191MOL0     H25721   4.062   8.840  10.658  0.6863 -3.7102 -1.4272
  191MOL0     H25722   4.265   9.071  10.710 -2.9835  2.3774  2.1577
  191MOL0     H25723   4.199   9.046  10.545 -1.0691  3.8113  0.0295
  191MOL0     H25724   4.071   9.203  10.603  2.7754  1.0291  0.7160
  191MOL0     H25725   3.975   9.065  10.633 -0.4858 -2.1413  3.8740
  191MOL0     H25726   4.038   9.094  10.904 -0.4175  1.7173  2.6878
  191MOL0     H25727   4.103   9.246  10.850  0.2988 -2.0287  1.9532
  191MOL0     H25728   3.901   9.296  10.939 -1.1774  1.8906 -1.1444
  191MOL0     H25729   3.904   9.321  10.765 -1.9433 -0.3960 -0.9932
  191MOL0     H25730   3.767   9.128  10.722  1.3010 -3.4828  0.9860
  191MOL0     H25731   3.767   9.079  10.891 -2.5252 -0.9987 -1.8387
  191MOL0     H25732   3.665   9.333  10.923 -1.3302  0.9042 -0.5954
  191MOL0     H25733   3.648   9.315  10.752 -1.3506  0.5530  0.4943
  191MOL0     H25734   3.554   9.110  10.962 -2.4071 -2.8851 -0.3255
  191MOL0     H25735   3.499   9.114  10.792  0.5191 -0.0529  0.3225
  191MOL0     H25736   3.435   9.268  11.138 -0.0249 -0.2865 -0.7115
  191MOL0     H25737   3.316   9.507  11.223  0.3457 -0.0406  0.0671
  191MOL0     H25738   3.190   9.562  11.122 -2.1562 -0.2278  0.2850
  191MOL0     H25739   3.189   9.273  11.233 -0.2789 -0.4398 -1.9342
  191MOL0     H25740   3.060   9.347  11.140 -0.2100 -0.0782 -0.5635
  191MOL0     H25741   3.063   9.535  11.304 -1.3174 -0.2357 -1.3509
  191MOL0     H25742   3.141   9.429  11.423 -2.5821  1.5070  2.2442
  191MOL0     H25743   2.920   9.431  11.481  1.3576  2.4674 -1.7112
  191MOL0     H25744   2.958   9.261  11.436 -0.5731 -0.7115 -1.9415
  191MOL0     H25745   2.760   9.248  11.081  0.5982  2.3478  0.9447
  191MOL0     H25746   2.486   9.063  11.040 -0.4962  3.9458  5.0474
  191MOL0     H25747   2.641   9.094  10.960 -0.4635 -1.1553 -1.0263
  191MOL0     H25748   2.636   8.948  11.053  0.6688  0.3017  0.9322
  191MOL0     H25749   2.156   8.873  11.295  0.3152 -0.7737 -0.9665
  191MOL0     H25750   2.056   8.678  11.338 -0.1470  0.3838 -0.0067
  191MOL0     H25751   2.189   8.434  11.438 -1.0589  2.7604  0.3719
  191MOL0     H25752   2.182   8.358  11.598  6.2174  1.4463 -2.9887
  191MOL0     H25753   1.916   8.344  11.521 -0.1450 -3.0575 -0.7259
  191MOL0     H25754   2.001   8.364  11.372  0.5119  3.4653  0.8690
  191MOL0     H25755   2.025   8.146  11.587  0.1607  2.3712  0.3701
  191MOL0     H25756   2.148   8.149  11.459  0.2976  1.9507  1.1667
  191MOL0     H25757   1.845   8.150  11.405 -1.4641 -1.1002 -1.1020
  191MOL0     H25758   1.973   8.106  11.294 -0.7453 -1.4381 -0.9390
  191MOL0     H25759   1.911   7.947  11.553 -1.2675  0.5822 -0.2056
  191MOL0     H25760   2.002   7.884  11.419 -0.6573 -1.7246  1.0917
  191MOL0     H25761   1.748   7.817  11.419  1.3704 -1.3479  0.0902
  191MOL0     H25762   1.729   7.989  11.366  0.0993 -0.0907  1.4007
  191MOL0     H25763   1.904   7.796  11.207 -0.3842 -0.5521  4.1119
  191MOL0     H25764   1.841   7.956  11.162  1.9147  0.7552  1.3294
  191MOL0     H25765   1.668   7.705  11.238 -1.0168  0.5727 -0.0735
  191MOL0     H25766   1.705   7.742  11.074 -0.7151 -0.5498 -0.0639
  191MOL0     H25767   2.248   8.640  11.712 -3.3064  1.4100  0.8176
  191MOL0     H25768   2.399   8.849  11.657  2.1416  0.0444 -2.4168
  191MOL0     H25769   2.562   9.116  11.514  0.5730 -1.1813  0.4987
  191MOL0     H25770   2.728   9.285  11.504  0.4607 -2.9478  0.8669
  191MOL0     H25771   4.074   8.635  10.724 -0.6318  1.2657  0.6636
  191MOL0     H25772   4.149   8.398  10.740  1.1097 -3.8340  1.0167
  191MOL0     H25773   4.731   8.139  10.901  0.5553 -1.1763 -0.3261
  191MOL0     H25774   4.765   7.906  10.921 -0.8870  0.6162 -0.6949
  191MOL0     H25775   4.424   7.626  11.098 -2.9766  1.7820 -2.1614
  191MOL0     H25776   4.450   7.650  10.929 -2.7578  1.0997  2.0477
  191MOL0     H25777   4.616   7.473  11.118  1.3649 -1.4685 -0.5857
  191MOL0     H25778   4.663   7.517  10.947 -1.2799 -1.3899 -2.2299
  191MOL0     H25779   4.475   7.398  10.855  0.6598 -0.7093 -0.1656
  191MOL0     H25780   4.395   7.389  11.018 -1.1609 -1.1753 -0.4334
  191MOL0     H25781   4.673   7.265  10.978 -0.0741 -2.4331 -2.9163
  191MOL0     H25782   4.565   7.182  10.892  3.7072  0.3845  0.2800
  191MOL0     H25783   4.367   7.052  11.208 -1.1412 -0.3875 -2.2603
  191MOL0     H25784   4.372   7.845  11.061  1.1227  1.6718  3.3696
  191MOL0     H25785   4.315   8.097  11.000 -0.4080  0.0183  2.1954
  192MOL0     O25786   8.093   3.906   2.419  0.4073  0.5021  0.3345
  192MOL0     C25787   8.208   3.942   2.453  0.6236  0.3315  0.1273
  192MOL0     O25788   8.240   3.986   2.574 -0.0525  0.5822 -0.5826
  192MOL0     C25789   8.165   3.960   2.690 -0.4576 -0.6469 -0.4161
  192MOL0     C25790   8.192   4.051   2.798  0.4234 -0.0961  0.0445
  192MOL0     C25791   8.118   4.042   2.920 -0.8611 -0.2032  0.8624
  192MOL0     C25792   8.023   3.945   2.933 -0.3423 -0.7931 -0.0815
  192MOL0     O25793   7.962   3.955   3.057 -0.3126  0.5476  0.3347
  192MOL0     C25794   7.888   3.839   3.086 -0.0795  0.2800 -0.7218
  192MOL0     C25795   7.826   3.858   3.233 -0.1446  1.0866  0.1841
  192MOL0     C25796   7.729   3.747   3.265 -0.1057  0.9891  0.6497
  192MOL0     C25797   7.627   3.724   3.144 -0.4082 -0.3287 -0.3220
  192MOL0     C25798   7.495   3.657   3.199  0.3158 -0.3693 -0.3606
  192MOL0     C25799   7.372   3.701   3.115  0.7336  0.3114 -0.3531
  192MOL0     C25800   7.405   3.706   2.967  0.2078  0.4550  0.2366
  192MOL0     C25801   7.283   3.713   2.870 -0.0261  0.4375  0.6362
  192MOL0     N25802   7.184   3.816   2.905 -0.3663  0.2351  1.0400
  192MOL0     C25803   7.049   3.798   2.948 -0.4647  0.1243  0.3948
  192MOL0     C25804   6.998   3.922   2.931  0.3947  0.3532 -0.4369
  192MOL0     C25805   6.853   3.958   2.953  0.1866  0.4738 -0.4099
  192MOL0     C25806   6.764   3.944   2.831 -1.0045  0.7076 -0.1964
  192MOL0     C25807   6.622   3.995   2.861  0.4874  0.1593 -0.0599
  192MOL0     C25808   6.525   3.964   2.747  0.0848 -1.0131  0.0763
  192MOL0     O25809   6.490   3.820   2.739 -0.0431 -0.4473  0.7730
  192MOL0     C25810   6.357   3.791   2.731 -0.5935  0.5830  0.5444
  192MOL0     C25811   6.273   3.845   2.636 -0.1632  0.1432 -0.4357
  192MOL0     C25812   6.139   3.802   2.622 -1.0403 -0.8820  0.0096
  192MOL0     C25813   6.050   3.891   2.533  0.8688 -0.1223  0.7944
  192MOL0     C25814   6.099   3.701   2.714  0.2404 -0.2623  0.0320
  192MOL0     C25815   5.959   3.655   2.708 -0.0061  0.0645  0.0682
  192MOL0     O25816   5.918   3.565   2.620  0.0580  0.3093 -0.2333
  192MOL0     C25817   5.791   3.504   2.628 -0.9219  0.2394 -0.4830
  192MOL0     C25818   5.717   3.486   2.514  0.2132 -0.6870  1.0423
  192MOL0     C25819   5.602   3.402   2.513  0.4994 -0.8480  0.0594
  192MOL0     C25820   5.551   3.354   2.635  0.1452 -0.0197  0.4213
  192MOL0     O25821   5.453   3.251   2.651 -0.7973 -1.0101  0.0191
  192MOL0     C25822   5.393   3.194   2.533  0.6713  0.5612 -0.4501
  192MOL0     C25823   5.306   3.070   2.574 -0.5906 -0.2739  0.1795
  192MOL0     C25824   5.190   3.082   2.670 -0.7880 -0.1729 -0.0935
  192MOL0     C25825   5.067   3.152   2.601 -0.1385 -0.2084  0.2333
  192MOL0     C25826   4.941   3.136   2.686 -0.2544  0.6382 -0.7748
  192MOL0     C25827   4.882   2.991   2.684 -0.8778 -0.3430  0.2938
  192MOL0     C25828   4.787   2.971   2.803 -0.2337  0.4297  0.4476
  192MOL0     C25829   4.732   2.831   2.793 -0.3039 -0.5196  0.3458
  192MOL0    Cl25830   4.587   2.829   2.901  0.4440 -0.2403 -0.5365
  192MOL0     C25831   5.608   3.400   2.750  0.3602  0.0410  0.5682
  192MOL0     C25832   5.733   3.459   2.747  0.0284 -0.8761  0.1346
  192MOL0     O25833   5.887   3.709   2.791 -0.0885  0.1079 -0.1074
  192MOL0     C25834   6.196   3.634   2.797  0.1259  0.4693  0.3655
  192MOL0     C25835   6.310   3.694   2.814 -0.4493  0.4116 -0.3708
  192MOL0     N25836   7.093   4.012   2.890  0.3324  0.7814  0.7089
  192MOL0     N25837   7.205   3.954   2.883  0.0751  0.9039  0.3453
  192MOL0     C25838   7.993   3.852   2.828 -0.1464 -0.0516 -0.0534
  192MOL0     C25839   8.069   3.868   2.706  1.6750 -0.5553 -0.2950
  192MOL0     C25840   8.295   3.973   2.340 -0.9102  0.4186  0.5362
  192MOL0     C25841   8.433   3.960   2.346 -0.3176  0.4613 -0.3725
  192MOL0     C25842   8.503   3.958   2.229 -0.9372 -0.2063 -0.5836
  192MOL0     C25843   8.445   3.979   2.101  0.3085  0.5560 -1.3998
  192MOL0     O25844   8.535   3.969   1.995 -0.3139 -0.1365  1.3344
  192MOL0     C25845   8.480   3.961   1.859 -0.4850  1.4834 -1.2165
  192MOL0     C25846   8.597   3.898   1.768 -0.5613 -0.4107 -0.5360
  192MOL0     C25847   8.532   3.864   1.623 -0.1948 -0.2418 -0.0263
  192MOL0     C25848   8.644   3.826   1.527  0.0336 -0.3351 -0.3041
  192MOL0     C25849   8.729   3.715   1.563 -0.4541  0.0616  0.1235
  192MOL0     C25850   8.806   3.625   1.552 -0.3424  0.0923 -0.0740
  192MOL0     C25851   8.309   4.001   2.098 -0.1053 -0.8122 -0.1031
  192MOL0     C25852   8.231   3.994   2.215  0.5681  0.0864 -0.1457
  192MOL0     H25853   8.265   4.131   2.790 -1.9702  2.3390  1.0486
  192MOL0     H25854   8.148   4.093   3.012 -0.7000 -0.9353  1.2248
  192MOL0     H25855   7.812   3.812   3.012 -0.6075  0.2328 -0.1717
  192MOL0     H25856   7.952   3.751   3.094 -0.4432 -0.0776 -1.6275
  192MOL0     H25857   7.904   3.872   3.309  1.7982 -1.6786 -1.1248
  192MOL0     H25858   7.766   3.950   3.236 -2.0643 -0.0670 -0.6457
  192MOL0     H25859   7.781   3.653   3.285  2.9268  2.2711 -0.6342
  192MOL0     H25860   7.674   3.781   3.353 -1.7999  2.5763 -0.9079
  192MOL0     H25861   7.606   3.826   3.109  2.2261 -0.2874 -2.0544
  192MOL0     H25862   7.665   3.665   3.060  3.3032 -1.0250  1.6564
  192MOL0     H25863   7.503   3.548   3.194  0.3784 -0.3260 -1.3727
  192MOL0     H25864   7.484   3.688   3.303 -1.2759  2.3441 -1.2338
  192MOL0     H25865   7.293   3.625   3.125  2.8768 -1.8890  0.8143
  192MOL0     H25866   7.333   3.798   3.147  0.4015  0.4956 -1.2787
  192MOL0     H25867   7.468   3.791   2.941  0.0152  0.8211  0.9559
  192MOL0     H25868   7.457   3.615   2.934 -2.1211 -0.6456 -0.7191
  192MOL0     H25869   7.221   3.623   2.871  0.6156 -0.0962 -1.8114
  192MOL0     H25870   7.315   3.716   2.766  1.0598 -0.6874  0.9137
  192MOL0     H25871   7.004   3.704   2.981 -1.4349  1.0133  1.7173
  192MOL0     H25872   6.829   3.876   3.022  0.7071 -1.8603 -2.8048
  192MOL0     H25873   6.839   4.054   3.002  0.9510  0.3474  0.0715
  192MOL0     H25874   6.770   3.842   2.792  1.4420 -0.4069  2.6703
  192MOL0     H25875   6.811   4.008   2.756  1.2160  0.2832  0.7651
  192MOL0     H25876   6.624   4.103   2.876  0.6661  0.1759 -0.1946
  192MOL0     H25877   6.584   3.955   2.955  0.1143 -0.4497 -0.4596
  192MOL0     H25878   6.566   3.999   2.652 -0.8167  0.0869  0.0800
  192MOL0     H25879   6.436   4.026   2.760  0.5261  0.0762 -1.7644
  192MOL0     H25880   6.310   3.928   2.576 -0.7859 -1.3721 -3.0793
  192MOL0     H25881   6.108   3.955   2.465  1.0598  0.0550  1.1242
  192MOL0     H25882   5.990   3.834   2.460 -2.2089  3.4689  0.1822
  192MOL0     H25883   5.976   3.940   2.597  1.1700  0.6422  0.5727
  192MOL0     H25884   5.760   3.509   2.417 -0.5216 -1.9721  0.3840
  192MOL0     H25885   5.549   3.376   2.422 -1.0725  3.6074 -0.5480
  192MOL0     H25886   5.334   3.273   2.485 -0.9154  0.7825  1.7133
  192MOL0     H25887   5.466   3.159   2.460 -0.3797  0.0712 -1.3031
  192MOL0     H25888   5.262   3.026   2.484 -1.2254 -0.6795  0.6796
  192MOL0     H25889   5.369   2.992   2.617 -0.1307 -0.9141 -1.5490
  192MOL0     H25890   5.231   3.144   2.749 -0.0443 -0.8084  0.0285
  192MOL0     H25891   5.160   2.986   2.715  0.6136 -0.5178  0.1523
  192MOL0     H25892   5.092   3.258   2.590  1.1749 -0.2895  1.9265
  192MOL0     H25893   5.044   3.109   2.503 -1.4010  1.3457 -0.2020
  192MOL0     H25894   4.871   3.217   2.663  4.4882  5.1206 -1.2190
  192MOL0     H25895   4.975   3.167   2.785  0.9104 -2.9192  0.0948
  192MOL0     H25896   4.835   2.973   2.587 -1.1335  3.3964 -0.4201
  192MOL0     H25897   4.968   2.927   2.705 -1.1445 -0.6088  0.5818
  192MOL0     H25898   4.720   3.057   2.815  2.1122  2.1595  2.0009
  192MOL0     H25899   4.841   2.980   2.898  1.0607  1.2880 -0.3472
  192MOL0     H25900   4.802   2.756   2.832 -0.3350  0.8555  3.2698
  192MOL0     H25901   4.701   2.801   2.692  0.2449 -2.0026  0.5918
  192MOL0     H25902   5.580   3.348   2.841 -0.1202 -2.8789 -1.1179
  192MOL0     H25903   5.783   3.462   2.844  2.1941  0.2663 -0.9490
  192MOL0     H25904   6.171   3.546   2.855  0.6015  2.2034  3.4601
  192MOL0     H25905   6.384   3.639   2.872 -1.0347  0.5259  0.4909
  192MOL0     H25906   7.922   3.771   2.839  0.2960 -0.4694 -0.1920
  192MOL0     H25907   8.033   3.796   2.633 -1.3098  1.1731 -0.7011
  192MOL0     H25908   8.474   3.933   2.442 -2.2468 -0.4970  0.2452
  192MOL0     H25909   8.610   3.941   2.235 -0.7124  1.0483 -0.7650
  192MOL0     H25910   8.393   3.897   1.849 -1.1781  0.2927  6.4256
  192MOL0     H25911   8.441   4.058   1.826 -1.5392  1.1408 -1.0104
  192MOL0     H25912   8.648   3.813   1.814  2.2420  0.6894 -1.3979
  192MOL0     H25913   8.677   3.973   1.761  1.0008 -1.9593  0.1280
  192MOL0     H25914   8.477   3.953   1.593 -2.2091 -1.4756 -0.1620
  192MOL0     H25915   8.461   3.781   1.619  0.8156 -1.0859 -1.3655
  192MOL0     H25916   8.699   3.919   1.512 -1.5478  0.6930  0.0208
  192MOL0     H25917   8.581   3.800   1.441  1.3518  0.9218 -1.6910
  192MOL0     H25918   8.872   3.545   1.525  1.5342  1.2158  0.9361
  192MOL0     H25919   8.255   4.003   2.004 -2.4790 -2.6971  1.0977
  192MOL0     H25920   8.124   4.001   2.203  0.0703 -1.8078  2.4027
  193MOL0     O25921   7.878   4.191   5.291  0.1167  0.0035 -0.6046
  193MOL0     C25922   7.996   4.218   5.288  0.5901 -0.0008  0.2362
  193MOL0     O25923   8.101   4.132   5.248  0.8959  0.4846  0.8199
  193MOL0     C25924   8.077   4.022   5.178 -0.2625 -0.3370 -0.7372
  193MOL0     C25925   7.968   4.007   5.087 -0.4322 -0.5509  0.3405
  193MOL0     C25926   7.950   3.875   5.030 -0.4235 -0.8803  0.2821
  193MOL0     C25927   8.052   3.777   5.039 -0.8842 -0.1936  0.4094
  193MOL0     O25928   8.044   3.656   4.969 -0.1058  0.0051  0.3666
  193MOL0     C25929   7.932   3.567   4.980 -0.0239  0.0813  0.7216
  193MOL0     C25930   7.935   3.450   4.879  0.7389  0.5936 -0.6242
  193MOL0     C25931   7.964   3.480   4.733 -0.0829 -0.4134 -0.3474
  193MOL0     C25932   7.895   3.375   4.644  1.2470 -0.0503 -0.0050
  193MOL0     C25933   7.974   3.374   4.508 -0.7789  0.4720 -0.4991
  193MOL0     C25934   7.920   3.263   4.408  0.5381  0.1418  0.9153
  193MOL0     C25935   7.995   3.268   4.268 -0.3338 -0.3410  0.1402
  193MOL0     C25936   7.980   3.403   4.195  0.0090 -0.0301  0.3339
  193MOL0     N25937   7.844   3.451   4.174  0.1065 -0.1157  0.4123
  193MOL0     C25938   7.751   3.396   4.090  0.8686  1.0883 -0.4377
  193MOL0     C25939   7.649   3.479   4.090  0.4038 -0.0978  0.4053
  193MOL0     C25940   7.519   3.455   4.009  0.3155 -0.5642  0.9887
  193MOL0     C25941   7.453   3.329   4.045 -0.1047 -0.1588 -0.8841
  193MOL0     C25942   7.381   3.322   4.181  0.4599  0.0574 -0.2522
  193MOL0     C25943   7.249   3.388   4.165  0.7279  1.0569 -0.1853
  193MOL0     O25944   7.169   3.371   4.283  0.1214  0.4470  0.4727
  193MOL0     C25945   7.032   3.376   4.274 -0.0083  0.4077  0.4148
  193MOL0     C25946   6.974   3.412   4.397 -0.8858  0.6091  0.6939
  193MOL0     C25947   6.838   3.448   4.403 -0.2886 -0.6225 -0.7475
  193MOL0     C25948   6.794   3.506   4.540 -0.8352  0.0137  0.0561
  193MOL0     C25949   6.759   3.441   4.283  0.3971  0.8563  0.4828
  193MOL0     C25950   6.616   3.475   4.282 -0.0026 -1.0338  0.2314
  193MOL0     O25951   6.556   3.484   4.157  0.1095 -0.1323  0.2836
  193MOL0     C25952   6.420   3.501   4.139 -0.3993  0.2459 -0.2140
  193MOL0     C25953   6.386   3.544   4.006  0.0858  0.6443 -0.1757
  193MOL0     C25954   6.252   3.542   3.959 -0.7057  0.0732  0.3503
  193MOL0     C25955   6.146   3.510   4.046  0.3475 -0.0425  0.0244
  193MOL0     O25956   6.016   3.502   4.005  0.2057 -0.2648 -0.3195
  193MOL0     C25957   5.984   3.409   3.908 -0.9659  0.1140  0.7006
  193MOL0     C25958   5.846   3.357   3.953 -0.3250  0.6595  0.5358
  193MOL0     C25959   5.811   3.238   3.869  0.6152 -0.3701  0.4299
  193MOL0     C25960   5.658   3.214   3.846 -0.1156  0.4672 -0.0789
  193MOL0     C25961   5.632   3.083   3.771  0.5653 -0.0851  0.1355
  193MOL0     C25962   5.481   3.066   3.743  0.0778 -0.0775 -0.0509
  193MOL0     C25963   5.437   2.946   3.662  0.5182 -0.5447 -0.1900
  193MOL0     C25964   5.288   2.931   3.679 -0.6919  0.0836 -0.3961
  193MOL0    Cl25965   5.235   2.790   3.584  0.1897 -0.0691 -0.4086
  193MOL0     C25966   6.182   3.481   4.176  0.1930  0.4972 -0.2504
  193MOL0     C25967   6.314   3.474   4.227 -0.4474  0.0972  0.6034
  193MOL0     O25968   6.562   3.468   4.393 -0.4090 -0.4421 -0.7365
  193MOL0     C25969   6.811   3.377   4.174  0.4369 -0.5221 -0.0642
  193MOL0     C25970   6.957   3.361   4.160  0.0429  1.2731 -0.0871
  193MOL0     N25971   7.669   3.573   4.185  0.0230 -0.2740  0.5037
  193MOL0     N25972   7.790   3.561   4.231  0.5567  0.6126 -0.3977
  193MOL0     C25973   8.172   3.802   5.112 -0.0038  0.2954  1.1956
  193MOL0     C25974   8.178   3.925   5.182  0.2097 -0.1874  0.4585
  193MOL0     C25975   8.040   4.347   5.345 -0.2721  0.3386 -0.3736
  193MOL0     C25976   8.172   4.393   5.322 -1.0335 -0.3572 -0.0471
  193MOL0     C25977   8.207   4.520   5.361  0.4197 -0.3624  0.2316
  193MOL0     C25978   8.117   4.613   5.410 -0.1702  0.7968 -0.0145
  193MOL0     O25979   8.140   4.735   5.452  0.1171 -0.4412  0.1886
  193MOL0     C25980   8.257   4.811   5.420  0.1377 -0.5418 -0.2042
  193MOL0     C25981   8.381   4.783   5.515  0.8975  1.2310 -0.5509
  193MOL0     C25982   8.372   4.826   5.667  0.6601 -0.4850  0.1897
  193MOL0     C25983   8.257   4.771   5.759 -0.2415 -0.0716 -0.3744
  193MOL0     C25984   8.272   4.630   5.790  0.1950 -0.5218  0.3519
  193MOL0     C25985   8.292   4.508   5.798 -0.7678  0.7441  0.4402
  193MOL0     C25986   7.992   4.569   5.419  0.5278  0.6208  0.5359
  193MOL0     C25987   7.948   4.435   5.396  0.3498 -0.3842  0.6965
  193MOL0     H25988   7.889   4.080   5.075 -0.8289 -1.2684 -1.9951
  193MOL0     H25989   7.863   3.854   4.969 -0.3450 -1.2451  0.2900
  193MOL0     H25990   7.941   3.523   5.080  0.6200 -1.9495 -0.1887
  193MOL0     H25991   7.840   3.626   4.981  1.1123  1.9459  0.3603
  193MOL0     H25992   7.996   3.372   4.927  0.4403  0.6434 -0.1523
  193MOL0     H25993   7.834   3.408   4.893  0.8005 -0.2033 -2.3501
  193MOL0     H25994   7.933   3.583   4.710  1.8050  0.3641  0.4225
  193MOL0     H25995   8.071   3.464   4.721 -0.3638 -1.6536 -1.4045
  193MOL0     H25996   7.903   3.276   4.689 -1.2798 -0.5997 -0.6112
  193MOL0     H25997   7.792   3.401   4.620  1.6323  0.6782 -0.9229
  193MOL0     H25998   7.960   3.471   4.459 -1.5520 -1.2856 -4.1005
  193MOL0     H25999   8.080   3.359   4.532 -1.2185  1.9015  2.8845
  193MOL0     H26000   7.907   3.159   4.439  0.1047  0.0048  0.2849
  193MOL0     H26001   7.816   3.293   4.391 -0.1709 -1.1056  2.7211
  193MOL0     H26002   8.101   3.248   4.285 -0.4228 -0.2413  0.8664
  193MOL0     H26003   7.966   3.183   4.206  2.7297 -0.1530 -1.7397
  193MOL0     H26004   8.037   3.387   4.103  2.6002  0.9200  1.6550
  193MOL0     H26005   8.042   3.476   4.248 -0.5720  1.8192 -1.4338
  193MOL0     H26006   7.762   3.305   4.031  0.5628  1.1289 -0.5586
  193MOL0     H26007   7.461   3.547   4.005  2.0103  0.6131  2.0774
  193MOL0     H26008   7.543   3.441   3.903 -0.0129  1.1340  0.6609
  193MOL0     H26009   7.524   3.246   4.050 -0.0371 -0.0435  0.6502
  193MOL0     H26010   7.375   3.312   3.970 -0.3558  3.6973 -1.6898
  193MOL0     H26011   7.442   3.367   4.260  1.6733  0.5270 -1.4079
  193MOL0     H26012   7.350   3.219   4.205 -0.0585  0.5136  1.1459
  193MOL0     H26013   7.191   3.354   4.079 -2.3008  0.1934  2.0164
  193MOL0     H26014   7.259   3.495   4.150 -0.0842  1.5252  2.0661
  193MOL0     H26015   7.035   3.421   4.486  2.0907  1.0944 -1.2319
  193MOL0     H26016   6.733   3.596   4.525  0.7843  1.3517  1.1655
  193MOL0     H26017   6.730   3.431   4.586  0.8050 -0.9310  0.8813
  193MOL0     H26018   6.876   3.531   4.608  1.0562  0.2700 -2.1894
  193MOL0     H26019   6.467   3.561   3.936 -0.0524 -1.1511 -0.8247
  193MOL0     H26020   6.220   3.559   3.857 -0.2378 -0.2217  0.1511
  193MOL0     H26021   5.976   3.467   3.815  2.3859  0.6815  0.6756
  193MOL0     H26022   6.051   3.325   3.888 -3.3603 -0.9771 -4.7678
  193MOL0     H26023   5.850   3.322   4.056 -0.6609  3.8203  1.7324
  193MOL0     H26024   5.766   3.432   3.944 -1.0352 -0.1380  0.0908
  193MOL0     H26025   5.855   3.148   3.913  2.9285 -0.0298 -1.0564
  193MOL0     H26026   5.866   3.239   3.775  1.3512 -0.9350  0.8387
  193MOL0     H26027   5.608   3.205   3.943  2.2944  0.5027  1.2246
  193MOL0     H26028   5.621   3.301   3.791 -0.6799 -0.9030 -1.9720
  193MOL0     H26029   5.665   3.002   3.837  3.0938 -0.1001 -1.0474
  193MOL0     H26030   5.693   3.063   3.683 -0.6037 -2.7669 -0.1481
  193MOL0     H26031   5.440   3.061   3.844 -0.5460 -3.6896 -0.3601
  193MOL0     H26032   5.445   3.157   3.694  1.3782 -0.4998 -1.8997
  193MOL0     H26033   5.478   2.851   3.697 -2.2660 -1.2048  1.5271
  193MOL0     H26034   5.461   2.952   3.555  2.3637  0.5981  0.2226
  193MOL0     H26035   5.235   3.011   3.627 -1.0136 -0.2921 -0.6513
  193MOL0     H26036   5.252   2.925   3.782 -0.8054  1.6278 -0.3170
  193MOL0     H26037   6.109   3.454   4.253  1.5875 -1.4105  0.4895
  193MOL0     H26038   6.336   3.439   4.327 -0.4699 -2.4576 -0.2091
  193MOL0     H26039   6.743   3.353   4.092 -0.7024  2.9655 -0.3086
  193MOL0     H26040   7.000   3.332   4.065 -0.0035  2.0599 -0.3555
  193MOL0     H26041   8.249   3.727   5.130 -0.1128 -0.6815 -1.8581
  193MOL0     H26042   8.268   3.943   5.240  2.0900 -1.1021 -2.0235
  193MOL0     H26043   8.238   4.327   5.266 -0.9393 -2.0354  1.9263
  193MOL0     H26044   8.313   4.539   5.345  0.5437 -0.0330  1.3970
  193MOL0     H26045   8.290   4.780   5.321 -0.5887  1.6732 -1.2186
  193MOL0     H26046   8.231   4.916   5.400 -1.0075 -0.9633 -1.1067
  193MOL0     H26047   8.467   4.823   5.462 -0.1621 -0.8703 -4.2364
  193MOL0     H26048   8.379   4.674   5.522  1.7589  1.1881 -0.9141
  193MOL0     H26049   8.362   4.935   5.661  0.1821 -0.5871 -1.5216
  193MOL0     H26050   8.470   4.801   5.708  0.5556 -1.2812 -0.0331
  193MOL0     H26051   8.168   4.794   5.701  0.0021  1.7049 -0.1221
  193MOL0     H26052   8.249   4.829   5.852 -2.3447 -0.1679 -0.4658
  193MOL0     H26053   8.304   4.402   5.795  0.3018  0.8671 -0.2115
  193MOL0     H26054   7.924   4.637   5.470 -1.5700 -1.8107  1.1830
  193MOL0     H26055   7.845   4.402   5.405  0.0324 -1.1543 -3.5497
  194MOL0     O26056  10.348   4.557   1.760 -1.3776 -0.1455  0.5448
  194MOL0     C26057  10.377   4.660   1.702 -0.2806 -1.2637 -1.2788
  194MOL0     O26058  10.286   4.744   1.636 -0.4104 -0.2892  0.0949
  194MOL0     C26059  10.154   4.755   1.676 -0.3604 -0.3661 -0.9356
  194MOL0     C26060  10.058   4.789   1.581 -0.9603 -0.7005  0.1709
  194MOL0     C26061   9.926   4.830   1.617 -0.9805  0.8036  0.2517
  194MOL0     C26062   9.890   4.817   1.748 -0.3173  0.7750  0.2597
  194MOL0     O26063   9.765   4.849   1.776 -0.1687  0.1013 -0.5507
  194MOL0     C26064   9.699   4.832   1.913 -0.2303 -0.4772 -0.3664
  194MOL0     C26065   9.547   4.816   1.907 -0.1609 -0.3034  0.1050
  194MOL0     C26066   9.469   4.940   1.939  0.6015 -0.9095 -0.4216
  194MOL0     C26067   9.323   4.919   1.908  0.7910 -1.4484  0.9336
  194MOL0     C26068   9.240   5.051   1.917 -0.3701  0.0815 -0.1553
  194MOL0     C26069   9.088   5.032   1.914 -0.1213 -0.0051  0.5381
  194MOL0     C26070   9.012   5.151   1.959  0.3795  0.5929 -1.1101
  194MOL0     C26071   9.007   5.150   2.120  0.1054 -0.2161  0.7879
  194MOL0     N26072   9.018   5.291   2.164 -0.5403 -0.4069 -0.5474
  194MOL0     C26073   8.938   5.399   2.121  0.3772  0.8511  0.8028
  194MOL0     C26074   8.946   5.491   2.213  0.5893 -0.3709 -0.2369
  194MOL0     C26075   8.860   5.612   2.222  0.0218  0.7869  0.7461
  194MOL0     C26076   8.731   5.571   2.313 -0.3985  0.1143  0.2687
  194MOL0     C26077   8.661   5.706   2.325  0.6382  0.7692 -0.4462
  194MOL0     C26078   8.517   5.678   2.375  0.1004 -0.0330 -0.2650
  194MOL0     O26079   8.484   5.787   2.465  0.3989  0.8297  0.3704
  194MOL0     C26080   8.383   5.766   2.551 -0.4110 -0.0716 -0.2885
  194MOL0     C26081   8.392   5.835   2.670 -0.3419  0.4226 -0.5639
  194MOL0     C26082   8.298   5.831   2.774  0.3326 -0.6504  0.1732
  194MOL0     C26083   8.324   5.918   2.898 -0.3044  0.6128 -0.1091
  194MOL0     C26084   8.175   5.761   2.761 -0.0652  0.5395 -0.3386
  194MOL0     C26085   8.058   5.750   2.860 -0.3573 -0.2789 -0.2671
  194MOL0     O26086   7.942   5.682   2.816  0.3873  0.2583 -1.2288
  194MOL0     C26087   7.851   5.610   2.900 -0.8905  0.2692 -0.0809
  194MOL0     C26088   7.876   5.563   3.029 -0.9397 -0.1182  1.3204
  194MOL0     C26089   7.795   5.470   3.093  0.4253 -0.2184  0.0527
  194MOL0     C26090   7.675   5.427   3.041 -1.1080  0.5434  0.9935
  194MOL0     O26091   7.590   5.336   3.104  0.6424  0.0546 -0.2562
  194MOL0     C26092   7.633   5.221   3.160  1.0795  0.0927 -0.6005
  194MOL0     C26093   7.591   5.206   3.312  0.7195  0.4021  0.7287
  194MOL0     C26094   7.447   5.231   3.335 -0.1004 -0.8659 -0.9205
  194MOL0     C26095   7.392   5.210   3.483 -0.9213  0.5090  0.4225
  194MOL0     C26096   7.237   5.193   3.483  0.7686  0.4365  0.3486
  194MOL0     C26097   7.173   5.166   3.612 -0.7682 -0.4796 -0.7927
  194MOL0     C26098   7.023   5.154   3.608  0.1219  0.1516  0.9267
  194MOL0     C26099   6.953   5.116   3.740 -0.4980  0.0051 -0.9387
  194MOL0    Cl26100   6.942   4.939   3.751 -0.2703  0.4256 -0.1017
  194MOL0     C26101   7.634   5.492   2.919 -0.8262 -0.1977  0.1696
  194MOL0     C26102   7.726   5.579   2.849  0.2350  0.4760  0.5550
  194MOL0     O26103   8.075   5.797   2.974  0.1227 -0.1782  0.5503
  194MOL0     C26104   8.163   5.688   2.638  0.2642 -0.0042  0.5831
  194MOL0     C26105   8.264   5.685   2.538 -1.2850  0.1010  0.3975
  194MOL0     N26106   9.040   5.450   2.310 -0.1720  0.2446 -0.4128
  194MOL0     N26107   9.085   5.335   2.277  0.5293  0.4076  0.6849
  194MOL0     C26108   9.975   4.776   1.841 -0.3469 -0.2969 -0.7658
  194MOL0     C26109  10.107   4.755   1.806 -0.7136  0.2860  0.6711
  194MOL0     C26110  10.518   4.699   1.693 -0.4257 -0.3895  1.1026
  194MOL0     C26111  10.617   4.620   1.740  0.4077 -0.4755 -0.2704
  194MOL0     C26112  10.751   4.653   1.731  0.7639  0.2421  0.1872
  194MOL0     C26113  10.791   4.775   1.690 -0.2949 -0.4575  0.1169
  194MOL0     O26114  10.920   4.815   1.675  0.0144  0.6441  0.3440
  194MOL0     C26115  11.016   4.727   1.735  0.0446 -0.6443  0.0925
  194MOL0     C26116  11.147   4.801   1.759  0.8523  1.3201 -0.6998
  194MOL0     C26117  11.222   4.831   1.620  0.2748  0.9521  0.1706
  194MOL0     C26118  11.362   4.885   1.636  0.8151  0.0197  0.0765
  194MOL0     C26119  11.451   4.877   1.521  0.4304 -0.5411  0.1265
  194MOL0     C26120  11.526   4.853   1.430  0.6284  0.3210  0.1787
  194MOL0     C26121  10.691   4.863   1.649  0.1500 -0.6093  0.0945
  194MOL0     C26122  10.556   4.829   1.643  0.4821 -0.0201 -1.6951
  194MOL0     H26123  10.086   4.814   1.479 -0.9432  1.0578  0.5712
  194MOL0     H26124   9.866   4.860   1.533 -1.9418 -3.8085 -0.9686
  194MOL0     H26125   9.731   4.747   1.974  1.3952  1.9121  2.3926
  194MOL0     H26126   9.731   4.915   1.977 -1.1199 -0.2142 -0.2451
  194MOL0     H26127   9.517   4.782   1.807 -1.6082  3.6550 -0.9851
  194MOL0     H26128   9.509   4.740   1.977 -3.6952  1.1291 -0.0277
  194MOL0     H26129   9.464   4.959   2.047  0.7244  1.0700 -0.7297
  194MOL0     H26130   9.522   5.025   1.897  2.8221 -1.0051  1.9088
  194MOL0     H26131   9.303   4.873   1.811  1.9951 -0.2619  0.0873
  194MOL0     H26132   9.284   4.853   1.986  0.3243  2.7487  4.6292
  194MOL0     H26133   9.280   5.104   2.004 -1.2160  0.0041  0.2865
  194MOL0     H26134   9.268   5.120   1.837  1.6815 -1.4412 -0.8240
  194MOL0     H26135   9.069   5.011   1.808  0.4427  0.5885  0.3140
  194MOL0     H26136   9.071   4.940   1.971  0.6336 -0.9645 -0.7197
  194MOL0     H26137   9.064   5.240   1.924  3.2083  0.0039  1.2289
  194MOL0     H26138   8.915   5.151   1.907 -0.5942  1.0671  0.6174
  194MOL0     H26139   9.088   5.096   2.169 -3.2969 -3.3002  3.5177
  194MOL0     H26140   8.925   5.087   2.156  1.4650 -1.2526  2.1854
  194MOL0     H26141   8.868   5.397   2.037  0.3094 -2.0980  0.8284
  194MOL0     H26142   8.914   5.692   2.274  1.1797  0.0790  0.6657
  194MOL0     H26143   8.831   5.636   2.120  0.4880  0.5887  0.5648
  194MOL0     H26144   8.762   5.550   2.415  1.4502  2.8358  0.3858
  194MOL0     H26145   8.663   5.495   2.273 -0.3010  0.0687  0.1861
  194MOL0     H26146   8.663   5.750   2.225 -1.9226 -0.0975 -0.9511
  194MOL0     H26147   8.717   5.779   2.383  2.2190  0.0129 -0.9740
  194MOL0     H26148   8.517   5.582   2.428  0.6939 -0.9889 -1.9190
  194MOL0     H26149   8.443   5.692   2.297  0.4324 -0.2557 -0.6209
  194MOL0     H26150   8.480   5.892   2.697 -1.2620  0.5980  2.4897
  194MOL0     H26151   8.238   5.983   2.919  0.1894  0.2962  3.7556
  194MOL0     H26152   8.331   5.849   2.983  1.0644 -1.3213 -1.7099
  194MOL0     H26153   8.402   5.992   2.878  0.3551 -0.4201 -1.4928
  194MOL0     H26154   7.968   5.604   3.071  1.3703 -0.4762 -2.8118
  194MOL0     H26155   7.813   5.445   3.197  0.0027  1.0101  0.4407
  194MOL0     H26156   7.594   5.135   3.105  0.7594  0.1142 -0.4101
  194MOL0     H26157   7.739   5.218   3.133  1.8172  0.5455  1.9870
  194MOL0     H26158   7.631   5.113   3.353  1.4994 -0.7992 -2.4252
  194MOL0     H26159   7.638   5.288   3.367  3.0666 -1.9604  2.5067
  194MOL0     H26160   7.396   5.173   3.257 -1.4504  1.5837 -1.9973
  194MOL0     H26161   7.424   5.332   3.297 -1.1230 -1.0095 -0.7032
  194MOL0     H26162   7.425   5.116   3.529 -4.0323 -0.1160  1.6813
  194MOL0     H26163   7.432   5.294   3.541 -2.7466  0.9084  1.1766
  194MOL0     H26164   7.213   5.105   3.423  1.1738 -1.2565  2.5533
  194MOL0     H26165   7.186   5.275   3.430 -0.0313 -0.1477  0.1895
  194MOL0     H26166   7.219   5.071   3.639 -0.0895  0.2344  0.6979
  194MOL0     H26167   7.203   5.250   3.676 -0.1989 -1.2476 -0.0362
  194MOL0     H26168   6.981   5.086   3.533 -1.3643  1.4691  0.5072
  194MOL0     H26169   6.985   5.253   3.578  0.1557 -0.5209 -1.6256
  194MOL0     H26170   6.846   5.137   3.727 -0.8294 -0.8058  0.2577
  194MOL0     H26171   6.984   5.174   3.827 -2.3725  2.0973 -1.5575
  194MOL0     H26172   7.536   5.477   2.877 -0.1273 -1.8477 -0.9859
  194MOL0     H26173   7.706   5.620   2.750  0.4133  2.4905  1.3096
  194MOL0     H26174   8.076   5.626   2.620  0.5564 -0.0737 -0.6549
  194MOL0     H26175   8.259   5.625   2.448  3.1831 -1.3497  0.8586
  194MOL0     H26176   9.940   4.799   1.941 -3.6180  0.2774 -1.9102
  194MOL0     H26177  10.187   4.738   1.877 -1.5268  1.8618  2.0697
  194MOL0     H26178  10.603   4.523   1.787  2.3485 -0.4284  0.5380
  194MOL0     H26179  10.822   4.577   1.765  1.8246  1.7588  1.5322
  194MOL0     H26180  10.990   4.698   1.838 -0.9587 -2.5652 -0.6485
  194MOL0     H26181  11.025   4.634   1.678  1.4110  0.2146 -1.1476
  194MOL0     H26182  11.211   4.736   1.819 -3.7444 -3.4012 -0.2166
  194MOL0     H26183  11.137   4.897   1.810  0.1140  1.1949 -0.6078
  194MOL0     H26184  11.164   4.907   1.567  0.1406  1.8802  1.5688
  194MOL0     H26185  11.231   4.742   1.557  2.2936  1.4656 -0.3441
  194MOL0     H26186  11.416   4.833   1.716  0.3320 -2.1541 -0.9136
  194MOL0     H26187  11.345   4.992   1.645  2.1582  0.6671 -3.6897
  194MOL0     H26188  11.597   4.839   1.351  1.7279  1.0206  1.0125
  194MOL0     H26189  10.712   4.957   1.599 -3.0022 -0.6452 -1.5339
  194MOL0     H26190  10.487   4.905   1.608 -1.8522  0.2357  2.6692
  195MOL0     O26191   8.050   0.983   2.595 -0.2199 -0.5301  1.1890
  195MOL0     C26192   7.980   1.007   2.689 -0.1001 -0.4422 -0.1417
  195MOL0     O26193   8.018   0.989   2.826  0.2677  0.3614 -0.4436
  195MOL0     C26194   8.147   1.013   2.866  0.7704  1.1595  0.2580
  195MOL0     C26195   8.229   0.909   2.919  0.1350  0.0225 -1.2343
  195MOL0     C26196   8.365   0.938   2.963  0.5720 -0.7502 -0.2860
  195MOL0     C26197   8.414   1.069   2.943 -0.1347  0.0670  0.6751
  195MOL0     O26198   8.551   1.081   2.971 -0.2102  0.3418 -0.5108
  195MOL0     C26199   8.620   1.204   2.965 -0.6560 -0.3881 -0.5096
  195MOL0     C26200   8.747   1.181   3.051 -0.5811  0.5620  0.0612
  195MOL0     C26201   8.838   1.075   2.984 -0.0930 -0.4778 -0.0169
  195MOL0     C26202   8.922   1.140   2.873  0.5751 -0.4561  0.1502
  195MOL0     C26203   8.944   1.044   2.754  0.3541 -0.1375 -0.0735
  195MOL0     C26204   9.028   1.119   2.645  0.0605  0.3637 -0.7594
  195MOL0     C26205   9.025   1.059   2.508  0.4222  0.0540  0.1871
  195MOL0     C26206   9.131   0.952   2.499 -0.5270 -0.2861 -0.2423
  195MOL0     N26207   9.279   0.994   2.507  0.9927 -0.5867  0.4709
  195MOL0     C26208   9.380   0.950   2.422 -0.2247  0.6110  0.1525
  195MOL0     C26209   9.491   0.941   2.485  0.0920 -0.5588 -0.9382
  195MOL0     C26210   9.626   0.887   2.439  0.8495 -0.4746  0.0337
  195MOL0     C26211   9.690   1.001   2.355 -0.6000  0.4628  0.4402
  195MOL0     C26212   9.826   0.956   2.290 -0.2624  0.0572 -0.5711
  195MOL0     C26213   9.955   0.989   2.366 -0.8649  0.4489 -0.3205
  195MOL0     O26214   9.946   1.121   2.414  0.7563 -0.0519  0.2777
  195MOL0     C26215  10.064   1.191   2.424  0.3895 -0.3533 -0.3361
  195MOL0     C26216  10.045   1.328   2.430 -0.2478  0.8241 -0.5599
  195MOL0     C26217  10.153   1.415   2.419  0.1947 -0.0306 -0.1853
  195MOL0     C26218  10.136   1.565   2.430 -0.7142  0.0962  0.2798
  195MOL0     C26219  10.287   1.358   2.431 -0.2385 -0.5236 -0.5441
  195MOL0     C26220  10.405   1.438   2.454 -0.0743 -0.1591 -0.1882
  195MOL0     O26221  10.471   1.408   2.569  0.1035 -0.5416 -0.2398
  195MOL0     C26222  10.601   1.444   2.575 -0.0807 -0.4856 -0.6126
  195MOL0     C26223  10.622   1.563   2.639  0.2382 -0.0842 -0.2807
  195MOL0     C26224  10.746   1.610   2.669  0.6702  0.1271 -1.0555
  195MOL0     C26225  10.858   1.537   2.619 -0.6405 -0.4341 -0.0585
  195MOL0     O26226  10.990   1.570   2.639 -0.2036 -0.0490 -0.0860
  195MOL0     C26227  11.033   1.687   2.707  0.7975 -0.7165 -0.2037
  195MOL0     C26228  11.182   1.660   2.713  0.8043  0.5603 -0.2988
  195MOL0     C26229  11.252   1.752   2.817 -0.5290  0.2303 -0.2553
  195MOL0     C26230  11.387   1.798   2.766 -0.8269 -0.1302  1.0896
  195MOL0     C26231  11.397   1.918   2.662  0.5995  1.0094  0.0771
  195MOL0     C26232  11.551   1.956   2.644 -1.0069 -0.7840  0.4288
  195MOL0     C26233  11.588   2.038   2.517 -0.7876  0.2911  0.0801
  195MOL0     C26234  11.620   1.945   2.392  1.1344  0.4825 -0.3027
  195MOL0    Cl26235  11.662   2.049   2.246  0.0660 -0.3596  0.4427
  195MOL0     C26236  10.837   1.415   2.558 -0.1872  0.2698  0.4856
  195MOL0     C26237  10.712   1.365   2.537 -1.4492 -0.3779  0.1483
  195MOL0     O26238  10.441   1.515   2.366 -0.2094 -0.5412  0.0443
  195MOL0     C26239  10.297   1.217   2.439 -0.5442 -0.6890  0.5780
  195MOL0     C26240  10.187   1.127   2.426 -0.5106  0.1113  0.1530
  195MOL0     N26241   9.462   0.986   2.612 -0.5214 -0.8894 -0.5508
  195MOL0     N26242   9.339   1.024   2.628  0.2631  0.4316  0.8085
  195MOL0     C26243   8.335   1.162   2.877 -0.2456  0.5860 -0.0560
  195MOL0     C26244   8.198   1.140   2.846 -0.6049 -0.6106 -0.0346
  195MOL0     C26245   7.843   1.042   2.657  0.5720 -0.0443 -0.6412
  195MOL0     C26246   7.739   1.073   2.756  0.4248  0.3325 -0.3432
  195MOL0     C26247   7.610   1.079   2.711 -0.3235  0.4097 -0.5284
  195MOL0     C26248   7.580   1.070   2.577  0.0099 -0.8121  0.4972
  195MOL0     O26249   7.457   1.063   2.517  0.3951 -0.2782 -0.3709
  195MOL0     C26250   7.343   1.080   2.587  1.0019  0.5931 -0.4709
  195MOL0     C26251   7.319   1.209   2.660 -0.1334 -0.1737 -0.0843
  195MOL0     C26252   7.180   1.191   2.731 -0.1675 -0.7001  0.5393
  195MOL0     C26253   7.123   1.319   2.780 -0.5380 -0.4197  0.1986
  195MOL0     C26254   6.994   1.314   2.864 -0.2356  1.0805  0.6099
  195MOL0     C26255   6.887   1.331   2.921 -0.7021 -0.2313 -0.4373
  195MOL0     C26256   7.679   1.072   2.484 -0.0612 -0.6569 -0.0629
  195MOL0     C26257   7.808   1.048   2.519 -0.7780 -0.5213 -0.8349
  195MOL0     H26258   8.201   0.805   2.932  2.9088 -0.6912 -0.2707
  195MOL0     H26259   8.421   0.863   3.018  0.1977  1.1468  2.9389
  195MOL0     H26260   8.642   1.225   2.860  0.3108  0.6838 -0.1048
  195MOL0     H26261   8.576   1.292   3.013  1.2893 -0.0574  0.8060
  195MOL0     H26262   8.796   1.278   3.063 -1.9086  0.9279  3.5104
  195MOL0     H26263   8.717   1.146   3.150  0.5131 -1.2040 -0.1789
  195MOL0     H26264   8.902   1.031   3.061  1.8175  1.6176 -0.2794
  195MOL0     H26265   8.776   0.994   2.946 -2.5308  0.2620  2.1151
  195MOL0     H26266   8.871   1.234   2.847  1.2402  0.2151  1.1912
  195MOL0     H26267   9.024   1.156   2.908  2.4334  0.0375 -4.7357
  195MOL0     H26268   8.995   0.953   2.786 -3.0340 -2.7615 -1.6384
  195MOL0     H26269   8.849   1.008   2.715  0.7726 -1.7978  0.3802
  195MOL0     H26270   8.993   1.221   2.629  2.3640  1.7241  2.0124
  195MOL0     H26271   9.131   1.125   2.681 -0.4685 -0.9877  1.1196
  195MOL0     H26272   8.922   1.027   2.491  0.2903 -0.0770  1.1566
  195MOL0     H26273   9.043   1.146   2.444 -3.8480  2.7153  2.1264
  195MOL0     H26274   9.103   0.894   2.410 -1.3960  0.5515 -0.5262
  195MOL0     H26275   9.118   0.875   2.575 -2.1379 -1.6378 -1.8142
  195MOL0     H26276   9.360   0.912   2.323 -2.6798  0.2769  0.6958
  195MOL0     H26277   9.689   0.866   2.526  1.3412 -1.2506 -0.4912
  195MOL0     H26278   9.603   0.801   2.375  0.9725  1.2792 -2.5317
  195MOL0     H26279   9.700   1.098   2.404 -2.5857  0.3289  1.2036
  195MOL0     H26280   9.622   1.034   2.275 -1.9662 -1.5153  0.7196
  195MOL0     H26281   9.828   1.016   2.199  0.2677 -0.6900 -1.0572
  195MOL0     H26282   9.831   0.847   2.281  0.3184  0.1479 -1.4641
  195MOL0     H26283  10.035   0.983   2.291 -0.4643  1.2660  0.0350
  195MOL0     H26284   9.984   0.920   2.445  0.0914  2.2875  1.0023
  195MOL0     H26285   9.940   1.355   2.433 -0.8657 -1.2927 -1.4862
  195MOL0     H26286  10.040   1.607   2.399 -0.8151  1.4094  2.1826
  195MOL0     H26287  10.155   1.602   2.531 -1.8257  1.4956  0.0061
  195MOL0     H26288  10.203   1.605   2.353 -0.9434 -0.4569 -0.2049
  195MOL0     H26289  10.536   1.619   2.672  0.2497 -0.8034  1.0324
  195MOL0     H26290  10.763   1.703   2.724 -3.4758  1.4157 -1.6306
  195MOL0     H26291  11.015   1.781   2.654 -1.5294 -0.8702  0.1918
  195MOL0     H26292  10.996   1.685   2.809 -1.0533  1.1158 -0.7610
  195MOL0     H26293  11.194   1.554   2.740  2.1902 -0.1301 -3.2770
  195MOL0     H26294  11.244   1.666   2.624  3.4628 -3.0179  1.0551
  195MOL0     H26295  11.264   1.695   2.909 -1.2776 -0.2837 -0.4660
  195MOL0     H26296  11.188   1.837   2.839  0.6344  0.7147  1.4622
  195MOL0     H26297  11.431   1.846   2.854  0.8683 -2.2871  1.5173
  195MOL0     H26298  11.449   1.715   2.730  1.5574  1.6890  0.7496
  195MOL0     H26299  11.340   2.004   2.699  0.0956  0.3686  0.8332
  195MOL0     H26300  11.362   1.882   2.565  4.7355  0.6780 -1.4909
  195MOL0     H26301  11.581   2.016   2.730  2.1090  0.3663 -1.3079
  195MOL0     H26302  11.612   1.866   2.652  1.8052  0.9934  0.4389
  195MOL0     H26303  11.684   2.084   2.542  0.1782 -1.7215  0.2369
  195MOL0     H26304  11.509   2.112   2.504 -0.1368  0.8432 -0.8957
  195MOL0     H26305  11.525   1.892   2.381  1.8627 -1.3901  1.7040
  195MOL0     H26306  11.695   1.870   2.417  1.7045  0.7606 -1.1560
  195MOL0     H26307  10.925   1.359   2.526 -0.6860 -0.7208  0.8064
  195MOL0     H26308  10.694   1.271   2.486  0.2079 -0.2499 -0.7441
  195MOL0     H26309  10.398   1.179   2.455  1.2488  3.2331 -0.1288
  195MOL0     H26310  10.198   1.020   2.421 -1.5577  0.0475 -2.5561
  195MOL0     H26311   8.370   1.262   2.855  0.6016  0.4492  0.6328
  195MOL0     H26312   8.136   1.221   2.807 -2.4073 -0.9341  1.9619
  195MOL0     H26313   7.767   1.079   2.861 -0.7632 -0.8952  0.0675
  195MOL0     H26314   7.537   1.087   2.790  2.3336 -0.3035  2.2098
  195MOL0     H26315   7.256   1.071   2.522  0.4621 -0.6298  0.3894
  195MOL0     H26316   7.336   0.992   2.651  1.1613  0.7326 -0.2582
  195MOL0     H26317   7.327   1.297   2.595  0.9879  0.0883  0.3679
  195MOL0     H26318   7.398   1.233   2.732 -1.1789 -1.0566  1.4059
  195MOL0     H26319   7.183   1.111   2.805  0.0026 -0.6562  0.5794
  195MOL0     H26320   7.107   1.169   2.653  0.2863  1.1355 -0.4697
  195MOL0     H26321   7.105   1.389   2.698  3.2566  0.5220 -0.0190
  195MOL0     H26322   7.200   1.366   2.841  0.4385 -1.2188 -0.3780
  195MOL0     H26323   6.795   1.347   2.974  0.9002 -1.0495  2.8371
  195MOL0     H26324   7.656   1.071   2.378 -3.4322  0.5360  0.5051
  195MOL0     H26325   7.877   1.023   2.440 -0.0438 -3.1337  0.5098
  196MOL0     O26326   0.166  10.002   3.639 -0.1762  0.6681 -0.4925
  196MOL0     C26327   0.201   9.960   3.530 -0.4539  0.1012  0.1182
  196MOL0     O26328   0.186  10.019   3.406 -0.1852 -0.4816 -0.3744
  196MOL0     C26329   0.119  10.138   3.408  1.0870 -0.5417 -0.2110
  196MOL0     C26330   0.000  10.159   3.475 -0.7533 -0.5387 -0.1823
  196MOL0     C26331  -0.081  10.262   3.447 -0.3263 -0.3223  0.1494
  196MOL0     C26332  -0.044  10.360   3.363 -0.4375 -1.2818 -0.0831
  196MOL0     O26333  -0.104  10.483   3.369 -0.2629  0.5139  0.1266
  196MOL0     C26334  -0.202  10.497   3.263  0.0273  0.0976 -0.0099
  196MOL0     C26335  -0.345  10.464   3.307  0.2577  0.0232  0.4468
  196MOL0     C26336  -0.419  10.415   3.190 -0.4246 -1.1216  0.1489
  196MOL0     C26337  -0.571  10.413   3.232  0.2903  0.6289 -0.5331
  196MOL0     C26338  -0.664  10.358   3.117  0.7740 -0.0877 -0.1100
  196MOL0     C26339  -0.798  10.314   3.174 -0.4429  0.4019 -0.1659
  196MOL0     C26340  -0.889  10.256   3.066 -1.1012 -0.5612 -0.4893
  196MOL0     C26341  -0.843  10.116   3.021 -0.1516 -0.0649  0.4739
  196MOL0     N26342  -0.873  10.018   3.133  0.0478  0.7760 -0.0968
  196MOL0     C26343  -0.789   9.978   3.239  1.1182  0.6029  0.4712
  196MOL0     C26344  -0.854   9.877   3.291  0.9441  0.6411 -0.2792
  196MOL0     C26345  -0.803   9.801   3.411 -0.3268  0.1423 -0.2663
  196MOL0     C26346  -0.667   9.745   3.405  0.6526  0.9449 -0.3940
  196MOL0     C26347  -0.668   9.624   3.307  0.4228  0.5076 -0.1659
  196MOL0     C26348  -0.742   9.497   3.363  0.0597 -0.5576 -0.3615
  196MOL0     O26349  -0.678   9.437   3.478 -0.1138  0.2049  0.6670
  196MOL0     C26350  -0.598   9.335   3.445 -0.8434 -0.3576 -0.3151
  196MOL0     C26351  -0.462   9.357   3.486  0.5858  1.8343 -0.3736
  196MOL0     C26352  -0.360   9.262   3.453  0.2478  0.8661  0.1005
  196MOL0     C26353  -0.219   9.293   3.503  0.2494  0.0265 -0.1190
  196MOL0     C26354  -0.397   9.149   3.373 -1.3174 -0.8420  0.0922
  196MOL0     C26355  -0.286   9.062   3.323  0.2614  0.5521 -0.0243
  196MOL0     O26356  -0.276   8.934   3.376 -0.0697 -0.5885 -0.2804
  196MOL0     C26357  -0.154   8.873   3.387 -0.1584  0.7726 -0.5738
  196MOL0     C26358  -0.066   8.854   3.280  0.7590 -0.0302  0.1619
  196MOL0     C26359   0.043   8.760   3.288  0.9050 -0.2064 -0.6908
  196MOL0     C26360   0.075   8.708   3.409  0.5194  0.4161 -1.2530
  196MOL0     O26361   0.187   8.626   3.421  0.1042 -0.0917  0.1861
  196MOL0     C26362   0.209   8.539   3.539  0.7600  0.1100 -0.9704
  196MOL0     C26363   0.351   8.492   3.518  0.4613  0.2291 -1.0499
  196MOL0     C26364   0.411   8.439   3.650 -0.0119 -0.4494  0.5214
  196MOL0     C26365   0.512   8.322   3.631 -0.1267 -1.5262  0.6812
  196MOL0     C26366   0.569   8.261   3.755  0.7840  1.0940  0.0827
  196MOL0     C26367   0.627   8.122   3.716 -0.7849 -0.3125 -0.5268
  196MOL0     C26368   0.716   8.060   3.832  0.9116  0.0278  0.5840
  196MOL0     C26369   0.729   7.909   3.826  0.3916  0.1382 -0.4430
  196MOL0    Cl26370   0.566   7.825   3.843 -0.0176  0.1179 -0.1162
  196MOL0     C26371  -0.025   8.726   3.515 -0.8883  0.9732  0.3936
  196MOL0     C26372  -0.131   8.804   3.500  0.5689 -0.3464  0.1410
  196MOL0     O26373  -0.207   9.103   3.240  0.2895 -0.7067  0.3277
  196MOL0     C26374  -0.536   9.125   3.353 -0.1694 -0.3586 -0.6606
  196MOL0     C26375  -0.638   9.222   3.375  0.1941  0.3022  0.2575
  196MOL0     N26376  -0.967   9.841   3.226 -0.0531 -0.2813  0.4962
  196MOL0     N26377  -0.987   9.927   3.137 -0.7082  0.6223 -0.3694
  196MOL0     C26378   0.077  10.345   3.292 -0.4336 -0.9160 -0.1966
  196MOL0     C26379   0.158  10.237   3.315  0.7941  0.0209 -0.3043
  196MOL0     C26380   0.273   9.830   3.534 -0.1678  1.2837  0.4320
  196MOL0     C26381   0.286   9.759   3.657 -0.9572 -0.0373  0.1844
  196MOL0     C26382   0.354   9.638   3.667  0.0462 -0.9531 -0.5269
  196MOL0     C26383   0.411   9.579   3.551  0.1388 -0.0312 -0.8692
  196MOL0     O26384   0.491   9.457   3.557  0.2726 -0.3493 -0.4460
  196MOL0     C26385   0.580   9.407   3.449  0.9487  0.2211 -0.8135
  196MOL0     C26386   0.690   9.307   3.487 -0.1927 -0.5053 -0.1577
  196MOL0     C26387   0.763   9.245   3.374 -0.2151  1.0046 -0.0914
  196MOL0     C26388   0.863   9.126   3.410  0.2301  0.5043  0.0537
  196MOL0     C26389   0.794   8.991   3.424  0.7836 -0.4268 -0.2961
  196MOL0     C26390   0.760   8.885   3.465 -0.4769  0.0776  0.4521
  196MOL0     C26391   0.378   9.639   3.431 -0.6517 -0.8810  0.1147
  196MOL0     C26392   0.307   9.758   3.417  0.4949  0.5614  0.7267
  196MOL0     H26393  -0.036  10.085   3.546  1.2414 -1.5810 -0.1900
  196MOL0     H26394  -0.161  10.286   3.516  0.2214  2.0708  0.0273
  196MOL0     H26395  -0.195  10.602   3.234 -0.4237  0.4004  0.9560
  196MOL0     H26396  -0.165  10.440   3.177  2.3367  3.0603 -1.1810
  196MOL0     H26397  -0.339  10.392   3.389 -0.9047 -1.5672 -0.8165
  196MOL0     H26398  -0.385  10.556   3.350  1.5417  0.1204  1.5153
  196MOL0     H26399  -0.404  10.486   3.108  2.9850  0.3647  1.8893
  196MOL0     H26400  -0.395  10.311   3.168  1.8271 -0.9863  1.7259
  196MOL0     H26401  -0.583  10.358   3.326  2.8584  1.2614  0.2521
  196MOL0     H26402  -0.610  10.510   3.263 -0.9887 -0.5560  1.8336
  196MOL0     H26403  -0.668  10.439   3.044 -0.4320 -1.0913 -1.2034
  196MOL0     H26404  -0.630  10.263   3.073 -2.2479 -3.0292  3.1964
  196MOL0     H26405  -0.784  10.247   3.260  0.2677 -2.0926 -2.1073
  196MOL0     H26406  -0.852  10.398   3.219 -0.6643 -0.9715  2.2726
  196MOL0     H26407  -0.990  10.255   3.109 -0.4398 -0.3376  1.1639
  196MOL0     H26408  -0.897  10.324   2.980 -4.3702  2.0191  1.5914
  196MOL0     H26409  -0.739  10.106   2.989 -0.3851 -1.2110  0.0253
  196MOL0     H26410  -0.913  10.105   2.938 -1.9541  0.0824  1.9071
  196MOL0     H26411  -0.702  10.034   3.271  0.8112  0.7653  1.0272
  196MOL0     H26412  -0.798   9.873   3.494 -1.3251 -0.1150  0.0299
  196MOL0     H26413  -0.878   9.728   3.443 -1.0766  0.9254 -0.1850
  196MOL0     H26414  -0.638   9.697   3.499  0.9434  1.3803 -0.2619
  196MOL0     H26415  -0.594   9.823   3.381 -0.3307  3.0702  2.9160
  196MOL0     H26416  -0.573   9.588   3.267  0.8396  0.8216  0.5265
  196MOL0     H26417  -0.719   9.654   3.214 -0.2566  1.6668  0.5540
  196MOL0     H26418  -0.750   9.438   3.272  2.9378 -2.2440  0.3516
  196MOL0     H26419  -0.843   9.532   3.385  0.4452  0.8635 -0.7156
  196MOL0     H26420  -0.450   9.451   3.539 -2.0699  4.3160 -3.7493
  196MOL0     H26421  -0.162   9.338   3.421 -2.4682  2.4639 -0.8299
  196MOL0     H26422  -0.222   9.378   3.572  1.6069  0.9617 -1.1574
  196MOL0     H26423  -0.178   9.209   3.559  0.6253  0.9555  1.0509
  196MOL0     H26424  -0.074   8.911   3.188  2.7534  3.4200  1.9124
  196MOL0     H26425   0.104   8.748   3.199  1.0906  0.0480 -0.6019
  196MOL0     H26426   0.201   8.593   3.634 -0.5298  0.4049 -1.2304
  196MOL0     H26427   0.131   8.463   3.533  1.3505 -0.6402  0.3782
  196MOL0     H26428   0.347   8.414   3.441  2.0481  1.1088 -2.1001
  196MOL0     H26429   0.414   8.568   3.471  1.8965  1.0429  1.9820
  196MOL0     H26430   0.324   8.405   3.708 -2.0918  1.0774 -1.5594
  196MOL0     H26431   0.460   8.513   3.714  0.0320 -2.2554  2.7367
  196MOL0     H26432   0.458   8.259   3.561 -0.1915  0.4407 -1.1410
  196MOL0     H26433   0.589   8.367   3.567 -2.6544  2.8442  0.3380
  196MOL0     H26434   0.478   8.253   3.815 -0.9241  1.5954 -2.3268
  196MOL0     H26435   0.652   8.312   3.806  1.9394 -1.3474  0.8345
  196MOL0     H26436   0.534   8.065   3.701 -2.4892  2.0171  0.5522
  196MOL0     H26437   0.683   8.134   3.623 -0.3457 -1.1180 -0.3724
  196MOL0     H26438   0.653   8.076   3.920  1.6631 -1.7334  1.4841
  196MOL0     H26439   0.807   8.113   3.860  1.2627 -0.2219 -0.0730
  196MOL0     H26440   0.799   7.871   3.902  0.5578  1.9390  0.3504
  196MOL0     H26441   0.767   7.896   3.724 -1.3596 -0.1963 -1.0825
  196MOL0     H26442  -0.005   8.670   3.606 -1.5652 -2.4065 -1.3451
  196MOL0     H26443  -0.206   8.796   3.578  3.4215  0.6446  3.2611
  196MOL0     H26444  -0.566   9.027   3.319  0.3854 -0.9680  0.5206
  196MOL0     H26445  -0.743   9.200   3.357  0.7448 -3.6714  1.0079
  196MOL0     H26446   0.106  10.429   3.230  0.5254  1.5000  3.2298
  196MOL0     H26447   0.255  10.224   3.267  1.9960 -1.7297  2.3706
  196MOL0     H26448   0.249   9.804   3.748 -0.0330 -0.0887  0.5935
  196MOL0     H26449   0.367   9.587   3.762  0.2498 -0.5793 -0.3511
  196MOL0     H26450   0.513   9.375   3.369 -1.2347 -2.9869  1.9981
  196MOL0     H26451   0.623   9.495   3.400  1.7605  0.8828  0.9779
  196MOL0     H26452   0.653   9.227   3.551 -1.0293 -1.1714 -1.4504
  196MOL0     H26453   0.761   9.358   3.553  0.0919 -0.9124 -0.1443
  196MOL0     H26454   0.831   9.319   3.331  1.7175  0.2694  1.5239
  196MOL0     H26455   0.691   9.210   3.299  1.0279 -2.5529  0.1785
  196MOL0     H26456   0.908   9.149   3.508 -2.0998  1.0898  1.0535
  196MOL0     H26457   0.949   9.125   3.342  0.0916 -1.4867 -0.1381
  196MOL0     H26458   0.742   8.780   3.476  2.6371 -0.7786 -1.5623
  196MOL0     H26459   0.425   9.605   3.339 -1.4765  1.6528 -1.3302
  196MOL0     H26460   0.293   9.812   3.323 -0.3543 -0.8304  0.0223
  197MOL0     O26461   5.726   3.523   7.619  0.4132  1.0299 -0.7112
  197MOL0     C26462   5.741   3.434   7.701  0.2531  0.4576 -0.2195
  197MOL0     O26463   5.648   3.390   7.792 -0.0644  0.3100  0.3588
  197MOL0     C26464   5.519   3.433   7.778  0.1340 -0.4809 -0.2486
  197MOL0     C26465   5.489   3.554   7.838 -0.0440 -0.1791  0.0105
  197MOL0     C26466   5.363   3.610   7.832  0.5925  0.3408 -1.1169
  197MOL0     C26467   5.269   3.550   7.749 -0.3379 -0.1607  0.5287
  197MOL0     O26468   5.157   3.605   7.696  0.3754  0.5572 -0.5343
  197MOL0     C26469   5.128   3.749   7.715  0.0268 -0.0335 -0.1334
  197MOL0     C26470   4.989   3.778   7.683 -0.1220 -0.5594 -0.1027
  197MOL0     C26471   4.897   3.717   7.799 -0.2838 -0.4503 -0.3148
  197MOL0     C26472   4.751   3.733   7.756 -0.8019 -0.0310 -0.1073
  197MOL0     C26473   4.702   3.882   7.767  0.1720  0.2474  0.2651
  197MOL0     C26474   4.554   3.900   7.799  0.3646  0.0575  0.1427
  197MOL0     C26475   4.508   4.041   7.773  0.0236  0.5734  0.2872
  197MOL0     C26476   4.376   4.077   7.831 -0.7523 -0.3142  0.0425
  197MOL0     N26477   4.339   4.215   7.827  0.4719  0.6379 -0.4965
  197MOL0     C26478   4.217   4.265   7.880 -0.4264  0.0460 -0.4558
  197MOL0     C26479   4.236   4.405   7.871 -0.2923 -0.2102 -0.1256
  197MOL0     C26480   4.140   4.522   7.914 -0.1567 -0.7025 -0.0714
  197MOL0     C26481   4.208   4.647   7.961 -0.2325  0.3535 -0.3333
  197MOL0     C26482   4.244   4.649   8.112 -0.8427  0.4889  0.2342
  197MOL0     C26483   4.382   4.590   8.144 -0.5217 -0.2136 -0.4697
  197MOL0     O26484   4.390   4.571   8.284 -0.1793  0.4005 -0.1499
  197MOL0     C26485   4.467   4.469   8.334 -0.0982  0.4878 -0.6245
  197MOL0     C26486   4.445   4.423   8.460 -0.6009 -0.9527 -0.3001
  197MOL0     C26487   4.513   4.320   8.522 -0.2993  0.4571 -0.4599
  197MOL0     C26488   4.459   4.269   8.652  0.8853  0.2470  0.7055
  197MOL0     C26489   4.629   4.277   8.460 -0.7054 -0.0179 -0.3538
  197MOL0     C26490   4.714   4.169   8.516 -0.2355  0.1539  0.7156
  197MOL0     O26491   4.652   4.060   8.570 -0.5440 -0.1578  0.3672
  197MOL0     C26492   4.719   3.962   8.640 -0.8692 -0.0439 -0.6491
  197MOL0     C26493   4.839   3.970   8.710  0.1798 -0.6041 -0.2139
  197MOL0     C26494   4.877   3.860   8.785 -0.7788 -0.4571  0.0817
  197MOL0     C26495   4.796   3.749   8.799 -0.0649 -0.5889  0.0918
  197MOL0     O26496   4.829   3.638   8.867 -0.4122  0.1578 -0.6820
  197MOL0     C26497   4.931   3.646   8.976  0.3174 -0.1027 -0.1415
  197MOL0     C26498   4.954   3.502   9.011 -0.0247 -0.9556 -0.3845
  197MOL0     C26499   4.991   3.484   9.157  0.0843  0.1053 -0.0954
  197MOL0     C26500   5.003   3.329   9.167  0.0695  0.0480 -0.7433
  197MOL0     C26501   5.093   3.251   9.070 -0.6017 -0.3235  0.2486
  197MOL0     C26502   5.108   3.100   9.106 -0.7489  0.2137 -0.3814
  197MOL0     C26503   5.197   3.026   9.006 -0.5841 -0.3456  0.5265
  197MOL0     C26504   5.142   3.014   8.864  0.0451  0.9561  0.5229
  197MOL0    Cl26505   5.223   2.902   8.759  0.3667 -0.3066 -0.4836
  197MOL0     C26506   4.678   3.747   8.722  1.0086  0.6783 -0.5110
  197MOL0     C26507   4.631   3.853   8.644 -0.2321  0.1522 -0.5061
  197MOL0     O26508   4.837   4.181   8.497  0.4155  0.1216  0.0224
  197MOL0     C26509   4.669   4.334   8.334  0.1731 -0.4718 -0.0997
  197MOL0     C26510   4.582   4.425   8.269  0.3703 -0.3804 -0.4494
  197MOL0     N26511   4.353   4.438   7.803  0.9813  0.6185  0.5103
  197MOL0     N26512   4.407   4.327   7.775 -0.4301  1.3774 -0.0685
  197MOL0     C26513   5.304   3.424   7.697  0.4492 -0.8913 -0.2041
  197MOL0     C26514   5.427   3.370   7.705 -0.0865 -0.0381 -0.5050
  197MOL0     C26515   5.875   3.368   7.710  0.3538 -0.2577 -0.6245
  197MOL0     C26516   5.989   3.439   7.678  0.1516 -0.6527 -0.2389
  197MOL0     C26517   6.119   3.379   7.693 -0.6922 -0.3290  0.3162
  197MOL0     C26518   6.130   3.244   7.721 -0.2447 -0.0328  0.2923
  197MOL0     O26519   6.239   3.166   7.731 -0.4845  0.2253 -0.5129
  197MOL0     C26520   6.368   3.229   7.710  0.4630  0.3976  0.4424
  197MOL0     C26521   6.467   3.116   7.725 -0.0196  0.1849  0.9931
  197MOL0     C26522   6.526   3.089   7.592  0.4174 -0.1441 -0.2808
  197MOL0     C26523   6.659   3.013   7.593  1.3202  0.1844 -0.9438
  197MOL0     C26524   6.639   2.883   7.667  0.9252 -0.4890 -0.0647
  197MOL0     C26525   6.620   2.784   7.729 -0.9892  0.0642  0.7252
  197MOL0     C26526   6.012   3.170   7.737 -0.2768  1.0573  0.0401
  197MOL0     C26527   5.886   3.233   7.738 -0.1451  0.3520 -0.4053
  197MOL0     H26528   5.573   3.596   7.893  0.0534 -2.3067  1.5992
  197MOL0     H26529   5.333   3.692   7.897  1.2894 -2.3102  2.9276
  197MOL0     H26530   5.147   3.777   7.819 -3.4230 -1.5307  1.0392
  197MOL0     H26531   5.192   3.808   7.649 -0.2963 -0.8631 -1.2267
  197MOL0     H26532   4.986   3.887   7.690  4.4875 -0.3009  1.0534
  197MOL0     H26533   4.946   3.747   7.587 -0.4378 -1.2403  0.2484
  197MOL0     H26534   4.917   3.611   7.818  2.0438  0.1426  0.8908
  197MOL0     H26535   4.922   3.774   7.888  0.4415  3.7219 -2.9222
  197MOL0     H26536   4.747   3.693   7.654  1.6272 -1.1015  0.1502
  197MOL0     H26537   4.685   3.672   7.818  0.4948 -0.4913  0.8563
  197MOL0     H26538   4.764   3.927   7.844  1.3499 -1.5651  0.4494
  197MOL0     H26539   4.732   3.939   7.679  1.7577  3.3932  2.6645
  197MOL0     H26540   4.490   3.838   7.736  0.2499 -0.1702  0.4807
  197MOL0     H26541   4.542   3.873   7.904  1.3665  2.4021  0.9380
  197MOL0     H26542   4.574   4.113   7.822  1.4239  0.3457 -1.1926
  197MOL0     H26543   4.507   4.059   7.665 -0.4197  0.1156  0.2076
  197MOL0     H26544   4.373   4.060   7.939 -0.6038 -5.1289 -0.4969
  197MOL0     H26545   4.301   4.006   7.796 -1.2666 -0.8039  1.9883
  197MOL0     H26546   4.134   4.217   7.932 -0.4905 -0.6977 -1.2167
  197MOL0     H26547   4.062   4.543   7.840 -0.2642 -1.6598 -0.2435
  197MOL0     H26548   4.084   4.486   8.000  0.7373 -1.4965  0.1944
  197MOL0     H26549   4.139   4.732   7.956 -0.5914  0.2325  1.7141
  197MOL0     H26550   4.295   4.687   7.909 -0.7461  0.7905 -0.8829
  197MOL0     H26551   4.164   4.604   8.170  0.8171 -0.4679  1.9051
  197MOL0     H26552   4.254   4.755   8.138 -0.2697  0.9641 -1.7428
  197MOL0     H26553   4.454   4.664   8.108  0.7097 -1.0393  0.2010
  197MOL0     H26554   4.388   4.490   8.098  1.0453 -0.2985 -0.1482
  197MOL0     H26555   4.375   4.478   8.522 -0.8162 -1.2548 -0.2722
  197MOL0     H26556   4.381   4.337   8.688  1.0158  2.7780 -3.1572
  197MOL0     H26557   4.412   4.171   8.638 -1.7262  1.3803  0.8439
  197MOL0     H26558   4.532   4.261   8.732  1.5177 -1.0833  0.0261
  197MOL0     H26559   4.900   4.059   8.725 -0.5754 -0.2127  0.6689
  197MOL0     H26560   4.969   3.864   8.842 -0.1010 -0.2758 -0.9996
  197MOL0     H26561   5.023   3.689   8.937  1.0668 -0.2277  1.4178
  197MOL0     H26562   4.896   3.713   9.055  2.9643  1.5203 -0.2238
  197MOL0     H26563   4.856   3.456   8.993 -0.2409  0.3792 -3.2280
  197MOL0     H26564   5.035   3.469   8.945  2.9591 -0.3909  2.7140
  197MOL0     H26565   4.916   3.535   9.219  1.2731  0.7444  0.8763
  197MOL0     H26566   5.093   3.519   9.177 -0.0297  0.2442  0.2581
  197MOL0     H26567   5.031   3.307   9.271  0.5242  1.6545 -0.4905
  197MOL0     H26568   4.903   3.287   9.158  0.1349 -0.2979  0.0718
  197MOL0     H26569   5.181   3.315   9.062 -1.8726  1.4753 -0.0161
  197MOL0     H26570   5.043   3.263   8.974 -0.7864  0.7715  0.4719
  197MOL0     H26571   5.149   3.096   9.207 -0.7271  0.2256 -0.3897
  197MOL0     H26572   5.015   3.043   9.110 -0.8432  0.2494 -1.7374
  197MOL0     H26573   5.185   2.918   9.023  1.7443 -1.1101 -1.8896
  197MOL0     H26574   5.299   3.065   9.007 -0.4271 -0.6638 -0.8119
  197MOL0     H26575   5.150   3.112   8.816  1.4161  1.7650  2.2930
  197MOL0     H26576   5.034   2.995   8.865  0.2045 -0.6346 -2.1278
  197MOL0     H26577   4.609   3.664   8.736  1.5547  0.7230  3.8022
  197MOL0     H26578   4.537   3.848   8.590 -0.2166  1.1935 -0.6368
  197MOL0     H26579   4.755   4.295   8.281  1.9396  1.3012  1.3327
  197MOL0     H26580   4.602   4.451   8.166 -0.7170  0.5613 -0.4394
  197MOL0     H26581   5.232   3.372   7.635  2.4208 -0.8894 -2.6414
  197MOL0     H26582   5.453   3.271   7.668 -2.5841 -0.9276 -0.0721
  197MOL0     H26583   5.962   3.542   7.658 -1.5637 -0.8238  1.0000
  197MOL0     H26584   6.206   3.438   7.667 -0.2251 -2.0759 -2.5102
  197MOL0     H26585   6.374   3.279   7.613 -0.4088  1.5126  0.9427
  197MOL0     H26586   6.380   3.308   7.784  1.7841  1.5729 -0.9602
  197MOL0     H26587   6.415   3.026   7.759  1.2469 -1.2482 -0.6695
  197MOL0     H26588   6.544   3.142   7.798  1.3602 -3.3199  1.0282
  197MOL0     H26589   6.542   3.180   7.534  1.0025 -1.3975 -2.2077
  197MOL0     H26590   6.452   3.044   7.524  1.4874  1.8567 -2.9560
  197MOL0     H26591   6.743   3.069   7.635  2.3577  0.4665 -3.2838
  197MOL0     H26592   6.688   2.994   7.489  2.3360  0.9103 -0.8143
  197MOL0     H26593   6.608   2.694   7.788 -0.2467  0.8373  2.1043
  197MOL0     H26594   6.013   3.066   7.769 -0.4753  1.3358  1.0038
  197MOL0     H26595   5.794   3.178   7.754 -1.0504  1.3916 -1.7962
  198MOL0     O26596   5.236   1.663   8.823  0.3327  0.2285  0.2940
  198MOL0     C26597   5.313   1.752   8.833 -0.3339 -0.8380 -0.4920
  198MOL0     O26598   5.304   1.857   8.922  0.3089  0.1857  0.0202
  198MOL0     C26599   5.176   1.883   8.969  0.6310  0.5377 -0.1075
  198MOL0     C26600   5.159   1.873   9.108  0.8140 -0.8115  0.1864
  198MOL0     C26601   5.039   1.900   9.171  0.1866 -0.2804 -0.1760
  198MOL0     C26602   4.923   1.922   9.098 -0.2382 -0.5966 -0.0586
  198MOL0     O26603   4.801   1.941   9.164 -0.2399 -0.5876 -0.2169
  198MOL0     C26604   4.685   1.951   9.099  0.6086 -0.6180  0.7497
  198MOL0     C26605   4.568   1.991   9.195  0.2821 -0.6587 -0.1601
  198MOL0     C26606   4.505   1.879   9.280  0.5102  0.5035 -0.0996
  198MOL0     C26607   4.373   1.929   9.346 -0.2540 -0.4649  0.0090
  198MOL0     C26608   4.284   1.823   9.403 -0.8203  0.6388 -0.7343
  198MOL0     C26609   4.178   1.877   9.499 -0.2530 -0.3249 -0.1176
  198MOL0     C26610   4.090   1.759   9.556  0.0458 -0.7073  0.3549
  198MOL0     C26611   4.003   1.684   9.453 -0.8600  0.3499  0.1416
  198MOL0     N26612   4.017   1.536   9.485 -0.0250 -0.6873 -0.0372
  198MOL0     C26613   4.126   1.472   9.482  0.1507 -0.1863  0.0883
  198MOL0     C26614   4.100   1.340   9.499  0.2074 -0.7629 -0.7611
  198MOL0     C26615   4.206   1.232   9.511 -0.0876  0.0156  0.0715
  198MOL0     C26616   4.240   1.171   9.379  0.6674  0.4276  0.0950
  198MOL0     C26617   4.305   1.036   9.402 -1.2349 -0.1217  0.4712
  198MOL0     C26618   4.355   0.982   9.268  0.1648  0.0757  0.4062
  198MOL0     O26619   4.227   0.956   9.201  0.1509 -0.0480 -0.7800
  198MOL0     C26620   4.238   0.852   9.117  0.0828  1.2053 -0.7722
  198MOL0     C26621   4.347   0.836   9.027 -0.5067 -0.2852  0.6397
  198MOL0     C26622   4.358   0.730   8.946  0.4914 -0.3763  0.1893
  198MOL0     C26623   4.488   0.709   8.873  0.1337 -0.1269  0.1977
  198MOL0     C26624   4.239   0.647   8.927 -0.4905  0.1224 -0.0757
  198MOL0     C26625   4.225   0.539   8.821  0.6276 -0.2376 -0.2077
  198MOL0     O26626   4.110   0.470   8.822  0.4030 -0.3255 -0.9881
  198MOL0     C26627   4.095   0.356   8.746  0.1423  0.4302 -0.1450
  198MOL0     C26628   4.192   0.259   8.719 -0.1115 -0.2731  0.8287
  198MOL0     C26629   4.181   0.148   8.638 -0.0537 -0.7337  0.3161
  198MOL0     C26630   4.049   0.122   8.585  0.1726  0.3428 -0.5240
  198MOL0     O26631   4.022   0.028   8.491 -1.3013  0.4373 -0.2313
  198MOL0     C26632   4.122   0.007   8.394  0.2635  0.6724 -0.5371
  198MOL0     C26633   4.222  -0.104   8.433 -0.0947 -0.4744 -0.4005
  198MOL0     C26634   4.168  -0.219   8.521  0.0812 -0.2677 -0.5127
  198MOL0     C26635   4.042  -0.288   8.455  0.5983 -0.4046  1.1109
  198MOL0     C26636   3.978  -0.402   8.536  0.0054 -0.1075 -0.9013
  198MOL0     C26637   3.913  -0.338   8.663  0.7943  0.6802 -0.8968
  198MOL0     C26638   3.818  -0.437   8.734  0.0182 -0.9670 -0.3851
  198MOL0     C26639   3.895  -0.538   8.831  0.2600 -0.4835 -0.0278
  198MOL0    Cl26640   3.782  -0.653   8.908  0.0099  0.8333 -0.6721
  198MOL0     C26641   3.941   0.203   8.628  0.6534 -0.7416  0.6194
  198MOL0     C26642   3.970   0.323   8.696 -0.0103  0.6332 -0.6691
  198MOL0     O26643   4.303   0.537   8.728 -0.3122 -0.5936 -0.6518
  198MOL0     C26644   4.131   0.668   9.012 -0.2254 -0.1448  0.8201
  198MOL0     C26645   4.124   0.774   9.102  0.5346  1.4239 -0.0839
  198MOL0     N26646   3.966   1.329   9.525 -0.7625 -0.8583 -0.2359
  198MOL0     N26647   3.916   1.446   9.511 -0.5831 -0.7455  0.2671
  198MOL0     C26648   4.936   1.944   8.963 -0.7948  0.5722  0.0265
  198MOL0     C26649   5.058   1.926   8.892 -0.4053  0.0368 -0.3148
  198MOL0     C26650   5.438   1.747   8.740 -0.0830  0.7378  0.3363
  198MOL0     C26651   5.527   1.847   8.747  0.4077 -0.3278  0.0861
  198MOL0     C26652   5.659   1.831   8.692  0.3828 -0.0048  0.1505
  198MOL0     C26653   5.691   1.725   8.612 -0.1232  0.7782  0.4016
  198MOL0     O26654   5.814   1.735   8.547 -0.1252 -0.0940  0.2709
  198MOL0     C26655   5.881   1.615   8.510 -0.2165  0.5150 -0.3572
  198MOL0     C26656   5.949   1.542   8.635 -0.1578  0.7202  0.3873
  198MOL0     C26657   6.005   1.400   8.605 -0.6153  0.9006 -0.4864
  198MOL0     C26658   6.146   1.389   8.554 -0.4543 -0.2932  0.8034
  198MOL0     C26659   6.245   1.482   8.602 -0.1682 -0.1048 -0.7751
  198MOL0     C26660   6.334   1.561   8.642  0.1582 -0.6625 -0.0335
  198MOL0     C26661   5.600   1.624   8.605  0.7227 -0.6982  0.2159
  198MOL0     C26662   5.477   1.632   8.673  0.4975 -0.5893  0.0635
  198MOL0     H26663   5.251   1.857   9.163 -0.0860 -0.6536  1.8192
  198MOL0     H26664   5.029   1.907   9.278  0.2209 -1.3371 -0.0931
  198MOL0     H26665   4.703   2.024   9.020  1.6719 -0.1753  1.3738
  198MOL0     H26666   4.653   1.861   9.046  0.2048 -0.1777  0.2462
  198MOL0     H26667   4.608   2.063   9.267 -2.3280  0.8710 -0.1343
  198MOL0     H26668   4.495   2.048   9.137  1.2401 -1.2340 -1.9917
  198MOL0     H26669   4.477   1.794   9.217 -0.0988  0.8249 -0.2796
  198MOL0     H26670   4.576   1.841   9.354  0.6590  0.1777 -0.4043
  198MOL0     H26671   4.384   2.000   9.428 -0.0940 -0.6205  0.1221
  198MOL0     H26672   4.311   1.984   9.275 -0.9953  0.0796  1.0559
  198MOL0     H26673   4.242   1.768   9.318 -4.7733 -0.4008  1.6467
  198MOL0     H26674   4.344   1.755   9.464 -2.1641 -0.5832 -0.7261
  198MOL0     H26675   4.222   1.934   9.581  1.5511 -0.7029 -0.7850
  198MOL0     H26676   4.115   1.937   9.432 -0.7357 -2.0508 -1.2829
  198MOL0     H26677   4.172   1.697   9.594  0.2767 -0.3217  0.4880
  198MOL0     H26678   4.026   1.784   9.641 -0.7314  1.6930 -0.8409
  198MOL0     H26679   4.042   1.704   9.353  2.0247 -4.6170 -0.0907
  198MOL0     H26680   3.899   1.714   9.470 -1.7925 -1.9732 -0.9964
  198MOL0     H26681   4.228   1.511   9.480  0.0942  0.3842  3.2919
  198MOL0     H26682   4.299   1.275   9.550 -0.6426 -0.8436  2.4970
  198MOL0     H26683   4.159   1.156   9.574  0.2364 -0.7069 -0.5475
  198MOL0     H26684   4.309   1.242   9.332 -0.2625  2.6094  1.8382
  198MOL0     H26685   4.151   1.153   9.319  1.6916 -1.2982 -1.0014
  198MOL0     H26686   4.238   0.965   9.452 -2.1880  0.6811  0.3576
  198MOL0     H26687   4.390   1.053   9.469 -1.3062  1.8243  0.0987
  198MOL0     H26688   4.410   0.889   9.287 -0.3833  0.3572  4.3743
  198MOL0     H26689   4.413   1.062   9.223 -0.4148  1.3242  1.7672
  198MOL0     H26690   4.435   0.896   9.045 -2.1615  1.5758  3.1758
  198MOL0     H26691   4.502   0.600   8.877  0.0070 -0.2492 -1.7136
  198MOL0     H26692   4.486   0.731   8.766 -0.0824  0.7075  0.3700
  198MOL0     H26693   4.582   0.750   8.913  0.0518  1.2556 -0.9611
  198MOL0     H26694   4.280   0.280   8.779 -0.6341  2.9535  0.6439
  198MOL0     H26695   4.267   0.081   8.633 -1.0306 -1.9240 -1.2197
  198MOL0     H26696   4.068  -0.040   8.311 -1.1222  0.5334  0.3930
  198MOL0     H26697   4.170   0.094   8.350  3.1223  0.2913  1.5298
  198MOL0     H26698   4.258  -0.158   8.345  0.0763  1.4611 -1.5859
  198MOL0     H26699   4.303  -0.052   8.485 -0.7556 -0.8051  0.9865
  198MOL0     H26700   4.137  -0.168   8.613 -0.0302 -0.5998 -0.3654
  198MOL0     H26701   4.251  -0.289   8.537 -0.1250 -0.0224  2.0474
  198MOL0     H26702   3.961  -0.221   8.424  1.4487  0.7146  1.2530
  198MOL0     H26703   4.093  -0.321   8.364  0.9874  0.9973  0.7961
  198MOL0     H26704   4.047  -0.480   8.569 -0.4976  0.3885  1.5327
  198MOL0     H26705   3.904  -0.457   8.476 -2.2950  0.5965  1.0981
  198MOL0     H26706   3.993  -0.308   8.731 -0.0265  3.1712 -0.9547
  198MOL0     H26707   3.855  -0.249   8.641  0.8458  0.7862 -0.6081
  198MOL0     H26708   3.760  -0.498   8.664  1.7215 -1.0312 -1.8326
  198MOL0     H26709   3.755  -0.377   8.800  0.7454 -1.2801  0.6279
  198MOL0     H26710   3.954  -0.482   8.904  2.4881 -3.1274  0.3613
  198MOL0     H26711   3.967  -0.599   8.775  0.6179  0.8913 -1.1484
  198MOL0     H26712   3.844   0.190   8.581 -1.3940 -1.3042  4.5858
  198MOL0     H26713   3.883   0.386   8.713 -0.5229 -0.3886  0.6971
  198MOL0     H26714   4.041   0.617   8.980 -1.4942  2.2695  0.3555
  198MOL0     H26715   4.025   0.806   9.132 -0.6027  0.4954 -2.5778
  198MOL0     H26716   4.858   1.979   8.896  0.4206  1.4822 -0.9590
  198MOL0     H26717   5.085   1.964   8.794 -0.0758  1.9710  0.4723
  198MOL0     H26718   5.509   1.941   8.798  1.9890  0.0276  0.0569
  198MOL0     H26719   5.732   1.908   8.711  1.4498 -1.3942  1.9528
  198MOL0     H26720   5.808   1.555   8.455 -1.1456  0.5614  0.8028
  198MOL0     H26721   5.958   1.638   8.435  0.5613 -0.1576  0.2178
  198MOL0     H26722   5.869   1.526   8.708 -3.2821  2.7377 -2.3507
  198MOL0     H26723   6.018   1.604   8.693 -0.8536  2.8451 -0.9649
  198MOL0     H26724   5.942   1.350   8.530 -2.0683  2.0139 -0.0682
  198MOL0     H26725   6.007   1.332   8.691  5.2780 -0.3292 -1.2074
  198MOL0     H26726   6.145   1.406   8.446  1.1950  1.1754  0.9729
  198MOL0     H26727   6.180   1.286   8.573  0.4760 -0.5900 -2.0585
  198MOL0     H26728   6.408   1.636   8.663 -0.4985  1.3299 -3.8641
  198MOL0     H26729   5.618   1.525   8.564  1.3452  0.2285 -1.9037
  198MOL0     H26730   5.413   1.544   8.672 -1.6131  0.8559 -1.6005
  199MOL0     O26731   0.180  10.165   2.660  0.4696 -0.7835 -1.0177
  199MOL0     C26732   0.069  10.122   2.703 -0.0403  0.2324  0.5540
  199MOL0     O26733   0.049  10.032   2.806  0.2153  0.2577  0.4653
  199MOL0     C26734   0.163  10.001   2.878  0.1934  0.4798  0.3080
  199MOL0     C26735   0.236   9.898   2.829 -0.7020  0.5167 -0.7296
  199MOL0     C26736   0.337   9.840   2.909 -0.2623  0.2808  0.3164
  199MOL0     C26737   0.382   9.905   3.027  0.1652 -0.3847 -0.6665
  199MOL0     O26738   0.483   9.841   3.093  0.4388  0.1868 -0.0099
  199MOL0     C26739   0.558   9.932   3.182 -0.7079 -0.5464  0.4489
  199MOL0     C26740   0.698   9.875   3.192 -0.5398 -0.0945  0.2918
  199MOL0     C26741   0.691   9.733   3.252 -0.0677 -0.1926  0.1030
  199MOL0     C26742   0.825   9.645   3.249  0.4923 -0.9135  0.1717
  199MOL0     C26743   0.866   9.610   3.094 -0.2261 -0.6720 -1.0954
  199MOL0     C26744   0.979   9.509   3.083  0.0373 -0.2865  0.0369
  199MOL0     C26745   1.110   9.563   3.143  0.6240 -0.1737  0.4048
  199MOL0     C26746   1.207   9.443   3.158  0.4629  0.6511  0.0966
  199MOL0     N26747   1.334   9.496   3.178 -0.4900 -0.3175 -0.0070
  199MOL0     C26748   1.434   9.475   3.088  0.3434 -0.1420  0.3806
  199MOL0     C26749   1.523   9.581   3.093 -0.0388 -0.7669 -0.7554
  199MOL0     C26750   1.649   9.607   3.008 -0.6546  0.7549  0.3040
  199MOL0     C26751   1.773   9.584   3.108  0.7101 -0.4894 -0.9544
  199MOL0     C26752   1.784   9.429   3.146  1.1355 -0.1894 -0.2207
  199MOL0     C26753   1.886   9.404   3.257  0.1680  0.3501 -0.6523
  199MOL0     O26754   2.014   9.463   3.223 -0.3103 -0.3394  0.1293
  199MOL0     C26755   2.113   9.398   3.279 -0.6554 -0.5840  0.1569
  199MOL0     C26756   2.197   9.486   3.341 -0.2320  0.1739 -0.2798
  199MOL0     C26757   2.307   9.445   3.406 -1.0896 -0.4319  0.8836
  199MOL0     C26758   2.381   9.556   3.487  0.4562  0.5632 -0.1390
  199MOL0     C26759   2.338   9.305   3.420  0.0965 -0.3993 -0.0430
  199MOL0     C26760   2.468   9.252   3.485 -0.4704  0.4272 -0.4693
  199MOL0     O26761   2.544   9.335   3.569 -0.5621  0.3867 -0.1398
  199MOL0     C26762   2.617   9.267   3.667  0.3314 -0.5815 -1.1295
  199MOL0     C26763   2.565   9.170   3.755  0.4197 -0.7365 -0.3533
  199MOL0     C26764   2.632   9.132   3.873  0.6683 -0.4757 -0.4442
  199MOL0     C26765   2.753   9.194   3.901  0.8581  0.4281  0.0301
  199MOL0     O26766   2.826   9.138   4.003  0.1990 -0.2532  0.1147
  199MOL0     C26767   2.964   9.185   4.016  0.1556 -0.4227 -0.2147
  199MOL0     C26768   3.030   9.101   4.121 -0.6903 -0.6095 -0.1204
  199MOL0     C26769   3.158   9.151   4.155 -0.5075 -0.8700 -0.8483
  199MOL0     C26770   3.243   9.068   4.238  0.7475 -0.2133 -0.4243
  199MOL0     C26771   3.362   9.152   4.282  0.7675 -0.4840 -0.2693
  199MOL0     C26772   3.459   9.079   4.373 -0.0652  0.3102  0.5140
  199MOL0     C26773   3.560   9.175   4.425 -0.0845  0.5152  0.0114
  199MOL0     C26774   3.701   9.111   4.461  0.9707 -0.5254 -0.0416
  199MOL0    Cl26775   3.797   9.125   4.318 -0.1432  0.0176 -0.1535
  199MOL0     C26776   2.799   9.300   3.824 -0.4348 -0.7259 -0.1855
  199MOL0     C26777   2.728   9.338   3.715 -0.2247  0.1003  0.3632
  199MOL0     O26778   2.493   9.128   3.465  0.1226 -1.7395  0.2650
  199MOL0     C26779   2.249   9.219   3.358 -0.2366 -0.2397 -1.1196
  199MOL0     C26780   2.134   9.264   3.287 -0.3059  0.3939  0.2924
  199MOL0     N26781   1.478   9.663   3.204  0.5029  0.1216 -1.0373
  199MOL0     N26782   1.367   9.614   3.239 -0.8760 -0.7203 -0.4616
  199MOL0     C26783   0.304  10.011   3.074 -0.4829  0.2865  0.0889
  199MOL0     C26784   0.205  10.067   2.998  0.2465  1.0535 -0.0270
  199MOL0     C26785  -0.053  10.166   2.623  0.0738 -0.7100  0.6799
  199MOL0     C26786  -0.035  10.259   2.519 -0.0879  0.1697 -0.6552
  199MOL0     C26787  -0.141  10.307   2.441  0.5364  0.4734 -0.0912
  199MOL0     C26788  -0.266  10.246   2.460 -0.3146  0.0093 -1.3397
  199MOL0     O26789  -0.361  10.296   2.382 -0.4228 -0.1099  0.0877
  199MOL0     C26790  -0.496  10.237   2.355 -0.3517 -0.1726 -0.5067
  199MOL0     C26791  -0.488  10.117   2.268 -0.0971 -0.2150  0.5895
  199MOL0     C26792  -0.627  10.060   2.247 -0.2106  0.1306  0.5490
  199MOL0     C26793  -0.716  10.142   2.154 -0.0853  0.0047 -0.4112
  199MOL0     C26794  -0.859  10.079   2.147 -0.7549 -0.3118  1.0453
  199MOL0     C26795  -0.962  10.024   2.137  0.9250  0.6996  0.4063
  199MOL0     C26796  -0.280  10.143   2.555 -0.4678 -0.2065 -0.4171
  199MOL0     C26797  -0.174  10.104   2.639 -0.7858  0.1708 -0.4640
  199MOL0     H26798   0.231   9.877   2.723  0.3145  3.5106 -1.4789
  199MOL0     H26799   0.395   9.760   2.865  0.2596  1.1469 -0.6061
  199MOL0     H26800   0.571  10.025   3.126  0.0543 -1.9525 -1.8663
  199MOL0     H26801   0.507   9.951   3.277  0.3937 -0.1670  0.9814
  199MOL0     H26802   0.753   9.858   3.099  1.0789  2.9150  0.5897
  199MOL0     H26803   0.748   9.943   3.261 -1.0154  0.6676 -0.1067
  199MOL0     H26804   0.651   9.732   3.354  0.4882  1.0481  0.3458
  199MOL0     H26805   0.620   9.676   3.192 -0.3075 -1.6000  1.6580
  199MOL0     H26806   0.908   9.690   3.304  0.5288 -1.2023  0.3608
  199MOL0     H26807   0.796   9.556   3.306 -2.1326  0.1119  0.5578
  199MOL0     H26808   0.777   9.581   3.037 -0.7865  1.9734 -1.7109
  199MOL0     H26809   0.905   9.703   3.052 -0.2322  0.8405  1.9360
  199MOL0     H26810   0.951   9.416   3.134  1.2835 -0.2573  0.8218
  199MOL0     H26811   0.994   9.487   2.977  0.2386  2.9935 -0.7032
  199MOL0     H26812   1.152   9.633   3.070 -1.1836 -1.0352 -1.5848
  199MOL0     H26813   1.098   9.602   3.244  2.6295 -3.2343  1.9759
  199MOL0     H26814   1.203   9.378   3.070 -1.1561  0.3216  0.3836
  199MOL0     H26815   1.171   9.387   3.245 -0.2666  0.1312 -0.5176
  199MOL0     H26816   1.443   9.398   3.012 -1.4375  1.2309 -1.3505
  199MOL0     H26817   1.650   9.544   2.918 -0.9337  3.5806 -1.8366
  199MOL0     H26818   1.652   9.709   2.969  0.1278 -0.3084 -2.6674
  199MOL0     H26819   1.760   9.637   3.203 -2.9233 -0.7993 -1.1390
  199MOL0     H26820   1.868   9.610   3.062  1.9462 -1.6424  0.8376
  199MOL0     H26821   1.800   9.367   3.057 -0.2364 -3.5037  1.6665
  199MOL0     H26822   1.688   9.398   3.189  0.5926  0.1800 -1.1374
  199MOL0     H26823   1.876   9.297   3.277 -5.3327  0.9095  1.3354
  199MOL0     H26824   1.850   9.442   3.354 -0.5517 -0.0204 -0.7630
  199MOL0     H26825   2.159   9.586   3.354 -1.8275 -0.6299  1.7819
  199MOL0     H26826   2.355   9.543   3.593  1.5699  2.8434  0.4897
  199MOL0     H26827   2.488   9.538   3.476  0.5046  0.8579 -0.1713
  199MOL0     H26828   2.374   9.661   3.457 -0.5349  1.1016  1.8201
  199MOL0     H26829   2.468   9.121   3.748 -0.8912  1.9210 -3.6640
  199MOL0     H26830   2.587   9.061   3.941 -2.0379  1.6245  0.1117
  199MOL0     H26831   3.016   9.190   3.920 -0.7908 -0.6326 -0.7553
  199MOL0     H26832   2.955   9.283   4.064  0.8794 -0.4002 -0.1243
  199MOL0     H26833   2.966   9.115   4.209 -0.6519  1.5578 -0.3898
  199MOL0     H26834   3.041   8.994   4.102 -0.2571 -1.1221  2.5861
  199MOL0     H26835   3.140   9.244   4.210 -0.4607 -3.0880  3.3665
  199MOL0     H26836   3.221   9.179   4.070 -0.1711 -0.8422 -0.5940
  199MOL0     H26837   3.182   9.032   4.321  0.3427 -2.4753 -1.6232
  199MOL0     H26838   3.278   8.983   4.178 -0.5680 -0.4097 -0.9363
  199MOL0     H26839   3.321   9.244   4.325 -0.1873 -0.4717 -1.1405
  199MOL0     H26840   3.422   9.177   4.194 -1.2604  0.2014 -1.5380
  199MOL0     H26841   3.413   9.024   4.457 -0.2590  1.9156  1.4970
  199MOL0     H26842   3.504   9.000   4.312  0.2852  1.6678 -1.0409
  199MOL0     H26843   3.522   9.211   4.521 -3.9508  0.3580 -1.2992
  199MOL0     H26844   3.568   9.263   4.361 -1.4604 -0.0926 -1.0579
  199MOL0     H26845   3.690   9.013   4.509  0.7691  0.4860  2.1053
  199MOL0     H26846   3.748   9.161   4.547 -0.0133 -2.4434  1.7106
  199MOL0     H26847   2.880   9.370   3.841 -3.1290  2.5642  0.2200
  199MOL0     H26848   2.761   9.418   3.650 -2.4089 -1.2655 -2.6592
  199MOL0     H26849   2.266   9.112   3.368  2.2238  0.0030 -1.9812
  199MOL0     H26850   2.084   9.187   3.230 -1.2197  2.1372 -1.3808
  199MOL0     H26851   0.347  10.052   3.164  1.4100  0.3240 -0.8000
  199MOL0     H26852   0.145  10.143   3.048 -0.2922 -0.1081  1.1270
  199MOL0     H26853   0.055  10.315   2.496  1.0017 -0.5013  1.6658
  199MOL0     H26854  -0.131  10.385   2.366  0.1545  0.2530 -0.3731
  199MOL0     H26855  -0.548  10.209   2.447 -2.0544 -2.7293 -2.1437
  199MOL0     H26856  -0.546  10.325   2.315  1.6561  2.8950  3.0447
  199MOL0     H26857  -0.432  10.037   2.319  0.6466 -1.4139 -1.9468
  199MOL0     H26858  -0.428  10.146   2.181  0.7239 -0.0704  1.1823
  199MOL0     H26859  -0.684  10.039   2.338 -1.6201  0.8790 -0.1189
  199MOL0     H26860  -0.631   9.959   2.204 -0.6624 -1.3040  3.7147
  199MOL0     H26861  -0.676  10.148   2.052  1.0074  0.6321  0.0398
  199MOL0     H26862  -0.730  10.246   2.186 -0.3555  0.0116 -0.5423
  199MOL0     H26863  -1.060   9.982   2.129  0.9241  0.9199 -1.0767
  199MOL0     H26864  -0.371  10.085   2.567 -1.3600  1.4052  1.1304
  199MOL0     H26865  -0.210  10.029   2.709 -1.2858 -0.7388 -1.6427
  200MOL0     O26866   5.462   6.835   3.314  0.2081 -0.0743  0.1516
  200MOL0     C26867   5.456   6.720   3.273 -0.3446  0.3692  0.4638
  200MOL0     O26868   5.556   6.655   3.203  0.2759 -0.0699  0.4570
  200MOL0     C26869   5.675   6.719   3.195 -0.0340 -0.6607 -0.1034
  200MOL0     C26870   5.735   6.759   3.071  0.5479 -0.1127  0.0841
  200MOL0     C26871   5.866   6.799   3.067 -0.3454 -0.3839  0.0571
  200MOL0     C26872   5.947   6.812   3.180  0.8037  0.2653  0.4658
  200MOL0     O26873   6.078   6.850   3.180  0.2084  0.9506 -0.1155
  200MOL0     C26874   6.135   6.932   3.293  0.7299 -0.1835 -0.0611
  200MOL0     C26875   6.069   7.074   3.296 -0.6197 -0.0923 -0.5817
  200MOL0     C26876   6.138   7.179   3.395 -0.0235 -0.5563 -0.5691
  200MOL0     C26877   6.070   7.323   3.399  0.1187  0.0432 -0.4647
  200MOL0     C26878   6.141   7.388   3.519  0.0116 -0.6246  0.3153
  200MOL0     C26879   6.083   7.520   3.566 -0.1628 -0.1216  0.9164
  200MOL0     C26880   6.170   7.646   3.530  0.5339  0.3496  0.2750
  200MOL0     C26881   6.158   7.670   3.372 -0.7553 -0.4604 -0.5428
  200MOL0     N26882   6.222   7.798   3.355 -0.1045  0.4721 -0.1038
  200MOL0     C26883   6.353   7.817   3.319  1.0465 -0.2092  0.6998
  200MOL0     C26884   6.356   7.954   3.302  0.0469 -0.2328  0.7154
  200MOL0     C26885   6.489   8.025   3.288 -0.1412  0.2351  0.0367
  200MOL0     C26886   6.556   8.017   3.159  0.4093  0.1894 -0.4973
  200MOL0     C26887   6.693   8.094   3.169  0.2097 -0.0427  0.1238
  200MOL0     C26888   6.740   8.095   3.032 -0.0809 -0.4051 -0.4325
  200MOL0     O26889   6.677   8.199   2.953 -0.9425 -0.8298  0.6045
  200MOL0     C26890   6.709   8.205   2.816  0.4963  1.4201 -0.3528
  200MOL0     C26891   6.806   8.127   2.747 -0.7570  0.6168  0.2302
  200MOL0     C26892   6.817   8.141   2.607 -0.3016 -0.7030  0.1894
  200MOL0     C26893   6.939   8.084   2.542  0.5870 -0.3655  0.2620
  200MOL0     C26894   6.731   8.219   2.531  0.1304  0.9143  0.2249
  200MOL0     C26895   6.740   8.218   2.384  0.0978 -0.7035  0.9014
  200MOL0     O26896   6.773   8.099   2.316  0.2295 -0.3747 -0.4093
  200MOL0     C26897   6.786   8.080   2.179  0.6218  0.2631  0.8657
  200MOL0     C26898   6.806   7.943   2.142  0.4287 -0.0590 -0.6207
  200MOL0     C26899   6.811   7.902   2.005 -0.3550  0.1181  0.5665
  200MOL0     C26900   6.801   8.003   1.909  0.2357  0.1250 -0.0028
  200MOL0     O26901   6.817   7.983   1.774 -0.1498  0.0539 -0.0124
  200MOL0     C26902   6.875   7.858   1.729 -0.6043  0.5017  0.5236
  200MOL0     C26903   6.904   7.862   1.578 -1.3563  0.3386 -0.5550
  200MOL0     C26904   7.035   7.918   1.539  0.7654 -0.8871  0.0118
  200MOL0     C26905   7.057   8.069   1.553  0.2742 -0.1891  0.0376
  200MOL0     C26906   7.192   8.090   1.481  0.0654  0.3428  0.1463
  200MOL0     C26907   7.234   8.235   1.504  0.6652 -0.3275  0.4028
  200MOL0     C26908   7.150   8.319   1.396 -0.4760  0.2769 -0.6001
  200MOL0     C26909   7.153   8.473   1.429  0.0043 -0.3336  0.6080
  200MOL0    Cl26910   7.327   8.518   1.423  0.0892  0.1026 -0.2274
  200MOL0     C26911   6.792   8.133   1.945 -0.0378  0.7215 -0.6840
  200MOL0     C26912   6.785   8.172   2.076 -0.0433  0.6527 -0.2065
  200MOL0     O26913   6.711   8.327   2.324 -0.2506 -0.7529 -0.1407
  200MOL0     C26914   6.634   8.290   2.599  0.4086 -0.6092 -0.0093
  200MOL0     C26915   6.624   8.281   2.734 -0.1399 -0.5727  0.8708
  200MOL0     N26916   6.228   8.005   3.328  0.0389 -0.5300  0.2957
  200MOL0     N26917   6.152   7.911   3.369 -0.3641  0.1630 -0.0661
  200MOL0     C26918   5.887   6.778   3.301  0.3467  0.2531 -0.4574
  200MOL0     C26919   5.754   6.733   3.311 -0.3919  0.7216 -0.0842
  200MOL0     C26920   5.330   6.643   3.295 -0.3870 -0.0461  0.4054
  200MOL0     C26921   5.322   6.505   3.268 -0.3293 -0.3898 -0.5676
  200MOL0     C26922   5.200   6.443   3.289  0.1061 -0.7844 -0.9129
  200MOL0     C26923   5.092   6.509   3.351 -1.8658 -0.4166 -1.2632
  200MOL0     O26924   4.975   6.434   3.366 -0.0992 -0.2878 -0.0288
  200MOL0     C26925   4.845   6.484   3.323 -0.5587 -0.2574 -0.3279
  200MOL0     C26926   4.738   6.382   3.310  0.3421  0.2487  0.3496
  200MOL0     C26927   4.596   6.437   3.284  0.2541  0.1458  0.0087
  200MOL0     C26928   4.500   6.322   3.274  1.0886 -0.0100  0.8671
  200MOL0     C26929   4.366   6.367   3.234 -0.5433  0.2702  0.4854
  200MOL0     C26930   4.260   6.404   3.206 -0.0592 -0.3318 -0.7936
  200MOL0     C26931   5.105   6.644   3.399 -0.6673 -0.3071  0.3499
  200MOL0     C26932   5.219   6.711   3.356 -0.5618  0.0529 -0.3594
  200MOL0     H26933   5.680   6.770   2.978  1.4061 -0.3764 -0.4663
  200MOL0     H26934   5.925   6.816   2.978  1.7171 -3.6289  0.6147
  200MOL0     H26935   6.150   6.878   3.387  0.6510 -2.0883 -1.0880
  200MOL0     H26936   6.240   6.950   3.270  0.0660  1.1675 -2.5052
  200MOL0     H26937   6.078   7.109   3.193 -4.4264  0.6381 -0.7797
  200MOL0     H26938   5.962   7.066   3.312 -0.9184 -3.4973 -3.0597
  200MOL0     H26939   6.146   7.133   3.494  2.9418 -1.0161 -0.9181
  200MOL0     H26940   6.241   7.182   3.357 -0.4579 -2.8594 -2.1713
  200MOL0     H26941   6.093   7.373   3.304 -0.8522  0.1198 -0.6752
  200MOL0     H26942   5.962   7.318   3.416  0.0810 -1.8580 -1.0440
  200MOL0     H26943   6.130   7.316   3.601  1.3265 -1.5628 -0.2997
  200MOL0     H26944   6.247   7.390   3.494 -0.0694 -2.8389 -0.4292
  200MOL0     H26945   5.983   7.526   3.521 -0.0922  2.0999  0.9844
  200MOL0     H26946   6.066   7.510   3.674 -2.6053 -3.8527  0.3839
  200MOL0     H26947   6.132   7.734   3.581 -2.9345  0.5245 -2.2513
  200MOL0     H26948   6.277   7.631   3.549  0.4148  0.8145  1.3705
  200MOL0     H26949   6.056   7.673   3.334 -0.0444 -0.6141 -2.5921
  200MOL0     H26950   6.213   7.598   3.310 -1.6989 -0.6542 -1.1717
  200MOL0     H26951   6.444   7.759   3.314  1.0662 -0.0891 -2.7637
  200MOL0     H26952   6.478   8.130   3.313  2.6746  1.1800 -2.0739
  200MOL0     H26953   6.560   7.984   3.360  0.6878 -0.2343 -1.0112
  200MOL0     H26954   6.488   8.062   3.085  1.6278  1.7015 -0.7616
  200MOL0     H26955   6.568   7.910   3.140 -0.0306  0.2013 -0.8585
  200MOL0     H26956   6.756   8.032   3.233 -0.5306 -1.1513 -0.1906
  200MOL0     H26957   6.676   8.191   3.215  1.8486  1.0203 -1.3850
  200MOL0     H26958   6.730   7.993   2.992 -2.8064 -0.0903 -0.7341
  200MOL0     H26959   6.846   8.123   3.037 -0.7895  2.4685 -0.3386
  200MOL0     H26960   6.880   8.068   2.801  1.3587 -0.1100 -3.1680
  200MOL0     H26961   6.916   7.995   2.482 -1.5807  0.3245 -0.0364
  200MOL0     H26962   6.983   8.159   2.476 -1.8779 -0.1253 -1.2364
  200MOL0     H26963   7.013   8.052   2.615  2.8264 -0.1033 -1.7544
  200MOL0     H26964   6.833   7.868   2.215  2.0902  0.9550 -0.1382
  200MOL0     H26965   6.806   7.795   1.982 -2.8902 -0.1746  2.0918
  200MOL0     H26966   6.955   7.828   1.797 -2.8136 -2.8046  1.9486
  200MOL0     H26967   6.803   7.777   1.744  0.3538 -0.4025  0.3946
  200MOL0     H26968   6.910   7.759   1.543  1.6852 -0.3276  1.5013
  200MOL0     H26969   6.818   7.912   1.532 -1.0851  1.4807  0.1263
  200MOL0     H26970   7.057   7.887   1.437 -1.5225  0.0407 -0.8436
  200MOL0     H26971   7.113   7.878   1.605  0.1596 -0.4942  1.0004
  200MOL0     H26972   6.975   8.129   1.512 -1.5561 -1.5292  1.5692
  200MOL0     H26973   7.067   8.099   1.658  2.1490 -3.6945  1.0096
  200MOL0     H26974   7.188   8.066   1.374  2.8094 -2.6293  0.5540
  200MOL0     H26975   7.260   8.025   1.537  0.9116  1.1290  0.0442
  200MOL0     H26976   7.207   8.270   1.604 -0.3710 -1.0837  0.3992
  200MOL0     H26977   7.338   8.265   1.489  0.8662 -1.4763 -0.5809
  200MOL0     H26978   7.043   8.299   1.409 -0.0366 -1.1762  1.1582
  200MOL0     H26979   7.175   8.307   1.291  1.6868 -0.6774 -0.0122
  200MOL0     H26980   7.111   8.497   1.527 -1.1043  1.0839 -0.1788
  200MOL0     H26981   7.094   8.523   1.352 -2.1236  1.7582  3.3834
  200MOL0     H26982   6.793   8.213   1.872  1.7465  3.2425  1.8740
  200MOL0     H26983   6.790   8.277   2.103  0.6768  0.1257  1.9347
  200MOL0     H26984   6.556   8.344   2.546 -0.9975 -1.4951  1.0824
  200MOL0     H26985   6.546   8.338   2.784 -0.2043 -0.4022  0.5759
  200MOL0     H26986   5.939   6.792   3.395 -0.6873 -1.1315  0.3588
  200MOL0     H26987   5.711   6.715   3.410  3.1129 -0.0203  1.4477
  200MOL0     H26988   5.411   6.459   3.227  1.1070  0.3115  1.5719
  200MOL0     H26989   5.190   6.337   3.269  1.9791 -1.0159 -0.8053
  200MOL0     H26990   4.814   6.570   3.384  1.5572  1.3286 -1.3785
  200MOL0     H26991   4.851   6.524   3.222 -0.4235  0.7763  0.0841
  200MOL0     H26992   4.733   6.325   3.403  1.1197 -0.5784 -0.0978
  200MOL0     H26993   4.759   6.305   3.235 -0.9679  1.5204 -1.3987
  200MOL0     H26994   4.588   6.501   3.196 -2.4030  0.7837  0.6217
  200MOL0     H26995   4.571   6.492   3.375 -4.0636 -2.0831  0.4552
  200MOL0     H26996   4.493   6.286   3.377  0.8721 -0.5626  0.6678
  200MOL0     H26997   4.534   6.236   3.215  0.4377  1.3161 -1.5554
  200MOL0     H26998   4.164   6.446   3.186 -1.1310 -2.9018 -1.4784
  200MOL0     H26999   5.018   6.686   3.449 -0.9999 -3.1572  2.4310
  200MOL0     H27000   5.237   6.815   3.382  1.6998 -0.5212  0.6143
  201MOL0     O27001  10.368   0.629  11.266 -0.0456  0.0840 -0.6010
  201MOL0     C27002  10.413   0.595  11.378 -0.9689  0.1642  0.5335
  201MOL0     O27003  10.356   0.509  11.473 -0.1923 -0.5655  0.1945
  201MOL0     C27004  10.240   0.435  11.449 -0.2725 -0.5180  0.0225
  201MOL0     C27005  10.212   0.351  11.344  0.3368  0.3697 -0.0848
  201MOL0     C27006  10.095   0.273  11.353  0.4450 -0.0227 -0.4959
  201MOL0     C27007  10.004   0.273  11.460 -0.0757 -0.0352  0.2578
  201MOL0     O27008   9.887   0.214  11.445  0.2046  1.1128  0.3570
  201MOL0     C27009   9.855   0.113  11.543  1.3069 -0.8375 -0.0645
  201MOL0     C27010   9.890  -0.033  11.494  0.4317  0.3162 -0.3381
  201MOL0     C27011   9.861  -0.071  11.349  0.1093 -0.4119  0.2062
  201MOL0     C27012   9.720  -0.041  11.314  0.1953 -0.7570 -0.2724
  201MOL0     C27013   9.622  -0.123  11.396  1.1758  0.3983 -0.2866
  201MOL0     C27014   9.473  -0.091  11.366  0.1895  0.2342 -0.6368
  201MOL0     C27015   9.437   0.069  11.341 -1.1522  0.5334 -0.4937
  201MOL0     C27016   9.284   0.108  11.356 -1.1304  0.0419 -0.3593
  201MOL0     N27017   9.201   0.050  11.249  0.2940  0.1139  0.1965
  201MOL0     C27018   9.205   0.098  11.120 -0.6761  0.3062 -0.0651
  201MOL0     C27019   9.101   0.045  11.056  0.7644  1.8403  1.0314
  201MOL0     C27020   9.049   0.099  10.925 -0.2956 -0.0615 -0.1719
  201MOL0     C27021   9.019   0.249  10.940 -0.3285  0.3640  0.4387
  201MOL0     C27022   9.004   0.323  10.798 -1.1475 -0.3764 -0.5541
  201MOL0     C27023   8.982   0.468  10.830 -0.6811 -0.3899  0.2436
  201MOL0     O27024   8.872   0.478  10.918 -0.2484  0.0466 -0.3801
  201MOL0     C27025   8.796   0.592  10.913  0.4515 -0.5258  1.0900
  201MOL0     C27026   8.734   0.628  10.783  0.0684 -0.9001 -1.4366
  201MOL0     C27027   8.665   0.749  10.775 -0.4438 -0.0446  0.5700
  201MOL0     C27028   8.622   0.791  10.638 -0.0411 -0.0925 -0.2260
  201MOL0     C27029   8.645   0.827  10.889  1.3293 -0.3666 -0.6093
  201MOL0     C27030   8.545   0.937  10.885  0.0300  0.0760 -0.4899
  201MOL0     O27031   8.413   0.903  10.884 -0.1699  0.0130  0.3323
  201MOL0     C27032   8.332   1.013  10.875  0.2026  0.2934  0.0464
  201MOL0     C27033   8.270   1.069  10.989  0.1057 -0.4733 -0.4193
  201MOL0     C27034   8.173   1.177  10.971  0.0398  0.3725  1.1588
  201MOL0     C27035   8.152   1.235  10.845  0.1668  1.3360 -0.2383
  201MOL0     O27036   8.077   1.354  10.841 -0.2489  0.8231 -0.4436
  201MOL0     C27037   7.980   1.373  10.733 -0.6090 -0.1031  0.0781
  201MOL0     C27038   7.883   1.465  10.799  0.4771 -0.1956  0.6094
  201MOL0     C27039   7.952   1.600  10.829 -0.8238 -0.8584  0.2539
  201MOL0     C27040   7.846   1.701  10.840  0.0807  0.2581  0.5055
  201MOL0     C27041   7.893   1.840  10.818  0.2718 -0.5598  0.5695
  201MOL0     C27042   8.009   1.891  10.914  0.0299  0.4985  0.8301
  201MOL0     C27043   8.048   2.036  10.879  0.0253 -0.4384 -0.2721
  201MOL0     C27044   8.155   2.078  10.981  0.6074 -0.0014  0.1387
  201MOL0    Cl27045   8.251   2.226  10.928 -0.1453 -0.4394 -0.1308
  201MOL0     C27046   8.208   1.169  10.731  1.2300  0.7766 -0.3111
  201MOL0     C27047   8.288   1.059  10.749 -0.1297  0.6344 -0.6135
  201MOL0     O27048   8.591   1.052  10.885  0.3787 -0.0709  0.0092
  201MOL0     C27049   8.699   0.794  11.015  0.1662  0.6853 -0.4992
  201MOL0     C27050   8.773   0.673  11.024 -0.5039 -1.0012  0.6023
  201MOL0     N27051   9.026  -0.032  11.148 -0.3461  1.2260 -0.1746
  201MOL0     N27052   9.096  -0.026  11.266  0.2167 -0.4491  1.0254
  201MOL0     C27053  10.036   0.348  11.574 -0.2093  0.2614  0.0804
  201MOL0     C27054  10.156   0.424  11.563 -0.0407  0.0912 -0.4467
  201MOL0     C27055  10.554   0.653  11.405  0.1323 -0.2240 -0.1557
  201MOL0     C27056  10.623   0.739  11.318 -1.1734 -0.1495 -0.0511
  201MOL0     C27057  10.730   0.814  11.359 -0.7266 -0.3391  0.5375
  201MOL0     C27058  10.780   0.801  11.487  0.3218 -0.0915  0.1134
  201MOL0     O27059  10.885   0.877  11.534 -0.0399  0.0603  0.8682
  201MOL0     C27060  11.007   0.847  11.470  0.8133  0.2776  0.1362
  201MOL0     C27061  11.114   0.936  11.528 -0.5843 -0.5117  0.4165
  201MOL0     C27062  11.260   0.883  11.499  0.3889  0.1831 -0.1674
  201MOL0     C27063  11.355   0.956  11.598 -0.7399 -0.7650  0.7934
  201MOL0     C27064  11.482   0.885  11.587  0.4780  1.0994 -0.1899
  201MOL0     C27065  11.588   0.835  11.568 -0.2703  0.6101  0.1437
  201MOL0     C27066  10.713   0.715  11.579  0.6797 -0.5673 -0.3002
  201MOL0     C27067  10.609   0.634  11.534 -0.1021 -0.1610  0.1449
  201MOL0     H27068  10.270   0.351  11.253 -1.8898 -0.3969 -1.5899
  201MOL0     H27069  10.062   0.211  11.270  0.8354 -0.3337 -0.4154
  201MOL0     H27070   9.898   0.135  11.641  0.7241  0.1552 -0.0183
  201MOL0     H27071   9.747   0.112  11.563  1.1322 -1.7910 -0.9812
  201MOL0     H27072   9.997  -0.040  11.514  0.4714 -0.4479 -0.7894
  201MOL0     H27073   9.835  -0.093  11.567  0.7297  2.1484  1.5012
  201MOL0     H27074   9.916  -0.016  11.271 -0.2705 -1.2196 -0.6530
  201MOL0     H27075   9.894  -0.174  11.333  3.0916  0.5457 -0.5406
  201MOL0     H27076   9.704   0.066  11.330  2.9966 -0.5874  2.4734
  201MOL0     H27077   9.706  -0.057  11.207 -1.2581  2.8358 -0.7539
  201MOL0     H27078   9.635  -0.231  11.384  1.2105  0.5762 -2.1081
  201MOL0     H27079   9.633  -0.090  11.500  1.4724 -0.3513 -0.0751
  201MOL0     H27080   9.425  -0.145  11.284 -4.4849 -1.1908  2.6516
  201MOL0     H27081   9.412  -0.119  11.452  0.3686 -0.1229 -0.6239
  201MOL0     H27082   9.495   0.139  11.402 -0.7257  1.2025 -1.6494
  201MOL0     H27083   9.465   0.089  11.238 -0.7974  1.6787 -0.1878
  201MOL0     H27084   9.258   0.214  11.360 -1.0386  0.1145 -1.4431
  201MOL0     H27085   9.254   0.063  11.451 -1.4465  0.8996 -0.0473
  201MOL0     H27086   9.285   0.157  11.076 -0.7574  0.7622  0.3951
  201MOL0     H27087   9.116   0.077  10.842  2.7084  1.4898  1.6439
  201MOL0     H27088   8.955   0.046  10.908 -0.0346 -0.8694  0.7887
  201MOL0     H27089   9.100   0.300  10.993 -0.9586  2.9411 -0.8756
  201MOL0     H27090   8.930   0.257  11.004  1.1489 -0.9716  2.8101
  201MOL0     H27091   8.916   0.288  10.744 -2.6154 -0.3838  1.7194
  201MOL0     H27092   9.094   0.310  10.738 -2.6324 -0.7536 -2.8068
  201MOL0     H27093   8.961   0.513  10.732 -0.3606 -0.8104 -0.0211
  201MOL0     H27094   9.076   0.500  10.875 -1.0313  0.3597  0.4645
  201MOL0     H27095   8.756   0.560  10.702  0.6285  2.0488 -3.9201
  201MOL0     H27096   8.512   0.789  10.642 -0.1145  2.2385  0.5446
  201MOL0     H27097   8.641   0.896  10.614  0.7924 -0.1623  0.1049
  201MOL0     H27098   8.664   0.730  10.558  1.9747 -0.6291  1.1706
  201MOL0     H27099   8.295   1.025  11.085 -0.6023  2.4440  1.2487
  201MOL0     H27100   8.118   1.230  11.048  0.2238  0.4091  1.2653
  201MOL0     H27101   8.038   1.408  10.647 -1.5942 -1.3945 -1.1538
  201MOL0     H27102   7.941   1.277  10.699  0.5123 -0.4660 -0.2280
  201MOL0     H27103   7.791   1.464  10.740  2.2623 -2.0409 -2.4000
  201MOL0     H27104   7.855   1.431  10.899  1.3397 -0.0147  0.9166
  201MOL0     H27105   8.027   1.624  10.752 -0.9457  0.4572  0.5295
  201MOL0     H27106   7.995   1.582  10.927 -0.7990 -1.8680  0.0670
  201MOL0     H27107   7.755   1.677  10.783  0.3455  2.7015 -1.0790
  201MOL0     H27108   7.810   1.695  10.944  0.0834 -1.2242  0.4489
  201MOL0     H27109   7.811   1.910  10.837 -1.1507 -2.4014  1.4566
  201MOL0     H27110   7.920   1.864  10.714  1.4880  0.7245  1.1379
  201MOL0     H27111   7.968   1.886  11.016 -0.3632 -0.5028  0.6299
  201MOL0     H27112   8.089   1.817  10.906 -2.0909 -1.9560  0.9568
  201MOL0     H27113   7.961   2.102  10.886  0.0053 -0.2769 -1.7062
  201MOL0     H27114   8.085   2.036  10.776 -0.5892  0.3598 -0.5054
  201MOL0     H27115   8.223   1.993  10.969  0.4900  0.1537 -2.2549
  201MOL0     H27116   8.119   2.088  11.083 -1.0610  1.9367 -0.5689
  201MOL0     H27117   8.188   1.209  10.632  0.0631  2.3997  0.5274
  201MOL0     H27118   8.327   1.005  10.664 -0.0922 -0.2145 -0.0647
  201MOL0     H27119   8.677   0.843  11.109 -0.2861 -1.3645  0.5346
  201MOL0     H27120   8.809   0.648  11.123 -1.9763  3.1151  2.4116
  201MOL0     H27121   9.976   0.345  11.664  0.2757 -1.2910  0.3914
  201MOL0     H27122  10.183   0.483  11.649  0.3287  0.0334 -0.5234
  201MOL0     H27123  10.583   0.770  11.221  2.4080  0.4999 -1.4778
  201MOL0     H27124  10.774   0.885  11.290  1.1091 -0.7562  1.2272
  201MOL0     H27125  11.028   0.740  11.471  0.3193  0.1805  0.2408
  201MOL0     H27126  10.987   0.876  11.366  1.8933 -2.5565 -0.9540
  201MOL0     H27127  11.091   0.926  11.634 -0.8566 -2.9247  0.1884
  201MOL0     H27128  11.111   1.037  11.487 -0.5218  1.1488  4.1063
  201MOL0     H27129  11.277   0.908  11.394 -0.1934  1.8199  0.1019
  201MOL0     H27130  11.256   0.775  11.516  1.0127  0.1898  0.0590
  201MOL0     H27131  11.320   0.961  11.702 -1.1740  3.8807  0.6374
  201MOL0     H27132  11.366   1.062  11.573 -3.8207 -0.5050  0.1325
  201MOL0     H27133  11.684   0.788  11.567 -1.5363 -2.2130  1.6250
  201MOL0     H27134  10.739   0.719  11.684 -1.9462  2.2305  0.4062
  201MOL0     H27135  10.564   0.564  11.603  0.7595 -1.3133 -0.4385
  202MOL0     O27136  10.394   8.141   2.692  0.0718 -0.3892 -0.8001
  202MOL0     C27137  10.373   8.217   2.789  0.5946 -0.5442  0.3652
  202MOL0     O27138  10.243   8.249   2.842 -0.5735 -0.2493 -0.5134
  202MOL0     C27139  10.130   8.224   2.763 -0.5683  0.1398 -0.0475
  202MOL0     C27140  10.026   8.302   2.807 -0.8556 -0.6306  0.3040
  202MOL0     C27141   9.902   8.287   2.741  0.5061 -0.2325 -0.7318
  202MOL0     C27142   9.888   8.192   2.643  0.1525  0.2395  0.0469
  202MOL0     O27143   9.770   8.179   2.575 -0.0426 -0.2767  0.6479
  202MOL0     C27144   9.672   8.278   2.579 -0.0508 -0.2181  1.0269
  202MOL0     C27145   9.548   8.248   2.655 -0.5804  0.7287 -0.6836
  202MOL0     C27146   9.458   8.364   2.686 -0.6480  0.6580 -0.1239
  202MOL0     C27147   9.446   8.471   2.583  0.1808  0.2412  0.2084
  202MOL0     C27148   9.339   8.579   2.628  0.5570  0.3819  0.2964
  202MOL0     C27149   9.344   8.709   2.542  0.2351  0.5269 -0.5239
  202MOL0     C27150   9.206   8.771   2.524 -0.1436 -1.5372  1.1128
  202MOL0     C27151   9.202   8.906   2.448  0.3344 -0.5621 -0.1063
  202MOL0     N27152   9.265   9.016   2.524 -0.3798  0.4832 -0.6033
  202MOL0     C27153   9.198   9.100   2.606 -0.4035 -0.5479  1.0628
  202MOL0     C27154   9.287   9.189   2.653  0.3785  0.2614  0.7568
  202MOL0     C27155   9.264   9.299   2.754 -0.1186  0.0075  0.5573
  202MOL0     C27156   9.297   9.438   2.703 -1.1472 -0.1460 -0.6601
  202MOL0     C27157   9.284   9.550   2.806  0.0455 -0.2003 -0.6716
  202MOL0     C27158   9.149   9.550   2.879 -0.8580 -0.1336  0.3434
  202MOL0     O27159   9.122   9.681   2.922 -0.6590 -0.0940 -0.2735
  202MOL0     C27160   9.178   9.740   3.040  0.5774  0.4397  0.3606
  202MOL0     C27161   9.133   9.864   3.087  0.7727 -0.7432 -0.3209
  202MOL0     C27162   9.174   9.924   3.212  0.2156  0.2936 -0.5352
  202MOL0     C27163   9.096  10.036   3.268 -0.4974 -0.6709 -0.0493
  202MOL0     C27164   9.273   9.853   3.289  0.2671 -0.1323  0.5175
  202MOL0     C27165   9.320   9.904   3.428 -0.7736  0.3657 -0.0713
  202MOL0     O27166   9.370   9.801   3.511 -0.8650  0.9021 -0.8054
  202MOL0     C27167   9.389   9.823   3.645  0.0058  0.5420  0.8383
  202MOL0     C27168   9.494   9.901   3.690  0.1765  0.0948  0.4511
  202MOL0     C27169   9.528   9.893   3.821  0.0993  0.3204  0.2897
  202MOL0     C27170   9.463   9.813   3.910  0.1959  0.4838  0.8443
  202MOL0     O27171   9.488   9.839   4.040 -1.0307 -0.2354 -0.6730
  202MOL0     C27172   9.384   9.815   4.135  0.1647 -0.2189  0.0270
  202MOL0     C27173   9.431   9.833   4.275 -0.1859 -0.0348 -0.2971
  202MOL0     C27174   9.569   9.783   4.323  0.6772  0.6845 -0.4586
  202MOL0     C27175   9.561   9.753   4.474 -0.2296  0.0569 -0.0603
  202MOL0     C27176   9.701   9.714   4.528  0.7963  0.5424 -0.7555
  202MOL0     C27177   9.696   9.704   4.687 -0.2017  1.0085  1.1286
  202MOL0     C27178   9.837   9.657   4.760  0.1223  0.9253  1.1773
  202MOL0     C27179   9.833   9.692   4.917  0.1225  0.3741  0.7816
  202MOL0    Cl27180   9.884   9.860   4.925 -0.1525 -0.1050  0.1989
  202MOL0     C27181   9.358   9.731   3.866  0.0507  0.5971 -0.2231
  202MOL0     C27182   9.322   9.735   3.728  0.4817 -0.3016 -0.2718
  202MOL0     O27183   9.301  10.018   3.462  0.5928  0.1670  0.0638
  202MOL0     C27184   9.308   9.722   3.248  0.7115 -0.2470  0.4815
  202MOL0     C27185   9.275   9.674   3.119 -0.0901 -0.3344  0.0134
  202MOL0     N27186   9.403   9.169   2.585  0.3229 -0.2648 -0.0304
  202MOL0     N27187   9.385   9.070   2.501 -0.5396  0.4417 -1.2079
  202MOL0     C27188   9.991   8.108   2.608 -0.4576 -0.0701 -0.5684
  202MOL0     C27189  10.113   8.128   2.663  0.1594  0.3130  0.2836
  202MOL0     C27190  10.495   8.264   2.864  0.5483 -0.3387  0.0190
  202MOL0     C27191  10.621   8.202   2.845 -0.3329  0.0483  0.3129
  202MOL0     C27192  10.725   8.250   2.918  0.1068 -0.7279  0.0008
  202MOL0     C27193  10.714   8.354   3.015  0.1750 -0.4602 -0.2156
  202MOL0     O27194  10.823   8.397   3.087 -0.4445  0.7347 -0.2309
  202MOL0     C27195  10.953   8.366   3.042  0.0559  0.2552 -0.3190
  202MOL0     C27196  11.049   8.477   3.095  0.2484 -0.7485 -0.9639
  202MOL0     C27197  11.080   8.442   3.236 -0.6730 -0.5167 -1.1172
  202MOL0     C27198  11.177   8.539   3.310 -0.1563 -0.1092  0.5735
  202MOL0     C27199  11.237   8.450   3.408  0.0943 -0.1109  0.4033
  202MOL0     C27200  11.298   8.391   3.492 -0.2608 -0.4690  0.0382
  202MOL0     C27201  10.588   8.403   3.049  0.3451 -0.0985  0.5963
  202MOL0     C27202  10.487   8.364   2.964 -0.3652 -1.7018  0.0350
  202MOL0     H27203  10.037   8.366   2.894 -0.0567  0.0941 -0.3198
  202MOL0     H27204   9.811   8.327   2.785 -0.2709  1.7419 -3.8534
  202MOL0     H27205   9.707   8.379   2.604  0.0453 -0.2364  0.9668
  202MOL0     H27206   9.645   8.298   2.475  2.6150  0.2736  0.3570
  202MOL0     H27207   9.492   8.170   2.603  0.6892 -0.5993 -0.1407
  202MOL0     H27208   9.585   8.206   2.749  1.2310  1.0186 -1.2219
  202MOL0     H27209   9.360   8.330   2.722 -0.0386  0.3397  1.3323
  202MOL0     H27210   9.507   8.411   2.772 -1.7312  2.2243 -0.3260
  202MOL0     H27211   9.543   8.518   2.568 -0.0640  1.1262  1.3074
  202MOL0     H27212   9.421   8.428   2.485  3.2099 -1.7552  0.1736
  202MOL0     H27213   9.244   8.529   2.609  0.2986  0.6076  0.9573
  202MOL0     H27214   9.336   8.588   2.737 -3.6585  0.4971  0.3293
  202MOL0     H27215   9.404   8.781   2.597 -2.9689  2.9656  0.1104
  202MOL0     H27216   9.392   8.692   2.446  0.0367 -0.5456 -0.4478
  202MOL0     H27217   9.139   8.704   2.469 -0.2970  0.5647 -1.4526
  202MOL0     H27218   9.156   8.791   2.619 -1.4915 -2.1999  0.5772
  202MOL0     H27219   9.105   8.939   2.411  0.1877 -0.2475  0.5376
  202MOL0     H27220   9.257   8.896   2.354  0.9563  2.8843 -0.2475
  202MOL0     H27221   9.093   9.095   2.632 -0.7530  3.8683  1.2096
  202MOL0     H27222   9.157   9.299   2.778 -0.1464  0.6125  0.4473
  202MOL0     H27223   9.317   9.263   2.842 -0.1438  0.1017  0.6112
  202MOL0     H27224   9.223   9.465   2.627 -1.6076  1.8384  0.4209
  202MOL0     H27225   9.398   9.444   2.660 -0.7460  0.0399  0.2889
  202MOL0     H27226   9.297   9.648   2.758 -0.6881 -0.0071 -0.4919
  202MOL0     H27227   9.373   9.547   2.869  1.6104  0.3798 -2.7382
  202MOL0     H27228   9.144   9.482   2.965 -1.2867  1.4657  1.6520
  202MOL0     H27229   9.073   9.526   2.804  0.6083  1.6319 -1.8412
  202MOL0     H27230   9.073   9.930   3.025  0.8358 -1.4609 -1.1650
  202MOL0     H27231   8.996  10.046   3.224 -0.8603 -0.8526  0.6996
  202MOL0     H27232   9.063  10.016   3.371 -0.4874 -3.2177 -0.4717
  202MOL0     H27233   9.165  10.120   3.269  1.0414 -1.8775 -0.1897
  202MOL0     H27234   9.546   9.969   3.623  0.8778 -3.2804 -2.7978
  202MOL0     H27235   9.592   9.972   3.858  0.2166  0.0153  0.7471
  202MOL0     H27236   9.304   9.888   4.117 -1.2630 -1.6327  0.4173
  202MOL0     H27237   9.354   9.711   4.121 -0.1568 -0.2520  0.8605
  202MOL0     H27238   9.423   9.939   4.300 -2.5522 -0.5184  1.3866
  202MOL0     H27239   9.360   9.782   4.341  0.4738  1.8273  1.9990
  202MOL0     H27240   9.642   9.859   4.295  2.9781 -0.3651  2.2464
  202MOL0     H27241   9.610   9.699   4.267  1.2188  1.3001 -1.0049
  202MOL0     H27242   9.518   9.841   4.524 -1.3420  0.3052 -1.4175
  202MOL0     H27243   9.487   9.673   4.487  1.0008 -1.2900 -1.0016
  202MOL0     H27244   9.772   9.791   4.495 -0.8887  2.0170 -1.1080
  202MOL0     H27245   9.736   9.620   4.485 -0.4258 -0.4770  0.3884
  202MOL0     H27246   9.668   9.799   4.735 -0.9964  1.2842  0.1465
  202MOL0     H27247   9.622   9.625   4.700 -0.0383  0.6232 -0.1341
  202MOL0     H27248   9.909   9.716   4.702 -0.6929  0.8877  0.1027
  202MOL0     H27249   9.856   9.550   4.748 -0.9579  0.8496 -0.0286
  202MOL0     H27250   9.886   9.618   4.978  0.6502  0.4673  0.4376
  202MOL0     H27251   9.725   9.695   4.939  0.1608  1.1631  0.8807
  202MOL0     H27252   9.298   9.664   3.927  0.0209  0.9819  0.1725
  202MOL0     H27253   9.242   9.674   3.687  0.1258  0.0462 -0.0975
  202MOL0     H27254   9.369   9.665   3.317  1.1147  1.2074  1.3756
  202MOL0     H27255   9.308   9.575   3.090  1.5498  0.6099 -1.5485
  202MOL0     H27256   9.983   8.026   2.536  1.4969  0.1930 -1.1641
  202MOL0     H27257  10.181   8.052   2.626 -2.9702 -2.7772  0.3339
  202MOL0     H27258  10.633   8.112   2.786 -0.1817  0.8340 -0.8705
  202MOL0     H27259  10.822   8.203   2.900 -0.6262 -2.8819  1.2558
  202MOL0     H27260  10.997   8.270   3.071 -0.5108  0.7422  2.4603
  202MOL0     H27261  10.956   8.385   2.934  0.7304  1.8913 -0.0482
  202MOL0     H27262  10.998   8.574   3.093 -0.7570 -0.9067  4.0642
  202MOL0     H27263  11.136   8.484   3.029  1.4370  2.7686  0.6943
  202MOL0     H27264  11.112   8.337   3.228 -0.8417 -0.7433  0.6965
  202MOL0     H27265  10.984   8.451   3.288 -0.6423  1.5772 -1.3713
  202MOL0     H27266  11.122   8.620   3.357 -1.3757 -0.8164  0.4080
  202MOL0     H27267  11.262   8.578   3.252 -0.3549  2.2729  1.7682
  202MOL0     H27268  11.347   8.323   3.559 -0.7509 -1.7072 -0.8387
  202MOL0     H27269  10.584   8.482   3.122 -2.5305  2.1075 -1.7204
  202MOL0     H27270  10.394   8.419   2.976 -1.2104 -3.1023  0.1027
  203MOL0     O27271   7.180   0.470   8.291  0.5125  0.2929  0.3708
  203MOL0     C27272   7.108   0.417   8.381  0.0921 -1.1449  0.5619
  203MOL0     O27273   7.146   0.404   8.515  0.2465 -0.2429  0.1906
  203MOL0     C27274   7.268   0.442   8.560  0.6695  0.1663  0.9136
  203MOL0     C27275   7.391   0.429   8.493 -0.5995 -1.2138 -0.1231
  203MOL0     C27276   7.510   0.470   8.557  0.1038 -0.5159  0.1384
  203MOL0     C27277   7.495   0.544   8.679  0.9826  0.1218  0.3266
  203MOL0     O27278   7.599   0.601   8.754  0.2369 -0.1492  0.2914
  203MOL0     C27279   7.731   0.541   8.741 -0.6124 -0.3513  0.1342
  203MOL0     C27280   7.806   0.603   8.849  0.4598 -0.2127  0.1454
  203MOL0     C27281   7.952   0.571   8.839  0.4834  0.4446 -0.4273
  203MOL0     C27282   8.021   0.667   8.739  0.1023 -0.6717  1.2761
  203MOL0     C27283   8.173   0.619   8.706  0.5217 -0.6635 -0.0432
  203MOL0     C27284   8.267   0.635   8.831  0.0990  0.2596  0.1398
  203MOL0     C27285   8.321   0.780   8.833 -0.1138 -0.4007  0.2316
  203MOL0     C27286   8.417   0.813   8.944  0.3415  0.4704 -0.1661
  203MOL0     N27287   8.482   0.940   8.912 -0.1646 -0.2419  0.1853
  203MOL0     C27288   8.429   1.058   8.869 -0.4204 -0.0860 -0.1475
  203MOL0     C27289   8.533   1.146   8.854  0.0151 -0.6515 -0.3585
  203MOL0     C27290   8.523   1.297   8.825  1.0041  0.4350  0.6840
  203MOL0     C27291   8.535   1.390   8.945  0.2670 -0.6487  0.5832
  203MOL0     C27292   8.406   1.468   8.981  0.0654  1.1197 -0.5903
  203MOL0     C27293   8.367   1.580   8.879 -1.0579  0.3412 -0.0009
  203MOL0     O27294   8.241   1.613   8.921 -0.2232 -0.1503  0.6255
  203MOL0     C27295   8.180   1.708   8.850  1.3732 -0.3709  0.8317
  203MOL0     C27296   8.053   1.729   8.906  0.6371  0.5826  0.8560
  203MOL0     C27297   7.954   1.803   8.856 -0.5857 -0.2265  0.2614
  203MOL0     C27298   7.817   1.783   8.912  0.3387 -0.0868 -0.5295
  203MOL0     C27299   7.985   1.869   8.738 -0.8895  0.4584  0.3557
  203MOL0     C27300   7.896   1.959   8.668 -0.7001 -0.7570 -0.3032
  203MOL0     O27301   7.809   2.017   8.748  0.4158  0.3214  0.3725
  203MOL0     C27302   7.700   2.072   8.688  0.4105  0.2978  0.9161
  203MOL0     C27303   7.580   1.990   8.668  0.4917 -0.4126 -0.2783
  203MOL0     C27304   7.473   2.045   8.603  0.1952 -0.6805  0.2623
  203MOL0     C27305   7.480   2.179   8.562 -0.1474 -0.1676  0.2034
  203MOL0     O27306   7.374   2.236   8.498  1.0885  0.4389 -0.2456
  203MOL0     C27307   7.386   2.297   8.364 -0.6066  0.2958 -0.0339
  203MOL0     C27308   7.268   2.363   8.306  0.0573  0.2223 -0.3699
  203MOL0     C27309   7.138   2.271   8.298 -1.1344  0.4459 -0.2562
  203MOL0     C27310   7.150   2.133   8.216  0.0156 -0.4214 -0.4501
  203MOL0     C27311   7.006   2.068   8.189 -0.3822 -0.1805 -0.4480
  203MOL0     C27312   7.009   1.927   8.138 -0.2448  0.0086  0.3288
  203MOL0     C27313   6.878   1.849   8.137 -0.3820 -0.4571 -1.3108
  203MOL0     C27314   6.888   1.694   8.137 -0.2024 -0.2322  0.5051
  203MOL0    Cl27315   6.990   1.624   8.265 -0.1387 -0.1437 -0.7277
  203MOL0     C27316   7.593   2.256   8.576 -0.0760 -0.1671  0.1901
  203MOL0     C27317   7.707   2.203   8.637 -0.3460 -0.0216  0.0315
  203MOL0     O27318   7.904   1.977   8.545 -0.4504  0.2355  0.7854
  203MOL0     C27319   8.103   1.843   8.667 -0.4604  0.4425  0.6827
  203MOL0     C27320   8.209   1.771   8.731  0.4797  0.5915  0.6184
  203MOL0     N27321   8.643   1.065   8.883 -0.7320 -0.2635  0.3745
  203MOL0     N27322   8.610   0.955   8.931  1.0606 -0.3400 -0.2584
  203MOL0     C27323   7.373   0.558   8.751 -0.0428 -1.0169  0.3632
  203MOL0     C27324   7.265   0.501   8.682  0.0963  0.4609  0.1989
  203MOL0     C27325   6.972   0.392   8.344 -0.1391  0.7857  0.5083
  203MOL0     C27326   6.927   0.399   8.213  0.0978 -0.4294  0.8631
  203MOL0     C27327   6.797   0.374   8.179 -0.9383  0.6399 -0.7434
  203MOL0     C27328   6.709   0.341   8.281 -0.1725 -0.3933 -0.4940
  203MOL0     O27329   6.583   0.314   8.238  0.1786 -0.4125 -0.7956
  203MOL0     C27330   6.493   0.270   8.338 -0.0337 -0.1537 -0.5791
  203MOL0     C27331   6.364   0.228   8.264 -0.2851  0.0846 -0.6225
  203MOL0     C27332   6.394   0.097   8.195 -0.4366 -0.2898 -0.3116
  203MOL0     C27333   6.280   0.047   8.096 -0.1995 -1.0822 -0.9668
  203MOL0     C27334   6.303  -0.092   8.063  0.2669 -0.2061 -0.1610
  203MOL0     C27335   6.305  -0.203   8.028  0.9846  0.4355 -0.5852
  203MOL0     C27336   6.756   0.308   8.404 -0.0589 -0.1607 -0.2864
  203MOL0     C27337   6.886   0.338   8.437  1.0210  0.4077  0.8265
  203MOL0     H27338   7.404   0.393   8.391  0.2897  1.1831 -0.9265
  203MOL0     H27339   7.599   0.445   8.502 -0.5477 -0.1033 -1.1389
  203MOL0     H27340   7.722   0.432   8.750 -3.3773 -0.6829 -3.8713
  203MOL0     H27341   7.779   0.551   8.643 -0.7281 -2.6700 -0.2313
  203MOL0     H27342   7.800   0.712   8.855  1.0476 -0.2396  1.7360
  203MOL0     H27343   7.769   0.564   8.944 -0.2018 -1.6549 -0.6780
  203MOL0     H27344   7.995   0.591   8.937 -2.1613 -0.2223  0.9774
  203MOL0     H27345   7.965   0.464   8.822 -4.1373 -0.4400  0.3056
  203MOL0     H27346   7.959   0.664   8.649 -0.4358 -1.1766  1.6566
  203MOL0     H27347   8.003   0.772   8.762 -2.2612 -1.0430  1.3973
  203MOL0     H27348   8.187   0.513   8.684  2.9458 -0.2349 -0.7902
  203MOL0     H27349   8.219   0.669   8.620  2.3113 -1.9116  0.1459
  203MOL0     H27350   8.209   0.627   8.924  0.2365  0.8527  0.2862
  203MOL0     H27351   8.345   0.559   8.833  0.1811  0.2291 -2.1089
  203MOL0     H27352   8.372   0.797   8.738  0.9863 -4.3506 -0.0572
  203MOL0     H27353   8.240   0.853   8.842 -1.4376 -1.7888 -0.0159
  203MOL0     H27354   8.495   0.736   8.945 -0.7698 -0.8542 -3.1698
  203MOL0     H27355   8.373   0.805   9.044  0.5623 -1.0539 -0.1537
  203MOL0     H27356   8.324   1.083   8.865 -0.3421  0.4608  0.7171
  203MOL0     H27357   8.600   1.331   8.755  2.5939 -0.9928  1.6500
  203MOL0     H27358   8.419   1.298   8.794  0.5890 -1.4088  1.8835
  203MOL0     H27359   8.603   1.473   8.926 -0.2290 -0.8260 -2.5927
  203MOL0     H27360   8.574   1.343   9.035  3.1039  3.8832  2.0705
  203MOL0     H27361   8.413   1.527   9.073  1.2518  0.3514 -0.1655
  203MOL0     H27362   8.330   1.390   8.985  0.1672  1.0463 -0.0249
  203MOL0     H27363   8.380   1.552   8.774  0.3514  1.5694 -0.1890
  203MOL0     H27364   8.428   1.671   8.878 -1.0689  0.6140 -5.4464
  203MOL0     H27365   8.039   1.669   8.995  0.3225  0.7424  0.9136
  203MOL0     H27366   7.742   1.765   8.834 -1.1483 -1.6131  1.1418
  203MOL0     H27367   7.825   1.689   8.967 -1.3565 -1.0055 -1.7601
  203MOL0     H27368   7.783   1.867   8.973 -1.7374 -0.9386 -0.4159
  203MOL0     H27369   7.569   1.887   8.701 -1.0013 -0.4963 -0.9869
  203MOL0     H27370   7.372   2.009   8.592 -0.2657  0.6873 -0.1545
  203MOL0     H27371   7.460   2.377   8.372 -2.3213  1.8818  0.6668
  203MOL0     H27372   7.417   2.219   8.294  1.2981 -1.0800  2.1735
  203MOL0     H27373   7.253   2.437   8.385  0.2828 -2.1226  2.0037
  203MOL0     H27374   7.272   2.397   8.202 -3.6527 -1.9085 -1.4112
  203MOL0     H27375   7.062   2.335   8.251 -1.5994 -1.1248 -1.7399
  203MOL0     H27376   7.100   2.249   8.398 -2.2019 -1.0086 -0.9380
  203MOL0     H27377   7.189   2.155   8.116 -1.2404  0.7957 -0.7136
  203MOL0     H27378   7.227   2.064   8.250  0.4635  0.7311  1.0014
  203MOL0     H27379   6.957   2.145   8.127 -0.3919  2.6248  2.7448
  203MOL0     H27380   6.944   2.069   8.279 -2.4017  3.7987 -1.6210
  203MOL0     H27381   7.029   1.932   8.030 -2.4849  2.4242 -0.0603
  203MOL0     H27382   7.080   1.867   8.196 -2.9376 -0.3027  3.5217
  203MOL0     H27383   6.809   1.871   8.055 -2.0270 -0.4980  0.0212
  203MOL0     H27384   6.825   1.877   8.229  1.0915  0.0568 -0.5824
  203MOL0     H27385   6.929   1.669   8.038 -2.4876 -1.9808 -0.1105
  203MOL0     H27386   6.790   1.646   8.125  0.4485 -0.9641 -4.0431
  203MOL0     H27387   7.604   2.360   8.548  0.2804 -0.7540 -2.0062
  203MOL0     H27388   7.799   2.257   8.654 -0.2562 -0.5460  1.3055
  203MOL0     H27389   8.118   1.878   8.565  1.4961 -0.0992  0.7378
  203MOL0     H27390   8.297   1.751   8.670 -0.4021  0.8045 -0.7543
  203MOL0     H27391   7.362   0.615   8.843  1.7114  1.1330 -0.6806
  203MOL0     H27392   7.165   0.498   8.724  0.0864  1.3677  0.2586
  203MOL0     H27393   7.000   0.415   8.134  0.9737 -0.3281  1.6691
  203MOL0     H27394   6.771   0.371   8.073  0.4171 -3.9162 -1.1602
  203MOL0     H27395   6.540   0.179   8.376  0.7157 -1.1743 -3.6880
  203MOL0     H27396   6.477   0.339   8.422 -0.2686  1.4589 -1.8905
  203MOL0     H27397   6.308   0.298   8.201 -0.2397  2.4082  1.7167
  203MOL0     H27398   6.297   0.203   8.347 -1.4383 -1.8388 -2.0267
  203MOL0     H27399   6.407   0.021   8.273  0.8988 -0.1862 -0.3977
  203MOL0     H27400   6.491   0.105   8.143 -0.9343  1.9779 -1.0258
  203MOL0     H27401   6.290   0.107   8.005  4.5893 -2.6173 -1.7325
  203MOL0     H27402   6.177   0.052   8.133 -0.1157  2.7499 -0.8132
  203MOL0     H27403   6.316  -0.304   7.995 -0.0556  0.1258 -0.0055
  203MOL0     H27404   6.699   0.268   8.488  1.3004  0.4535  0.9629
  203MOL0     H27405   6.915   0.318   8.540  2.2633  3.0397  1.0557
  204MOL0     O27406   6.609   8.226  10.492  0.0490  0.4675  0.6160
  204MOL0     C27407   6.506   8.162  10.451  0.8488  0.2935  1.2054
  204MOL0     O27408   6.475   8.126  10.321  0.4858  0.1858  0.6629
  204MOL0     C27409   6.535   8.187  10.214  0.3378  0.6012 -0.9908
  204MOL0     C27410   6.586   8.320  10.197  0.1369  0.0311  0.3147
  204MOL0     C27411   6.640   8.357  10.070  0.4233 -0.0501  0.0825
  204MOL0     C27412   6.650   8.270   9.961  0.1125 -0.4811 -0.6458
  204MOL0     O27413   6.715   8.299   9.838 -0.0036  0.5426  0.0276
  204MOL0     C27414   6.736   8.438   9.796  0.7871  0.1647 -0.5337
  204MOL0     C27415   6.868   8.505   9.844  0.9679  0.8386  0.2000
  204MOL0     C27416   6.995   8.427   9.805  0.5010 -0.4519 -0.0430
  204MOL0     C27417   7.105   8.512   9.748 -0.6986  0.4758  0.2727
  204MOL0     C27418   7.241   8.444   9.713 -0.0864  0.4067  0.2156
  204MOL0     C27419   7.330   8.545   9.642  0.7178  0.8435  0.5855
  204MOL0     C27420   7.445   8.477   9.564 -0.2215 -0.0722 -0.8259
  204MOL0     C27421   7.556   8.569   9.507 -0.0558 -0.4194 -0.4051
  204MOL0     N27422   7.528   8.674   9.406  0.8693 -0.6394 -0.0990
  204MOL0     C27423   7.607   8.731   9.301 -0.1425  0.4502  0.7173
  204MOL0     C27424   7.519   8.791   9.212 -0.0226 -0.0298 -0.1202
  204MOL0     C27425   7.567   8.857   9.083  0.3826 -0.1221 -0.1693
  204MOL0     C27426   7.613   8.761   8.975 -0.4538  0.4794  0.0772
  204MOL0     C27427   7.627   8.842   8.841  0.4945 -0.7170  0.2556
  204MOL0     C27428   7.719   8.783   8.735  0.3014 -0.6909  0.6356
  204MOL0     O27429   7.683   8.654   8.690 -0.6215  0.6770 -0.3401
  204MOL0     C27430   7.757   8.583   8.595 -0.1697 -1.1351 -0.2554
  204MOL0     C27431   7.720   8.450   8.559  0.0394 -0.7587 -0.3181
  204MOL0     C27432   7.785   8.381   8.458 -0.1793  0.9577 -0.6044
  204MOL0     C27433   7.732   8.249   8.423 -0.7216 -0.8337 -0.0339
  204MOL0     C27434   7.903   8.432   8.402  0.0250  0.8621 -0.6512
  204MOL0     C27435   7.997   8.358   8.318  0.0679 -0.0755 -0.8982
  204MOL0     O27436   7.954   8.263   8.237 -0.1456 -0.1548 -0.2291
  204MOL0     C27437   8.041   8.187   8.163 -0.4188 -0.3907 -0.0707
  204MOL0     C27438   8.103   8.073   8.220 -1.1284 -0.9300  0.2084
  204MOL0     C27439   8.216   8.009   8.159  0.7197  0.1519 -0.6850
  204MOL0     C27440   8.265   8.064   8.037 -0.2078 -1.0510  0.9804
  204MOL0     O27441   8.371   8.012   7.979 -0.2186  0.8901 -0.4051
  204MOL0     C27442   8.485   8.098   7.963 -1.1680 -0.4681 -0.1264
  204MOL0     C27443   8.563   8.050   7.851 -0.2141  0.4477  0.0702
  204MOL0     C27444   8.603   7.902   7.882  0.4633 -0.5296  0.7265
  204MOL0     C27445   8.706   7.851   7.800  0.3757 -0.2378 -0.1341
  204MOL0     C27446   8.712   7.702   7.818 -0.3781 -0.3735  0.7015
  204MOL0     C27447   8.751   7.660   7.961 -0.3612  0.1558  0.1216
  204MOL0     C27448   8.804   7.512   7.969 -0.5566  0.4913  0.4620
  204MOL0     C27449   8.790   7.455   8.102 -0.1464  0.9245 -0.1841
  204MOL0    Cl27450   8.918   7.531   8.207  0.0713 -0.3590 -0.1521
  204MOL0     C27451   8.198   8.181   7.980 -0.1368  0.1627 -0.1397
  204MOL0     C27452   8.093   8.240   8.044  0.6467  0.2948 -0.6290
  204MOL0     O27453   8.118   8.396   8.328  0.2294  0.9941  0.2624
  204MOL0     C27454   7.939   8.566   8.440 -1.2055  0.6623 -0.3763
  204MOL0     C27455   7.861   8.647   8.519 -0.0245  0.4077  0.3048
  204MOL0     N27456   7.393   8.792   9.272 -0.4134 -0.0305 -0.7194
  204MOL0     N27457   7.404   8.730   9.385  0.0059  0.0909 -0.4373
  204MOL0     C27458   6.595   8.139   9.980  0.2640 -1.1126  0.2095
  204MOL0     C27459   6.529   8.109  10.100 -0.5826  0.4227  0.1826
  204MOL0     C27460   6.412   8.109  10.556 -0.4828  0.0183 -0.2343
  204MOL0     C27461   6.445   8.120  10.690  0.5657  0.9856 -0.2385
  204MOL0     C27462   6.371   8.061  10.794 -1.0266  0.1772 -0.0357
  204MOL0     C27463   6.256   7.981  10.753  0.2186 -0.3600 -0.9113
  204MOL0     O27464   6.196   7.925  10.858 -0.5972  0.8166 -0.1386
  204MOL0     C27465   6.059   7.938  10.857 -0.3326  0.1949 -0.7721
  204MOL0     C27466   6.004   7.992  10.996 -0.1901  0.3871  0.6187
  204MOL0     C27467   5.950   8.134  11.000 -0.9279 -0.5066  0.6995
  204MOL0     C27468   5.850   8.182  11.112 -0.0512  1.0596  0.0815
  204MOL0     C27469   5.923   8.177  11.243 -0.2388  0.1439 -0.1644
  204MOL0     C27470   6.007   8.160  11.332 -0.2263  0.0922 -0.0601
  204MOL0     C27471   6.219   7.977  10.619 -0.1658 -0.3998  0.6937
  204MOL0     C27472   6.294   8.039  10.518 -0.3985 -0.5035 -0.4268
  204MOL0     H27473   6.601   8.381  10.286 -0.3546 -0.6548  0.8773
  204MOL0     H27474   6.678   8.458  10.073 -1.7638  0.9130  4.3906
  204MOL0     H27475   6.732   8.447   9.687  1.4494 -0.8181 -0.6500
  204MOL0     H27476   6.649   8.491   9.835 -0.6632 -1.3576 -1.6066
  204MOL0     H27477   6.884   8.600   9.792 -1.1059  0.3760 -1.3972
  204MOL0     H27478   6.866   8.522   9.952 -1.5350  0.7380  0.2234
  204MOL0     H27479   7.031   8.385   9.899  1.4259  1.7585  0.6536
  204MOL0     H27480   6.958   8.357   9.729 -2.5463  0.3505  0.5674
  204MOL0     H27481   7.059   8.549   9.656  0.6179  0.7408 -0.2946
  204MOL0     H27482   7.120   8.585   9.828 -3.1959  0.3831  0.9107
  204MOL0     H27483   7.289   8.402   9.801 -0.2545 -0.8644 -0.2695
  204MOL0     H27484   7.215   8.364   9.642  1.4547 -1.0575  1.2290
  204MOL0     H27485   7.265   8.606   9.578 -1.3270 -4.0286 -2.5848
  204MOL0     H27486   7.366   8.595   9.732  2.7227  2.9083 -1.2497
  204MOL0     H27487   7.487   8.403   9.634 -2.7638 -0.7513  0.0921
  204MOL0     H27488   7.398   8.425   9.480 -0.5747  0.0834 -0.7257
  204MOL0     H27489   7.622   8.490   9.470 -0.9989 -2.1704  1.4195
  204MOL0     H27490   7.604   8.618   9.593  2.4238 -1.9744 -0.8020
  204MOL0     H27491   7.714   8.717   9.291 -0.4915 -2.4792  0.1951
  204MOL0     H27492   7.477   8.913   9.054  0.1562 -1.7463 -3.0637
  204MOL0     H27493   7.648   8.924   9.111 -0.2408  0.5794 -0.0093
  204MOL0     H27494   7.537   8.682   8.970  1.2437 -1.1325 -1.7583
  204MOL0     H27495   7.713   8.731   9.006 -0.4909  0.1848 -0.0847
  204MOL0     H27496   7.658   8.944   8.864  0.2123 -0.3526 -0.9145
  204MOL0     H27497   7.524   8.852   8.805  0.3570  2.9276  1.2947
  204MOL0     H27498   7.814   8.783   8.789 -0.4667 -2.7251  2.0912
  204MOL0     H27499   7.715   8.859   8.656 -1.2825 -0.7975  0.5835
  204MOL0     H27500   7.639   8.404   8.615 -1.2677  0.4002 -1.1924
  204MOL0     H27501   7.812   8.175   8.437  2.6674  1.7585 -3.4201
  204MOL0     H27502   7.639   8.222   8.474 -1.8776  1.7782 -0.5897
  204MOL0     H27503   7.693   8.246   8.321 -1.8922  2.0723  0.2335
  204MOL0     H27504   8.083   8.024   8.315 -0.3636 -0.2840  0.7200
  204MOL0     H27505   8.276   7.935   8.210  2.0184  2.0797  0.7199
  204MOL0     H27506   8.452   8.201   7.944  0.7046  0.3905  0.9770
  204MOL0     H27507   8.551   8.105   8.050 -2.7319  0.4211  1.0270
  204MOL0     H27508   8.490   8.046   7.770 -1.6410 -1.6658  1.3531
  204MOL0     H27509   8.653   8.105   7.822  0.6643 -1.1532 -0.4059
  204MOL0     H27510   8.511   7.845   7.866 -0.6398  0.3289  3.4650
  204MOL0     H27511   8.632   7.892   7.988  0.0291 -1.9815  0.7374
  204MOL0     H27512   8.683   7.881   7.698 -1.4668  2.3657  0.9415
  204MOL0     H27513   8.803   7.890   7.832 -0.5023 -0.9218  4.0198
  204MOL0     H27514   8.785   7.674   7.741 -0.2065 -0.8267  1.0199
  204MOL0     H27515   8.623   7.650   7.782  0.4635 -1.0994 -0.3852
  204MOL0     H27516   8.831   7.727   7.995  0.9408 -0.1613 -2.1619
  204MOL0     H27517   8.667   7.673   8.030 -0.6961  1.1404 -0.4473
  204MOL0     H27518   8.906   7.490   7.938  0.0287  0.8060  2.0696
  204MOL0     H27519   8.740   7.446   7.909 -0.1012  0.0536  0.4487
  204MOL0     H27520   8.806   7.346   8.099  1.3435  1.0810 -3.9153
  204MOL0     H27521   8.694   7.478   8.150  0.1876 -0.3382  1.1735
  204MOL0     H27522   8.231   8.220   7.884  1.6179  2.2314  1.1956
  204MOL0     H27523   8.037   8.323   8.001 -2.7496 -1.8000 -0.6639
  204MOL0     H27524   8.023   8.607   8.385  0.4754 -0.1572  1.4541
  204MOL0     H27525   7.876   8.750   8.548 -1.3461  1.1262 -1.3723
  204MOL0     H27526   6.585   8.067   9.899  0.5525  1.8826 -2.7230
  204MOL0     H27527   6.485   8.013  10.123  1.9813 -0.5263  1.4115
  204MOL0     H27528   6.542   8.151  10.727  2.5962 -3.5139 -1.1070
  204MOL0     H27529   6.383   8.083  10.899  0.1931 -2.0944  0.3730
  204MOL0     H27530   6.035   8.012  10.781  1.5800 -0.5280 -2.1499
  204MOL0     H27531   6.007   7.847  10.825 -0.6995 -0.1496  0.7051
  204MOL0     H27532   6.090   7.982  11.062 -1.6127  0.3251  2.5354
  204MOL0     H27533   5.931   7.919  11.033  0.2644  0.9873  2.8484
  204MOL0     H27534   5.888   8.138  10.910  1.1953  1.1257 -0.7739
  204MOL0     H27535   6.043   8.191  10.993  0.3408 -2.5215  0.1545
  204MOL0     H27536   5.762   8.119  11.101  1.4662 -0.6322 -4.5855
  204MOL0     H27537   5.815   8.284  11.091  0.0252  1.4491  1.7083
  204MOL0     H27538   6.091   8.133  11.392 -0.9258 -0.1274  0.8346
  204MOL0     H27539   6.128   7.933  10.580  1.4637 -3.3011 -0.1226
  204MOL0     H27540   6.258   8.034  10.416 -1.7360 -2.0549  0.0696
  205MOL0     O27541   7.615   1.571   2.944 -0.9908  0.1998 -0.6829
  205MOL0     C27542   7.710   1.601   3.013 -0.7611  0.0590  0.1389
  205MOL0     O27543   7.711   1.664   3.133 -0.8732  0.0393 -0.0355
  205MOL0     C27544   7.600   1.732   3.169  0.2164  0.4450  0.1543
  205MOL0     C27545   7.535   1.697   3.289  0.0233 -0.3283  0.1164
  205MOL0     C27546   7.428   1.773   3.339 -0.5065  0.3016  0.1496
  205MOL0     C27547   7.390   1.890   3.279 -0.7048 -0.1801 -0.4521
  205MOL0     O27548   7.293   1.982   3.323 -0.5006  0.5451  0.3100
  205MOL0     C27549   7.160   1.926   3.329  1.0648  0.3150  0.0089
  205MOL0     C27550   7.069   2.034   3.367  0.0847  0.0678 -0.9802
  205MOL0     C27551   7.076   2.101   3.504 -0.7100  0.8014 -0.3840
  205MOL0     C27552   7.041   2.007   3.618 -0.1815 -0.1556 -1.1116
  205MOL0     C27553   7.044   2.083   3.753 -0.6595  0.7036  0.4708
  205MOL0     C27554   7.060   1.980   3.866 -0.2439  0.5995 -0.9716
  205MOL0     C27555   7.052   2.045   4.005 -0.4406 -0.9805  0.6366
  205MOL0     C27556   7.062   1.946   4.121 -0.1255  0.4334 -0.3222
  205MOL0     N27557   7.042   2.009   4.250  0.1279 -0.3470 -0.5949
  205MOL0     C27558   7.119   2.105   4.313 -0.5271  0.5913  0.4018
  205MOL0     C27559   7.057   2.134   4.429  0.0533 -0.2478 -0.0295
  205MOL0     C27560   7.074   2.251   4.516 -0.2964 -0.5025  0.4318
  205MOL0     C27561   7.178   2.222   4.626  0.7896 -1.1406 -0.5186
  205MOL0     C27562   7.164   2.090   4.694 -0.2662 -0.2607 -0.2123
  205MOL0     C27563   7.260   2.099   4.815 -0.2112  0.0680 -0.9399
  205MOL0     O27564   7.393   2.066   4.772  0.7658  0.1282  0.0897
  205MOL0     C27565   7.474   2.175   4.746 -1.4632 -0.2769  0.0400
  205MOL0     C27566   7.514   2.261   4.850  1.4341 -0.1184 -0.5779
  205MOL0     C27567   7.608   2.361   4.830 -0.4773 -0.0812 -0.8806
  205MOL0     C27568   7.663   2.434   4.953 -0.0812 -0.0596 -0.3189
  205MOL0     C27569   7.655   2.376   4.696  0.2641 -0.8107  0.2445
  205MOL0     C27570   7.760   2.470   4.661 -0.8945 -0.2622 -0.4103
  205MOL0     O27571   7.864   2.454   4.742 -0.3139 -0.7876  0.0596
  205MOL0     C27572   7.989   2.510   4.706 -0.2437  0.2255  0.1957
  205MOL0     C27573   8.049   2.496   4.584 -0.3466  0.1776  0.0466
  205MOL0     C27574   8.185   2.533   4.566  0.0304  0.3662  0.6763
  205MOL0     C27575   8.267   2.574   4.667  0.2415  0.6538  0.2949
  205MOL0     O27576   8.400   2.596   4.653 -0.2929  0.0616 -0.7974
  205MOL0     C27577   8.456   2.672   4.550  0.0176 -0.4202  0.0019
  205MOL0     C27578   8.568   2.760   4.591 -0.5156 -0.2089  0.4364
  205MOL0     C27579   8.678   2.700   4.670  0.4143  0.2638 -0.9921
  205MOL0     C27580   8.762   2.809   4.732  0.0485 -0.3083 -0.8773
  205MOL0     C27581   8.877   2.754   4.817  0.1275 -0.0621  0.7056
  205MOL0     C27582   8.940   2.857   4.907  0.0401  0.3287 -0.2962
  205MOL0     C27583   8.997   2.978   4.841  0.7288 -0.3027 -1.4131
  205MOL0     C27584   9.115   2.948   4.745  0.3243 -0.1617  0.3100
  205MOL0    Cl27585   9.165   3.113   4.674 -0.5812 -0.1087  0.2402
  205MOL0     C27586   8.208   2.572   4.795  0.3575  0.1697 -0.1383
  205MOL0     C27587   8.068   2.545   4.816 -0.1479 -0.8371  0.0417
  205MOL0     O27588   7.750   2.553   4.572  0.0660  0.1453  0.1442
  205MOL0     C27589   7.613   2.299   4.584 -0.1571  1.1792  0.0456
  205MOL0     C27590   7.517   2.200   4.613 -0.6803 -0.1748 -0.1207
  205MOL0     N27591   6.952   2.042   4.447 -0.3801  0.4755  0.3976
  205MOL0     N27592   6.947   1.970   4.338  0.5778  0.2701  0.0292
  205MOL0     C27593   7.451   1.928   3.155 -0.0792 -0.4228  0.1505
  205MOL0     C27594   7.560   1.852   3.101 -0.1630 -0.0556  0.5636
  205MOL0     C27595   7.840   1.569   2.962  0.3620  0.6282  0.0742
  205MOL0     C27596   7.957   1.551   3.037  1.0940 -0.2576 -0.9265
  205MOL0     C27597   8.082   1.522   2.977  0.0631 -0.4636 -0.1461
  205MOL0     C27598   8.092   1.505   2.841 -0.2256  0.5620 -0.1102
  205MOL0     O27599   8.220   1.473   2.786  0.7580  0.2429  0.5718
  205MOL0     C27600   8.250   1.520   2.656  0.0883  0.3057 -1.2888
  205MOL0     C27601   8.374   1.456   2.603  0.8219 -0.1623  0.7105
  205MOL0     C27602   8.493   1.495   2.685 -0.3793  0.2060 -0.2509
  205MOL0     C27603   8.629   1.490   2.606  0.3821 -0.8765 -0.6413
  205MOL0     C27604   8.678   1.343   2.588  0.2146 -0.8700  0.3485
  205MOL0     C27605   8.697   1.234   2.543  0.7101  0.1073  0.6548
  205MOL0     C27606   7.974   1.509   2.767 -0.0448 -0.5577 -0.4006
  205MOL0     C27607   7.854   1.540   2.820 -0.0243  0.9489  0.2518
  205MOL0     H27608   7.580   1.616   3.345  2.0564 -0.5761 -1.7412
  205MOL0     H27609   7.373   1.739   3.426  1.6260 -1.5862  0.8485
  205MOL0     H27610   7.134   1.884   3.231  0.6013  0.4328  0.0831
  205MOL0     H27611   7.169   1.852   3.409 -0.1815  0.2702  0.1219
  205MOL0     H27612   7.081   2.100   3.281 -0.1723  1.1553 -0.1976
  205MOL0     H27613   6.965   2.003   3.351 -1.1701  2.3256  1.8639
  205MOL0     H27614   7.169   2.155   3.518  1.2689 -1.8167 -2.3797
  205MOL0     H27615   6.994   2.173   3.501 -0.7085  0.8107 -0.2117
  205MOL0     H27616   6.945   1.956   3.608  0.4129 -1.0740 -2.2724
  205MOL0     H27617   7.111   1.925   3.631 -0.4924 -0.1684  0.8374
  205MOL0     H27618   7.131   2.148   3.743 -0.0596  0.1617  1.9083
  205MOL0     H27619   6.966   2.158   3.768  1.8592  4.0065 -1.5962
  205MOL0     H27620   6.983   1.902   3.869  0.7794 -0.3911  0.9271
  205MOL0     H27621   7.148   1.918   3.848  0.4433  1.4648 -0.6300
  205MOL0     H27622   7.124   2.127   4.013 -2.2360  0.7634 -0.3783
  205MOL0     H27623   6.949   2.080   4.003  0.2929  1.3685  0.6638
  205MOL0     H27624   7.157   1.893   4.111 -0.9605 -1.3616  0.6735
  205MOL0     H27625   6.988   1.866   4.108 -0.8646  1.1517 -0.6532
  205MOL0     H27626   7.206   2.153   4.270  1.0702 -1.1800  1.4838
  205MOL0     H27627   7.092   2.341   4.458 -3.4286 -0.6508 -1.0091
  205MOL0     H27628   6.980   2.276   4.567 -1.4707 -2.0785 -0.8694
  205MOL0     H27629   7.180   2.301   4.701  0.7310 -0.6629 -1.0195
  205MOL0     H27630   7.271   2.226   4.568  0.4373 -1.2496 -1.0917
  205MOL0     H27631   7.191   2.010   4.624  0.4300 -0.8898  0.7457
  205MOL0     H27632   7.067   2.060   4.734 -0.1138 -3.0224 -1.6825
  205MOL0     H27633   7.221   2.024   4.885 -2.4592 -1.2798 -3.4648
  205MOL0     H27634   7.241   2.186   4.879 -1.0498 -1.9691  1.7686
  205MOL0     H27635   7.479   2.242   4.951  0.7645  2.2876 -0.2992
  205MOL0     H27636   7.694   2.539   4.943  0.9833 -0.4386 -1.1763
  205MOL0     H27637   7.592   2.429   5.036  0.9035  0.1924  0.5683
  205MOL0     H27638   7.747   2.373   4.989  0.1272  1.4096  1.9416
  205MOL0     H27639   7.995   2.447   4.504  1.6279 -0.9800 -0.6565
  205MOL0     H27640   8.238   2.531   4.472  1.2908 -1.4844  1.3761
  205MOL0     H27641   8.502   2.604   4.477  0.6638 -1.4042  1.2956
  205MOL0     H27642   8.388   2.734   4.491 -0.2957 -0.9931 -0.2463
  205MOL0     H27643   8.610   2.806   4.501  0.0024 -0.9347  0.2944
  205MOL0     H27644   8.526   2.835   4.657 -1.3586 -1.5519  1.4740
  205MOL0     H27645   8.736   2.633   4.606 -0.5471 -3.6610  1.8176
  205MOL0     H27646   8.633   2.633   4.745  0.7067  0.5453 -0.5628
  205MOL0     H27647   8.797   2.874   4.651 -0.4733  2.8992  1.2713
  205MOL0     H27648   8.698   2.865   4.801  0.3928 -0.9341 -0.0400
  205MOL0     H27649   8.954   2.715   4.750  0.3456 -1.1670  1.5624
  205MOL0     H27650   8.845   2.669   4.878 -2.6368 -0.2972 -0.9331
  205MOL0     H27651   8.876   2.883   4.992 -3.1641 -1.3285 -2.0114
  205MOL0     H27652   9.025   2.800   4.947  0.8608  0.5368 -1.7102
  205MOL0     H27653   9.036   3.028   4.930  1.8949 -1.6135 -1.1525
  205MOL0     H27654   8.926   3.040   4.785  0.3403  2.2833  1.6901
  205MOL0     H27655   9.099   2.884   4.658  0.2745 -0.0521  0.2388
  205MOL0     H27656   9.192   2.899   4.806 -0.4331  1.0480  2.3562
  205MOL0     H27657   8.269   2.595   4.882  2.6294 -0.3679 -1.4886
  205MOL0     H27658   8.018   2.561   4.911 -0.0425 -0.2351 -0.0021
  205MOL0     H27659   7.652   2.322   4.485  2.1516 -2.8557 -0.2213
  205MOL0     H27660   7.473   2.126   4.547 -0.2269 -1.9346  1.4662
  205MOL0     H27661   7.426   2.022   3.108 -1.7302  0.7173  3.0186
  205MOL0     H27662   7.603   1.885   3.007 -2.7205  3.1049  0.2843
  205MOL0     H27663   7.960   1.567   3.144 -0.4823  1.1692 -1.0547
  205MOL0     H27664   8.167   1.492   3.037 -2.5697 -4.4212  2.0564
  205MOL0     H27665   8.177   1.506   2.576  1.9282  2.5850 -3.5307
  205MOL0     H27666   8.252   1.628   2.674  1.1713 -0.0912  1.5244
  205MOL0     H27667   8.392   1.487   2.500  3.6519  0.8842  1.4341
  205MOL0     H27668   8.349   1.350   2.604  0.2253 -0.0278  1.2211
  205MOL0     H27669   8.495   1.439   2.779 -0.4926 -0.6933 -0.7741
  205MOL0     H27670   8.478   1.599   2.715 -2.6251  0.0787 -0.6983
  205MOL0     H27671   8.698   1.537   2.677 -3.2181 -0.1264  2.6609
  205MOL0     H27672   8.638   1.549   2.515 -0.7139  0.3500  0.0089
  205MOL0     H27673   8.709   1.131   2.515  0.2411  0.6826 -1.8904
  205MOL0     H27674   7.985   1.489   2.661  0.0181  0.4774 -0.5969
  205MOL0     H27675   7.772   1.561   2.752 -0.7823  1.5174  1.3040
  206MOL0     O27676   9.329   6.214   2.642 -0.0334  0.0958 -0.0224
  206MOL0     C27677   9.317   6.266   2.753 -0.1249 -0.1334 -0.8776
  206MOL0     O27678   9.415   6.318   2.829  0.0665 -1.0207  0.2493
  206MOL0     C27679   9.529   6.344   2.763 -0.4008  0.5617  0.4876
  206MOL0     C27680   9.570   6.465   2.715  0.8321 -0.6910  0.2670
  206MOL0     C27681   9.687   6.477   2.642 -1.0395 -0.8359 -0.6765
  206MOL0     C27682   9.763   6.367   2.614 -0.0163 -0.0797  0.1607
  206MOL0     O27683   9.872   6.385   2.540 -0.5279  0.0433 -0.7069
  206MOL0     C27684   9.950   6.271   2.495 -0.3296 -0.6929 -0.3094
  206MOL0     C27685  10.051   6.315   2.399  0.2500  0.3132  1.6905
  206MOL0     C27686  10.094   6.198   2.299 -0.2442 -0.6258  0.5212
  206MOL0     C27687  10.139   6.063   2.372 -0.0396  0.6281  0.9161
  206MOL0     C27688  10.210   5.961   2.269 -0.6244  0.6526 -0.4700
  206MOL0     C27689  10.232   5.819   2.329 -0.4037  0.6270  0.6235
  206MOL0     C27690  10.346   5.750   2.245 -0.2588 -0.2709 -0.3624
  206MOL0     C27691  10.380   5.602   2.284  0.1079 -0.6438  0.7726
  206MOL0     N27692  10.481   5.542   2.191 -0.0939  0.5467 -0.9120
  206MOL0     C27693  10.455   5.444   2.106 -0.2902 -0.6238  0.1626
  206MOL0     C27694  10.579   5.418   2.053  0.5760 -1.4485  0.3501
  206MOL0     C27695  10.606   5.299   1.963 -0.6647 -0.5970  0.0012
  206MOL0     C27696  10.708   5.198   2.016 -0.4407 -0.5177 -0.2227
  206MOL0     C27697  10.751   5.085   1.929  1.1674 -0.9173  0.1546
  206MOL0     C27698  10.858   4.998   2.006 -0.4385  0.4797  0.1237
  206MOL0     O27699  10.833   4.961   2.144  0.0357 -0.8350 -0.4073
  206MOL0     C27700  10.922   4.881   2.214  0.4601 -0.2700 -0.0726
  206MOL0     C27701  10.864   4.825   2.330  0.2323 -0.8583 -0.7312
  206MOL0     C27702  10.944   4.758   2.425  0.3199 -0.8247 -0.0596
  206MOL0     C27703  10.876   4.717   2.554 -0.4930 -0.5137 -0.1333
  206MOL0     C27704  11.081   4.735   2.396 -0.9665  0.7493  1.0271
  206MOL0     C27705  11.177   4.658   2.486  0.1922  0.2343  0.0044
  206MOL0     O27706  11.296   4.610   2.426 -0.5249  0.6492 -0.2789
  206MOL0     C27707  11.391   4.526   2.491  0.3707 -0.5502 -0.7822
  206MOL0     C27708  11.453   4.575   2.612  0.6466 -0.2224  0.5817
  206MOL0     C27709  11.566   4.511   2.655  0.2237  0.2852  0.1342
  206MOL0     C27710  11.622   4.398   2.584 -1.0364 -0.0601 -0.1525
  206MOL0     O27711  11.737   4.330   2.626 -0.0950 -0.3449  1.0697
  206MOL0     C27712  11.822   4.371   2.733 -0.9862  0.7569  0.1705
  206MOL0     C27713  11.935   4.270   2.729 -0.3012 -0.0478  0.0834
  206MOL0     C27714  12.036   4.288   2.839 -0.6628  0.2659  0.7817
  206MOL0     C27715  12.145   4.177   2.843  1.1101 -1.2832 -0.0464
  206MOL0     C27716  12.245   4.201   2.959 -0.1952 -0.0070 -0.5839
  206MOL0     C27717  12.365   4.102   2.946 -0.4269  0.2904 -0.4871
  206MOL0     C27718  12.444   4.084   3.078  0.4415 -0.4715  0.0474
  206MOL0     C27719  12.585   4.032   3.046 -0.2689  0.9545 -0.4145
  206MOL0    Cl27720  12.581   3.854   3.003  0.2022 -0.0651 -0.0940
  206MOL0     C27721  11.553   4.355   2.468 -0.2765  0.0861 -0.7102
  206MOL0     C27722  11.437   4.413   2.423 -0.5608 -0.3434  0.1813
  206MOL0     O27723  11.144   4.630   2.602  0.2003  0.6983 -0.0445
  206MOL0     C27724  11.126   4.782   2.270 -0.2594 -0.6030  0.4977
  206MOL0     C27725  11.055   4.864   2.179  0.8018  0.8820  0.3536
  206MOL0     N27726  10.671   5.513   2.095 -0.5468 -0.5209 -0.7093
  206MOL0     N27727  10.607   5.594   2.173 -0.0628 -0.3022 -0.5371
  206MOL0     C27728   9.725   6.247   2.672  0.0925  0.1071 -0.4069
  206MOL0     C27729   9.613   6.233   2.744  0.3961  0.4713  0.2448
  206MOL0     C27730   9.196   6.228   2.827 -0.7836 -0.8833 -0.1267
  206MOL0     C27731   9.136   6.107   2.811  0.4868 -0.3821 -0.0737
  206MOL0     C27732   9.017   6.079   2.878 -0.2613 -0.4140 -0.4036
  206MOL0     C27733   8.954   6.176   2.963  0.3511 -0.2820 -0.7360
  206MOL0     O27734   8.833   6.171   3.033  0.4816 -0.3684  0.5597
  206MOL0     C27735   8.765   6.048   3.047  0.3438 -0.5919  0.6056
  206MOL0     C27736   8.705   6.026   3.182  0.2298  0.5079 -0.5331
  206MOL0     C27737   8.643   5.888   3.199 -0.0259 -0.3745  0.6390
  206MOL0     C27738   8.536   5.876   3.312 -0.4953  0.1037 -0.5955
  206MOL0     C27739   8.488   5.741   3.323 -0.0552  0.5135 -0.2234
  206MOL0     C27740   8.423   5.640   3.336  0.0754 -0.2734  0.2017
  206MOL0     C27741   9.015   6.306   2.975 -0.3738  0.1283  0.0564
  206MOL0     C27742   9.139   6.324   2.920 -0.0101  0.4614 -0.1986
  206MOL0     H27743   9.522   6.562   2.729  3.8450  1.1906 -1.3104
  206MOL0     H27744   9.706   6.582   2.622 -1.4009 -0.6148  0.1036
  206MOL0     H27745  10.008   6.241   2.582  1.8182  2.3912 -0.5080
  206MOL0     H27746   9.883   6.198   2.449  1.0329 -1.4453 -1.1345
  206MOL0     H27747  10.005   6.394   2.339  1.4276 -0.5933 -0.5222
  206MOL0     H27748  10.141   6.365   2.438  1.7515  1.0381 -2.2098
  206MOL0     H27749  10.013   6.185   2.227  0.2220 -0.5358 -0.0202
  206MOL0     H27750  10.185   6.226   2.245 -0.4993  0.1933  0.5019
  206MOL0     H27751  10.217   6.069   2.449  2.3464  0.6153 -1.3756
  206MOL0     H27752  10.051   6.012   2.410 -2.1985  4.2312  1.1902
  206MOL0     H27753  10.140   5.954   2.185 -0.8571  1.2572 -0.3321
  206MOL0     H27754  10.296   6.011   2.224  0.3267  2.1723  2.7878
  206MOL0     H27755  10.258   5.833   2.435  1.4915  0.6799  0.1825
  206MOL0     H27756  10.148   5.748   2.323  2.2849 -2.7330 -0.7351
  206MOL0     H27757  10.333   5.757   2.137 -3.0097 -2.7078 -0.3079
  206MOL0     H27758  10.440   5.801   2.267  1.6954 -3.0125 -1.7834
  206MOL0     H27759  10.286   5.546   2.286 -0.1061 -0.3018  0.4208
  206MOL0     H27760  10.414   5.617   2.386 -2.0561  3.0722  1.1290
  206MOL0     H27761  10.365   5.395   2.071  0.2425  0.2172 -2.5858
  206MOL0     H27762  10.515   5.241   1.945 -0.4133 -1.7437  2.0819
  206MOL0     H27763  10.652   5.332   1.869 -0.7453  1.3990  0.6260
  206MOL0     H27764  10.667   5.152   2.107  0.8347 -2.1248 -0.4189
  206MOL0     H27765  10.797   5.259   2.032 -0.3980 -0.0749 -1.9754
  206MOL0     H27766  10.783   5.139   1.839  0.1177  1.9500  1.3773
  206MOL0     H27767  10.666   5.018   1.909 -1.7072  2.6125 -0.6767
  206MOL0     H27768  10.948   5.059   2.001 -0.4952  0.5296 -0.3933
  206MOL0     H27769  10.875   4.898   1.964 -0.7272 -0.5577  2.3319
  206MOL0     H27770  10.763   4.854   2.359  1.5319  2.1041  1.2062
  206MOL0     H27771  10.769   4.738   2.545 -0.2267  1.2904  0.4444
  206MOL0     H27772  10.892   4.611   2.573  1.3590  0.0413  1.8467
  206MOL0     H27773  10.905   4.781   2.638 -3.0005  2.0518 -1.0428
  206MOL0     H27774  11.408   4.646   2.680 -2.8961 -0.5820 -1.1707
  206MOL0     H27775  11.602   4.541   2.753 -1.5854 -2.1010  1.6500
  206MOL0     H27776  11.858   4.474   2.720  1.4089  0.1010  1.0961
  206MOL0     H27777  11.762   4.382   2.824  0.9197  4.4738  1.2221
  206MOL0     H27778  11.889   4.173   2.747  1.6064 -0.8280  1.0196
  206MOL0     H27779  11.990   4.263   2.635  1.9755  0.7679  1.2946
  206MOL0     H27780  11.989   4.303   2.937 -1.4180  0.6743  0.3633
  206MOL0     H27781  12.090   4.381   2.819 -0.6032 -0.0216 -0.4638
  206MOL0     H27782  12.093   4.082   2.849  1.2554 -1.5696 -2.3142
  206MOL0     H27783  12.205   4.177   2.751  0.9086 -0.6404 -0.1833
  206MOL0     H27784  12.188   4.183   3.050  0.5388 -2.6397 -0.5712
  206MOL0     H27785  12.271   4.307   2.950 -2.8918  0.7953  0.1315
  206MOL0     H27786  12.328   4.000   2.930 -1.3683  0.5440  0.0131
  206MOL0     H27787  12.427   4.132   2.861 -0.8291 -0.8907 -1.2202
  206MOL0     H27788  12.388   4.024   3.150  1.4763 -0.0610  1.2129
  206MOL0     H27789  12.469   4.182   3.121 -0.8216  0.3694 -1.0149
  206MOL0     H27790  12.649   4.038   3.134  0.8208  0.1334 -1.1227
  206MOL0     H27791  12.632   4.089   2.965  0.6105  1.1419  0.2061
  206MOL0     H27792  11.600   4.272   2.416  1.5197  1.0662 -0.7244
  206MOL0     H27793  11.395   4.390   2.325 -2.8247  1.0247  0.7617
  206MOL0     H27794  11.225   4.759   2.230  0.1089  2.0129 -0.2594
  206MOL0     H27795  11.107   4.899   2.091  1.0115 -3.2092 -1.3657
  206MOL0     H27796   9.777   6.155   2.649 -1.7118 -1.8793  2.6664
  206MOL0     H27797   9.572   6.137   2.773  0.4735  0.7643  1.3709
  206MOL0     H27798   9.174   6.025   2.750  0.1340 -1.9203  1.6973
  206MOL0     H27799   8.964   5.987   2.853 -3.6362  1.1884  0.2355
  206MOL0     H27800   8.679   6.042   2.979  0.9690  1.7216 -0.4885
  206MOL0     H27801   8.830   5.965   3.018  0.6798  0.0454 -0.5423
  206MOL0     H27802   8.619   6.094   3.192 -0.3194 -0.4162  1.9469
  206MOL0     H27803   8.779   6.038   3.261  1.0737 -2.9288 -0.6639
  206MOL0     H27804   8.729   5.822   3.215  0.1741 -0.2306  0.1832
  206MOL0     H27805   8.594   5.856   3.106  0.7706  0.0256  0.0650
  206MOL0     H27806   8.441   5.923   3.286 -3.1749 -4.3274  0.1055
  206MOL0     H27807   8.577   5.908   3.408  0.5335 -1.5379 -0.4471
  206MOL0     H27808   8.363   5.552   3.326 -0.6462  0.4529 -2.6679
  206MOL0     H27809   8.970   6.382   3.038  1.0469  0.7403  0.3660
  206MOL0     H27810   9.184   6.422   2.927 -1.1281  1.2891 -3.0348
  207MOL0     O27811   6.919   7.195   8.173 -0.6240 -0.3162  0.5451
  207MOL0     C27812   6.950   7.256   8.271 -0.8077  0.4142 -0.5146
  207MOL0     O27813   6.895   7.240   8.387 -0.2421 -0.7895 -0.0970
  207MOL0     C27814   6.785   7.165   8.414  0.0568  0.6337  0.8128
  207MOL0     C27815   6.670   7.161   8.328 -0.9191  1.2583  0.2688
  207MOL0     C27816   6.560   7.082   8.352  0.4996  0.1873  0.3066
  207MOL0     C27817   6.557   6.986   8.455 -0.1708 -0.7583  0.8031
  207MOL0     O27818   6.457   6.906   8.486  0.8187  0.1452 -0.3353
  207MOL0     C27819   6.449   6.767   8.441 -0.3124  0.3409 -0.3454
  207MOL0     C27820   6.466   6.676   8.555 -0.5188 -0.3435  0.6467
  207MOL0     C27821   6.439   6.526   8.513 -0.1004  0.9262  0.0514
  207MOL0     C27822   6.551   6.481   8.421  0.7678 -0.4172 -0.1086
  207MOL0     C27823   6.555   6.322   8.400 -0.1876 -0.5241  0.5974
  207MOL0     C27824   6.661   6.283   8.289 -0.5783 -0.1568  0.5128
  207MOL0     C27825   6.809   6.309   8.329  0.8172 -0.3053  0.2341
  207MOL0     C27826   6.857   6.207   8.442  0.3974 -0.4286 -0.4088
  207MOL0     N27827   6.849   6.067   8.393 -0.3954 -1.0447  0.3812
  207MOL0     C27828   6.957   6.006   8.329  0.6004  0.0888  0.0111
  207MOL0     C27829   6.924   5.874   8.322 -0.4209  0.0167  0.1294
  207MOL0     C27830   7.017   5.771   8.280  0.5061 -0.4349 -0.5032
  207MOL0     C27831   7.133   5.744   8.378  1.0589 -0.1601  0.8988
  207MOL0     C27832   7.251   5.682   8.309 -0.3417  0.3101  0.3795
  207MOL0     C27833   7.367   5.646   8.402  0.2383 -1.0824  0.0038
  207MOL0     O27834   7.485   5.616   8.322 -0.1236 -1.0850  0.1706
  207MOL0     C27835   7.609   5.590   8.375 -0.6944 -1.6000  0.5631
  207MOL0     C27836   7.710   5.549   8.288 -0.2294  0.0359  0.6916
  207MOL0     C27837   7.845   5.526   8.332  0.3118  0.1824  0.9451
  207MOL0     C27838   7.939   5.494   8.218 -0.2855  0.1851 -0.5331
  207MOL0     C27839   7.880   5.526   8.467 -0.6663 -0.1277 -0.3017
  207MOL0     C27840   8.018   5.498   8.517  0.4835 -0.4264 -0.5989
  207MOL0     O27841   8.096   5.410   8.451  0.3607 -0.3541  0.0488
  207MOL0     C27842   8.212   5.378   8.519 -0.7701 -0.5199  0.2881
  207MOL0     C27843   8.333   5.441   8.480  0.9726 -0.2188  0.0058
  207MOL0     C27844   8.456   5.428   8.536 -0.4726 -0.4939 -0.2959
  207MOL0     C27845   8.464   5.344   8.652  0.7679  0.2383 -0.1837
  207MOL0     O27846   8.581   5.305   8.713  0.7183  0.4780 -0.3396
  207MOL0     C27847   8.709   5.337   8.657 -0.3567  0.7064 -0.2525
  207MOL0     C27848   8.806   5.225   8.692  0.3770 -0.1558  0.3652
  207MOL0     C27849   8.943   5.259   8.655 -0.8410  0.8394  0.5976
  207MOL0     C27850   9.045   5.151   8.707  0.0623 -0.5967 -0.2063
  207MOL0     C27851   9.198   5.187   8.678 -0.3312  0.1484 -0.2758
  207MOL0     C27852   9.240   5.318   8.753  0.2103 -1.0523 -0.2858
  207MOL0     C27853   9.223   5.320   8.900  0.0232 -0.9291 -0.7087
  207MOL0     C27854   9.311   5.433   8.967 -0.7665 -0.2987 -0.0477
  207MOL0    Cl27855   9.255   5.591   8.899 -0.1469  0.0885 -0.4439
  207MOL0     C27856   8.351   5.268   8.682  0.4227  0.4881  0.4358
  207MOL0     C27857   8.219   5.282   8.619  0.2938  0.7735 -0.7284
  207MOL0     O27858   8.038   5.550   8.629 -0.5774  0.0296 -0.4193
  207MOL0     C27859   7.774   5.554   8.557 -0.0413  0.4435  0.3692
  207MOL0     C27860   7.644   5.588   8.519  0.5727 -0.3061  0.3308
  207MOL0     N27861   6.794   5.860   8.386  0.8386  0.4605 -0.7138
  207MOL0     N27862   6.758   5.974   8.430  0.0756 -0.7763  1.4332
  207MOL0     C27863   6.667   6.997   8.545  0.0572  0.3476  0.7750
  207MOL0     C27864   6.773   7.082   8.530 -0.4637 -1.0251 -0.7119
  207MOL0     C27865   7.073   7.336   8.273  0.0300  0.5395  0.8282
  207MOL0     C27866   7.142   7.377   8.153  0.6005  0.1731  0.0181
  207MOL0     C27867   7.244   7.464   8.167 -0.0030 -0.7942  0.0817
  207MOL0     C27868   7.306   7.499   8.285 -0.0901  0.8577  0.1759
  207MOL0     O27869   7.410   7.585   8.275  0.1271 -0.1797 -0.1832
  207MOL0     C27870   7.480   7.609   8.386 -0.0392  0.3316 -0.4637
  207MOL0     C27871   7.600   7.696   8.352  0.3504 -0.0158 -0.6462
  207MOL0     C27872   7.664   7.670   8.217  0.0497  0.5178 -0.5353
  207MOL0     C27873   7.773   7.770   8.176 -0.1468  0.7456  0.8522
  207MOL0     C27874   7.898   7.764   8.251  0.0163  0.0809 -0.0612
  207MOL0     C27875   8.003   7.760   8.319  0.7359  0.5913 -0.6628
  207MOL0     C27876   7.240   7.466   8.402 -0.4015 -0.1621  0.4792
  207MOL0     C27877   7.127   7.385   8.399  0.2771  0.1111  0.3567
  207MOL0     H27878   6.662   7.223   8.240  1.4366  0.4362 -0.6071
  207MOL0     H27879   6.476   7.095   8.284  0.5257  0.8509  0.3899
  207MOL0     H27880   6.344   6.748   8.418 -0.3539 -0.0112  0.1349
  207MOL0     H27881   6.516   6.741   8.358 -0.8089 -2.7557  0.0997
  207MOL0     H27882   6.571   6.673   8.585 -0.2485 -1.7892 -0.3413
  207MOL0     H27883   6.402   6.700   8.640  1.2374 -1.7092  2.4804
  207MOL0     H27884   6.432   6.455   8.596 -0.7060 -1.0703 -1.6441
  207MOL0     H27885   6.342   6.537   8.463 -0.6920  4.1311  1.6322
  207MOL0     H27886   6.546   6.530   8.324  1.7104 -0.0954 -0.0058
  207MOL0     H27887   6.643   6.515   8.470  0.5736 -0.0721  0.0152
  207MOL0     H27888   6.584   6.283   8.498  3.7074  1.0807  0.2773
  207MOL0     H27889   6.453   6.291   8.376 -0.8007  3.0780 -2.3897
  207MOL0     H27890   6.652   6.178   8.260 -0.6766 -0.5570  1.9498
  207MOL0     H27891   6.642   6.337   8.195  1.8693  1.0958  0.6643
  207MOL0     H27892   6.859   6.306   8.232  4.6498 -2.1404  2.0094
  207MOL0     H27893   6.814   6.409   8.374  1.0997 -0.3596  0.3294
  207MOL0     H27894   6.792   6.224   8.528  0.5024 -0.8554 -0.2419
  207MOL0     H27895   6.960   6.231   8.470 -0.4687  2.0641  0.9222
  207MOL0     H27896   7.055   6.045   8.301  0.4164 -0.0567 -0.8357
  207MOL0     H27897   6.959   5.682   8.253  0.1310  0.1951 -1.8836
  207MOL0     H27898   7.061   5.807   8.186 -0.9805 -2.3064 -2.0130
  207MOL0     H27899   7.085   5.680   8.453 -0.2467  1.3917  1.4477
  207MOL0     H27900   7.157   5.836   8.433  1.2334  0.7296 -0.6222
  207MOL0     H27901   7.287   5.754   8.235  2.0586 -2.1199 -0.9925
  207MOL0     H27902   7.222   5.588   8.261 -1.1389  0.3791  0.7219
  207MOL0     H27903   7.345   5.556   8.460  1.0489 -1.7403 -0.6839
  207MOL0     H27904   7.395   5.728   8.469  0.8706 -0.8948 -0.4735
  207MOL0     H27905   7.684   5.551   8.182  2.4791  0.1960 -0.0379
  207MOL0     H27906   7.883   5.502   8.124 -0.8668 -0.1940 -0.2228
  207MOL0     H27907   8.016   5.571   8.211 -0.3887  0.1776 -2.3254
  207MOL0     H27908   7.990   5.398   8.221  0.2048  0.4661  0.2862
  207MOL0     H27909   8.331   5.523   8.409  1.5798  2.2655  2.7032
  207MOL0     H27910   8.532   5.491   8.490  0.4052 -0.0059  1.6936
  207MOL0     H27911   8.698   5.347   8.549 -3.4763 -1.6882 -0.3074
  207MOL0     H27912   8.740   5.433   8.700 -0.7368 -0.0833  1.9042
  207MOL0     H27913   8.791   5.213   8.799  1.7732  2.1528  0.8832
  207MOL0     H27914   8.792   5.133   8.633  2.7376  0.7284 -1.7900
  207MOL0     H27915   8.970   5.360   8.689  0.5015  2.4060 -4.2454
  207MOL0     H27916   8.951   5.266   8.546  1.5400 -1.9324  0.4703
  207MOL0     H27917   9.038   5.149   8.816 -1.7301  0.9498 -0.2277
  207MOL0     H27918   9.007   5.056   8.668 -1.6371  0.7442 -2.0687
  207MOL0     H27919   9.215   5.203   8.571  0.2382  0.1705 -0.1818
  207MOL0     H27920   9.267   5.110   8.714  0.6205  1.7363  1.5248
  207MOL0     H27921   9.348   5.331   8.736  1.1211 -1.4683  4.1306
  207MOL0     H27922   9.186   5.405   8.713 -0.5684 -1.5112 -0.2474
  207MOL0     H27923   9.265   5.224   8.931  0.3423 -1.4355 -2.5807
  207MOL0     H27924   9.117   5.324   8.925  0.7553 -0.8358  2.9035
  207MOL0     H27925   9.417   5.416   8.945 -0.9088  0.5138 -1.5339
  207MOL0     H27926   9.294   5.423   9.074 -1.6323 -3.2060 -0.3697
  207MOL0     H27927   8.354   5.191   8.758 -1.8953 -0.3470 -0.2184
  207MOL0     H27928   8.132   5.224   8.647 -0.2235  1.0454 -1.7693
  207MOL0     H27929   7.785   5.556   8.665 -1.5709 -2.9923  0.7330
  207MOL0     H27930   7.567   5.620   8.589 -0.4107  1.2403 -1.3976
  207MOL0     H27931   6.663   6.939   8.637 -1.8665 -1.7194 -0.4889
  207MOL0     H27932   6.854   7.086   8.602  0.3537 -2.0758 -1.5417
  207MOL0     H27933   7.123   7.340   8.053  0.3667  0.4597 -0.0459
  207MOL0     H27934   7.296   7.513   8.085 -1.3586  1.0654  0.2528
  207MOL0     H27935   7.436   7.646   8.479  0.4637 -1.2823  0.4680
  207MOL0     H27936   7.507   7.510   8.424  1.1190  0.6750 -0.3716
  207MOL0     H27937   7.674   7.696   8.432 -0.5678  1.4693  0.2632
  207MOL0     H27938   7.561   7.798   8.348 -1.5296 -0.7264 -2.7951
  207MOL0     H27939   7.589   7.679   8.137 -1.6415 -1.8157  0.6742
  207MOL0     H27940   7.705   7.569   8.231  0.7448  1.0419  1.4713
  207MOL0     H27941   7.736   7.871   8.160 -1.8059 -0.0938 -1.1697
  207MOL0     H27942   7.786   7.751   8.069 -4.3871  1.0447  0.0826
  207MOL0     H27943   8.075   7.784   8.394  1.1039 -0.9426 -0.4943
  207MOL0     H27944   7.266   7.516   8.495  2.7755  2.8705 -1.7654
  207MOL0     H27945   7.068   7.369   8.488 -0.8551  1.2648 -0.1567
  208MOL0     O27946  10.576   2.604  11.210  0.2367  0.5430 -0.2963
  208MOL0     C27947  10.549   2.618  11.089 -1.2715 -0.2813 -0.5517
  208MOL0     O27948  10.637   2.673  10.993  0.8633 -0.5698 -0.7292
  208MOL0     C27949  10.745   2.743  11.033  0.6206 -0.1449  1.3236
  208MOL0     C27950  10.861   2.735  10.954 -0.1629  0.7711 -0.2021
  208MOL0     C27951  10.977   2.803  10.988 -0.1479  0.1627  0.3179
  208MOL0     C27952  10.982   2.876  11.108  0.2866  0.8722 -0.5162
  208MOL0     O27953  11.089   2.946  11.144 -0.0610  0.3752 -0.0334
  208MOL0     C27954  11.214   2.906  11.093  0.1863  0.3695  0.1329
  208MOL0     C27955  11.321   2.938  11.191 -0.0381 -0.5378 -0.0179
  208MOL0     C27956  11.460   2.911  11.134 -0.2643  0.2275  0.1596
  208MOL0     C27957  11.573   2.940  11.239 -0.7751  0.0387 -0.2496
  208MOL0     C27958  11.701   2.918  11.163  0.3579 -0.4534 -0.5865
  208MOL0     C27959  11.836   2.959  11.238  0.4345  0.1055  0.4597
  208MOL0     C27960  11.857   3.105  11.248  0.0345  0.4066  0.1626
  208MOL0     C27961  11.988   3.147  11.302  0.5792 -1.0525 -0.1042
  208MOL0     N27962  12.004   3.107  11.443 -0.1361 -0.4823 -0.3323
  208MOL0     C27963  12.033   2.989  11.502  0.1662  0.3180  0.4295
  208MOL0     C27964  12.026   3.000  11.635  0.2760 -0.7240 -0.4042
  208MOL0     C27965  12.047   2.895  11.735  0.4126 -0.1077 -0.3774
  208MOL0     C27966  11.938   2.788  11.708 -0.0219  0.9965 -0.8566
  208MOL0     C27967  11.787   2.828  11.699  0.1014  0.4656  0.0600
  208MOL0     C27968  11.748   2.930  11.798  0.0136  0.3954  0.0743
  208MOL0     O27969  11.603   2.939  11.785 -0.8676 -0.9916 -0.2242
  208MOL0     C27970  11.529   2.875  11.881 -0.8085  0.5828 -0.0199
  208MOL0     C27971  11.567   2.775  11.967 -0.9015 -0.3396  0.8911
  208MOL0     C27972  11.469   2.709  12.041  0.8957 -1.1253  0.6895
  208MOL0     C27973  11.515   2.604  12.138  0.6003  0.4711 -0.6515
  208MOL0     C27974  11.324   2.738  12.026 -0.6123 -0.3739 -0.7402
  208MOL0     C27975  11.215   2.666  12.101 -1.1073 -0.5579  0.7140
  208MOL0     O27976  11.098   2.664  12.031  0.2312  0.3364 -0.3202
  208MOL0     C27977  10.977   2.614  12.079 -0.0064 -0.5950 -0.2912
  208MOL0     C27978  10.884   2.553  12.001 -0.0834  0.1639 -0.1344
  208MOL0     C27979  10.773   2.486  12.043  0.5989 -0.2568 -0.5829
  208MOL0     C27980  10.733   2.495  12.174  0.2067  0.0749  1.0730
  208MOL0     O27981  10.610   2.455  12.202  0.6359  0.7390 -0.5671
  208MOL0     C27982  10.522   2.556  12.262  0.2096  0.2363 -0.4106
  208MOL0     C27983  10.424   2.604  12.158  0.8185  0.1926  0.1589
  208MOL0     C27984  10.300   2.690  12.213 -0.1758  0.0461  0.3760
  208MOL0     C27985  10.189   2.737  12.117 -0.8383  0.0764  0.6712
  208MOL0     C27986  10.119   2.856  12.178  0.5155 -0.8517 -0.4939
  208MOL0     C27987  10.045   2.819  12.306  0.8110 -0.0992 -0.2437
  208MOL0     C27988   9.930   2.921  12.321  0.0537  0.2565 -0.6200
  208MOL0     C27989   9.864   2.901  12.456  0.5878 -0.0357  0.2144
  208MOL0    Cl27990   9.697   2.974  12.463  0.3600  0.2094 -0.6922
  208MOL0     C27991  10.818   2.561  12.262 -0.5612  0.3824 -0.1697
  208MOL0     C27992  10.943   2.627  12.216 -0.3752  0.3727  0.5773
  208MOL0     O27993  11.237   2.604  12.207 -0.0107  0.4267 -0.4778
  208MOL0     C27994  11.294   2.841  11.932 -0.4264  0.1145 -0.8571
  208MOL0     C27995  11.397   2.907  11.869  0.8589  0.0887  0.8320
  208MOL0     N27996  11.999   3.132  11.659 -0.2070  0.2513  0.2669
  208MOL0     N27997  11.987   3.200  11.548  0.0867  0.0743 -0.2803
  208MOL0     C27998  10.870   2.884  11.188  0.5734 -0.7522  0.6152
  208MOL0     C27999  10.753   2.819  11.152  0.0827 -0.4586  0.2155
  208MOL0     C28000  10.431   2.551  11.024 -0.7710  0.8978 -0.6901
  208MOL0     C28001  10.440   2.532  10.888  0.1456 -0.2560  0.9291
  208MOL0     C28002  10.325   2.480  10.820 -0.5357  0.0556  0.1108
  208MOL0     C28003  10.203   2.454  10.887 -0.6055  0.1811  0.4112
  208MOL0     O28004  10.086   2.423  10.826  0.2156 -0.0895 -0.1423
  208MOL0     C28005  10.079   2.403  10.686 -0.0776 -0.8047 -0.6612
  208MOL0     C28006   9.938   2.341  10.669 -1.0130 -0.0639 -0.2071
  208MOL0     C28007   9.922   2.302  10.523 -0.2598  0.6605 -0.7474
  208MOL0     C28008   9.780   2.233  10.492 -0.1647  0.5883 -0.1033
  208MOL0     C28009   9.804   2.089  10.543 -0.4422  0.3613 -0.1132
  208MOL0     C28010   9.812   1.969  10.571 -0.5405  0.2472  0.5750
  208MOL0     C28011  10.201   2.466  11.027  0.0156  0.0837 -0.1762
  208MOL0     C28012  10.314   2.520  11.093  0.2517 -0.0353 -0.8132
  208MOL0     H28013  10.851   2.672  10.866 -1.8031  2.4152 -1.2496
  208MOL0     H28014  11.056   2.777  10.918 -0.4111  0.6712 -0.1785
  208MOL0     H28015  11.203   2.800  11.073 -1.9703  0.3427  1.1490
  208MOL0     H28016  11.235   2.960  11.000 -0.6974 -1.3991 -1.1412
  208MOL0     H28017  11.305   3.044  11.214 -3.5404 -0.7714 -0.8518
  208MOL0     H28018  11.323   2.874  11.280  2.6191  0.3148  0.6413
  208MOL0     H28019  11.471   2.807  11.103 -0.3040 -0.3744  1.9946
  208MOL0     H28020  11.477   2.975  11.047 -0.1959 -0.1754 -0.1280
  208MOL0     H28021  11.564   3.038  11.286 -1.4741 -1.1301  2.2681
  208MOL0     H28022  11.575   2.875  11.327 -1.0818 -0.5370 -0.6625
  208MOL0     H28023  11.700   2.811  11.141 -1.2731 -1.3631  3.0673
  208MOL0     H28024  11.688   2.978  11.072 -2.0036  0.0142 -0.0299
  208MOL0     H28025  11.826   2.918  11.339  2.5358  0.2224  0.7525
  208MOL0     H28026  11.925   2.908  11.200  0.6960  0.9713 -0.1050
  208MOL0     H28027  11.839   3.166  11.159 -2.7509  0.8218  0.9076
  208MOL0     H28028  11.779   3.148  11.312 -0.7762  1.8280 -1.6929
  208MOL0     H28029  12.002   3.256  11.297 -0.5196 -0.5858  3.9770
  208MOL0     H28030  12.074   3.113  11.243  0.9930  0.0171 -0.1495
  208MOL0     H28031  12.043   2.896  11.448 -2.0850 -0.4930  1.2679
  208MOL0     H28032  12.145   2.848  11.724 -0.6695 -2.8354  0.6774
  208MOL0     H28033  12.041   2.925  11.840  3.4662 -1.4848  0.3172
  208MOL0     H28034  11.936   2.708  11.782 -2.3000  0.8224 -1.0381
  208MOL0     H28035  11.964   2.737  11.615 -1.8269  0.2683 -1.0022
  208MOL0     H28036  11.720   2.742  11.713  0.9816 -0.2696 -0.1710
  208MOL0     H28037  11.754   2.855  11.598 -0.9685 -5.7108 -1.6915
  208MOL0     H28038  11.788   3.029  11.776  0.1963  0.5303  0.9542
  208MOL0     H28039  11.793   2.897  11.892  2.3083  1.9407 -0.3854
  208MOL0     H28040  11.671   2.751  11.985 -1.3122 -0.4523  3.6216
  208MOL0     H28041  11.476   2.615  12.240 -1.2085  1.7182 -1.4230
  208MOL0     H28042  11.474   2.508  12.106 -0.3271  0.9168 -0.8579
  208MOL0     H28043  11.624   2.597  12.135  0.7425  2.2654 -0.4440
  208MOL0     H28044  10.916   2.537  11.898 -0.7424  0.2494 -0.3565
  208MOL0     H28045  10.713   2.436  11.967  0.6325 -0.4478 -0.4850
  208MOL0     H28046  10.455   2.516  12.338  0.1184 -1.2661 -1.2348
  208MOL0     H28047  10.584   2.634  12.307 -0.5852  1.7347 -1.7908
  208MOL0     H28048  10.486   2.651  12.082 -0.4553 -1.3562 -1.9406
  208MOL0     H28049  10.378   2.515  12.113 -1.0397  0.9304  0.5296
  208MOL0     H28050  10.349   2.773  12.265 -0.0609 -1.1282  2.2383
  208MOL0     H28051  10.240   2.631  12.283 -0.2921 -3.3148 -2.3088
  208MOL0     H28052  10.221   2.772  12.018 -6.3056 -0.8303 -1.7960
  208MOL0     H28053  10.109   2.664  12.099  0.4781 -1.9436  2.4682
  208MOL0     H28054  10.054   2.896  12.100  1.0604  0.0219 -0.5073
  208MOL0     H28055  10.201   2.926  12.198 -0.2173  0.6218 -2.3511
  208MOL0     H28056  10.012   2.715  12.296  0.4947  0.0129 -0.3554
  208MOL0     H28057  10.116   2.824  12.390 -1.5686 -0.2216  1.8903
  208MOL0     H28058   9.864   2.909  12.235  2.8275  0.1724 -2.9023
  208MOL0     H28059   9.969   3.023  12.325 -1.9456  1.0355  1.2046
  208MOL0     H28060   9.922   2.931  12.544 -0.9023 -1.1856  1.6646
  208MOL0     H28061   9.832   2.798  12.470 -1.7212  0.7145  0.9090
  208MOL0     H28062  10.787   2.554  12.365  2.4098  1.7576  0.9123
  208MOL0     H28063  11.013   2.665  12.289  1.9528  1.8982 -2.2172
  208MOL0     H28064  11.189   2.862  11.914 -0.2820  1.0310 -0.7283
  208MOL0     H28065  11.380   2.982  11.792  1.6421  1.5936  2.0489
  208MOL0     H28066  10.865   2.945  11.278  1.9630  2.1178 -1.0953
  208MOL0     H28067  10.665   2.839  11.212  0.8125  2.9118  0.3088
  208MOL0     H28068  10.521   2.560  10.822  0.2710 -1.9591  0.3053
  208MOL0     H28069  10.331   2.459  10.713 -1.4718  2.2325 -0.4290
  208MOL0     H28070  10.088   2.499  10.634  2.2840  1.2270  3.0120
  208MOL0     H28071  10.159   2.343  10.643 -0.7578 -1.0441 -1.6360
  208MOL0     H28072   9.859   2.412  10.695 -0.0704  0.7714  0.4901
  208MOL0     H28073   9.930   2.257  10.737 -2.2550  0.2751  0.0857
  208MOL0     H28074  10.009   2.257  10.474 -0.3093  0.5684 -0.7507
  208MOL0     H28075   9.927   2.403  10.481 -0.7782  1.7930  1.7295
  208MOL0     H28076   9.757   2.236  10.385 -2.6011 -1.4415  0.2872
  208MOL0     H28077   9.699   2.282  10.548 -1.2992  0.3135 -1.4531
  208MOL0     H28078   9.822   1.869  10.608 -1.8740 -0.1566 -0.1293
  208MOL0     H28079  10.103   2.453  11.072 -0.0880 -2.5959 -0.9689
  208MOL0     H28080  10.299   2.554  11.195 -5.6098 -1.9432 -0.6305
  209MOL0     O28081   4.203   1.993   0.572 -0.7280  1.0840  0.1264
  209MOL0     C28082   4.153   2.106   0.571 -0.7423  0.5020 -0.9988
  209MOL0     O28083   4.074   2.153   0.470 -0.2899 -0.3261  0.6595
  209MOL0     C28084   4.031   2.071   0.367 -0.6155 -0.9512 -0.1210
  209MOL0     C28085   4.125   2.039   0.270 -0.3501 -0.0062  0.7124
  209MOL0     C28086   4.096   1.949   0.158 -0.3118 -0.4584  0.0446
  209MOL0     C28087   3.966   1.908   0.145  0.2310 -0.7008 -0.5342
  209MOL0     O28088   3.918   1.829   0.042 -0.3147  0.6025 -0.5327
  209MOL0     C28089   3.887   1.692   0.085 -0.5459 -0.8786 -0.5174
  209MOL0     C28090   3.770   1.642   0.007  0.7964 -0.5127 -0.1594
  209MOL0     C28091   3.650   1.620   0.097  1.3638  0.3972 -0.0910
  209MOL0     C28092   3.542   1.553   0.000 -0.0768 -0.5006  0.4065
  209MOL0     C28093   3.414   1.506   0.077  0.2193  0.5846  0.3339
  209MOL0     C28094   3.425   1.456   0.226  1.2462 -0.5336 -0.3595
  209MOL0     C28095   3.280   1.446   0.279 -0.3242  0.5579  0.1063
  209MOL0     C28096   3.287   1.390   0.419  0.7976 -0.8882 -0.0029
  209MOL0     N28097   3.153   1.370   0.473  0.5816  0.3617 -0.4701
  209MOL0     C28098   3.094   1.427   0.580  0.1280 -0.2778 -0.2426
  209MOL0     C28099   2.968   1.369   0.603 -1.3067 -0.7715 -0.2839
  209MOL0     C28100   2.883   1.395   0.728  0.2505 -0.2884  0.8937
  209MOL0     C28101   2.782   1.506   0.715  0.1633 -0.5861  0.6445
  209MOL0     C28102   2.741   1.585   0.844 -0.3103  0.0233  0.0506
  209MOL0     C28103   2.646   1.696   0.808 -0.2720 -1.0023 -0.4584
  209MOL0     O28104   2.611   1.748   0.933  0.4247  0.2084 -0.7765
  209MOL0     C28105   2.510   1.840   0.934 -0.7584 -0.3229  0.3092
  209MOL0     C28106   2.437   1.890   0.828  0.2448  0.0040  0.4559
  209MOL0     C28107   2.319   1.957   0.842 -0.2784  0.0679  0.4645
  209MOL0     C28108   2.260   2.014   0.705  0.2931 -0.5777  0.6563
  209MOL0     C28109   2.251   1.980   0.963 -0.9847 -0.2453 -0.5303
  209MOL0     C28110   2.124   2.055   0.989 -0.0032 -0.1679  0.1343
  209MOL0     O28111   2.100   2.087   1.118  0.4417 -0.4363  0.3254
  209MOL0     C28112   1.971   2.113   1.166 -0.3509 -0.0409 -0.1171
  209MOL0     C28113   1.970   2.158   1.292  0.6497  0.2366  0.6415
  209MOL0     C28114   1.850   2.196   1.360 -0.4007  0.3150  0.0633
  209MOL0     C28115   1.736   2.198   1.282  0.4545 -0.3410  0.9373
  209MOL0     O28116   1.617   2.259   1.315 -0.0715 -0.0182  0.5036
  209MOL0     C28117   1.613   2.354   1.413  0.0685 -0.0394 -0.4875
  209MOL0     C28118   1.501   2.443   1.380  0.1723 -0.1729 -0.5013
  209MOL0     C28119   1.499   2.568   1.482 -0.5537  0.2277  0.9623
  209MOL0     C28120   1.383   2.655   1.468  0.1420 -0.3534 -0.2747
  209MOL0     C28121   1.243   2.593   1.508 -0.0724  0.3758 -0.1633
  209MOL0     C28122   1.237   2.558   1.657 -0.3768 -0.1098  0.0251
  209MOL0     C28123   1.090   2.528   1.702  0.4894  1.1415 -0.0615
  209MOL0     C28124   1.087   2.496   1.855 -0.4303  0.3154 -0.3424
  209MOL0    Cl28125   0.917   2.435   1.880 -0.1662 -0.2600 -0.5515
  209MOL0     C28126   1.730   2.147   1.151 -0.6331  0.8923  0.2827
  209MOL0     C28127   1.846   2.096   1.099 -0.0505 -0.1936 -0.6139
  209MOL0     O28128   2.061   2.096   0.894  0.3622  0.2349 -0.8414
  209MOL0     C28129   2.326   1.929   1.072 -0.0116 -0.2606 -0.4270
  209MOL0     C28130   2.452   1.869   1.061  0.6833 -0.2739  0.4967
  209MOL0     N28131   2.954   1.282   0.497  0.0503 -0.9191  0.1691
  209MOL0     N28132   3.061   1.287   0.422 -0.3290 -0.1177  0.6336
  209MOL0     C28133   3.869   1.945   0.250 -0.1243  0.5865  0.4339
  209MOL0     C28134   3.904   2.033   0.353 -0.1694  0.7779  0.0687
  209MOL0     C28135   4.188   2.208   0.673  0.0675 -0.0032  0.1641
  209MOL0     C28136   4.138   2.338   0.678  0.3000  1.1683  0.0301
  209MOL0     C28137   4.185   2.437   0.762 -0.5437  0.2195  0.3132
  209MOL0     C28138   4.273   2.404   0.866  0.3057 -1.4893  0.1584
  209MOL0     O28139   4.293   2.509   0.952 -0.2808 -0.0752 -0.7687
  209MOL0     C28140   4.340   2.477   1.090  0.3959  0.5788  0.1069
  209MOL0     C28141   4.410   2.588   1.161 -1.1805  0.3475  0.0038
  209MOL0     C28142   4.317   2.706   1.179  0.4878 -0.2380  0.3120
  209MOL0     C28143   4.376   2.826   1.259  0.0006  0.0148 -0.4960
  209MOL0     C28144   4.497   2.875   1.189  0.4198  0.0067  0.3738
  209MOL0     C28145   4.585   2.922   1.114  0.8539 -0.2504  0.1821
  209MOL0     C28146   4.325   2.278   0.868  0.7795 -0.2653  0.4075
  209MOL0     C28147   4.298   2.191   0.762  0.2143  0.5029 -0.0814
  209MOL0     H28148   4.229   2.069   0.264  0.0721 -1.5095 -3.8333
  209MOL0     H28149   4.170   1.924   0.083  0.6563  3.7041 -0.6630
  209MOL0     H28150   3.969   1.627   0.054 -1.9042 -2.0118 -1.9387
  209MOL0     H28151   3.879   1.688   0.194 -0.2127  1.7400 -0.3504
  209MOL0     H28152   3.745   1.716  -0.069 -3.7236 -1.1707  0.4270
  209MOL0     H28153   3.810   1.553  -0.042  3.8617  0.0579  1.0325
  209MOL0     H28154   3.673   1.549   0.177  0.4983 -0.2188 -0.3743
  209MOL0     H28155   3.611   1.710   0.144  5.2629  1.6194  1.2572
  209MOL0     H28156   3.506   1.613  -0.084 -3.5107 -2.3740  0.3780
  209MOL0     H28157   3.591   1.463  -0.038  1.5133  0.0924  0.9245
  209MOL0     H28158   3.346   1.591   0.076 -1.9035 -1.0317  0.0067
  209MOL0     H28159   3.363   1.421   0.030  1.3969  0.5521 -0.9614
  209MOL0     H28160   3.474   1.358   0.224 -1.0099 -1.7508  0.5209
  209MOL0     H28161   3.478   1.533   0.283 -2.2473  1.6744  0.2256
  209MOL0     H28162   3.232   1.544   0.273  1.8385  1.8520  2.1042
  209MOL0     H28163   3.222   1.373   0.223  2.7287 -0.6207 -1.7799
  209MOL0     H28164   3.323   1.477   0.475 -0.3503  0.7139 -1.6345
  209MOL0     H28165   3.345   1.298   0.427  1.2949 -0.4646  1.9604
  209MOL0     H28166   3.155   1.479   0.653 -1.2562  1.5059 -0.3153
  209MOL0     H28167   2.838   1.296   0.746  2.6875 -1.4524  0.9276
  209MOL0     H28168   2.955   1.419   0.807 -0.5177 -1.8530  2.1568
  209MOL0     H28169   2.690   1.476   0.664  2.4413 -2.0086 -3.0216
  209MOL0     H28170   2.826   1.578   0.645 -4.4861  1.8951 -0.1650
  209MOL0     H28171   2.834   1.624   0.886 -0.3277 -0.6457  0.7398
  209MOL0     H28172   2.699   1.524   0.924 -1.5511  1.6505  0.6915
  209MOL0     H28173   2.566   1.652   0.747  1.6496 -0.0995 -3.9257
  209MOL0     H28174   2.705   1.775   0.760  1.1729 -0.8838  1.4049
  209MOL0     H28175   2.480   1.866   0.731 -1.2880  2.4005 -0.9094
  209MOL0     H28176   2.316   2.023   0.611 -1.5269 -1.9862 -0.6332
  209MOL0     H28177   2.163   1.971   0.678  0.1402 -0.3939  0.9038
  209MOL0     H28178   2.237   2.118   0.731 -1.0113 -0.9916  1.2471
  209MOL0     H28179   2.071   2.173   1.330  0.2561  1.8015  1.1374
  209MOL0     H28180   1.867   2.255   1.449  0.6521  0.0976  0.0180
  209MOL0     H28181   1.584   2.313   1.510  1.3245  3.6132  1.6196
  209MOL0     H28182   1.708   2.407   1.423 -0.1960  0.1430  1.3196
  209MOL0     H28183   1.512   2.480   1.278 -0.8397  1.1011 -0.1863
  209MOL0     H28184   1.409   2.386   1.394 -0.0945 -0.1393 -1.9799
  209MOL0     H28185   1.588   2.628   1.462 -1.3642  0.8152 -1.1210
  209MOL0     H28186   1.508   2.524   1.582  0.8776 -0.6367  0.4873
  209MOL0     H28187   1.393   2.742   1.534 -1.2217 -0.1407 -0.3058
  209MOL0     H28188   1.388   2.692   1.365 -0.1839 -0.0488 -0.1837
  209MOL0     H28189   1.229   2.502   1.450  2.5271  0.6308 -1.3302
  209MOL0     H28190   1.160   2.660   1.483  1.0250  1.8669  0.0086
  209MOL0     H28191   1.290   2.464   1.677 -3.1056 -1.0688  4.1343
  209MOL0     H28192   1.285   2.635   1.718  1.5071 -1.2615  0.0860
  209MOL0     H28193   1.061   2.442   1.642 -0.2105  3.1987 -2.8901
  209MOL0     H28194   1.014   2.599   1.668 -0.7046 -0.8751 -1.8094
  209MOL0     H28195   1.113   2.584   1.914  0.0783 -0.0623  0.0101
  209MOL0     H28196   1.153   2.415   1.890 -2.3232 -0.5420  1.4585
  209MOL0     H28197   1.635   2.146   1.100  0.0889 -0.7515 -1.1427
  209MOL0     H28198   1.836   2.050   1.001  2.1050 -0.0382 -0.9509
  209MOL0     H28199   2.284   1.954   1.169 -3.5930 -0.7464 -1.7231
  209MOL0     H28200   2.496   1.820   1.147  0.5365 -1.1816  0.0685
  209MOL0     H28201   3.765   1.923   0.228 -0.6362  3.3958 -0.4013
  209MOL0     H28202   3.831   2.079   0.419  1.8531  2.5694  1.1889
  209MOL0     H28203   4.054   2.362   0.614  0.2852 -0.0506 -0.4300
  209MOL0     H28204   4.138   2.535   0.755 -0.1322  0.5228  1.5870
  209MOL0     H28205   4.252   2.440   1.143  0.9351  0.8603  1.2179
  209MOL0     H28206   4.414   2.396   1.091  0.4410  0.6027  2.0598
  209MOL0     H28207   4.500   2.618   1.107  0.9053 -1.7402  2.0214
  209MOL0     H28208   4.443   2.549   1.258  0.8167 -1.2822 -1.2685
  209MOL0     H28209   4.231   2.675   1.238  0.5305  2.3433  1.8639
  209MOL0     H28210   4.282   2.746   1.083  0.4966  1.7278  1.1000
  209MOL0     H28211   4.416   2.796   1.356 -2.6716 -1.2381  0.3135
  209MOL0     H28212   4.294   2.896   1.277 -0.3606 -0.9733  2.2077
  209MOL0     H28213   4.639   2.976   1.039 -1.7848  0.1086 -1.6192
  209MOL0     H28214   4.397   2.252   0.946  1.2154  0.7695  0.3691
  209MOL0     H28215   4.342   2.092   0.760 -0.8545  0.0114 -0.0169
  210MOL0     O28216   6.938  10.595   1.217 -0.0341 -0.3546 -0.2246
  210MOL0     C28217   7.015  10.632   1.300 -0.5140 -0.5974 -0.4408
  210MOL0     O28218   6.996  10.634   1.436 -0.5809  0.1278  0.3676
  210MOL0     C28219   6.876  10.606   1.504  0.6550 -0.6079 -0.0609
  210MOL0     C28220   6.870  10.658   1.635 -1.5192 -0.7750  0.4250
  210MOL0     C28221   6.756  10.643   1.705  1.0120  0.2678 -1.5765
  210MOL0     C28222   6.654  10.562   1.664  0.7299  0.7694  0.5104
  210MOL0     O28223   6.553  10.539   1.756 -0.1630  0.7305  0.0694
  210MOL0     C28224   6.413  10.524   1.706 -0.0955 -0.2058 -1.7624
  210MOL0     C28225   6.311  10.553   1.818  0.1661  0.0811  0.7808
  210MOL0     C28226   6.332  10.698   1.874 -0.4762  0.5164 -0.2274
  210MOL0     C28227   6.270  10.718   2.010  0.2794 -0.6682  0.5458
  210MOL0     C28228   6.344  10.649   2.122 -0.1692 -0.2320  0.7701
  210MOL0     C28229   6.471  10.728   2.163 -0.2093  0.6539  0.7708
  210MOL0     C28230   6.539  10.693   2.297 -0.0155  0.3955  0.5118
  210MOL0     C28231   6.673  10.772   2.302 -0.5760 -0.8803  0.5520
  210MOL0     N28232   6.763  10.726   2.191  0.1556  0.5109 -0.8475
  210MOL0     C28233   6.819  10.603   2.172 -0.6507  0.0942  1.1064
  210MOL0     C28234   6.895  10.613   2.058  0.5854 -0.2016  0.1431
  210MOL0     C28235   6.971  10.500   1.988  0.1947 -0.1893 -0.4269
  210MOL0     C28236   7.103  10.541   1.919 -0.0843 -0.3941 -0.9694
  210MOL0     C28237   7.168  10.420   1.855  0.3485 -0.3308 -0.1518
  210MOL0     C28238   7.267  10.477   1.746  0.3106  0.7450  0.4808
  210MOL0     O28239   7.336  10.585   1.799 -0.3546 -0.1377 -0.2184
  210MOL0     C28240   7.449  10.632   1.725  0.2425 -0.3834 -0.0054
  210MOL0     C28241   7.513  10.744   1.782 -0.5600 -0.0827 -0.2376
  210MOL0     C28242   7.630  10.798   1.725  0.9494 -0.6344  0.2577
  210MOL0     C28243   7.674  10.934   1.780  0.2699 -0.0550  0.0152
  210MOL0     C28244   7.689  10.741   1.606  0.5403  0.7012  0.3095
  210MOL0     C28245   7.804  10.793   1.528 -0.5440  0.1617 -0.1523
  210MOL0     O28246   7.830  10.735   1.410 -0.3536 -0.1495  0.5183
  210MOL0     C28247   7.950  10.771   1.353  0.3690 -0.5846 -0.6971
  210MOL0     C28248   8.053  10.675   1.339  1.4303 -0.1588 -0.6612
  210MOL0     C28249   8.173  10.711   1.276  0.5830  0.3283  0.1611
  210MOL0     C28250   8.197  10.838   1.221  0.0402 -0.3270  0.3829
  210MOL0     O28251   8.327  10.861   1.176  0.3851 -0.1761 -0.2200
  210MOL0     C28252   8.410  10.909   1.290  0.5072 -0.8254  0.8900
  210MOL0     C28253   8.552  10.868   1.262 -0.6574 -0.2205  0.3444
  210MOL0     C28254   8.621  10.949   1.148  0.9105 -0.6267  0.0996
  210MOL0     C28255   8.773  10.937   1.167 -0.0713 -0.1800 -0.6136
  210MOL0     C28256   8.847  10.984   1.040  0.0254  1.6419  0.4612
  210MOL0     C28257   8.989  10.947   1.034 -0.2776  0.0742 -0.5980
  210MOL0     C28258   9.082  11.053   1.112  0.2134  0.0893  0.2726
  210MOL0     C28259   9.226  11.047   1.069  0.5484  0.4957  0.3061
  210MOL0    Cl28260   9.318  11.091   1.210 -0.3226 -0.7857 -0.0486
  210MOL0     C28261   8.096  10.932   1.235  0.3252 -0.6796 -0.8070
  210MOL0     C28262   7.978  10.902   1.301  0.4886 -0.7084 -0.4479
  210MOL0     O28263   7.861  10.890   1.575 -0.3762 -0.0232  1.2693
  210MOL0     C28264   7.621  10.630   1.557  0.4200 -0.7859  0.5171
  210MOL0     C28265   7.509  10.573   1.613 -0.1443 -0.2821  0.5150
  210MOL0     N28266   6.876  10.739   2.007  0.0651 -0.0480 -0.2445
  210MOL0     N28267   6.794  10.807   2.085 -0.2395  0.9513  0.5138
  210MOL0     C28268   6.651  10.508   1.534  0.1305 -0.6364  0.3047
  210MOL0     C28269   6.764  10.526   1.451 -0.6584  0.3582  0.0677
  210MOL0     C28270   7.153  10.671   1.257  0.0618 -0.4393 -0.9424
  210MOL0     C28271   7.242  10.723   1.354 -0.1340 -0.5290  0.2436
  210MOL0     C28272   7.369  10.754   1.317 -0.2423 -0.7144 -0.1845
  210MOL0     C28273   7.421  10.737   1.190 -1.0334 -0.9902 -0.2434
  210MOL0     O28274   7.555  10.772   1.174  0.1888 -0.4018 -0.7754
  210MOL0     C28275   7.617  10.761   1.045 -1.0895  0.3346 -0.4261
  210MOL0     C28276   7.764  10.799   1.050  0.5515  0.1750  0.1990
  210MOL0     C28277   7.839  10.773   0.921  0.4312 -0.6924 -0.3349
  210MOL0     C28278   7.981  10.820   0.927 -0.3952  0.5952  0.0412
  210MOL0     C28279   8.059  10.794   0.803  0.1042 -0.0624  0.1876
  210MOL0     C28280   8.110  10.800   0.694 -0.3144 -1.2264  0.0327
  210MOL0     C28281   7.335  10.687   1.085  0.9872  1.1647 -1.1930
  210MOL0     C28282   7.195  10.650   1.123  0.8105  0.4556 -0.2066
  210MOL0     H28283   6.959  10.711   1.670 -0.4343 -1.1902 -1.5849
  210MOL0     H28284   6.753  10.691   1.803  0.3252  0.2290 -1.5711
  210MOL0     H28285   6.389  10.583   1.617 -1.3542  1.0479 -0.6465
  210MOL0     H28286   6.400  10.421   1.672  0.3772 -0.1993 -1.9600
  210MOL0     H28287   6.215  10.545   1.766 -0.3116  0.7418  1.5369
  210MOL0     H28288   6.329  10.478   1.895  0.8759  1.0187  1.5577
  210MOL0     H28289   6.438  10.727   1.883 -0.0397 -1.3545  1.2344
  210MOL0     H28290   6.292  10.764   1.796 -0.6563 -1.1516 -1.6216
  210MOL0     H28291   6.253  10.824   2.032 -1.1421  0.4252 -4.5681
  210MOL0     H28292   6.172  10.669   1.999 -0.3349  0.8354 -1.1703
  210MOL0     H28293   6.267  10.643   2.199 -1.3529  0.0856 -0.3607
  210MOL0     H28294   6.358  10.542   2.107 -1.2209 -0.2132 -0.5141
  210MOL0     H28295   6.538  10.705   2.080  0.5718 -1.2914  1.8696
  210MOL0     H28296   6.447  10.834   2.171 -1.2265  0.5591 -0.7093
  210MOL0     H28297   6.477  10.727   2.380 -0.5579 -1.6598  1.0197
  210MOL0     H28298   6.560  10.587   2.313  2.3486  0.9757  1.7184
  210MOL0     H28299   6.719  10.760   2.400  1.0645  0.4929  0.0112
  210MOL0     H28300   6.659  10.879   2.288 -2.3654 -1.3504 -1.7904
  210MOL0     H28301   6.817  10.513   2.231  2.1548 -1.2742 -0.6542
  210MOL0     H28302   6.999  10.425   2.063  0.0206  0.8145  0.6741
  210MOL0     H28303   6.895  10.462   1.919 -1.3441 -0.5486  1.3625
  210MOL0     H28304   7.172  10.594   1.986  0.4144 -3.4843  1.1834
  210MOL0     H28305   7.067  10.600   1.834 -0.0796 -0.2769 -0.8892
  210MOL0     H28306   7.106  10.343   1.807  1.9962 -1.8603  0.0614
  210MOL0     H28307   7.216  10.360   1.933  1.2760 -0.5848 -0.8967
  210MOL0     H28308   7.211  10.501   1.655  0.1056 -3.4751 -0.7115
  210MOL0     H28309   7.335  10.394   1.723 -3.6113 -2.7554  0.3992
  210MOL0     H28310   7.485  10.787   1.877  2.1482 -2.7662  2.0061
  210MOL0     H28311   7.623  10.969   1.870 -0.0815  0.8111 -0.5107
  210MOL0     H28312   7.781  10.930   1.803  0.0646  0.2661  1.0663
  210MOL0     H28313   7.656  11.017   1.711 -0.0895 -0.2042 -0.0713
  210MOL0     H28314   8.025  10.584   1.391 -0.8581 -0.5215 -2.3550
  210MOL0     H28315   8.249  10.635   1.259 -2.1526 -2.2231 -1.6496
  210MOL0     H28316   8.403  11.016   1.308  1.1121 -0.8537  1.3515
  210MOL0     H28317   8.384  10.855   1.381 -2.0128 -0.0905  0.6600
  210MOL0     H28318   8.607  10.895   1.353 -1.1971  1.1888  0.2893
  210MOL0     H28319   8.568  10.760   1.255  3.2955  0.0584  2.2483
  210MOL0     H28320   8.582  11.051   1.159 -1.0838 -1.4689  1.2748
  210MOL0     H28321   8.576  10.902   1.060 -2.7608 -0.1931  1.5662
  210MOL0     H28322   8.813  10.992   1.252  1.1389 -3.4677  1.1120
  210MOL0     H28323   8.801  10.833   1.190 -0.4967 -1.2621 -4.2118
  210MOL0     H28324   8.833  11.093   1.033 -1.9091  1.4363  0.5737
  210MOL0     H28325   8.797  10.932   0.959  1.4331 -2.2047  1.8440
  210MOL0     H28326   9.006  10.843   1.065 -1.7075  0.2728  1.0085
  210MOL0     H28327   9.017  10.952   0.928  2.8227  1.1148  0.1811
  210MOL0     H28328   9.064  11.037   1.219  0.6193  1.0761  0.5019
  210MOL0     H28329   9.061  11.160   1.095  2.0771  0.7854  1.9426
  210MOL0     H28330   9.258  11.107   0.984 -0.5176  0.3857 -0.1878
  210MOL0     H28331   9.264  10.949   1.039  1.7277  1.3579 -1.1234
  210MOL0     H28332   8.114  11.035   1.206 -0.1693  0.7891  3.3661
  210MOL0     H28333   7.899  10.975   1.290  1.9151  0.9869  0.0456
  210MOL0     H28334   7.647  10.576   1.467 -0.4401  1.0044 -0.8618
  210MOL0     H28335   7.464  10.485   1.569 -1.8248  0.8941 -0.2320
  210MOL0     H28336   6.560  10.466   1.492  1.2011 -2.4321 -0.3203
  210MOL0     H28337   6.753  10.494   1.348 -1.0494 -0.3981  0.3397
  210MOL0     H28338   7.223  10.741   1.459 -0.0386  3.5105 -0.2918
  210MOL0     H28339   7.432  10.807   1.388  1.1600  0.2877 -2.0855
  210MOL0     H28340   7.610  10.663   0.998  0.6694 -0.3521  0.6329
  210MOL0     H28341   7.568  10.828   0.974 -2.4923 -1.1721 -0.9397
  210MOL0     H28342   7.820  10.751   1.131  2.1866 -1.0367 -1.5610
  210MOL0     H28343   7.762  10.908   1.061 -2.2093  0.1467  0.7236
  210MOL0     H28344   7.789  10.829   0.842  2.9612  1.9686 -0.2298
  210MOL0     H28345   7.840  10.665   0.904  0.6213 -1.0148  1.5042
  210MOL0     H28346   8.038  10.766   1.002  2.4373  1.8623 -1.0444
  210MOL0     H28347   7.990  10.926   0.952 -0.7580  0.8794 -0.9746
  210MOL0     H28348   8.158  10.794   0.598 -0.9201  0.4971 -0.4215
  210MOL0     H28349   7.374  10.657   0.988  0.9036  0.3175 -0.9764
  210MOL0     H28350   7.137  10.612   1.040  0.7745  0.0923 -0.0178
  211MOL0     O28351   4.879   9.498   2.024  0.3284 -0.1398  0.2178
  211MOL0     C28352   4.922   9.380   2.013 -0.0828 -0.1910 -0.1986
  211MOL0     O28353   4.841   9.267   1.990 -0.2065  0.2221 -0.3714
  211MOL0     C28354   4.706   9.260   2.010 -0.2275  0.0261 -0.3577
  211MOL0     C28355   4.663   9.127   2.020  0.5244 -0.2960  0.2263
  211MOL0     C28356   4.529   9.093   2.032  0.3571 -0.9631  0.6899
  211MOL0     C28357   4.429   9.198   2.055  0.7855  0.2314 -0.2127
  211MOL0     O28358   4.295   9.191   2.072  0.6617 -1.0694 -0.0562
  211MOL0     C28359   4.239   9.066   2.101 -0.3116  0.0836  0.5878
  211MOL0     C28360   4.092   9.084   2.059  0.1636  0.2328  0.2993
  211MOL0     C28361   4.015   8.946   2.036 -0.2411  0.0721 -0.1170
  211MOL0     C28362   4.067   8.834   2.134 -0.3354  0.7220  0.8845
  211MOL0     C28363   3.981   8.716   2.138 -0.4019  0.5908 -0.6488
  211MOL0     C28364   4.027   8.595   2.226 -0.1487  0.0795  0.6391
  211MOL0     C28365   4.158   8.537   2.169 -0.3054  1.0165 -0.7093
  211MOL0     C28366   4.172   8.398   2.229  0.3084  0.2618  0.6341
  211MOL0     N28367   4.277   8.325   2.151  0.2565  0.4344 -0.2274
  211MOL0     C28368   4.261   8.241   2.039  0.5377 -0.2142 -0.1145
  211MOL0     C28369   4.371   8.173   2.041 -0.2450  0.5857  0.6915
  211MOL0     C28370   4.389   8.063   1.948  0.3971  0.9688  0.5756
  211MOL0     C28371   4.485   8.107   1.840 -0.4197  0.8052 -0.1000
  211MOL0     C28372   4.615   8.024   1.846  0.1977  0.1941 -0.3795
  211MOL0     C28373   4.592   7.888   1.783  0.0766  0.5836 -0.5039
  211MOL0     O28374   4.537   7.884   1.651 -0.4028  0.2259 -0.5745
  211MOL0     C28375   4.615   7.924   1.554 -1.0848  0.2716  1.0306
  211MOL0     C28376   4.744   7.861   1.533 -0.0639 -0.2984 -0.7739
  211MOL0     C28377   4.834   7.898   1.428  0.2641 -1.0378 -0.2214
  211MOL0     C28378   4.951   7.811   1.409  0.1071 -1.0208 -0.0206
  211MOL0     C28379   4.793   7.990   1.335  0.7805 -0.1036 -0.4200
  211MOL0     C28380   4.856   8.023   1.205  0.1497 -0.3158  0.3493
  211MOL0     O28381   4.786   8.092   1.100 -0.4659  0.4485 -0.1192
  211MOL0     C28382   4.853   8.171   1.018 -0.2926 -0.5013  0.7057
  211MOL0     C28383   4.805   8.169   0.887  0.0498  0.2669  0.9311
  211MOL0     C28384   4.860   8.251   0.785 -0.2446 -0.1816  0.2451
  211MOL0     C28385   4.968   8.334   0.814 -0.0456 -1.1234  0.1697
  211MOL0     O28386   5.037   8.404   0.718 -0.0746 -0.1859  0.0535
  211MOL0     C28387   5.000   8.403   0.586 -0.3549 -1.0923  0.8129
  211MOL0     C28388   5.123   8.428   0.493  0.3117  0.1294 -0.5786
  211MOL0     C28389   5.098   8.499   0.360  0.5096 -0.0434 -0.3718
  211MOL0     C28390   5.223   8.470   0.266  0.5043  0.7393 -0.1567
  211MOL0     C28391   5.186   8.536   0.133  0.2915  0.6501 -0.8087
  211MOL0     C28392   5.292   8.512   0.019  0.6546 -0.3819  0.1951
  211MOL0     C28393   5.311   8.368  -0.020 -0.1345  0.3363 -0.9618
  211MOL0     C28394   5.406   8.355  -0.144  0.0580 -0.1642 -0.4084
  211MOL0    Cl28395   5.415   8.192  -0.215  0.0025 -0.5655 -0.3065
  211MOL0     C28396   5.028   8.327   0.940  1.0291 -0.5676 -0.1542
  211MOL0     C28397   4.967   8.251   1.041 -0.9397 -0.2201  0.0958
  211MOL0     O28398   4.971   7.984   1.190 -0.1251 -0.6755 -0.8868
  211MOL0     C28399   4.670   8.049   1.360 -0.0201 -1.1749 -0.6913
  211MOL0     C28400   4.580   8.020   1.465 -0.3738 -0.0666 -0.4003
  211MOL0     N28401   4.463   8.220   2.130 -0.2055 -0.2277 -0.5383
  211MOL0     N28402   4.403   8.307   2.206 -0.7397 -0.9320  0.0411
  211MOL0     C28403   4.477   9.328   2.058  0.8387  0.6008  0.5219
  211MOL0     C28404   4.613   9.362   2.036  0.1180  0.5909  0.8010
  211MOL0     C28405   5.066   9.358   2.006 -0.0823 -0.4478 -0.7112
  211MOL0     C28406   5.134   9.240   1.986  0.4373 -1.3975  0.5263
  211MOL0     C28407   5.273   9.227   1.991 -0.2058  0.1971  0.5111
  211MOL0     C28408   5.350   9.335   2.019  0.3614  1.1444 -0.1838
  211MOL0     O28409   5.480   9.316   2.059 -0.1587 -0.2803  0.0029
  211MOL0     C28410   5.569   9.426   2.089 -0.0249  0.4394 -1.6731
  211MOL0     C28411   5.692   9.358   2.152  0.0597 -0.6523  0.3743
  211MOL0     C28412   5.770   9.263   2.052 -0.6180 -0.8059 -0.2800
  211MOL0     C28413   5.857   9.318   1.938  0.5007 -0.1412 -0.8108
  211MOL0     C28414   5.882   9.212   1.842  0.7276 -0.2293 -0.3075
  211MOL0     C28415   5.900   9.122   1.759 -0.0875  0.8641 -0.7662
  211MOL0     C28416   5.288   9.462   2.034  0.4009 -0.4262  0.1236
  211MOL0     C28417   5.148   9.468   2.030 -0.0718 -0.5150 -0.1621
  211MOL0     H28418   4.734   9.045   2.005  0.4948 -0.0790 -1.1688
  211MOL0     H28419   4.509   8.987   2.020  1.7595 -1.1231 -0.6548
  211MOL0     H28420   4.296   8.991   2.044  0.2749  0.6156  0.4688
  211MOL0     H28421   4.228   9.037   2.206 -2.2881 -0.9956  0.1410
  211MOL0     H28422   4.060   9.150   2.140  1.2616  1.4547 -0.2469
  211MOL0     H28423   4.091   9.139   1.965  1.0647 -0.0340  0.1217
  211MOL0     H28424   3.913   8.965   2.072  0.0866  0.5732  0.5655
  211MOL0     H28425   4.025   8.915   1.932  4.6799  0.4532  0.0244
  211MOL0     H28426   4.167   8.799   2.104  0.1161  3.2278 -0.8265
  211MOL0     H28427   4.074   8.881   2.232  1.3403  1.5773  0.3985
  211MOL0     H28428   3.876   8.729   2.162 -1.1974  0.0334 -3.4515
  211MOL0     H28429   3.983   8.681   2.034  0.8139  1.0336 -0.7936
  211MOL0     H28430   4.045   8.627   2.329  3.3760  1.3339 -0.2213
  211MOL0     H28431   3.937   8.533   2.228 -2.3667  3.0085 -1.1630
  211MOL0     H28432   4.136   8.513   2.065  0.4250  1.9552 -1.0921
  211MOL0     H28433   4.248   8.598   2.174  0.6600 -0.1341 -2.9078
  211MOL0     H28434   4.073   8.353   2.243  0.6280  0.1990  3.2903
  211MOL0     H28435   4.209   8.409   2.331 -2.0118 -0.9976  1.6842
  211MOL0     H28436   4.168   8.236   1.983  0.5433  2.1413 -0.4514
  211MOL0     H28437   4.429   7.983   2.011 -0.0244  1.4257  1.4356
  211MOL0     H28438   4.297   8.042   1.894  2.1412 -0.1813 -2.1638
  211MOL0     H28439   4.512   8.212   1.857 -2.2516  1.2224  0.3952
  211MOL0     H28440   4.434   8.105   1.743 -0.1976 -0.3380 -0.2157
  211MOL0     H28441   4.656   8.024   1.947  0.1927  1.8515 -0.3483
  211MOL0     H28442   4.695   8.079   1.796 -2.2516  3.5361 -1.0468
  211MOL0     H28443   4.535   7.825   1.853 -1.7393 -0.1939 -2.5693
  211MOL0     H28444   4.692   7.843   1.788 -0.0344  0.3511 -0.3567
  211MOL0     H28445   4.772   7.783   1.602 -1.8054 -2.1203 -2.0077
  211MOL0     H28446   4.958   7.742   1.494 -0.7705  0.5689  1.4132
  211MOL0     H28447   4.933   7.756   1.317  0.8693 -0.2547 -0.6480
  211MOL0     H28448   5.044   7.868   1.403 -2.3628  3.3910 -0.2316
  211MOL0     H28449   4.709   8.124   0.866 -0.3368  1.2775  0.4852
  211MOL0     H28450   4.806   8.251   0.691  1.3994 -1.8359 -0.7792
  211MOL0     H28451   4.938   8.319   0.553 -1.8456  0.1229  0.4252
  211MOL0     H28452   4.935   8.491   0.586  1.3209  0.2812 -2.0671
  211MOL0     H28453   5.193   8.490   0.551 -0.4817  1.0281 -0.5523
  211MOL0     H28454   5.156   8.326   0.475  0.8922  0.2609 -0.2782
  211MOL0     H28455   5.080   8.605   0.381  4.3754  0.2155  3.0140
  211MOL0     H28456   5.008   8.460   0.311 -0.7888  2.1242  0.1462
  211MOL0     H28457   5.310   8.524   0.304  0.6202 -0.0645  0.7485
  211MOL0     H28458   5.241   8.364   0.245 -1.4364  0.3404 -0.0286
  211MOL0     H28459   5.180   8.645   0.146 -1.0034  0.9292 -3.1912
  211MOL0     H28460   5.085   8.506   0.104  0.9346 -1.3493 -1.1386
  211MOL0     H28461   5.271   8.574  -0.068  3.1349  0.2085 -0.0449
  211MOL0     H28462   5.385   8.553   0.059  0.2545  2.3167 -1.3600
  211MOL0     H28463   5.215   8.317  -0.035 -0.0663 -0.9731  2.2853
  211MOL0     H28464   5.370   8.309   0.050  0.9162  0.9642 -1.2923
  211MOL0     H28465   5.504   8.388  -0.110  0.2230 -0.9084 -0.1377
  211MOL0     H28466   5.358   8.416  -0.221  0.7659 -0.7689 -1.3523
  211MOL0     H28467   5.115   8.391   0.955 -0.0813  1.5485 -2.2776
  211MOL0     H28468   5.011   8.254   1.140  0.7429  0.1276 -0.6321
  211MOL0     H28469   4.652   8.129   1.288  0.1108 -0.6599 -0.1576
  211MOL0     H28470   4.486   8.070   1.489 -0.9113 -1.2434  0.0156
  211MOL0     H28471   4.414   9.410   2.091 -0.0848  0.3748 -0.6209
  211MOL0     H28472   4.650   9.464   2.041 -2.3154  1.6841 -1.4341
  211MOL0     H28473   5.063   9.158   1.980  2.4459 -3.1211 -1.3092
  211MOL0     H28474   5.313   9.127   1.976 -3.1679 -0.6698 -3.1257
  211MOL0     H28475   5.600   9.482   2.001  2.1285 -0.4050 -1.5075
  211MOL0     H28476   5.521   9.501   2.153  0.3763 -0.0778 -0.7390
  211MOL0     H28477   5.652   9.305   2.239 -0.2673 -0.1561  0.5272
  211MOL0     H28478   5.765   9.427   2.194 -1.2298  0.4219  0.9108
  211MOL0     H28479   5.693   9.198   2.009 -1.7528 -0.5454  1.2694
  211MOL0     H28480   5.825   9.196   2.119  1.8707  0.7516 -0.6375
  211MOL0     H28481   5.945   9.365   1.983 -0.1967  0.4960 -0.0734
  211MOL0     H28482   5.800   9.395   1.885  1.0725  0.5058 -0.5027
  211MOL0     H28483   5.914   9.040   1.692  0.2326 -1.3820  1.9006
  211MOL0     H28484   5.345   9.553   2.051  1.0133 -0.7470 -0.1505
  211MOL0     H28485   5.106   9.566   2.051  1.2420 -0.1393  0.8405
  212MOL0     O28486   9.879  11.345   2.561 -0.0851 -0.1980 -0.1674
  212MOL0     C28487   9.945  11.413   2.645 -1.2666 -0.2432  1.3912
  212MOL0     O28488   9.912  11.445   2.771  0.6299 -0.0348  0.0077
  212MOL0     C28489   9.782  11.490   2.784  0.1691  0.3279 -0.0812
  212MOL0     C28490   9.741  11.600   2.703  0.5812  0.4829 -0.1635
  212MOL0     C28491   9.614  11.641   2.737  1.1282  0.0751 -0.1411
  212MOL0     C28492   9.524  11.586   2.829  1.3226 -0.4260 -0.0758
  212MOL0     O28493   9.413  11.649   2.882  0.7795 -0.3159  0.4802
  212MOL0     C28494   9.288  11.587   2.865  0.1432  0.0073  0.1553
  212MOL0     C28495   9.176  11.684   2.901 -1.1505 -0.0189  0.2580
  212MOL0     C28496   9.038  11.618   2.888 -0.1294 -0.3598 -0.0496
  212MOL0     C28497   8.938  11.717   2.948 -0.3870  0.2510  0.1923
  212MOL0     C28498   8.806  11.648   2.940 -0.7998  0.1006  0.4822
  212MOL0     C28499   8.697  11.745   2.988 -0.1236 -0.1194 -0.0947
  212MOL0     C28500   8.574  11.666   3.039  0.8146  0.6951 -0.5327
  212MOL0     C28501   8.466  11.754   3.115  0.3385  0.2088  0.3118
  212MOL0     N28502   8.409  11.860   3.028 -0.6733  0.1765  0.9509
  212MOL0     C28503   8.303  11.845   2.942  0.3270  0.0697  0.8418
  212MOL0     C28504   8.294  11.958   2.865 -0.2007  0.1818  0.3240
  212MOL0     C28505   8.191  11.990   2.761  1.4188  0.0718  0.1181
  212MOL0     C28506   8.050  12.016   2.814 -0.6302 -0.3875 -0.2053
  212MOL0     C28507   7.947  12.046   2.710  0.6500 -0.3838 -0.4520
  212MOL0     C28508   7.815  12.098   2.776  0.7512  0.2926  0.3516
  212MOL0     O28509   7.708  12.100   2.684 -0.5078  0.6351 -0.3029
  212MOL0     C28510   7.582  12.116   2.725  0.2862  0.1561  0.4190
  212MOL0     C28511   7.545  12.190   2.840  0.9394  0.0800  0.4218
  212MOL0     C28512   7.420  12.234   2.870 -0.5606  0.1709 -0.0574
  212MOL0     C28513   7.398  12.298   3.003 -0.0984  0.0943 -0.3910
  212MOL0     C28514   7.315  12.203   2.781 -0.2934 -0.1958 -0.9778
  212MOL0     C28515   7.176  12.232   2.795  0.3888 -0.2257 -0.2019
  212MOL0     O28516   7.105  12.271   2.690 -0.2335 -0.6541  0.0147
  212MOL0     C28517   6.963  12.282   2.697 -0.5687 -0.5557 -0.2292
  212MOL0     C28518   6.896  12.379   2.781  0.4509 -0.2330  0.7591
  212MOL0     C28519   6.753  12.388   2.790 -0.5649  0.4843  0.0966
  212MOL0     C28520   6.676  12.304   2.708 -0.5566  0.6690 -0.4181
  212MOL0     O28521   6.546  12.301   2.693  0.4867 -0.2237  0.0817
  212MOL0     C28522   6.479  12.429   2.671  0.7644  0.4616  0.3452
  212MOL0     C28523   6.326  12.416   2.685  0.7291  0.1363 -0.6349
  212MOL0     C28524   6.280  12.329   2.809 -0.6885 -0.1473 -0.6418
  212MOL0     C28525   6.128  12.302   2.803  1.3850  0.3793  0.5779
  212MOL0     C28526   6.083  12.181   2.902 -0.3853  0.0906  0.4251
  212MOL0     C28527   6.044  12.231   3.052 -0.7941  0.2295 -0.1394
  212MOL0     C28528   6.046  12.104   3.142  0.5997  0.1529  0.2131
  212MOL0     C28529   5.986  12.125   3.284 -0.7737 -0.9963 -0.2004
  212MOL0    Cl28530   5.821  12.184   3.280  0.1671 -0.0321 -0.2118
  212MOL0     C28531   6.754  12.228   2.608  1.0454 -0.4346  0.6309
  212MOL0     C28532   6.889  12.213   2.609  0.3441  0.2256 -0.3347
  212MOL0     O28533   7.133  12.218   2.905  0.6645 -0.3353 -0.1628
  212MOL0     C28534   7.358  12.133   2.669  0.7035 -0.0966  0.7963
  212MOL0     C28535   7.477  12.105   2.632  0.3437  0.2224  0.6992
  212MOL0     N28536   8.401  12.036   2.902  0.5805 -0.4802 -0.3914
  212MOL0     N28537   8.465  11.984   2.993 -0.5118  0.4982 -0.3342
  212MOL0     C28538   9.564  11.480   2.902  0.3638  0.5713 -1.3241
  212MOL0     C28539   9.694  11.436   2.877 -0.4083 -0.8861 -0.3136
  212MOL0     C28540  10.081  11.455   2.605  0.1633 -0.1064  0.4686
  212MOL0     C28541  10.124  11.582   2.648 -0.0348  1.3894  0.0235
  212MOL0     C28542  10.258  11.620   2.630 -0.1076 -0.1213  0.0216
  212MOL0     C28543  10.357  11.535   2.570 -0.4685  0.6212 -0.0878
  212MOL0     O28544  10.490  11.544   2.589  0.2866 -0.6935 -0.2967
  212MOL0     C28545  10.535  11.661   2.649  0.1369  0.1727 -0.1101
  212MOL0     C28546  10.682  11.661   2.678  0.2486 -0.3267 -0.1061
  212MOL0     C28547  10.721  11.772   2.780  0.4901  0.6155  0.3815
  212MOL0     C28548  10.872  11.790   2.786 -0.8866 -0.2323  0.4908
  212MOL0     C28549  10.953  11.686   2.839 -0.1806  0.6464 -1.0012
  212MOL0     C28550  11.022  11.596   2.882 -0.4436  0.2876 -0.3135
  212MOL0     C28551  10.304  11.406   2.535  0.5859  0.0389  0.2747
  212MOL0     C28552  10.173  11.367   2.544  0.1320  0.3027 -0.1865
  212MOL0     H28553   9.794  11.655   2.627 -1.0486  2.3180 -0.0634
  212MOL0     H28554   9.566  11.729   2.696 -1.6131 -0.4816  1.6046
  212MOL0     H28555   9.266  11.564   2.760  1.0617  1.4700 -0.3817
  212MOL0     H28556   9.283  11.498   2.929  0.2036  1.8142  2.7910
  212MOL0     H28557   9.191  11.701   3.008 -1.8695 -1.4403  0.6059
  212MOL0     H28558   9.181  11.779   2.847 -1.5175  0.3194  0.8129
  212MOL0     H28559   9.011  11.612   2.782 -0.0633  0.1329 -0.1005
  212MOL0     H28560   9.032  11.525   2.944 -2.6368  0.0171  0.4687
  212MOL0     H28561   8.970  11.741   3.050  2.4837 -2.4781  0.0965
  212MOL0     H28562   8.942  11.805   2.884 -2.9196 -0.2017 -0.7064
  212MOL0     H28563   8.784  11.618   2.837 -0.6392  1.9634 -0.1277
  212MOL0     H28564   8.809  11.563   3.008  2.1785 -1.7463 -1.7011
  212MOL0     H28565   8.735  11.799   3.076 -1.5557 -0.8917  1.0445
  212MOL0     H28566   8.672  11.815   2.908 -0.5992 -0.8872 -0.6277
  212MOL0     H28567   8.531  11.606   2.958 -1.0544  1.1886  0.0608
  212MOL0     H28568   8.607  11.604   3.123  1.7096  1.0598 -0.5960
  212MOL0     H28569   8.511  11.802   3.203 -0.4889  1.1349  0.2436
  212MOL0     H28570   8.380  11.693   3.144 -1.2378  1.4451 -1.5449
  212MOL0     H28571   8.238  11.762   2.919 -0.3303  1.3279 -2.2380
  212MOL0     H28572   8.220  12.063   2.685 -1.2394  1.8415  0.6376
  212MOL0     H28573   8.177  11.896   2.706 -3.0779 -0.1150  1.1598
  212MOL0     H28574   8.055  12.101   2.883 -1.7535 -0.3857 -0.1146
  212MOL0     H28575   8.019  11.932   2.876  0.9433 -0.1118  1.0169
  212MOL0     H28576   7.931  11.956   2.650 -0.4565 -0.8636  0.5329
  212MOL0     H28577   7.992  12.124   2.648 -0.9266  0.1212 -1.0139
  212MOL0     H28578   7.831  12.204   2.799 -3.3920  1.0578  0.5821
  212MOL0     H28579   7.793  12.050   2.872 -0.4821  1.7802  0.8608
  212MOL0     H28580   7.617  12.207   2.919  0.8558 -0.5553  0.6417
  212MOL0     H28581   7.327  12.247   3.069 -1.6501  1.2361 -1.1171
  212MOL0     H28582   7.489  12.321   3.060 -0.0441  1.6171 -1.0265
  212MOL0     H28583   7.355  12.397   2.983  0.0615  0.6813  1.8949
  212MOL0     H28584   6.958  12.432   2.853  0.2238 -0.2727  0.9837
  212MOL0     H28585   6.704  12.448   2.865 -0.4673  3.1442 -1.8358
  212MOL0     H28586   6.512  12.506   2.741 -2.1026  0.7832  1.4693
  212MOL0     H28587   6.503  12.460   2.568  0.2868 -0.6982 -0.1373
  212MOL0     H28588   6.282  12.516   2.692 -1.1266 -0.5463 -1.7513
  212MOL0     H28589   6.283  12.361   2.600 -2.4408 -2.8000  2.5209
  212MOL0     H28590   6.314  12.370   2.904 -1.0082  3.1204 -1.8143
  212MOL0     H28591   6.335  12.237   2.784  3.5624  2.2047 -1.0459
  212MOL0     H28592   6.071  12.394   2.819  2.1756  0.8274  0.9101
  212MOL0     H28593   6.101  12.262   2.704 -1.7140  1.2646  0.9518
  212MOL0     H28594   6.175  12.123   2.910  1.6109  3.0014  0.1795
  212MOL0     H28595   6.007  12.111   2.866  0.6456 -0.3928 -0.8831
  212MOL0     H28596   6.108  12.309   3.092  0.5091 -1.4387  1.2113
  212MOL0     H28597   5.946  12.279   3.054 -1.3895 -0.9455 -0.1289
  212MOL0     H28598   6.144  12.058   3.153 -0.3668 -1.7297  1.3508
  212MOL0     H28599   5.975  12.030   3.103  1.2232 -1.7388  2.4803
  212MOL0     H28600   6.051  12.190   3.343  0.0706 -0.1104 -2.0100
  212MOL0     H28601   5.993  12.030   3.339  0.2216 -0.9988 -0.3168
  212MOL0     H28602   6.697  12.165   2.540  0.8069  0.9420 -0.5152
  212MOL0     H28603   6.947  12.142   2.552 -0.9865 -0.8175 -0.4301
  212MOL0     H28604   7.296  12.122   2.581  0.6661  3.0852  0.3066
  212MOL0     H28605   7.492  12.066   2.532 -0.8301 -1.3049  1.0954
  212MOL0     H28606   9.510  11.431   2.983  2.3655  0.7647  0.1994
  212MOL0     H28607   9.715  11.349   2.938 -1.1137  1.4715  3.7486
  212MOL0     H28608  10.048  11.646   2.692 -1.3872 -2.2438  3.5861
  212MOL0     H28609  10.294  11.708   2.684 -0.9766  1.4053 -1.7835
  212MOL0     H28610  10.494  11.748   2.598 -2.3985 -0.2664  1.0293
  212MOL0     H28611  10.499  11.672   2.751  0.8050  1.6787 -0.0050
  212MOL0     H28612  10.743  11.663   2.586  1.1005 -1.9051  0.3793
  212MOL0     H28613  10.713  11.568   2.727 -0.0112 -0.4809 -0.2331
  212MOL0     H28614  10.676  11.740   2.874 -2.2817 -1.9457 -1.6045
  212MOL0     H28615  10.681  11.866   2.739 -0.8098  0.2380  0.7531
  212MOL0     H28616  10.905  11.879   2.839 -1.4855  1.3931 -1.7161
  212MOL0     H28617  10.913  11.790   2.684 -2.3257  3.0635 -0.2148
  212MOL0     H28618  11.088  11.521   2.919 -2.3660 -0.7475  1.1752
  212MOL0     H28619  10.368  11.328   2.498  0.6815  0.5192 -0.6034
  212MOL0     H28620  10.142  11.268   2.511 -1.4247  0.5697  0.3867
  213MOL0     O28621  10.921   5.680   8.177  0.1526 -0.5351 -0.7699
  213MOL0     C28622  10.927   5.727   8.288  0.2656 -0.0732  0.7068
  213MOL0     O28623  10.877   5.846   8.331 -0.2006 -0.1908 -0.2592
  213MOL0     C28624  10.838   5.935   8.239 -0.7495  0.4888 -0.2012
  213MOL0     C28625  10.923   6.043   8.196 -0.4600  0.4010 -0.1066
  213MOL0     C28626  10.886   6.132   8.087 -0.3463 -0.4826 -0.2176
  213MOL0     C28627  10.767   6.103   8.015  0.8856  0.0316  0.2012
  213MOL0     O28628  10.711   6.178   7.918  0.7737 -0.0951 -0.2360
  213MOL0     C28629  10.770   6.303   7.894 -0.3440 -0.2682  0.3040
  213MOL0     C28630  10.899   6.275   7.807 -0.1385  0.0115  0.0327
  213MOL0     C28631  10.995   6.389   7.789 -0.2661  0.1752 -0.6310
  213MOL0     C28632  11.030   6.470   7.915  0.2410  1.2168 -1.0765
  213MOL0     C28633  11.150   6.556   7.885 -0.5164 -0.1348 -0.4564
  213MOL0     C28634  11.145   6.672   7.992 -0.5062 -0.0174  0.7060
  213MOL0     C28635  11.266   6.763   7.977 -0.6431 -0.5998 -0.0279
  213MOL0     C28636  11.253   6.893   8.061  0.5405  0.3164  0.3211
  213MOL0     N28637  11.383   6.960   8.070 -0.6785  0.8422  0.2011
  213MOL0     C28638  11.448   7.026   7.970 -0.3456 -0.2669 -0.7060
  213MOL0     C28639  11.560   7.073   8.034  0.9552  0.9292  1.3870
  213MOL0     C28640  11.665   7.148   7.961  0.4379 -0.3408  1.5996
  213MOL0     C28641  11.608   7.256   7.863 -0.9901 -0.9345  0.8558
  213MOL0     C28642  11.726   7.315   7.776 -0.0085  0.1991  0.2665
  213MOL0     C28643  11.682   7.429   7.686 -0.6545 -0.7802 -0.0633
  213MOL0     O28644  11.591   7.379   7.590 -0.1156 -0.2865 -0.0050
  213MOL0     C28645  11.548   7.463   7.490  0.3357 -0.1060 -0.6691
  213MOL0     C28646  11.530   7.602   7.508 -0.4870  0.1024 -0.1716
  213MOL0     C28647  11.488   7.687   7.412  0.2321 -0.0203  0.1872
  213MOL0     C28648  11.462   7.832   7.440 -0.0643 -0.5903  0.8386
  213MOL0     C28649  11.477   7.637   7.271  0.5404  0.0557  0.4600
  213MOL0     C28650  11.437   7.717   7.148 -0.6561 -0.7109 -0.1011
  213MOL0     O28651  11.479   7.661   7.028  0.2996  1.1311  0.4498
  213MOL0     C28652  11.466   7.734   6.916  0.0255 -0.2882 -0.0704
  213MOL0     C28653  11.401   7.667   6.811  0.3779  0.2707  0.0841
  213MOL0     C28654  11.384   7.726   6.688 -0.1341 -1.0324  0.3895
  213MOL0     C28655  11.432   7.859   6.666  0.2517 -0.6463  0.5098
  213MOL0     O28656  11.399   7.921   6.546  0.6939  0.6061 -0.1892
  213MOL0     C28657  11.503   7.912   6.450 -0.3967  0.6951  0.3823
  213MOL0     C28658  11.499   7.781   6.364  0.4408  0.5536 -0.1426
  213MOL0     C28659  11.370   7.793   6.278 -0.5758  0.5035  0.5445
  213MOL0     C28660  11.396   7.735   6.127  0.0054 -0.8243 -0.1334
  213MOL0     C28661  11.290   7.780   6.027 -0.5880  0.7139 -0.0395
  213MOL0     C28662  11.157   7.700   6.026  0.0542  0.3767  0.7261
  213MOL0     C28663  11.042   7.779   6.091 -0.2627 -0.8299 -0.1425
  213MOL0     C28664  10.975   7.884   5.993  0.3451  1.0769  0.3187
  213MOL0    Cl28665  10.905   7.782   5.861 -0.0330  0.0404  0.1152
  213MOL0     C28666  11.500   7.931   6.765  0.2576  0.0487 -1.1277
  213MOL0     C28667  11.524   7.855   6.888 -1.7638  0.4602  0.4124
  213MOL0     O28668  11.387   7.825   7.154  0.2667  0.4669 -1.1647
  213MOL0     C28669  11.503   7.504   7.247  1.0416  0.1286  0.2197
  213MOL0     C28670  11.529   7.418   7.358  0.1224  0.8581 -0.1402
  213MOL0     N28671  11.557   7.038   8.161 -0.0780  0.5641 -0.0523
  213MOL0     N28672  11.449   6.971   8.185 -0.3495 -0.4937 -0.1464
  213MOL0     C28673  10.678   6.007   8.068 -0.8158 -0.3037 -0.3225
  213MOL0     C28674  10.719   5.913   8.170 -0.1302 -0.1215  0.1021
  213MOL0     C28675  10.990   5.638   8.385 -0.3879  0.8791 -0.5977
  213MOL0     C28676  10.994   5.673   8.518 -0.7914 -1.2785 -0.1917
  213MOL0     C28677  11.044   5.597   8.621  0.0993 -0.0919  0.4803
  213MOL0     C28678  11.094   5.467   8.584  0.5769 -0.3633  0.2606
  213MOL0     O28679  11.148   5.378   8.676 -0.3568 -0.3301 -0.5041
  213MOL0     C28680  11.225   5.437   8.783 -0.1765 -0.0780 -0.0721
  213MOL0     C28681  11.331   5.346   8.830 -0.3643  0.9848  0.4316
  213MOL0     C28682  11.423   5.397   8.932 -0.4498  0.5967  0.0173
  213MOL0     C28683  11.508   5.304   9.012 -0.5325  0.1337 -0.5052
  213MOL0     C28684  11.625   5.259   8.931  0.4007  0.4175 -0.2198
  213MOL0     C28685  11.705   5.221   8.855  0.7291 -0.7086  0.6126
  213MOL0     C28686  11.089   5.432   8.453  0.6446  0.6616  0.0708
  213MOL0     C28687  11.044   5.515   8.351 -0.1431  0.7774  0.5267
  213MOL0     H28688  11.015   6.054   8.252 -1.1316  4.2237  0.4790
  213MOL0     H28689  10.964   6.198   8.050 -0.5746 -2.1352 -4.0598
  213MOL0     H28690  10.696   6.364   7.842 -0.9556  0.9809  2.5059
  213MOL0     H28691  10.787   6.360   7.986 -0.0565  2.2626 -1.2271
  213MOL0     H28692  10.970   6.201   7.844  3.3314  2.2248 -1.6776
  213MOL0     H28693  10.876   6.247   7.704  0.0473  3.4473 -1.0728
  213MOL0     H28694  11.090   6.342   7.760  0.1780  1.0657 -0.6356
  213MOL0     H28695  10.959   6.460   7.714 -3.9216 -0.6876  0.0952
  213MOL0     H28696  10.950   6.539   7.944  0.8641  1.0382  1.3261
  213MOL0     H28697  11.050   6.402   7.999 -0.4769  0.5920 -1.3975
  213MOL0     H28698  11.246   6.504   7.892  0.8208  2.4299  2.0691
  213MOL0     H28699  11.140   6.586   7.780  0.2207 -0.5642 -0.6587
  213MOL0     H28700  11.051   6.728   7.988 -1.1418 -1.0801  0.3247
  213MOL0     H28701  11.154   6.619   8.087 -0.1836 -0.7314  0.2810
  213MOL0     H28702  11.348   6.701   8.013 -2.2522 -4.0177 -1.6968
  213MOL0     H28703  11.277   6.787   7.871 -0.1115 -0.7340 -0.0046
  213MOL0     H28704  11.213   6.884   8.162  0.1518 -0.4846  0.0948
  213MOL0     H28705  11.184   6.956   8.004  1.9902 -0.3322 -2.3079
  213MOL0     H28706  11.412   7.039   7.868 -1.3979 -0.3324 -0.3486
  213MOL0     H28707  11.733   7.201   8.029  2.6198  0.7537 -1.2478
  213MOL0     H28708  11.726   7.073   7.910  0.5717  0.8957 -0.1615
  213MOL0     H28709  11.563   7.341   7.916 -0.0809  0.5467 -0.6097
  213MOL0     H28710  11.528   7.215   7.801 -0.7426 -0.4617  0.2019
  213MOL0     H28711  11.787   7.243   7.720  0.3122  2.4192 -2.4582
  213MOL0     H28712  11.796   7.372   7.839  2.0911  0.5277 -2.1755
  213MOL0     H28713  11.764   7.461   7.621 -2.7353 -2.4906 -3.8672
  213MOL0     H28714  11.646   7.511   7.748 -2.3778 -1.7613  0.2948
  213MOL0     H28715  11.549   7.635   7.609  0.6985 -2.0054  0.3534
  213MOL0     H28716  11.509   7.906   7.374 -1.8523 -0.3340 -0.2006
  213MOL0     H28717  11.357   7.858   7.456  0.4678  2.3943  0.0805
  213MOL0     H28718  11.510   7.847   7.537 -0.9665 -0.4498  1.2770
  213MOL0     H28719  11.348   7.576   6.835  0.6745  0.3541  1.1099
  213MOL0     H28720  11.319   7.668   6.623 -2.6621 -0.6172  2.3465
  213MOL0     H28721  11.493   7.998   6.383  2.3658  0.1204 -0.8746
  213MOL0     H28722  11.598   7.915   6.504 -0.4745  0.0456  0.5637
  213MOL0     H28723  11.578   7.787   6.288  2.1070 -0.8756  1.4001
  213MOL0     H28724  11.498   7.693   6.428 -1.6040  0.4342 -0.2473
  213MOL0     H28725  11.335   7.894   6.255 -0.8730  0.6353  1.5268
  213MOL0     H28726  11.284   7.742   6.321 -1.7766  2.7753  0.9900
  213MOL0     H28727  11.483   7.797   6.101  1.9270 -3.1148  0.5144
  213MOL0     H28728  11.416   7.629   6.110 -0.3822 -0.5846 -2.4432
  213MOL0     H28729  11.330   7.770   5.926 -1.8732 -3.6935 -0.3495
  213MOL0     H28730  11.269   7.884   6.052 -2.2738  0.1041  1.3017
  213MOL0     H28731  11.139   7.670   5.922  4.0076 -0.1075  0.0141
  213MOL0     H28732  11.175   7.606   6.079 -1.1528  0.7082  1.7704
  213MOL0     H28733  11.081   7.850   6.165 -1.7088  3.5876 -3.1767
  213MOL0     H28734  10.964   7.710   6.124 -1.9797  1.6698  1.3158
  213MOL0     H28735  11.046   7.956   5.952  2.5470 -0.9749  0.3456
  213MOL0     H28736  10.897   7.938   6.049 -1.2946 -0.6245 -0.1995
  213MOL0     H28737  11.532   8.030   6.735 -0.7459 -0.1583 -2.9919
  213MOL0     H28738  11.573   7.915   6.964  0.5593  0.3960 -0.9284
  213MOL0     H28739  11.516   7.468   7.145  0.9752  0.6063  0.0407
  213MOL0     H28740  11.559   7.315   7.343  2.4958  1.3272  1.0104
  213MOL0     H28741  10.576   5.997   8.032 -0.7607  0.5708 -0.7585
  213MOL0     H28742  10.655   5.831   8.202  4.0208 -3.4686  0.7549
  213MOL0     H28743  10.966   5.778   8.526 -0.4086 -0.9466 -2.6131
  213MOL0     H28744  11.043   5.626   8.725  1.6463  2.0222 -0.0274
  213MOL0     H28745  11.285   5.524   8.753 -0.2101 -0.2208 -0.5553
  213MOL0     H28746  11.167   5.474   8.868  3.1879  1.5796  1.7485
  213MOL0     H28747  11.394   5.301   8.753 -0.8895  0.7817  0.1161
  213MOL0     H28748  11.280   5.261   8.876  0.1683  0.4743  0.1069
  213MOL0     H28749  11.369   5.457   9.007  1.0435  0.6709  1.0802
  213MOL0     H28750  11.488   5.459   8.870 -0.5702 -1.7383 -2.6151
  213MOL0     H28751  11.457   5.216   9.052  0.1947  0.4402  1.2115
  213MOL0     H28752  11.549   5.360   9.098 -1.4996 -2.7665  2.0386
  213MOL0     H28753  11.773   5.184   8.780 -0.9745  1.4061 -2.1697
  213MOL0     H28754  11.110   5.327   8.430 -2.8383 -0.1038 -0.1552
  213MOL0     H28755  11.045   5.479   8.248  0.3514  0.3728  0.6666
  214MOL0     O28756   5.890   3.677   8.001 -0.0841  0.4961 -0.4761
  214MOL0     C28757   5.988   3.613   7.970 -0.0351  0.0086  0.8695
  214MOL0     O28758   6.092   3.658   7.889  0.3232  0.4416  0.5634
  214MOL0     C28759   6.071   3.777   7.816  0.6066 -0.6212  0.2930
  214MOL0     C28760   5.960   3.810   7.729 -0.7219 -0.0180  0.1914
  214MOL0     C28761   5.959   3.924   7.667  0.2666 -0.5052  0.1419
  214MOL0     C28762   6.050   4.022   7.667  0.1146  0.1226 -1.1239
  214MOL0     O28763   6.034   4.136   7.597  0.4835 -0.3697  0.2614
  214MOL0     C28764   6.150   4.200   7.539  0.1824  0.6342  0.9830
  214MOL0     C28765   6.100   4.299   7.445 -0.2116  0.0594  0.4284
  214MOL0     C28766   6.077   4.436   7.522  0.5295  0.3252  0.0473
  214MOL0     C28767   6.200   4.520   7.559 -0.3910  1.0023  0.3138
  214MOL0     C28768   6.171   4.657   7.631 -0.9259  0.1155 -0.1084
  214MOL0     C28769   6.061   4.733   7.562 -0.6561  0.3988 -0.0931
  214MOL0     C28770   6.076   4.889   7.588 -0.5015 -0.9003 -0.3917
  214MOL0     C28771   5.938   4.954   7.579 -1.2261  1.1981 -0.0045
  214MOL0     N28772   5.955   5.096   7.612  0.6878  0.1933 -1.1998
  214MOL0     C28773   6.044   5.164   7.695 -1.5881 -0.6842  0.4122
  214MOL0     C28774   6.033   5.300   7.662 -0.2487  0.1837 -0.3034
  214MOL0     C28775   6.102   5.407   7.736  0.4203 -0.1153 -0.5160
  214MOL0     C28776   6.018   5.537   7.738  0.6279  0.9289  0.2138
  214MOL0     C28777   6.104   5.663   7.782  0.2926  0.0580  0.3979
  214MOL0     C28778   6.192   5.643   7.912 -0.2193 -0.2523  0.8652
  214MOL0     O28779   6.119   5.599   8.032  0.8515 -0.4160 -0.2053
  214MOL0     C28780   6.002   5.675   8.060 -0.5090 -0.5686  0.0016
  214MOL0     C28781   6.015   5.813   8.075  0.9567  0.6504  0.1969
  214MOL0     C28782   5.894   5.894   8.095  0.2268  0.4334 -0.6924
  214MOL0     C28783   5.918   6.037   8.128  0.1116  0.7983 -0.0271
  214MOL0     C28784   5.772   5.830   8.080  0.1378  0.3976  0.6803
  214MOL0     C28785   5.649   5.898   8.101  0.7033 -1.1956 -0.2115
  214MOL0     O28786   5.635   6.023   8.036 -0.4605 -0.3531 -0.4655
  214MOL0     C28787   5.508   6.059   8.024  0.5209  0.2068  0.1795
  214MOL0     C28788   5.447   6.123   8.126  0.3155 -0.6469 -1.0867
  214MOL0     C28789   5.318   6.181   8.108  0.2334  1.2382 -0.1976
  214MOL0     C28790   5.243   6.162   7.985 -0.4856  0.5666 -0.3360
  214MOL0     O28791   5.127   6.226   7.954 -0.3249  0.0675  0.1220
  214MOL0     C28792   5.091   6.339   8.032  0.3019 -0.1763 -1.2186
  214MOL0     C28793   4.949   6.387   7.997 -0.1117 -0.5633  0.1485
  214MOL0     C28794   4.829   6.296   8.047  0.2124 -0.3072  0.1648
  214MOL0     C28795   4.802   6.322   8.188 -0.7854  0.1614 -0.3322
  214MOL0     C28796   4.678   6.232   8.226  0.5952  0.3010  0.3469
  214MOL0     C28797   4.545   6.274   8.178  0.6767  0.5232  0.4906
  214MOL0     C28798   4.436   6.169   8.231 -0.3126 -0.6097 -0.3425
  214MOL0     C28799   4.287   6.211   8.214  0.6988 -0.5654  0.4824
  214MOL0    Cl28800   4.236   6.372   8.272  0.3418  0.3345  0.2322
  214MOL0     C28801   5.308   6.089   7.887  0.8884 -0.8268 -0.3050
  214MOL0     C28802   5.439   6.047   7.907  0.3009  0.4063 -0.4814
  214MOL0     O28803   5.552   5.826   8.137  0.0445 -0.5756  0.6826
  214MOL0     C28804   5.770   5.686   8.075 -0.7281  0.2327  0.5385
  214MOL0     C28805   5.884   5.617   8.077  0.4456 -0.8490  0.4469
  214MOL0     N28806   5.936   5.307   7.562  0.3014 -0.6521  0.9958
  214MOL0     N28807   5.886   5.192   7.542  0.6855 -0.7057  0.2975
  214MOL0     C28808   6.161   3.993   7.744  0.1293 -0.0353 -0.0995
  214MOL0     C28809   6.166   3.877   7.820 -0.3214 -0.2674  0.8551
  214MOL0     C28810   5.989   3.478   8.020  0.1982 -0.7427 -0.6890
  214MOL0     C28811   5.865   3.416   8.044 -0.1070  0.1009 -0.1267
  214MOL0     C28812   5.864   3.281   8.074  0.4893 -0.1533  0.0384
  214MOL0     C28813   5.980   3.206   8.085  0.4776 -0.3474 -0.0203
  214MOL0     O28814   5.971   3.066   8.112 -0.1644 -0.0640  0.5639
  214MOL0     C28815   6.093   2.996   8.148  0.5123 -0.8470  0.4927
  214MOL0     C28816   6.161   2.930   8.033  0.1770 -0.3747 -1.2423
  214MOL0     C28817   6.255   2.817   8.083  0.4954 -0.4823 -0.3284
  214MOL0     C28818   6.371   2.794   7.997 -0.0272 -0.0619 -0.8249
  214MOL0     C28819   6.333   2.788   7.858  0.8504  0.0080  0.5533
  214MOL0     C28820   6.294   2.738   7.748  0.0357  1.0352  0.0307
  214MOL0     C28821   6.101   3.273   8.059  0.0667 -0.8831  1.3039
  214MOL0     C28822   6.104   3.402   8.012  0.1687  0.7385  0.1514
  214MOL0     H28823   5.882   3.737   7.712 -1.2098  0.3976  0.6185
  214MOL0     H28824   5.879   3.957   7.602  2.1815  0.0857 -2.0553
  214MOL0     H28825   6.219   4.230   7.618  2.2018 -1.3406  0.1018
  214MOL0     H28826   6.196   4.122   7.477 -0.1485  2.2789 -1.4671
  214MOL0     H28827   6.171   4.307   7.362  0.5569 -2.1400  0.8205
  214MOL0     H28828   6.004   4.272   7.400  0.3050 -0.6947 -0.2399
  214MOL0     H28829   6.014   4.485   7.447  0.9156  0.4025 -0.2288
  214MOL0     H28830   6.016   4.426   7.612 -1.5745  3.9115 -0.7728
  214MOL0     H28831   6.257   4.455   7.625  1.7560  1.7760 -0.6773
  214MOL0     H28832   6.256   4.532   7.465 -2.5415 -0.4804 -1.2625
  214MOL0     H28833   6.156   4.660   7.739 -0.2681 -1.3042  0.0460
  214MOL0     H28834   6.266   4.707   7.611  0.3004 -2.9220 -2.6620
  214MOL0     H28835   6.069   4.713   7.455 -2.8694 -0.9538 -0.0776
  214MOL0     H28836   5.968   4.683   7.591  0.3711 -0.3905  2.0329
  214MOL0     H28837   6.111   4.906   7.691 -2.3911 -1.9124  0.4678
  214MOL0     H28838   6.149   4.926   7.515 -1.6890  2.6018  0.0184
  214MOL0     H28839   5.873   4.908   7.655 -1.2357  2.1631  0.5833
  214MOL0     H28840   5.895   4.945   7.478  1.1109  0.2889 -0.9960
  214MOL0     H28841   6.091   5.121   7.783 -0.4672 -1.8941 -0.7303
  214MOL0     H28842   6.112   5.364   7.836 -4.7994 -0.0347  0.3437
  214MOL0     H28843   6.193   5.424   7.678  0.2812  2.7370 -0.0100
  214MOL0     H28844   5.930   5.524   7.803  0.8892  1.2549  0.6391
  214MOL0     H28845   5.981   5.557   7.637 -0.5832 -2.9561 -0.2997
  214MOL0     H28846   6.040   5.750   7.800 -1.0199 -0.3296 -1.9717
  214MOL0     H28847   6.168   5.682   7.695  0.9923 -2.2323  0.3406
  214MOL0     H28848   6.252   5.734   7.919 -2.0835  1.0589  0.4688
  214MOL0     H28849   6.265   5.563   7.893  0.1748  0.6894 -2.0323
  214MOL0     H28850   6.116   5.855   8.072  1.0366  0.4298 -0.3825
  214MOL0     H28851   5.913   6.088   8.032 -1.8340 -0.0669 -0.4312
  214MOL0     H28852   5.849   6.077   8.203 -0.1236 -0.7950  0.6545
  214MOL0     H28853   6.016   6.033   8.176  1.5708  0.2965 -2.8292
  214MOL0     H28854   5.497   6.135   8.221 -0.2248 -0.7363 -0.7907
  214MOL0     H28855   5.273   6.237   8.190 -1.5510  0.0271 -0.3248
  214MOL0     H28856   5.088   6.328   8.141  0.4243  0.7208 -1.1125
  214MOL0     H28857   5.151   6.425   8.000  0.2292 -0.2879 -1.6609
  214MOL0     H28858   4.938   6.489   8.036  3.5813 -0.2419  0.7301
  214MOL0     H28859   4.940   6.409   7.890 -1.2597 -0.0508  0.3395
  214MOL0     H28860   4.841   6.189   8.029 -2.0741 -0.8405  1.4521
  214MOL0     H28861   4.746   6.317   7.979  1.1616 -2.6313 -1.8822
  214MOL0     H28862   4.886   6.287   8.249 -0.8862 -2.8208 -1.6984
  214MOL0     H28863   4.777   6.425   8.213  0.0217  0.6925 -1.6026
  214MOL0     H28864   4.676   6.228   8.335 -2.4980  0.1171  0.3653
  214MOL0     H28865   4.691   6.135   8.178 -0.9224  0.7620 -1.1123
  214MOL0     H28866   4.513   6.370   8.221 -0.8300  0.3481 -0.1798
  214MOL0     H28867   4.552   6.285   8.069 -1.9801 -0.2083  0.1660
  214MOL0     H28868   4.459   6.152   8.337 -0.6754  0.8859 -0.0023
  214MOL0     H28869   4.452   6.072   8.183  0.6567 -1.7110  2.0032
  214MOL0     H28870   4.225   6.134   8.261 -0.6728 -1.5592 -2.6927
  214MOL0     H28871   4.273   6.209   8.106  1.2024 -0.2829  0.4062
  214MOL0     H28872   5.261   6.064   7.792  0.8636 -0.8907 -0.2767
  214MOL0     H28873   5.484   5.981   7.833 -1.4173 -2.0032  0.4967
  214MOL0     H28874   5.682   5.624   8.082 -1.5807  1.5125  1.7671
  214MOL0     H28875   5.880   5.508   8.078  0.5373 -0.9848 -2.8366
  214MOL0     H28876   6.249   4.056   7.745  0.2277 -0.1568 -0.4753
  214MOL0     H28877   6.258   3.844   7.868  1.6629  2.1576 -1.0375
  214MOL0     H28878   5.778   3.478   8.027 -0.1861 -0.0354 -0.2215
  214MOL0     H28879   5.776   3.220   8.090 -0.6293  1.8831  2.2883
  214MOL0     H28880   6.161   3.055   8.211 -0.3816  0.4420  0.3032
  214MOL0     H28881   6.063   2.906   8.203 -1.1545  0.1159  1.2620
  214MOL0     H28882   6.218   3.012   7.986 -0.9261  0.6073 -0.9053
  214MOL0     H28883   6.083   2.880   7.977 -1.9182 -3.4426  3.7486
  214MOL0     H28884   6.200   2.726   8.059  0.7713  0.2667 -4.6016
  214MOL0     H28885   6.286   2.831   8.187 -0.0979 -1.8408  0.0432
  214MOL0     H28886   6.423   2.701   8.019  2.2641  1.2173 -0.4981
  214MOL0     H28887   6.438   2.880   8.012  1.8023 -0.9877 -3.1307
  214MOL0     H28888   6.255   2.696   7.657  1.5513  0.3139 -0.3071
  214MOL0     H28889   6.188   3.208   8.058  1.2315  0.4791 -2.4558
  214MOL0     H28890   6.203   3.431   7.978  0.1450 -1.2885 -1.8517
  215MOL0     O28891   6.584   8.766   7.318 -0.9630  0.8429  0.1860
  215MOL0     C28892   6.594   8.791   7.435  0.8173 -0.4164  0.2791
  215MOL0     O28893   6.524   8.888   7.499  0.2439 -0.2038 -0.0670
  215MOL0     C28894   6.448   8.980   7.437 -0.2800  0.7849  0.3485
  215MOL0     C28895   6.325   9.011   7.498  0.5266 -1.0459  0.0444
  215MOL0     C28896   6.231   9.109   7.446  0.6404 -0.1495  0.6003
  215MOL0     C28897   6.264   9.171   7.321 -0.7830  0.8158 -0.4544
  215MOL0     O28898   6.168   9.239   7.253  0.0087 -0.5114 -0.4131
  215MOL0     C28899   6.203   9.279   7.121 -0.1358  0.0420 -0.0478
  215MOL0     C28900   6.062   9.335   7.075  0.4597  0.2453  0.5849
  215MOL0     C28901   5.969   9.224   7.038  0.7189  0.1543 -0.2877
  215MOL0     C28902   5.882   9.244   6.910 -0.0518  0.2319  0.1280
  215MOL0     C28903   5.818   9.106   6.879  0.2315 -0.7264  0.1566
  215MOL0     C28904   5.705   9.071   6.974 -0.4020  0.1922 -1.3980
  215MOL0     C28905   5.606   8.975   6.908 -0.2067 -0.5263  0.7760
  215MOL0     C28906   5.469   8.970   6.986  0.1086  0.2796 -0.9842
  215MOL0     N28907   5.494   8.951   7.129  0.2845 -0.6781  0.6900
  215MOL0     C28908   5.525   8.832   7.180 -0.4594 -0.4192 -0.2684
  215MOL0     C28909   5.483   8.836   7.313  0.0372  0.2714  1.1890
  215MOL0     C28910   5.464   8.711   7.396  0.4035  0.2068 -0.0174
  215MOL0     C28911   5.316   8.692   7.442  0.2849 -0.1681 -0.3910
  215MOL0     C28912   5.224   8.648   7.326 -0.4028 -0.7228 -0.2101
  215MOL0     C28913   5.085   8.622   7.383 -0.0862  0.3415  0.9376
  215MOL0     O28914   5.050   8.504   7.447  0.3649 -0.3590 -0.5876
  215MOL0     C28915   5.101   8.392   7.394  0.7528  0.7888  0.1652
  215MOL0     C28916   5.135   8.310   7.498 -0.3183  0.0302  0.3799
  215MOL0     C28917   5.190   8.183   7.468 -0.4152 -0.2318  0.4596
  215MOL0     C28918   5.266   8.120   7.581 -0.2958  0.0385 -1.2081
  215MOL0     C28919   5.178   8.137   7.334 -0.1141 -0.0506 -0.3740
  215MOL0     C28920   5.194   7.995   7.306 -0.9312  0.4287  0.2287
  215MOL0     O28921   5.174   7.905   7.404 -0.0268 -0.0629  0.7952
  215MOL0     C28922   5.220   7.779   7.401  0.5372  0.7820  0.0089
  215MOL0     C28923   5.147   7.658   7.395  0.5697  0.0177  0.2091
  215MOL0     C28924   5.210   7.531   7.408  0.9899  1.4180 -0.0373
  215MOL0     C28925   5.339   7.516   7.447  1.0166  0.2399 -0.2975
  215MOL0     O28926   5.395   7.407   7.507 -0.0046 -0.2464 -0.5134
  215MOL0     C28927   5.426   7.422   7.641 -0.2182 -0.5432  0.4967
  215MOL0     C28928   5.420   7.275   7.693 -0.4953 -0.2349  0.2479
  215MOL0     C28929   5.431   7.292   7.847 -0.0714 -0.3558 -0.5420
  215MOL0     C28930   5.420   7.168   7.941 -0.4856 -0.3306  0.1419
  215MOL0     C28931   5.536   7.068   7.902 -1.2505 -0.4656 -0.8446
  215MOL0     C28932   5.507   6.930   7.954  0.5759  0.2422 -0.0615
  215MOL0     C28933   5.447   6.835   7.845 -0.6547 -0.5061 -0.5913
  215MOL0     C28934   5.299   6.864   7.822  0.3642  0.1705 -0.4912
  215MOL0    Cl28935   5.207   6.710   7.776 -0.0610  0.0110  0.5003
  215MOL0     C28936   5.419   7.632   7.433 -0.4493 -0.4524 -0.6772
  215MOL0     C28937   5.359   7.759   7.421 -0.2855 -0.2336 -0.3464
  215MOL0     O28938   5.239   7.959   7.195  0.3354 -0.3340  0.2525
  215MOL0     C28939   5.150   8.222   7.225 -0.2138 -0.5902 -0.1722
  215MOL0     C28940   5.105   8.349   7.256  1.2545 -0.4657 -0.1348
  215MOL0     N28941   5.429   8.963   7.339  0.3104  1.1915  0.5792
  215MOL0     N28942   5.448   9.034   7.231 -0.3843  0.1895 -0.3022
  215MOL0     C28943   6.398   9.152   7.266  0.5584  0.7311  0.5978
  215MOL0     C28944   6.488   9.060   7.330 -0.4870  0.1545 -0.1154
  215MOL0     C28945   6.689   8.708   7.523 -0.4638  0.4027  0.8123
  215MOL0     C28946   6.726   8.731   7.651  0.1252 -0.7665 -0.6838
  215MOL0     C28947   6.818   8.651   7.712  0.0357  0.3771 -0.5633
  215MOL0     C28948   6.872   8.533   7.657  1.4960  0.3350 -0.5139
  215MOL0     O28949   6.970   8.465   7.711  0.1879 -0.5081 -0.2203
  215MOL0     C28950   7.067   8.412   7.621 -0.7543  0.5310  0.1301
  215MOL0     C28951   7.202   8.391   7.686  0.0750  0.4260  0.1758
  215MOL0     C28952   7.209   8.281   7.786 -0.9969  0.2744  0.2399
  215MOL0     C28953   7.230   8.146   7.716  0.4076  0.3011  0.4528
  215MOL0     C28954   7.159   8.047   7.789  0.1197 -0.1745 -0.7433
  215MOL0     C28955   7.082   7.973   7.855  0.0934 -0.5480 -0.3304
  215MOL0     C28956   6.815   8.493   7.531  0.6740 -0.4562  0.3794
  215MOL0     C28957   6.720   8.576   7.474 -0.2607  0.0369  0.1322
  215MOL0     H28958   6.305   8.955   7.589  1.4591 -2.9049 -0.8241
  215MOL0     H28959   6.132   9.129   7.487 -0.3386 -2.3420 -0.5482
  215MOL0     H28960   6.273   9.363   7.123 -2.4680  2.1856 -1.5860
  215MOL0     H28961   6.247   9.196   7.066  1.2171 -0.7650  2.1208
  215MOL0     H28962   6.021   9.412   7.140  2.3247  2.8266 -1.0900
  215MOL0     H28963   6.084   9.380   6.977  0.8512 -0.9304  0.1070
  215MOL0     H28964   6.029   9.133   7.028 -0.3300 -0.7275  0.9484
  215MOL0     H28965   5.905   9.210   7.126  0.0625  1.0183 -0.6108
  215MOL0     H28966   5.802   9.318   6.921 -0.3090  0.0696 -0.5848
  215MOL0     H28967   5.950   9.277   6.831 -1.5004  0.8954 -0.8914
  215MOL0     H28968   5.775   9.121   6.780  0.7475  2.8598  0.3239
  215MOL0     H28969   5.884   9.019   6.872 -2.3365 -2.6399 -1.7160
  215MOL0     H28970   5.749   9.012   7.055 -0.6770  2.7009  0.7250
  215MOL0     H28971   5.657   9.165   7.003 -3.1187 -0.6648 -2.8079
  215MOL0     H28972   5.582   9.033   6.819 -1.2266 -1.2087  0.5931
  215MOL0     H28973   5.652   8.877   6.892  2.3330  0.5471  0.9272
  215MOL0     H28974   5.405   8.890   6.947  1.7085 -1.0053 -1.0860
  215MOL0     H28975   5.407   9.060   6.981  2.4183  2.1326  0.8683
  215MOL0     H28976   5.551   8.743   7.123  1.1884  0.8327 -1.5884
  215MOL0     H28977   5.498   8.627   7.334  0.2796  0.5029 -0.4908
  215MOL0     H28978   5.533   8.718   7.481 -0.5822  0.4159  0.7823
  215MOL0     H28979   5.275   8.787   7.478 -3.0199  0.3598 -4.7902
  215MOL0     H28980   5.307   8.625   7.528  0.8210 -0.7795 -0.7985
  215MOL0     H28981   5.264   8.560   7.274 -3.4640 -2.1173 -0.4158
  215MOL0     H28982   5.208   8.729   7.254  0.3986 -0.9567 -0.6645
  215MOL0     H28983   5.011   8.637   7.304 -0.3158 -0.6082  0.9653
  215MOL0     H28984   5.072   8.703   7.456  1.0428 -0.0496  1.6108
  215MOL0     H28985   5.128   8.350   7.599  0.7409 -2.6380  1.5777
  215MOL0     H28986   5.213   8.041   7.635  0.8827  0.3995  0.5689
  215MOL0     H28987   5.352   8.066   7.540 -0.3002 -1.5318  0.6619
  215MOL0     H28988   5.304   8.192   7.655 -0.9283 -0.9101  0.0810
  215MOL0     H28989   5.046   7.676   7.361  1.2379  1.1855 -1.2777
  215MOL0     H28990   5.144   7.445   7.405  0.3891  1.8763 -0.2641
  215MOL0     H28991   5.526   7.461   7.659 -0.6174  0.7181  0.1076
  215MOL0     H28992   5.349   7.488   7.683 -1.1469 -0.0830 -1.8013
  215MOL0     H28993   5.328   7.220   7.669  0.6594 -2.0572 -0.1715
  215MOL0     H28994   5.498   7.217   7.644  1.2508  0.2109  2.3579
  215MOL0     H28995   5.354   7.365   7.876 -1.4085 -1.7095 -0.5839
  215MOL0     H28996   5.529   7.336   7.865  0.3045  0.5017 -3.9636
  215MOL0     H28997   5.424   7.201   8.045  1.2783 -0.4506  0.1393
  215MOL0     H28998   5.325   7.119   7.916  0.5077 -1.8821 -0.7330
  215MOL0     H28999   5.633   7.100   7.940 -0.6887 -0.3611 -2.3064
  215MOL0     H29000   5.543   7.065   7.793 -1.0108  0.1524 -0.8505
  215MOL0     H29001   5.597   6.881   7.992 -1.0305 -3.0691 -0.2187
  215MOL0     H29002   5.439   6.932   8.040 -0.5147 -1.0926 -0.8428
  215MOL0     H29003   5.464   6.733   7.883  0.5941  0.1637  0.8025
  215MOL0     H29004   5.496   6.841   7.747 -0.1771  1.9314 -0.2664
  215MOL0     H29005   5.292   6.944   7.747  3.2888  2.9899  1.9534
  215MOL0     H29006   5.262   6.908   7.915  3.7499  1.3511  0.4350
  215MOL0     H29007   5.527   7.627   7.434 -0.1909  2.7485 -1.1049
  215MOL0     H29008   5.415   7.852   7.422 -3.1942  1.6638 -0.3554
  215MOL0     H29009   5.143   8.184   7.124 -2.7907  1.3975 -0.8496
  215MOL0     H29010   5.071   8.421   7.183  0.6858  0.0931  0.6571
  215MOL0     H29011   6.443   9.201   7.179  1.0062  3.1851  2.1019
  215MOL0     H29012   6.590   9.059   7.293 -0.7320  0.3959 -0.8203
  215MOL0     H29013   6.714   8.835   7.679  3.1075 -0.3499 -0.6433
  215MOL0     H29014   6.859   8.694   7.802 -0.5058  0.8968 -0.5554
  215MOL0     H29015   7.027   8.318   7.582 -0.0928  0.1180  0.4251
  215MOL0     H29016   7.095   8.474   7.535  0.3659 -0.9291 -0.5938
  215MOL0     H29017   7.222   8.477   7.751  0.1210 -0.4756  1.3732
  215MOL0     H29018   7.274   8.376   7.605 -1.6220 -1.9180 -0.9971
  215MOL0     H29019   7.128   8.270   7.860 -0.3731  0.1132  0.9110
  215MOL0     H29020   7.299   8.291   7.847 -0.4020 -2.3426 -0.0857
  215MOL0     H29021   7.338   8.130   7.708  0.1013 -0.7635 -4.7166
  215MOL0     H29022   7.184   8.155   7.617 -2.2602  0.8332  1.6600
  215MOL0     H29023   7.006   7.929   7.917  1.4852 -4.1981 -0.9729
  215MOL0     H29024   6.834   8.399   7.480 -2.8145 -1.7362  1.1350
  215MOL0     H29025   6.675   8.558   7.377  1.3931  0.9336 -0.8272
  216MOL0     O29026   5.075   5.288   8.662  0.3170  0.2485  0.5260
  216MOL0     C29027   5.123   5.403   8.656 -0.9847 -0.1008  0.0221
  216MOL0     O29028   5.191   5.454   8.547 -0.9911 -0.1824 -0.1826
  216MOL0     C29029   5.231   5.379   8.441 -0.2202  0.5916 -0.0320
  216MOL0     C29030   5.218   5.429   8.310 -0.5016 -0.1529 -0.2600
  216MOL0     C29031   5.266   5.358   8.201 -0.0435  0.0584 -0.3255
  216MOL0     C29032   5.330   5.233   8.208 -0.1743  0.2903 -0.9103
  216MOL0     O29033   5.368   5.170   8.094 -0.0762  0.0348  0.9157
  216MOL0     C29034   5.468   5.067   8.096 -0.5964 -0.9765 -0.7433
  216MOL0     C29035   5.530   5.049   7.957 -0.0729  0.4774 -0.3014
  216MOL0     C29036   5.433   4.986   7.867 -0.0245 -0.4234  0.6542
  216MOL0     C29037   5.520   4.907   7.761  0.3760  0.0233  0.0705
  216MOL0     C29038   5.447   4.831   7.642  0.3075 -0.4999  0.5079
  216MOL0     C29039   5.534   4.784   7.524  0.0789  0.1350  0.3114
  216MOL0     C29040   5.644   4.697   7.581 -0.0962  0.1436 -0.4615
  216MOL0     C29041   5.708   4.612   7.469 -0.5114  0.5098  0.2459
  216MOL0     N29042   5.654   4.468   7.469  0.0783  0.5541 -0.6083
  216MOL0     C29043   5.719   4.352   7.513  0.8375 -0.4928 -0.1816
  216MOL0     C29044   5.612   4.271   7.545 -0.1318  0.6301  0.0773
  216MOL0     C29045   5.636   4.131   7.594  0.7916  0.3795 -0.3171
  216MOL0     C29046   5.641   4.112   7.746  0.4668  1.1275  0.0674
  216MOL0     C29047   5.594   3.966   7.772 -0.0347  0.4594 -0.1141
  216MOL0     C29048   5.623   3.918   7.910  0.1308 -0.3222 -0.6226
  216MOL0     O29049   5.648   4.029   7.996  0.5695 -0.3583  0.1076
  216MOL0     C29050   5.694   4.003   8.127 -0.1658  0.1895  1.3870
  216MOL0     C29051   5.824   3.968   8.151  0.1725  0.3661  0.7027
  216MOL0     C29052   5.865   3.940   8.274  0.4102 -0.3987 -0.4830
  216MOL0     C29053   6.008   3.879   8.273  0.5783  0.1787 -0.4692
  216MOL0     C29054   5.782   3.944   8.382 -0.4528  0.2846  1.0590
  216MOL0     C29055   5.819   3.914   8.524 -0.2934  0.0837 -0.4157
  216MOL0     O29056   5.718   3.855   8.596 -0.4667 -0.5467  0.5788
  216MOL0     C29057   5.759   3.828   8.728  0.5568  0.2206  0.2318
  216MOL0     C29058   5.805   3.705   8.768  0.5439  0.5713  0.0555
  216MOL0     C29059   5.842   3.688   8.898  0.2781  0.3937 -0.4892
  216MOL0     C29060   5.838   3.793   8.988  0.3826  0.5679 -0.5039
  216MOL0     O29061   5.872   3.774   9.116 -0.1089  0.3173  0.6597
  216MOL0     C29062   6.009   3.763   9.136  0.1522 -0.5593 -0.4330
  216MOL0     C29063   6.031   3.652   9.243  0.3698 -0.1174  0.2350
  216MOL0     C29064   6.173   3.614   9.280  0.3109  0.7950  0.0404
  216MOL0     C29065   6.223   3.695   9.394 -0.3583 -0.9792  0.5343
  216MOL0     C29066   6.223   3.623   9.529 -1.0879  0.1690 -0.4287
  216MOL0     C29067   6.341   3.695   9.607  0.8092  1.7937  0.3830
  216MOL0     C29068   6.338   3.670   9.756  0.6346 -0.9942 -0.1491
  216MOL0     C29069   6.419   3.780   9.827 -0.1242  0.1000 -0.1795
  216MOL0    Cl29070   6.431   3.718   9.993  0.0394 -0.4999  0.2715
  216MOL0     C29071   5.778   3.910   8.950  0.1844  1.2846  0.1295
  216MOL0     C29072   5.730   3.928   8.823 -0.5054 -0.2960  0.6597
  216MOL0     O29073   5.943   3.916   8.548  0.8366 -0.2334 -0.5380
  216MOL0     C29074   5.651   3.968   8.357 -0.4393  0.4990  0.1564
  216MOL0     C29075   5.600   3.989   8.231  0.5082 -0.2516  0.2243
  216MOL0     N29076   5.496   4.327   7.500  0.0130  0.1408 -0.0615
  216MOL0     N29077   5.515   4.444   7.466  0.5447 -0.4296 -0.1096
  216MOL0     C29078   5.347   5.181   8.344 -0.4984  0.3261  0.6306
  216MOL0     C29079   5.301   5.258   8.454 -0.2652  0.9237  1.3546
  216MOL0     C29080   5.128   5.468   8.782 -0.4053  0.2821  0.3970
  216MOL0     C29081   5.151   5.607   8.778 -1.3768  0.4413 -0.2840
  216MOL0     C29082   5.157   5.691   8.893  0.6213  0.5715  0.1729
  216MOL0     C29083   5.138   5.630   9.018 -0.6624  0.1716 -0.9281
  216MOL0     O29084   5.162   5.699   9.129  0.8017  0.7225 -0.2267
  216MOL0     C29085   5.288   5.766   9.136  0.5366  0.8655  0.1350
  216MOL0     C29086   5.290   5.849   9.272  0.5794  0.1301  0.4769
  216MOL0     C29087   5.433   5.882   9.299 -0.4299 -0.6834 -0.1014
  216MOL0     C29088   5.449   6.007   9.399  1.0380 -0.1744  0.3273
  216MOL0     C29089   5.352   6.006   9.513  0.3468 -0.3017 -0.7662
  216MOL0     C29090   5.274   6.002   9.614  0.1667 -0.3918  0.5489
  216MOL0     C29091   5.086   5.497   9.019  0.1855  0.8900 -1.2856
  216MOL0     C29092   5.093   5.412   8.904 -0.1149 -0.1555 -0.3345
  216MOL0     H29093   5.173   5.527   8.298 -2.0839 -0.7956  0.1556
  216MOL0     H29094   5.237   5.395   8.103 -0.8066 -3.0714 -1.3854
  216MOL0     H29095   5.541   5.116   8.160 -0.3232  0.2304 -1.9417
  216MOL0     H29096   5.430   4.969   8.128  0.2182 -0.9752  0.3097
  216MOL0     H29097   5.562   5.145   7.914 -0.3742  0.4825 -0.5166
  216MOL0     H29098   5.613   4.978   7.963  0.0577  0.1266 -4.0504
  216MOL0     H29099   5.365   4.918   7.917 -1.9383  0.8578 -0.0972
  216MOL0     H29100   5.368   5.065   7.829  2.8097  1.8687  0.1744
  216MOL0     H29101   5.604   4.969   7.729  0.8632 -0.8116 -0.3036
  216MOL0     H29102   5.566   4.825   7.818 -3.5534 -0.9409  2.2463
  216MOL0     H29103   5.395   4.740   7.672 -0.0605 -1.1734 -2.0261
  216MOL0     H29104   5.373   4.902   7.604 -2.1503 -2.3580  1.5475
  216MOL0     H29105   5.476   4.734   7.447 -0.9735  0.0757  1.1251
  216MOL0     H29106   5.592   4.868   7.484  1.5210 -0.5358  0.8838
  216MOL0     H29107   5.718   4.748   7.643 -0.3411 -1.3227  1.1353
  216MOL0     H29108   5.593   4.629   7.651 -3.1636  2.0684 -0.6117
  216MOL0     H29109   5.815   4.604   7.486 -0.4772  0.7250  0.1320
  216MOL0     H29110   5.681   4.652   7.371  2.4129  0.3997 -0.6980
  216MOL0     H29111   5.824   4.342   7.538  0.7736  1.0192  0.8175
  216MOL0     H29112   5.547   4.079   7.557  2.5643 -3.1946 -0.0190
  216MOL0     H29113   5.719   4.086   7.538 -0.8274 -2.0593 -0.9218
  216MOL0     H29114   5.577   4.188   7.792 -0.8015  1.4726 -2.1689
  216MOL0     H29115   5.742   4.129   7.784  1.2618 -0.7760 -1.0259
  216MOL0     H29116   5.645   3.905   7.697 -2.0399 -2.2286  0.5482
  216MOL0     H29117   5.489   3.950   7.745  0.1714  0.3172 -0.8598
  216MOL0     H29118   5.710   3.852   7.898 -1.4910 -2.4923 -1.0582
  216MOL0     H29119   5.540   3.859   7.951  0.9496 -1.9604 -1.2292
  216MOL0     H29120   5.902   3.972   8.076 -1.0366 -2.0446 -0.8176
  216MOL0     H29121   6.055   3.885   8.174 -1.0102  3.1201 -1.1599
  216MOL0     H29122   6.084   3.927   8.335  1.4279  0.6155 -1.8054
  216MOL0     H29123   5.990   3.774   8.301 -0.7975  0.7481  0.9328
  216MOL0     H29124   5.813   3.626   8.694  2.6700  2.2862 -1.6735
  216MOL0     H29125   5.891   3.594   8.923 -0.8523 -0.3805 -1.0884
  216MOL0     H29126   6.077   3.759   9.051  1.6142  3.2523  0.3522
  216MOL0     H29127   6.048   3.855   9.182  1.8256 -1.2074 -0.5143
  216MOL0     H29128   5.985   3.678   9.339 -1.5514  1.5670 -1.0691
  216MOL0     H29129   5.986   3.560   9.203 -0.3166  0.6571 -0.8254
  216MOL0     H29130   6.239   3.627   9.194 -1.0551 -3.0148 -1.8049
  216MOL0     H29131   6.174   3.508   9.307  5.5000  0.4253 -0.5189
  216MOL0     H29132   6.327   3.725   9.378 -1.4685  3.4493  0.4310
  216MOL0     H29133   6.165   3.785   9.418  1.1417 -0.6135  3.2728
  216MOL0     H29134   6.255   3.519   9.528 -0.2715  0.3919  0.7970
  216MOL0     H29135   6.125   3.633   9.576 -0.6900  2.0591  0.1031
  216MOL0     H29136   6.439   3.662   9.571 -0.1094 -1.5092  0.6785
  216MOL0     H29137   6.337   3.803   9.589  0.7911  1.5134 -1.5434
  216MOL0     H29138   6.381   3.570   9.762  3.1882  0.1053  1.4161
  216MOL0     H29139   6.239   3.660   9.803  1.4010  0.0274  1.7835
  216MOL0     H29140   6.355   3.868   9.828  0.1888  0.3275  0.1814
  216MOL0     H29141   6.516   3.803   9.781 -1.6464  2.2799 -2.5823
  216MOL0     H29142   5.759   3.982   9.029 -1.0144 -0.7896  1.8330
  216MOL0     H29143   5.693   4.023   8.786  2.5369  0.0109 -2.0480
  216MOL0     H29144   5.583   3.981   8.441  1.9079  1.2575  2.0847
  216MOL0     H29145   5.495   4.009   8.213  0.3197 -1.8057 -0.5470
  216MOL0     H29146   5.390   5.085   8.370 -4.6189 -1.5628  1.2641
  216MOL0     H29147   5.324   5.218   8.552 -0.8730 -2.2360  0.3354
  216MOL0     H29148   5.167   5.657   8.683 -1.9608  2.6986  0.7415
  216MOL0     H29149   5.174   5.798   8.884 -0.1910  0.6923  0.0311
  216MOL0     H29150   5.364   5.689   9.125  1.4028  1.8786 -1.3174
  216MOL0     H29151   5.311   5.833   9.053 -0.2565  0.8213 -0.1257
  216MOL0     H29152   5.251   5.783   9.350  4.1597 -3.1995 -0.2375
  216MOL0     H29153   5.226   5.937   9.257  0.2517  0.3326  2.6498
  216MOL0     H29154   5.482   5.912   9.206 -0.7059 -1.6629 -0.5772
  216MOL0     H29155   5.484   5.793   9.335 -0.8172 -0.6286  0.6050
  216MOL0     H29156   5.440   6.097   9.336 -2.4049 -0.6034  0.0267
  216MOL0     H29157   5.548   6.008   9.446  1.0708 -1.4548  0.3189
  216MOL0     H29158   5.216   5.997   9.703  1.4984  1.7807  1.6237
  216MOL0     H29159   5.043   5.465   9.113 -1.8136 -1.1200 -2.7591
  216MOL0     H29160   5.048   5.313   8.907 -2.2629  0.7627 -0.2962
  217MOL0     O29161   1.105   1.624   6.928  0.3153 -0.0769  0.0444
  217MOL0     C29162   1.178   1.577   7.017 -0.0280  0.5346  0.0799
  217MOL0     O29163   1.266   1.476   6.997 -0.5942 -0.4087  0.3999
  217MOL0     C29164   1.280   1.397   6.889  0.1249 -0.0189 -1.0072
  217MOL0     C29165   1.178   1.323   6.839  0.2613 -0.8561  0.3133
  217MOL0     C29166   1.201   1.250   6.722  0.1879  0.0285 -0.0736
  217MOL0     C29167   1.322   1.247   6.657 -0.3871  0.9957  0.8026
  217MOL0     O29168   1.325   1.180   6.534  0.6106  0.0236  0.7157
  217MOL0     C29169   1.289   1.264   6.426 -0.6552  0.1667  0.1069
  217MOL0     C29170   1.413   1.338   6.365 -0.4611 -0.1888 -0.6663
  217MOL0     C29171   1.370   1.423   6.239  0.1469  0.3037 -0.2488
  217MOL0     C29172   1.475   1.476   6.147  0.7216 -0.4912 -0.4694
  217MOL0     C29173   1.411   1.578   6.051  0.0038 -0.7434 -0.2302
  217MOL0     C29174   1.395   1.517   5.909  0.3984 -1.3025 -1.1430
  217MOL0     C29175   1.288   1.594   5.829  0.2664  0.4660 -0.0641
  217MOL0     C29176   1.285   1.546   5.681 -0.1419 -0.0793 -0.1141
  217MOL0     N29177   1.406   1.598   5.618  0.3191 -0.5379  1.4557
  217MOL0     C29178   1.429   1.738   5.591 -1.2238  1.2185  0.5499
  217MOL0     C29179   1.558   1.738   5.529  0.3598 -0.9678 -0.4851
  217MOL0     C29180   1.654   1.854   5.477 -0.1184 -0.3067  0.0165
  217MOL0     C29181   1.599   1.918   5.348  0.5706  0.6459 -0.7595
  217MOL0     C29182   1.698   2.012   5.294  0.2515  0.3938  0.5443
  217MOL0     C29183   1.627   2.110   5.202  0.3633  0.4243  0.0450
  217MOL0     O29184   1.706   2.206   5.135  0.4669 -0.1986 -0.8526
  217MOL0     C29185   1.723   2.331   5.198  0.0864 -0.8110 -0.4068
  217MOL0     C29186   1.753   2.435   5.106 -0.1277  0.1376 -0.0633
  217MOL0     C29187   1.787   2.562   5.148  0.5925  0.1361 -0.6677
  217MOL0     C29188   1.797   2.663   5.040  0.7008 -0.5631  1.1774
  217MOL0     C29189   1.794   2.594   5.281  0.1072  0.2915 -0.5656
  217MOL0     C29190   1.819   2.730   5.336  0.4082 -0.5899 -0.2849
  217MOL0     O29191   1.767   2.762   5.459 -0.4391  0.0393  0.4665
  217MOL0     C29192   1.781   2.891   5.503 -0.4177  1.0425 -0.1159
  217MOL0     C29193   1.892   2.931   5.581  0.5466  0.2694 -0.4041
  217MOL0     C29194   1.889   3.060   5.641  0.2476 -0.1112  0.1947
  217MOL0     C29195   1.797   3.159   5.605 -0.2796 -0.5680 -0.0665
  217MOL0     O29196   1.824   3.288   5.657  0.2165  0.3409  0.3200
  217MOL0     C29197   1.861   3.388   5.563 -0.6417  0.2816 -0.1560
  217MOL0     C29198   1.936   3.509   5.626  0.1710 -0.0618  0.2202
  217MOL0     C29199   2.079   3.479   5.654  0.7170  0.2697 -0.2850
  217MOL0     C29200   2.128   3.549   5.784  0.4495 -0.4377 -0.3226
  217MOL0     C29201   2.267   3.506   5.819  0.1312  0.4001  0.0029
  217MOL0     C29202   2.311   3.544   5.961  0.1001 -0.0778  0.3996
  217MOL0     C29203   2.364   3.696   5.982  0.5815  0.6270 -0.0864
  217MOL0     C29204   2.419   3.712   6.127  0.8020 -0.3518 -0.4707
  217MOL0    Cl29205   2.290   3.749   6.253 -0.0650  0.2951 -0.0607
  217MOL0     C29206   1.703   3.125   5.508 -0.4396  0.3339  0.8896
  217MOL0     C29207   1.696   2.991   5.459  0.1799 -0.5200 -0.5250
  217MOL0     O29208   1.901   2.802   5.273 -0.1013 -1.0126 -0.2937
  217MOL0     C29209   1.771   2.494   5.375 -0.4569 -0.2708 -0.7318
  217MOL0     C29210   1.727   2.367   5.335 -0.5132 -1.2697 -1.0234
  217MOL0     N29211   1.603   1.605   5.517 -0.1185 -0.5261 -0.8701
  217MOL0     N29212   1.511   1.525   5.573 -0.2995 -0.3249 -0.4496
  217MOL0     C29213   1.425   1.313   6.720 -0.3151 -0.0674  0.5255
  217MOL0     C29214   1.408   1.389   6.833 -0.1564 -0.0452 -0.6760
  217MOL0     C29215   1.164   1.615   7.163  0.6969  0.3467  0.3499
  217MOL0     C29216   1.073   1.717   7.198  1.0468  0.2323  0.1046
  217MOL0     C29217   1.078   1.770   7.326 -0.3222  1.1252 -0.1021
  217MOL0     C29218   1.165   1.726   7.426  0.2990 -0.4853  0.7115
  217MOL0     O29219   1.172   1.783   7.554  0.5802 -0.1926  0.4083
  217MOL0     C29220   1.098   1.713   7.651  0.7333  0.0207 -0.0005
  217MOL0     C29221   1.074   1.813   7.768  0.0086  0.6051  0.2714
  217MOL0     C29222   1.204   1.837   7.840 -0.0391 -0.5720 -0.2320
  217MOL0     C29223   1.185   1.952   7.954 -1.0209 -0.3008 -0.0183
  217MOL0     C29224   1.299   1.954   8.041  0.3908  0.3870 -1.0846
  217MOL0     C29225   1.394   1.938   8.116  0.2278 -0.6593 -0.3653
  217MOL0     C29226   1.250   1.609   7.398 -0.9576 -0.6455 -0.7771
  217MOL0     C29227   1.253   1.561   7.263  0.9543 -0.5224 -0.1382
  217MOL0     H29228   1.080   1.324   6.886  1.0452 -0.8344  1.9977
  217MOL0     H29229   1.116   1.189   6.693  1.1037 -1.0345 -0.6123
  217MOL0     H29230   1.257   1.187   6.356  3.9080 -2.6949  0.7204
  217MOL0     H29231   1.212   1.340   6.441  1.8805  2.8915  0.2549
  217MOL0     H29232   1.460   1.400   6.441 -0.3398  0.9414 -1.6339
  217MOL0     H29233   1.490   1.264   6.342  0.8072  1.6361 -2.7463
  217MOL0     H29234   1.296   1.368   6.180 -0.1932  2.1615 -1.6487
  217MOL0     H29235   1.318   1.511   6.280  0.9775  0.9337 -0.5335
  217MOL0     H29236   1.546   1.520   6.217  0.5997 -0.4611 -0.3638
  217MOL0     H29237   1.530   1.408   6.082  3.2548  0.7911  0.2267
  217MOL0     H29238   1.314   1.616   6.086 -0.2861  0.0994 -1.8321
  217MOL0     H29239   1.484   1.658   6.036  0.5377 -1.0603  0.5893
  217MOL0     H29240   1.491   1.513   5.857  0.9769  1.3139 -0.3724
  217MOL0     H29241   1.359   1.413   5.910 -3.6240 -0.1175 -2.1421
  217MOL0     H29242   1.188   1.576   5.870  0.9088 -0.8632  0.9878
  217MOL0     H29243   1.297   1.703   5.838 -3.9523  1.0099 -0.4907
  217MOL0     H29244   1.201   1.574   5.617 -0.0134 -1.0029 -0.7039
  217MOL0     H29245   1.299   1.438   5.689  2.8762  0.2619  0.1850
  217MOL0     H29246   1.379   1.826   5.629 -0.2796  0.4336  3.9313
  217MOL0     H29247   1.656   1.924   5.562  2.5372 -1.7673  1.2839
  217MOL0     H29248   1.753   1.809   5.466  0.5189  0.6006  1.6406
  217MOL0     H29249   1.503   1.965   5.374 -0.6477 -2.5198  1.0915
  217MOL0     H29250   1.577   1.834   5.282 -1.7305 -0.0765  0.7943
  217MOL0     H29251   1.778   1.957   5.243 -0.5926  1.2842 -1.8777
  217MOL0     H29252   1.754   2.066   5.371  5.5557 -2.8089 -0.5492
  217MOL0     H29253   1.568   2.174   5.269 -2.4406 -1.4942 -0.4542
  217MOL0     H29254   1.557   2.057   5.138  0.0503 -0.4138  1.0394
  217MOL0     H29255   1.753   2.402   5.003  0.5335  0.7098 -0.2555
  217MOL0     H29256   1.749   2.756   5.069  0.9711 -0.1338  0.2768
  217MOL0     H29257   1.902   2.677   5.012 -0.2223  1.1622 -1.9853
  217MOL0     H29258   1.744   2.629   4.950  1.6248 -1.7518  1.0421
  217MOL0     H29259   1.973   2.868   5.615  1.6395  0.3519 -2.6393
  217MOL0     H29260   1.956   3.086   5.722 -4.2534  3.1984  3.3432
  217MOL0     H29261   1.926   3.344   5.487  2.1607 -2.6023  3.5669
  217MOL0     H29262   1.775   3.425   5.505 -2.8793 -0.1312  2.6837
  217MOL0     H29263   1.936   3.581   5.543  2.2302  1.3576  1.3685
  217MOL0     H29264   1.887   3.546   5.717  3.5191  1.0418  1.7113
  217MOL0     H29265   2.153   3.516   5.582  2.8363 -0.6319  1.3372
  217MOL0     H29266   2.082   3.370   5.660 -0.4465  0.2111 -0.4035
  217MOL0     H29267   2.125   3.658   5.773  0.0193 -0.4073  0.0394
  217MOL0     H29268   2.062   3.525   5.868  0.7444  1.3070  0.4560
  217MOL0     H29269   2.326   3.549   5.738 -1.9690  0.3817 -1.6291
  217MOL0     H29270   2.273   3.396   5.815 -1.9435  0.1103  2.2756
  217MOL0     H29271   2.224   3.517   6.021 -1.5721 -0.7524 -2.1764
  217MOL0     H29272   2.396   3.487   6.001  3.7070  1.9644 -3.5197
  217MOL0     H29273   2.290   3.777   5.970  0.9736  1.2137  1.2594
  217MOL0     H29274   2.443   3.711   5.908 -0.0920  0.2979 -0.8970
  217MOL0     H29275   2.482   3.801   6.122 -0.7986  0.8073 -0.6773
  217MOL0     H29276   2.471   3.620   6.157 -1.1875 -1.6733 -0.9274
  217MOL0     H29277   1.648   3.199   5.451 -0.5500  0.9945  1.8408
  217MOL0     H29278   1.628   2.960   5.380  0.0508  1.5249 -1.2709
  217MOL0     H29279   1.780   2.502   5.483 -5.0400 -0.4686 -0.1491
  217MOL0     H29280   1.725   2.301   5.422 -0.2910 -0.2322 -0.2176
  217MOL0     H29281   1.520   1.305   6.668 -1.5882 -3.7552 -1.6039
  217MOL0     H29282   1.481   1.455   6.878  0.3772 -2.4182  2.2165
  217MOL0     H29283   1.016   1.763   7.118  0.1539 -0.1478  0.5168
  217MOL0     H29284   1.016   1.857   7.348 -1.4715  0.3893 -0.3473
  217MOL0     H29285   1.003   1.678   7.609  0.7374  2.8295 -2.6987
  217MOL0     H29286   1.157   1.630   7.692 -1.6189 -0.9138  1.7174
  217MOL0     H29287   0.994   1.769   7.828 -1.0433  4.4259  1.9606
  217MOL0     H29288   1.028   1.905   7.731  1.5134  2.3405  2.4854
  217MOL0     H29289   1.281   1.862   7.766 -0.4836 -0.6231 -0.7190
  217MOL0     H29290   1.244   1.752   7.895 -1.0466  0.1663  1.7416
  217MOL0     H29291   1.100   1.922   8.016  0.7033 -1.2885  1.9870
  217MOL0     H29292   1.173   2.050   7.908 -0.0833 -1.0177 -1.8911
  217MOL0     H29293   1.463   1.940   8.198 -0.0202 -0.1912 -0.1662
  217MOL0     H29294   1.320   1.568   7.469 -0.2492 -0.4550 -1.3573
  217MOL0     H29295   1.325   1.485   7.236  0.5858 -0.5588 -1.0933
  218MOL0     O29296   1.246   4.726  10.072 -0.7639 -0.3275 -0.1429
  218MOL0     C29297   1.218   4.609  10.086  0.1949  0.1392  0.3401
  218MOL0     O29298   1.232   4.536  10.200  0.1832 -1.1513  0.1204
  218MOL0     C29299   1.289   4.592  10.303 -0.7512  0.1157 -0.3099
  218MOL0     C29300   1.216   4.669  10.394  0.0870 -0.6833 -1.1455
  218MOL0     C29301   1.279   4.731  10.506 -0.0359  0.4713 -0.7033
  218MOL0     C29302   1.423   4.723  10.516  0.3303  0.8072 -0.3425
  218MOL0     O29303   1.484   4.796  10.618  0.0821 -0.2570  0.0501
  218MOL0     C29304   1.578   4.721  10.693 -0.1586 -0.4547  0.9483
  218MOL0     C29305   1.609   4.796  10.815 -0.9692  0.3089 -0.2770
  218MOL0     C29306   1.695   4.702  10.907 -0.1781 -0.6690  0.6563
  218MOL0     C29307   1.848   4.737  10.904 -0.1391  0.2138 -0.1254
  218MOL0     C29308   1.924   4.649  11.008 -0.0588 -0.7571  0.8629
  218MOL0     C29309   1.890   4.694  11.153 -0.6418  0.0950  0.3573
  218MOL0     C29310   1.984   4.595  11.240 -0.3874  0.1051 -0.0609
  218MOL0     C29311   1.963   4.604  11.388  1.0292  0.4680  0.2112
  218MOL0     N29312   1.828   4.568  11.439 -0.7967  0.4312  1.0601
  218MOL0     C29313   1.725   4.658  11.462  1.1067 -0.1692 -0.2688
  218MOL0     C29314   1.620   4.574  11.503 -0.7800  0.1521  0.2511
  218MOL0     C29315   1.491   4.624  11.548  0.2967 -0.0259 -1.2159
  218MOL0     C29316   1.433   4.530  11.653  0.0761  0.1358  0.4724
  218MOL0     C29317   1.293   4.575  11.706  0.6461 -0.1334 -0.1638
  218MOL0     C29318   1.195   4.554  11.590 -0.4030  0.4871  0.5055
  218MOL0     O29319   1.066   4.542  11.652 -0.1474  0.0599  0.0467
  218MOL0     C29320   0.971   4.560  11.562  0.7479 -0.3791 -0.2933
  218MOL0     C29321   0.887   4.668  11.570  0.4785  0.5522  0.7100
  218MOL0     C29322   0.784   4.698  11.475  0.1536 -0.0592 -0.1880
  218MOL0     C29323   0.694   4.824  11.505  0.9671 -0.3686  0.4266
  218MOL0     C29324   0.755   4.592  11.383 -0.2979 -0.5286 -0.2020
  218MOL0     C29325   0.650   4.577  11.283  0.5403 -0.5056  0.2896
  218MOL0     O29326   0.619   4.451  11.239  0.0239  0.3858  0.1933
  218MOL0     C29327   0.576   4.433  11.109 -0.5191  0.8169 -0.5738
  218MOL0     C29328   0.655   4.356  11.016 -0.0879 -0.5108  0.0856
  218MOL0     C29329   0.610   4.336  10.882 -0.8783  0.0921 -0.5126
  218MOL0     C29330   0.496   4.400  10.837 -0.0028  0.1665  0.4013
  218MOL0     O29331   0.448   4.363  10.711 -0.3897 -0.2421 -0.2193
  218MOL0     C29332   0.306   4.386  10.685 -1.2267 -0.2750  0.0769
  218MOL0     C29333   0.288   4.397  10.539  0.4434  0.5976  0.5988
  218MOL0     C29334   0.319   4.535  10.490  0.3743 -0.1983 -0.3530
  218MOL0     C29335   0.302   4.557  10.345 -0.0170  0.4001  0.0690
  218MOL0     C29336   0.325   4.707  10.318  0.5264  0.4926  0.5007
  218MOL0     C29337   0.277   4.749  10.173  0.3849  0.9449  0.1531
  218MOL0     C29338   0.295   4.895  10.148 -0.5552  0.0581  0.1734
  218MOL0     C29339   0.235   4.988  10.253  0.0172  0.0421 -0.2488
  218MOL0    Cl29340   0.268   5.153  10.205 -0.2212  0.1876 -0.1274
  218MOL0     C29341   0.426   4.485  10.930  0.5251 -0.3262 -1.1943
  218MOL0     C29342   0.461   4.486  11.067  0.8099 -0.9695 -0.4328
  218MOL0     O29343   0.591   4.676  11.239 -0.1598  0.2884  0.4709
  218MOL0     C29344   0.852   4.485  11.382  0.1911  0.5705 -0.3969
  218MOL0     C29345   0.958   4.465  11.465  0.4484  0.6937  0.9946
  218MOL0     N29346   1.660   4.444  11.465 -0.2133 -0.4891 -0.2150
  218MOL0     N29347   1.784   4.441  11.438 -0.5556  0.5684 -0.2670
  218MOL0     C29348   1.498   4.658  10.416  1.0176  0.2005  0.4624
  218MOL0     C29349   1.430   4.603  10.307 -0.1702  0.4037 -0.3653
  218MOL0     C29350   1.149   4.545   9.973 -0.1243 -0.1135  0.1876
  218MOL0     C29351   1.046   4.455  10.005  0.2997 -1.0023  0.1565
  218MOL0     C29352   0.992   4.387   9.897 -0.1211  0.8899  0.6043
  218MOL0     C29353   1.040   4.406   9.764  0.4890  0.2192 -0.2943
  218MOL0     O29354   0.970   4.345   9.665  0.0783 -0.4045 -0.5239
  218MOL0     C29355   0.906   4.432   9.566  0.0765 -0.2985 -1.0163
  218MOL0     C29356   0.771   4.388   9.509 -0.4564 -0.0536 -0.6271
  218MOL0     C29357   0.718   4.492   9.402  0.0488 -0.2988  0.1490
  218MOL0     C29358   0.628   4.428   9.302 -0.0520 -0.1412  0.1168
  218MOL0     C29359   0.621   4.502   9.177 -0.6790 -0.1373 -0.2524
  218MOL0     C29360   0.607   4.558   9.065 -0.1844  0.2223 -0.0994
  218MOL0     C29361   1.151   4.491   9.734 -0.3211  0.8302 -0.7225
  218MOL0     C29362   1.207   4.554   9.847  0.7008 -0.4407 -0.5887
  218MOL0     H29363   1.111   4.677  10.367 -0.7563  1.2506  2.0550
  218MOL0     H29364   1.224   4.784  10.584  0.7924 -0.5326  0.6152
  218MOL0     H29365   1.535   4.622  10.714 -0.2558 -0.3473  1.2549
  218MOL0     H29366   1.670   4.693  10.640  1.4010 -0.3134  3.4473
  218MOL0     H29367   1.652   4.893  10.789  0.6321 -0.3949 -0.3514
  218MOL0     H29368   1.515   4.799  10.871 -1.4260 -4.2948 -0.3779
  218MOL0     H29369   1.657   4.719  11.008  0.4134 -0.6195  0.8732
  218MOL0     H29370   1.674   4.600  10.873 -4.0090  0.9472 -2.6467
  218MOL0     H29371   1.875   4.707  10.803 -2.1585  0.4064 -0.7594
  218MOL0     H29372   1.860   4.845  10.917 -0.4802  0.6782 -2.9982
  218MOL0     H29373   1.907   4.543  10.986  2.3215 -1.5801  2.5278
  218MOL0     H29374   2.031   4.664  10.992  0.6318 -2.8031  3.0011
  218MOL0     H29375   1.903   4.800  11.173  1.9334 -0.3963  1.5943
  218MOL0     H29376   1.790   4.658  11.180 -0.1726  0.0214  2.1331
  218MOL0     H29377   1.967   4.491  11.210  0.7796  0.5488 -2.5402
  218MOL0     H29378   2.090   4.620  11.224 -0.8500  0.9112 -2.2038
  218MOL0     H29379   1.985   4.705  11.423  1.7081  1.3342 -2.4563
  218MOL0     H29380   2.031   4.543  11.447 -0.3670  1.1748  2.6818
  218MOL0     H29381   1.720   4.766  11.469 -3.2724 -0.2061  0.4206
  218MOL0     H29382   1.488   4.724  11.592 -0.0201 -0.6441  0.2311
  218MOL0     H29383   1.416   4.626  11.469 -1.1415  1.0917  0.1224
  218MOL0     H29384   1.505   4.531  11.735 -0.2460 -0.3361  0.7627
  218MOL0     H29385   1.427   4.432  11.604  1.6692  0.0214  0.4502
  218MOL0     H29386   1.293   4.679  11.741 -2.7834 -0.0072 -0.2626
  218MOL0     H29387   1.271   4.516  11.795  2.3252 -0.1742  0.2613
  218MOL0     H29388   1.219   4.462  11.537  4.0850  1.9091 -0.3255
  218MOL0     H29389   1.209   4.638  11.522  4.8392 -0.2628  0.2516
  218MOL0     H29390   0.906   4.736  11.652 -0.5395 -1.4217  2.6739
  218MOL0     H29391   0.638   4.806  11.597  3.4086 -2.1515  1.6853
  218MOL0     H29392   0.756   4.913  11.493  1.1631 -0.4546  0.8041
  218MOL0     H29393   0.624   4.843  11.423  0.9303  1.8869  0.9098
  218MOL0     H29394   0.752   4.320  11.049 -0.0729 -0.6072 -0.0611
  218MOL0     H29395   0.670   4.273  10.816 -0.2515  1.5471 -1.3629
  218MOL0     H29396   0.243   4.314  10.736 -0.6834  0.0038  1.1695
  218MOL0     H29397   0.282   4.485  10.726  1.9687  0.9331 -0.6738
  218MOL0     H29398   0.360   4.330  10.490 -2.0108 -1.4189 -0.4476
  218MOL0     H29399   0.187   4.366  10.514  0.7923 -1.1765  1.2266
  218MOL0     H29400   0.422   4.565  10.510 -0.4920  1.4059  2.1985
  218MOL0     H29401   0.242   4.596  10.537  0.4736 -0.4912  0.1944
  218MOL0     H29402   0.371   4.491  10.290 -0.3468  1.2201 -1.3932
  218MOL0     H29403   0.205   4.521  10.310  0.8731 -3.8731  1.3619
  218MOL0     H29404   0.431   4.730  10.337  0.3836  1.7025 -0.0923
  218MOL0     H29405   0.268   4.770  10.387  1.0652  1.8919 -0.2962
  218MOL0     H29406   0.321   4.689  10.093 -3.6269 -0.6451 -1.0859
  218MOL0     H29407   0.169   4.732  10.168  0.0160  3.3137 -1.5369
  218MOL0     H29408   0.260   4.918  10.047  1.5539 -4.3308 -1.8441
  218MOL0     H29409   0.402   4.919  10.147  0.4061 -3.5132 -0.9865
  218MOL0     H29410   0.278   4.973  10.352 -0.1236  0.7369 -0.0732
  218MOL0     H29411   0.130   4.962  10.269  0.0605 -0.1282 -0.2460
  218MOL0     H29412   0.334   4.532  10.894 -1.6305 -3.5979 -0.4332
  218MOL0     H29413   0.404   4.544  11.139 -0.3939 -3.1344  0.4664
  218MOL0     H29414   0.836   4.414  11.301 -2.1797  1.7560 -1.0537
  218MOL0     H29415   1.027   4.381  11.466 -2.1700 -1.6963  4.6693
  218MOL0     H29416   1.605   4.651  10.397  0.7393  1.9179 -2.3154
  218MOL0     H29417   1.489   4.564  10.225  4.1410 -2.7019  3.6377
  218MOL0     H29418   1.011   4.441  10.106  1.4183  1.7487  1.0101
  218MOL0     H29419   0.916   4.310   9.909  1.3005 -0.4435  1.3617
  218MOL0     H29420   0.887   4.530   9.609  1.8931 -0.2132 -0.3008
  218MOL0     H29421   0.977   4.455   9.485  2.4574 -0.2865  0.9673
  218MOL0     H29422   0.703   4.370   9.593 -0.2445 -1.8848 -0.8003
  218MOL0     H29423   0.798   4.293   9.461 -2.1052  0.6634 -3.2077
  218MOL0     H29424   0.803   4.533   9.345  0.3276 -1.5576 -0.3745
  218MOL0     H29425   0.671   4.578   9.451 -1.2095  0.0260 -1.5342
  218MOL0     H29426   0.524   4.427   9.336  0.0960 -1.1752  0.5818
  218MOL0     H29427   0.661   4.327   9.276  2.9982  1.1297 -1.3742
  218MOL0     H29428   0.612   4.616   8.975  0.1734  2.9444  1.5385
  218MOL0     H29429   1.195   4.510   9.636  5.1831 -5.0383 -0.0785
  218MOL0     H29430   1.280   4.630   9.820 -2.4999  2.6783 -1.1151
  219MOL0     O29431   2.323   0.339   2.233 -0.5248  1.1180  0.1770
  219MOL0     C29432   2.368   0.424   2.304  0.2960  0.2994  0.1640
  219MOL0     O29433   2.311   0.463   2.420 -0.0724 -0.0138  0.1107
  219MOL0     C29434   2.186   0.422   2.449  0.2747  0.7725 -0.4174
  219MOL0     C29435   2.153   0.285   2.475 -1.1988 -0.2519  0.1192
  219MOL0     C29436   2.028   0.247   2.506 -0.2399 -0.7518  0.2470
  219MOL0     C29437   1.930   0.339   2.514  0.0175 -0.3104 -1.0954
  219MOL0     O29438   1.803   0.294   2.552 -0.3198  0.4265 -0.6897
  219MOL0     C29439   1.786   0.212   2.667 -0.6499  0.7727  0.1518
  219MOL0     C29440   1.844   0.273   2.796  0.4183 -0.1750  0.3305
  219MOL0     C29441   1.814   0.426   2.813 -0.3532  0.2750  0.7135
  219MOL0     C29442   1.739   0.455   2.939 -0.4496 -0.0080 -0.4975
  219MOL0     C29443   1.604   0.377   2.945 -0.6781  0.2253 -0.5937
  219MOL0     C29444   1.524   0.423   3.075 -0.4022 -0.4409  0.9353
  219MOL0     C29445   1.547   0.336   3.200  0.1341  0.7803  0.0750
  219MOL0     C29446   1.504   0.393   3.338 -0.0644  0.3819  1.2622
  219MOL0     N29447   1.360   0.376   3.350 -0.0045 -0.0687 -0.1090
  219MOL0     C29448   1.296   0.261   3.403 -0.2696 -0.1287 -0.0972
  219MOL0     C29449   1.169   0.276   3.370  0.0249  0.5139  0.2070
  219MOL0     C29450   1.069   0.175   3.410 -0.4854  0.4321  0.3258
  219MOL0     C29451   0.932   0.242   3.436  0.3202  0.5951 -0.8445
  219MOL0     C29452   0.821   0.152   3.481  0.4647 -0.6420 -0.0030
  219MOL0     C29453   0.690   0.216   3.492  0.4835 -0.0067 -0.3262
  219MOL0     O29454   0.590   0.123   3.555 -0.3613  0.6723 -0.3754
  219MOL0     C29455   0.460   0.159   3.550  0.5155 -0.5409  0.2508
  219MOL0     C29456   0.415   0.277   3.479 -0.4070 -0.1526 -0.7788
  219MOL0     C29457   0.277   0.307   3.481 -0.4262  0.0821  0.6975
  219MOL0     C29458   0.234   0.427   3.394 -0.0781 -0.6007 -0.6068
  219MOL0     C29459   0.181   0.224   3.557 -0.0184 -0.8435 -0.3369
  219MOL0     C29460   0.038   0.247   3.568  0.1614  0.1362  0.2220
  219MOL0     O29461  -0.031   0.210   3.679 -0.0132 -0.1645  0.0515
  219MOL0     C29462  -0.168   0.217   3.690 -0.4734 -1.0199 -0.5961
  219MOL0     C29463  -0.254   0.179   3.586 -0.7422 -0.4425  0.3399
  219MOL0     C29464  -0.388   0.193   3.588  1.1584  0.9617 -0.7606
  219MOL0     C29465  -0.458   0.222   3.704  0.1218 -0.6447 -0.0643
  219MOL0     O29466  -0.594   0.224   3.703 -0.2357  0.3533 -0.1760
  219MOL0     C29467  -0.661   0.284   3.815 -0.9656 -0.9116  0.3646
  219MOL0     C29468  -0.802   0.325   3.777 -0.2660 -0.5700  0.8223
  219MOL0     C29469  -0.886   0.203   3.728 -0.4037  0.7720 -0.1426
  219MOL0     C29470  -1.035   0.217   3.729  0.1204 -0.1369  0.0417
  219MOL0     C29471  -1.085   0.076   3.685  0.0492 -0.7298  0.6731
  219MOL0     C29472  -1.244   0.078   3.671 -0.2815  0.3857  0.1254
  219MOL0     C29473  -1.321   0.177   3.765  0.7819 -0.5449 -0.1339
  219MOL0     C29474  -1.476   0.171   3.744 -0.1626  0.0022 -0.5757
  219MOL0    Cl29475  -1.540   0.002   3.765  0.3183 -0.3009  0.2534
  219MOL0     C29476  -0.374   0.245   3.817  0.1495  0.4743  0.5958
  219MOL0     C29477  -0.238   0.252   3.801 -0.3868 -0.3311  0.0141
  219MOL0     O29478  -0.016   0.307   3.470 -0.2736 -0.3456 -0.5250
  219MOL0     C29479   0.231   0.117   3.625  0.5328  1.2065  0.0676
  219MOL0     C29480   0.362   0.073   3.621 -0.2395  0.4599  0.1415
  219MOL0     N29481   1.152   0.398   3.308 -0.3406 -0.4013 -0.2009
  219MOL0     N29482   1.268   0.453   3.300 -0.3243 -0.0460 -0.5962
  219MOL0     C29483   1.952   0.473   2.493 -0.0616 -0.4056 -0.1126
  219MOL0     C29484   2.083   0.517   2.466  0.6142 -0.1386  0.4864
  219MOL0     C29485   2.486   0.495   2.252 -0.4505  0.2355  0.8472
  219MOL0     C29486   2.555   0.580   2.335 -0.2169  0.0979 -0.7175
  219MOL0     C29487   2.665   0.649   2.297  0.6618  0.1272  0.3163
  219MOL0     C29488   2.728   0.622   2.167 -0.1629  0.1595 -1.0603
  219MOL0     O29489   2.838   0.698   2.139  0.1482 -0.8250  0.0202
  219MOL0     C29490   2.875   0.712   1.996 -0.4305  0.4577  0.6270
  219MOL0     C29491   2.998   0.806   1.959  0.7849 -1.3903  0.9189
  219MOL0     C29492   3.043   0.794   1.818 -0.2071 -0.1226  0.3325
  219MOL0     C29493   3.156   0.884   1.762  0.6054 -0.1880  0.2946
  219MOL0     C29494   3.278   0.874   1.841  0.3600 -0.0285 -0.0591
  219MOL0     C29495   3.381   0.851   1.892  0.0035  1.2074  0.8582
  219MOL0     C29496   2.654   0.532   2.088 -0.6235 -0.1049  0.1590
  219MOL0     C29497   2.536   0.472   2.120 -0.7845 -0.5289  0.2014
  219MOL0     H29498   2.224   0.203   2.469 -1.0404 -0.0223 -2.6095
  219MOL0     H29499   2.007   0.143   2.526  1.4019 -0.5791  3.6345
  219MOL0     H29500   1.680   0.206   2.691 -1.1322 -1.9905 -2.1469
  219MOL0     H29501   1.836   0.117   2.646  2.7041  2.7649 -1.9460
  219MOL0     H29502   1.821   0.217   2.887 -0.7560 -2.1447 -1.0998
  219MOL0     H29503   1.953   0.275   2.785  0.4661 -0.6812  0.6629
  219MOL0     H29504   1.914   0.471   2.814 -0.2717  0.2102 -1.1607
  219MOL0     H29505   1.755   0.486   2.743 -1.6555  0.0890  1.6275
  219MOL0     H29506   1.806   0.444   3.025  0.8463  1.6973 -1.2132
  219MOL0     H29507   1.708   0.560   2.939  1.5671  0.6430  0.7819
  219MOL0     H29508   1.537   0.389   2.860 -2.7026 -2.8590  0.3992
  219MOL0     H29509   1.615   0.269   2.956 -3.9584  0.0155  2.6333
  219MOL0     H29510   1.533   0.529   3.103  0.8818 -0.4150  0.4832
  219MOL0     H29511   1.416   0.422   3.055 -0.1083 -1.7026 -0.8239
  219MOL0     H29512   1.493   0.241   3.197 -1.4547  1.6526 -0.0325
  219MOL0     H29513   1.654   0.313   3.192 -0.1150  0.0879 -1.9896
  219MOL0     H29514   1.534   0.498   3.341 -0.4383  0.6414 -1.5091
  219MOL0     H29515   1.553   0.338   3.419 -0.3444  0.2754  1.3590
  219MOL0     H29516   1.342   0.180   3.459  2.1951  3.5594  3.8102
  219MOL0     H29517   1.066   0.102   3.329  1.4315  1.2909 -0.5975
  219MOL0     H29518   1.092   0.118   3.501  1.2872 -0.1372 -0.4416
  219MOL0     H29519   0.900   0.291   3.344 -0.9287  0.9628 -0.2321
  219MOL0     H29520   0.953   0.321   3.509  0.6220  0.3135 -0.6209
  219MOL0     H29521   0.832   0.107   3.581 -0.1590 -1.4495 -0.2896
  219MOL0     H29522   0.819   0.062   3.420 -1.0489 -0.1525 -0.7269
  219MOL0     H29523   0.669   0.248   3.390 -2.6662  3.2371  1.1531
  219MOL0     H29524   0.712   0.307   3.548  5.2652 -1.5811  0.8738
  219MOL0     H29525   0.482   0.337   3.418  0.4126  1.0996  1.2295
  219MOL0     H29526   0.197   0.395   3.296  1.2087 -0.7137 -1.0786
  219MOL0     H29527   0.151   0.479   3.440 -0.9615 -1.2838 -1.3813
  219MOL0     H29528   0.315   0.496   3.369 -1.4611 -0.1160 -4.4203
  219MOL0     H29529  -0.216   0.150   3.489 -0.8477  0.2389  0.0898
  219MOL0     H29530  -0.447   0.171   3.500  1.1024 -0.2390 -0.4502
  219MOL0     H29531  -0.655   0.218   3.902  0.2902  0.7861  1.6241
  219MOL0     H29532  -0.603   0.371   3.847  0.6717 -1.4843 -0.8785
  219MOL0     H29533  -0.840   0.374   3.867  0.6911  2.3002 -0.2270
  219MOL0     H29534  -0.801   0.404   3.702 -4.0853  0.4512  1.6250
  219MOL0     H29535  -0.859   0.108   3.775 -1.8764  0.1112 -0.5770
  219MOL0     H29536  -0.857   0.179   3.626  3.1366  0.5523  0.7568
  219MOL0     H29537  -1.071   0.246   3.828 -0.7738  1.9397 -0.8203
  219MOL0     H29538  -1.068   0.295   3.660 -3.4462  1.2494  2.9615
  219MOL0     H29539  -1.058   0.006   3.765 -1.7131  1.0125  2.9640
  219MOL0     H29540  -1.040   0.051   3.589 -0.5307  0.5033  0.0616
  219MOL0     H29541  -1.272   0.118   3.573  1.5565  2.1302  0.2517
  219MOL0     H29542  -1.292  -0.021   3.675  2.0360 -0.7690  2.8325
  219MOL0     H29543  -1.295   0.280   3.740  1.1224 -0.6769 -0.3315
  219MOL0     H29544  -1.299   0.154   3.870  2.8945 -2.6003 -0.9244
  219MOL0     H29545  -1.497   0.203   3.642 -0.3826  3.3063  0.4021
  219MOL0     H29546  -1.516   0.247   3.812  2.3291  1.8145 -0.9947
  219MOL0     H29547  -0.416   0.262   3.915 -1.9846  2.6807 -0.5923
  219MOL0     H29548  -0.188   0.276   3.894 -3.1081 -0.6531  1.7011
  219MOL0     H29549   0.158   0.061   3.683  0.1358  2.0553  0.3905
  219MOL0     H29550   0.397  -0.015   3.674  0.6123  0.5323 -0.2755
  219MOL0     H29551   1.869   0.543   2.498  0.1894 -0.1458  0.6461
  219MOL0     H29552   2.110   0.622   2.455  0.7451  0.1256  2.7794
  219MOL0     H29553   2.515   0.595   2.435 -1.9967 -4.0411 -0.6210
  219MOL0     H29554   2.713   0.715   2.369  1.5041  1.3825 -1.3151
  219MOL0     H29555   2.903   0.613   1.958  0.8483  0.3789  1.6925
  219MOL0     H29556   2.789   0.740   1.935  0.9649  0.6480 -1.3454
  219MOL0     H29557   3.082   0.795   2.028  2.5807  0.2386 -0.8651
  219MOL0     H29558   2.962   0.909   1.972  0.2300 -1.6608  1.6135
  219MOL0     H29559   2.955   0.802   1.754 -0.4112  2.0009  0.8129
  219MOL0     H29560   3.094   0.697   1.808  2.1170  0.9035  1.4504
  219MOL0     H29561   3.121   0.986   1.776 -0.9679 -0.6085 -0.3315
  219MOL0     H29562   3.169   0.861   1.656 -1.3752 -2.3665  0.4265
  219MOL0     H29563   3.476   0.837   1.939  0.6525  2.3989 -0.0515
  219MOL0     H29564   2.683   0.513   1.985  1.9926 -0.7181  0.9370
  219MOL0     H29565   2.479   0.410   2.052  0.0113  0.8786 -1.8600
  220MOL0     O29566   4.346   3.228   8.975  0.1157 -0.0664 -0.3873
  220MOL0     C29567   4.235   3.253   9.025  0.0198 -0.3429  0.5877
  220MOL0     O29568   4.185   3.374   9.080  1.1554  0.5453  0.0110
  220MOL0     C29569   4.269   3.470   9.124  0.6654 -0.0475  0.4246
  220MOL0     C29570   4.394   3.502   9.063  1.0714 -0.3920  0.8725
  220MOL0     C29571   4.458   3.615   9.104 -0.6257  0.9406  0.7203
  220MOL0     C29572   4.413   3.701   9.200 -0.0934  0.4698  0.2462
  220MOL0     O29573   4.496   3.804   9.240  0.0152  0.3002 -0.5373
  220MOL0     C29574   4.435   3.922   9.303  0.9251  0.1534 -0.6771
  220MOL0     C29575   4.542   4.023   9.337 -0.5244  0.2236 -0.0633
  220MOL0     C29576   4.490   4.162   9.373 -0.2462 -0.2771  0.1283
  220MOL0     C29577   4.605   4.259   9.413  0.0270  0.9133 -0.7812
  220MOL0     C29578   4.566   4.401   9.450 -0.4320 -0.0988  0.6009
  220MOL0     C29579   4.471   4.426   9.565  0.7365 -0.1981  0.2417
  220MOL0     C29580   4.539   4.384   9.695  0.1471 -0.7644 -0.2677
  220MOL0     C29581   4.424   4.373   9.805  0.1089 -0.5034  0.2787
  220MOL0     N29582   4.471   4.387   9.939  0.0386  0.5480 -0.6115
  220MOL0     C29583   4.555   4.298  10.005  0.6506 -0.6481 -0.0342
  220MOL0     C29584   4.580   4.354  10.129  0.4830 -0.7911  0.1767
  220MOL0     C29585   4.671   4.310  10.235 -0.4788 -0.5187  0.4615
  220MOL0     C29586   4.820   4.353  10.195 -0.4450 -0.3532  0.4148
  220MOL0     C29587   4.921   4.329  10.317  0.4450  0.8655 -0.7154
  220MOL0     C29588   5.068   4.301  10.266 -1.0492 -0.1777 -0.7689
  220MOL0     O29589   5.157   4.292  10.372 -0.6372 -0.4660 -0.7029
  220MOL0     C29590   5.293   4.262  10.348 -0.1356  0.6342  0.6194
  220MOL0     C29591   5.383   4.277  10.455  0.0211 -1.4795  0.6427
  220MOL0     C29592   5.520   4.274  10.422 -0.2216  0.1361 -0.4572
  220MOL0     C29593   5.610   4.300  10.542 -0.4892 -0.6764 -0.1472
  220MOL0     C29594   5.564   4.240  10.296  0.0005  0.3119  0.0901
  220MOL0     C29595   5.703   4.240  10.248  0.1631 -0.0535 -0.1817
  220MOL0     O29596   5.805   4.249  10.334 -0.1612 -0.3055  0.0417
  220MOL0     C29597   5.938   4.224  10.277  0.9025 -0.0652 -0.6144
  220MOL0     C29598   5.977   4.113  10.209  0.0112  0.5341  0.4621
  220MOL0     C29599   6.116   4.101  10.173 -0.8373  0.0213 -0.2837
  220MOL0     C29600   6.212   4.207  10.193  0.0524 -0.2082 -0.0568
  220MOL0     O29601   6.344   4.211  10.150 -0.2849 -0.1811  0.1442
  220MOL0     C29602   6.369   4.139  10.034  0.4991 -0.2308 -0.4890
  220MOL0     C29603   6.520   4.140  10.006  0.6796  0.9198 -0.4825
  220MOL0     C29604   6.604   4.038  10.086  0.0799  0.4275 -0.5106
  220MOL0     C29605   6.740   4.011  10.026 -0.4618  0.5502  0.8341
  220MOL0     C29606   6.798   3.876  10.075  0.8084 -0.5004 -0.9103
  220MOL0     C29607   6.898   3.816   9.979 -0.4712  0.0910 -0.2622
  220MOL0     C29608   6.850   3.780   9.836 -0.7981  0.4560  0.2675
  220MOL0     C29609   6.778   3.639   9.837 -0.1087 -0.0281  0.3692
  220MOL0    Cl29610   6.720   3.601   9.680 -0.2866  0.4329  0.2893
  220MOL0     C29611   6.171   4.319  10.269  0.1232  0.2196  0.0911
  220MOL0     C29612   6.038   4.319  10.310  0.0472  0.1266  0.1556
  220MOL0     O29613   5.708   4.254  10.128 -0.6621 -0.0378  0.0764
  220MOL0     C29614   5.464   4.200  10.205 -0.7865  0.6747 -1.0717
  220MOL0     C29615   5.329   4.215  10.223 -0.6020  0.6668  0.5394
  220MOL0     N29616   4.505   4.471  10.133 -0.5892 -0.0815  0.5834
  220MOL0     N29617   4.450   4.495  10.021 -0.4044 -0.2537  0.3082
  220MOL0     C29618   4.296   3.669   9.269 -0.0701  0.3157 -0.2954
  220MOL0     C29619   4.219   3.553   9.219 -0.1257 -0.4071 -0.6798
  220MOL0     C29620   4.127   3.153   9.023  0.8368  0.4399 -0.1561
  220MOL0     C29621   3.990   3.171   9.050  0.6004 -0.5192 -0.9635
  220MOL0     C29622   3.898   3.060   9.041  1.1958 -0.1012  0.9838
  220MOL0     C29623   3.945   2.931   9.010  0.4489  0.7734 -0.5284
  220MOL0     O29624   3.855   2.826   9.002 -0.6933 -0.8130  0.3876
  220MOL0     C29625   3.709   2.853   9.008 -0.9759 -0.6962 -0.2949
  220MOL0     C29626   3.629   2.722   8.989 -0.2985 -0.6321 -0.8756
  220MOL0     C29627   3.474   2.744   9.022 -0.4942 -0.0031 -0.2934
  220MOL0     C29628   3.377   2.624   8.996 -0.6408 -0.1582  0.0185
  220MOL0     C29629   3.238   2.662   8.993 -0.8296  0.1414  0.7665
  220MOL0     C29630   3.117   2.669   8.970  0.2835 -0.0149 -0.1285
  220MOL0     C29631   4.082   2.919   8.981  1.2606 -0.2634 -0.1424
  220MOL0     C29632   4.162   3.028   8.986 -0.3021 -0.1186  0.1767
  220MOL0     H29633   4.424   3.444   8.976 -4.6287  0.1273 -1.9181
  220MOL0     H29634   4.548   3.636   9.048 -0.3548 -4.3989 -1.4351
  220MOL0     H29635   4.348   3.966   9.253  1.2101  0.8874 -0.5409
  220MOL0     H29636   4.389   3.887   9.396  0.7812 -1.3101 -1.2795
  220MOL0     H29637   4.580   3.980   9.430 -3.7407 -1.6634  0.5418
  220MOL0     H29638   4.620   4.031   9.261  0.9985 -1.8776  1.1875
  220MOL0     H29639   4.439   4.205   9.286  0.7086 -1.0235 -0.8237
  220MOL0     H29640   4.427   4.143   9.460  1.1526 -2.1515  0.7909
  220MOL0     H29641   4.648   4.211   9.501 -1.9830  0.4390 -0.0050
  220MOL0     H29642   4.681   4.258   9.333  0.6303  3.2596 -0.3233
  220MOL0     H29643   4.659   4.457   9.462 -1.1013  1.7277 -1.8676
  220MOL0     H29644   4.528   4.451   9.360 -0.0128  0.4903  0.7487
  220MOL0     H29645   4.454   4.534   9.575  5.5070  0.7668  0.2887
  220MOL0     H29646   4.383   4.364   9.547  1.4193 -0.2809 -3.3923
  220MOL0     H29647   4.601   4.294   9.692 -2.4784 -2.7753  1.0302
  220MOL0     H29648   4.598   4.472   9.722 -1.4001  1.1192 -2.5746
  220MOL0     H29649   4.370   4.279   9.792 -2.8703  1.1041 -0.1679
  220MOL0     H29650   4.350   4.453   9.792 -0.0977 -0.6217  0.7247
  220MOL0     H29651   4.582   4.198   9.972 -0.7275 -0.7326 -0.9760
  220MOL0     H29652   4.640   4.343  10.334  0.9855 -0.4254  0.9178
  220MOL0     H29653   4.676   4.201  10.247  0.5464 -0.3891  1.3324
  220MOL0     H29654   4.816   4.460  10.175  0.9861 -0.4602 -0.6730
  220MOL0     H29655   4.847   4.300  10.103  0.4523  3.3013 -1.6504
  220MOL0     H29656   4.903   4.241  10.379  1.3650 -1.6549 -3.7656
  220MOL0     H29657   4.923   4.416  10.384  1.7503  0.4128 -0.1331
  220MOL0     H29658   5.095   4.373  10.189 -1.6814  2.6974  1.5273
  220MOL0     H29659   5.059   4.204  10.216 -0.9976 -1.1948  1.0834
  220MOL0     H29660   5.337   4.307  10.549  3.2122 -3.8363  3.1758
  220MOL0     H29661   5.548   4.328  10.628  1.9459 -2.2277  2.2672
  220MOL0     H29662   5.675   4.217  10.571  2.7364  1.6104 -0.2838
  220MOL0     H29663   5.679   4.384  10.527  0.3640 -1.5273 -1.2093
  220MOL0     H29664   5.910   4.032  10.183 -2.4123  2.2414  1.0900
  220MOL0     H29665   6.147   4.008  10.126 -1.2177  0.3173 -1.1351
  220MOL0     H29666   6.334   4.035  10.031 -0.0836 -0.0431 -0.1871
  220MOL0     H29667   6.332   4.208   9.958  1.2761 -0.2862 -0.9257
  220MOL0     H29668   6.536   4.132   9.898 -1.1736  4.0713 -1.1323
  220MOL0     H29669   6.562   4.240  10.021 -0.1040  1.5589 -2.2156
  220MOL0     H29670   6.542   3.948  10.092 -1.5507  1.5396  0.3610
  220MOL0     H29671   6.608   4.067  10.191  1.2490 -1.7443  0.0927
  220MOL0     H29672   6.714   4.005   9.920 -3.3140 -1.5726  1.5129
  220MOL0     H29673   6.809   4.094  10.043  0.5765 -0.3075  0.8879
  220MOL0     H29674   6.714   3.807  10.081  1.4388 -1.2272 -0.1286
  220MOL0     H29675   6.847   3.892  10.172 -1.1266  2.3964 -0.2771
  220MOL0     H29676   6.974   3.894   9.982  0.1572 -0.5070  2.4398
  220MOL0     H29677   6.932   3.724  10.028 -0.8446 -0.2261 -0.5914
  220MOL0     H29678   6.939   3.779   9.772  1.4700 -3.6928  3.0242
  220MOL0     H29679   6.778   3.856   9.804  1.7841  2.3339 -1.5515
  220MOL0     H29680   6.697   3.645   9.911  0.9466  0.3356  1.5425
  220MOL0     H29681   6.844   3.557   9.867  0.1406 -0.9862 -2.5332
  220MOL0     H29682   6.245   4.397  10.283  1.4864 -0.3648 -3.0541
  220MOL0     H29683   5.996   4.390  10.380 -1.4143 -0.3796 -0.1789
  220MOL0     H29684   5.499   4.162  10.110 -0.0103 -0.0773 -0.5042
  220MOL0     H29685   5.259   4.214  10.140 -0.0455 -0.1638  0.0683
  220MOL0     H29686   4.269   3.731   9.354  1.1589 -1.0564  1.1608
  220MOL0     H29687   4.123   3.526   9.261 -0.5738 -1.1018 -2.0915
  220MOL0     H29688   3.945   3.260   9.093 -2.6355 -2.8699  0.9989
  220MOL0     H29689   3.794   3.085   9.060  0.7140 -1.5785  0.3984
  220MOL0     H29690   3.673   2.899   9.101  2.1578  1.2508  0.0785
  220MOL0     H29691   3.682   2.917   8.924 -0.6400  2.7516  2.0383
  220MOL0     H29692   3.664   2.646   9.059  1.0742  1.2812  0.6259
  220MOL0     H29693   3.649   2.691   8.886  2.0171  1.6300 -1.2176
  220MOL0     H29694   3.441   2.821   8.951 -0.0040 -2.1013 -2.9758
  220MOL0     H29695   3.456   2.782   9.123 -0.6696  1.4501 -0.8508
  220MOL0     H29696   3.394   2.541   9.066 -1.3812  1.3178  2.0380
  220MOL0     H29697   3.402   2.595   8.893  1.6553 -1.3898  0.8542
  220MOL0     H29698   3.014   2.674   8.942  0.7169 -0.1565 -1.8440
  220MOL0     H29699   4.137   2.826   8.973  1.8879  0.1729 -1.0181
  220MOL0     H29700   4.266   3.009   8.966  0.2173 -0.5582  2.8361
  221MOL0     O29701   5.461   3.345   3.443 -1.0281 -0.0233 -0.0878
  221MOL0     C29702   5.482   3.377   3.320 -0.2902  0.0530  0.2098
  221MOL0     O29703   5.407   3.343   3.220  0.0556  1.1501 -0.3216
  221MOL0     C29704   5.295   3.265   3.242  0.7293 -0.5819  0.4689
  221MOL0     C29705   5.277   3.152   3.318 -0.1043  0.2735  0.3224
  221MOL0     C29706   5.160   3.075   3.329  0.3722 -1.4958 -0.4028
  221MOL0     C29707   5.054   3.099   3.242 -0.1022  0.5821  0.4863
  221MOL0     O29708   4.938   3.020   3.232  0.1191  0.1440  0.0192
  221MOL0     C29709   4.901   2.942   3.351  0.0583 -0.0643  0.4394
  221MOL0     C29710   4.768   2.992   3.409 -0.6074  0.1253  0.5900
  221MOL0     C29711   4.778   3.139   3.461  0.8757  0.4023  0.8310
  221MOL0     C29712   4.654   3.187   3.520  0.3007  0.4771 -0.5236
  221MOL0     C29713   4.659   3.338   3.539  0.1036 -0.4420  0.0373
  221MOL0     C29714   4.525   3.399   3.591 -0.3597  0.0921  0.7317
  221MOL0     C29715   4.533   3.558   3.586 -0.2216 -0.0361 -0.9800
  221MOL0     C29716   4.451   3.620   3.710  0.4880  0.6662  0.7394
  221MOL0     N29717   4.304   3.589   3.691 -0.2137  0.0792  0.2350
  221MOL0     C29718   4.216   3.671   3.622  1.0842  1.0142  0.3899
  221MOL0     C29719   4.096   3.615   3.652 -0.4603  0.9469  0.8984
  221MOL0     C29720   3.966   3.683   3.620 -0.8124  0.9724  0.9422
  221MOL0     C29721   3.898   3.721   3.757  0.0288  0.7217  0.2923
  221MOL0     C29722   3.814   3.845   3.743  0.0427 -0.2283 -0.0977
  221MOL0     C29723   3.665   3.819   3.711 -0.2846 -0.3789 -0.4076
  221MOL0     O29724   3.646   3.736   3.596  0.7758 -0.0185 -0.1058
  221MOL0     C29725   3.522   3.718   3.544  1.0064 -0.1079 -1.4884
  221MOL0     C29726   3.516   3.652   3.425  0.9203 -0.9951 -0.9285
  221MOL0     C29727   3.399   3.631   3.358 -0.0344  0.1911  0.9104
  221MOL0     C29728   3.408   3.584   3.211 -0.0534  0.5550  0.2228
  221MOL0     C29729   3.276   3.666   3.414 -0.3028  0.1576  1.0108
  221MOL0     C29730   3.143   3.628   3.364 -0.7464  0.6834  0.1312
  221MOL0     O29731   3.073   3.738   3.319  0.0167  0.1316  0.1135
  221MOL0     C29732   2.959   3.713   3.241 -0.2219 -0.5548 -0.2568
  221MOL0     C29733   2.952   3.780   3.121 -0.0603  0.6147  0.2225
  221MOL0     C29734   2.838   3.762   3.030  0.8303 -0.5351 -0.8501
  221MOL0     C29735   2.741   3.664   3.054  0.5868  0.4726 -0.1099
  221MOL0     O29736   2.626   3.652   2.971  0.6700 -0.1595 -0.4331
  221MOL0     C29737   2.617   3.517   2.910  0.8682  0.0274  0.0141
  221MOL0     C29738   2.473   3.514   2.852 -0.1688  0.4236  0.0209
  221MOL0     C29739   2.450   3.618   2.744 -0.5778  0.4794 -0.8470
  221MOL0     C29740   2.524   3.596   2.609 -0.1797  0.1276  1.1055
  221MOL0     C29741   2.478   3.714   2.518 -0.5768 -0.5542  0.2466
  221MOL0     C29742   2.543   3.696   2.383  0.4017 -0.2201  0.7645
  221MOL0     C29743   2.477   3.596   2.289  0.2006 -0.7587  0.0859
  221MOL0     C29744   2.565   3.556   2.166 -0.4569  0.3738  0.3484
  221MOL0    Cl29745   2.607   3.685   2.044  0.1974  0.1253 -0.0658
  221MOL0     C29746   2.754   3.591   3.171  0.2299 -0.8921  0.5917
  221MOL0     C29747   2.854   3.617   3.262  0.2382  0.0973  0.4180
  221MOL0     O29748   3.114   3.509   3.346  0.6127  0.1608 -0.1533
  221MOL0     C29749   3.274   3.727   3.542  0.5728  0.0981  0.2336
  221MOL0     C29750   3.402   3.757   3.603  1.1518 -0.6277  0.0192
  221MOL0     N29751   4.115   3.499   3.736  0.8174  0.5646  0.2995
  221MOL0     N29752   4.235   3.495   3.757 -0.1818 -0.1782 -0.4204
  221MOL0     C29753   5.073   3.213   3.155 -0.0592  0.9343 -0.0704
  221MOL0     C29754   5.189   3.297   3.155  0.9723 -0.4811 -0.2493
  221MOL0     C29755   5.599   3.460   3.295  0.5687 -1.1723  0.0226
  221MOL0     C29756   5.619   3.510   3.163  1.1114 -0.1188  0.7965
  221MOL0     C29757   5.721   3.601   3.142 -0.0900 -0.2295 -0.1724
  221MOL0     C29758   5.806   3.643   3.245 -0.0257  0.1313 -0.3320
  221MOL0     O29759   5.907   3.730   3.197 -0.6609 -0.6524  0.4296
  221MOL0     C29760   6.036   3.685   3.220  0.0683  0.0677  0.2800
  221MOL0     C29761   6.134   3.801   3.243 -1.1305  0.4200  0.6514
  221MOL0     C29762   6.164   3.881   3.120  0.0293  0.0642 -0.1331
  221MOL0     C29763   6.268   3.994   3.150 -0.6293  0.2861  0.2832
  221MOL0     C29764   6.307   4.069   3.029 -0.2649 -0.8531  0.2761
  221MOL0     C29765   6.328   4.151   2.935  0.5884  0.1061  0.8259
  221MOL0     C29766   5.789   3.590   3.372  0.1559 -0.0018  0.0258
  221MOL0     C29767   5.680   3.506   3.398 -1.3001 -0.6127  0.3511
  221MOL0     H29768   5.371   3.123   3.365 -0.4706  1.2222  1.6920
  221MOL0     H29769   5.166   2.994   3.400  2.2708  0.8071  2.2815
  221MOL0     H29770   4.886   2.835   3.332 -4.3650  0.2010  1.3422
  221MOL0     H29771   4.977   2.945   3.429  1.7828 -0.0459 -1.1603
  221MOL0     H29772   4.689   2.979   3.334 -0.0278 -4.4310  0.4730
  221MOL0     H29773   4.728   2.928   3.489 -1.7080  0.5340  0.3928
  221MOL0     H29774   4.858   3.149   3.535  0.9880  2.9778  0.4307
  221MOL0     H29775   4.794   3.204   3.374 -0.8567  2.1645  1.7480
  221MOL0     H29776   4.568   3.155   3.460 -0.1475 -0.8436  0.7606
  221MOL0     H29777   4.645   3.127   3.611 -2.0163 -3.3041 -2.9267
  221MOL0     H29778   4.742   3.348   3.611 -0.0920  0.5103  0.1443
  221MOL0     H29779   4.690   3.392   3.449  1.8894  0.5108  1.1392
  221MOL0     H29780   4.441   3.374   3.525 -1.9919  2.5826  1.6878
  221MOL0     H29781   4.505   3.365   3.693 -2.3936 -1.0174  0.0326
  221MOL0     H29782   4.633   3.595   3.607 -0.4402  1.8885 -2.9716
  221MOL0     H29783   4.491   3.595   3.491 -2.2945  0.8539  0.2004
  221MOL0     H29784   4.459   3.729   3.719 -1.0529  0.6756  2.5649
  221MOL0     H29785   4.486   3.565   3.798 -1.8350 -3.5229 -0.6899
  221MOL0     H29786   4.227   3.762   3.565 -0.3097  0.9839  0.0418
  221MOL0     H29787   3.971   3.759   3.542 -0.3431  0.0435  0.0500
  221MOL0     H29788   3.900   3.606   3.578  0.2884 -0.5788  1.9715
  221MOL0     H29789   3.984   3.746   3.820  0.5199 -3.2805  1.4919
  221MOL0     H29790   3.843   3.635   3.794  1.5183 -0.2275  0.4047
  221MOL0     H29791   3.851   3.917   3.669 -2.2043  0.6412 -0.4876
  221MOL0     H29792   3.818   3.886   3.844  0.7563 -2.8130  0.9924
  221MOL0     H29793   3.622   3.920   3.705  1.2734  0.3346  0.0207
  221MOL0     H29794   3.610   3.772   3.793 -1.8761  0.4726 -0.9359
  221MOL0     H29795   3.606   3.628   3.370 -0.4970 -3.1950 -2.4791
  221MOL0     H29796   3.468   3.657   3.156 -0.6976  2.5827  2.0719
  221MOL0     H29797   3.466   3.491   3.209  1.5331  1.4616  1.6215
  221MOL0     H29798   3.304   3.575   3.180 -0.6187 -0.6777  2.2575
  221MOL0     H29799   3.027   3.849   3.081  1.5892 -0.7877  0.7742
  221MOL0     H29800   2.832   3.836   2.951 -3.6495  1.0234  0.6654
  221MOL0     H29801   2.685   3.513   2.824  0.0312 -5.2728 -0.7399
  221MOL0     H29802   2.658   3.438   2.975 -0.4413 -1.3643 -0.7894
  221MOL0     H29803   2.474   3.410   2.818 -0.8275 -0.2041  1.8041
  221MOL0     H29804   2.401   3.521   2.934 -2.7159  2.0410 -2.2229
  221MOL0     H29805   2.475   3.714   2.790  0.5226  0.1271 -0.6902
  221MOL0     H29806   2.344   3.629   2.718 -0.6670 -1.3000 -1.3605
  221MOL0     H29807   2.632   3.601   2.625  0.0568  1.3279 -0.5862
  221MOL0     H29808   2.494   3.495   2.579 -2.0437  0.3790  2.0066
  221MOL0     H29809   2.507   3.813   2.554  0.1789  0.5499 -3.0230
  221MOL0     H29810   2.370   3.706   2.502 -0.4271 -3.6329  0.0541
  221MOL0     H29811   2.534   3.783   2.317 -2.6864 -0.7915  0.2895
  221MOL0     H29812   2.651   3.682   2.390  0.4958 -1.2645 -1.8580
  221MOL0     H29813   2.382   3.627   2.244 -0.2200  0.2961  1.6457
  221MOL0     H29814   2.450   3.504   2.343  1.5560  0.3503  2.8602
  221MOL0     H29815   2.502   3.484   2.113 -1.2471  1.7105 -0.5907
  221MOL0     H29816   2.652   3.497   2.193 -0.3804  0.0683 -0.5356
  221MOL0     H29817   2.679   3.513   3.183  1.0935 -1.5201  2.1322
  221MOL0     H29818   2.852   3.558   3.353  2.6295 -0.4990  0.1535
  221MOL0     H29819   3.179   3.761   3.582  1.0587  2.8681 -0.7154
  221MOL0     H29820   3.397   3.821   3.691 -0.9748  0.2467 -0.6741
  221MOL0     H29821   4.990   3.239   3.091 -0.0545 -0.4688 -0.6761
  221MOL0     H29822   5.203   3.375   3.080 -2.0443 -0.0374 -0.4846
  221MOL0     H29823   5.556   3.479   3.081  3.1924  0.9036 -1.2829
  221MOL0     H29824   5.728   3.657   3.050  1.6472 -0.9495 -0.4982
  221MOL0     H29825   6.034   3.616   3.305 -1.4398 -2.5089 -1.7207
  221MOL0     H29826   6.072   3.626   3.136  1.9613  1.6847 -0.1150
  221MOL0     H29827   6.223   3.746   3.273 -0.1188  0.8823 -1.2885
  221MOL0     H29828   6.097   3.859   3.328 -0.5389  1.1283  0.4361
  221MOL0     H29829   6.074   3.930   3.083  0.9450 -0.1152 -2.9009
  221MOL0     H29830   6.210   3.814   3.045 -0.2678  1.3700 -1.5301
  221MOL0     H29831   6.356   3.958   3.204 -1.8699 -0.5357  1.8759
  221MOL0     H29832   6.218   4.065   3.218 -1.9347  0.4640 -0.8194
  221MOL0     H29833   6.330   4.235   2.869 -1.5962 -0.6635 -0.3164
  221MOL0     H29834   5.858   3.614   3.451 -1.1172  3.6043  0.2174
  221MOL0     H29835   5.667   3.468   3.499  4.6977  0.7196  2.0217
  222MOL0     O29836  10.464   4.401   6.144  0.6876 -0.6059  0.2550
  222MOL0     C29837  10.556   4.481   6.150 -0.4036 -0.7429 -0.0068
  222MOL0     O29838  10.546   4.614   6.199  0.8423 -0.3491 -0.1595
  222MOL0     C29839  10.443   4.658   6.284  0.2501  0.3978  0.8902
  222MOL0     C29840  10.371   4.574   6.376 -0.2213  0.7038  0.8245
  222MOL0     C29841  10.273   4.625   6.465 -0.1416  0.0560  0.3362
  222MOL0     C29842  10.244   4.757   6.456 -0.5882 -0.1549 -0.2116
  222MOL0     O29843  10.140   4.807   6.531 -0.8026  0.1332  0.0123
  222MOL0     C29844  10.115   4.743   6.656  0.4299  0.0480  0.6698
  222MOL0     C29845  10.042   4.849   6.746  0.0391 -1.0000  1.1061
  222MOL0     C29846  10.039   4.804   6.893  0.1732  0.1576 -0.2212
  222MOL0     C29847  10.179   4.813   6.951 -0.6865 -0.3705  0.2950
  222MOL0     C29848  10.189   4.873   7.089 -0.2547 -0.6190 -0.1593
  222MOL0     C29849  10.145   5.016   7.085  0.5863  0.3326  0.7139
  222MOL0     C29850  10.182   5.075   7.223 -0.2015 -0.4898  0.4353
  222MOL0     C29851  10.131   4.989   7.335  0.5975 -0.0226 -0.5919
  222MOL0     N29852  10.130   5.071   7.462  1.3298  0.1257 -0.4448
  222MOL0     C29853  10.236   5.126   7.518  1.0242 -0.1686  0.3638
  222MOL0     C29854  10.190   5.211   7.615 -0.0781  0.0667 -0.4346
  222MOL0     C29855  10.286   5.288   7.711  1.0842 -0.7962 -0.3766
  222MOL0     C29856  10.243   5.275   7.860 -0.0601 -0.0376  0.5380
  222MOL0     C29857  10.175   5.394   7.926  0.2144  0.1444  0.3696
  222MOL0     C29858  10.131   5.364   8.069 -0.2765  0.4529  0.2707
  222MOL0     O29859  10.235   5.306   8.142 -0.2613  0.7063  0.0103
  222MOL0     C29860  10.225   5.305   8.281  0.6528  0.1539  0.0281
  222MOL0     C29861  10.101   5.293   8.343 -0.6160 -0.0284 -0.3779
  222MOL0     C29862  10.088   5.287   8.484 -0.2267 -0.4680 -0.6005
  222MOL0     C29863   9.943   5.270   8.527 -0.3162 -0.0835  0.0466
  222MOL0     C29864  10.199   5.292   8.569 -0.6988 -0.4928  0.3259
  222MOL0     C29865  10.198   5.286   8.713  0.5425  1.0689 -0.4007
  222MOL0     O29866  10.083   5.328   8.775  0.6001  0.0925 -0.1563
  222MOL0     C29867  10.064   5.333   8.911  0.4226  0.3835 -0.7232
  222MOL0     C29868   9.929   5.319   8.951 -0.0117 -0.9908  0.3812
  222MOL0     C29869   9.905   5.317   9.092 -0.1722 -0.4579 -0.3667
  222MOL0     C29870  10.008   5.355   9.183  0.3856  0.1438 -0.2581
  222MOL0     O29871   9.982   5.350   9.318 -0.8199 -0.0616 -0.0914
  222MOL0     C29872  10.055   5.450   9.390 -0.2049  0.3744 -0.6766
  222MOL0     C29873   9.953   5.525   9.474 -0.0013  0.1661  0.3490
  222MOL0     C29874   9.825   5.550   9.406  0.4838 -0.6552  0.6283
  222MOL0     C29875   9.715   5.437   9.414  0.6348  0.0444 -1.1657
  222MOL0     C29876   9.573   5.488   9.369 -0.5003  0.7832 -0.7891
  222MOL0     C29877   9.463   5.427   9.445  0.6000  0.5793  0.1269
  222MOL0     C29878   9.451   5.276   9.458 -0.5258  0.3777  0.4575
  222MOL0     C29879   9.430   5.204   9.328 -0.0720 -0.8099 -0.7499
  222MOL0    Cl29880   9.271   5.248   9.271 -0.4206 -0.2346  0.0735
  222MOL0     C29881  10.137   5.372   9.133 -0.1315  0.7810  0.2182
  222MOL0     C29882  10.168   5.370   9.003 -0.5064 -1.1884 -0.1584
  222MOL0     O29883  10.302   5.258   8.774  0.2277  0.9064  0.1209
  222MOL0     C29884  10.327   5.297   8.503 -0.4042 -0.9705 -0.5827
  222MOL0     C29885  10.345   5.298   8.364  0.9326 -0.6664  0.7255
  222MOL0     N29886  10.050   5.223   7.605  0.3612  0.3060 -0.0854
  222MOL0     N29887  10.014   5.134   7.514 -0.4286 -0.2281  0.6696
  222MOL0     C29888  10.313   4.846   6.370  0.3294  0.2676  0.0574
  222MOL0     C29889  10.420   4.797   6.290 -0.4305  0.0207 -0.5549
  222MOL0     C29890  10.688   4.447   6.099 -0.3035  0.1148  0.7132
  222MOL0     C29891  10.804   4.530   6.126  0.6590 -0.4039 -0.2401
  222MOL0     C29892  10.921   4.507   6.050 -0.7984 -0.1868 -0.7766
  222MOL0     C29893  10.935   4.402   5.964  0.9084  0.2913 -0.2369
  222MOL0     O29894  11.057   4.390   5.897 -0.9991  0.5393 -1.0153
  222MOL0     C29895  11.099   4.251   5.885 -0.1182 -0.3760 -0.2285
  222MOL0     C29896  11.248   4.236   5.867  0.5014  0.3757  0.9106
  222MOL0     C29897  11.287   4.289   5.734  0.2724 -0.7168  0.4403
  222MOL0     C29898  11.432   4.270   5.679 -0.2220  0.3258 -0.3172
  222MOL0     C29899  11.526   4.265   5.793 -0.2659  0.7418  0.4597
  222MOL0     C29900  11.585   4.246   5.903  0.5653  0.4818  0.1451
  222MOL0     C29901  10.824   4.314   5.940 -0.1754  0.2539 -0.3152
  222MOL0     C29902  10.701   4.334   6.010 -0.0307 -0.8561 -0.3938
  222MOL0     H29903  10.398   4.469   6.376  0.2551  0.7775 -1.1013
  222MOL0     H29904  10.220   4.556   6.530  0.4420  1.1363  2.0253
  222MOL0     H29905  10.054   4.653   6.645  0.9227 -0.3699  1.3487
  222MOL0     H29906  10.211   4.712   6.697  0.1059 -1.9111  0.0487
  222MOL0     H29907  10.088   4.948   6.740  0.8155 -1.3858  0.6298
  222MOL0     H29908   9.943   4.863   6.701  1.0003 -1.1047 -1.1795
  222MOL0     H29909   9.969   4.871   6.945  2.3059  0.6563  2.2057
  222MOL0     H29910   9.998   4.704   6.909 -1.5571  1.0987  1.7909
  222MOL0     H29911  10.214   4.709   6.957 -1.5798 -0.6763  0.3214
  222MOL0     H29912  10.251   4.861   6.884 -0.3327 -0.3598  0.6798
  222MOL0     H29913  10.123   4.814   7.153  0.1374 -1.4034 -0.4627
  222MOL0     H29914  10.291   4.864   7.128 -0.2029 -0.7497 -0.3219
  222MOL0     H29915  10.201   5.061   7.002 -3.9213 -2.8553 -4.7537
  222MOL0     H29916  10.040   5.033   7.060  0.4144  0.1038  1.2592
  222MOL0     H29917  10.288   5.087   7.247 -0.0385 -0.4534 -0.2747
  222MOL0     H29918  10.135   5.173   7.230 -0.9490 -0.5725 -2.3251
  222MOL0     H29919  10.195   4.901   7.350 -0.9562 -0.8423  1.5921
  222MOL0     H29920  10.031   4.954   7.308  1.6344 -1.5697 -2.7521
  222MOL0     H29921  10.340   5.111   7.493  1.2177 -0.4061  1.2670
  222MOL0     H29922  10.385   5.242   7.701  1.3106 -1.3042  3.0031
  222MOL0     H29923  10.297   5.395   7.692 -0.7498 -0.4057  0.5425
  222MOL0     H29924  10.338   5.257   7.910  0.7796 -0.1218 -1.0001
  222MOL0     H29925  10.167   5.198   7.877 -2.4374  2.1822  0.6774
  222MOL0     H29926  10.086   5.425   7.871  2.8563  3.9024 -2.3717
  222MOL0     H29927  10.233   5.487   7.917 -1.5677  1.4688  1.7776
  222MOL0     H29928  10.056   5.286   8.054 -0.2856  0.8122 -1.8485
  222MOL0     H29929  10.088   5.450   8.119  0.1094  0.6481  0.2697
  222MOL0     H29930  10.010   5.311   8.287 -0.5599  2.3122  0.1534
  222MOL0     H29931   9.916   5.376   8.532  2.9559  0.7783  1.9453
  222MOL0     H29932   9.871   5.225   8.458 -0.3812  1.8119 -1.1785
  222MOL0     H29933   9.928   5.212   8.619 -0.2708 -2.0116 -1.1038
  222MOL0     H29934   9.859   5.286   8.875 -3.4735  3.6922  1.0844
  222MOL0     H29935   9.806   5.311   9.136 -0.5296  0.4024 -1.0208
  222MOL0     H29936  10.129   5.398   9.451 -2.0344  1.3719  2.6633
  222MOL0     H29937  10.109   5.524   9.329  0.5960  0.7714  0.4749
  222MOL0     H29938   9.926   5.461   9.558 -0.7879  0.3497  0.2450
  222MOL0     H29939   9.990   5.623   9.507 -0.7420  1.2324 -1.7763
  222MOL0     H29940   9.840   5.587   9.304 -3.2539  0.7277  0.4250
  222MOL0     H29941   9.783   5.637   9.456  2.1998  1.5142 -1.4628
  222MOL0     H29942   9.738   5.347   9.356  0.6396 -1.9019  1.6320
  222MOL0     H29943   9.705   5.410   9.519 -1.1195  1.7967 -0.8143
  222MOL0     H29944   9.556   5.469   9.263  2.6650 -1.6016 -1.0175
  222MOL0     H29945   9.570   5.597   9.383  0.6347  0.6477  0.7860
  222MOL0     H29946   9.458   5.465   9.547 -1.4248 -1.2819  0.8114
  222MOL0     H29947   9.367   5.458   9.403  1.0848  0.6848 -0.9545
  222MOL0     H29948   9.371   5.250   9.527  1.0503 -1.7445  1.6264
  222MOL0     H29949   9.532   5.227   9.513 -1.5833 -1.0753  0.7913
  222MOL0     H29950   9.434   5.095   9.343  2.6672 -0.6205  0.6618
  222MOL0     H29951   9.500   5.235   9.250 -1.4738  3.3872 -0.5547
  222MOL0     H29952  10.217   5.378   9.206  1.7960 -4.0159 -1.1114
  222MOL0     H29953  10.269   5.391   8.970 -0.8350 -1.6420 -1.5087
  222MOL0     H29954  10.428   5.297   8.542  0.6936  2.1269 -2.9843
  222MOL0     H29955  10.441   5.305   8.315  1.9184 -1.4289  2.4698
  222MOL0     H29956  10.302   4.954   6.364  1.8193  0.3695 -2.5070
  222MOL0     H29957  10.486   4.859   6.231  0.6438 -0.1146  0.4655
  222MOL0     H29958  10.787   4.611   6.197 -1.0898 -2.2947  1.6405
  222MOL0     H29959  11.009   4.568   6.067 -0.3167 -0.8088 -0.9756
  222MOL0     H29960  11.075   4.201   5.980 -1.2097  3.0715  1.4851
  222MOL0     H29961  11.036   4.192   5.817 -0.9622 -1.1483  1.1630
  222MOL0     H29962  11.281   4.132   5.866 -1.0812 -0.2081 -1.8274
  222MOL0     H29963  11.298   4.284   5.951 -0.9471  0.3709  1.8224
  222MOL0     H29964  11.266   4.396   5.739  3.1042 -0.0559 -0.2951
  222MOL0     H29965  11.238   4.234   5.654  0.4896 -0.1233 -0.1082
  222MOL0     H29966  11.463   4.349   5.611  2.8915  0.7001  1.3667
  222MOL0     H29967  11.439   4.179   5.619 -0.9415  0.2234 -0.2552
  222MOL0     H29968  11.625   4.228   6.001  1.4452  2.5289  0.2240
  222MOL0     H29969  10.835   4.240   5.861  0.0260 -1.2942  1.1019
  222MOL0     H29970  10.612   4.279   5.982 -1.1708 -0.2691  1.8357
  223MOL0     O29971   9.037   5.460   0.852 -0.2080  0.4709 -0.5167
  223MOL0     C29972   9.063   5.562   0.919 -0.8889 -0.2966  1.1920
  223MOL0     O29973   9.164   5.662   0.883 -0.4751  0.5509 -0.3015
  223MOL0     C29974   9.229   5.640   0.765  0.2010 -0.8667  0.3813
  223MOL0     C29975   9.200   5.726   0.660  0.5679 -0.1302 -0.5491
  223MOL0     C29976   9.258   5.716   0.537 -0.1386  0.2926  1.4073
  223MOL0     C29977   9.343   5.612   0.503 -0.3616  0.6013  0.3905
  223MOL0     O29978   9.406   5.592   0.378  0.3647 -0.0207  0.2375
  223MOL0     C29979   9.341   5.655   0.265  0.5528  0.1913  0.1221
  223MOL0     C29980   9.383   5.595   0.121 -0.9409  0.5153  0.1993
  223MOL0     C29981   9.541   5.592   0.099 -0.0301  0.2967  0.5479
  223MOL0     C29982   9.579   5.561  -0.052 -0.2549  0.6402  0.1899
  223MOL0     C29983   9.728   5.559  -0.074  0.1411  0.3593  0.9702
  223MOL0     C29984   9.762   5.586  -0.221 -0.5487 -0.3718  0.9496
  223MOL0     C29985   9.906   5.565  -0.240  0.4788 -0.1942 -0.0073
  223MOL0     C29986   9.972   5.603  -0.373 -0.5613  0.0880  0.2617
  223MOL0     N29987  10.109   5.558  -0.392 -0.1901  0.7448  0.5522
  223MOL0     C29988  10.188   5.604  -0.491  0.8935  0.1570  0.3087
  223MOL0     C29989  10.308   5.533  -0.476 -0.4931 -1.0516 -0.1051
  223MOL0     C29990  10.435   5.554  -0.561 -0.2085 -0.2574  0.3396
  223MOL0     C29991  10.486   5.701  -0.557 -0.1323  0.0390 -0.4004
  223MOL0     C29992  10.607   5.727  -0.653 -0.0332  0.5895 -0.2860
  223MOL0     C29993  10.662   5.872  -0.641  0.0616  0.5717 -0.7969
  223MOL0     O29994  10.570   5.971  -0.671 -0.4931 -0.8964  0.6989
  223MOL0     C29995  10.527   5.982  -0.798 -0.1565 -0.6210  0.2437
  223MOL0     C29996  10.583   5.916  -0.909 -0.5103 -0.6051  0.0957
  223MOL0     C29997  10.533   5.949  -1.038  0.0954  0.5095 -0.0101
  223MOL0     C29998  10.617   5.893  -1.147 -0.7234  0.5492 -0.8348
  223MOL0     C29999  10.423   6.036  -1.053  0.8022 -0.4458 -0.3080
  223MOL0     C30000  10.341   6.060  -1.174 -0.1955  0.4769  0.3942
  223MOL0     O30001  10.346   5.964  -1.278  0.3422  0.5530  0.0228
  223MOL0     C30002  10.260   5.996  -1.382 -0.6181  0.1230  0.5775
  223MOL0     C30003  10.302   6.076  -1.488  0.6627  1.0222  0.0007
  223MOL0     C30004  10.207   6.112  -1.581 -0.7444 -0.3940  0.1827
  223MOL0     C30005  10.081   6.068  -1.582  0.4084 -0.4239  0.5612
  223MOL0     O30006  10.011   6.115  -1.698  0.2458  0.3548 -0.3746
  223MOL0     C30007   9.885   6.059  -1.720  0.8814  0.4270 -0.0448
  223MOL0     C30008   9.808   6.134  -1.822  0.8630 -0.0376  1.0605
  223MOL0     C30009   9.865   6.119  -1.960 -0.2893  1.2735  0.0293
  223MOL0     C30010   9.784   6.200  -2.059 -0.1371 -0.9957 -0.6680
  223MOL0     C30011   9.810   6.156  -2.198 -0.1264 -0.1498  0.0447
  223MOL0     C30012   9.747   6.256  -2.295  0.5449  0.4367 -0.0801
  223MOL0     C30013   9.772   6.211  -2.436  0.6187 -0.4650 -0.1754
  223MOL0     C30014   9.676   6.298  -2.533  0.0366 -0.8366 -0.2706
  223MOL0    Cl30015   9.506   6.249  -2.506  0.0465  0.0893  0.6770
  223MOL0     C30016  10.032   5.990  -1.475  0.7421 -0.1480 -0.1837
  223MOL0     C30017  10.128   5.948  -1.377  0.6795  0.0809 -1.1222
  223MOL0     O30018  10.265   6.162  -1.182 -0.5839 -0.3223 -0.5854
  223MOL0     C30019  10.365   6.095  -0.934  0.7106  1.1952 -0.4912
  223MOL0     C30020  10.422   6.063  -0.813  0.7559 -0.2479  0.0570
  223MOL0     N30021  10.285   5.439  -0.371 -0.5042 -0.0886  0.0325
  223MOL0     N30022  10.163   5.445  -0.338 -0.1651 -0.4178 -0.2125
  223MOL0     C30023   9.370   5.520   0.604 -0.8666  0.4374 -0.1962
  223MOL0     C30024   9.317   5.531   0.737 -0.1355  0.6021  0.0207
  223MOL0     C30025   8.989   5.574   1.044 -0.4941  0.7106 -0.4687
  223MOL0     C30026   9.036   5.639   1.160  0.3281 -0.3837  1.1718
  223MOL0     C30027   8.944   5.656   1.262 -0.3646 -0.1604  0.8900
  223MOL0     C30028   8.814   5.606   1.272 -0.0544  0.2255  0.3727
  223MOL0     O30029   8.736   5.624   1.380  0.5180 -1.0465  0.2051
  223MOL0     C30030   8.613   5.700   1.357  0.6253  0.5529  0.2226
  223MOL0     C30031   8.507   5.714   1.465  0.5570  0.7021 -0.1679
  223MOL0     C30032   8.398   5.810   1.416 -0.1317  0.4551 -0.4312
  223MOL0     C30033   8.280   5.783   1.507  0.1588  0.2162 -0.3898
  223MOL0     C30034   8.176   5.893   1.506  0.1217 -0.0687 -0.3631
  223MOL0     C30035   8.089   5.969   1.516  0.2789  0.2355 -0.4243
  223MOL0     C30036   8.767   5.537   1.157 -0.3561 -0.7029 -0.0609
  223MOL0     C30037   8.860   5.522   1.051  0.9893  0.3589  0.3161
  223MOL0     H30038   9.133   5.805   0.693  0.5658 -0.6698  0.7825
  223MOL0     H30039   9.224   5.788   0.462  0.7101 -0.2682  0.4584
  223MOL0     H30040   9.233   5.640   0.279  0.5452  1.2388  1.3824
  223MOL0     H30041   9.350   5.764   0.267  1.8386  0.1124 -0.3258
  223MOL0     H30042   9.352   5.492   0.103  1.8139 -0.0614 -1.8072
  223MOL0     H30043   9.330   5.653   0.046 -0.5275 -0.0546 -0.5421
  223MOL0     H30044   9.591   5.687   0.123 -1.4990  1.1357  0.3827
  223MOL0     H30045   9.582   5.512   0.162  3.6843  1.2069 -0.4560
  223MOL0     H30046   9.537   5.462  -0.071 -4.5352  1.8684  1.9730
  223MOL0     H30047   9.524   5.635  -0.111 -0.6835  0.5771  0.5086
  223MOL0     H30048   9.762   5.645  -0.015 -1.4039  1.1576  0.7378
  223MOL0     H30049   9.773   5.468  -0.032  1.6207 -0.8227 -2.7151
  223MOL0     H30050   9.715   5.522  -0.297  2.7778 -0.5559 -1.1448
  223MOL0     H30051   9.741   5.687  -0.255 -0.6551 -1.4038 -2.4317
  223MOL0     H30052   9.956   5.600  -0.150 -1.6210  2.2014  0.3266
  223MOL0     H30053   9.923   5.457  -0.246  0.3042 -0.2273  0.0982
  223MOL0     H30054   9.967   5.712  -0.376 -1.5450  0.0493 -0.4232
  223MOL0     H30055   9.900   5.567  -0.448  0.2121  1.3163 -1.1368
  223MOL0     H30056  10.162   5.696  -0.543  2.3368  1.7304  2.2451
  223MOL0     H30057  10.510   5.480  -0.532 -2.4774 -1.1448  4.9140
  223MOL0     H30058  10.406   5.525  -0.662  0.5626  1.5010 -0.4501
  223MOL0     H30059  10.505   5.726  -0.452 -1.3720 -2.5727  0.5533
  223MOL0     H30060  10.405   5.764  -0.595  0.4814  2.9002  2.5858
  223MOL0     H30061  10.569   5.699  -0.752  1.3975 -0.5477 -0.5456
  223MOL0     H30062  10.686   5.654  -0.635  0.0478  0.4951 -0.9999
  223MOL0     H30063  10.753   5.882  -0.701  0.5896 -0.1649 -0.1430
  223MOL0     H30064  10.694   5.875  -0.537 -2.2729 -0.8457  0.0468
  223MOL0     H30065  10.660   5.840  -0.901  1.2078  0.5905 -3.2983
  223MOL0     H30066  10.636   5.969  -1.224 -2.2613 -1.0558 -2.9247
  223MOL0     H30067  10.706   5.845  -1.107  0.2644  2.8827 -0.0673
  223MOL0     H30068  10.554   5.815  -1.191  0.8717 -0.7536 -0.8810
  223MOL0     H30069  10.408   6.101  -1.493  1.0147  0.0565  1.7072
  223MOL0     H30070  10.233   6.176  -1.664  1.7509  0.4005  1.4805
  223MOL0     H30071   9.892   5.956  -1.757  2.5134  0.5949 -0.2708
  223MOL0     H30072   9.811   6.061  -1.639 -0.2104  1.9403 -1.0195
  223MOL0     H30073   9.707   6.094  -1.810  1.4764 -1.4967  1.6638
  223MOL0     H30074   9.815   6.241  -1.799  2.5111  0.2315 -0.4888
  223MOL0     H30075   9.857   6.012  -1.979 -1.3397  0.8753  2.3390
  223MOL0     H30076   9.968   6.154  -1.962 -0.5915  2.2279  0.4878
  223MOL0     H30077   9.679   6.186  -2.030 -0.1518  3.4570  2.4957
  223MOL0     H30078   9.815   6.305  -2.048 -2.8724 -0.2131  0.4791
  223MOL0     H30079   9.764   6.057  -2.206 -0.3053  0.0407 -1.6234
  223MOL0     H30080   9.917   6.147  -2.219 -0.6475 -1.5209 -2.4312
  223MOL0     H30081   9.641   6.238  -2.280  0.9547 -2.6519 -0.2728
  223MOL0     H30082   9.779   6.360  -2.280 -4.1707  1.9377  1.3591
  223MOL0     H30083   9.745   6.108  -2.461  0.6496 -0.4740 -0.1687
  223MOL0     H30084   9.874   6.228  -2.471  0.2525  2.1000 -0.1732
  223MOL0     H30085   9.702   6.270  -2.636  1.7381  1.5655 -0.5710
  223MOL0     H30086   9.683   6.406  -2.517  0.8801 -0.7050 -1.4035
  223MOL0     H30087   9.928   5.958  -1.464  0.5497  0.4007 -0.3732
  223MOL0     H30088  10.100   5.879  -1.299  0.1959  2.3074  0.7857
  223MOL0     H30089  10.282   6.164  -0.927 -4.4089 -3.9670 -2.2371
  223MOL0     H30090  10.368   6.085  -0.722 -2.6120  0.3837 -1.9134
  223MOL0     H30091   9.418   5.424   0.589  2.2248  1.1764  3.3317
  223MOL0     H30092   9.341   5.446   0.799  0.0020  0.5735 -0.0710
  223MOL0     H30093   9.132   5.689   1.166 -0.4292  1.3662 -0.2989
  223MOL0     H30094   8.981   5.713   1.346 -2.4221  2.5204  0.0950
  223MOL0     H30095   8.636   5.800   1.319  0.3182 -0.4495 -2.8784
  223MOL0     H30096   8.562   5.657   1.270  0.9121 -0.1657  0.4066
  223MOL0     H30097   8.553   5.747   1.558  0.0119  3.0056 -0.6496
  223MOL0     H30098   8.454   5.622   1.493  0.5291  0.9471  0.5967
  223MOL0     H30099   8.368   5.806   1.311 -0.6482  1.3312 -0.3259
  223MOL0     H30100   8.423   5.916   1.428  0.4410  0.4410 -1.3954
  223MOL0     H30101   8.320   5.785   1.608  0.6748  1.4278 -0.6084
  223MOL0     H30102   8.223   5.690   1.503  0.5515 -0.0864  0.6961
  223MOL0     H30103   8.013   6.043   1.499  0.5208  0.9703  1.4543
  223MOL0     H30104   8.666   5.496   1.155 -0.4874 -0.3772 -1.9741
  223MOL0     H30105   8.816   5.473   0.964 -0.9447  1.7168  0.4746
  224MOL0     O30106   4.108   7.826   8.889  0.0029 -0.5865 -0.0495
  224MOL0     C30107   4.009   7.847   8.817 -0.0332  0.9142  0.0070
  224MOL0     O30108   3.996   7.942   8.720  0.0556  0.4768 -0.3853
  224MOL0     C30109   4.099   8.025   8.682 -0.2496 -0.0136  0.3307
  224MOL0     C30110   4.220   7.971   8.637  0.2929  0.4551  0.0840
  224MOL0     C30111   4.325   8.048   8.593 -0.0785 -0.2741  0.0730
  224MOL0     C30112   4.322   8.194   8.595 -0.3379  0.8366  0.2771
  224MOL0     O30113   4.415   8.276   8.539  0.0116  0.3173  0.3242
  224MOL0     C30114   4.552   8.250   8.553  0.3975 -0.5113 -0.3581
  224MOL0     C30115   4.592   8.210   8.417 -1.1891 -0.4192  0.7316
  224MOL0     C30116   4.737   8.171   8.410  0.6334 -0.1066 -0.2866
  224MOL0     C30117   4.796   8.125   8.283 -0.3081 -0.1607  0.4656
  224MOL0     C30118   4.946   8.095   8.282 -0.9065  1.3597 -1.0453
  224MOL0     C30119   4.987   7.987   8.394  0.3304 -0.5744 -0.1848
  224MOL0     C30120   4.902   7.857   8.368 -0.7585  1.0761  0.2571
  224MOL0     C30121   4.966   7.738   8.447  0.0044 -0.2378 -0.2461
  224MOL0     N30122   4.957   7.740   8.596 -0.5628 -0.0771  0.4556
  224MOL0     C30123   5.030   7.669   8.686  1.0042 -0.3246 -0.3229
  224MOL0     C30124   4.969   7.695   8.805 -1.4639  0.0536 -0.1016
  224MOL0     C30125   4.998   7.626   8.932 -0.1435  0.7756  0.2589
  224MOL0     C30126   5.095   7.707   9.014  0.0135  0.5228  0.2925
  224MOL0     C30127   5.127   7.646   9.149  0.5800  0.2664  0.3800
  224MOL0     C30128   5.217   7.519   9.150  0.4225  0.0747 -0.5316
  224MOL0     O30129   5.158   7.410   9.080  0.5290 -0.3289  0.1509
  224MOL0     C30130   5.042   7.347   9.131  0.3418  0.4783  0.0840
  224MOL0     C30131   4.944   7.316   9.040 -0.4780 -0.1517 -0.5160
  224MOL0     C30132   4.815   7.285   9.085  0.3473 -1.1282 -1.0629
  224MOL0     C30133   4.708   7.257   8.976 -0.8722 -0.1448 -0.3171
  224MOL0     C30134   4.794   7.248   9.220 -0.2603 -0.3677 -0.4318
  224MOL0     C30135   4.670   7.190   9.273  0.2142  0.0773 -0.2914
  224MOL0     O30136   4.577   7.135   9.186 -0.7144  0.8278 -0.0953
  224MOL0     C30137   4.452   7.080   9.214  1.0067  0.4622 -0.5556
  224MOL0     C30138   4.401   6.980   9.133 -0.3517  0.0791 -0.0489
  224MOL0     C30139   4.281   6.911   9.163  0.1195  0.0001 -0.0857
  224MOL0     C30140   4.196   6.957   9.261 -1.0017  0.9125 -0.0619
  224MOL0     O30141   4.070   6.895   9.264 -0.7062  0.2476 -0.1682
  224MOL0     C30142   4.002   6.886   9.391  0.7791 -0.2740 -0.6658
  224MOL0     C30143   4.076   6.783   9.471  0.3326  0.2154  0.0918
  224MOL0     C30144   3.969   6.699   9.541  0.2684  0.1250 -0.5904
  224MOL0     C30145   4.012   6.629   9.670  0.8806  0.6683 -1.0336
  224MOL0     C30146   3.902   6.544   9.735  0.0691  0.1825  0.5602
  224MOL0     C30147   3.786   6.618   9.784 -0.6065  0.5630  0.3547
  224MOL0     C30148   3.668   6.535   9.827 -0.4514  0.5350  0.1081
  224MOL0     C30149   3.640   6.540   9.982  0.6002 -0.5262 -0.8036
  224MOL0    Cl30150   3.501   6.442  10.026 -0.7365  0.0597 -0.0216
  224MOL0     C30151   4.240   7.056   9.347  0.2569  0.0960 -0.4640
  224MOL0     C30152   4.368   7.118   9.328 -0.5706 -0.0736  0.5388
  224MOL0     O30153   4.650   7.213   9.399 -0.4224 -0.0169  0.6837
  224MOL0     C30154   4.898   7.270   9.309 -0.5512  1.3295  0.8346
  224MOL0     C30155   5.022   7.315   9.259  0.6457  0.3095  0.5814
  224MOL0     N30156   4.877   7.794   8.784 -0.0671 -0.1402 -0.2149
  224MOL0     N30157   4.872   7.823   8.658  0.1845 -0.7373  0.3075
  224MOL0     C30158   4.201   8.248   8.633 -0.0258  0.4718  0.5111
  224MOL0     C30159   4.095   8.165   8.681  0.6999 -0.1777 -0.2019
  224MOL0     C30160   3.889   7.768   8.847  0.3141 -0.3595  0.3573
  224MOL0     C30161   3.822   7.717   8.731 -0.8840  0.4798 -0.3706
  224MOL0     C30162   3.699   7.649   8.737 -0.7458  0.2982  0.5935
  224MOL0     C30163   3.651   7.616   8.862  0.5598  0.7770  1.2279
  224MOL0     O30164   3.545   7.534   8.884  0.0606 -0.1978 -0.1396
  224MOL0     C30165   3.475   7.455   8.783 -0.2206 -0.3569 -0.1987
  224MOL0     C30166   3.353   7.406   8.858 -0.6283 -0.3091 -0.0868
  224MOL0     C30167   3.237   7.367   8.766 -0.3174  0.2431  0.1009
  224MOL0     C30168   3.120   7.318   8.852 -0.0753  0.8003 -0.1026
  224MOL0     C30169   3.040   7.430   8.903 -0.0666  0.7829 -0.3051
  224MOL0     C30170   2.974   7.523   8.945  0.3934 -0.0941  0.6413
  224MOL0     C30171   3.709   7.675   8.976 -0.3213 -1.0020 -0.0194
  224MOL0     C30172   3.833   7.746   8.971 -0.3926 -0.6498 -0.2054
  224MOL0     H30173   4.218   7.867   8.605  1.2969 -0.0829  1.7192
  224MOL0     H30174   4.409   7.996   8.547  0.1180  0.3300 -0.2561
  224MOL0     H30175   4.607   8.343   8.571  1.0366 -0.8563 -0.4881
  224MOL0     H30176   4.577   8.171   8.624 -1.3138 -1.0163 -0.2867
  224MOL0     H30177   4.532   8.122   8.393 -2.7512  0.4478  1.2508
  224MOL0     H30178   4.582   8.289   8.342  2.2207 -1.4480 -0.9920
  224MOL0     H30179   4.801   8.253   8.444 -0.0375  1.2417 -2.1533
  224MOL0     H30180   4.755   8.092   8.484  1.1336  1.5077  1.3999
  224MOL0     H30181   4.733   8.039   8.259  2.3988 -2.9591  2.5712
  224MOL0     H30182   4.780   8.199   8.204  0.2571 -0.1770  0.3295
  224MOL0     H30183   4.994   8.070   8.188  0.0823  1.9114 -0.7014
  224MOL0     H30184   5.006   8.183   8.310  2.7595 -0.7095 -1.8137
  224MOL0     H30185   5.094   7.969   8.379 -0.1871 -2.5594 -1.8220
  224MOL0     H30186   4.967   8.032   8.492 -2.6297 -0.7239 -0.6366
  224MOL0     H30187   4.795   7.872   8.387 -0.2561  3.1895  1.8414
  224MOL0     H30188   4.914   7.833   8.262 -3.1131 -1.6394  0.4756
  224MOL0     H30189   5.074   7.741   8.434  0.5150 -2.0939  2.6715
  224MOL0     H30190   4.928   7.645   8.405 -0.0345  1.4295 -4.4239
  224MOL0     H30191   5.100   7.589   8.663  1.3104 -0.1803  0.0936
  224MOL0     H30192   4.905   7.607   8.986 -0.8562 -0.5674 -1.3360
  224MOL0     H30193   5.048   7.532   8.907 -1.7174  0.2133 -0.8643
  224MOL0     H30194   5.054   7.809   9.015 -1.7958 -0.1684  0.9746
  224MOL0     H30195   5.191   7.704   8.963  0.0601 -0.2858  0.4182
  224MOL0     H30196   5.030   7.621   9.193 -0.5019  0.4193 -1.7743
  224MOL0     H30197   5.183   7.722   9.204  0.6878  0.9283 -0.6137
  224MOL0     H30198   5.247   7.485   9.249  1.7637 -1.1032 -1.3116
  224MOL0     H30199   5.305   7.547   9.092 -0.5889 -0.6871 -2.5340
  224MOL0     H30200   4.978   7.307   8.938 -0.6557 -1.7393 -0.4574
  224MOL0     H30201   4.741   7.278   8.874  1.4908  1.7639  0.7448
  224MOL0     H30202   4.702   7.147   8.974  0.2409 -0.3022  1.9737
  224MOL0     H30203   4.616   7.312   8.993  0.6369  2.4378 -0.0625
  224MOL0     H30204   4.460   6.935   9.054  1.0215  0.4782  0.7100
  224MOL0     H30205   4.252   6.822   9.108 -0.7031 -0.7253  1.4503
  224MOL0     H30206   3.986   6.977   9.448 -0.2037 -2.0771  2.1360
  224MOL0     H30207   3.904   6.850   9.358 -0.7567  2.1834  0.9227
  224MOL0     H30208   4.132   6.710   9.412  2.5559 -0.5753  2.9446
  224MOL0     H30209   4.147   6.819   9.545 -0.3297 -0.4211  1.0735
  224MOL0     H30210   3.941   6.622   9.469  0.6586 -1.4686  0.9110
  224MOL0     H30211   3.881   6.761   9.562  0.4984 -0.1162  1.1942
  224MOL0     H30212   4.094   6.561   9.643  0.6514 -0.0512  0.0327
  224MOL0     H30213   4.051   6.692   9.750  0.5391  1.5436 -1.5418
  224MOL0     H30214   3.958   6.492   9.813  1.9913  2.4539  0.8099
  224MOL0     H30215   3.876   6.471   9.658  2.7062 -0.3701  0.0890
  224MOL0     H30216   3.818   6.690   9.861  1.8540  1.2856 -1.2212
  224MOL0     H30217   3.748   6.676   9.699 -0.7874  0.4472  0.3562
  224MOL0     H30218   3.688   6.433   9.794 -1.0535  0.9084 -1.4992
  224MOL0     H30219   3.583   6.578   9.772 -1.2144  1.1591  1.7127
  224MOL0     H30220   3.618   6.641  10.018  0.0219 -1.5729  2.0660
  224MOL0     H30221   3.727   6.508  10.039  0.4750 -1.3451 -1.0549
  224MOL0     H30222   4.175   7.091   9.427  2.2708 -3.4540  3.1272
  224MOL0     H30223   4.396   7.197   9.398 -1.2328 -0.0570  0.7881
  224MOL0     H30224   4.893   7.253   9.416  3.0817  0.0156  0.9522
  224MOL0     H30225   5.096   7.335   9.335 -0.0851  2.4215  0.8049
  224MOL0     H30226   4.169   8.350   8.613 -1.8934  0.0701  1.1982
  224MOL0     H30227   3.998   8.210   8.702  0.7379  0.2280 -0.8687
  224MOL0     H30228   3.874   7.736   8.638  0.6752  0.7086  0.5130
  224MOL0     H30229   3.637   7.617   8.654  0.3904  1.3954 -0.7302
  224MOL0     H30230   3.455   7.534   8.710  2.3622 -0.8331 -1.5086
  224MOL0     H30231   3.529   7.374   8.735 -0.7523 -0.2745 -0.9590
  224MOL0     H30232   3.318   7.484   8.927 -0.9319 -2.1268  1.9206
  224MOL0     H30233   3.385   7.320   8.917  1.8221 -0.3973 -1.4167
  224MOL0     H30234   3.267   7.291   8.693  0.8321  0.5066  0.2758
  224MOL0     H30235   3.206   7.457   8.712 -1.5466 -0.9179 -1.2236
  224MOL0     H30236   3.141   7.251   8.935 -1.4318  0.2853 -0.1506
  224MOL0     H30237   3.054   7.271   8.778  1.3664  2.0645 -2.3292
  224MOL0     H30238   2.905   7.605   8.950  2.3789  1.9663 -2.3523
  224MOL0     H30239   3.658   7.666   9.071 -0.8100 -0.1731 -0.1867
  224MOL0     H30240   3.876   7.792   9.059 -2.6640  4.5143 -1.4096
  225MOL0     O30241   7.379   3.081   1.292  0.0147 -0.3647 -0.5996
  225MOL0     C30242   7.425   3.050   1.399 -0.1108 -0.1261 -0.6943
  225MOL0     O30243   7.450   3.128   1.500 -0.1350 -0.1595 -0.0142
  225MOL0     C30244   7.419   3.267   1.480  0.2742 -0.8019 -0.3879
  225MOL0     C30245   7.304   3.326   1.537 -1.2716  0.3275  0.1576
  225MOL0     C30246   7.301   3.469   1.530  0.0801 -0.4972  0.4392
  225MOL0     C30247   7.395   3.547   1.459  0.0352  0.3308  0.1651
  225MOL0     O30248   7.379   3.685   1.451 -0.1779  0.8693  0.8029
  225MOL0     C30249   7.450   3.758   1.551 -0.9796 -0.4990  0.2746
  225MOL0     C30250   7.496   3.903   1.526  0.6642  0.0478 -0.1351
  225MOL0     C30251   7.596   3.953   1.633 -0.0891  0.3238  0.3913
  225MOL0     C30252   7.633   4.109   1.609 -1.1627  0.0074 -0.2657
  225MOL0     C30253   7.533   4.205   1.662  1.3278  0.2016  0.6354
  225MOL0     C30254   7.484   4.191   1.802 -1.2688  0.8820 -0.6967
  225MOL0     C30255   7.600   4.169   1.896  0.0051  0.0461 -0.6276
  225MOL0     C30256   7.553   4.212   2.039  0.6613  0.3823  0.3532
  225MOL0     N30257   7.662   4.206   2.136  0.0610 -0.0765 -0.4326
  225MOL0     C30258   7.655   4.226   2.274 -0.2632 -1.0582 -0.0749
  225MOL0     C30259   7.787   4.234   2.312  0.2693  0.5686  0.1394
  225MOL0     C30260   7.834   4.257   2.446 -0.6202 -0.6729  0.3474
  225MOL0     C30261   7.947   4.368   2.448 -0.6731  0.0461 -0.5095
  225MOL0     C30262   7.976   4.419   2.587  0.5145 -0.0710  0.3336
  225MOL0     C30263   8.058   4.331   2.673 -0.1934  0.2253  0.2507
  225MOL0     O30264   8.048   4.387   2.811 -0.2100  0.0178 -0.8314
  225MOL0     C30265   8.106   4.502   2.843 -0.0509 -0.5266  0.7967
  225MOL0     C30266   8.242   4.528   2.802  0.3673  0.3888  0.7001
  225MOL0     C30267   8.315   4.644   2.834  0.0593 -0.6857  0.4757
  225MOL0     C30268   8.458   4.674   2.794 -0.1556  0.3798 -0.7279
  225MOL0     C30269   8.247   4.741   2.925 -0.2436 -0.0405  0.2949
  225MOL0     C30270   8.293   4.877   2.953 -0.0714 -1.2575 -0.4819
  225MOL0     O30271   8.378   4.943   2.860 -0.0427  0.4048  0.4537
  225MOL0     C30272   8.437   5.063   2.892 -0.0628  0.1774 -0.4601
  225MOL0     C30273   8.580   5.075   2.888  0.4159  0.0148  0.2463
  225MOL0     C30274   8.639   5.201   2.919 -0.4163  0.1725  0.4812
  225MOL0     C30275   8.554   5.304   2.959  0.7970  0.1335 -0.5843
  225MOL0     O30276   8.627   5.409   3.004  0.6316  0.6634 -1.2227
  225MOL0     C30277   8.580   5.544   3.024  0.3276  0.0310 -0.7853
  225MOL0     C30278   8.595   5.634   2.905 -0.6627 -0.3781  0.5884
  225MOL0     C30279   8.736   5.633   2.847 -0.0656 -0.6007 -0.0211
  225MOL0     C30280   8.755   5.701   2.708  1.1760  0.6964 -0.1244
  225MOL0     C30281   8.893   5.716   2.651 -0.0773 -0.3407  0.5257
  225MOL0     C30282   8.993   5.608   2.661  0.1295 -0.1577 -0.1106
  225MOL0     C30283   9.082   5.584   2.789  0.1110  0.0843  0.2893
  225MOL0     C30284   9.167   5.712   2.830 -0.1486  0.3597  0.2060
  225MOL0    Cl30285   9.150   5.759   3.007  0.4621 -0.2755 -0.4973
  225MOL0     C30286   8.413   5.290   2.958 -0.5668 -0.8843  0.5782
  225MOL0     C30287   8.353   5.167   2.927  0.7405  1.0065  0.3638
  225MOL0     O30288   8.255   4.924   3.061 -0.4060  0.1050  0.4388
  225MOL0     C30289   8.120   4.705   2.977 -0.2492  0.1006 -0.1537
  225MOL0     C30290   8.051   4.582   2.940 -0.3083 -0.4252 -0.0075
  225MOL0     N30291   7.871   4.210   2.207  0.9426  0.8812  0.4244
  225MOL0     N30292   7.799   4.198   2.097  0.6741 -0.5750 -0.7265
  225MOL0     C30293   7.499   3.482   1.390  0.0197  0.3010  0.3655
  225MOL0     C30294   7.504   3.339   1.392  0.1069  1.0063  0.5116
  225MOL0     C30295   7.465   2.908   1.415  0.7778  0.2859 -0.4231
  225MOL0     C30296   7.559   2.868   1.516  0.1408  0.6531  0.2759
  225MOL0     C30297   7.608   2.743   1.522 -0.2748  1.0480  1.2944
  225MOL0     C30298   7.580   2.644   1.434 -0.0892  0.1548 -0.0080
  225MOL0     O30299   7.629   2.521   1.454 -0.3234  0.0149 -0.2395
  225MOL0     C30300   7.566   2.396   1.397  0.3167 -0.6343  0.0373
  225MOL0     C30301   7.643   2.276   1.458 -0.4791 -0.4194  0.0617
  225MOL0     C30302   7.614   2.147   1.397  0.0483  1.2825 -0.7030
  225MOL0     C30303   7.679   2.122   1.266 -0.2588 -0.2721  0.8403
  225MOL0     C30304   7.826   2.139   1.256  0.0851 -0.2433  0.5647
  225MOL0     C30305   7.949   2.163   1.241  1.5119  0.2195  0.4317
  225MOL0     C30306   7.493   2.679   1.334  0.4862 -0.0348 -0.2356
  225MOL0     C30307   7.439   2.801   1.318 -0.5631 -1.2037 -0.1577
  225MOL0     H30308   7.236   3.265   1.596 -1.8976 -0.0531 -0.9243
  225MOL0     H30309   7.237   3.524   1.598  0.4569 -0.0259  0.4151
  225MOL0     H30310   7.387   3.755   1.641 -3.6824  0.2860 -1.4955
  225MOL0     H30311   7.543   3.704   1.575 -1.7425 -2.2615 -0.5614
  225MOL0     H30312   7.555   3.898   1.434  0.0100 -1.8754 -0.5041
  225MOL0     H30313   7.404   3.962   1.532 -0.9051 -2.2692 -0.0205
  225MOL0     H30314   7.552   3.929   1.730 -1.9419 -0.9291 -0.6846
  225MOL0     H30315   7.685   3.891   1.617 -1.7933 -2.3371  0.5593
  225MOL0     H30316   7.723   4.147   1.658 -0.8064 -0.2552 -0.7050
  225MOL0     H30317   7.655   4.123   1.503  2.9795  0.6541  0.4991
  225MOL0     H30318   7.565   4.309   1.648 -0.4782  0.4472 -2.8453
  225MOL0     H30319   7.436   4.214   1.612  2.2709  1.1725 -1.1178
  225MOL0     H30320   7.423   4.277   1.831 -1.0341  0.6658  0.4976
  225MOL0     H30321   7.422   4.101   1.809  1.7496 -1.3387 -0.5139
  225MOL0     H30322   7.626   4.062   1.896  2.8911  0.6521  0.4090
  225MOL0     H30323   7.692   4.223   1.873  1.6694 -3.3356 -2.6988
  225MOL0     H30324   7.475   4.144   2.074  1.3723 -0.5603  0.1562
  225MOL0     H30325   7.514   4.313   2.026  2.4900  0.8387 -2.5539
  225MOL0     H30326   7.568   4.243   2.337 -0.4653 -0.3904 -0.5238
  225MOL0     H30327   7.749   4.279   2.512 -2.5200  0.2284 -2.2603
  225MOL0     H30328   7.878   4.161   2.474  1.2920 -0.1851 -0.8372
  225MOL0     H30329   7.901   4.445   2.386 -0.6023 -0.5641 -1.3342
  225MOL0     H30330   8.042   4.343   2.400  1.3072  1.2341  2.5130
  225MOL0     H30331   7.882   4.437   2.640  0.4976  4.0488 -0.7375
  225MOL0     H30332   8.007   4.524   2.580  1.0969 -0.2807 -0.3851
  225MOL0     H30333   8.163   4.324   2.642  0.0896 -1.1116  1.3999
  225MOL0     H30334   8.016   4.230   2.673 -0.1454  0.1937  1.7035
  225MOL0     H30335   8.282   4.459   2.729  0.9584  1.1170  0.3095
  225MOL0     H30336   8.512   4.579   2.786 -1.8983 -0.7656  0.3289
  225MOL0     H30337   8.451   4.728   2.699  1.7896  0.5831 -0.8061
  225MOL0     H30338   8.510   4.730   2.872 -0.6043 -2.5417  1.8520
  225MOL0     H30339   8.632   4.989   2.848  0.1210  1.1264 -2.7351
  225MOL0     H30340   8.747   5.212   2.916 -0.4337  0.2257 -0.7386
  225MOL0     H30341   8.478   5.547   3.063  0.9926 -0.9894  1.1562
  225MOL0     H30342   8.654   5.586   3.093  2.8045 -1.9459 -2.0516
  225MOL0     H30343   8.513   5.622   2.833  0.6001 -1.5381 -0.7313
  225MOL0     H30344   8.578   5.735   2.943  1.5552  0.3454 -0.1675
  225MOL0     H30345   8.762   5.528   2.830 -0.9612 -0.7273 -0.7017
  225MOL0     H30346   8.810   5.672   2.918  0.2296 -0.2544 -0.5166
  225MOL0     H30347   8.681   5.652   2.644 -1.2269  1.0503  2.2211
  225MOL0     H30348   8.709   5.800   2.714 -0.7579 -0.1589 -0.2102
  225MOL0     H30349   8.938   5.802   2.702 -1.4256 -0.4578  1.9757
  225MOL0     H30350   8.888   5.748   2.546  0.3986 -2.6999 -0.2666
  225MOL0     H30351   8.945   5.514   2.631 -0.8621  0.2567  0.1574
  225MOL0     H30352   9.056   5.635   2.575  2.6261  0.1342  1.7082
  225MOL0     H30353   9.155   5.503   2.778  3.8203  3.3767 -1.4312
  225MOL0     H30354   9.015   5.570   2.875  2.7521  1.6182  2.7622
  225MOL0     H30355   9.127   5.799   2.778  2.4536  0.3302 -2.1068
  225MOL0     H30356   9.269   5.708   2.790 -0.0577  4.8742 -0.5442
  225MOL0     H30357   8.354   5.379   2.979 -2.0885 -2.1521  1.9788
  225MOL0     H30358   8.246   5.155   2.930  0.6517  1.7256  0.2859
  225MOL0     H30359   8.063   4.754   3.055 -0.7571  2.5673 -1.9561
  225MOL0     H30360   7.960   4.565   2.997 -1.4866  1.3413 -1.2429
  225MOL0     H30361   7.577   3.545   1.348  0.6834 -2.0152 -2.1971
  225MOL0     H30362   7.583   3.270   1.361 -1.1360 -1.9799  3.3571
  225MOL0     H30363   7.587   2.938   1.593  0.5389 -1.2611  1.9539
  225MOL0     H30364   7.680   2.715   1.598 -0.5253  0.7867  1.4398
  225MOL0     H30365   7.464   2.398   1.436  0.4354  0.4428  0.3348
  225MOL0     H30366   7.570   2.388   1.288  1.2481 -0.8109  0.0728
  225MOL0     H30367   7.639   2.257   1.566 -0.3338  0.8769  0.3171
  225MOL0     H30368   7.748   2.304   1.449 -0.9271  2.3128  1.9594
  225MOL0     H30369   7.507   2.132   1.380 -0.0766  1.4513 -0.1064
  225MOL0     H30370   7.646   2.076   1.474 -1.0724  2.1393  0.6059
  225MOL0     H30371   7.634   2.183   1.187 -0.0786 -3.2292 -1.7703
  225MOL0     H30372   7.646   2.022   1.238 -1.0138  0.1815  0.0439
  225MOL0     H30373   8.054   2.185   1.236  1.6992 -0.8946 -1.0209
  225MOL0     H30374   7.466   2.607   1.258 -1.6344  0.9450 -0.4947
  225MOL0     H30375   7.375   2.814   1.231 -3.7546  1.0072  2.2534
  226MOL0     O30376   6.655   1.456   7.989  0.8696 -0.2544 -0.6676
  226MOL0     C30377   6.689   1.343   7.951 -0.1870  0.2053 -0.2342
  226MOL0     O30378   6.611   1.228   7.971 -0.0939  0.0996  0.3394
  226MOL0     C30379   6.493   1.231   8.046  0.3124 -0.5412 -0.0549
  226MOL0     C30380   6.457   1.307   8.158 -0.7095 -0.1545 -1.2062
  226MOL0     C30381   6.338   1.282   8.222 -0.0498  0.3501  0.1159
  226MOL0     C30382   6.243   1.182   8.178 -0.1428  0.0481  0.1209
  226MOL0     O30383   6.127   1.165   8.244  0.4081 -0.6379 -0.2999
  226MOL0     C30384   6.039   1.058   8.206  0.5998  0.0444  0.3395
  226MOL0     C30385   5.892   1.106   8.240 -0.3824  0.0370  0.4004
  226MOL0     C30386   5.846   1.232   8.163  0.3702  0.2705  0.3628
  226MOL0     C30387   5.699   1.256   8.210 -0.9787  0.5215  0.2020
  226MOL0     C30388   5.629   1.366   8.126 -0.0318  0.1679 -0.8305
  226MOL0     C30389   5.648   1.505   8.175 -0.0147  0.4185  0.7655
  226MOL0     C30390   5.667   1.601   8.060  0.6240  0.0141 -0.5009
  226MOL0     C30391   5.702   1.747   8.103  0.0709 -0.1739  0.5906
  226MOL0     N30392   5.581   1.810   8.162 -0.0181  0.0650 -0.2755
  226MOL0     C30393   5.557   1.854   8.286 -0.1164  0.6906 -0.0641
  226MOL0     C30394   5.448   1.937   8.267  0.3023 -0.3819 -0.4853
  226MOL0     C30395   5.398   2.030   8.373 -0.5390 -0.2410 -0.4143
  226MOL0     C30396   5.246   2.010   8.409 -0.6074  0.5072  0.4839
  226MOL0     C30397   5.140   2.047   8.303 -0.6249 -0.8536 -0.2122
  226MOL0     C30398   5.142   2.199   8.270 -0.2860  0.0661  0.0841
  226MOL0     O30399   5.045   2.248   8.185  0.1821 -0.7984  0.5600
  226MOL0     C30400   4.913   2.224   8.223  0.3556  0.3734 -0.2353
  226MOL0     C30401   4.837   2.339   8.267 -0.0540  0.9892 -0.1237
  226MOL0     C30402   4.704   2.326   8.312 -0.2182  1.0987  0.3436
  226MOL0     C30403   4.631   2.446   8.359 -0.0579 -1.5014 -0.2437
  226MOL0     C30404   4.644   2.199   8.292  0.7216  0.1716  0.0551
  226MOL0     C30405   4.505   2.155   8.337 -0.0123 -0.3193 -0.1368
  226MOL0     O30406   4.450   2.038   8.288 -0.6207 -0.2219 -0.4139
  226MOL0     C30407   4.325   2.010   8.333 -0.4755 -0.3371 -0.5330
  226MOL0     C30408   4.211   2.041   8.271 -0.0033 -0.7081 -0.3323
  226MOL0     C30409   4.094   1.992   8.321 -0.1015 -1.0813  0.4347
  226MOL0     C30410   4.078   1.908   8.435 -0.2118 -0.6749  0.1899
  226MOL0     O30411   3.955   1.857   8.471 -0.0829 -0.2635 -0.3638
  226MOL0     C30412   3.925   1.868   8.608 -0.0968  0.7222  0.4555
  226MOL0     C30413   3.780   1.897   8.642  0.6685  0.0849  0.0063
  226MOL0     C30414   3.726   1.870   8.784 -0.9298 -0.3062 -0.1980
  226MOL0     C30415   3.589   1.921   8.813 -0.8054  0.1478 -0.4251
  226MOL0     C30416   3.549   1.879   8.956  0.4015 -0.8642 -0.2233
  226MOL0     C30417   3.396   1.901   8.986 -0.3679 -0.5890 -0.3417
  226MOL0     C30418   3.350   1.846   9.121  0.1588  0.4016  0.0881
  226MOL0     C30419   3.212   1.781   9.097 -0.6140 -0.8126  1.0036
  226MOL0    Cl30420   3.143   1.707   9.240 -0.3164 -0.1862  0.1947
  226MOL0     C30421   4.205   1.869   8.489 -0.0901  0.7110  0.4020
  226MOL0     C30422   4.322   1.908   8.439  0.0622 -0.1831  0.3354
  226MOL0     O30423   4.463   2.223   8.434 -0.1673  0.3788 -0.0890
  226MOL0     C30424   4.715   2.091   8.234  0.8555 -0.9282 -0.5385
  226MOL0     C30425   4.846   2.102   8.193  0.0497 -1.0456  0.7183
  226MOL0     N30426   5.418   1.944   8.132 -0.3109 -0.1881 -0.3936
  226MOL0     N30427   5.491   1.857   8.070  0.3122 -0.5054 -1.0426
  226MOL0     C30428   6.281   1.103   8.069 -0.1363  0.0358 -0.6243
  226MOL0     C30429   6.405   1.128   8.011  0.7261 -1.2054 -0.1792
  226MOL0     C30430   6.813   1.335   7.861  0.5001 -0.6698  0.0269
  226MOL0     C30431   6.850   1.444   7.795 -0.3308  0.1014 -0.0534
  226MOL0     C30432   6.964   1.433   7.724 -0.5383 -0.1496  0.8739
  226MOL0     C30433   7.042   1.320   7.705 -0.1928  0.1281  0.5279
  226MOL0     O30434   7.161   1.327   7.637 -0.4451 -0.0980 -0.0980
  226MOL0     C30435   7.276   1.239   7.644  0.5639 -0.2245  0.3808
  226MOL0     C30436   7.253   1.134   7.532  0.1310 -0.6122 -0.1903
  226MOL0     C30437   7.394   1.079   7.480 -0.1647  0.4922  0.7422
  226MOL0     C30438   7.380   0.972   7.366  0.1642  0.3933 -0.5029
  226MOL0     C30439   7.357   1.022   7.236  0.1531 -0.2712  0.1295
  226MOL0     C30440   7.331   1.066   7.129  0.0999 -0.3743  0.2504
  226MOL0     C30441   6.980   1.202   7.754  0.0533  0.4044 -0.6594
  226MOL0     C30442   6.872   1.205   7.840  0.7581 -0.5821  0.1188
  226MOL0     H30443   6.526   1.380   8.199 -0.6573 -2.5849  3.8093
  226MOL0     H30444   6.316   1.338   8.312  2.0002 -2.4504  2.5650
  226MOL0     H30445   6.033   1.045   8.098 -2.1311 -2.8428  0.6650
  226MOL0     H30446   6.062   0.957   8.241 -0.1552  0.0986  1.0417
  226MOL0     H30447   5.818   1.028   8.220 -2.2093  1.1591  2.4150
  226MOL0     H30448   5.894   1.126   8.347 -1.2099  0.5993  0.3261
  226MOL0     H30449   5.909   1.318   8.189 -0.1169  0.1402  2.0500
  226MOL0     H30450   5.844   1.210   8.055 -0.2809  1.6642  0.0739
  226MOL0     H30451   5.629   1.172   8.204 -0.0434 -0.8497  4.5416
  226MOL0     H30452   5.703   1.289   8.314 -0.6213  0.5882  0.1685
  226MOL0     H30453   5.660   1.353   8.022 -1.2709  0.3500 -1.2398
  226MOL0     H30454   5.522   1.346   8.117 -0.2500  1.7259 -2.1474
  226MOL0     H30455   5.560   1.537   8.231  0.1780  1.7190  0.3603
  226MOL0     H30456   5.738   1.510   8.238  0.4283  1.1618  0.0818
  226MOL0     H30457   5.738   1.554   7.991 -0.3489 -4.2994  1.1457
  226MOL0     H30458   5.567   1.601   8.014 -1.1910  1.5545  3.0623
  226MOL0     H30459   5.736   1.804   8.016  0.2660 -1.8445 -0.4793
  226MOL0     H30460   5.788   1.739   8.170 -0.7634  0.3621  1.7498
  226MOL0     H30461   5.619   1.839   8.374 -2.5070 -4.0771  1.0990
  226MOL0     H30462   5.462   2.007   8.459 -0.0385 -4.1520 -1.6130
  226MOL0     H30463   5.406   2.136   8.347 -0.7501 -0.5041 -1.6193
  226MOL0     H30464   5.238   2.064   8.503  2.4913  2.2997 -0.1562
  226MOL0     H30465   5.230   1.904   8.434 -1.2596  0.4562 -0.1009
  226MOL0     H30466   5.047   2.026   8.358 -1.0854  0.8527 -0.2942
  226MOL0     H30467   5.153   1.983   8.215 -0.7801 -0.6321 -0.3974
  226MOL0     H30468   5.234   2.220   8.213  0.6901  1.8614  2.2055
  226MOL0     H30469   5.140   2.252   8.365 -3.0222  0.8086 -0.3258
  226MOL0     H30470   4.892   2.431   8.256  1.2850  0.1155 -1.0209
  226MOL0     H30471   4.694   2.511   8.421 -3.2130  1.6787 -0.0369
  226MOL0     H30472   4.612   2.502   8.267  2.6157 -1.5250 -0.9003
  226MOL0     H30473   4.533   2.434   8.406 -0.4752 -0.8889 -0.9314
  226MOL0     H30474   4.204   2.097   8.178 -1.5645 -2.7186 -1.5075
  226MOL0     H30475   4.009   2.029   8.264  2.4826  1.0129 -2.3585
  226MOL0     H30476   3.944   1.770   8.654 -0.8643  1.3533  2.2055
  226MOL0     H30477   3.993   1.938   8.657  2.1078 -1.4902  0.7628
  226MOL0     H30478   3.750   2.000   8.622  0.5027  0.5386  2.2743
  226MOL0     H30479   3.722   1.835   8.573 -0.1082 -1.2438  1.7656
  226MOL0     H30480   3.793   1.917   8.856  2.4791 -1.3566 -2.4620
  226MOL0     H30481   3.729   1.763   8.809  0.5182 -0.0741  0.6898
  226MOL0     H30482   3.602   2.029   8.805  1.3497  0.0232  0.7193
  226MOL0     H30483   3.519   1.888   8.735  2.5385  0.4635 -3.8327
  226MOL0     H30484   3.609   1.928   9.034 -0.9107 -1.1469  1.0050
  226MOL0     H30485   3.570   1.773   8.971  0.5969 -0.8320 -0.2646
  226MOL0     H30486   3.357   2.003   8.984 -1.2183 -0.8964 -2.6897
  226MOL0     H30487   3.338   1.870   8.899 -1.4111  1.2527 -0.3559
  226MOL0     H30488   3.334   1.932   9.187 -1.2168  0.5530 -0.4045
  226MOL0     H30489   3.418   1.769   9.158 -1.3753 -1.2008 -0.3195
  226MOL0     H30490   3.235   1.710   9.017  0.8334  0.1667  0.4882
  226MOL0     H30491   3.143   1.858   9.063  0.5286 -0.3582 -0.4159
  226MOL0     H30492   4.208   1.791   8.564 -1.1266 -0.4293 -0.6961
  226MOL0     H30493   4.412   1.865   8.483  0.9899 -0.4059 -1.6474
  226MOL0     H30494   4.662   1.998   8.219 -2.3580  0.5627  0.7422
  226MOL0     H30495   4.894   2.021   8.139  0.3449 -0.2878 -0.1643
  226MOL0     H30496   6.228   1.021   8.022  0.8643 -0.2038 -1.3695
  226MOL0     H30497   6.435   1.058   7.934  1.6865 -0.7923 -0.2004
  226MOL0     H30498   6.804   1.542   7.785 -3.0242 -1.3446 -4.8601
  226MOL0     H30499   6.987   1.516   7.658  0.0551 -2.2121 -1.6814
  226MOL0     H30500   7.371   1.290   7.623  0.0892  0.2035 -0.8034
  226MOL0     H30501   7.281   1.190   7.742 -2.3502  0.4064  0.9411
  226MOL0     H30502   7.207   1.183   7.447  0.9933 -0.3756 -0.5312
  226MOL0     H30503   7.200   1.046   7.570 -1.5495  0.6916  0.6227
  226MOL0     H30504   7.446   1.037   7.566  1.6503  0.7570 -0.1902
  226MOL0     H30505   7.462   1.159   7.449  1.3678 -0.0924  2.4404
  226MOL0     H30506   7.303   0.905   7.403  0.6319  0.0978 -0.0487
  226MOL0     H30507   7.480   0.927   7.365  0.6490  1.2487 -4.0054
  226MOL0     H30508   7.297   1.096   7.032 -4.1995  2.4332  2.2902
  226MOL0     H30509   7.027   1.104   7.752 -2.7281 -1.0053 -0.5410
  226MOL0     H30510   6.841   1.110   7.882 -2.3816  0.3048  0.0442
  227MOL0     O30511   5.436   2.645   4.211  0.2970 -0.2851 -0.1063
  227MOL0     C30512   5.319   2.607   4.236 -0.1866  0.3272  0.1944
  227MOL0     O30513   5.278   2.518   4.337 -0.1419  0.5412  0.3150
  227MOL0     C30514   5.362   2.439   4.404  0.5642  0.1065  0.0048
  227MOL0     C30515   5.333   2.398   4.532 -0.1672  0.2865 -0.9386
  227MOL0     C30516   5.418   2.310   4.602  0.0868 -0.3743 -0.4333
  227MOL0     C30517   5.541   2.265   4.548  0.8238  0.1693 -0.0059
  227MOL0     O30518   5.610   2.168   4.606  0.0676 -0.5178 -0.4768
  227MOL0     C30519   5.563   2.095   4.718 -0.0098  0.4338 -0.0582
  227MOL0     C30520   5.599   2.168   4.858 -0.1092  1.0207  0.8837
  227MOL0     C30521   5.746   2.205   4.860  0.2231  0.4239  1.0613
  227MOL0     C30522   5.803   2.227   5.003  0.8184 -0.1768  0.3547
  227MOL0     C30523   5.768   2.363   5.069 -0.2414  0.0344 -0.0813
  227MOL0     C30524   5.820   2.480   4.968 -0.1298 -0.0427 -0.6146
  227MOL0     C30525   5.772   2.611   5.034  1.0212  0.0806  0.3097
  227MOL0     C30526   5.809   2.628   5.187  0.3661  0.2312  1.0958
  227MOL0     N30527   5.779   2.771   5.217  0.2562  0.7362  0.9172
  227MOL0     C30528   5.875   2.866   5.213 -0.0007 -0.4739  0.2159
  227MOL0     C30529   5.799   2.979   5.246  0.5631  0.5977  0.3663
  227MOL0     C30530   5.842   3.117   5.243 -0.2470  0.2555 -0.5694
  227MOL0     C30531   5.937   3.135   5.358 -0.5090 -0.4436 -0.2115
  227MOL0     C30532   5.918   3.048   5.491  0.3110 -0.4081  0.4538
  227MOL0     C30533   6.015   3.103   5.591  0.3230  0.9951 -0.0431
  227MOL0     O30534   5.995   3.248   5.606  0.4736 -0.1119  0.0519
  227MOL0     C30535   5.885   3.287   5.688 -1.5313  0.0754 -0.0678
  227MOL0     C30536   5.870   3.422   5.681  0.0460  0.5768  0.3319
  227MOL0     C30537   5.770   3.491   5.751  0.4988 -0.7821  0.7386
  227MOL0     C30538   5.753   3.645   5.735  0.9005 -0.5308 -0.5198
  227MOL0     C30539   5.674   3.412   5.822 -0.7314  0.1182  0.2023
  227MOL0     C30540   5.550   3.470   5.879  0.5948 -0.5900  0.3911
  227MOL0     O30541   5.509   3.595   5.835  0.3044 -0.0197  0.3501
  227MOL0     C30542   5.388   3.655   5.873 -0.2947  0.5168 -0.1960
  227MOL0     C30543   5.344   3.752   5.783 -0.3640  0.1264  0.2063
  227MOL0     C30544   5.227   3.829   5.787  0.6305 -1.0173 -0.3272
  227MOL0     C30545   5.146   3.809   5.909  0.0312  0.1823 -0.5641
  227MOL0     O30546   5.032   3.888   5.926 -0.3832 -1.0286  0.5380
  227MOL0     C30547   5.010   4.007   5.843  0.3454  0.1442  0.2679
  227MOL0     C30548   4.868   4.054   5.868 -0.0093 -1.0512  0.6361
  227MOL0     C30549   4.871   4.129   6.006 -0.3871 -0.1792 -0.9802
  227MOL0     C30550   4.744   4.200   6.053 -0.4950 -0.4834 -0.2290
  227MOL0     C30551   4.630   4.111   6.080  0.0110 -0.0906 -0.1692
  227MOL0     C30552   4.510   4.197   6.114  0.3438 -0.9496  0.0117
  227MOL0     C30553   4.382   4.114   6.136  0.9235 -0.9933 -0.0752
  227MOL0     C30554   4.402   3.966   6.155 -0.2691  0.4632  0.3610
  227MOL0    Cl30555   4.244   3.901   6.223  0.0320  0.0498  0.0030
  227MOL0     C30556   5.189   3.721   6.007  0.6880  1.1142  0.4526
  227MOL0     C30557   5.300   3.632   5.983 -0.0160 -0.1794 -0.7386
  227MOL0     O30558   5.475   3.393   5.938  0.0776 -0.8370 -0.4679
  227MOL0     C30559   5.695   3.275   5.837 -0.3053  0.7607 -0.0483
  227MOL0     C30560   5.808   3.219   5.779  0.0666  0.7934 -0.8852
  227MOL0     N30561   5.671   2.942   5.281  0.1548 -0.6247  0.9855
  227MOL0     N30562   5.659   2.819   5.247 -0.0207 -0.1946 -0.1476
  227MOL0     C30563   5.573   2.311   4.413 -0.8221  0.4998  0.4289
  227MOL0     C30564   5.481   2.392   4.342  0.3592 -0.1428 -0.4067
  227MOL0     C30565   5.197   2.684   4.179 -0.6176  0.2023 -0.6487
  227MOL0     C30566   5.068   2.629   4.163  0.6161 -0.4786 -0.7148
  227MOL0     C30567   4.965   2.708   4.108  0.4708  0.2080  0.4441
  227MOL0     C30568   4.990   2.836   4.062 -0.0584  0.2674  0.2882
  227MOL0     O30569   4.897   2.924   4.017  0.0618  0.0983  0.6595
  227MOL0     C30570   4.833   2.882   3.897  0.2756  0.1349 -0.1973
  227MOL0     C30571   4.740   2.983   3.831 -0.9852 -0.6416  0.0076
  227MOL0     C30572   4.637   3.032   3.935  0.3963  0.6579  0.4710
  227MOL0     C30573   4.558   3.156   3.905  1.1810  0.5580 -0.1840
  227MOL0     C30574   4.626   3.288   3.908  0.4270  1.0822  0.4518
  227MOL0     C30575   4.681   3.395   3.909 -0.0729  0.2111 -0.8342
  227MOL0     C30576   5.116   2.892   4.075  0.0090  0.1715 -0.1735
  227MOL0     C30577   5.214   2.822   4.143 -0.0087  0.0262 -0.2480
  227MOL0     H30578   5.244   2.445   4.571  0.7518  1.9349 -0.7491
  227MOL0     H30579   5.388   2.282   4.703 -1.7781 -1.4474 -1.2432
  227MOL0     H30580   5.457   2.067   4.722  0.4324 -1.2856  0.2675
  227MOL0     H30581   5.609   1.997   4.720 -1.8198 -0.4786  2.7007
  227MOL0     H30582   5.547   2.263   4.872 -1.1058  0.5592  0.4056
  227MOL0     H30583   5.573   2.101   4.940  2.5288 -1.2219  0.0609
  227MOL0     H30584   5.807   2.121   4.826  0.2429 -0.3194  2.8066
  227MOL0     H30585   5.764   2.293   4.797 -2.0026  0.4683  0.4252
  227MOL0     H30586   5.780   2.140   5.066 -4.5037  0.0648 -0.7818
  227MOL0     H30587   5.912   2.232   4.990  0.8219 -1.4924 -0.3329
  227MOL0     H30588   5.660   2.375   5.083 -0.2319 -0.9034  0.8229
  227MOL0     H30589   5.818   2.365   5.166 -0.7207 -2.6079  0.2722
  227MOL0     H30590   5.928   2.474   4.952 -0.5865 -3.2421 -3.8931
  227MOL0     H30591   5.780   2.482   4.866 -0.7574  3.6557 -0.4549
  227MOL0     H30592   5.803   2.697   4.973 -2.2344  0.3095 -1.2175
  227MOL0     H30593   5.664   2.599   5.027  1.1534 -0.7051 -0.5548
  227MOL0     H30594   5.912   2.603   5.214  1.9852  4.2588 -0.6403
  227MOL0     H30595   5.737   2.564   5.241 -1.1374 -0.2053 -1.2860
  227MOL0     H30596   5.982   2.865   5.192  0.6700 -3.1824  2.9542
  227MOL0     H30597   5.884   3.154   5.149  3.2364 -0.8984  0.3926
  227MOL0     H30598   5.758   3.185   5.263 -1.7814 -1.3157 -1.4658
  227MOL0     H30599   5.941   3.240   5.389  3.2298 -1.0630  1.9772
  227MOL0     H30600   6.038   3.116   5.320  0.1080 -0.5193  1.3950
  227MOL0     H30601   5.944   2.943   5.473  2.9889  0.4786 -1.5118
  227MOL0     H30602   5.820   3.058   5.537  1.0077 -2.4421  2.5899
  227MOL0     H30603   6.106   3.079   5.535 -2.5355 -2.5130 -3.8228
  227MOL0     H30604   6.015   3.044   5.683  0.7060 -0.1370 -0.7519
  227MOL0     H30605   5.940   3.485   5.627 -1.6785  0.5225 -2.1126
  227MOL0     H30606   5.737   3.693   5.831  0.4322 -1.4619 -0.1206
  227MOL0     H30607   5.841   3.691   5.689  0.2417 -0.2891 -1.5681
  227MOL0     H30608   5.671   3.669   5.667  0.6363 -1.2194 -0.4474
  227MOL0     H30609   5.413   3.770   5.702  0.1575  0.0601  0.6315
  227MOL0     H30610   5.195   3.903   5.714 -2.8082 -0.7926  1.2120
  227MOL0     H30611   5.090   4.081   5.859 -2.1737  2.6871  2.1689
  227MOL0     H30612   5.005   3.991   5.735 -1.6153  1.0850  0.1724
  227MOL0     H30613   4.834   4.133   5.799  0.4824  1.0903  2.7063
  227MOL0     H30614   4.792   3.976   5.870 -2.5222  1.2881  1.2742
  227MOL0     H30615   4.947   4.206   5.989 -1.6623  1.6637  1.0398
  227MOL0     H30616   4.908   4.074   6.094  1.3844  0.5387 -1.2406
  227MOL0     H30617   4.765   4.259   6.143  0.2648 -1.1882  0.0647
  227MOL0     H30618   4.714   4.277   5.981  0.1736  0.4711  0.4795
  227MOL0     H30619   4.664   4.047   6.163 -2.0799 -2.2089 -0.8453
  227MOL0     H30620   4.611   4.051   5.991 -0.5565 -0.7149  0.3560
  227MOL0     H30621   4.522   4.262   6.201 -0.3644  1.3597 -1.4975
  227MOL0     H30622   4.484   4.265   6.032 -1.5650 -0.1493  1.1917
  227MOL0     H30623   4.322   4.128   6.046  0.5531  0.3973  0.3591
  227MOL0     H30624   4.321   4.155   6.217  0.0262  0.1598 -1.2888
  227MOL0     H30625   4.480   3.954   6.230 -1.1508 -1.4635  1.0294
  227MOL0     H30626   4.425   3.918   6.059  1.0602 -1.2244  1.4679
  227MOL0     H30627   5.118   3.699   6.087  0.3707 -0.6086 -0.2562
  227MOL0     H30628   5.319   3.551   6.053  1.7022  1.5337  0.9149
  227MOL0     H30629   5.623   3.202   5.873 -0.9174  1.6533  0.5994
  227MOL0     H30630   5.835   3.114   5.786  3.1192  1.5326  0.2177
  227MOL0     H30631   5.664   2.273   4.366 -1.6306 -0.1863 -0.6429
  227MOL0     H30632   5.506   2.419   4.240  1.7337  1.0748  0.2210
  227MOL0     H30633   5.044   2.527   4.191  2.2251 -0.5008  0.7096
  227MOL0     H30634   4.868   2.661   4.104  0.1422  0.9547 -1.7307
  227MOL0     H30635   4.905   2.856   3.819 -0.1618 -1.6793 -0.0395
  227MOL0     H30636   4.775   2.791   3.915 -1.1563  1.0184 -0.1564
  227MOL0     H30637   4.680   2.944   3.748 -3.3453  0.6905  0.9587
  227MOL0     H30638   4.795   3.068   3.790 -0.7667 -1.1162 -0.6853
  227MOL0     H30639   4.682   3.054   4.033 -0.4011  0.2426  0.9410
  227MOL0     H30640   4.567   2.953   3.962  1.0786  0.6809  2.5316
  227MOL0     H30641   4.472   3.157   3.973  0.8306  3.3327 -0.5636
  227MOL0     H30642   4.517   3.137   3.805  0.6439  0.2998  0.0786
  227MOL0     H30643   4.750   3.477   3.897  0.8441 -0.9142 -4.2384
  227MOL0     H30644   5.132   2.998   4.054 -0.2295 -0.3681 -3.8457
  227MOL0     H30645   5.307   2.871   4.171 -2.0980  1.3117  5.8915
  228MOL0     O30646   9.014   6.073   5.030 -0.1594  0.7376 -0.2946
  228MOL0     C30647   9.127   6.121   5.029 -0.3274  0.5172  0.4397
  228MOL0     O30648   9.226   6.091   5.117  0.2369 -0.0476 -0.1201
  228MOL0     C30649   9.198   5.981   5.199 -0.5237  0.3942  0.2175
  228MOL0     C30650   9.270   5.863   5.194 -0.4423 -0.1808  0.7016
  228MOL0     C30651   9.259   5.758   5.290 -0.5279  0.1731  0.1376
  228MOL0     C30652   9.157   5.770   5.387 -0.2059  0.6218  0.5360
  228MOL0     O30653   9.128   5.675   5.482 -0.9599 -0.0615  0.0183
  228MOL0     C30654   9.156   5.539   5.462 -1.1445  0.5900 -0.2920
  228MOL0     C30655   9.042   5.467   5.540  0.0987  0.6286  0.4647
  228MOL0     C30656   8.894   5.499   5.522  0.1333  0.7926  0.6161
  228MOL0     C30657   8.837   5.589   5.629 -0.2929 -0.1076  0.1293
  228MOL0     C30658   8.707   5.649   5.595 -0.5870  0.0643  1.0491
  228MOL0     C30659   8.661   5.771   5.683  0.4508  0.8863  0.1407
  228MOL0     C30660   8.535   5.849   5.629  0.0711 -0.3371  0.3662
  228MOL0     C30661   8.472   5.949   5.729 -0.3470 -0.2046  1.2883
  228MOL0     N30662   8.544   6.073   5.752 -0.7858  0.0504  0.4589
  228MOL0     C30663   8.584   6.170   5.657 -0.3630  0.3129 -0.0073
  228MOL0     C30664   8.651   6.261   5.728 -1.3499 -0.3175  0.2241
  228MOL0     C30665   8.745   6.383   5.676 -0.3749 -0.0261  0.2978
  228MOL0     C30666   8.678   6.497   5.590 -0.9175  0.3024 -0.1287
  228MOL0     C30667   8.560   6.582   5.644 -0.8157  0.1493  0.3588
  228MOL0     C30668   8.580   6.651   5.778 -0.2223 -0.7086  0.0170
  228MOL0     O30669   8.682   6.747   5.766  0.4628  0.0183  0.0021
  228MOL0     C30670   8.708   6.818   5.881  0.5597  0.5635 -0.8134
  228MOL0     C30671   8.803   6.913   5.860  0.4650  0.1205 -0.7111
  228MOL0     C30672   8.859   6.981   5.964  0.0932 -0.5210  1.1394
  228MOL0     C30673   8.981   7.065   5.930 -0.2651 -0.1133  0.0865
  228MOL0     C30674   8.809   6.968   6.093  0.9673  0.1434  1.0037
  228MOL0     C30675   8.858   7.036   6.214 -0.0385 -0.0294  0.4339
  228MOL0     O30676   8.992   7.056   6.231 -0.2935 -0.4458  0.2102
  228MOL0     C30677   9.036   7.151   6.318 -0.0824 -0.5207 -0.5474
  228MOL0     C30678   9.136   7.121   6.411 -0.0432 -0.7139 -0.6615
  228MOL0     C30679   9.164   7.211   6.518  1.1179 -0.0839 -1.6437
  228MOL0     C30680   9.117   7.344   6.519 -0.6067  0.2656 -0.8012
  228MOL0     O30681   9.172   7.418   6.625 -0.6612  0.5296 -0.4606
  228MOL0     C30682   9.162   7.554   6.606  0.2873 -0.5850 -0.0147
  228MOL0     C30683   9.209   7.628   6.738 -0.6999  0.2687  0.0507
  228MOL0     C30684   9.123   7.585   6.863  0.7810  0.6993 -0.0343
  228MOL0     C30685   9.097   7.688   6.973 -0.2433  0.0116 -0.3477
  228MOL0     C30686   9.225   7.747   7.030 -0.6106 -0.5569 -0.8752
  228MOL0     C30687   9.323   7.648   7.082 -1.0317  0.8845  0.0729
  228MOL0     C30688   9.272   7.540   7.180 -0.1877  0.5152 -0.6235
  228MOL0     C30689   9.262   7.600   7.316  0.5904  0.4632  0.1388
  228MOL0    Cl30690   9.263   7.486   7.449  0.0025  0.5249 -0.0579
  228MOL0     C30691   9.029   7.380   6.413  0.6035  0.0149  0.3530
  228MOL0     C30692   8.993   7.281   6.317 -0.5861 -0.1559 -0.5797
  228MOL0     O30693   8.770   7.084   6.284 -0.0590  0.0530 -1.0917
  228MOL0     C30694   8.709   6.879   6.115  1.0469 -0.3250 -0.4005
  228MOL0     C30695   8.656   6.803   6.009  1.4301  0.9467 -0.0099
  228MOL0     N30696   8.665   6.211   5.864 -0.1127 -0.1498  0.8784
  228MOL0     N30697   8.601   6.098   5.870  0.6974  0.2998  0.9900
  228MOL0     C30698   9.092   5.886   5.391 -0.0598 -0.4799  1.5147
  228MOL0     C30699   9.103   5.997   5.296 -0.4832 -0.1521  0.7027
  228MOL0     C30700   9.164   6.238   4.944  0.2735 -0.1113 -0.2652
  228MOL0     C30701   9.074   6.274   4.842  0.0540 -0.6411  0.6877
  228MOL0     C30702   9.100   6.377   4.746 -1.1235  0.8027  0.0948
  228MOL0     C30703   9.214   6.453   4.769  0.6327 -0.1792  0.4685
  228MOL0     O30704   9.241   6.561   4.699  0.1795 -0.4767 -0.0817
  228MOL0     C30705   9.128   6.651   4.675 -0.1331  0.1547  0.4152
  228MOL0     C30706   9.160   6.731   4.551  0.5823  0.3198  0.7546
  228MOL0     C30707   9.050   6.844   4.523  0.7664 -0.0205 -0.2999
  228MOL0     C30708   9.111   6.974   4.464 -0.5327 -0.9266  0.2971
  228MOL0     C30709   9.016   7.084   4.438  0.1740  1.0675 -0.4446
  228MOL0     C30710   8.923   7.160   4.434 -0.3245  0.1576  0.4389
  228MOL0     C30711   9.305   6.409   4.870 -0.5038 -0.4637 -1.0331
  228MOL0     C30712   9.289   6.301   4.952  0.0741  0.4993  0.2460
  228MOL0     H30713   9.345   5.857   5.116 -0.4974  3.7247  0.1531
  228MOL0     H30714   9.320   5.668   5.290 -2.2051 -1.0697  2.2026
  228MOL0     H30715   9.170   5.519   5.355  5.8885 -0.7749  0.3556
  228MOL0     H30716   9.254   5.512   5.504  0.0402  0.5704 -2.8567
  228MOL0     H30717   9.043   5.367   5.495 -3.4804  1.2406 -1.2740
  228MOL0     H30718   9.068   5.454   5.646  1.3271 -2.7091 -0.1264
  228MOL0     H30719   8.889   5.550   5.426 -0.4964 -3.2137 -1.7330
  228MOL0     H30720   8.836   5.410   5.497  0.3812  0.7923  0.0257
  228MOL0     H30721   8.833   5.532   5.722  0.5090 -0.6449 -0.1539
  228MOL0     H30722   8.903   5.675   5.643 -3.4830  2.1334  3.1273
  228MOL0     H30723   8.701   5.690   5.493 -3.2629 -0.0011  1.0886
  228MOL0     H30724   8.630   5.572   5.604 -0.5998  0.0589  0.8981
  228MOL0     H30725   8.639   5.734   5.783  0.9541  0.6249  0.1630
  228MOL0     H30726   8.742   5.845   5.679  2.6299 -1.3347  0.2271
  228MOL0     H30727   8.576   5.904   5.544 -3.0679  0.1025 -0.9896
  228MOL0     H30728   8.454   5.782   5.598 -1.4138 -0.0959  3.3729
  228MOL0     H30729   8.431   5.912   5.823 -0.1421  3.4436  2.9929
  228MOL0     H30730   8.390   5.999   5.677  1.4286  2.1309  0.5651
  228MOL0     H30731   8.575   6.180   5.550  2.1296 -2.0671 -0.5694
  228MOL0     H30732   8.801   6.416   5.764  1.6718 -3.6178  0.5131
  228MOL0     H30733   8.821   6.345   5.607 -1.1377 -1.4043  0.1875
  228MOL0     H30734   8.629   6.449   5.504 -0.6760 -0.2013  0.0103
  228MOL0     H30735   8.752   6.571   5.558 -1.9835  1.4146 -0.1114
  228MOL0     H30736   8.468   6.522   5.647 -0.8130  0.1069 -0.2771
  228MOL0     H30737   8.542   6.661   5.571 -0.1495  0.1815  0.2219
  228MOL0     H30738   8.598   6.579   5.859 -0.0958 -0.9388 -0.2162
  228MOL0     H30739   8.486   6.706   5.793  1.2923  2.0663  0.0575
  228MOL0     H30740   8.826   6.933   5.756  0.9572 -0.0393 -0.6395
  228MOL0     H30741   9.064   7.025   5.988 -1.0922 -0.2967  1.1675
  228MOL0     H30742   8.999   7.056   5.822 -2.5032  1.6003 -0.5118
  228MOL0     H30743   8.956   7.171   5.943 -2.8119 -0.6080 -0.1713
  228MOL0     H30744   9.177   7.021   6.416 -1.1481 -1.1485  0.1775
  228MOL0     H30745   9.241   7.174   6.586  1.7305 -0.9484 -2.7639
  228MOL0     H30746   9.209   7.591   6.515  0.9034 -1.1138  0.0741
  228MOL0     H30747   9.059   7.584   6.589  2.0415  5.7554 -2.3677
  228MOL0     H30748   9.316   7.621   6.758 -1.0923 -5.5272  2.0221
  228MOL0     H30749   9.190   7.729   6.700  3.3733 -0.3726 -4.6604
  228MOL0     H30750   9.175   7.501   6.910  1.2940 -0.2902 -2.2249
  228MOL0     H30751   9.028   7.541   6.830  0.8793  0.6358 -0.2368
  228MOL0     H30752   9.040   7.767   6.924  1.2464  1.3411 -0.0289
  228MOL0     H30753   9.039   7.641   7.053 -0.8246  0.3545 -0.5613
  228MOL0     H30754   9.196   7.816   7.110 -2.7072 -1.6966 -0.5676
  228MOL0     H30755   9.272   7.809   6.953 -1.5867 -2.3372 -3.0386
  228MOL0     H30756   9.368   7.598   6.996 -0.8021  0.1457  0.6119
  228MOL0     H30757   9.402   7.710   7.126 -0.0743 -0.0245 -0.3351
  228MOL0     H30758   9.344   7.457   7.182  0.0542  0.7437  0.3288
  228MOL0     H30759   9.173   7.499   7.156  0.7893 -0.6062 -3.1691
  228MOL0     H30760   9.172   7.661   7.327  1.0353  0.8027  2.3608
  228MOL0     H30761   9.352   7.662   7.323  0.1464  1.0350  0.8945
  228MOL0     H30762   8.978   7.476   6.422  4.4925  2.2502  0.8426
  228MOL0     H30763   8.909   7.294   6.250 -1.7953 -2.2133  0.4410
  228MOL0     H30764   8.669   6.861   6.214 -0.8920  0.9881 -0.8660
  228MOL0     H30765   8.573   6.736   6.029  0.6705  1.9629  0.3883
  228MOL0     H30766   9.015   5.897   5.467  0.1126 -0.8547  1.7437
  228MOL0     H30767   9.033   6.080   5.297 -2.0746 -1.4426  0.4949
  228MOL0     H30768   8.979   6.222   4.838 -0.6304  0.6250 -0.9375
  228MOL0     H30769   9.030   6.388   4.664 -1.5365 -0.5328  0.2447
  228MOL0     H30770   9.043   6.587   4.649  0.5634 -0.1633 -1.1578
  228MOL0     H30771   9.125   6.721   4.759  3.8054  1.0115  0.0132
  228MOL0     H30772   9.163   6.661   4.467 -1.2395  0.0932  0.8365
  228MOL0     H30773   9.258   6.778   4.560  0.1993  0.7482  3.4514
  228MOL0     H30774   8.988   6.865   4.612 -0.0680 -2.6560 -0.1723
  228MOL0     H30775   8.982   6.788   4.458  0.7395 -2.3975  1.6340
  228MOL0     H30776   9.157   6.954   4.367  2.2073  0.1348  1.3016
  228MOL0     H30777   9.189   7.012   4.530 -0.2175  4.1019 -2.4528
  228MOL0     H30778   8.833   7.216   4.421  0.9148  2.9794  2.7982
  228MOL0     H30779   9.402   6.457   4.882 -0.8707 -0.2902  1.8645
  228MOL0     H30780   9.378   6.270   5.005 -0.7544 -2.3199  0.1465
  229MOL0     O30781   6.356   9.861   5.461 -0.7282 -0.1732 -0.2710
  229MOL0     C30782   6.408   9.946   5.521  1.3916 -0.2564  0.4564
  229MOL0     O30783   6.380   9.980   5.641 -0.3385  0.5910  0.2032
  229MOL0     C30784   6.298   9.897   5.723 -0.1614 -0.5725 -0.6449
  229MOL0     C30785   6.306   9.756   5.719 -0.3462 -0.2298 -0.4311
  229MOL0     C30786   6.220   9.676   5.790 -0.6141  0.0395  0.4335
  229MOL0     C30787   6.135   9.737   5.882  1.0481 -0.3984 -0.9088
  229MOL0     O30788   6.061   9.657   5.961 -0.9264 -0.0694 -0.5097
  229MOL0     C30789   6.134   9.625   6.083 -0.2951  0.2025  0.1849
  229MOL0     C30790   6.214   9.496   6.095  0.1712 -0.1514  0.9116
  229MOL0     C30791   6.140   9.377   6.052  0.7394 -0.3336  0.4971
  229MOL0     C30792   6.048   9.335   6.178  0.0385  0.7599  0.4404
  229MOL0     C30793   5.967   9.208   6.149 -0.4214 -0.1525  0.0447
  229MOL0     C30794   5.869   9.193   6.267 -1.3567  0.3744 -0.3935
  229MOL0     C30795   5.799   9.059   6.238  0.4507 -0.2030 -0.0162
  229MOL0     C30796   5.717   9.070   6.108 -0.3761  0.3569  0.5858
  229MOL0     N30797   5.629   8.957   6.097  1.1360  0.7820  0.5057
  229MOL0     C30798   5.637   8.859   6.003 -0.5357 -0.7090 -0.7145
  229MOL0     C30799   5.530   8.783   6.035 -0.0900  0.0520  0.2998
  229MOL0     C30800   5.495   8.651   5.972 -0.6720 -0.7907 -0.1198
  229MOL0     C30801   5.508   8.651   5.816  0.5863  0.0707 -0.2850
  229MOL0     C30802   5.566   8.518   5.766  0.2543 -0.3812  0.0770
  229MOL0     C30803   5.554   8.494   5.613 -0.3015 -0.6210  0.8570
  229MOL0     O30804   5.421   8.472   5.564 -0.9483  0.2015 -0.0509
  229MOL0     C30805   5.375   8.527   5.452  0.0765  0.8491  0.2594
  229MOL0     C30806   5.304   8.442   5.371  0.2728 -0.1870  0.3886
  229MOL0     C30807   5.262   8.479   5.242 -0.8119 -0.0695  0.4481
  229MOL0     C30808   5.180   8.379   5.169 -0.1635  1.1028  0.1657
  229MOL0     C30809   5.320   8.597   5.180 -0.2898  0.8802  0.5838
  229MOL0     C30810   5.307   8.631   5.034  0.4397 -1.1929  0.9391
  229MOL0     O30811   5.406   8.723   4.997 -0.3004 -0.7256  0.3522
  229MOL0     C30812   5.389   8.806   4.886  0.0876 -0.8258 -0.0409
  229MOL0     C30813   5.272   8.862   4.832 -0.5479 -0.1360 -0.1950
  229MOL0     C30814   5.274   8.970   4.750  0.6975  0.6021  0.2110
  229MOL0     C30815   5.386   9.014   4.694 -0.8291 -0.4977 -0.3972
  229MOL0     O30816   5.376   9.127   4.614  0.1820 -0.0309  0.5485
  229MOL0     C30817   5.482   9.222   4.639  0.1711 -0.2742  0.8048
  229MOL0     C30818   5.446   9.356   4.574 -0.4124 -0.0852 -1.3257
  229MOL0     C30819   5.337   9.439   4.649  0.2088 -0.6372  1.1822
  229MOL0     C30820   5.382   9.484   4.789 -0.4878  0.3360  1.1512
  229MOL0     C30821   5.263   9.537   4.879  0.0801  0.5353 -0.1046
  229MOL0     C30822   5.168   9.427   4.919  0.2579  0.7490  0.4409
  229MOL0     C30823   5.188   9.362   5.062  0.6921  0.8550 -0.2067
  229MOL0     C30824   5.233   9.215   5.045  0.7957 -0.2565 -0.1534
  229MOL0    Cl30825   5.088   9.120   4.995 -0.2557  0.3133  0.4148
  229MOL0     C30826   5.516   8.942   4.716 -0.4434 -0.0076  0.0705
  229MOL0     C30827   5.507   8.842   4.818  0.1842 -0.2705  0.1770
  229MOL0     O30828   5.216   8.591   4.964  0.2385  0.7550  0.7864
  229MOL0     C30829   5.387   8.679   5.266 -0.6809 -1.2672 -0.1247
  229MOL0     C30830   5.414   8.646   5.398  0.1214 -0.7361  0.1635
  229MOL0     N30831   5.458   8.822   6.144  0.2950 -1.0902  0.9426
  229MOL0     N30832   5.515   8.938   6.173  0.2142  0.1148  0.7684
  229MOL0     C30833   6.132   9.873   5.903  0.0379 -0.1312 -0.1592
  229MOL0     C30834   6.200   9.954   5.811 -1.1520 -0.0727  0.8893
  229MOL0     C30835   6.495  10.039   5.442 -0.3469  0.6254  0.5005
  229MOL0     C30836   6.510  10.032   5.307  0.4729  0.2488  0.5596
  229MOL0     C30837   6.600  10.113   5.239 -0.9311  0.1258 -0.0230
  229MOL0     C30838   6.677  10.209   5.308  0.3904  0.2769 -0.7350
  229MOL0     O30839   6.758  10.291   5.233  0.5209 -0.4645 -0.4778
  229MOL0     C30840   6.829  10.401   5.295  0.1549 -0.0718  0.1835
  229MOL0     C30841   6.894  10.488   5.194 -0.0692 -0.4470  0.3986
  229MOL0     C30842   6.945  10.405   5.068 -0.1209  0.2147 -0.5581
  229MOL0     C30843   7.042  10.477   4.978  0.2752  0.7542 -0.2558
  229MOL0     C30844   7.161  10.511   5.053  0.1707  0.0457 -0.2350
  229MOL0     C30845   7.250  10.538   5.134  0.8839 -1.0327 -0.2574
  229MOL0     C30846   6.670  10.210   5.448  0.6320  0.6861  0.4376
  229MOL0     C30847   6.582  10.122   5.511  0.3434  0.1478 -0.6798
  229MOL0     H30848   6.380   9.705   5.659  1.9809 -0.3466  2.3224
  229MOL0     H30849   6.252   9.573   5.793  4.0126  1.1856 -0.6288
  229MOL0     H30850   6.194   9.709   6.120  0.1508  0.7076 -1.6112
  229MOL0     H30851   6.050   9.612   6.153  0.1685 -2.7964  0.2975
  229MOL0     H30852   6.299   9.510   6.028 -0.1679 -2.3357 -0.0722
  229MOL0     H30853   6.252   9.472   6.195  2.6308  0.4733  0.1746
  229MOL0     H30854   6.085   9.393   5.959  2.2775  1.4932 -0.1705
  229MOL0     H30855   6.218   9.303   6.033 -0.7102 -1.4382 -1.4647
  229MOL0     H30856   6.096   9.314   6.274  0.9847  2.6808  0.4549
  229MOL0     H30857   5.980   9.419   6.193  0.3537  1.0844  0.0887
  229MOL0     H30858   5.919   9.218   6.051 -1.3835  1.0117  0.6123
  229MOL0     H30859   6.040   9.127   6.141  1.6047  1.7273 -2.1695
  229MOL0     H30860   5.925   9.191   6.360  2.5524 -0.9456 -2.5298
  229MOL0     H30861   5.799   9.277   6.251  1.5021  2.8911 -0.5966
  229MOL0     H30862   5.855   8.965   6.241 -1.1881 -1.3756 -2.4134
  229MOL0     H30863   5.727   9.050   6.319  0.3445  0.1720 -0.0667
  229MOL0     H30864   5.767   9.077   6.011 -4.3737 -1.9423 -1.9713
  229MOL0     H30865   5.650   9.155   6.122 -0.2010  0.0566  3.9971
  229MOL0     H30866   5.704   8.855   5.918  1.7845 -2.9561  1.0202
  229MOL0     H30867   5.572   8.580   6.003  0.7555  1.1247  0.8936
  229MOL0     H30868   5.397   8.626   6.013 -0.4800 -0.1895  0.7213
  229MOL0     H30869   5.575   8.725   5.772 -0.0488  0.6963 -0.2301
  229MOL0     H30870   5.411   8.674   5.771  1.0204  0.6759 -0.9404
  229MOL0     H30871   5.511   8.443   5.823 -1.2840  0.3826 -0.3448
  229MOL0     H30872   5.666   8.515   5.810 -0.1123  0.0761  0.9706
  229MOL0     H30873   5.612   8.407   5.581  0.2209 -1.2132  3.1855
  229MOL0     H30874   5.601   8.583   5.569 -1.9609 -0.2194 -0.1616
  229MOL0     H30875   5.270   8.349   5.415  1.6726 -0.9210 -0.0131
  229MOL0     H30876   5.216   8.351   5.069 -2.8245  0.4991 -0.7038
  229MOL0     H30877   5.167   8.285   5.223  0.6099  0.4698 -0.7077
  229MOL0     H30878   5.086   8.435   5.158 -0.0315  1.4100  0.5926
  229MOL0     H30879   5.172   8.832   4.862 -1.2441  0.0655 -2.1606
  229MOL0     H30880   5.177   9.016   4.735 -2.7959 -5.2914  1.2245
  229MOL0     H30881   5.490   9.226   4.748  1.1085 -2.5698  0.8952
  229MOL0     H30882   5.572   9.173   4.601  0.6242  0.3897  1.0181
  229MOL0     H30883   5.535   9.418   4.593 -0.8667 -0.0573  1.1602
  229MOL0     H30884   5.427   9.337   4.468  1.0578 -2.5789 -1.2187
  229MOL0     H30885   5.254   9.368   4.656 -1.4439  1.0184 -0.4025
  229MOL0     H30886   5.301   9.514   4.577  0.8913 -2.5719 -1.2943
  229MOL0     H30887   5.428   9.399   4.839 -1.1091  0.3045  1.6798
  229MOL0     H30888   5.463   9.555   4.769 -1.0540  0.6723 -0.0768
  229MOL0     H30889   5.204   9.604   4.816 -0.9292 -1.0353 -0.8909
  229MOL0     H30890   5.299   9.595   4.964 -2.7443  1.8130  0.3337
  229MOL0     H30891   5.070   9.476   4.931 -1.5803 -2.2466 -1.0758
  229MOL0     H30892   5.149   9.363   4.832 -1.1168  0.4271  0.9393
  229MOL0     H30893   5.105   9.347   5.132  1.6787 -2.9163  0.3644
  229MOL0     H30894   5.262   9.421   5.116  0.3053 -0.4472  1.8589
  229MOL0     H30895   5.260   9.170   5.141 -1.1788 -0.1531  0.4955
  229MOL0     H30896   5.308   9.205   4.966 -0.8074  1.5244 -2.0511
  229MOL0     H30897   5.598   8.982   4.658  1.4592  0.0544  2.6546
  229MOL0     H30898   5.594   8.791   4.859 -0.8693 -3.5431 -1.3011
  229MOL0     H30899   5.430   8.772   5.233 -2.0539  0.6628  3.0491
  229MOL0     H30900   5.472   8.710   5.463 -2.1980 -0.9916  2.6390
  229MOL0     H30901   6.069   9.900   5.987 -0.7388 -1.2038 -0.3763
  229MOL0     H30902   6.191  10.062   5.806  0.6409  0.0557 -2.2922
  229MOL0     H30903   6.439   9.975   5.248  0.8492  1.3549 -1.0304
  229MOL0     H30904   6.611  10.126   5.132 -0.0598  0.0116  0.0480
  229MOL0     H30905   6.762  10.467   5.350  1.3376  0.5613  0.9129
  229MOL0     H30906   6.902  10.370   5.371  3.3143 -0.6629 -2.8447
  229MOL0     H30907   6.984  10.528   5.242  0.9655 -0.2654 -1.5896
  229MOL0     H30908   6.825  10.569   5.169 -1.2922 -1.2988  0.9214
  229MOL0     H30909   6.854  10.382   5.012 -0.2032  1.3822 -0.9188
  229MOL0     H30910   6.992  10.313   5.106 -2.0967 -0.3197  0.7722
  229MOL0     H30911   7.003  10.570   4.936  0.5404  0.6734 -0.6795
  229MOL0     H30912   7.069  10.415   4.893  0.4537  0.8190 -0.2467
  229MOL0     H30913   7.331  10.538   5.204  0.1194  1.4817  0.7065
  229MOL0     H30914   6.743  10.268   5.503  0.4764  0.5133  0.8312
  229MOL0     H30915   6.587  10.126   5.620 -3.5594 -0.6217 -0.3203
  230MOL0     O30916  10.956  10.236   1.364 -0.2623 -1.2900  0.4615
  230MOL0     C30917  11.050  10.266   1.430 -0.2533  0.1348 -0.6360
  230MOL0     O30918  11.068  10.246   1.565  0.4162  0.4810  0.9694
  230MOL0     C30919  10.960  10.179   1.618  0.3696 -1.1122 -0.1663
  230MOL0     C30920  10.968  10.044   1.633  0.5146 -0.2601 -0.0645
  230MOL0     C30921  10.857   9.968   1.672 -0.0228 -0.7609 -0.1578
  230MOL0     C30922  10.738  10.040   1.705 -0.1393 -0.0719  0.0010
  230MOL0     O30923  10.621   9.966   1.742 -0.2858 -0.5195 -0.7424
  230MOL0     C30924  10.588   9.846   1.670 -0.0070  0.2799 -1.0116
  230MOL0     C30925  10.465   9.780   1.734  0.0316 -0.4346  0.2753
  230MOL0     C30926  10.469   9.722   1.872  0.2860 -0.6082  1.0318
  230MOL0     C30927  10.337   9.666   1.927  0.3726 -0.3764  0.3777
  230MOL0     C30928  10.336   9.625   2.071 -0.8754 -0.3160 -0.4614
  230MOL0     C30929  10.198   9.593   2.127 -0.4258 -0.2459 -0.0010
  230MOL0     C30930  10.199   9.568   2.274 -0.2897 -0.1804  0.3657
  230MOL0     C30931  10.192   9.704   2.356 -0.2355  0.0626  0.0574
  230MOL0     N30932  10.186   9.692   2.499 -0.5810  0.7810 -0.8434
  230MOL0     C30933  10.083   9.618   2.558  0.9156 -0.0679 -0.3232
  230MOL0     C30934  10.128   9.607   2.687  0.6286 -0.1197  0.0433
  230MOL0     C30935  10.076   9.503   2.772 -0.9670  0.8950 -0.1334
  230MOL0     C30936  10.138   9.504   2.908 -0.5575 -0.4269  0.0669
  230MOL0     C30937  10.104   9.623   3.000  1.2633 -0.2320  0.8706
  230MOL0     C30938  10.149   9.612   3.142 -0.2220 -0.1236  0.9518
  230MOL0     O30939  10.088   9.484   3.195 -0.0331 -0.6175 -0.1828
  230MOL0     C30940  10.072   9.462   3.326 -0.0792 -0.8462 -0.1185
  230MOL0     C30941   9.986   9.359   3.377  0.8032  0.4862 -0.1104
  230MOL0     C30942   9.982   9.330   3.519 -0.7384 -0.5266 -0.1915
  230MOL0     C30943   9.896   9.210   3.565 -0.7991  0.0169  0.1064
  230MOL0     C30944  10.050   9.412   3.606 -0.0033  0.6415  0.2898
  230MOL0     C30945  10.039   9.394   3.755 -0.1843  0.0098  0.2800
  230MOL0     O30946  10.021   9.269   3.800 -0.7532  0.5840  0.2702
  230MOL0     C30947  10.014   9.242   3.936 -1.0030 -0.5750  1.0575
  230MOL0     C30948   9.966   9.322   4.036  0.1390 -0.0373 -0.0196
  230MOL0     C30949   9.977   9.278   4.169  0.1441 -0.6464 -0.2453
  230MOL0     C30950  10.048   9.161   4.207 -0.1467 -0.2605  0.8005
  230MOL0     O30951  10.072   9.108   4.330  0.2491 -0.0144  0.2078
  230MOL0     C30952  10.009   9.176   4.439 -0.1158  0.0991 -0.2284
  230MOL0     C30953  10.028   9.095   4.569 -0.7513  0.4538  0.4448
  230MOL0     C30954  10.013   9.166   4.697 -0.6278 -0.0864  0.4177
  230MOL0     C30955   9.955   9.090   4.812 -0.3259  0.5244 -0.2507
  230MOL0     C30956  10.022   8.965   4.853  0.2383  0.5122  0.2951
  230MOL0     C30957   9.951   8.898   4.972 -0.1486  0.1637 -0.1284
  230MOL0     C30958   9.999   8.758   4.993 -0.4517 -0.3550  0.3171
  230MOL0     C30959   9.899   8.662   5.058  0.4819 -0.5795 -0.0884
  230MOL0    Cl30960   9.906   8.693   5.237 -0.1996 -0.6255  0.1903
  230MOL0     C30961  10.093   9.081   4.102 -0.3641  0.0229 -0.7843
  230MOL0     C30962  10.072   9.121   3.966  0.1378  1.1569 -0.8253
  230MOL0     O30963  10.075   9.495   3.821 -0.1397 -0.2739 -0.1381
  230MOL0     C30964  10.130   9.522   3.553  0.6508  0.1406 -0.4237
  230MOL0     C30965  10.154   9.535   3.418 -0.6802 -0.9987 -0.4179
  230MOL0     N30966  10.242   9.687   2.703  0.1419  0.5170  0.4102
  230MOL0     N30967  10.276   9.730   2.585 -0.1700  0.3692  0.0706
  230MOL0     C30968  10.741  10.180   1.706  0.7903 -0.6594 -0.2730
  230MOL0     C30969  10.854  10.247   1.662 -0.0340 -0.1620 -0.5377
  230MOL0     C30970  11.176  10.309   1.366  0.5748 -0.2586 -0.5855
  230MOL0     C30971  11.171  10.332   1.231 -1.3523 -0.6794 -0.0407
  230MOL0     C30972  11.282  10.404   1.170  0.4488 -0.1122  0.1512
  230MOL0     C30973  11.398  10.431   1.235 -0.2834  0.4685 -0.0546
  230MOL0     O30974  11.494  10.501   1.163 -0.2096  0.2120 -0.5710
  230MOL0     C30975  11.616  10.553   1.235 -0.1898  0.6468  0.1921
  230MOL0     C30976  11.578  10.677   1.327  0.3928  0.8321 -0.7586
  230MOL0     C30977  11.524  10.792   1.238 -0.7193  0.1451 -0.9675
  230MOL0     C30978  11.620  10.844   1.137  0.1384  0.3255 -0.9413
  230MOL0     C30979  11.751  10.889   1.204  0.1285 -0.2874 -0.0477
  230MOL0     C30980  11.852  10.909   1.267 -0.0118 -0.2947  1.6606
  230MOL0     C30981  11.399  10.395   1.369 -0.1522 -0.7786 -1.7900
  230MOL0     C30982  11.293  10.330   1.434 -0.1640  0.3773 -0.0435
  230MOL0     H30983  11.055   9.989   1.599 -0.0765 -1.0158 -0.3482
  230MOL0     H30984  10.843   9.860   1.673 -0.8191 -0.6952  1.9769
  230MOL0     H30985  10.569   9.862   1.563 -0.2872  1.3874 -0.8082
  230MOL0     H30986  10.666   9.770   1.677  1.1457  1.5829  2.6161
  230MOL0     H30987  10.395   9.862   1.717  1.8770  1.4905  1.4034
  230MOL0     H30988  10.435   9.700   1.665 -0.6037 -1.9128  2.1741
  230MOL0     H30989  10.545   9.643   1.876  0.9696 -0.2609 -2.1645
  230MOL0     H30990  10.496   9.802   1.942 -0.8703 -0.8768  1.8139
  230MOL0     H30991  10.269   9.750   1.911  0.2301 -0.3659  1.0211
  230MOL0     H30992  10.305   9.585   1.860  0.9711 -0.2485 -0.0754
  230MOL0     H30993  10.394   9.534   2.088 -0.7646  0.1801  2.2493
  230MOL0     H30994  10.379   9.700   2.137  0.2887 -1.1032 -0.2894
  230MOL0     H30995  10.126   9.672   2.101  2.5119  2.7320  0.1742
  230MOL0     H30996  10.164   9.502   2.076 -5.1965  1.5006 -0.4464
  230MOL0     H30997  10.109   9.513   2.303  0.9287 -1.3422  2.1390
  230MOL0     H30998  10.286   9.506   2.297  1.9729  2.0551 -1.5361
  230MOL0     H30999  10.110   9.768   2.322 -1.4510 -1.8069 -0.7147
  230MOL0     H31000  10.283   9.762   2.337 -0.5241  1.2073  1.9305
  230MOL0     H31001  10.003   9.554   2.521  1.8145 -1.6257  0.2991
  230MOL0     H31002   9.968   9.517   2.785 -1.5349 -1.8063 -1.1458
  230MOL0     H31003  10.092   9.407   2.722  0.9566  1.3048 -0.3823
  230MOL0     H31004  10.247   9.502   2.900 -0.6642 -2.0033 -1.8472
  230MOL0     H31005  10.110   9.414   2.964  1.7793 -0.4661  1.3055
  230MOL0     H31006   9.995   9.633   3.008  0.9525 -1.4872 -1.1432
  230MOL0     H31007  10.144   9.712   2.951 -0.2247 -0.4940 -0.8976
  230MOL0     H31008  10.110   9.705   3.186 -1.3883 -0.5351  0.8364
  230MOL0     H31009  10.256   9.620   3.160 -0.2064  1.9787  0.1756
  230MOL0     H31010   9.934   9.302   3.302 -1.1425  0.4594  1.1949
  230MOL0     H31011   9.953   9.116   3.562 -0.8005 -0.0845 -4.8320
  230MOL0     H31012   9.843   9.247   3.653 -0.2542 -0.4721  0.6546
  230MOL0     H31013   9.811   9.181   3.503  0.3043 -1.2783 -0.8798
  230MOL0     H31014   9.904   9.409   4.016 -0.6379 -0.5520  0.0833
  230MOL0     H31015   9.935   9.331   4.253 -0.3373  2.3427 -2.2102
  230MOL0     H31016  10.052   9.276   4.452 -0.6363 -0.0567  3.6570
  230MOL0     H31017   9.903   9.185   4.414 -0.3106 -1.0627  0.1399
  230MOL0     H31018   9.952   9.016   4.574  0.5528 -0.7899  3.2013
  230MOL0     H31019  10.126   9.047   4.565 -1.3236 -0.8669 -4.6032
  230MOL0     H31020   9.955   9.258   4.686  1.5970  1.5469  1.5004
  230MOL0     H31021  10.115   9.200   4.717 -0.4062  0.0624 -0.8717
  230MOL0     H31022   9.957   9.149   4.904  0.3513  2.0340 -1.1925
  230MOL0     H31023   9.855   9.056   4.781 -0.4404  0.8884 -0.2882
  230MOL0     H31024  10.131   8.966   4.865  0.8259  1.3935 -3.7509
  230MOL0     H31025  10.024   8.895   4.769  2.5628  3.1421 -2.0624
  230MOL0     H31026   9.979   8.962   5.056  0.7544 -0.2933 -0.0637
  230MOL0     H31027   9.843   8.894   4.956  0.0151 -0.2568 -1.2515
  230MOL0     H31028  10.098   8.760   5.039 -0.6890  0.6828  0.8205
  230MOL0     H31029  10.005   8.728   4.888 -2.5607  2.5752 -0.7670
  230MOL0     H31030   9.916   8.558   5.030 -3.9623 -2.4506  3.0482
  230MOL0     H31031   9.802   8.676   5.010 -0.7340 -2.2049  1.7595
  230MOL0     H31032  10.145   8.991   4.132  1.2095  0.9616 -0.5524
  230MOL0     H31033  10.129   9.059   3.898  0.7814 -0.6142  1.2025
  230MOL0     H31034  10.190   9.583   3.620 -0.5752 -1.0228  1.8423
  230MOL0     H31035  10.229   9.602   3.375  0.2623 -2.2017 -0.7295
  230MOL0     H31036  10.666  10.245   1.749  1.0877 -2.1650  2.7415
  230MOL0     H31037  10.854  10.356   1.670  3.2405 -0.0634 -0.3460
  230MOL0     H31038  11.081  10.303   1.179 -0.4703 -3.8285 -0.0242
  230MOL0     H31039  11.277  10.414   1.062  0.4855 -1.0814  0.0503
  230MOL0     H31040  11.644  10.461   1.287  0.0505 -0.6891 -2.1602
  230MOL0     H31041  11.700  10.570   1.167  0.3848 -1.1081  0.3890
  230MOL0     H31042  11.662  10.712   1.388 -0.6123  1.8823  0.0604
  230MOL0     H31043  11.504  10.646   1.401  1.6358 -1.6068 -0.4303
  230MOL0     H31044  11.492  10.871   1.306  1.8876  1.0180 -0.6543
  230MOL0     H31045  11.433  10.768   1.182 -2.2801  4.9521 -0.9681
  230MOL0     H31046  11.584  10.934   1.086 -0.7568 -0.0791 -1.0267
  230MOL0     H31047  11.634  10.766   1.061 -0.6895 -1.7597  0.9291
  230MOL0     H31048  11.946  10.927   1.316  0.9574 -1.3952  0.2957
  230MOL0     H31049  11.493  10.424   1.415 -1.5252  2.2327 -0.6341
  230MOL0     H31050  11.311  10.302   1.537 -0.2411 -1.3734 -0.4691
  231MOL0     O31051   7.427  10.843   3.977  0.2127 -0.7208  0.0829
  231MOL0     C31052   7.437  10.764   3.886  0.6550  0.9128  0.6117
  231MOL0     O31053   7.377  10.636   3.877 -0.3260  0.2556 -0.0258
  231MOL0     C31054   7.344  10.577   4.007 -0.4347 -0.2079 -0.3126
  231MOL0     C31055   7.432  10.580   4.124 -0.6404  0.2094  1.0313
  231MOL0     C31056   7.397  10.508   4.244  0.0591 -0.9098 -0.1301
  231MOL0     C31057   7.268  10.450   4.243  0.1786 -0.1750  0.1505
  231MOL0     O31058   7.247  10.381   4.360  0.8087  0.2092  0.0277
  231MOL0     C31059   7.167  10.265   4.351  0.4077  0.0330  0.5198
  231MOL0     C31060   7.129  10.219   4.497 -0.1166  0.4658  1.2149
  231MOL0     C31061   7.043  10.331   4.568 -0.0294  0.3696 -0.6118
  231MOL0     C31062   6.907  10.276   4.599  0.7722  0.0549 -0.0333
  231MOL0     C31063   6.821  10.393   4.644  0.0312 -0.1346  0.3740
  231MOL0     C31064   6.681  10.358   4.647  0.9708  0.2885 -1.1535
  231MOL0     C31065   6.623  10.266   4.763 -0.0021 -0.2221  1.2383
  231MOL0     C31066   6.477  10.222   4.741 -1.3279 -0.1796 -0.0917
  231MOL0     N31067   6.397  10.214   4.862 -0.8990  0.0414 -0.2282
  231MOL0     C31068   6.335  10.321   4.922  0.1148  0.1067 -0.1180
  231MOL0     C31069   6.283  10.266   5.034 -1.0186  0.6744  0.3973
  231MOL0     C31070   6.197  10.348   5.127 -0.5552 -0.1931 -0.7618
  231MOL0     C31071   6.269  10.372   5.266 -0.3330  0.4950  0.7879
  231MOL0     C31072   6.227  10.272   5.366 -0.0935  0.8424 -0.6475
  231MOL0     C31073   6.290  10.285   5.502 -0.1927  0.0211 -0.1874
  231MOL0     O31074   6.241  10.413   5.553  0.7674  0.2082  1.1075
  231MOL0     C31075   6.156  10.414   5.655 -0.2369 -0.2953 -0.5813
  231MOL0     C31076   6.068  10.308   5.684  0.3327 -0.3378 -0.1005
  231MOL0     C31077   5.976  10.318   5.792 -0.5054 -1.0817 -0.6978
  231MOL0     C31078   5.891  10.204   5.813 -0.2844 -0.7591 -0.2396
  231MOL0     C31079   5.976  10.431   5.872 -0.0725 -0.5003 -0.5622
  231MOL0     C31080   5.877  10.447   5.973  1.5411 -0.4310 -0.6510
  231MOL0     O31081   5.917  10.514   6.084  0.5196  0.8814 -0.1256
  231MOL0     C31082   5.827  10.581   6.158 -0.3895 -0.4132 -1.2550
  231MOL0     C31083   5.705  10.625   6.119 -0.0317  0.0315  0.2136
  231MOL0     C31084   5.604  10.687   6.200 -0.4695 -0.0638  0.7723
  231MOL0     C31085   5.640  10.708   6.329  0.7002  0.1840 -1.6216
  231MOL0     O31086   5.537  10.753   6.409 -0.3957 -0.7259  0.1078
  231MOL0     C31087   5.577  10.798   6.541 -0.2191  0.8080  0.9461
  231MOL0     C31088   5.471  10.870   6.612  0.2771 -0.0802  0.4062
  231MOL0     C31089   5.357  10.773   6.649 -0.2450  0.3885  0.0446
  231MOL0     C31090   5.393  10.670   6.763  0.3212  0.3541 -0.3248
  231MOL0     C31091   5.272  10.590   6.786  0.6899 -0.1306 -0.6079
  231MOL0     C31092   5.319  10.491   6.895  0.0200 -0.2754  0.0700
  231MOL0     C31093   5.234  10.361   6.896 -1.4633 -0.1003  0.2194
  231MOL0     C31094   5.342  10.265   6.845 -0.5369  0.2255 -0.1845
  231MOL0    Cl31095   5.290  10.099   6.866 -0.1428 -0.1291  0.3512
  231MOL0     C31096   5.767  10.666   6.384  1.3353  1.0363  0.1105
  231MOL0     C31097   5.859  10.609   6.294 -0.1954  0.4413  0.8861
  231MOL0     O31098   5.761  10.416   5.945  0.1400  0.0977  0.1213
  231MOL0     C31099   6.075  10.528   5.847  0.1499 -0.1621  0.9265
  231MOL0     C31100   6.154  10.523   5.737  0.0143 -0.1538 -0.1857
  231MOL0     N31101   6.308  10.131   5.032 -0.1363 -0.4508 -0.1796
  231MOL0     N31102   6.375  10.097   4.927  0.2814 -0.5850  0.5384
  231MOL0     C31103   7.178  10.455   4.130 -0.0731 -0.5708  0.3881
  231MOL0     C31104   7.224  10.522   4.010  0.5993  0.5531 -0.0864
  231MOL0     C31105   7.515  10.802   3.764  0.2650  0.4917  0.7021
  231MOL0     C31106   7.602  10.911   3.767 -0.8239 -0.5980  0.1169
  231MOL0     C31107   7.660  10.961   3.647  0.4056 -0.1015  0.5150
  231MOL0     C31108   7.645  10.893   3.528 -0.7366 -1.1565 -0.6497
  231MOL0     O31109   7.701  10.959   3.421 -0.2164 -0.1819 -0.2964
  231MOL0     C31110   7.691  10.888   3.295  0.2276 -0.2998  0.6817
  231MOL0     C31111   7.765  10.968   3.183 -0.4816 -0.5414  0.3832
  231MOL0     C31112   7.916  10.972   3.216  0.8518  0.6609 -0.6533
  231MOL0     C31113   7.991  11.074   3.131  0.1875  0.9742  0.3331
  231MOL0     C31114   8.014  11.008   3.001 -0.8053  0.0775 -0.2806
  231MOL0     C31115   8.029  10.939   2.898  0.3741  0.3475 -0.9862
  231MOL0     C31116   7.574  10.776   3.530  0.1808 -0.3146  0.2167
  231MOL0     C31117   7.506  10.735   3.643 -0.0559  0.9020  0.4447
  231MOL0     H31118   7.523  10.638   4.124 -2.6730  3.6924  0.2926
  231MOL0     H31119   7.468  10.498   4.326  1.5586  1.0940 -1.0751
  231MOL0     H31120   7.071  10.271   4.299  1.2819 -1.7140 -1.4681
  231MOL0     H31121   7.233  10.184   4.317  1.0198 -0.1928  2.1128
  231MOL0     H31122   7.072  10.126   4.487  2.7668 -1.2563 -0.7722
  231MOL0     H31123   7.224  10.196   4.546  1.5997 -0.9088 -2.3976
  231MOL0     H31124   7.100  10.370   4.653 -0.7146  1.3915 -0.5981
  231MOL0     H31125   7.027  10.416   4.500  1.0154 -0.1359 -1.5382
  231MOL0     H31126   6.852  10.234   4.514 -0.6973  0.0748  0.8674
  231MOL0     H31127   6.901  10.196   4.673 -2.1905 -2.3882 -2.6035
  231MOL0     H31128   6.852  10.415   4.747  2.3047 -0.2564 -0.2249
  231MOL0     H31129   6.843  10.479   4.581  1.1111  0.0358  0.9527
  231MOL0     H31130   6.620  10.449   4.652 -2.1608 -1.6731 -1.1450
  231MOL0     H31131   6.661  10.332   4.543 -1.1833  1.3771 -1.0804
  231MOL0     H31132   6.683  10.174   4.769  1.7193  0.9019  1.7998
  231MOL0     H31133   6.626  10.320   4.858  2.2753  2.3336 -0.1558
  231MOL0     H31134   6.486  10.119   4.705 -0.7681 -1.0676  2.3930
  231MOL0     H31135   6.436  10.289   4.666 -1.3487  3.1279  2.6589
  231MOL0     H31136   6.337  10.424   4.886 -1.2537  0.6524  1.2872
  231MOL0     H31137   6.183  10.450   5.090 -2.0501  0.3858  1.2322
  231MOL0     H31138   6.104  10.294   5.145 -0.1232 -0.8239 -0.3509
  231MOL0     H31139   6.247  10.469   5.311  0.7768 -0.3673  3.4215
  231MOL0     H31140   6.378  10.363   5.261 -0.4749 -1.5121  0.7187
  231MOL0     H31141   6.248  10.170   5.331 -4.0212 -0.7450  1.0127
  231MOL0     H31142   6.120  10.259   5.383  0.7004 -2.6553  3.2870
  231MOL0     H31143   6.397  10.294   5.480 -0.4318 -0.8103 -1.8661
  231MOL0     H31144   6.273  10.201   5.570  1.4351  1.0867  1.6795
  231MOL0     H31145   6.066  10.220   5.620  0.8115 -1.0066  0.7720
  231MOL0     H31146   5.937  10.107   5.788  1.3750 -0.4528  1.3870
  231MOL0     H31147   5.859  10.195   5.917  1.4954  0.7987  0.5252
  231MOL0     H31148   5.803  10.221   5.751  0.1269 -0.1793 -0.6810
  231MOL0     H31149   5.685  10.618   6.013  0.7562  1.8530 -0.0813
  231MOL0     H31150   5.516  10.709   6.141  0.2673  0.5176 -0.1304
  231MOL0     H31151   5.601  10.707   6.598 -1.6176 -0.4992 -0.4395
  231MOL0     H31152   5.667  10.857   6.523 -0.9256  0.9634 -2.9818
  231MOL0     H31153   5.504  10.915   6.706 -2.6804 -0.6305  1.8365
  231MOL0     H31154   5.421  10.944   6.548 -2.3551 -3.3195 -1.5918
  231MOL0     H31155   5.331  10.720   6.556 -3.6835  1.8481  0.0464
  231MOL0     H31156   5.260  10.820   6.668  0.1915  0.7883  1.3558
  231MOL0     H31157   5.470  10.601   6.728  3.1198  1.7482  2.5439
  231MOL0     H31158   5.430  10.724   6.851  1.6724  0.7925 -1.1252
  231MOL0     H31159   5.233  10.545   6.694 -1.9408  0.9126 -0.0995
  231MOL0     H31160   5.188  10.637   6.838 -0.5473 -3.3005  0.5177
  231MOL0     H31161   5.427  10.475   6.897  0.0974 -0.8206 -3.2975
  231MOL0     H31162   5.295  10.536   6.992  1.1343  2.2757 -0.7739
  231MOL0     H31163   5.151  10.354   6.825 -1.1439 -2.6187  0.0230
  231MOL0     H31164   5.208  10.327   6.996 -0.2975 -0.1910  0.4976
  231MOL0     H31165   5.438  10.278   6.896  0.4862 -1.3591 -1.5656
  231MOL0     H31166   5.369  10.276   6.739  0.8947 -0.9521  0.0251
  231MOL0     H31167   5.797  10.679   6.488 -0.0294 -1.9579  0.9993
  231MOL0     H31168   5.954  10.567   6.327  0.0923  1.2831  1.1500
  231MOL0     H31169   6.091  10.618   5.905  1.9123 -0.9889  1.7966
  231MOL0     H31170   6.227  10.599   5.713 -0.3800  0.0647 -0.7052
  231MOL0     H31171   7.088  10.395   4.116  0.2761 -0.7639 -1.2845
  231MOL0     H31172   7.162  10.535   3.921 -2.4224 -0.8628  1.6412
  231MOL0     H31173   7.604  10.960   3.864  1.8413 -0.9480  0.3231
  231MOL0     H31174   7.716  11.053   3.650 -1.2455  1.0759 -1.6969
  231MOL0     H31175   7.744  10.793   3.306 -0.4571 -0.5143  2.5202
  231MOL0     H31176   7.588  10.863   3.269  0.6913 -1.8599  0.2261
  231MOL0     H31177   7.729  11.069   3.160  0.7617 -0.6446 -2.4254
  231MOL0     H31178   7.757  10.912   3.090  1.6328 -2.7215  1.4180
  231MOL0     H31179   7.962  10.873   3.211  1.6459  0.9925 -0.1828
  231MOL0     H31180   7.926  11.013   3.317 -4.4394  3.4036 -0.8996
  231MOL0     H31181   8.091  11.092   3.174  0.2443  2.5029 -0.3842
  231MOL0     H31182   7.940  11.171   3.134 -0.2737  0.7273  3.0231
  231MOL0     H31183   8.020  10.865   2.820  1.9988  0.3222 -1.1762
  231MOL0     H31184   7.549  10.728   3.436 -1.1639  4.0381 -1.8938
  231MOL0     H31185   7.447  10.645   3.631  0.6275  0.1797  2.2400
  232MOL0     O31186   0.611   3.240   2.136 -0.1007 -0.0569 -0.5638
  232MOL0     C31187   0.606   3.354   2.187 -0.5717  0.1061  0.2446
  232MOL0     O31188   0.496   3.412   2.259 -0.3298 -0.0521 -0.2704
  232MOL0     C31189   0.378   3.351   2.290 -0.1638  0.1392 -0.3701
  232MOL0     C31190   0.289   3.447   2.340  0.3361  0.0320  0.2417
  232MOL0     C31191   0.153   3.413   2.345 -0.0815 -0.3841 -1.0570
  232MOL0     C31192   0.108   3.280   2.320  0.1115  0.0913  1.0283
  232MOL0     O31193  -0.030   3.267   2.335 -0.4999  0.5640 -0.2745
  232MOL0     C31194  -0.080   3.130   2.350  0.7917  0.7034  0.0682
  232MOL0     C31195  -0.234   3.121   2.354 -0.0319  0.1970  0.7140
  232MOL0     C31196  -0.291   3.159   2.490  0.0331 -0.8926 -0.1575
  232MOL0     C31197  -0.440   3.100   2.503 -0.4725  0.5312 -0.3633
  232MOL0     C31198  -0.501   3.140   2.641 -0.6501 -0.7363  0.0704
  232MOL0     C31199  -0.646   3.113   2.652 -0.4056  0.0866  0.0073
  232MOL0     C31200  -0.692   3.096   2.801 -0.1922 -0.4058  0.2009
  232MOL0     C31201  -0.702   3.215   2.885 -0.0981 -0.1219 -0.1469
  232MOL0     N31202  -0.690   3.208   3.035  0.5103 -0.5844 -1.0474
  232MOL0     C31203  -0.571   3.173   3.097  0.9463 -0.8397 -1.0848
  232MOL0     C31204  -0.610   3.141   3.225 -0.0363 -0.0145  0.1430
  232MOL0     C31205  -0.518   3.113   3.350 -0.1367 -1.1071 -0.1097
  232MOL0     C31206  -0.454   3.245   3.407 -0.4577 -0.2015 -0.8507
  232MOL0     C31207  -0.531   3.302   3.518 -0.5562  0.0424  0.0636
  232MOL0     C31208  -0.471   3.430   3.573 -0.1614 -0.0697 -0.8071
  232MOL0     O31209  -0.378   3.386   3.683 -0.5067  0.1429 -0.6231
  232MOL0     C31210  -0.418   3.366   3.807  0.0626 -0.1456 -0.0078
  232MOL0     C31211  -0.550   3.396   3.851  0.8148 -0.7470  1.0592
  232MOL0     C31212  -0.592   3.362   3.982  0.5337  0.2066 -0.0083
  232MOL0     C31213  -0.746   3.379   4.002  0.3218 -0.3122 -0.3335
  232MOL0     C31214  -0.499   3.301   4.068 -0.0708  0.0794  0.0203
  232MOL0     C31215  -0.526   3.231   4.197 -0.3122 -0.0686  0.0915
  232MOL0     O31216  -0.426   3.160   4.253  0.6195 -0.0519 -0.8293
  232MOL0     C31217  -0.457   3.108   4.381  0.2761 -1.1529 -0.5331
  232MOL0     C31218  -0.504   2.982   4.381 -1.0950  0.1628  0.6604
  232MOL0     C31219  -0.545   2.918   4.499  0.5095 -0.3418  0.3352
  232MOL0     C31220  -0.550   2.995   4.617  0.1204 -0.4766 -0.9070
  232MOL0     O31221  -0.572   2.953   4.740 -0.2579  0.1249  0.2813
  232MOL0     C31222  -0.535   2.821   4.791 -0.6629 -0.0040  0.3138
  232MOL0     C31223  -0.461   2.830   4.919 -0.0082  0.3863  0.4474
  232MOL0     C31224  -0.531   2.875   5.046  0.9256  0.1672 -0.5588
  232MOL0     C31225  -0.526   3.031   5.075  0.4720 -0.9042 -0.6044
  232MOL0     C31226  -0.568   3.071   5.215 -0.1925 -0.3486 -0.4378
  232MOL0     C31227  -0.601   3.217   5.241 -0.3104 -1.1264  0.1580
  232MOL0     C31228  -0.499   3.305   5.171  0.3077 -0.6871 -0.7464
  232MOL0     C31229  -0.504   3.446   5.216 -0.4311  1.1845  0.1610
  232MOL0    Cl31230  -0.673   3.509   5.221 -0.1779 -0.4816  0.4925
  232MOL0     C31231  -0.506   3.124   4.619  0.8011  0.6223  0.6992
  232MOL0     C31232  -0.451   3.180   4.503  0.0704  0.2262  0.3783
  232MOL0     O31233  -0.634   3.256   4.249  0.0222  0.4260  0.0270
  232MOL0     C31234  -0.365   3.277   4.021 -0.9019  1.0511  0.1791
  232MOL0     C31235  -0.324   3.316   3.897 -0.6465 -0.6485 -0.3477
  232MOL0     N31236  -0.755   3.152   3.227  0.3778  0.1046  0.1360
  232MOL0     N31237  -0.793   3.199   3.114  0.3724  0.1402 -0.2313
  232MOL0     C31238   0.207   3.179   2.294 -0.0474  0.3586 -0.4087
  232MOL0     C31239   0.346   3.218   2.285 -0.1713  0.7265  1.7306
  232MOL0     C31240   0.721   3.455   2.176 -0.6714  0.8960 -0.6568
  232MOL0     C31241   0.842   3.414   2.124  0.0418  0.0048 -0.1753
  232MOL0     C31242   0.953   3.482   2.146 -0.7048  0.3310 -0.3375
  232MOL0     C31243   0.953   3.604   2.204  0.5301 -0.6418  1.0220
  232MOL0     O31244   1.081   3.654   2.213  0.7418  0.4508  0.0717
  232MOL0     C31245   1.109   3.783   2.260  0.2020  0.3921  0.0221
  232MOL0     C31246   1.226   3.852   2.195  0.3040  0.8097 -0.0734
  232MOL0     C31247   1.367   3.816   2.230  0.3299  0.2836 -1.1576
  232MOL0     C31248   1.412   3.875   2.371  0.3350  0.5496  0.5406
  232MOL0     C31249   1.530   3.803   2.425  0.4406  0.1972 -0.2133
  232MOL0     C31250   1.619   3.732   2.473 -1.9893 -0.7361  1.0708
  232MOL0     C31251   0.831   3.658   2.254 -0.4710  0.2380  0.8820
  232MOL0     C31252   0.716   3.577   2.251  0.6694  0.1869 -0.2731
  232MOL0     H31253   0.319   3.549   2.362 -0.1428  0.4569 -0.9837
  232MOL0     H31254   0.080   3.485   2.381 -0.9229 -1.2284 -1.0173
  232MOL0     H31255  -0.048   3.074   2.261 -0.2966  0.2945 -0.0889
  232MOL0     H31256  -0.041   3.078   2.438  1.9566  2.1998  0.4741
  232MOL0     H31257  -0.268   3.191   2.277  1.7314 -0.8027 -1.0728
  232MOL0     H31258  -0.259   3.016   2.341  1.9346 -0.4073  1.4011
  232MOL0     H31259  -0.233   3.106   2.567  3.0848  0.5393 -1.2860
  232MOL0     H31260  -0.291   3.267   2.507  0.5541 -0.4691 -2.4967
  232MOL0     H31261  -0.512   3.122   2.423 -1.1408 -2.9050 -0.8695
  232MOL0     H31262  -0.437   2.991   2.506  1.7329  0.5670  1.7263
  232MOL0     H31263  -0.443   3.077   2.709 -0.3803 -2.3148 -1.5359
  232MOL0     H31264  -0.472   3.244   2.661  3.1084 -1.3343 -1.3167
  232MOL0     H31265  -0.700   3.197   2.607 -1.9321 -1.8441 -1.9650
  232MOL0     H31266  -0.671   3.019   2.601  3.1261 -0.9507 -0.0754
  232MOL0     H31267  -0.790   3.047   2.793 -0.6789  0.3630  1.2667
  232MOL0     H31268  -0.616   3.024   2.832 -0.6638 -1.3417 -0.7359
  232MOL0     H31269  -0.786   3.278   2.856  0.6983  0.9477 -0.1696
  232MOL0     H31270  -0.621   3.280   2.851 -1.1344  1.8368  0.9707
  232MOL0     H31271  -0.470   3.183   3.058  1.3146  0.4581  0.1200
  232MOL0     H31272  -0.580   3.071   3.430 -0.2496  0.4800  0.6772
  232MOL0     H31273  -0.439   3.045   3.316  1.9779  1.8071 -1.4357
  232MOL0     H31274  -0.451   3.305   3.316 -0.1633 -2.9490 -2.7935
  232MOL0     H31275  -0.348   3.238   3.430  0.2115  4.3764 -1.7274
  232MOL0     H31276  -0.544   3.231   3.600 -0.7029 -0.8502 -0.7227
  232MOL0     H31277  -0.635   3.320   3.491 -0.9611 -2.6436 -0.3713
  232MOL0     H31278  -0.553   3.492   3.608 -0.3797  0.0166 -1.4545
  232MOL0     H31279  -0.414   3.482   3.495  0.7261  0.4085  0.1430
  232MOL0     H31280  -0.623   3.441   3.784  2.0858  0.9293  0.7361
  232MOL0     H31281  -0.795   3.412   3.910  2.5112  1.3416 -1.0122
  232MOL0     H31282  -0.782   3.282   4.036  0.9874 -0.5541 -0.3000
  232MOL0     H31283  -0.769   3.456   4.077  0.7891  1.1833 -1.6519
  232MOL0     H31284  -0.504   2.923   4.290 -1.5261 -0.5738  1.1245
  232MOL0     H31285  -0.555   2.810   4.507 -2.4371 -0.1991 -0.4140
  232MOL0     H31286  -0.633   2.774   4.806 -2.6331  3.4727 -0.6252
  232MOL0     H31287  -0.466   2.781   4.716  1.0091  0.7557  1.3959
  232MOL0     H31288  -0.430   2.725   4.927  3.2077  1.2331  0.4852
  232MOL0     H31289  -0.372   2.890   4.900 -0.1817  0.1991 -1.1431
  232MOL0     H31290  -0.480   2.816   5.123 -0.1241 -1.3420 -0.9760
  232MOL0     H31291  -0.634   2.840   5.050  1.4272 -1.2704  1.8663
  232MOL0     H31292  -0.423   3.067   5.063  1.6595 -4.3260 -2.0098
  232MOL0     H31293  -0.587   3.077   4.997 -0.2186 -0.7694  0.0052
  232MOL0     H31294  -0.495   3.031   5.287 -2.8131 -0.6004  2.2752
  232MOL0     H31295  -0.663   3.021   5.236 -1.4504  1.5554 -1.3657
  232MOL0     H31296  -0.701   3.230   5.198  0.0913 -0.7626 -0.6883
  232MOL0     H31297  -0.594   3.241   5.347  0.4494 -0.0123 -0.1282
  232MOL0     H31298  -0.531   3.317   5.067  2.4168  0.6843 -1.2952
  232MOL0     H31299  -0.396   3.267   5.178  0.2500 -0.6255  0.7291
  232MOL0     H31300  -0.437   3.508   5.156  1.1946  0.0732  0.7392
  232MOL0     H31301  -0.459   3.460   5.315 -1.1252  4.7938  0.1135
  232MOL0     H31302  -0.499   3.174   4.715  1.8803  0.1794  0.8723
  232MOL0     H31303  -0.404   3.278   4.494  1.1615 -0.1240  1.8112
  232MOL0     H31304  -0.290   3.245   4.093 -0.3532  1.9638  0.0356
  232MOL0     H31305  -0.218   3.307   3.872 -0.2173  2.7903 -0.2857
  232MOL0     H31306   0.179   3.075   2.280 -0.9064  0.5732 -0.3450
  232MOL0     H31307   0.423   3.148   2.254 -1.2351  0.7159 -1.2936
  232MOL0     H31308   0.847   3.311   2.091 -2.1808 -0.8142  1.7861
  232MOL0     H31309   1.051   3.454   2.108  0.1883  1.2821  1.1759
  232MOL0     H31310   1.024   3.852   2.250  0.0223  0.0581 -0.7638
  232MOL0     H31311   1.132   3.759   2.365  0.8257  2.4560  0.4066
  232MOL0     H31312   1.228   3.960   2.216 -1.3862  0.4309  2.3643
  232MOL0     H31313   1.216   3.829   2.088 -3.4562  2.1912 -0.1715
  232MOL0     H31314   1.435   3.858   2.157  1.0906  1.7544  0.3345
  232MOL0     H31315   1.377   3.707   2.221  2.4368  0.4440 -1.1910
  232MOL0     H31316   1.330   3.873   2.443  0.5761 -1.8555  0.8177
  232MOL0     H31317   1.430   3.982   2.358  0.6921  0.4707  0.3551
  232MOL0     H31318   1.687   3.659   2.513 -0.7235 -1.1550 -1.5727
  232MOL0     H31319   0.829   3.754   2.304  1.4682  1.9432 -2.0214
  232MOL0     H31320   0.618   3.607   2.289 -1.4218 -0.7406 -4.3446
  233MOL0     O31321   1.394   6.673   0.736 -0.6823 -0.7682  0.6872
  233MOL0     C31322   1.424   6.575   0.806 -0.2291 -0.8187 -0.0971
  233MOL0     O31323   1.342   6.478   0.832 -0.1357 -0.3367 -0.1728
  233MOL0     C31324   1.219   6.469   0.780  0.5848 -0.7775  0.0022
  233MOL0     C31325   1.176   6.363   0.703  0.1091  0.0819 -0.4917
  233MOL0     C31326   1.050   6.354   0.643  0.3086 -0.2522 -0.3191
  233MOL0     C31327   0.957   6.455   0.668 -0.2401 -0.2534 -0.3455
  233MOL0     O31328   0.832   6.444   0.616  0.2819 -0.2547  0.6259
  233MOL0     C31329   0.788   6.330   0.555 -0.7844 -0.0262  1.0781
  233MOL0     C31330   0.650   6.335   0.491  0.1639  0.7672 -0.2946
  233MOL0     C31331   0.584   6.195   0.501  0.3776 -0.5617  0.1923
  233MOL0     C31332   0.525   6.163   0.640  0.4908  0.4443 -0.1790
  233MOL0     C31333   0.501   6.013   0.661 -0.2068 -0.9100  0.3124
  233MOL0     C31334   0.472   6.001   0.813  0.6184  0.5147  0.4419
  233MOL0     C31335   0.452   5.853   0.859  0.8129 -0.9083  0.5061
  233MOL0     C31336   0.582   5.764   0.879  0.9733 -0.2073 -0.1050
  233MOL0     N31337   0.657   5.788   1.000 -0.4464 -0.6373 -0.5946
  233MOL0     C31338   0.713   5.691   1.080  0.5201 -0.6203  1.2380
  233MOL0     C31339   0.762   5.756   1.187 -1.0945 -0.5481  0.4851
  233MOL0     C31340   0.840   5.702   1.298  1.0651 -0.3585  0.3841
  233MOL0     C31341   0.979   5.657   1.256 -0.9653 -0.1523 -0.0810
  233MOL0     C31342   1.054   5.577   1.361  0.3509 -0.3394 -0.3433
  233MOL0     C31343   1.116   5.671   1.463  0.4821 -0.9505  0.0483
  233MOL0     O31344   1.166   5.605   1.574 -0.4079  0.6362  0.1422
  233MOL0     C31345   1.235   5.688   1.659  0.0345  0.4464 -0.4103
  233MOL0     C31346   1.225   5.829   1.672 -0.5834  0.6464  0.3229
  233MOL0     C31347   1.304   5.905   1.763  0.1740  0.5665  0.1638
  233MOL0     C31348   1.272   6.057   1.756 -0.3225 -0.2166 -0.0623
  233MOL0     C31349   1.398   5.843   1.839 -0.0503 -0.8207 -0.0635
  233MOL0     C31350   1.505   5.920   1.912  0.0478 -0.9417  0.2013
  233MOL0     O31351   1.536   5.870   2.039 -0.2115 -0.4755  0.2920
  233MOL0     C31352   1.650   5.913   2.101  0.1730  0.5590  0.4312
  233MOL0     C31353   1.755   5.825   2.112  0.0486  0.1815 -0.0979
  233MOL0     C31354   1.872   5.862   2.167 -1.1579 -0.1264 -0.3511
  233MOL0     C31355   1.893   5.985   2.221 -0.5272  0.0349  0.1938
  233MOL0     O31356   1.985   6.039   2.295 -0.2931 -0.0586  0.0041
  233MOL0     C31357   2.103   5.952   2.337  0.2620 -1.4129 -0.1099
  233MOL0     C31358   2.175   6.010   2.460  0.5756 -0.0579 -0.0346
  233MOL0     C31359   2.249   6.144   2.421 -0.1093  0.2548 -0.2500
  233MOL0     C31360   2.380   6.163   2.502 -1.0535  0.0997  0.0437
  233MOL0     C31361   2.453   6.286   2.448  0.2115 -0.0897  0.7576
  233MOL0     C31362   2.602   6.282   2.464 -0.7565 -1.0279 -0.0041
  233MOL0     C31363   2.690   6.194   2.368  0.5241 -0.4050  0.7364
  233MOL0     C31364   2.841   6.185   2.415 -0.3542 -0.4436  0.0340
  233MOL0    Cl31365   2.833   6.112   2.580 -0.1597 -0.1304  0.0345
  233MOL0     C31366   1.782   6.077   2.217  0.7411  0.2680  0.7908
  233MOL0     C31367   1.666   6.036   2.147  0.5085 -0.3883 -0.4652
  233MOL0     O31368   1.566   6.009   1.853  0.3972 -0.1767 -0.1238
  233MOL0     C31369   1.401   5.700   1.835  1.1898  0.8382  0.3100
  233MOL0     C31370   1.328   5.629   1.741  0.8405 -0.0475 -0.1758
  233MOL0     N31371   0.741   5.893   1.170  0.1899  0.4883  0.5801
  233MOL0     N31372   0.670   5.909   1.065  0.4823 -0.2948 -0.0720
  233MOL0     C31373   0.992   6.552   0.765 -0.0447 -0.4023  0.6842
  233MOL0     C31374   1.119   6.559   0.816 -0.2613  0.4212  0.4364
  233MOL0     C31375   1.557   6.565   0.872  0.3713 -0.0494  0.7822
  233MOL0     C31376   1.646   6.665   0.860  0.6093 -0.0537  0.2475
  233MOL0     C31377   1.768   6.661   0.928  0.8588  0.3576 -1.1783
  233MOL0     C31378   1.810   6.545   0.996  0.8175  0.1935  0.0072
  233MOL0     O31379   1.948   6.547   1.018 -0.3693  0.0651  0.0691
  233MOL0     C31380   2.018   6.436   1.080  0.4670 -0.8421  1.2863
  233MOL0     C31381   1.986   6.420   1.230  0.1276 -0.8072  0.7904
  233MOL0     C31382   1.980   6.554   1.312  0.4517 -0.4075 -0.1290
  233MOL0     C31383   2.111   6.581   1.376 -0.1282 -0.4573  0.2062
  233MOL0     C31384   2.153   6.482   1.479  0.7567  0.5151 -0.2217
  233MOL0     C31385   2.168   6.392   1.562  0.1832  0.2626 -0.6171
  233MOL0     C31386   1.715   6.448   1.018 -0.0376  0.8006  0.6338
  233MOL0     C31387   1.591   6.451   0.948  0.4696 -0.6979 -0.0056
  233MOL0     H31388   1.239   6.276   0.701  0.3546  0.2574 -0.4122
  233MOL0     H31389   1.021   6.260   0.598 -1.3473 -0.5539  1.2718
  233MOL0     H31390   0.852   6.307   0.470 -1.3418  0.6426  0.4662
  233MOL0     H31391   0.796   6.250   0.630 -1.7510 -1.6901 -0.5197
  233MOL0     H31392   0.594   6.403   0.556 -0.7058  2.3041 -2.5071
  233MOL0     H31393   0.647   6.374   0.388  0.9340 -1.2631 -1.1522
  233MOL0     H31394   0.498   6.197   0.434  0.0474  0.3782  0.6221
  233MOL0     H31395   0.642   6.111   0.462 -1.0619 -0.9347 -1.2264
  233MOL0     H31396   0.597   6.192   0.718  0.4890  1.0731 -0.4020
  233MOL0     H31397   0.429   6.209   0.665 -0.4067 -1.2319 -0.4440
  233MOL0     H31398   0.406   5.983   0.615 -0.1721 -0.3463 -0.1378
  233MOL0     H31399   0.591   5.955   0.638  1.8145  2.2405 -0.3901
  233MOL0     H31400   0.541   6.045   0.885 -0.2062  1.7082  0.5243
  233MOL0     H31401   0.373   6.046   0.822  0.9508  0.9836  1.9625
  233MOL0     H31402   0.375   5.845   0.936 -0.2810  2.7600  0.0021
  233MOL0     H31403   0.405   5.801   0.775  0.5388  1.5835 -0.9944
  233MOL0     H31404   0.634   5.767   0.783  2.0451  1.2087  0.4943
  233MOL0     H31405   0.547   5.663   0.901 -0.4595  0.5690  1.5290
  233MOL0     H31406   0.709   5.584   1.065 -1.3930 -0.3864 -0.2583
  233MOL0     H31407   0.844   5.777   1.378 -1.0268 -0.7817  0.9463
  233MOL0     H31408   0.778   5.620   1.336  0.1821 -0.6517 -1.5812
  233MOL0     H31409   1.039   5.746   1.234 -1.3582  0.6215  1.7433
  233MOL0     H31410   0.973   5.602   1.163  1.7569 -1.3575  0.3743
  233MOL0     H31411   1.135   5.522   1.312  0.4155 -1.1015  0.6034
  233MOL0     H31412   0.989   5.503   1.409  1.4722 -0.2361  1.4223
  233MOL0     H31413   1.042   5.744   1.498  1.0013 -2.2375  4.4001
  233MOL0     H31414   1.193   5.734   1.416 -0.6362 -0.0107 -0.6024
  233MOL0     H31415   1.153   5.890   1.619 -0.5279  1.7388  1.4643
  233MOL0     H31416   1.221   6.088   1.665 -0.1475  0.1261 -0.0451
  233MOL0     H31417   1.215   6.094   1.843 -0.0044  2.8766 -1.0366
  233MOL0     H31418   1.365   6.114   1.755 -1.4619  1.7681  0.6904
  233MOL0     H31419   1.751   5.722   2.078 -1.7267 -0.6813  2.3845
  233MOL0     H31420   1.956   5.792   2.168 -2.2014 -1.4160  0.8924
  233MOL0     H31421   2.071   5.851   2.366 -1.5301 -1.3965 -1.8837
  233MOL0     H31422   2.176   5.944   2.256  0.4260 -0.1877 -0.0988
  233MOL0     H31423   2.107   6.014   2.546 -0.4515  0.2410 -0.8457
  233MOL0     H31424   2.245   5.933   2.496 -0.8317 -1.2923  0.1842
  233MOL0     H31425   2.179   6.227   2.434 -2.2372 -1.1824 -1.9054
  233MOL0     H31426   2.270   6.141   2.314  4.2598  1.6216  0.3649
  233MOL0     H31427   2.345   6.180   2.605 -0.0430  5.1384 -0.1793
  233MOL0     H31428   2.448   6.078   2.504  2.0507  2.3075 -2.6681
  233MOL0     H31429   2.412   6.376   2.494 -0.1944 -1.1957  2.6840
  233MOL0     H31430   2.432   6.293   2.341 -0.1491  1.5165  0.9088
  233MOL0     H31431   2.621   6.387   2.441  1.2488 -1.5031 -0.7638
  233MOL0     H31432   2.629   6.272   2.569  0.6339 -0.2131 -0.2446
  233MOL0     H31433   2.664   6.229   2.268 -0.8740  4.1514  2.4476
  233MOL0     H31434   2.655   6.090   2.367  0.2314 -0.3044 -0.2886
  233MOL0     H31435   2.888   6.282   2.431  0.8182 -1.3159  2.4565
  233MOL0     H31436   2.905   6.141   2.338 -1.0432 -2.8725  0.7556
  233MOL0     H31437   1.788   6.177   2.258 -2.7192  1.0913 -0.3505
  233MOL0     H31438   1.576   6.092   2.126  2.1808  1.8014 -2.4479
  233MOL0     H31439   1.466   5.653   1.908  1.7023  0.3194 -0.4539
  233MOL0     H31440   1.328   5.520   1.747 -0.1570 -0.0743 -0.5548
  233MOL0     H31441   0.924   6.630   0.797  0.6984  0.6733 -0.2750
  233MOL0     H31442   1.163   6.636   0.879  1.1736  0.9483 -1.1104
  233MOL0     H31443   1.635   6.751   0.795  3.2613 -0.7485 -1.2550
  233MOL0     H31444   1.833   6.748   0.931  0.5669  0.5546  0.5252
  233MOL0     H31445   2.013   6.347   1.016  2.7036  1.2977 -2.1897
  233MOL0     H31446   2.125   6.461   1.084  0.2064  0.8107 -0.7994
  233MOL0     H31447   2.054   6.345   1.271  2.0874  1.3536  1.7135
  233MOL0     H31448   1.891   6.365   1.237 -0.0009 -1.0363 -1.6431
  233MOL0     H31449   1.894   6.543   1.378 -0.8427  0.6791 -1.5661
  233MOL0     H31450   1.951   6.635   1.244  3.7215  1.3401  0.3644
  233MOL0     H31451   2.125   6.678   1.425  1.9497 -0.7503  0.2863
  233MOL0     H31452   2.198   6.586   1.310 -1.0387 -1.4757 -1.1174
  233MOL0     H31453   2.183   6.308   1.628  2.2681  0.1415 -1.1746
  233MOL0     H31454   1.747   6.360   1.073 -1.5494  0.7856  1.5465
  233MOL0     H31455   1.527   6.366   0.967 -1.0000  0.7956  2.1792
  234MOL0     O31456   9.452   5.053  10.911 -0.3712 -0.3347 -0.5186
  234MOL0     C31457   9.458   4.969  10.822 -1.0234  0.2399  0.6179
  234MOL0     O31458   9.558   4.971  10.727  0.7216  0.3916  0.5552
  234MOL0     C31459   9.641   5.078  10.731 -0.3667  0.0836  0.4623
  234MOL0     C31460   9.638   5.164  10.620  1.0772 -0.2111  0.2826
  234MOL0     C31461   9.716   5.284  10.604 -0.3439  0.5579  0.4955
  234MOL0     C31462   9.806   5.318  10.703  0.0439  0.7227  0.2357
  234MOL0     O31463   9.875   5.436  10.701 -0.9086  0.3537 -0.0912
  234MOL0     C31464   9.801   5.558  10.670 -0.9030 -0.6607  0.4627
  234MOL0     C31465   9.878   5.640  10.572 -0.3051 -0.5771 -0.1790
  234MOL0     C31466   9.830   5.777  10.567 -0.4451 -0.0982 -0.5653
  234MOL0     C31467   9.898   5.856  10.453 -1.4864  0.1032 -0.0446
  234MOL0     C31468   9.849   5.997  10.439  0.7103  1.1966 -0.8711
  234MOL0     C31469   9.940   6.082  10.350  0.6119  0.1552 -0.9236
  234MOL0     C31470   9.854   6.191  10.291 -0.8087  0.4787 -0.1432
  234MOL0     C31471   9.940   6.265  10.183  0.0437  0.9434 -0.0333
  234MOL0     N31472   9.872   6.355  10.088  0.9884 -0.2008  0.8461
  234MOL0     C31473   9.901   6.354   9.956 -0.7076  0.3208 -0.4621
  234MOL0     C31474   9.839   6.460   9.910  0.8475  0.4298 -0.5534
  234MOL0     C31475   9.840   6.506   9.764  0.5106  1.1908 -0.6639
  234MOL0     C31476   9.868   6.655   9.723  0.0127  0.3795  0.2036
  234MOL0     C31477   9.784   6.765   9.793 -0.0354  1.0755 -0.5942
  234MOL0     C31478   9.636   6.768   9.750 -0.5362  0.9561  0.1825
  234MOL0     O31479   9.575   6.884   9.786  0.8272  0.2351  0.1339
  234MOL0     C31480   9.454   6.917   9.729 -0.6802 -0.2277  0.1904
  234MOL0     C31481   9.380   6.826   9.655 -1.3303  0.7226  0.9354
  234MOL0     C31482   9.267   6.871   9.588 -0.0632  0.2301  0.0524
  234MOL0     C31483   9.194   6.768   9.501  0.1832 -0.0643 -0.5851
  234MOL0     C31484   9.225   7.005   9.599  1.3173  0.0592  0.3798
  234MOL0     C31485   9.104   7.061   9.536  0.1221 -0.1846 -0.0765
  234MOL0     O31486   9.101   7.195   9.509 -0.3811  0.9280  0.0785
  234MOL0     C31487   9.010   7.245   9.421 -0.6741  0.2890 -0.0312
  234MOL0     C31488   9.005   7.219   9.284 -0.2678 -0.0708 -0.6456
  234MOL0     C31489   8.922   7.278   9.194 -0.1671  0.3110 -0.7342
  234MOL0     C31490   8.835   7.380   9.242 -0.2567  0.4841  0.2902
  234MOL0     O31491   8.756   7.435   9.151  0.0169  0.3505  0.0807
  234MOL0     C31492   8.687   7.556   9.182  0.2848  0.2721  0.0368
  234MOL0     C31493   8.616   7.611   9.055 -0.1752  0.2287 -0.2391
  234MOL0     C31494   8.507   7.716   9.075  0.6500  0.7321 -0.7105
  234MOL0     C31495   8.560   7.854   9.115 -0.9202 -1.0222 -0.6409
  234MOL0     C31496   8.445   7.943   9.156 -0.2509 -0.2715  0.2981
  234MOL0     C31497   8.497   8.090   9.201  0.6276 -0.6526  0.3988
  234MOL0     C31498   8.378   8.194   9.199  0.5813  0.2265 -0.5089
  234MOL0     C31499   8.345   8.256   9.331  0.6118 -0.6845 -0.0765
  234MOL0    Cl31500   8.201   8.363   9.305 -0.1559 -0.3326  0.1638
  234MOL0     C31501   8.841   7.416   9.374  0.1489 -0.6881 -0.5696
  234MOL0     C31502   8.927   7.347   9.462 -0.7161  1.3020 -0.8398
  234MOL0     O31503   9.008   6.982   9.514 -0.2246  0.1403  0.0192
  234MOL0     C31504   9.296   7.089   9.681  0.4024 -0.1933  0.0149
  234MOL0     C31505   9.407   7.044   9.747  0.2304  0.1596  0.0971
  234MOL0     N31506   9.761   6.517  10.006 -0.6258 -0.2541  0.1025
  234MOL0     N31507   9.783   6.450  10.113 -0.2253 -0.7757  0.0870
  234MOL0     C31508   9.819   5.225  10.816  0.4558  0.1852  0.4068
  234MOL0     C31509   9.741   5.111  10.834 -0.7876  0.2258 -0.1427
  234MOL0     C31510   9.349   4.870  10.807 -0.4714 -0.0141  0.1319
  234MOL0     C31511   9.256   4.844  10.908 -0.2282 -0.6517 -0.3050
  234MOL0     C31512   9.181   4.731  10.899 -0.1229  0.1887 -0.7711
  234MOL0     C31513   9.191   4.644  10.786  0.5802 -0.0383 -1.0733
  234MOL0     O31514   9.107   4.545  10.761 -0.4647 -0.0377 -0.3849
  234MOL0     C31515   9.057   4.474  10.876  0.4370 -0.7163  0.6095
  234MOL0     C31516   9.030   4.333  10.827  0.1372 -0.3095 -0.1492
  234MOL0     C31517   8.994   4.245  10.944 -0.2122 -0.8101  0.0795
  234MOL0     C31518   8.907   4.121  10.920 -1.1689 -1.1804  1.2805
  234MOL0     C31519   8.826   4.097  11.040  0.4396 -0.1069 -0.8091
  234MOL0     C31520   8.771   4.091  11.151 -0.1493 -0.5595  0.4730
  234MOL0     C31521   9.276   4.675  10.682  0.6803  0.0735 -0.2849
  234MOL0     C31522   9.351   4.789  10.690 -0.0775 -0.6247  0.6885
  234MOL0     H31523   9.566   5.147  10.539 -0.2640  2.3146  0.8462
  234MOL0     H31524   9.704   5.349  10.518 -0.2960 -0.7455 -0.5297
  234MOL0     H31525   9.697   5.544  10.642 -1.2732 -0.9395  1.8970
  234MOL0     H31526   9.802   5.624  10.757  0.8099 -1.1631  0.8724
  234MOL0     H31527   9.982   5.646  10.606  0.1673  1.5939 -1.7349
  234MOL0     H31528   9.877   5.597  10.471  0.9161 -1.1711  0.0440
  234MOL0     H31529   9.721   5.782  10.552 -0.6326 -1.7065  0.0788
  234MOL0     H31530   9.850   5.823  10.665  0.1476 -2.6345  0.5727
  234MOL0     H31531  10.006   5.860  10.470 -1.4485 -0.5002 -0.0905
  234MOL0     H31532   9.882   5.811  10.355 -5.2493  0.6275  0.1587
  234MOL0     H31533   9.748   5.999  10.396  0.6803  0.5188 -0.8485
  234MOL0     H31534   9.838   6.039  10.540 -1.5026 -0.3668 -0.3815
  234MOL0     H31535  10.030   6.100  10.410 -1.5728  2.0668  2.0785
  234MOL0     H31536   9.976   6.019  10.268  2.0098 -1.6685  0.9969
  234MOL0     H31537   9.773   6.135  10.244  1.2830 -2.8807 -0.1205
  234MOL0     H31538   9.806   6.252  10.367 -3.7922 -1.5964 -0.2263
  234MOL0     H31539   9.963   6.182  10.115 -2.2105 -0.8287  1.2403
  234MOL0     H31540  10.026   6.322  10.220  0.3729 -0.0214  0.7273
  234MOL0     H31541   9.974   6.288   9.911  1.2641  3.3407 -1.9921
  234MOL0     H31542   9.922   6.447   9.722  1.4455 -1.3324  4.0060
  234MOL0     H31543   9.743   6.477   9.723  0.4808  0.6654 -0.2385
  234MOL0     H31544   9.843   6.657   9.617  0.2068  0.5661  0.1615
  234MOL0     H31545   9.972   6.684   9.736 -0.0188  0.6043 -0.0490
  234MOL0     H31546   9.835   6.859   9.771  1.3720  0.0839 -1.7877
  234MOL0     H31547   9.788   6.749   9.901  3.0089 -1.2502 -0.9048
  234MOL0     H31548   9.583   6.688   9.801  1.8737  1.3378  3.6792
  234MOL0     H31549   9.635   6.768   9.641 -4.7946 -0.3247  0.0502
  234MOL0     H31550   9.419   6.725   9.651  2.1229  1.9653 -1.8677
  234MOL0     H31551   9.124   6.708   9.559  1.7482  0.5155  2.0702
  234MOL0     H31552   9.127   6.815   9.428 -0.9610  1.8073  1.5224
  234MOL0     H31553   9.254   6.690   9.455 -0.2576  1.2614 -3.6991
  234MOL0     H31554   9.081   7.150   9.249 -2.1944 -1.6783 -1.8956
  234MOL0     H31555   8.919   7.255   9.088  0.6293 -0.7265 -0.5456
  234MOL0     H31556   8.607   7.518   9.246  1.3338 -0.8130  0.7552
  234MOL0     H31557   8.744   7.631   9.238  0.9449 -0.3105  0.1602
  234MOL0     H31558   8.687   7.662   8.988  0.3643  2.6514  2.0359
  234MOL0     H31559   8.559   7.528   9.014  0.1706 -1.6029  2.7599
  234MOL0     H31560   8.455   7.682   9.164  2.5183 -0.6504 -0.0773
  234MOL0     H31561   8.432   7.712   8.995  0.8868  0.1602 -0.9078
  234MOL0     H31562   8.632   7.847   9.197 -0.8122  3.0696 -0.1753
  234MOL0     H31563   8.611   7.899   9.029 -1.1396  0.2543 -0.1108
  234MOL0     H31564   8.388   7.906   9.241  0.0020  1.0913  1.0934
  234MOL0     H31565   8.375   7.940   9.072  2.5790 -0.0753 -2.2370
  234MOL0     H31566   8.533   8.090   9.304  1.0819  0.1745  0.2510
  234MOL0     H31567   8.584   8.120   9.142  1.4933 -2.1500  0.8670
  234MOL0     H31568   8.287   8.140   9.170  0.3380 -1.9603  3.5319
  234MOL0     H31569   8.400   8.281   9.137 -2.7846 -0.4888 -2.9482
  234MOL0     H31570   8.433   8.308   9.369  0.6526  0.4551 -1.6505
  234MOL0     H31571   8.315   8.187   9.411 -0.7391 -0.6995 -0.5744
  234MOL0     H31572   8.779   7.494   9.418  1.0601  0.1162 -0.6536
  234MOL0     H31573   8.930   7.387   9.563 -0.8932  2.8248 -1.4033
  234MOL0     H31574   9.273   7.194   9.694  1.3803  0.5339 -3.2825
  234MOL0     H31575   9.470   7.114   9.802 -1.3932  2.9526 -1.3786
  234MOL0     H31576   9.886   5.254  10.897  1.1483 -0.4987  0.0890
  234MOL0     H31577   9.744   5.040  10.915 -1.4651 -1.4279 -1.5048
  234MOL0     H31578   9.256   4.916  10.989  2.2769  0.3991 -1.1382
  234MOL0     H31579   9.126   4.706  10.989  0.2510  1.6072 -0.1120
  234MOL0     H31580   9.138   4.467  10.949  1.4873 -0.6249 -0.5130
  234MOL0     H31581   8.964   4.518  10.914 -0.8495 -2.1648 -0.7339
  234MOL0     H31582   9.116   4.287  10.776 -1.2742 -0.6077 -2.4372
  234MOL0     H31583   8.942   4.329  10.762 -0.8079 -2.6434  1.1411
  234MOL0     H31584   8.935   4.308  11.011  0.0519  0.3208 -0.7326
  234MOL0     H31585   9.082   4.221  11.006  0.5113  5.9534  2.5675
  234MOL0     H31586   8.967   4.032  10.896  0.0977  0.1386 -0.7718
  234MOL0     H31587   8.848   4.145  10.831  0.0916 -1.6645  0.2795
  234MOL0     H31588   8.716   4.093  11.243  1.1167 -0.6544  1.2526
  234MOL0     H31589   9.277   4.637  10.581  0.6643  0.2403 -0.3485
  234MOL0     H31590   9.398   4.817  10.597 -0.5174  0.9941  0.9205
  235MOL0     O31591   3.512   0.946   6.820 -0.0814 -0.5368 -0.3515
  235MOL0     C31592   3.424   1.008   6.883 -0.7017  0.2340 -1.5331
  235MOL0     O31593   3.297   0.974   6.889  0.5603  0.3210  0.6685
  235MOL0     C31594   3.254   0.849   6.847  0.1966 -0.1431 -0.1097
  235MOL0     C31595   3.128   0.855   6.781 -0.0984 -0.7551 -0.7501
  235MOL0     C31596   3.069   0.739   6.721 -1.5192 -0.3394  0.6475
  235MOL0     C31597   3.137   0.622   6.731  0.5587  0.7008  0.6470
  235MOL0     O31598   3.105   0.515   6.650  0.2294 -0.6818  0.5658
  235MOL0     C31599   2.976   0.494   6.596 -0.8827 -0.1022  0.5457
  235MOL0     C31600   2.978   0.369   6.517  0.4512  0.1537  0.1674
  235MOL0     C31601   2.842   0.334   6.458  0.1014  0.8193  0.5604
  235MOL0     C31602   2.804   0.407   6.329 -0.5660 -0.4552  0.6427
  235MOL0     C31603   2.674   0.364   6.261  0.2417 -0.8411  0.3401
  235MOL0     C31604   2.546   0.391   6.350  0.8745 -0.1036  0.2353
  235MOL0     C31605   2.412   0.390   6.275 -0.1750 -0.5926 -0.0311
  235MOL0     C31606   2.389   0.276   6.176 -0.0725 -0.9110  0.0784
  235MOL0     N31607   2.393   0.147   6.243 -0.7190 -0.3306  0.8470
  235MOL0     C31608   2.312   0.106   6.346  0.6936 -0.9708 -0.2029
  235MOL0     C31609   2.381   0.006   6.401  0.1558  1.0458  0.1646
  235MOL0     C31610   2.341  -0.051   6.537 -0.5430 -0.1720  0.0326
  235MOL0     C31611   2.200  -0.104   6.537  1.1611  0.4372 -1.0855
  235MOL0     C31612   2.176  -0.185   6.666  0.0443 -0.1657  0.3292
  235MOL0     C31613   2.059  -0.293   6.636 -0.1148 -0.0301 -0.0307
  235MOL0     O31614   2.071  -0.394   6.742  0.2742 -0.5499  0.7881
  235MOL0     C31615   1.984  -0.504   6.760 -0.2594 -1.0895 -1.0142
  235MOL0     C31616   1.886  -0.527   6.664 -0.1568 -1.2748 -0.3149
  235MOL0     C31617   1.788  -0.626   6.675 -0.8337  0.2164  0.2577
  235MOL0     C31618   1.681  -0.622   6.575 -0.2379  0.4114 -0.3332
  235MOL0     C31619   1.787  -0.710   6.781 -1.3258  1.1656 -0.7403
  235MOL0     C31620   1.682  -0.823   6.804 -0.7383  0.6283  0.4881
  235MOL0     O31621   1.626  -0.891   6.695 -0.0027  0.0820  0.2773
  235MOL0     C31622   1.516  -0.971   6.724 -0.8465  0.3576  0.7160
  235MOL0     C31623   1.394  -0.933   6.778 -0.9510  0.1848 -0.8890
  235MOL0     C31624   1.300  -1.037   6.782 -0.4120 -0.4968  0.5951
  235MOL0     C31625   1.332  -1.169   6.762  0.2542  0.5747 -0.0624
  235MOL0     O31626   1.232  -1.252   6.811 -0.6939 -0.4674  1.0103
  235MOL0     C31627   1.273  -1.380   6.866 -0.0954 -0.4340 -0.1656
  235MOL0     C31628   1.196  -1.434   6.988 -0.3930 -0.2983 -0.4004
  235MOL0     C31629   1.059  -1.482   6.964  0.2083  0.2740  0.2765
  235MOL0     C31630   0.967  -1.396   6.873 -0.0973 -0.1615 -0.0937
  235MOL0     C31631   0.821  -1.449   6.890 -0.8161  0.8609  0.0312
  235MOL0     C31632   0.801  -1.582   6.805  0.6139 -0.5952 -0.2177
  235MOL0     C31633   0.654  -1.626   6.826  0.0074  0.5384  0.2537
  235MOL0     C31634   0.632  -1.762   6.760  0.3264  0.0697  0.3727
  235MOL0    Cl31635   0.645  -1.750   6.578  0.9262 -0.0678 -0.2803
  235MOL0     C31636   1.454  -1.213   6.713  0.2709 -0.2794 -0.5410
  235MOL0     C31637   1.541  -1.111   6.693 -0.3383 -0.0186 -0.0852
  235MOL0     O31638   1.655  -0.846   6.926  0.5260 -0.3310 -0.1108
  235MOL0     C31639   1.902  -0.692   6.874  0.7623 -0.3917 -0.1588
  235MOL0     C31640   1.994  -0.586   6.865 -0.0425 -0.7403  0.5817
  235MOL0     N31641   2.487  -0.020   6.323 -0.4328  0.6732 -0.5874
  235MOL0     N31642   2.498   0.066   6.231  0.5222 -0.3358 -0.8962
  235MOL0     C31643   3.258   0.614   6.798 -0.3785 -0.0983 -0.4106
  235MOL0     C31644   3.315   0.724   6.871 -0.0887 -0.1766  0.1486
  235MOL0     C31645   3.466   1.126   6.970 -1.0742  0.1345 -0.2535
  235MOL0     C31646   3.601   1.182   6.958  0.8118  0.6902  0.7393
  235MOL0     C31647   3.626   1.295   7.031  0.4277 -0.5330  0.0773
  235MOL0     C31648   3.544   1.352   7.136  0.0172  0.4716  0.3008
  235MOL0     O31649   3.584   1.467   7.198 -0.8558  0.3212 -0.4125
  235MOL0     C31650   3.490   1.554   7.275 -0.0514  0.0396 -0.8693
  235MOL0     C31651   3.545   1.683   7.333  0.4802  0.9044  0.1438
  235MOL0     C31652   3.665   1.654   7.419  0.2353 -1.4634 -0.0661
  235MOL0     C31653   3.699   1.777   7.515 -0.5251 -0.0169  0.8359
  235MOL0     C31654   3.607   1.786   7.626  0.8679 -0.2866 -0.1738
  235MOL0     C31655   3.543   1.798   7.730  0.1380 -0.0691 -0.1251
  235MOL0     C31656   3.421   1.289   7.148 -0.0757 -0.1726 -0.7806
  235MOL0     C31657   3.385   1.185   7.067 -0.1018  0.3909  0.1056
  235MOL0     H31658   3.095   0.956   6.762  2.9461  0.3449 -0.8467
  235MOL0     H31659   2.973   0.740   6.670 -3.6737 -3.4503  4.0586
  235MOL0     H31660   2.905   0.498   6.679  1.1794  0.4524  2.3954
  235MOL0     H31661   2.951   0.576   6.528 -3.4132 -0.0652  1.4241
  235MOL0     H31662   3.058   0.366   6.443 -0.8378  1.9394 -1.3997
  235MOL0     H31663   3.011   0.292   6.587 -0.8037  0.6891  1.4102
  235MOL0     H31664   2.850   0.230   6.424 -1.6569  0.5435  0.8503
  235MOL0     H31665   2.763   0.327   6.534  0.7128 -0.6383  1.1067
  235MOL0     H31666   2.798   0.515   6.345  0.8879 -0.5335  2.0246
  235MOL0     H31667   2.887   0.398   6.258 -0.3097  1.5332  0.6300
  235MOL0     H31668   2.664   0.431   6.176 -1.5376  0.2803  1.3549
  235MOL0     H31669   2.689   0.260   6.229  1.1830 -0.7914  0.5848
  235MOL0     H31670   2.526   0.304   6.415 -0.9265 -0.2423 -0.4665
  235MOL0     H31671   2.545   0.479   6.415 -2.2155  0.2673 -0.1885
  235MOL0     H31672   2.329   0.397   6.345 -1.7920  0.6998 -1.9470
  235MOL0     H31673   2.411   0.483   6.217 -0.2406 -1.7872 -2.0434
  235MOL0     H31674   2.461   0.276   6.093 -4.1177  2.1845 -3.9839
  235MOL0     H31675   2.292   0.290   6.127 -0.8319  0.4268  1.8595
  235MOL0     H31676   2.222   0.158   6.379  1.0456  0.4127 -1.3415
  235MOL0     H31677   2.407  -0.135   6.561 -0.5197  0.6268  3.3038
  235MOL0     H31678   2.342   0.031   6.610  0.4496  0.0680 -0.2350
  235MOL0     H31679   2.189  -0.168   6.450 -1.7533  0.1571 -0.6119
  235MOL0     H31680   2.120  -0.030   6.536 -1.3339 -2.1153 -1.2588
  235MOL0     H31681   2.165  -0.123   6.755  4.0325 -1.6915  2.1248
  235MOL0     H31682   2.265  -0.245   6.688 -0.7125 -1.7021 -0.6254
  235MOL0     H31683   2.067  -0.345   6.540 -2.5157  1.2217 -0.9900
  235MOL0     H31684   1.959  -0.249   6.631  0.0369  0.1919 -1.3943
  235MOL0     H31685   1.882  -0.455   6.583  2.9879 -2.8886 -2.1076
  235MOL0     H31686   1.676  -0.711   6.513  1.6065  1.1013 -1.5807
  235MOL0     H31687   1.582  -0.597   6.614 -1.0950 -3.0062 -0.0642
  235MOL0     H31688   1.705  -0.553   6.493 -1.0042  0.2838 -0.6705
  235MOL0     H31689   1.367  -0.829   6.786  0.7657  0.5902  0.0890
  235MOL0     H31690   1.199  -1.012   6.809  0.4603  2.5728  1.3600
  235MOL0     H31691   1.277  -1.449   6.780  2.9032  2.0996 -2.2798
  235MOL0     H31692   1.373  -1.371   6.909 -1.7147 -0.2078  3.9859
  235MOL0     H31693   1.242  -1.519   7.038 -0.4608  0.9276  1.9053
  235MOL0     H31694   1.207  -1.356   7.064 -1.6628 -0.1883 -0.3005
  235MOL0     H31695   1.009  -1.497   7.060  1.8033 -0.6442  0.9876
  235MOL0     H31696   1.057  -1.584   6.925  0.1092  0.7337 -0.9549
  235MOL0     H31697   0.976  -1.293   6.907 -1.7422 -0.1558  0.4194
  235MOL0     H31698   0.995  -1.403   6.767  2.7569  0.2128  0.5622
  235MOL0     H31699   0.749  -1.375   6.852 -2.3193 -0.2288  0.6358
  235MOL0     H31700   0.791  -1.464   6.995  0.6899  0.1399  0.3765
  235MOL0     H31701   0.831  -1.579   6.700 -0.8030 -1.3318 -0.6700
  235MOL0     H31702   0.857  -1.664   6.851 -2.2404 -2.2872  0.4782
  235MOL0     H31703   0.586  -1.554   6.779 -0.7340 -0.4621 -0.2484
  235MOL0     H31704   0.626  -1.641   6.930 -1.9831 -0.4899 -0.3758
  235MOL0     H31705   0.534  -1.806   6.782 -1.2390  1.7934 -2.5112
  235MOL0     H31706   0.700  -1.838   6.800  1.7906 -1.6058 -4.6198
  235MOL0     H31707   1.461  -1.318   6.690 -1.9503 -0.1959 -1.9434
  235MOL0     H31708   1.630  -1.126   6.633 -2.0375 -1.4067 -2.4602
  235MOL0     H31709   1.901  -0.755   6.962  2.1453 -0.4985 -0.2019
  235MOL0     H31710   2.073  -0.571   6.937  2.1876  1.5203 -2.0857
  235MOL0     H31711   3.307   0.517   6.804 -1.4372 -0.7914 -2.1655
  235MOL0     H31712   3.404   0.716   6.932 -1.4039  0.2005  2.2281
  235MOL0     H31713   3.659   1.126   6.886  1.4203  2.9629 -0.6228
  235MOL0     H31714   3.724   1.338   7.009  0.4618 -1.4036 -1.5554
  235MOL0     H31715   3.410   1.577   7.204 -0.3913 -1.5307 -1.0327
  235MOL0     H31716   3.447   1.484   7.347  3.6280 -0.6970  0.8634
  235MOL0     H31717   3.460   1.723   7.389  0.6550 -1.0590  1.9735
  235MOL0     H31718   3.572   1.756   7.256  0.9626  0.2812 -0.2855
  235MOL0     H31719   3.761   1.631   7.372  1.8758  1.2607  1.6743
  235MOL0     H31720   3.640   1.578   7.494  0.1733  1.2281  2.8617
  235MOL0     H31721   3.691   1.870   7.457 -1.3922 -0.6251 -0.0504
  235MOL0     H31722   3.799   1.765   7.557  0.6344  1.9835 -1.1447
  235MOL0     H31723   3.480   1.823   7.813  2.1376 -1.9783  2.1187
  235MOL0     H31724   3.346   1.331   7.214  0.1049  1.9142 -1.8173
  235MOL0     H31725   3.282   1.153   7.060 -0.2406  1.2399 -3.1329
  236MOL0     O31726   1.896   7.357   4.764 -0.8165 -0.2905  0.5939
  236MOL0     C31727   1.912   7.434   4.664 -0.7118  0.2305 -1.4382
  236MOL0     O31728   2.031   7.507   4.641  0.2739 -0.0545  0.5662
  236MOL0     C31729   2.155   7.480   4.694  0.8185  0.0062  0.1439
  236MOL0     C31730   2.201   7.346   4.711  0.2553 -1.1564  0.2263
  236MOL0     C31731   2.324   7.316   4.776  0.8984 -0.0811  0.2192
  236MOL0     C31732   2.394   7.426   4.834  0.1989 -0.1514  0.0574
  236MOL0     O31733   2.511   7.404   4.899  0.0140  0.5166  0.4524
  236MOL0     C31734   2.487   7.343   5.023 -0.7234  0.3446  0.6692
  236MOL0     C31735   2.627   7.337   5.084  0.3255 -0.5932  1.7849
  236MOL0     C31736   2.718   7.474   5.070 -0.4232  0.0557 -0.4611
  236MOL0     C31737   2.828   7.475   5.180 -0.4800 -1.3906 -0.0204
  236MOL0     C31738   2.939   7.368   5.146  1.4226  0.3458  0.2946
  236MOL0     C31739   3.033   7.334   5.252 -0.3613 -0.0036 -0.3415
  236MOL0     C31740   3.131   7.446   5.289 -0.4669 -0.3494 -0.4921
  236MOL0     C31741   3.235   7.385   5.397  0.0988  0.3577  0.3737
  236MOL0     N31742   3.326   7.471   5.464  0.4720  0.3310 -0.0740
  236MOL0     C31743   3.327   7.519   5.597  0.7174  1.4116  1.0008
  236MOL0     C31744   3.423   7.607   5.606 -0.2666  0.2710  0.1157
  236MOL0     C31745   3.450   7.691   5.731 -0.9800  0.2553 -0.6417
  236MOL0     C31746   3.415   7.842   5.707 -0.7359 -0.4556 -0.2455
  236MOL0     C31747   3.267   7.865   5.706 -1.2370  0.7186 -0.8169
  236MOL0     C31748   3.178   7.827   5.828 -0.7283 -0.2957 -0.4263
  236MOL0     O31749   3.112   7.711   5.787  0.2491 -0.1227 -1.3324
  236MOL0     C31750   2.980   7.700   5.746 -0.0919 -0.1751 -0.0133
  236MOL0     C31751   2.935   7.577   5.695 -0.6703  0.1923  0.9042
  236MOL0     C31752   2.806   7.565   5.632  0.5900  0.1936  0.0351
  236MOL0     C31753   2.773   7.439   5.564 -0.0616  0.3005  0.2326
  236MOL0     C31754   2.716   7.680   5.633 -0.8573 -0.1837  0.1865
  236MOL0     C31755   2.584   7.672   5.585  1.5094  0.3674  1.4646
  236MOL0     O31756   2.569   7.697   5.449  0.5184 -0.7060  0.0711
  236MOL0     C31757   2.442   7.699   5.395  0.2942  0.5942 -0.3559
  236MOL0     C31758   2.418   7.626   5.275 -0.0990 -0.6768  0.5733
  236MOL0     C31759   2.286   7.633   5.215  0.4822 -0.0182  0.8346
  236MOL0     C31760   2.177   7.690   5.277 -0.6015  0.2104  0.3822
  236MOL0     O31761   2.055   7.695   5.218 -0.3354  0.5132 -0.0352
  236MOL0     C31762   1.950   7.784   5.263  0.4158  0.5487 -0.0699
  236MOL0     C31763   1.839   7.781   5.156  0.3623  0.1131 -0.0313
  236MOL0     C31764   1.757   7.645   5.133  0.0766 -0.8783 -0.3030
  236MOL0     C31765   1.645   7.672   5.033 -0.2303  0.4577  0.3108
  236MOL0     C31766   1.541   7.554   5.027 -0.0608 -0.3260  0.0288
  236MOL0     C31767   1.422   7.587   4.930 -0.1475  0.1735  0.5098
  236MOL0     C31768   1.320   7.686   4.986 -0.3295  0.1770  0.2500
  236MOL0     C31769   1.302   7.801   4.894 -0.6948 -0.1253 -0.8513
  236MOL0    Cl31770   1.247   7.712   4.742 -0.2913  0.3436 -0.2025
  236MOL0     C31771   2.204   7.755   5.395  1.4425  1.0162 -0.0480
  236MOL0     C31772   2.335   7.768   5.452  0.3495 -0.5273  0.5644
  236MOL0     O31773   2.497   7.623   5.653  0.5138  0.3176  0.6326
  236MOL0     C31774   2.757   7.797   5.694 -0.3357  0.4532  0.4492
  236MOL0     C31775   2.888   7.813   5.742 -0.4675  0.3577  0.2063
  236MOL0     N31776   3.491   7.614   5.483 -1.1022 -0.7744  0.0505
  236MOL0     N31777   3.433   7.528   5.402 -0.2587  0.5704  0.6510
  236MOL0     C31778   2.341   7.554   4.824  0.3330 -0.9705 -0.6396
  236MOL0     C31779   2.221   7.581   4.760 -0.2206  0.0396  1.0719
  236MOL0     C31780   1.799   7.453   4.573  1.5031 -0.8320 -0.1725
  236MOL0     C31781   1.660   7.451   4.627 -0.2800  0.3678  0.5516
  236MOL0     C31782   1.550   7.469   4.532 -0.4246  0.7188 -0.0239
  236MOL0     C31783   1.571   7.475   4.390  0.2842 -0.1573 -0.2523
  236MOL0     O31784   1.469   7.494   4.302  0.3176 -0.1353  0.5002
  236MOL0     C31785   1.475   7.392   4.201  0.2819 -0.6950 -0.3466
  236MOL0     C31786   1.393   7.440   4.076 -0.2678  0.8822 -0.8113
  236MOL0     C31787   1.371   7.343   3.964  0.2207  0.4762 -0.0227
  236MOL0     C31788   1.474   7.231   3.933  0.0035  0.6856  0.3018
  236MOL0     C31789   1.595   7.290   3.879 -0.0392 -0.1047  0.0624
  236MOL0     C31790   1.692   7.340   3.819 -0.6138 -0.9073 -0.2821
  236MOL0     C31791   1.713   7.489   4.351  0.3772  0.0385 -0.0047
  236MOL0     C31792   1.820   7.484   4.440  0.9867 -0.0577  1.0876
  236MOL0     H31793   2.129   7.282   4.662  0.2509 -0.3066 -0.9309
  236MOL0     H31794   2.363   7.215   4.782  0.8527 -0.0206  1.9292
  236MOL0     H31795   2.414   7.394   5.088 -3.6627 -0.4788 -1.7782
  236MOL0     H31796   2.452   7.242   5.000 -3.0069  0.4100  3.2824
  236MOL0     H31797   2.619   7.305   5.188  3.4182 -1.3259  1.8835
  236MOL0     H31798   2.677   7.254   5.034  0.7870  2.1825 -2.9907
  236MOL0     H31799   2.762   7.462   4.971 -0.4688 -3.8348 -0.1687
  236MOL0     H31800   2.657   7.564   5.076 -0.9452 -0.3325  0.2336
  236MOL0     H31801   2.867   7.576   5.166 -0.8938 -0.8614  2.2015
  236MOL0     H31802   2.774   7.463   5.274  0.3223  1.7764  1.0010
  236MOL0     H31803   2.897   7.270   5.121  0.8044 -0.2933  3.3769
  236MOL0     H31804   2.984   7.396   5.051  0.1329 -2.6218 -1.3499
  236MOL0     H31805   2.973   7.313   5.341  0.0841  1.3188  0.2996
  236MOL0     H31806   3.091   7.247   5.220 -1.7733 -1.4357  0.8627
  236MOL0     H31807   3.187   7.480   5.201  0.8508 -1.8497 -0.2816
  236MOL0     H31808   3.077   7.526   5.341 -0.2853 -0.5578  0.0166
  236MOL0     H31809   3.293   7.312   5.339 -1.5322  0.5833 -1.6580
  236MOL0     H31810   3.175   7.324   5.465 -2.2926  1.4876 -0.6206
  236MOL0     H31811   3.252   7.482   5.666  0.6054 -0.0074  0.1363
  236MOL0     H31812   3.401   7.639   5.814  0.5634 -2.8122 -1.4895
  236MOL0     H31813   3.557   7.678   5.752 -0.9786  0.0117 -0.7944
  236MOL0     H31814   3.464   7.873   5.615 -0.3170  0.5622  0.3082
  236MOL0     H31815   3.452   7.901   5.791 -1.9269 -3.6184  2.8123
  236MOL0     H31816   3.212   7.827   5.620 -1.3735  0.7489 -0.7456
  236MOL0     H31817   3.265   7.973   5.689 -0.0890  1.1024  1.0901
  236MOL0     H31818   3.117   7.910   5.865  3.0271  1.6984  1.9807
  236MOL0     H31819   3.243   7.814   5.915  0.0813  0.8902 -0.8234
  236MOL0     H31820   3.007   7.497   5.706  0.0447  0.7654  0.4729
  236MOL0     H31821   2.692   7.448   5.491 -0.1110 -2.3486 -0.1292
  236MOL0     H31822   2.860   7.410   5.504 -0.1511  1.1336 -0.3211
  236MOL0     H31823   2.733   7.365   5.634  3.1570 -1.2874  0.5754
  236MOL0     H31824   2.509   7.584   5.231  0.1707  1.4321 -1.0135
  236MOL0     H31825   2.274   7.580   5.121 -0.3154 -0.2945  1.0918
  236MOL0     H31826   1.905   7.742   5.354 -1.2877  1.4038 -0.4821
  236MOL0     H31827   1.976   7.886   5.294 -0.8643  0.9447 -0.2429
  236MOL0     H31828   1.769   7.859   5.189  0.2423  0.9610 -2.1074
  236MOL0     H31829   1.884   7.818   5.063 -0.5710  2.1669  0.2627
  236MOL0     H31830   1.713   7.613   5.228 -0.8373  0.0593 -0.3948
  236MOL0     H31831   1.807   7.555   5.097 -1.4594 -1.8574 -0.0910
  236MOL0     H31832   1.599   7.766   5.064 -0.0097 -0.1257  2.5969
  236MOL0     H31833   1.697   7.692   4.939 -0.3423 -0.4990  0.0360
  236MOL0     H31834   1.495   7.546   5.126 -1.0056  0.3667 -0.3395
  236MOL0     H31835   1.591   7.461   4.998  3.0445  1.5013 -1.1288
  236MOL0     H31836   1.471   7.618   4.837  0.2056 -1.7470 -0.0029
  236MOL0     H31837   1.360   7.501   4.901  0.5052  0.0340 -0.5427
  236MOL0     H31838   1.350   7.713   5.087  0.3022 -0.6055  0.2873
  236MOL0     H31839   1.220   7.642   4.988  0.2540 -1.1917  2.3473
  236MOL0     H31840   1.401   7.848   4.892 -0.9783  0.6324  0.8984
  236MOL0     H31841   1.227   7.868   4.937  0.1408  0.8079 -0.8058
  236MOL0     H31842   2.128   7.802   5.457  0.8766  0.9632 -0.6912
  236MOL0     H31843   2.359   7.831   5.537  0.8411  4.2773 -2.7604
  236MOL0     H31844   2.700   7.889   5.699 -1.1043 -0.0341  0.8091
  236MOL0     H31845   2.912   7.903   5.797  2.1877  0.1397 -0.4533
  236MOL0     H31846   2.405   7.632   4.864  0.0101 -1.6119  1.2116
  236MOL0     H31847   2.168   7.675   4.763 -4.7171 -1.8871 -3.3698
  236MOL0     H31848   1.630   7.434   4.730 -0.0791 -0.0692  0.5408
  236MOL0     H31849   1.453   7.492   4.576 -1.2875  1.0733 -2.0133
  236MOL0     H31850   1.576   7.383   4.161 -0.8103  1.5825 -4.1672
  236MOL0     H31851   1.440   7.295   4.238  0.3602 -0.4705  0.3261
  236MOL0     H31852   1.442   7.529   4.038  2.8569 -1.4501 -2.7118
  236MOL0     H31853   1.290   7.462   4.107 -0.5857 -1.7726  0.3320
  236MOL0     H31854   1.375   7.414   3.880 -0.0344 -1.0343 -1.3601
  236MOL0     H31855   1.271   7.299   3.973  1.0535 -1.2632  1.1965
  236MOL0     H31856   1.433   7.164   3.857  2.0619  2.8447 -2.9916
  236MOL0     H31857   1.485   7.174   4.025 -3.9730 -1.2089 -0.1699
  236MOL0     H31858   1.772   7.386   3.764 -0.4410 -0.2127  0.5373
  236MOL0     H31859   1.725   7.500   4.243 -1.4422 -2.9295 -0.6281
  236MOL0     H31860   1.918   7.509   4.401 -0.0846  1.5932 -0.7504
  237MOL0     O31861   6.912   9.978   9.549  0.0871 -1.0303  0.3770
  237MOL0     C31862   6.966  10.081   9.604  0.1263  0.0706  0.2566
  237MOL0     O31863   6.917  10.144   9.718 -0.2177 -0.1277 -1.1567
  237MOL0     C31864   6.795  10.102   9.763 -0.6208  0.5649 -0.5322
  237MOL0     C31865   6.783   9.985   9.844 -1.0164 -0.1598 -0.8794
  237MOL0     C31866   6.666   9.935   9.898 -0.3360  0.2168 -1.1791
  237MOL0     C31867   6.543   9.998   9.862  0.5485 -1.4221  0.0118
  237MOL0     O31868   6.416   9.955   9.899 -0.0576  0.3547  0.5039
  237MOL0     C31869   6.404   9.834   9.978  0.1064  0.2360  0.4817
  237MOL0     C31870   6.254   9.791   9.951  0.6022  0.6554 -0.4669
  237MOL0     C31871   6.235   9.638   9.965  0.1112 -0.0727  0.5713
  237MOL0     C31872   6.096   9.595  10.021 -0.8697 -0.1204 -0.9234
  237MOL0     C31873   6.065   9.447  10.021 -0.0652  0.2840  0.0819
  237MOL0     C31874   6.167   9.383  10.113  0.4658  0.2892  0.1332
  237MOL0     C31875   6.129   9.236  10.157 -0.4026 -0.2806 -1.1185
  237MOL0     C31876   6.235   9.189  10.269  0.4694 -0.7080  0.5319
  237MOL0     N31877   6.270   9.046  10.264  0.1593 -0.2936 -0.0426
  237MOL0     C31878   6.180   8.944  10.287  0.3224 -0.2544  0.2563
  237MOL0     C31879   6.253   8.835  10.244  0.8240 -1.0013  0.0953
  237MOL0     C31880   6.190   8.703  10.221  0.3837  0.1348 -0.0290
  237MOL0     C31881   6.166   8.676  10.064 -0.0372 -0.0489 -0.5937
  237MOL0     C31882   6.164   8.528  10.037 -0.9046  0.2728  0.5352
  237MOL0     C31883   6.116   8.502   9.893 -0.7816  0.8050  0.0888
  237MOL0     O31884   6.061   8.375   9.855  0.7526  0.3569 -0.0223
  237MOL0     C31885   6.052   8.340   9.719  0.1727 -0.5236 -0.5729
  237MOL0     C31886   6.161   8.325   9.636 -0.4765  0.2198 -0.1366
  237MOL0     C31887   6.135   8.288   9.503  0.5074 -0.4448 -0.1077
  237MOL0     C31888   6.262   8.248   9.427 -0.4095 -0.0774 -0.2930
  237MOL0     C31889   6.003   8.276   9.452 -0.8825 -0.0808  0.6725
  237MOL0     C31890   5.972   8.234   9.307 -0.7881 -0.1070 -1.4564
  237MOL0     O31891   5.842   8.260   9.273 -0.4690  0.7320  0.7170
  237MOL0     C31892   5.807   8.285   9.146 -0.2896 -0.2549  0.7965
  237MOL0     C31893   5.899   8.313   9.042  0.2830  0.3246  0.0813
  237MOL0     C31894   5.859   8.325   8.907  0.1540  0.3028 -0.6382
  237MOL0     C31895   5.717   8.330   8.873  0.7603 -0.9584 -0.2218
  237MOL0     O31896   5.665   8.340   8.744 -0.4809  0.0440 -0.4555
  237MOL0     C31897   5.761   8.274   8.645  0.1758 -0.3086 -0.3392
  237MOL0     C31898   5.719   8.243   8.501 -0.1325 -0.1834 -0.9000
  237MOL0     C31899   5.658   8.368   8.430  0.4885  0.7286 -0.4317
  237MOL0     C31900   5.672   8.379   8.278  0.2698 -0.6692  0.1216
  237MOL0     C31901   5.607   8.509   8.213 -0.1156 -0.9552  0.0915
  237MOL0     C31902   5.637   8.538   8.055  0.0342 -0.3054  0.3107
  237MOL0     C31903   5.581   8.671   8.007  0.4060  0.7209 -0.0791
  237MOL0     C31904   5.581   8.712   7.863  0.0468  0.0650  0.3483
  237MOL0    Cl31905   5.490   8.606   7.749 -0.2894  0.5957  0.0717
  237MOL0     C31906   5.631   8.317   8.989 -0.3170  0.5855  0.4957
  237MOL0     C31907   5.676   8.292   9.117  0.0562 -0.7204  0.5869
  237MOL0     O31908   6.044   8.145   9.261 -0.2885 -0.3055 -0.7553
  237MOL0     C31909   5.897   8.286   9.548  0.1836 -0.6140 -0.3964
  237MOL0     C31910   5.920   8.323   9.683 -0.6775  0.0848  0.1987
  237MOL0     N31911   6.381   8.878  10.206 -0.4791  0.0051 -0.7413
  237MOL0     N31912   6.389   9.001  10.220 -0.2721 -0.8089 -0.1568
  237MOL0     C31913   6.549  10.123   9.794 -0.0698 -0.2570 -0.2794
  237MOL0     C31914   6.671  10.179   9.750 -0.5801 -0.0831 -0.2270
  237MOL0     C31915   7.091  10.122   9.538 -0.3847 -0.3710  0.2282
  237MOL0     C31916   7.178  10.224   9.588  0.1212 -0.0831 -0.9463
  237MOL0     C31917   7.301  10.261   9.529  0.6810  0.6894  0.6933
  237MOL0     C31918   7.347  10.182   9.424 -0.1485 -0.4819  0.7073
  237MOL0     O31919   7.463  10.198   9.348  0.3122 -0.1526  0.2411
  237MOL0     C31920   7.563  10.265   9.418 -0.3927  0.7786  0.0865
  237MOL0     C31921   7.639  10.187   9.528 -0.0029  0.2246 -0.1671
  237MOL0     C31922   7.686  10.049   9.477  1.1132 -0.9814 -0.5978
  237MOL0     C31923   7.792   9.989   9.562  0.5003 -0.1148 -0.5936
  237MOL0     C31924   7.921  10.037   9.532  0.2176 -0.5545  0.0872
  237MOL0     C31925   8.030  10.077   9.510 -1.1327  0.0463 -0.2958
  237MOL0     C31926   7.266  10.081   9.380 -0.0108 -0.1668 -0.4498
  237MOL0     C31927   7.140  10.059   9.426  0.3549 -0.0767  0.3375
  237MOL0     H31928   6.875   9.939   9.877 -0.8594  1.2543  0.8420
  237MOL0     H31929   6.670   9.846   9.961 -0.0300 -0.8457 -2.6438
  237MOL0     H31930   6.469   9.756   9.939 -0.2256 -0.1745  0.7433
  237MOL0     H31931   6.424   9.854  10.084  1.4648 -0.5573  0.3872
  237MOL0     H31932   6.183   9.831  10.023 -0.2835 -1.4665 -0.0746
  237MOL0     H31933   6.233   9.809   9.846  0.7129 -0.9837 -0.7977
  237MOL0     H31934   6.261   9.583   9.874  1.9135  0.8317  0.4947
  237MOL0     H31935   6.309   9.611  10.041 -0.0364  0.4706  0.9191
  237MOL0     H31936   6.089   9.638  10.121 -0.7863 -0.7029 -0.6634
  237MOL0     H31937   6.008   9.643   9.978 -1.8589 -1.9705 -1.0556
  237MOL0     H31938   5.966   9.430  10.064 -0.7434  1.1878 -1.0384
  237MOL0     H31939   6.075   9.403   9.921 -0.0571 -0.4892  0.4141
  237MOL0     H31940   6.267   9.387  10.071  0.1377 -0.5303 -0.7697
  237MOL0     H31941   6.178   9.429  10.211  0.1013 -4.4278  2.7157
  237MOL0     H31942   6.026   9.230  10.194 -0.0339 -2.8784 -0.2899
  237MOL0     H31943   6.138   9.165  10.074  0.1805 -0.8543 -0.5829
  237MOL0     H31944   6.194   9.221  10.365 -0.1363  1.8114 -0.4858
  237MOL0     H31945   6.328   9.240  10.244 -0.5708  0.2520 -1.6904
  237MOL0     H31946   6.075   8.941  10.314  0.1734 -0.0561 -0.2840
  237MOL0     H31947   6.256   8.633  10.273 -0.0921  0.8281  1.5668
  237MOL0     H31948   6.097   8.701  10.279  0.2055  3.2459 -0.0530
  237MOL0     H31949   6.246   8.732  10.016 -2.2046  1.4099 -2.6941
  237MOL0     H31950   6.076   8.728  10.032  1.4790  2.3631 -1.1843
  237MOL0     H31951   6.100   8.465  10.099  0.3104 -3.7088 -1.8950
  237MOL0     H31952   6.264   8.487  10.052 -1.6417 -2.1895 -0.8377
  237MOL0     H31953   6.206   8.526   9.836 -1.0302  1.5162 -0.0177
  237MOL0     H31954   6.046   8.576   9.852  0.1656  1.7560  0.1313
  237MOL0     H31955   6.260   8.314   9.679 -0.9388 -0.1686  0.8476
  237MOL0     H31956   6.268   8.273   9.321  1.5162 -1.0365 -0.4426
  237MOL0     H31957   6.340   8.308   9.475 -1.5842 -0.4854  2.3222
  237MOL0     H31958   6.285   8.142   9.437 -0.1448 -0.1569 -1.6502
  237MOL0     H31959   6.006   8.315   9.061  0.1578  2.8546  0.8348
  237MOL0     H31960   5.940   8.333   8.835 -0.7691  1.8869 -1.5770
  237MOL0     H31961   5.834   8.354   8.631  1.0762 -1.3636 -2.1200
  237MOL0     H31962   5.803   8.179   8.679 -1.4036 -1.4192 -1.3476
  237MOL0     H31963   5.801   8.202   8.442  1.0572  1.4199 -0.4197
  237MOL0     H31964   5.637   8.171   8.501 -0.5167  0.1857 -2.9866
  237MOL0     H31965   5.692   8.458   8.482 -1.8456 -0.0336  2.7690
  237MOL0     H31966   5.550   8.368   8.446 -0.2679 -0.3169 -4.4812
  237MOL0     H31967   5.780   8.381   8.266  0.3924 -0.5874  1.1034
  237MOL0     H31968   5.636   8.293   8.221  0.2320 -0.4563 -0.1796
  237MOL0     H31969   5.637   8.599   8.266 -1.5856 -0.8014  0.7241
  237MOL0     H31970   5.498   8.503   8.220  0.0912 -3.0121  3.9649
  237MOL0     H31971   5.746   8.538   8.045 -0.0335 -0.0040 -0.5131
  237MOL0     H31972   5.610   8.452   7.992  0.6596  0.4172 -0.9911
  237MOL0     H31973   5.654   8.742   8.048 -0.3437  2.2461 -1.2608
  237MOL0     H31974   5.484   8.685   8.056  0.6127  0.7240  0.3326
  237MOL0     H31975   5.683   8.724   7.827 -0.8473  0.6492 -2.2208
  237MOL0     H31976   5.533   8.810   7.847  1.8159  0.9440  0.1684
  237MOL0     H31977   5.525   8.308   8.967 -0.5735  1.2097  1.4571
  237MOL0     H31978   5.608   8.256   9.194  1.2005 -3.4216  0.4751
  237MOL0     H31979   5.791   8.279   9.525  0.7029 -4.8862 -2.3104
  237MOL0     H31980   5.838   8.343   9.752 -0.4538 -0.2718  0.5712
  237MOL0     H31981   6.463  10.179   9.756 -0.2329 -2.3889 -3.4127
  237MOL0     H31982   6.668  10.270   9.691  0.4342  0.9187  1.2029
  237MOL0     H31983   7.152  10.271   9.683 -3.4135 -1.6853 -0.9687
  237MOL0     H31984   7.348  10.348   9.574 -1.0290  2.1874 -0.2716
  237MOL0     H31985   7.633  10.293   9.339 -0.2973 -1.0275 -0.5280
  237MOL0     H31986   7.526  10.364   9.444  0.2425  1.0870 -0.1857
  237MOL0     H31987   7.575  10.176   9.616  0.1717 -1.1178 -0.1981
  237MOL0     H31988   7.727  10.248   9.552  1.0925 -1.7303  1.0803
  237MOL0     H31989   7.728  10.069   9.378  2.0849  0.1599  0.0239
  237MOL0     H31990   7.599   9.984   9.462 -0.7715  1.2248  0.0370
  237MOL0     H31991   7.795   9.883   9.536  3.0455  0.1546 -1.7397
  237MOL0     H31992   7.771  10.016   9.666 -0.3506  0.8385 -1.0005
  237MOL0     H31993   8.125  10.124   9.495 -1.5738  0.7433 -0.9746
  237MOL0     H31994   7.306  10.025   9.296  3.3709 -0.4040  1.1422
  237MOL0     H31995   7.080   9.979   9.385 -1.1842  0.7841  0.8525
  238MOL0     O31996  10.935   9.156   2.586 -0.4462 -0.5940  0.3945
  238MOL0     C31997  10.848   9.078   2.607  0.4790 -0.7308  0.3198
  238MOL0     O31998  10.741   9.046   2.526  0.7960  0.1794 -0.3856
  238MOL0     C31999  10.722   9.102   2.400  0.5209  0.3397 -0.2054
  238MOL0     C32000  10.592   9.090   2.361  0.3474  0.2704  0.1455
  238MOL0     C32001  10.546   9.147   2.250 -0.2270 -0.0934  0.4063
  238MOL0     C32002  10.634   9.208   2.163  0.3024  0.7578  0.1705
  238MOL0     O32003  10.590   9.265   2.042  0.2949 -0.3399  0.0196
  238MOL0     C32004  10.642   9.215   1.919 -0.8327 -0.9451  1.1817
  238MOL0     C32005  10.608   9.326   1.822 -0.2246 -0.2427 -0.4662
  238MOL0     C32006  10.687   9.318   1.698 -0.7544 -0.8007  0.6554
  238MOL0     C32007  10.647   9.438   1.605 -0.2833  0.2158  0.2701
  238MOL0     C32008  10.769   9.500   1.528 -0.1880  0.3191  0.4501
  238MOL0     C32009  10.736   9.583   1.401  0.5938  0.7926 -0.0719
  238MOL0     C32010  10.854   9.653   1.355  0.0910 -0.7242 -1.0364
  238MOL0     C32011  10.835   9.729   1.226 -0.1915  0.1392  0.5553
  238MOL0     N32012  10.974   9.750   1.165  0.2417  1.0661  0.0763
  238MOL0     C32013  11.057   9.853   1.195  0.7002  0.3926 -0.1721
  238MOL0     C32014  11.164   9.840   1.111  0.0880 -0.3602  0.4798
  238MOL0     C32015  11.270   9.943   1.067 -0.3473 -0.0960 -0.5898
  238MOL0     C32016  11.354   9.976   1.186 -1.1068  0.9894 -0.4655
  238MOL0     C32017  11.460   9.861   1.228 -1.4536 -0.4975 -0.0087
  238MOL0     C32018  11.421   9.796   1.365 -0.4835  0.4441  0.2172
  238MOL0     O32019  11.402   9.903   1.450  0.0435 -0.8129  0.4513
  238MOL0     C32020  11.364   9.878   1.575 -0.5192 -0.1629 -0.2992
  238MOL0     C32021  11.390   9.762   1.655  0.2243  0.6666  0.2646
  238MOL0     C32022  11.346   9.762   1.793  0.1303  0.1997  0.1815
  238MOL0     C32023  11.375   9.627   1.865  0.0626  0.5989 -0.2572
  238MOL0     C32024  11.294   9.871   1.855  0.3062 -0.6913  0.5030
  238MOL0     C32025  11.257   9.873   1.996 -0.7020 -1.2256 -1.0532
  238MOL0     O32026  11.334   9.802   2.091 -0.0900  0.0137  0.6432
  238MOL0     C32027  11.284   9.797   2.219  0.6130  0.9730 -0.6596
  238MOL0     C32028  11.161   9.757   2.263  0.3720  0.0278 -1.0325
  238MOL0     C32029  11.118   9.752   2.395  0.4847 -0.2183 -0.0271
  238MOL0     C32030  11.211   9.772   2.499  0.0984 -0.2847  0.0446
  238MOL0     O32031  11.164   9.769   2.623 -0.4611 -1.0328 -0.0943
  238MOL0     C32032  11.214   9.656   2.689  0.2276  0.5919  0.4005
  238MOL0     C32033  11.165   9.521   2.632  1.2600  0.1272 -0.2962
  238MOL0     C32034  11.264   9.414   2.693  0.4156  0.5518  1.0537
  238MOL0     C32035  11.210   9.276   2.671 -0.2534  0.0581  0.1486
  238MOL0     C32036  11.320   9.177   2.679 -0.2964 -0.1670  0.2483
  238MOL0     C32037  11.379   9.163   2.820  0.6266 -0.0762  0.1377
  238MOL0     C32038  11.461   9.033   2.825  0.7765 -0.2615  0.7351
  238MOL0     C32039  11.524   9.021   2.964 -0.7909 -0.3338  0.9276
  238MOL0    Cl32040  11.609   8.861   2.968 -0.0271  0.4400  0.1003
  238MOL0     C32041  11.338   9.807   2.464 -0.7046 -1.1179 -0.4845
  238MOL0     C32042  11.368   9.828   2.330 -0.0094  0.3374  0.7421
  238MOL0     O32043  11.169   9.950   2.028 -0.7859 -0.0918 -0.2581
  238MOL0     C32044  11.271   9.987   1.771  0.3800 -0.3335 -0.5052
  238MOL0     C32045  11.308   9.987   1.639 -0.4845 -0.6472  0.3836
  238MOL0     N32046  11.141   9.714   1.051  1.0374 -0.6078  0.5322
  238MOL0     N32047  11.029   9.663   1.076 -0.2140 -0.7821  0.5564
  238MOL0     C32048  10.765   9.235   2.203 -1.5199 -0.2152  0.6066
  238MOL0     C32049  10.812   9.177   2.326  0.3201 -0.3175 -0.3883
  238MOL0     C32050  10.846   9.021   2.743 -0.0986 -0.0824  0.0727
  238MOL0     C32051  10.729   8.964   2.807  0.3021 -0.1680 -0.2483
  238MOL0     C32052  10.735   8.908   2.934 -0.3722  1.9876 -0.4488
  238MOL0     C32053  10.856   8.915   3.016  0.3290  0.4518  0.7153
  238MOL0     O32054  10.874   8.842   3.129  0.0244 -0.1422  0.4606
  238MOL0     C32055  10.757   8.797   3.197 -0.5613  0.1346 -0.3475
  238MOL0     C32056  10.813   8.748   3.331 -0.3666  1.4222  0.4823
  238MOL0     C32057  10.720   8.753   3.454  0.0560 -1.3508 -0.1859
  238MOL0     C32058  10.785   8.813   3.583 -0.3221  0.0912 -0.0783
  238MOL0     C32059  10.686   8.839   3.684  0.1609  0.9171  0.2158
  238MOL0     C32060  10.609   8.879   3.774 -0.7503  0.0088  0.4085
  238MOL0     C32061  10.969   8.973   2.955 -0.6240 -0.0343  0.0017
  238MOL0     C32062  10.962   9.021   2.824 -0.1743  1.1693  0.6111
  238MOL0     H32063  10.515   9.051   2.427 -1.0325 -0.2948 -1.7036
  238MOL0     H32064  10.441   9.157   2.224 -0.5603 -3.0623  0.1780
  238MOL0     H32065  10.750   9.201   1.930 -0.7596 -0.3135  1.2978
  238MOL0     H32066  10.599   9.123   1.879 -1.3308  0.5398 -2.0243
  238MOL0     H32067  10.500   9.336   1.815 -0.1409  1.9256  0.5091
  238MOL0     H32068  10.632   9.425   1.864  2.4409 -0.8742 -0.2826
  238MOL0     H32069  10.795   9.319   1.711 -0.3631 -0.1851 -2.0649
  238MOL0     H32070  10.663   9.222   1.651  1.0321 -1.1282  0.3393
  238MOL0     H32071  10.568   9.400   1.539 -0.1701 -2.6141  1.5900
  238MOL0     H32072  10.611   9.530   1.652  1.8096  1.7176 -0.9128
  238MOL0     H32073  10.832   9.565   1.589 -0.4856  2.9589 -1.8456
  238MOL0     H32074  10.846   9.426   1.506  0.4542  2.0019 -3.8109
  238MOL0     H32075  10.703   9.518   1.320  0.8337  2.5373 -1.6489
  238MOL0     H32076  10.647   9.641   1.428 -1.8316 -3.1317  1.1780
  238MOL0     H32077  10.875   9.732   1.427 -3.0312 -0.0671 -0.7113
  238MOL0     H32078  10.946   9.593   1.348  1.5749  1.1995  0.6404
  238MOL0     H32079  10.785   9.825   1.239 -0.6373  0.5208 -2.9860
  238MOL0     H32080  10.774   9.670   1.156  0.1873  0.3958  0.0045
  238MOL0     H32081  11.040   9.945   1.251 -0.1817  0.3723 -0.3810
  238MOL0     H32082  11.330   9.921   0.979 -1.7916  0.9049 -1.8920
  238MOL0     H32083  11.214  10.035   1.046 -0.0529  0.3813  0.6340
  238MOL0     H32084  11.290   9.990   1.273 -1.1799  1.9858 -0.6742
  238MOL0     H32085  11.410  10.068   1.168 -0.3871  0.9062  1.1482
  238MOL0     H32086  11.564   9.892   1.231 -0.6744 -2.8150  4.0554
  238MOL0     H32087  11.468   9.776   1.158  0.0623  1.7628 -2.7959
  238MOL0     H32088  11.494   9.728   1.410  0.2224  1.0763  0.0581
  238MOL0     H32089  11.327   9.743   1.349 -2.0786  2.4002  2.3614
  238MOL0     H32090  11.444   9.682   1.605  0.0912  1.7497 -1.6915
  238MOL0     H32091  11.460   9.646   1.931 -0.7501 -1.0111  1.3547
  238MOL0     H32092  11.289   9.588   1.920  1.4339 -0.5879  1.1552
  238MOL0     H32093  11.405   9.550   1.792 -1.3366 -2.1284  1.8628
  238MOL0     H32094  11.087   9.743   2.184 -1.4669  3.2329 -0.0587
  238MOL0     H32095  11.017   9.727   2.425  0.4910 -1.6660 -1.1272
  238MOL0     H32096  11.323   9.661   2.686  0.5656 -2.7125  2.0965
  238MOL0     H32097  11.185   9.664   2.794 -0.1658 -1.0305  0.4428
  238MOL0     H32098  11.062   9.501   2.661  1.2221  1.2964  0.4384
  238MOL0     H32099  11.171   9.522   2.523  1.8340  1.8351 -0.2771
  238MOL0     H32100  11.285   9.442   2.797  3.2318  2.3282  0.1150
  238MOL0     H32101  11.362   9.417   2.646 -0.2223  1.2619 -0.2808
  238MOL0     H32102  11.144   9.256   2.756  0.7417 -0.5719  0.7905
  238MOL0     H32103  11.171   9.263   2.570  1.5806  0.9480 -0.7235
  238MOL0     H32104  11.400   9.204   2.610 -1.1730  2.5313  0.1716
  238MOL0     H32105  11.283   9.075   2.659  1.4909 -1.1279  1.5751
  238MOL0     H32106  11.434   9.256   2.840 -1.7378  2.1336 -2.7213
  238MOL0     H32107  11.288   9.159   2.880 -0.8151  2.1717 -1.7234
  238MOL0     H32108  11.544   9.033   2.753 -2.2259 -0.0611 -3.0821
  238MOL0     H32109  11.393   8.948   2.818  1.1645 -0.4900 -0.6586
  238MOL0     H32110  11.432   9.028   3.024  1.0762  3.2349  3.7826
  238MOL0     H32111  11.587   9.110   2.979  2.0193 -1.5424 -2.4064
  238MOL0     H32112  11.406   9.853   2.535 -1.0759  0.6510 -1.2179
  238MOL0     H32113  11.475   9.847   2.321 -0.3719  1.5797 -2.0844
  238MOL0     H32114  11.218  10.072   1.812 -0.7719  0.7157 -3.7892
  238MOL0     H32115  11.272  10.077   1.590 -1.6916 -2.1043 -1.5557
  238MOL0     H32116  10.838   9.292   2.148 -2.1722 -1.8277 -2.1071
  238MOL0     H32117  10.906   9.207   2.371 -0.5229 -1.2148  2.1383
  238MOL0     H32118  10.648   8.955   2.736 -0.7612  0.7374  0.8177
  238MOL0     H32119  10.648   8.847   2.954  2.4389 -2.2466  0.2432
  238MOL0     H32120  10.684   8.879   3.197  0.5784  1.2338  1.5733
  238MOL0     H32121  10.705   8.708   3.160 -2.0469 -0.7423  3.4075
  238MOL0     H32122  10.907   8.798   3.360  1.7829 -1.7269 -0.5619
  238MOL0     H32123  10.848   8.645   3.330  0.1368  1.5292  2.2813
  238MOL0     H32124  10.677   8.657   3.483  0.8863 -1.7058 -0.1150
  238MOL0     H32125  10.639   8.821   3.423  1.3841  1.1554  1.4940
  238MOL0     H32126  10.832   8.905   3.547  0.7588 -0.9230 -1.3863
  238MOL0     H32127  10.869   8.750   3.614  0.5225  0.3310 -1.7659
  238MOL0     H32128  10.544   8.929   3.842  2.5739 -0.3731  4.2429
  238MOL0     H32129  11.066   8.965   3.003  0.5020  1.8366 -1.7843
  238MOL0     H32130  11.057   9.069   2.801  2.1694 -2.3412  2.0046
  239MOL0     O32131   5.468   4.950   6.435  0.6682  1.0441 -0.9190
  239MOL0     C32132   5.479   5.069   6.415 -0.6352 -0.8854 -0.1317
  239MOL0     O32133   5.553   5.124   6.312  0.2847  0.0254 -0.0073
  239MOL0     C32134   5.626   5.045   6.229 -0.0678 -0.6863 -0.5785
  239MOL0     C32135   5.585   4.921   6.174 -0.9185 -0.6027 -0.6826
  239MOL0     C32136   5.676   4.835   6.107  0.8923  0.1624  0.3131
  239MOL0     C32137   5.811   4.858   6.106 -0.5201  0.1584 -0.7016
  239MOL0     O32138   5.899   4.779   6.043 -1.2418  0.2933 -0.6072
  239MOL0     C32139   6.038   4.785   6.077 -0.8237  0.1258 -0.4909
  239MOL0     C32140   6.088   4.634   6.054  0.4098 -0.2951  0.0795
  239MOL0     C32141   6.015   4.523   6.112  0.0158  0.3881  0.0788
  239MOL0     C32142   6.105   4.398   6.080  0.3331  0.4714  0.0421
  239MOL0     C32143   6.026   4.278   6.125 -0.1255 -0.2518  0.0649
  239MOL0     C32144   6.100   4.145   6.122 -0.7759  0.2875 -0.4325
  239MOL0     C32145   6.027   4.054   6.215  0.9762  0.2709 -0.8772
  239MOL0     C32146   6.074   3.922   6.206 -0.2341  0.1723 -0.1546
  239MOL0     N32147   6.205   3.902   6.265 -0.3664  0.7489  0.2528
  239MOL0     C32148   6.327   3.901   6.191 -0.0141  0.0863 -0.6968
  239MOL0     C32149   6.422   3.864   6.288 -0.0182  0.9014  0.2160
  239MOL0     C32150   6.566   3.859   6.248  0.1598 -0.2366  0.0255
  239MOL0     C32151   6.593   3.769   6.121  0.6206 -0.1850 -0.3104
  239MOL0     C32152   6.528   3.627   6.137 -0.8914  0.8663 -0.0019
  239MOL0     C32153   6.563   3.561   6.267  0.3450 -0.0727  1.0347
  239MOL0     O32154   6.528   3.421   6.258 -0.2423  0.3549  0.1350
  239MOL0     C32155   6.413   3.368   6.322  0.3431 -0.3328  0.5855
  239MOL0     C32156   6.404   3.229   6.293  0.6819  0.4903 -0.8921
  239MOL0     C32157   6.282   3.162   6.316 -0.2982  0.2167  0.5601
  239MOL0     C32158   6.280   3.015   6.293 -0.3079 -0.1403 -0.4838
  239MOL0     C32159   6.186   3.235   6.389 -0.2677 -0.5204 -0.0021
  239MOL0     C32160   6.060   3.177   6.413  0.1692  0.7204  0.1152
  239MOL0     O32161   5.998   3.130   6.296 -0.1972  0.3996  0.0898
  239MOL0     C32162   5.867   3.081   6.302  0.6055  0.3988 -0.2366
  239MOL0     C32163   5.776   3.136   6.206  0.0451  0.8656  1.3268
  239MOL0     C32164   5.644   3.098   6.196 -0.3331  0.4386  0.3762
  239MOL0     C32165   5.601   3.011   6.298  0.2959  0.0695 -0.1332
  239MOL0     O32166   5.467   2.979   6.295 -0.2999  0.1622  0.2577
  239MOL0     C32167   5.431   2.844   6.271  0.5031 -0.5127 -0.6718
  239MOL0     C32168   5.278   2.829   6.268 -0.3843 -0.7477  0.3531
  239MOL0     C32169   5.236   2.707   6.191 -0.6646  0.5533 -0.2647
  239MOL0     C32170   5.090   2.663   6.214  0.2731 -0.0493 -0.9719
  239MOL0     C32171   4.985   2.771   6.164 -0.0844 -0.6579 -0.9961
  239MOL0     C32172   4.849   2.709   6.170  0.0237  0.2828 -0.4650
  239MOL0     C32173   4.745   2.806   6.125  0.3595 -0.0715 -0.3035
  239MOL0     C32174   4.615   2.746   6.070  0.1732  0.6003 -0.1587
  239MOL0    Cl32175   4.537   2.637   6.188  0.1550  0.2975  0.3736
  239MOL0     C32176   5.686   2.955   6.395  0.6116 -0.1422  0.6893
  239MOL0     C32177   5.824   2.987   6.390  0.0345  0.1010 -0.5808
  239MOL0     O32178   6.012   3.178   6.529  0.2464 -0.8168  0.4878
  239MOL0     C32179   6.203   3.371   6.427 -1.0435  0.7599  0.0992
  239MOL0     C32180   6.316   3.436   6.390  0.1279  0.4284 -0.1622
  239MOL0     N32181   6.358   3.829   6.401  0.2375  0.4920 -0.8802
  239MOL0     N32182   6.233   3.850   6.388  0.0606 -0.2678 -0.1974
  239MOL0     C32183   5.851   4.978   6.169  0.1326 -0.2182  1.1237
  239MOL0     C32184   5.763   5.074   6.221 -0.3850 -0.1164 -0.2134
  239MOL0     C32185   5.423   5.150   6.522  0.2725 -1.2339 -0.5118
  239MOL0     C32186   5.325   5.100   6.608 -0.4309 -0.0286  0.5765
  239MOL0     C32187   5.301   5.182   6.719 -0.2730 -0.7853 -1.3890
  239MOL0     C32188   5.377   5.299   6.755  0.1134 -0.7590 -0.1238
  239MOL0     O32189   5.376   5.375   6.864  0.6861 -0.1875  0.4909
  239MOL0     C32190   5.322   5.308   6.980 -0.2195  0.0569  0.1956
  239MOL0     C32191   5.375   5.357   7.108 -0.1771  0.3902 -0.1419
  239MOL0     C32192   5.378   5.514   7.119 -0.9866  0.3988  0.1858
  239MOL0     C32193   5.427   5.570   7.253 -0.7669  1.1041  0.7137
  239MOL0     C32194   5.564   5.520   7.283  0.4369  0.8062 -0.3314
  239MOL0     C32195   5.676   5.488   7.317  0.3538 -0.3032 -1.1783
  239MOL0     C32196   5.478   5.339   6.671  0.0134  0.0713  0.7016
  239MOL0     C32197   5.497   5.268   6.554 -0.5237 -0.1862  0.4120
  239MOL0     H32198   5.482   4.889   6.183 -1.4240  0.5686 -2.0550
  239MOL0     H32199   5.638   4.737   6.081 -0.6663  0.5135  1.1359
  239MOL0     H32200   6.095   4.858   6.019 -0.0998  0.8976  1.1176
  239MOL0     H32201   6.051   4.814   6.182  0.5730  2.9203 -1.3537
  239MOL0     H32202   6.103   4.621   5.947  0.1898 -2.6297  0.2693
  239MOL0     H32203   6.187   4.624   6.099  0.2389  0.2672  0.5851
  239MOL0     H32204   6.008   4.524   6.221  3.1469  0.2347  0.3672
  239MOL0     H32205   5.916   4.509   6.068  0.1814 -1.4803  0.2474
  239MOL0     H32206   6.113   4.382   5.972  0.3161  0.7978 -0.0102
  239MOL0     H32207   6.204   4.410   6.124  0.1626 -1.2986  0.9702
  239MOL0     H32208   5.974   4.287   6.221 -0.3835  2.1819 -0.2520
  239MOL0     H32209   5.938   4.265   6.061 -0.2626 -1.2495  0.4385
  239MOL0     H32210   6.103   4.105   6.021  1.3403 -1.0047  0.0928
  239MOL0     H32211   6.201   4.145   6.164 -0.8399  1.5467 -0.2468
  239MOL0     H32212   6.041   4.085   6.319 -0.9587 -0.2131 -0.4261
  239MOL0     H32213   5.921   4.041   6.188  0.8629 -0.3957 -0.1474
  239MOL0     H32214   6.076   3.880   6.104  1.0492 -1.3321  0.4387
  239MOL0     H32215   5.994   3.856   6.241 -0.3907  0.4326 -0.0195
  239MOL0     H32216   6.337   3.926   6.086 -3.3665  1.2046 -0.8715
  239MOL0     H32217   6.607   3.960   6.251 -1.1135  0.4265 -2.1938
  239MOL0     H32218   6.622   3.806   6.325 -1.9489 -1.2404  0.9528
  239MOL0     H32219   6.699   3.753   6.098 -0.1358 -4.5198 -1.5142
  239MOL0     H32220   6.547   3.826   6.040 -0.1853 -0.1944  0.1329
  239MOL0     H32221   6.578   3.566   6.060 -1.4927 -0.3295  0.5335
  239MOL0     H32222   6.419   3.619   6.125 -0.8571  0.1932  0.1302
  239MOL0     H32223   6.507   3.607   6.349  1.6466  3.2047  0.2456
  239MOL0     H32224   6.668   3.563   6.297 -0.1825 -3.3229  3.7122
  239MOL0     H32225   6.492   3.188   6.244 -0.1473 -4.2401  1.0163
  239MOL0     H32226   6.287   2.954   6.383  0.6022 -1.3801 -1.3492
  239MOL0     H32227   6.196   2.977   6.234  0.3447 -0.7611 -1.0336
  239MOL0     H32228   6.359   2.983   6.224 -1.3144  1.5778 -2.5679
  239MOL0     H32229   5.803   3.206   6.128  3.2077 -1.2778  0.2841
  239MOL0     H32230   5.584   3.137   6.114  0.1935 -1.5353 -1.0439
  239MOL0     H32231   5.475   2.811   6.177  1.8111  1.4987 -0.8168
  239MOL0     H32232   5.471   2.786   6.355 -0.9064  1.8913  1.8327
  239MOL0     H32233   5.249   2.824   6.373 -1.6396 -0.4652  0.0457
  239MOL0     H32234   5.233   2.915   6.216 -2.5918 -2.2775 -0.4336
  239MOL0     H32235   5.292   2.618   6.221  0.3237  1.0466 -0.6171
  239MOL0     H32236   5.257   2.712   6.084  1.7370 -2.6778 -0.0953
  239MOL0     H32237   5.065   2.567   6.167 -0.2517  0.1763 -1.1513
  239MOL0     H32238   5.067   2.659   6.321  0.5316 -0.2618 -0.9229
  239MOL0     H32239   5.014   2.796   6.062  0.9911 -0.3506 -0.6320
  239MOL0     H32240   4.985   2.859   6.230  1.1689 -0.0445 -1.7810
  239MOL0     H32241   4.858   2.620   6.107  1.2085 -0.5492  0.8387
  239MOL0     H32242   4.834   2.668   6.270  3.7710 -1.3944 -0.4253
  239MOL0     H32243   4.765   2.882   6.049 -1.6804 -0.1110 -0.9570
  239MOL0     H32244   4.730   2.868   6.214  3.6645  1.3105 -0.5827
  239MOL0     H32245   4.635   2.685   5.982  0.8107  0.2453  0.2244
  239MOL0     H32246   4.541   2.820   6.042 -0.2745 -1.1264 -4.1444
  239MOL0     H32247   5.647   2.881   6.464 -0.8505  0.8476  0.9666
  239MOL0     H32248   5.892   2.954   6.469  0.3772 -2.6765 -1.8948
  239MOL0     H32249   6.133   3.423   6.491 -0.1303  1.2902  0.6965
  239MOL0     H32250   6.312   3.540   6.420  0.1368  0.0075  1.3789
  239MOL0     H32251   5.955   5.006   6.178  0.0705  0.9763 -1.1560
  239MOL0     H32252   5.800   5.159   6.277 -0.4149  0.3295 -0.8649
  239MOL0     H32253   5.273   5.008   6.583 -0.7451  0.0314  0.9920
  239MOL0     H32254   5.219   5.156   6.784 -0.2527  0.1860 -0.9708
  239MOL0     H32255   5.216   5.335   6.979 -0.1753  0.2358 -0.4514
  239MOL0     H32256   5.341   5.200   6.985 -0.2669  0.0120 -0.5017
  239MOL0     H32257   5.477   5.318   7.117  0.0914  0.6277 -1.7611
  239MOL0     H32258   5.306   5.313   7.180 -0.1039 -0.2999 -0.4840
  239MOL0     H32259   5.273   5.541   7.103 -1.3357 -1.1823 -0.4583
  239MOL0     H32260   5.448   5.543   7.041 -1.4647  0.1045 -0.3539
  239MOL0     H32261   5.361   5.533   7.332  2.6336 -2.8707  2.0963
  239MOL0     H32262   5.422   5.679   7.256  0.6664  1.2074  0.2949
  239MOL0     H32263   5.771   5.465   7.360 -0.3792  0.1621  0.7989
  239MOL0     H32264   5.539   5.422   6.706  2.9218 -1.3627 -0.6136
  239MOL0     H32265   5.573   5.296   6.482 -2.6841 -0.9578 -2.3410
  240MOL0     O32266   7.067   2.969  10.099 -0.5304 -1.2451 -0.2810
  240MOL0     C32267   7.102   3.002   9.988  1.1262 -0.4404 -0.5207
  240MOL0     O32268   7.034   2.958   9.878  0.3741 -0.5453  0.0176
  240MOL0     C32269   6.935   2.864   9.896 -0.4905 -0.8988  0.0092
  240MOL0     C32270   6.946   2.745   9.974 -0.2811 -0.8894 -0.2250
  240MOL0     C32271   6.832   2.664   9.995 -0.0935  0.5919  0.1286
  240MOL0     C32272   6.720   2.670   9.919 -0.4732 -0.5558 -0.4472
  240MOL0     O32273   6.618   2.591   9.958  0.4797 -0.0186 -0.2446
  240MOL0     C32274   6.483   2.627   9.917  0.5471  0.2889  0.1456
  240MOL0     C32275   6.383   2.517   9.969  0.2786 -0.5589  0.2249
  240MOL0     C32276   6.248   2.513   9.884 -1.3148  0.3937 -0.2708
  240MOL0     C32277   6.166   2.627   9.932  0.1595 -0.0307 -0.2760
  240MOL0     C32278   6.028   2.630   9.869 -0.3878  0.4873 -0.1060
  240MOL0     C32279   5.937   2.508   9.893 -0.2460  0.0424  1.0761
  240MOL0     C32280   5.790   2.550   9.867  0.1105 -0.0340  1.5676
  240MOL0     C32281   5.682   2.462   9.929 -0.2577 -0.6632 -0.3323
  240MOL0     N32282   5.546   2.515   9.898  0.2704  0.0634  0.3286
  240MOL0     C32283   5.426   2.479   9.963 -0.5341 -0.1079 -0.9291
  240MOL0     C32284   5.327   2.516   9.875  0.4563 -0.0437 -0.6267
  240MOL0     C32285   5.186   2.480   9.886  0.5829 -0.2028  0.4489
  240MOL0     C32286   5.081   2.594   9.915 -0.6711  0.0176 -1.2690
  240MOL0     C32287   5.071   2.697   9.805  1.3206 -1.0466 -0.8873
  240MOL0     C32288   4.947   2.785   9.815 -0.2981 -0.1399 -0.2469
  240MOL0     O32289   4.850   2.720   9.730 -0.2105 -0.3955  0.4374
  240MOL0     C32290   4.732   2.792   9.688  0.6337 -1.3686  0.0762
  240MOL0     C32291   4.622   2.714   9.673 -0.9124 -0.1933 -0.2897
  240MOL0     C32292   4.500   2.764   9.631 -0.8193  0.1802 -0.1742
  240MOL0     C32293   4.396   2.660   9.599  0.7335 -0.1294 -0.7853
  240MOL0     C32294   4.490   2.906   9.619  0.6767  0.3348 -1.1099
  240MOL0     C32295   4.364   2.967   9.577 -1.2344  0.5562 -0.4489
  240MOL0     O32296   4.371   3.058   9.468  0.0707 -0.6442  0.1705
  240MOL0     C32297   4.248   3.129   9.445 -0.5509 -0.1253 -0.6788
  240MOL0     C32298   4.149   3.057   9.386 -0.3543 -0.1762  0.0436
  240MOL0     C32299   4.025   3.119   9.366  0.5526 -0.9013 -0.6931
  240MOL0     C32300   3.999   3.251   9.416  0.1959  0.1773  0.1984
  240MOL0     O32301   3.892   3.316   9.372  0.3273  0.1570 -0.3450
  240MOL0     C32302   3.770   3.273   9.444 -0.6741 -0.6957 -1.6394
  240MOL0     C32303   3.637   3.316   9.396 -0.3993  0.0709 -0.1660
  240MOL0     C32304   3.532   3.276   9.503 -0.2361  1.1732  0.5526
  240MOL0     C32305   3.397   3.317   9.451 -0.7549  0.3199  0.4611
  240MOL0     C32306   3.372   3.469   9.418 -0.3732 -0.0021  0.3997
  240MOL0     C32307   3.260   3.498   9.311 -0.5396  0.2533  0.9862
  240MOL0     C32308   3.272   3.640   9.249 -0.8839  0.1833 -0.5304
  240MOL0     C32309   3.167   3.676   9.147  0.4132 -0.5873 -0.1752
  240MOL0    Cl32310   3.178   3.564   8.997 -0.2942 -0.0293 -0.3513
  240MOL0     C32311   4.097   3.317   9.480 -0.2102  0.5155 -0.4025
  240MOL0     C32312   4.225   3.265   9.494  0.7955  0.1201 -0.5213
  240MOL0     O32313   4.260   2.931   9.636 -0.0156 -0.3848 -0.2440
  240MOL0     C32314   4.597   2.985   9.634  0.1580 -0.9370  0.4207
  240MOL0     C32315   4.722   2.931   9.660 -0.2717  0.0881  0.3948
  240MOL0     N32316   5.378   2.595   9.775  0.3292 -0.3126  0.8472
  240MOL0     N32317   5.509   2.597   9.796  0.4032 -0.1908  0.8548
  240MOL0     C32318   6.713   2.776   9.826 -0.4094  0.7830 -0.4433
  240MOL0     C32319   6.821   2.871   9.818 -0.1952 -0.1756  0.6559
  240MOL0     C32320   7.229   3.065   9.972  0.6226  0.1931  0.0595
  240MOL0     C32321   7.292   3.121  10.086 -0.7650  1.0587 -0.9137
  240MOL0     C32322   7.422   3.165  10.074 -0.2100 -0.4466 -0.9403
  240MOL0     C32323   7.484   3.173   9.952 -0.5445  0.3093  0.0306
  240MOL0     O32324   7.612   3.226   9.941 -0.1107 -0.4279  0.2886
  240MOL0     C32325   7.665   3.276   9.821  0.8595  0.6426 -0.8594
  240MOL0     C32326   7.760   3.390   9.847 -0.3753  0.6281 -0.1239
  240MOL0     C32327   7.894   3.345   9.825 -1.2819  0.8874 -0.3015
  240MOL0     C32328   7.942   3.251   9.945  0.0212  0.7894 -0.5408
  240MOL0     C32329   8.078   3.210   9.948  0.3554 -0.0866 -0.0260
  240MOL0     C32330   8.184   3.161   9.941 -0.2300  0.2649 -0.7974
  240MOL0     C32331   7.423   3.111   9.837 -1.3292 -0.3908  0.4268
  240MOL0     C32332   7.300   3.063   9.849  0.9450  0.1445 -0.0860
  240MOL0     H32333   7.031   2.735  10.041 -0.9113 -2.3494  0.4203
  240MOL0     H32334   6.844   2.582  10.065  0.1807  1.5853  1.2919
  240MOL0     H32335   6.444   2.723   9.950  0.7873 -0.4526  2.8494
  240MOL0     H32336   6.479   2.629   9.808 -0.2560  0.0239  0.1587
  240MOL0     H32337   6.438   2.423   9.963  2.5092  0.7490 -3.3973
  240MOL0     H32338   6.358   2.540  10.073  1.2341  3.3751 -0.2424
  240MOL0     H32339   6.282   2.537   9.782  1.9674  4.4671  1.4570
  240MOL0     H32340   6.212   2.411   9.896  4.3409 -1.6769  2.3744
  240MOL0     H32341   6.144   2.609  10.037 -1.5798  1.8050 -0.2597
  240MOL0     H32342   6.230   2.716   9.922  2.0249 -1.1398  1.1089
  240MOL0     H32343   5.980   2.714   9.920 -1.9335 -0.1489 -0.4686
  240MOL0     H32344   6.030   2.649   9.761  1.1727 -1.3142 -0.4452
  240MOL0     H32345   5.949   2.416   9.837  1.5459  0.0088  1.4554
  240MOL0     H32346   5.936   2.479   9.999 -0.0016  0.6822  1.2633
  240MOL0     H32347   5.787   2.654   9.900  0.1766  1.3982 -2.3379
  240MOL0     H32348   5.784   2.560   9.758  1.4877  1.4774  1.5954
  240MOL0     H32349   5.690   2.453  10.038 -1.0073  0.3371 -0.1797
  240MOL0     H32350   5.694   2.356   9.905 -3.2834 -2.0210  3.1570
  240MOL0     H32351   5.412   2.406  10.042  1.0220 -0.5055 -0.9825
  240MOL0     H32352   5.149   2.427   9.797 -2.1151  0.3615  1.1235
  240MOL0     H32353   5.179   2.408   9.967 -1.0191 -1.0150 -0.3531
  240MOL0     H32354   5.098   2.640  10.012  2.3037 -5.1406  1.1093
  240MOL0     H32355   4.980   2.552   9.921 -1.6039  2.1969 -0.8478
  240MOL0     H32356   5.079   2.660   9.702  2.1564 -1.2903 -0.7426
  240MOL0     H32357   5.156   2.766   9.816  0.6500 -0.1535 -1.1975
  240MOL0     H32358   4.977   2.884   9.778 -1.0116  1.6273  3.3775
  240MOL0     H32359   4.906   2.813   9.913 -2.2952  2.5941 -1.7146
  240MOL0     H32360   4.632   2.607   9.686 -1.3838 -0.4995 -2.1300
  240MOL0     H32361   4.346   2.685   9.505 -0.2057 -0.8853 -0.4988
  240MOL0     H32362   4.445   2.562   9.598 -1.1164 -1.1405  0.7109
  240MOL0     H32363   4.319   2.655   9.677  0.5138  1.5255 -0.8672
  240MOL0     H32364   4.155   2.954   9.353  0.4394  0.3910 -1.7246
  240MOL0     H32365   3.955   3.055   9.314  1.8829 -3.8418  0.8592
  240MOL0     H32366   3.763   3.164   9.448  1.4935 -0.8458  1.3823
  240MOL0     H32367   3.784   3.292   9.551 -1.9535 -1.2961 -1.3436
  240MOL0     H32368   3.639   3.423   9.377 -2.4566  0.8608  3.2279
  240MOL0     H32369   3.621   3.251   9.310  4.1078 -1.9382  0.1734
  240MOL0     H32370   3.551   3.322   9.601  0.8421 -3.0814  2.5815
  240MOL0     H32371   3.536   3.167   9.514 -4.3747  1.0023  2.3740
  240MOL0     H32372   3.373   3.264   9.358 -0.3036  0.4248  0.2823
  240MOL0     H32373   3.327   3.283   9.528  0.0779  0.3572  1.2522
  240MOL0     H32374   3.463   3.524   9.391  0.4613 -0.3873  2.2784
  240MOL0     H32375   3.334   3.515   9.509 -1.7770  1.1771 -0.7300
  240MOL0     H32376   3.269   3.419   9.235 -3.4134 -0.0680  0.8756
  240MOL0     H32377   3.157   3.488   9.345 -2.3887 -0.3687 -3.9318
  240MOL0     H32378   3.370   3.645   9.201 -0.5826  1.3476  0.1824
  240MOL0     H32379   3.267   3.708   9.334 -1.4212  0.1785 -0.5557
  240MOL0     H32380   3.175   3.779   9.112  0.5974 -0.2951  0.6963
  240MOL0     H32381   3.068   3.657   9.190  0.8608 -0.0224  1.1648
  240MOL0     H32382   4.078   3.421   9.505  1.2034  0.7660 -0.3065
  240MOL0     H32383   4.311   3.315   9.537  1.1212 -0.4211 -0.5289
  240MOL0     H32384   4.590   3.094   9.628  0.7852 -0.9189  0.0555
  240MOL0     H32385   4.807   2.988   9.697 -0.9614  0.2284  1.8485
  240MOL0     H32386   6.622   2.786   9.768 -0.4542  0.0399 -0.5158
  240MOL0     H32387   6.806   2.930   9.728 -0.5789 -0.6624  0.3897
  240MOL0     H32388   7.245   3.121  10.184  0.8673  0.8669 -0.0855
  240MOL0     H32389   7.472   3.203  10.163  0.7960 -0.7669 -1.3510
  240MOL0     H32390   7.715   3.200   9.760 -1.1822  1.1632 -3.3414
  240MOL0     H32391   7.590   3.309   9.749  0.7259  0.7370 -0.6764
  240MOL0     H32392   7.758   3.428   9.950  2.4819 -1.6218  0.8885
  240MOL0     H32393   7.741   3.474   9.779 -2.3260  1.6318  1.5505
  240MOL0     H32394   7.966   3.428   9.822  0.1646 -0.3235 -0.1244
  240MOL0     H32395   7.912   3.298   9.728  0.2762  0.6316  0.0797
  240MOL0     H32396   7.879   3.167   9.916  1.5116  0.0098 -1.6265
  240MOL0     H32397   7.928   3.303  10.040  1.8744 -2.7422  1.8857
  240MOL0     H32398   8.280   3.112   9.944  0.2761  1.2798  0.3697
  240MOL0     H32399   7.462   3.112   9.735 -1.6507 -1.7339  0.2777
  240MOL0     H32400   7.254   3.027   9.757  3.1729  1.8459 -1.9995
  241MOL0     O32401   8.435   2.574   3.609  0.1309 -0.1754  0.0272
  241MOL0     C32402   8.453   2.456   3.584 -0.1610  0.4324  1.2365
  241MOL0     O32403   8.567   2.402   3.541  0.8150 -0.1516 -0.0797
  241MOL0     C32404   8.683   2.476   3.513 -0.4726 -0.4762  0.6421
  241MOL0     C32405   8.691   2.615   3.486  0.2884  0.3280 -0.2462
  241MOL0     C32406   8.811   2.678   3.450  0.0555 -0.0027 -0.4220
  241MOL0     C32407   8.928   2.602   3.443  0.0744 -0.1488  0.2358
  241MOL0     O32408   9.043   2.642   3.382 -0.3608 -0.3287  0.3790
  241MOL0     C32409   9.055   2.774   3.322 -0.3137 -0.2138  0.2138
  241MOL0     C32410   9.207   2.792   3.283  0.2904 -0.0628  0.0287
  241MOL0     C32411   9.294   2.814   3.401  0.1323 -0.2264  0.6269
  241MOL0     C32412   9.445   2.829   3.358 -0.1344  0.4250  1.0972
  241MOL0     C32413   9.549   2.794   3.461  1.4086 -0.4001 -0.2844
  241MOL0     C32414   9.687   2.795   3.396  0.0661  0.5709  0.7224
  241MOL0     C32415   9.807   2.793   3.490 -0.2257  0.1238  1.4682
  241MOL0     C32416   9.795   2.914   3.582  0.2961  0.7329  0.7374
  241MOL0     N32417   9.915   2.926   3.664  0.6966 -0.2756  0.3330
  241MOL0     C32418  10.003   2.828   3.718  0.3806  0.4963  0.6364
  241MOL0     C32419  10.094   2.891   3.788 -0.2107  0.7673  0.2079
  241MOL0     C32420  10.194   2.836   3.884 -0.6951 -0.2306  0.1576
  241MOL0     C32421  10.126   2.789   4.021  0.4132 -0.6357 -0.5144
  241MOL0     C32422  10.040   2.908   4.081  0.1571  0.3430  0.3864
  241MOL0     C32423  10.028   2.895   4.222  0.2999  0.2085 -0.1736
  241MOL0     O32424   9.968   2.777   4.259  0.3478  0.1173 -0.4322
  241MOL0     C32425   9.941   2.778   4.391  0.2315 -0.2371 -0.1295
  241MOL0     C32426  10.044   2.737   4.475 -0.5626  0.4310 -0.3083
  241MOL0     C32427  10.032   2.724   4.613 -0.3103  0.2329 -0.3855
  241MOL0     C32428  10.162   2.692   4.683 -0.3475  0.5678 -0.8243
  241MOL0     C32429   9.911   2.753   4.674 -0.1718 -0.4958 -0.3308
  241MOL0     C32430   9.881   2.755   4.818  0.7828  0.4345 -0.1351
  241MOL0     O32431   9.966   2.700   4.899 -0.2768 -0.2300 -0.2137
  241MOL0     C32432   9.929   2.689   5.036 -0.0469 -0.6529 -0.4162
  241MOL0     C32433   9.996   2.771   5.132  0.4800  0.7705  0.3179
  241MOL0     C32434   9.969   2.766   5.262 -0.2792  0.3523 -0.1529
  241MOL0     C32435   9.878   2.668   5.313 -0.6335  0.2271  0.6813
  241MOL0     O32436   9.853   2.647   5.448  0.0671  0.4257  0.1226
  241MOL0     C32437   9.819   2.753   5.534 -0.2021 -0.0477  0.7877
  241MOL0     C32438   9.677   2.715   5.593 -0.0064 -0.0394  0.8637
  241MOL0     C32439   9.604   2.829   5.649  0.0685  0.2739 -0.1037
  241MOL0     C32440   9.660   2.883   5.784 -0.5286  0.2190  0.0216
  241MOL0     C32441   9.580   2.994   5.844  0.0146  1.3004 -0.3642
  241MOL0     C32442   9.607   3.134   5.777 -0.8106  0.1959 -0.0558
  241MOL0     C32443   9.519   3.245   5.846  0.8822 -0.0892  0.1927
  241MOL0     C32444   9.534   3.390   5.811 -0.4069 -0.5386  0.0721
  241MOL0    Cl32445   9.505   3.421   5.643  0.0635 -0.2792  0.1556
  241MOL0     C32446   9.808   2.584   5.221 -0.1717  0.9516  0.0327
  241MOL0     C32447   9.842   2.592   5.087  0.5134 -0.7732 -0.0265
  241MOL0     O32448   9.779   2.813   4.858 -0.1399  0.4771 -0.5396
  241MOL0     C32449   9.807   2.796   4.589  0.0220  0.6764 -0.1878
  241MOL0     C32450   9.823   2.807   4.454 -0.5917  0.0936  0.9770
  241MOL0     N32451  10.065   3.030   3.776 -0.3749  0.6764  0.1191
  241MOL0     N32452   9.966   3.049   3.694  0.4639  0.0853  0.4123
  241MOL0     C32453   8.921   2.471   3.479 -0.3282  0.4300  0.6562
  241MOL0     C32454   8.803   2.410   3.509 -0.3089 -0.2047 -0.2453
  241MOL0     C32455   8.339   2.355   3.597  1.2022 -0.1236  0.0225
  241MOL0     C32456   8.211   2.394   3.650 -0.1657 -0.1541  0.2574
  241MOL0     C32457   8.114   2.302   3.666  0.5284  0.3307 -0.8559
  241MOL0     C32458   8.129   2.171   3.623 -0.0697  0.0081  0.0447
  241MOL0     O32459   8.026   2.078   3.655 -0.1646 -0.3259 -0.8114
  241MOL0     C32460   8.047   1.941   3.620 -1.2874 -0.1331 -0.2186
  241MOL0     C32461   8.126   1.868   3.728  0.2096  0.1519 -0.2246
  241MOL0     C32462   8.076   1.899   3.873  0.2834 -0.0279 -0.8517
  241MOL0     C32463   8.129   1.806   3.976  0.1666 -0.0634 -0.2059
  241MOL0     C32464   8.276   1.823   4.010 -0.2351  0.6608  0.4366
  241MOL0     C32465   8.396   1.845   4.020 -1.1047 -1.6336  0.4138
  241MOL0     C32466   8.257   2.138   3.568  0.9055  0.7814 -0.1207
  241MOL0     C32467   8.349   2.231   3.545  0.1159 -0.3647  0.0484
  241MOL0     H32468   8.594   2.662   3.474  0.9306  1.2535 -2.3035
  241MOL0     H32469   8.804   2.784   3.433 -1.6950 -0.1163 -0.6018
  241MOL0     H32470   8.994   2.795   3.234  3.5553  0.5826 -2.5609
  241MOL0     H32471   9.030   2.845   3.402  0.3844 -0.2540  0.4780
  241MOL0     H32472   9.244   2.697   3.244  1.8696  0.9996 -1.1789
  241MOL0     H32473   9.222   2.875   3.213  1.2479  0.6040  0.9826
  241MOL0     H32474   9.264   2.908   3.448 -1.6899  2.2763 -4.7195
  241MOL0     H32475   9.279   2.727   3.465  1.3063  0.5182  1.9902
  241MOL0     H32476   9.457   2.767   3.269 -1.2981  0.1478  1.1180
  241MOL0     H32477   9.456   2.930   3.316 -3.0289  0.9366  1.3894
  241MOL0     H32478   9.535   2.874   3.534  0.2818 -1.6744  0.9726
  241MOL0     H32479   9.516   2.699   3.505  0.3145  0.2658  0.3812
  241MOL0     H32480   9.705   2.719   3.319  2.8223  0.5907  1.2254
  241MOL0     H32481   9.691   2.890   3.341 -0.8665 -0.6549 -1.6297
  241MOL0     H32482   9.800   2.702   3.551  0.3953 -1.3718 -0.5986
  241MOL0     H32483   9.903   2.792   3.438 -1.8030  4.1310 -2.0895
  241MOL0     H32484   9.705   2.905   3.644 -1.3484 -2.8477 -1.7672
  241MOL0     H32485   9.782   3.008   3.528  0.6207  0.0110 -0.6675
  241MOL0     H32486   9.971   2.724   3.710 -0.7914  0.8602  0.4117
  241MOL0     H32487  10.233   2.745   3.839  0.5885 -0.3430  1.4208
  241MOL0     H32488  10.274   2.909   3.899 -1.8477  0.9634  0.6938
  241MOL0     H32489  10.204   2.765   4.093  0.1912  3.1174  1.2517
  241MOL0     H32490  10.055   2.709   3.998 -1.2158  0.9732 -1.3437
  241MOL0     H32491   9.941   2.904   4.035 -0.5833 -1.2712  2.0038
  241MOL0     H32492  10.080   3.007   4.056  0.4747 -0.1443 -1.1053
  241MOL0     H32493   9.958   2.976   4.246  2.9817  2.3977  0.9623
  241MOL0     H32494  10.124   2.913   4.271 -0.4707  1.1712  1.0479
  241MOL0     H32495  10.134   2.711   4.420 -1.1693 -0.9733 -0.6849
  241MOL0     H32496  10.179   2.762   4.766 -1.4422  0.2922 -0.3544
  241MOL0     H32497  10.159   2.591   4.726  1.8753  1.3398  1.3446
  241MOL0     H32498  10.245   2.696   4.612  0.5612 -2.9292 -0.1561
  241MOL0     H32499  10.076   2.838   5.103  1.2656 -0.1259  0.3538
  241MOL0     H32500  10.013   2.829   5.338  0.3283  0.3861 -0.5244
  241MOL0     H32501   9.885   2.762   5.621 -3.9183 -0.1230  3.9409
  241MOL0     H32502   9.819   2.847   5.479  1.2223 -0.9631 -0.8453
  241MOL0     H32503   9.620   2.666   5.514  3.1308 -2.2139 -0.2705
  241MOL0     H32504   9.679   2.634   5.667 -2.5715  0.0644  1.1373
  241MOL0     H32505   9.506   2.790   5.675 -0.6379  1.0931 -1.4227
  241MOL0     H32506   9.595   2.904   5.570  0.1738  1.5003  1.0040
  241MOL0     H32507   9.653   2.801   5.856 -3.4265  0.6736  0.3741
  241MOL0     H32508   9.763   2.918   5.776 -1.3727  3.0694  0.3147
  241MOL0     H32509   9.608   2.993   5.949  2.3873  2.8704 -0.8926
  241MOL0     H32510   9.474   2.969   5.842  0.3167 -0.0963 -0.2218
  241MOL0     H32511   9.712   3.163   5.787 -1.3789  2.2844  0.2104
  241MOL0     H32512   9.574   3.123   5.674  4.3223  2.3685 -2.2202
  241MOL0     H32513   9.530   3.234   5.954 -0.4002  0.8799  0.4378
  241MOL0     H32514   9.416   3.235   5.810  0.8817 -1.5488  0.5427
  241MOL0     H32515   9.629   3.432   5.846  1.1931 -2.6555 -1.4378
  241MOL0     H32516   9.455   3.438   5.870 -0.7834  1.1800 -1.7514
  241MOL0     H32517   9.747   2.501   5.256 -0.0567 -0.1992 -2.2811
  241MOL0     H32518   9.795   2.512   5.032 -1.1416 -0.2938  0.6309
  241MOL0     H32519   9.709   2.825   4.626 -1.3724 -2.1646 -1.3313
  241MOL0     H32520   9.749   2.857   4.392 -1.9112  0.3768  2.7118
  241MOL0     H32521   9.010   2.413   3.457  0.6989  1.8760  0.8791
  241MOL0     H32522   8.808   2.304   3.530  2.2835 -0.2683 -0.9500
  241MOL0     H32523   8.197   2.498   3.679 -0.3343  0.4522 -1.8085
  241MOL0     H32524   8.018   2.339   3.700  0.9601  0.4398  0.2818
  241MOL0     H32525   7.946   1.899   3.621 -2.3819  2.3412 -1.1600
  241MOL0     H32526   8.087   1.927   3.519 -0.7312  3.5578 -0.6232
  241MOL0     H32527   8.232   1.897   3.724 -0.3094  2.3112  0.4800
  241MOL0     H32528   8.110   1.760   3.719 -4.1731  0.5514  0.5974
  241MOL0     H32529   7.967   1.890   3.869  0.2836 -0.1503 -0.6003
  241MOL0     H32530   8.105   2.000   3.900  0.1889 -0.7362  2.3045
  241MOL0     H32531   8.115   1.700   3.953  1.1998  0.2952 -2.8407
  241MOL0     H32532   8.077   1.829   4.069  3.9115  1.7470  1.6688
  241MOL0     H32533   8.500   1.868   4.032 -0.7914 -0.1828 -3.4496
  241MOL0     H32534   8.303   2.043   3.541  2.6868  1.1624  1.3751
  241MOL0     H32535   8.432   2.198   3.484  0.0029 -1.6624  0.5743
  242MOL0     O32536   7.875   7.288  10.128  0.5805  0.2809  0.8728
  242MOL0     C32537   7.932   7.391  10.102 -0.3433  0.6607  0.4782
  242MOL0     O32538   7.923   7.505  10.180 -0.7718  0.4885 -0.1022
  242MOL0     C32539   7.821   7.524  10.269 -0.8667 -1.2939  0.8157
  242MOL0     C32540   7.686   7.508  10.246 -0.4734 -0.0989 -0.1219
  242MOL0     C32541   7.599   7.522  10.352  0.1459 -0.8805  0.6043
  242MOL0     C32542   7.637   7.563  10.485 -0.2840  0.6565  0.3372
  242MOL0     O32543   7.564   7.569  10.603 -0.2729  0.6356 -0.4718
  242MOL0     C32544   7.429   7.629  10.591 -0.4263  0.1893 -0.2920
  242MOL0     C32545   7.393   7.671  10.732  0.6333 -0.6041 -0.5968
  242MOL0     C32546   7.461   7.799  10.774  0.4805 -0.5190  0.2739
  242MOL0     C32547   7.423   7.850  10.909  0.5332  0.1301  0.0405
  242MOL0     C32548   7.482   7.986  10.948  0.4897 -0.1210  0.7028
  242MOL0     C32549   7.494   8.010  11.098  0.2467  0.5262 -0.2049
  242MOL0     C32550   7.544   8.153  11.151 -0.6070 -0.2346  0.3644
  242MOL0     C32551   7.452   8.222  11.253 -0.1044  0.1056 -0.2954
  242MOL0     N32552   7.319   8.232  11.209  0.1834 -0.1765 -0.4020
  242MOL0     C32553   7.265   8.262  11.087 -0.2221 -0.4536 -0.1655
  242MOL0     C32554   7.130   8.259  11.112  0.9580  0.0792  0.0605
  242MOL0     C32555   7.028   8.279  11.004 -0.1217 -0.0946  0.2195
  242MOL0     C32556   7.021   8.150  10.922 -0.4563  0.2282  0.0062
  242MOL0     C32557   6.921   8.178  10.814  0.0704  0.3205 -0.9882
  242MOL0     C32558   6.895   8.052  10.735  1.1898  0.1312  0.5392
  242MOL0     O32559   7.011   7.993  10.678 -0.1958  0.4233  0.5498
  242MOL0     C32560   7.068   8.042  10.559  0.1421  0.7887  0.0059
  242MOL0     C32561   7.009   8.135  10.477 -0.5425  0.3062 -1.1911
  242MOL0     C32562   7.067   8.168  10.356 -0.7540 -0.2461 -0.5048
  242MOL0     C32563   7.000   8.292  10.292  1.6202  0.6459 -0.4697
  242MOL0     C32564   7.194   8.109  10.315 -0.1951  0.1250  0.7870
  242MOL0     C32565   7.267   8.153  10.195  0.2431 -0.8091 -0.1589
  242MOL0     O32566   7.374   8.077  10.153  0.9383  0.0490 -0.1580
  242MOL0     C32567   7.417   8.087  10.025  0.6637  0.0864  0.4556
  242MOL0     C32568   7.506   8.189   9.980  0.3753 -0.1975 -0.1846
  242MOL0     C32569   7.547   8.193   9.844  0.1208 -0.5744 -0.6511
  242MOL0     C32570   7.513   8.091   9.752  0.4883  0.3217  0.3655
  242MOL0     O32571   7.560   8.098   9.619  0.1645  0.6217  0.3084
  242MOL0     C32572   7.563   7.976   9.544  0.2709 -0.6851  0.8382
  242MOL0     C32573   7.679   7.895   9.581  0.2075 -0.0986  0.4970
  242MOL0     C32574   7.659   7.749   9.519  0.6617 -0.3601 -0.3665
  242MOL0     C32575   7.792   7.682   9.496 -0.4806  0.2189 -0.1378
  242MOL0     C32576   7.771   7.563   9.403  0.1590 -0.2237 -0.3406
  242MOL0     C32577   7.760   7.439   9.486  0.5669  0.1052 -0.5880
  242MOL0     C32578   7.758   7.313   9.401 -0.5724  0.4873 -0.8848
  242MOL0     C32579   7.716   7.186   9.482 -0.2553 -0.8487  0.0007
  242MOL0    Cl32580   7.825   7.141   9.618  0.0162  0.0782 -0.4016
  242MOL0     C32581   7.446   7.986   9.807  0.5756  0.9415 -0.8352
  242MOL0     C32582   7.394   7.985   9.940  0.3228  0.2264 -0.2794
  242MOL0     O32583   7.238   8.258  10.139 -0.8529 -0.2933 -0.2501
  242MOL0     C32584   7.248   8.010  10.395 -0.0398 -0.3694 -0.5440
  242MOL0     C32585   7.176   7.972  10.508 -0.3195 -0.8315 -1.0360
  242MOL0     N32586   7.104   8.205  11.240  0.2517 -1.0010 -0.3802
  242MOL0     N32587   7.220   8.195  11.297  1.2258 -0.1645  0.0146
  242MOL0     C32588   7.776   7.590  10.502  0.3266 -0.6015  0.6938
  242MOL0     C32589   7.860   7.576  10.393 -0.5191  0.5687  0.5687
  242MOL0     C32590   8.034   7.403   9.989  0.0407  0.3356  0.0439
  242MOL0     C32591   8.119   7.504   9.988 -0.9758 -0.2401  0.5421
  242MOL0     C32592   8.225   7.510   9.891  0.5466 -0.4192 -0.1981
  242MOL0     C32593   8.226   7.417   9.782  0.9432  0.1761  0.7074
  242MOL0     O32594   8.315   7.422   9.679 -0.1305  0.5897  1.0073
  242MOL0     C32595   8.446   7.395   9.703 -0.4565  0.7709 -0.3592
  242MOL0     C32596   8.491   7.265   9.648 -0.6746 -0.2352 -0.0713
  242MOL0     C32597   8.637   7.248   9.705 -0.2553  1.4760  0.5143
  242MOL0     C32598   8.689   7.112   9.643 -0.0314  1.1778  0.5214
  242MOL0     C32599   8.614   6.990   9.685 -0.2006 -0.9288 -0.2779
  242MOL0     C32600   8.537   6.895   9.709 -0.1580  0.3741 -1.1669
  242MOL0     C32601   8.133   7.315   9.786 -0.1495 -0.3421 -0.2551
  242MOL0     C32602   8.036   7.307   9.890  0.3476  0.4541 -0.2347
  242MOL0     H32603   7.657   7.450  10.159  0.0794  0.5033 -0.7267
  242MOL0     H32604   7.494   7.497  10.343 -1.0131  3.4833 -0.0680
  242MOL0     H32605   7.433   7.717  10.527 -1.7547  3.2377  3.4010
  242MOL0     H32606   7.360   7.552  10.554  1.9735 -2.5286  0.5012
  242MOL0     H32607   7.285   7.671  10.751  0.7822  0.2205  0.3544
  242MOL0     H32608   7.429   7.590  10.796  2.7215  1.8268  1.5586
  242MOL0     H32609   7.568   7.777  10.783  0.2734 -1.6780  0.0496
  242MOL0     H32610   7.454   7.885  10.707  2.9900  2.2032  3.1297
  242MOL0     H32611   7.315   7.858  10.921  0.3939 -0.5691 -0.6897
  242MOL0     H32612   7.459   7.773  10.977  0.6864  0.2728  0.1236
  242MOL0     H32613   7.583   7.994  10.907  0.2972 -0.5034  0.1364
  242MOL0     H32614   7.427   8.068  10.900  1.0171 -0.9995 -1.5405
  242MOL0     H32615   7.402   7.996  11.155  1.2028 -1.3147  1.0161
  242MOL0     H32616   7.564   7.934  11.134  0.5115  0.6309 -0.4955
  242MOL0     H32617   7.639   8.149  11.204 -1.4826 -0.1595  1.9831
  242MOL0     H32618   7.549   8.207  11.056 -1.7969 -0.2774  0.2666
  242MOL0     H32619   7.493   8.323  11.266 -0.7530  0.3694 -0.2664
  242MOL0     H32620   7.463   8.164  11.346  0.4616 -0.3349 -0.6311
  242MOL0     H32621   7.315   8.298  10.998 -1.4964  1.3023 -0.2348
  242MOL0     H32622   6.929   8.283  11.050  0.5177  0.4191  1.5941
  242MOL0     H32623   7.046   8.366  10.940  2.6852 -1.3558 -0.8698
  242MOL0     H32624   6.991   8.062  10.979  0.8191  1.1257  2.2026
  242MOL0     H32625   7.123   8.128  10.887 -0.4741 -0.9106  0.6373
  242MOL0     H32626   6.956   8.257  10.747  2.4344 -2.0701 -2.8242
  242MOL0     H32627   6.822   8.198  10.856  0.5235 -1.2282  0.9611
  242MOL0     H32628   6.836   8.087  10.651  1.6936  0.5665  0.3639
  242MOL0     H32629   6.836   7.982  10.794 -1.4490 -2.0893 -4.1927
  242MOL0     H32630   6.914   8.177  10.507 -1.9430 -3.0285 -0.4944
  242MOL0     H32631   6.954   8.257  10.199  0.4792  0.5390  0.1135
  242MOL0     H32632   6.917   8.330  10.352 -0.2055 -1.0655 -1.7518
  242MOL0     H32633   7.063   8.378  10.266 -0.0782  1.8283 -0.8777
  242MOL0     H32634   7.535   8.263  10.054  1.9218 -1.1784  0.2376
  242MOL0     H32635   7.607   8.276   9.810 -0.2283 -0.0155  0.0824
  242MOL0     H32636   7.471   7.917   9.545  1.4630 -2.7042 -0.5963
  242MOL0     H32637   7.580   8.010   9.441 -1.5095  1.3636  1.1645
  242MOL0     H32638   7.764   7.943   9.531 -0.7965  0.9414 -0.2816
  242MOL0     H32639   7.693   7.892   9.690  0.4045  2.0820  0.5697
  242MOL0     H32640   7.598   7.749   9.428  0.9442 -1.6514 -0.5736
  242MOL0     H32641   7.614   7.687   9.597 -0.3590  0.9184  0.1165
  242MOL0     H32642   7.853   7.757   9.445 -0.8022 -0.0928 -0.9999
  242MOL0     H32643   7.844   7.658   9.589 -0.4204 -0.1313 -0.2598
  242MOL0     H32644   7.863   7.548   9.346  1.7802 -0.7533  2.2791
  242MOL0     H32645   7.695   7.572   9.324 -0.9509 -1.4555  0.5570
  242MOL0     H32646   7.838   7.442   9.563  2.1244 -1.4537 -2.0276
  242MOL0     H32647   7.664   7.446   9.539 -0.5731 -2.2399 -2.1900
  242MOL0     H32648   7.862   7.303   9.369  0.2694  2.7805  0.9198
  242MOL0     H32649   7.684   7.315   9.320 -1.3216 -0.8630 -0.2718
  242MOL0     H32650   7.712   7.098   9.418  0.9359 -1.6294  0.9633
  242MOL0     H32651   7.615   7.211   9.517  1.1219  1.5976  2.7151
  242MOL0     H32652   7.427   7.901   9.743  4.1420 -2.6094  2.3025
  242MOL0     H32653   7.333   7.900   9.970 -2.2102  2.0361 -0.0021
  242MOL0     H32654   7.347   7.973  10.370  0.6850  2.1216 -1.6687
  242MOL0     H32655   7.228   7.897  10.567 -1.7183  0.1425  1.6155
  242MOL0     H32656   7.807   7.621  10.601 -0.0403 -1.4963  1.0915
  242MOL0     H32657   7.964   7.586  10.423 -1.0275 -0.6393  2.9748
  242MOL0     H32658   8.128   7.581  10.064 -0.4275  1.9354 -1.6129
  242MOL0     H32659   8.299   7.590   9.890 -0.3138  0.4546  1.5899
  242MOL0     H32660   8.497   7.474   9.647 -1.4757  1.3163 -0.5572
  242MOL0     H32661   8.463   7.395   9.811  1.2948  2.6143 -0.5788
  242MOL0     H32662   8.487   7.250   9.540 -1.5779 -5.4279  0.4206
  242MOL0     H32663   8.423   7.190   9.689 -2.3154  1.6102  0.7420
  242MOL0     H32664   8.630   7.230   9.813  1.4319  0.2850  0.4798
  242MOL0     H32665   8.711   7.324   9.678  1.8081 -0.8246 -0.7927
  242MOL0     H32666   8.792   7.103   9.679 -0.9056  0.5772  3.0620
  242MOL0     H32667   8.692   7.110   9.534 -2.5602  1.1318  0.3811
  242MOL0     H32668   8.460   6.821   9.722 -1.2516  1.8985  2.1534
  242MOL0     H32669   8.135   7.247   9.701  2.1363  0.4904 -0.9444
  242MOL0     H32670   7.991   7.208   9.903 -0.4588  0.9398  0.7955
  243MOL0     O32671   3.985   0.133   2.335 -0.1961 -0.2458  0.3491
  243MOL0     C32672   4.107   0.149   2.302 -0.8114 -0.1176 -0.1789
  243MOL0     O32673   4.154   0.254   2.228  0.3940 -0.3859  0.3616
  243MOL0     C32674   4.080   0.365   2.195  0.0102 -0.9331  0.7173
  243MOL0     C32675   3.982   0.416   2.281  0.3054 -0.7659  0.0191
  243MOL0     C32676   3.890   0.513   2.240  1.0029  0.0331  0.0287
  243MOL0     C32677   3.909   0.567   2.115  0.5380 -0.4319 -0.3047
  243MOL0     O32678   3.812   0.663   2.097 -0.3065 -0.2571  0.8371
  243MOL0     C32679   3.813   0.738   1.975  0.7893  0.2397  0.3766
  243MOL0     C32680   3.793   0.879   2.012 -0.0861  0.2250  0.3813
  243MOL0     C32681   3.791   0.952   1.877 -0.7892  0.9056  0.7557
  243MOL0     C32682   3.729   1.086   1.896  0.2060  1.2656  0.4710
  243MOL0     C32683   3.753   1.168   1.772 -0.8496  0.9039 -0.2045
  243MOL0     C32684   3.889   1.228   1.757 -0.1198  0.1696 -0.3500
  243MOL0     C32685   3.912   1.304   1.625 -0.2359  0.2145  0.6408
  243MOL0     C32686   3.823   1.426   1.598 -0.2124  0.0840 -0.6180
  243MOL0     N32687   3.821   1.469   1.461 -1.0086 -0.1266 -0.0366
  243MOL0     C32688   3.744   1.424   1.354 -0.4599 -0.0880 -0.0770
  243MOL0     C32689   3.762   1.507   1.251  0.1402 -0.2941 -0.9958
  243MOL0     C32690   3.710   1.502   1.109  0.3105  0.6696  0.1587
  243MOL0     C32691   3.570   1.567   1.078 -0.0934  0.6204 -0.7763
  243MOL0     C32692   3.567   1.718   1.104  0.3857 -0.4484 -0.4812
  243MOL0     C32693   3.434   1.777   1.057 -0.9152 -0.2795 -0.0077
  243MOL0     O32694   3.421   1.918   1.077  0.0999 -0.0862 -0.3775
  243MOL0     C32695   3.483   2.006   1.000 -0.1532 -0.4834 -0.2457
  243MOL0     C32696   3.536   1.979   0.865 -0.2237  0.2454 -0.1276
  243MOL0     C32697   3.592   2.079   0.782 -0.3207  0.2807 -0.5567
  243MOL0     C32698   3.634   2.032   0.640  0.3191 -1.0209  0.1853
  243MOL0     C32699   3.607   2.215   0.836  0.0234  0.7218  0.3926
  243MOL0     C32700   3.661   2.321   0.759 -0.0313 -1.4810  0.6795
  243MOL0     O32701   3.628   2.450   0.809  0.9934 -0.1545  0.1960
  243MOL0     C32702   3.647   2.562   0.732  0.2452 -0.1285  0.5335
  243MOL0     C32703   3.768   2.595   0.670  0.1244  0.2140 -0.5082
  243MOL0     C32704   3.791   2.712   0.600  0.4137 -0.2550 -0.4653
  243MOL0     C32705   3.697   2.818   0.595 -0.0430 -0.3449 -0.4466
  243MOL0     O32706   3.731   2.944   0.550 -0.6271  0.0606  0.6220
  243MOL0     C32707   3.856   2.964   0.482 -0.5722 -0.6017  0.2382
  243MOL0     C32708   3.855   3.105   0.430 -0.1378  0.0081 -0.5088
  243MOL0     C32709   3.993   3.123   0.364 -0.0670  0.0074 -0.7119
  243MOL0     C32710   3.984   3.235   0.261 -0.3264 -0.2783 -0.8507
  243MOL0     C32711   3.946   3.381   0.314  0.7831  0.2252  0.7900
  243MOL0     C32712   3.967   3.492   0.214  0.9976 -0.3251 -0.0794
  243MOL0     C32713   4.111   3.531   0.177  0.1001  0.2043  0.1747
  243MOL0     C32714   4.121   3.666   0.116  0.0594 -0.3868  0.1835
  243MOL0    Cl32715   4.061   3.670  -0.063 -0.0959 -0.1402  0.5531
  243MOL0     C32716   3.567   2.785   0.647  0.2522 -0.1229  0.6554
  243MOL0     C32717   3.543   2.655   0.711 -0.6287 -0.6553 -0.1500
  243MOL0     O32718   3.731   2.297   0.656 -0.1078  0.3836 -0.3093
  243MOL0     C32719   3.562   2.230   0.965  0.3535 -0.7733  0.4963
  243MOL0     C32720   3.494   2.139   1.043 -0.5276 -0.6349 -0.0598
  243MOL0     N32721   3.837   1.617   1.292  0.3794  0.2056 -0.0611
  243MOL0     N32722   3.872   1.588   1.412 -0.3873  0.1829 -0.2999
  243MOL0     C32723   4.015   0.527   2.027  0.9132 -0.1837 -0.9051
  243MOL0     C32724   4.101   0.430   2.070 -0.0060 -0.6434 -1.1251
  243MOL0     C32725   4.212   0.055   2.356 -0.2279  0.4515 -1.4831
  243MOL0     C32726   4.330   0.019   2.279  0.8321  1.0561  0.5395
  243MOL0     C32727   4.435  -0.052   2.338  1.0405  0.8662 -0.0568
  243MOL0     C32728   4.417  -0.115   2.462  0.3761 -0.2506 -0.0011
  243MOL0     O32729   4.496  -0.212   2.532  0.1335 -1.0927  0.0976
  243MOL0     C32730   4.629  -0.233   2.506  0.6724 -0.3959  0.4598
  243MOL0     C32731   4.702  -0.311   2.618  0.3536 -1.0177  0.2300
  243MOL0     C32732   4.836  -0.367   2.565  1.1434  0.6290  0.4659
  243MOL0     C32733   4.918  -0.434   2.682 -0.2648  0.3328  0.0484
  243MOL0     C32734   4.842  -0.540   2.737 -0.9762  0.0183  0.9539
  243MOL0     C32735   4.791  -0.643   2.773  0.4982  0.3157  0.4652
  243MOL0     C32736   4.299  -0.086   2.534  0.3947  0.1428 -0.4613
  243MOL0     C32737   4.203  -0.001   2.488  0.2049  0.3660 -1.0495
  243MOL0     H32738   3.961   0.387   2.383  0.0239 -0.2458  0.1125
  243MOL0     H32739   3.820   0.556   2.311  1.3525  0.9416 -0.1632
  243MOL0     H32740   3.915   0.736   1.936  0.8653  1.9160  0.3931
  243MOL0     H32741   3.737   0.705   1.903  1.7170  0.8330 -0.9111
  243MOL0     H32742   3.699   0.885   2.068 -1.4962 -0.2584 -1.8034
  243MOL0     H32743   3.872   0.911   2.081  2.8682 -3.0872 -1.1828
  243MOL0     H32744   3.892   0.955   1.834 -1.1817  0.3841 -0.2410
  243MOL0     H32745   3.730   0.892   1.809  0.2628 -0.5552  1.0681
  243MOL0     H32746   3.623   1.066   1.916  0.2193  0.3818 -0.2779
  243MOL0     H32747   3.775   1.135   1.983 -3.8363  1.1313  2.9263
  243MOL0     H32748   3.727   1.114   1.680  3.5322  0.0964 -1.1890
  243MOL0     H32749   3.681   1.250   1.786  1.1988  2.8455 -0.3819
  243MOL0     H32750   3.905   1.294   1.843 -0.8352 -1.7262  1.3508
  243MOL0     H32751   3.962   1.147   1.751  0.7351  0.8606  0.4386
  243MOL0     H32752   4.016   1.332   1.608 -0.1176  1.7448  3.2668
  243MOL0     H32753   3.884   1.241   1.540 -0.1029  0.0961  0.6847
  243MOL0     H32754   3.863   1.503   1.664 -2.8560 -1.0899  2.6197
  243MOL0     H32755   3.720   1.407   1.630 -0.2101 -1.7251 -1.5187
  243MOL0     H32756   3.694   1.328   1.354  1.0873 -0.9570  1.9636
  243MOL0     H32757   3.786   1.543   1.042  1.7345 -0.8351  0.8084
  243MOL0     H32758   3.722   1.394   1.091  0.4282  0.8140 -0.7019
  243MOL0     H32759   3.488   1.519   1.132  0.4724  1.0645  0.5266
  243MOL0     H32760   3.566   1.548   0.970  2.9963 -0.2591 -0.8419
  243MOL0     H32761   3.655   1.761   1.055  0.8276 -2.2755 -1.3939
  243MOL0     H32762   3.564   1.732   1.213 -4.2779 -0.4283 -0.4085
  243MOL0     H32763   3.345   1.737   1.105 -0.5330 -1.9732 -0.6507
  243MOL0     H32764   3.430   1.751   0.951  1.8013  0.3671 -0.3600
  243MOL0     H32765   3.531   1.880   0.820 -0.3678 -0.5265  1.5111
  243MOL0     H32766   3.591   2.088   0.557  2.4023  0.8294  0.2677
  243MOL0     H32767   3.743   2.041   0.632  0.3982 -0.7224  1.3673
  243MOL0     H32768   3.609   1.926   0.625  2.3917 -1.7714  1.5374
  243MOL0     H32769   3.843   2.518   0.681  0.5204  0.7142  0.5240
  243MOL0     H32770   3.894   2.729   0.569 -0.0464 -0.6882 -2.3790
  243MOL0     H32771   3.938   2.956   0.554 -1.0861 -1.8733  0.7099
  243MOL0     H32772   3.867   2.886   0.406  1.1336 -1.0614  0.9126
  243MOL0     H32773   3.778   3.112   0.352  1.8318 -0.2266 -2.5914
  243MOL0     H32774   3.832   3.179   0.507  2.5998  2.3251 -1.7235
  243MOL0     H32775   4.036   3.034   0.318  0.0663  1.0004 -2.5838
  243MOL0     H32776   4.057   3.142   0.450 -1.4525  1.3394  0.0765
  243MOL0     H32777   4.088   3.240   0.225 -0.2047  0.5366 -0.4100
  243MOL0     H32778   3.921   3.207   0.176 -0.3761 -0.2749 -0.8147
  243MOL0     H32779   3.995   3.426   0.401  1.4103  0.1323  0.4962
  243MOL0     H32780   3.838   3.386   0.329  0.9105  1.5523  1.4284
  243MOL0     H32781   3.913   3.477   0.120  2.8260  0.6338 -1.3488
  243MOL0     H32782   3.930   3.581   0.265 -2.0402 -1.2046 -0.5491
  243MOL0     H32783   4.142   3.460   0.100 -2.9946 -2.9913  1.6134
  243MOL0     H32784   4.176   3.529   0.264  1.4683  0.8076 -0.8039
  243MOL0     H32785   4.230   3.675   0.121  0.1316 -1.0108 -0.2339
  243MOL0     H32786   4.086   3.746   0.182  0.1847  1.2295 -1.6280
  243MOL0     H32787   3.484   2.855   0.642 -0.2870 -0.6184  2.1051
  243MOL0     H32788   3.441   2.640   0.745 -0.6746  1.7608  0.9455
  243MOL0     H32789   3.579   2.323   1.018 -0.3048  0.8236 -1.9067
  243MOL0     H32790   3.438   2.163   1.134 -2.6709 -0.0204 -1.4574
  243MOL0     H32791   4.032   0.572   1.929  2.5663  2.7920  0.6036
  243MOL0     H32792   4.181   0.392   2.005  0.1514 -1.7153 -0.3397
  243MOL0     H32793   4.328   0.033   2.172 -0.4333 -0.1709  0.3628
  243MOL0     H32794   4.517  -0.087   2.277  0.4851  0.1514 -0.4015
  243MOL0     H32795   4.637  -0.297   2.418 -0.9006  0.8181 -0.6119
  243MOL0     H32796   4.681  -0.138   2.491 -2.3443  1.2618 -0.3220
  243MOL0     H32797   4.636  -0.391   2.655  0.4843 -1.9748 -1.4909
  243MOL0     H32798   4.724  -0.238   2.696  0.8813 -2.0614  1.0858
  243MOL0     H32799   4.892  -0.287   2.516 -0.4478  0.8341 -1.1378
  243MOL0     H32800   4.811  -0.436   2.483 -3.0249  1.1891  1.0167
  243MOL0     H32801   4.932  -0.365   2.765  0.7182  0.9268 -0.5910
  243MOL0     H32802   5.011  -0.476   2.641 -0.3990 -1.0367  1.0622
  243MOL0     H32803   4.730  -0.720   2.816 -0.1937 -0.6840 -2.1078
  243MOL0     H32804   4.290  -0.125   2.635  1.3398 -0.3409 -0.5580
  243MOL0     H32805   4.112   0.008   2.547  1.3011 -1.6327  1.1293
  244MOL0     O32806   5.525   9.081   8.954 -0.2430  0.4485 -0.2476
  244MOL0     C32807   5.594   9.032   9.041  0.2787  0.4146 -0.5660
  244MOL0     O32808   5.548   8.970   9.158 -0.5864 -0.1002  1.1011
  244MOL0     C32809   5.417   8.976   9.193 -0.1154  0.2218  0.1247
  244MOL0     C32810   5.350   8.865   9.235 -0.3394 -0.5376  0.1102
  244MOL0     C32811   5.213   8.878   9.290 -0.4701 -0.2912  0.6856
  244MOL0     C32812   5.150   9.001   9.301 -0.0470 -0.0069  0.7042
  244MOL0     O32813   5.033   9.028   9.364  0.8149  0.1838  0.5369
  244MOL0     C32814   4.956   8.919   9.413  0.4018 -0.7557 -0.0538
  244MOL0     C32815   4.861   8.856   9.312 -0.5843  0.6322  0.1942
  244MOL0     C32816   4.763   8.766   9.400  0.4352 -0.0095 -0.0319
  244MOL0     C32817   4.787   8.619   9.396  0.4402  0.0320 -0.6276
  244MOL0     C32818   4.931   8.569   9.438  0.4695 -0.2865 -0.5989
  244MOL0     C32819   4.947   8.595   9.592 -0.0396  0.3937  0.9563
  244MOL0     C32820   5.070   8.516   9.648  0.0515 -0.7688  0.1716
  244MOL0     C32821   5.052   8.367   9.668 -0.2681 -0.3725 -0.3448
  244MOL0     N32822   4.945   8.352   9.767 -0.6419 -1.3771  0.3162
  244MOL0     C32823   4.922   8.421   9.889  1.0858  0.4847  0.4888
  244MOL0     C32824   4.804   8.381   9.938  0.8865 -0.1655 -1.4183
  244MOL0     C32825   4.736   8.417  10.062 -0.0394 -0.3163 -0.0297
  244MOL0     C32826   4.782   8.322  10.179  0.7999 -0.5625 -0.2246
  244MOL0     C32827   4.713   8.357  10.311 -0.0416 -0.0692  0.3319
  244MOL0     C32828   4.763   8.286  10.442 -0.2583  0.3238  0.6780
  244MOL0     O32829   4.911   8.306  10.468 -0.0629 -0.0959  0.5663
  244MOL0     C32830   4.952   8.212  10.552 -0.8061  0.1698 -1.2322
  244MOL0     C32831   4.998   8.082  10.514 -0.1467 -0.2794  0.4032
  244MOL0     C32832   5.020   7.986  10.614  0.1477 -1.0332  0.7938
  244MOL0     C32833   5.071   7.857  10.564 -1.0023 -0.7800 -0.0429
  244MOL0     C32834   5.003   8.008  10.757 -0.0089 -0.6100 -0.0962
  244MOL0     C32835   5.037   7.909  10.864 -0.0127 -0.6266  0.3846
  244MOL0     O32836   5.018   7.955  10.993 -0.3116  0.6811  0.0659
  244MOL0     C32837   5.034   7.870  11.103  0.5612 -0.2830  0.2111
  244MOL0     C32838   5.121   7.907  11.209  0.0563  0.7228 -0.0388
  244MOL0     C32839   5.157   7.812  11.306 -0.1591  1.2694  0.7281
  244MOL0     C32840   5.099   7.681  11.305  0.2858  0.4114  0.0996
  244MOL0     O32841   5.141   7.607  11.412 -0.1865 -0.0268 -0.3410
  244MOL0     C32842   5.102   7.464  11.416 -0.0676  0.6783  0.3582
  244MOL0     C32843   5.178   7.390  11.308  0.0996 -0.1979  0.3328
  244MOL0     C32844   5.145   7.241  11.301 -0.5419  0.8686 -0.2859
  244MOL0     C32845   5.228   7.177  11.183 -0.2735  0.4068  1.0350
  244MOL0     C32846   5.192   7.028  11.151  0.2388 -0.2133  0.2924
  244MOL0     C32847   5.050   7.015  11.103  0.1632  0.0652  0.2216
  244MOL0     C32848   5.012   6.879  11.049 -0.0440  0.4915 -0.2749
  244MOL0     C32849   4.896   6.899  10.949 -0.2959  0.0919  0.2874
  244MOL0    Cl32850   4.742   6.957  11.032 -0.0538  0.0007  0.2509
  244MOL0     C32851   5.003   7.647  11.213 -0.0302  0.2917 -0.6729
  244MOL0     C32852   4.972   7.738  11.112  0.2285 -0.3176  0.1767
  244MOL0     O32853   5.093   7.806  10.834  0.2185  0.8261  0.1173
  244MOL0     C32854   4.972   8.144  10.786  0.8154  0.1532  0.2645
  244MOL0     C32855   4.944   8.243  10.694  0.1744 -1.2407  0.6774
  244MOL0     N32856   4.766   8.275   9.858  0.4369 -0.1996 -0.0382
  244MOL0     N32857   4.842   8.275   9.754  0.3172 -0.7772  1.0124
  244MOL0     C32858   5.214   9.105   9.241 -0.8456  0.1099  0.5691
  244MOL0     C32859   5.344   9.098   9.198  1.3199 -0.3110 -0.1481
  244MOL0     C32860   5.734   9.010   9.011 -0.7271  1.1158  0.2985
  244MOL0     C32861   5.824   8.934   9.085  0.6068 -0.5487 -0.8801
  244MOL0     C32862   5.960   8.915   9.057  0.1349 -0.5100 -0.2297
  244MOL0     C32863   6.014   8.973   8.945 -0.5515  0.1482 -0.4766
  244MOL0     O32864   6.146   8.950   8.914 -0.2293 -0.0236 -0.5572
  244MOL0     C32865   6.175   8.921   8.777  0.0881  1.2833 -0.5288
  244MOL0     C32866   6.310   8.861   8.766 -0.2054  0.7097  1.2427
  244MOL0     C32867   6.335   8.733   8.845  0.6165 -0.5301 -0.3377
  244MOL0     C32868   6.240   8.610   8.829 -0.4740  0.5904  0.5465
  244MOL0     C32869   6.275   8.501   8.929 -0.2363  0.8645  0.3080
  244MOL0     C32870   6.298   8.413   9.011  1.2103 -0.2215 -0.1997
  244MOL0     C32871   5.924   9.040   8.859 -0.3389 -1.0422 -0.0844
  244MOL0     C32872   5.790   9.065   8.895 -0.7478  0.1272 -0.2067
  244MOL0     H32873   5.397   8.767   9.235 -0.1173 -0.4780  2.2796
  244MOL0     H32874   5.163   8.785   9.314 -2.7743  0.6199 -0.2899
  244MOL0     H32875   5.027   8.848   9.455 -0.3010  0.0296  2.6447
  244MOL0     H32876   4.903   8.957   9.501 -0.8243  1.8880 -1.7830
  244MOL0     H32877   4.800   8.934   9.265 -0.2906  0.1406 -1.0540
  244MOL0     H32878   4.923   8.811   9.233  0.2983  0.4949  0.9498
  244MOL0     H32879   4.767   8.803   9.502  3.1295 -0.1265 -0.0290
  244MOL0     H32880   4.665   8.777   9.352  0.4633 -1.3128 -0.4412
  244MOL0     H32881   4.717   8.565   9.460  1.3727  0.8964  1.2055
  244MOL0     H32882   4.791   8.587   9.292  3.7580  2.7326 -1.5321
  244MOL0     H32883   4.941   8.463   9.415 -2.3143 -1.2762  2.1936
  244MOL0     H32884   5.003   8.627   9.378  0.1684  0.2238 -0.4763
  244MOL0     H32885   4.960   8.700   9.618 -2.2097  0.9522  0.0433
  244MOL0     H32886   4.859   8.560   9.648 -1.3641  0.6023 -0.8789
  244MOL0     H32887   5.157   8.532   9.584  0.4156 -1.4284  0.4948
  244MOL0     H32888   5.092   8.559   9.746 -1.8884 -1.2387  0.8659
  244MOL0     H32889   5.147   8.323   9.699  0.3177  1.4616  0.6238
  244MOL0     H32890   5.016   8.304   9.586 -4.4984 -0.1544  1.1121
  244MOL0     H32891   4.996   8.484   9.937  1.5996 -0.2971  0.7481
  244MOL0     H32892   4.764   8.519  10.092  2.0536 -1.2431  1.4385
  244MOL0     H32893   4.628   8.426  10.050  0.1867  0.0330 -2.2915
  244MOL0     H32894   4.890   8.328  10.195  0.6640  1.0234  0.3080
  244MOL0     H32895   4.755   8.222  10.147  0.5333  0.1743 -2.5315
  244MOL0     H32896   4.611   8.321  10.297  0.3114 -1.1968  0.5645
  244MOL0     H32897   4.708   8.466  10.317  0.4505 -0.1158  2.0994
  244MOL0     H32898   4.746   8.182  10.412  0.1265 -0.3844  2.7555
  244MOL0     H32899   4.700   8.307  10.529 -3.0229 -0.4181 -0.9837
  244MOL0     H32900   5.030   8.055  10.414 -2.2591 -2.1804  0.1691
  244MOL0     H32901   5.179   7.864  10.582 -1.2064  0.0837  0.9420
  244MOL0     H32902   5.026   7.769  10.610 -1.3416 -0.9848 -0.7514
  244MOL0     H32903   5.054   7.843  10.457  0.6241  2.1166 -0.8033
  244MOL0     H32904   5.167   8.005  11.203 -1.7242  1.8620  2.9790
  244MOL0     H32905   5.227   7.833  11.387  0.4411 -3.3590  1.6888
  244MOL0     H32906   5.143   7.438  11.514 -2.2917  0.6800  1.3508
  244MOL0     H32907   4.994   7.451  11.406  0.1419  0.4248 -2.7412
  244MOL0     H32908   5.153   7.426  11.208 -3.9112 -0.3007  1.1552
  244MOL0     H32909   5.284   7.403  11.332 -0.4672 -0.2893  3.3584
  244MOL0     H32910   5.039   7.221  11.283 -0.2072  0.0052 -1.3982
  244MOL0     H32911   5.178   7.198  11.396 -2.1344 -1.2360 -0.6147
  244MOL0     H32912   5.198   7.240  11.098  0.2227  0.2491  0.7402
  244MOL0     H32913   5.335   7.179  11.205 -0.4929 -2.3324  2.7872
  244MOL0     H32914   5.198   6.975  11.246  0.1861 -2.4074 -0.8604
  244MOL0     H32915   5.267   6.988  11.081 -0.4410  2.5504 -2.2370
  244MOL0     H32916   4.979   7.029  11.185  1.7218 -0.6934  1.7844
  244MOL0     H32917   5.036   7.093  11.028  0.1582  0.4956  0.6686
  244MOL0     H32918   4.963   6.816  11.124 -0.4451  1.9619  0.7261
  244MOL0     H32919   5.094   6.825  11.000 -0.0054  0.6354 -0.3701
  244MOL0     H32920   4.864   6.804  10.904 -3.0608  1.1628 -0.2115
  244MOL0     H32921   4.933   6.965  10.871 -0.5489 -2.3208 -2.0291
  244MOL0     H32922   4.958   7.548  11.217  0.8216 -0.1922 -2.1841
  244MOL0     H32923   4.897   7.720  11.035 -0.6278 -1.3897  1.2189
  244MOL0     H32924   4.951   8.170  10.889  0.6589  0.8033  0.0749
  244MOL0     H32925   4.900   8.341  10.713 -0.1212 -1.3019  0.3151
  244MOL0     H32926   5.162   9.200   9.241 -2.6638 -0.8343  1.2240
  244MOL0     H32927   5.396   9.184   9.156 -0.0077 -0.1247 -1.4556
  244MOL0     H32928   5.782   8.890   9.174  1.1590  1.7509  0.6229
  244MOL0     H32929   6.022   8.861   9.128 -1.6719 -0.7679  1.2021
  244MOL0     H32930   6.110   8.846   8.731 -0.0076  1.2216 -0.2934
  244MOL0     H32931   6.172   9.016   8.724 -2.1990  2.0822  0.9055
  244MOL0     H32932   6.390   8.932   8.792  1.3759 -1.4359  2.6200
  244MOL0     H32933   6.325   8.829   8.662  0.4381 -1.1693  1.8695
  244MOL0     H32934   6.336   8.772   8.948  1.8354 -1.4652  0.0339
  244MOL0     H32935   6.435   8.701   8.816  2.2626 -0.5721  4.4128
  244MOL0     H32936   6.243   8.564   8.730 -1.4444  1.3391  0.1643
  244MOL0     H32937   6.135   8.639   8.832 -0.6705 -0.0148 -0.2576
  244MOL0     H32938   6.314   8.333   9.080  6.0806 -0.1599 -0.9192
  244MOL0     H32939   5.963   9.089   8.771  0.0088 -0.8121  0.1963
  244MOL0     H32940   5.730   9.133   8.835 -1.7129  2.2368  2.9446
  245MOL0     O32941   4.410   6.463   3.784  0.1948  0.1295  0.8433
  245MOL0     C32942   4.386   6.360   3.842 -0.5567  0.5470  0.2101
  245MOL0     O32943   4.403   6.342   3.976 -0.3252  0.2866 -0.3001
  245MOL0     C32944   4.459   6.431   4.051  0.3245 -0.1180 -0.0488
  245MOL0     C32945   4.380   6.531   4.123 -1.0472 -0.2242  0.3348
  245MOL0     C32946   4.443   6.623   4.207 -0.3396 -0.0475 -0.2197
  245MOL0     C32947   4.584   6.606   4.227 -0.0640  0.1665  0.3019
  245MOL0     O32948   4.664   6.696   4.288  0.4718  0.0881 -0.3359
  245MOL0     C32949   4.610   6.790   4.383 -0.0082 -0.2734 -0.2019
  245MOL0     C32950   4.716   6.855   4.471 -0.4163 -0.1459 -0.4830
  245MOL0     C32951   4.834   6.920   4.384  0.9456 -0.1653  0.1835
  245MOL0     C32952   4.974   6.923   4.446 -0.6627 -0.4787 -0.8399
  245MOL0     C32953   5.023   6.775   4.422 -1.1257 -0.3527  0.4207
  245MOL0     C32954   5.080   6.748   4.280 -0.2592 -0.0372  0.3030
  245MOL0     C32955   5.093   6.593   4.240 -0.0631  0.8585  0.2939
  245MOL0     C32956   5.190   6.511   4.337  0.6629 -1.4103  0.5466
  245MOL0     N32957   5.330   6.556   4.348 -0.2852  0.1232 -0.9372
  245MOL0     C32958   5.383   6.647   4.433 -0.2790  0.0327 -0.7322
  245MOL0     C32959   5.516   6.650   4.402  0.6939  0.0221 -0.3661
  245MOL0     C32960   5.611   6.725   4.484 -0.9410  0.0851  0.2522
  245MOL0     C32961   5.635   6.679   4.625 -0.3064 -0.4713  0.1116
  245MOL0     C32962   5.647   6.519   4.651 -0.4193  0.8091  0.2540
  245MOL0     C32963   5.744   6.462   4.552  0.6086  0.4464  0.2166
  245MOL0     O32964   5.765   6.323   4.588  0.4671  0.6814 -0.1729
  245MOL0     C32965   5.702   6.236   4.505  0.3003 -0.1856 -0.2882
  245MOL0     C32966   5.561   6.235   4.467 -1.2693 -0.0687 -0.2847
  245MOL0     C32967   5.511   6.147   4.372 -0.0335  0.1516  0.4260
  245MOL0     C32968   5.363   6.162   4.353  0.2740  0.0404  0.1083
  245MOL0     C32969   5.602   6.068   4.294  0.2491 -0.5456  0.1915
  245MOL0     C32970   5.569   5.980   4.182 -0.6435  0.7096  0.1249
  245MOL0     O32971   5.652   5.874   4.169 -0.0838 -0.4530 -0.2728
  245MOL0     C32972   5.609   5.760   4.101  0.1705  0.3003  0.4699
  245MOL0     C32973   5.480   5.719   4.084 -0.1781 -0.1851  0.5045
  245MOL0     C32974   5.455   5.601   3.998 -0.0151  0.2563 -0.5019
  245MOL0     C32975   5.557   5.519   3.944 -0.1112 -0.0635  0.5205
  245MOL0     O32976   5.517   5.410   3.875 -0.3402  0.4614 -0.5357
  245MOL0     C32977   5.620   5.307   3.861  0.2862  0.2059  0.3074
  245MOL0     C32978   5.548   5.174   3.884  0.3904 -0.1701 -0.4491
  245MOL0     C32979   5.627   5.042   3.850  0.1216  0.5825  0.2044
  245MOL0     C32980   5.726   4.993   3.947 -0.3798 -0.2922 -0.8295
  245MOL0     C32981   5.756   4.846   3.937  0.7995  0.8287 -0.1196
  245MOL0     C32982   5.880   4.809   4.025 -0.0182  0.4958  0.6175
  245MOL0     C32983   5.890   4.656   4.027  0.3260  0.0816 -0.1585
  245MOL0     C32984   6.017   4.618   4.107  0.1318  0.2092 -0.0890
  245MOL0    Cl32985   6.167   4.658   4.028  0.5761 -0.4908  0.4729
  245MOL0     C32986   5.687   5.558   3.971 -0.0014 -0.1610 -0.9748
  245MOL0     C32987   5.711   5.680   4.044  0.7570  0.6085 -0.5155
  245MOL0     O32988   5.483   6.020   4.100  0.4960 -0.3704 -0.1128
  245MOL0     C32989   5.741   6.068   4.331  0.0054 -0.2447  1.5686
  245MOL0     C32990   5.781   6.145   4.435 -0.3408  0.5372  0.2607
  245MOL0     N32991   5.542   6.546   4.317  0.7484 -0.6622  0.6345
  245MOL0     N32992   5.431   6.490   4.288 -0.0298 -0.1569 -0.2842
  245MOL0     C32993   4.661   6.507   4.159  0.8834  0.4521  0.5282
  245MOL0     C32994   4.595   6.418   4.073 -0.1595  0.1170 -1.0069
  245MOL0     C32995   4.315   6.251   3.764  0.2402 -0.0770  0.2120
  245MOL0     C32996   4.262   6.130   3.826 -0.2211  0.1811 -0.1898
  245MOL0     C32997   4.233   6.015   3.744  0.3440 -0.2619 -0.1997
  245MOL0     C32998   4.226   6.024   3.604  0.4097 -0.2214  0.6010
  245MOL0     O32999   4.200   5.916   3.525  0.7247 -0.3206 -0.8886
  245MOL0     C33000   4.090   5.934   3.430 -0.4664  0.6509 -0.2124
  245MOL0     C33001   3.938   5.959   3.480  0.1298  0.3537  0.5463
  245MOL0     C33002   3.902   5.842   3.571  0.6817  0.9870 -0.5584
  245MOL0     C33003   3.768   5.872   3.651  0.2567 -0.9682 -0.1171
  245MOL0     C33004   3.715   5.748   3.714 -0.7099 -0.4945  0.5383
  245MOL0     C33005   3.673   5.647   3.767 -1.2640  0.0196 -0.1779
  245MOL0     C33006   4.271   6.142   3.543  0.1938 -1.0233 -1.1300
  245MOL0     C33007   4.315   6.244   3.624 -0.3530 -0.2924 -0.3009
  245MOL0     H33008   4.272   6.544   4.115 -1.1907 -0.8387  1.1346
  245MOL0     H33009   4.386   6.691   4.269 -1.4052  0.4272 -1.6640
  245MOL0     H33010   4.560   6.880   4.347 -0.4807  0.4108  2.0191
  245MOL0     H33011   4.532   6.746   4.445  1.5656 -0.5339  1.6812
  245MOL0     H33012   4.673   6.942   4.521  1.1729 -0.4338  1.5161
  245MOL0     H33013   4.754   6.784   4.544 -0.6803  1.1673  0.9895
  245MOL0     H33014   4.835   6.865   4.290 -2.8917 -0.7584  0.3431
  245MOL0     H33015   4.795   7.018   4.356 -3.4274 -1.9266 -0.7260
  245MOL0     H33016   5.041   6.994   4.400 -0.9190  0.5595  0.3229
  245MOL0     H33017   4.968   6.940   4.554  2.3811  2.7574 -1.0236
  245MOL0     H33018   5.109   6.759   4.489 -0.4323 -1.2724 -0.6591
  245MOL0     H33019   4.952   6.692   4.429  1.7949 -3.4162 -2.7639
  245MOL0     H33020   5.016   6.785   4.200  0.6434  0.8201 -0.0417
  245MOL0     H33021   5.175   6.801   4.266 -0.3349  0.2407  0.8147
  245MOL0     H33022   4.999   6.537   4.229  1.4822 -1.8471  0.1151
  245MOL0     H33023   5.137   6.599   4.140  0.0588  1.9324  0.4030
  245MOL0     H33024   5.201   6.406   4.310 -2.9880 -1.3549 -2.0184
  245MOL0     H33025   5.147   6.513   4.437  2.9628  0.1134  1.5849
  245MOL0     H33026   5.327   6.703   4.507  0.5420  0.9578 -0.8034
  245MOL0     H33027   5.709   6.731   4.435 -0.3113 -0.5546  1.3992
  245MOL0     H33028   5.574   6.828   4.482  0.3019  0.5518  0.3360
  245MOL0     H33029   5.544   6.711   4.677 -1.4285 -1.7551 -0.9721
  245MOL0     H33030   5.721   6.732   4.668  0.7513 -2.3515  0.4450
  245MOL0     H33031   5.548   6.474   4.636  0.5607 -0.4455 -3.5976
  245MOL0     H33032   5.670   6.486   4.753  0.0094  0.9072  0.1916
  245MOL0     H33033   5.837   6.517   4.561 -0.6127  2.5089  0.7424
  245MOL0     H33034   5.700   6.479   4.453 -2.1816 -1.8342  0.9223
  245MOL0     H33035   5.495   6.302   4.522  0.1878  0.3281  1.0732
  245MOL0     H33036   5.350   6.208   4.255  2.3867  0.6059  0.0277
  245MOL0     H33037   5.320   6.062   4.346  0.4925 -0.0278 -0.2552
  245MOL0     H33038   5.312   6.227   4.424  1.0383  2.9472 -1.8495
  245MOL0     H33039   5.397   5.783   4.112  0.2995  1.2747 -1.2387
  245MOL0     H33040   5.353   5.575   3.972  0.4481 -0.4738 -1.6492
  245MOL0     H33041   5.670   5.292   3.764 -0.1244 -1.4184  0.3083
  245MOL0     H33042   5.695   5.307   3.941 -1.6650 -0.4042  2.2251
  245MOL0     H33043   5.500   5.170   3.983 -4.7700  0.8450 -2.6050
  245MOL0     H33044   5.461   5.177   3.817  0.6405  2.2324 -0.7584
  245MOL0     H33045   5.679   5.046   3.754 -1.9352  1.6233 -0.9536
  245MOL0     H33046   5.540   4.977   3.835 -0.0764  0.5266  1.4992
  245MOL0     H33047   5.819   5.049   3.932 -2.0522  3.3003  0.8586
  245MOL0     H33048   5.691   5.027   4.045  1.3030  0.5666 -0.4989
  245MOL0     H33049   5.781   4.821   3.834  0.2763  1.5288 -0.4233
  245MOL0     H33050   5.668   4.790   3.968 -0.0591  0.9517 -2.2042
  245MOL0     H33051   5.968   4.862   3.988 -1.4549  1.4493 -1.6381
  245MOL0     H33052   5.859   4.832   4.130 -0.9596  2.0138  0.1354
  245MOL0     H33053   5.907   4.621   3.925 -0.9183 -7.2030  1.5575
  245MOL0     H33054   5.799   4.601   4.053 -1.1661  2.4440 -0.0074
  245MOL0     H33055   6.023   4.509   4.108  0.6608  0.2173 -0.8405
  245MOL0     H33056   6.023   4.654   4.209  1.5425  2.1300 -0.8032
  245MOL0     H33057   5.763   5.506   3.914 -1.8960 -0.6681 -3.1917
  245MOL0     H33058   5.813   5.718   4.049  1.1200 -0.1976 -1.4161
  245MOL0     H33059   5.811   6.003   4.279 -0.5016 -0.7723  1.5278
  245MOL0     H33060   5.888   6.142   4.456 -0.8192 -2.1869  3.0999
  245MOL0     H33061   4.768   6.493   4.172  0.6159 -0.7727  1.4866
  245MOL0     H33062   4.639   6.330   4.025 -2.3931 -2.0173  0.5934
  245MOL0     H33063   4.264   6.126   3.934 -0.8799  0.4128 -0.1613
  245MOL0     H33064   4.212   5.922   3.797 -0.2371 -0.1347 -0.2008
  245MOL0     H33065   4.110   6.013   3.356  2.0161 -0.8984 -1.3025
  245MOL0     H33066   4.091   5.843   3.370  0.8298  0.9803 -0.7174
  245MOL0     H33067   3.877   5.947   3.390  1.9824 -3.2177 -0.4365
  245MOL0     H33068   3.916   6.054   3.528 -0.7097  1.1537 -1.2999
  245MOL0     H33069   3.984   5.833   3.643 -0.1153  0.4540  0.3037
  245MOL0     H33070   3.886   5.750   3.514  0.5665  0.7570 -0.1562
  245MOL0     H33071   3.688   5.887   3.578  0.6765 -4.6455 -1.5785
  245MOL0     H33072   3.770   5.956   3.720  1.3051  0.0711 -1.3518
  245MOL0     H33073   3.650   5.559   3.825  0.0481  0.5879  1.2654
  245MOL0     H33074   4.263   6.152   3.435  1.5305 -0.0430 -1.1545
  245MOL0     H33075   4.354   6.333   3.576 -0.6132  1.8739  3.1525
  246MOL0     O33076   2.848   8.065   6.418 -0.1645 -0.1152  0.4799
  246MOL0     C33077   2.926   7.971   6.446  0.6575  0.4290  0.0170
  246MOL0     O33078   2.940   7.855   6.375 -0.4208 -0.9793  0.3918
  246MOL0     C33079   2.829   7.810   6.307  0.2750  0.1261 -0.3839
  246MOL0     C33080   2.847   7.773   6.175  0.9177  0.6032  0.0103
  246MOL0     C33081   2.742   7.718   6.096  0.3426 -0.3001  0.7390
  246MOL0     C33082   2.619   7.693   6.149  0.1051 -0.0212 -0.1149
  246MOL0     O33083   2.507   7.645   6.076  0.0408  0.3338  0.3539
  246MOL0     C33084   2.416   7.548   6.135  0.5030  0.0103 -0.1045
  246MOL0     C33085   2.288   7.552   6.053  0.9721  0.4696 -0.0154
  246MOL0     C33086   2.178   7.450   6.098 -0.0891 -0.0925  0.9401
  246MOL0     C33087   2.040   7.488   6.035  0.2344  0.6015  0.5012
  246MOL0     C33088   1.956   7.390   6.116 -0.0750  0.8047  0.2191
  246MOL0     C33089   1.806   7.390   6.082  0.2427 -0.1831 -0.0954
  246MOL0     C33090   1.735   7.301   6.175 -0.2448  0.1440  1.2036
  246MOL0     C33091   1.592   7.288   6.152 -0.3528 -1.3307  0.4166
  246MOL0     N33092   1.561   7.221   6.026  0.7525 -0.3203 -0.5671
  246MOL0     C33093   1.455   7.250   5.937  0.6814  0.1608 -0.4179
  246MOL0     C33094   1.471   7.166   5.830  0.0258  0.1702  0.4357
  246MOL0     C33095   1.381   7.157   5.711 -1.2938  0.1335 -0.5089
  246MOL0     C33096   1.404   7.280   5.622  0.0068  0.1494  0.7171
  246MOL0     C33097   1.318   7.266   5.494 -0.3019  1.0910 -0.1998
  246MOL0     C33098   1.314   7.401   5.417  0.5396 -0.3572 -0.6564
  246MOL0     O33099   1.225   7.407   5.300  0.4026  0.6396  0.3403
  246MOL0     C33100   1.090   7.379   5.331 -0.1861 -0.2647  0.0260
  246MOL0     C33101   1.015   7.281   5.274 -0.1218  0.1511 -0.1106
  246MOL0     C33102   0.871   7.284   5.286 -0.2325 -0.4503 -0.3194
  246MOL0     C33103   0.778   7.172   5.230  0.2808 -0.8991  0.4946
  246MOL0     C33104   0.815   7.391   5.357  0.8457 -0.5120  0.4590
  246MOL0     C33105   0.668   7.422   5.359  0.4895 -0.4001  0.7716
  246MOL0     O33106   0.636   7.551   5.360 -0.5487 -0.2374 -0.0688
  246MOL0     C33107   0.534   7.596   5.289  0.8409  0.5608  0.5112
  246MOL0     C33108   0.476   7.720   5.319 -0.4399  0.7610  0.2892
  246MOL0     C33109   0.381   7.777   5.228  0.1037 -0.6631 -1.0422
  246MOL0     C33110   0.339   7.703   5.120  0.8994  0.4095  0.7219
  246MOL0     O33111   0.232   7.753   5.040 -0.5175  0.5899 -0.3526
  246MOL0     C33112   0.103   7.751   5.110  0.0755  0.3838  1.3246
  246MOL0     C33113   0.020   7.644   5.051  0.0724 -0.7509 -0.9862
  246MOL0     C33114  -0.036   7.697   4.918  0.0016  0.0991 -0.0287
  246MOL0     C33115  -0.110   7.569   4.857 -0.0001  0.0389  0.1708
  246MOL0     C33116  -0.173   7.599   4.718 -0.0892  0.0661 -0.5838
  246MOL0     C33117  -0.296   7.681   4.733  0.1989 -0.4891  0.4977
  246MOL0     C33118  -0.387   7.674   4.610  0.5315 -0.4737  0.0435
  246MOL0     C33119  -0.331   7.755   4.492  0.3218 -0.2488 -0.3203
  246MOL0    Cl33120  -0.290   7.925   4.531  0.1661 -0.3034  0.1721
  246MOL0     C33121   0.379   7.575   5.091 -1.2239  0.7875 -0.2286
  246MOL0     C33122   0.479   7.526   5.173 -0.1092  0.5181  1.0689
  246MOL0     O33123   0.586   7.330   5.358  0.0971 -0.4435  0.2561
  246MOL0     C33124   0.886   7.487   5.427 -0.6561 -0.0336 -0.6552
  246MOL0     C33125   1.027   7.480   5.409 -0.4157 -1.0820  0.4751
  246MOL0     N33126   1.578   7.078   5.869 -0.0059 -0.0151 -0.3648
  246MOL0     N33127   1.635   7.118   5.975 -0.0342 -0.0040 -0.0243
  246MOL0     C33128   2.605   7.726   6.291  0.6787  0.5418  0.5463
  246MOL0     C33129   2.706   7.781   6.365  0.7347 -0.2366 -0.2932
  246MOL0     C33130   3.042   8.017   6.527 -0.2010 -0.7123  1.2728
  246MOL0     C33131   3.049   8.149   6.575 -0.5650 -0.2739  0.2738
  246MOL0     C33132   3.154   8.190   6.653  0.2143  0.5610  0.4688
  246MOL0     C33133   3.261   8.102   6.691 -0.0765 -0.6815  0.3644
  246MOL0     O33134   3.352   8.144   6.785  0.5302 -0.1569 -0.0413
  246MOL0     C33135   3.454   8.059   6.827 -0.4269  0.9904  0.0413
  246MOL0     C33136   3.515   8.120   6.956  1.0515  0.5819  0.7725
  246MOL0     C33137   3.627   8.212   6.920  0.9620  0.1409 -0.2589
  246MOL0     C33138   3.654   8.296   7.042 -0.1942  0.8426 -0.0553
  246MOL0     C33139   3.781   8.371   7.016 -0.0273  0.2155  0.8021
  246MOL0     C33140   3.887   8.426   7.003  0.4468 -0.1606 -0.9003
  246MOL0     C33141   3.259   7.969   6.638  0.4701 -0.3298  0.4596
  246MOL0     C33142   3.148   7.926   6.567  0.6877  0.0881 -0.1053
  246MOL0     H33143   2.937   7.792   6.117 -0.1355 -1.5993 -2.5690
  246MOL0     H33144   2.758   7.682   5.995 -2.7035  0.0106  0.0663
  246MOL0     H33145   2.458   7.447   6.124  0.0384 -0.2516  0.4570
  246MOL0     H33146   2.396   7.565   6.241  2.0481  1.8034 -0.0542
  246MOL0     H33147   2.243   7.651   6.058  0.2329  0.0940  1.1188
  246MOL0     H33148   2.323   7.537   5.951  2.3053 -0.8271  0.5879
  246MOL0     H33149   2.214   7.347   6.088  1.6569  0.4304  1.4749
  246MOL0     H33150   2.174   7.475   6.204 -0.5116  3.4860  0.1986
  246MOL0     H33151   2.017   7.595   6.035 -0.8628  0.4092 -1.3184
  246MOL0     H33152   2.042   7.461   5.929 -1.3190 -3.2599  1.3113
  246MOL0     H33153   1.992   7.288   6.111 -1.3069  0.3660 -0.1750
  246MOL0     H33154   1.951   7.419   6.221  0.4437  2.9712 -0.2998
  246MOL0     H33155   1.762   7.486   6.108 -3.8307 -1.6456 -0.8481
  246MOL0     H33156   1.779   7.363   5.979 -2.5860  0.3083  0.4448
  246MOL0     H33157   1.789   7.206   6.170  0.3062  0.5186 -0.8003
  246MOL0     H33158   1.734   7.330   6.281  2.3192 -2.2363  1.9899
  246MOL0     H33159   1.557   7.392   6.153 -0.4261 -1.3455 -0.3276
  246MOL0     H33160   1.546   7.246   6.242 -2.1774  2.0286  1.2176
  246MOL0     H33161   1.375   7.321   5.948 -3.2398 -3.9364  0.6558
  246MOL0     H33162   1.414   7.065   5.662  4.1571 -0.2208  2.9231
  246MOL0     H33163   1.274   7.149   5.732 -1.8902  2.1256 -2.3707
  246MOL0     H33164   1.513   7.283   5.608 -0.2785  0.2322 -2.2538
  246MOL0     H33165   1.366   7.368   5.674  1.2856  1.5457 -0.6168
  246MOL0     H33166   1.217   7.242   5.528  0.1331  1.1791  1.1926
  246MOL0     H33167   1.353   7.183   5.431 -1.2216  1.0492 -0.6737
  246MOL0     H33168   1.416   7.432   5.392  0.1454  1.8496  0.2116
  246MOL0     H33169   1.287   7.475   5.493  1.3088 -0.4496 -0.2798
  246MOL0     H33170   1.061   7.201   5.216 -3.3868 -2.1205  0.1235
  246MOL0     H33171   0.735   7.125   5.319  0.9777  0.7264  1.7447
  246MOL0     H33172   0.689   7.201   5.175  0.9602 -2.8838 -1.8058
  246MOL0     H33173   0.835   7.103   5.167 -2.0298 -2.3835 -0.1068
  246MOL0     H33174   0.511   7.782   5.401  4.2210  0.0136 -0.8271
  246MOL0     H33175   0.343   7.876   5.250  2.9347 -0.0802  1.9431
  246MOL0     H33176   0.117   7.728   5.216 -1.4571 -0.5201  1.3514
  246MOL0     H33177   0.053   7.847   5.093 -1.1341 -0.4603 -0.1076
  246MOL0     H33178   0.077   7.551   5.040  3.1837  0.8401  0.2881
  246MOL0     H33179  -0.069   7.627   5.112 -0.4749  1.0670 -1.2142
  246MOL0     H33180   0.042   7.735   4.851 -3.2998  1.4037 -3.4260
  246MOL0     H33181  -0.121   7.764   4.926 -1.2583 -1.1415 -2.1074
  246MOL0     H33182  -0.044   7.483   4.838  2.7467  0.8616  4.6257
  246MOL0     H33183  -0.185   7.537   4.929 -1.0827 -0.0746 -0.9726
  246MOL0     H33184  -0.204   7.499   4.686  0.0849 -0.8409  1.8815
  246MOL0     H33185  -0.100   7.643   4.649 -0.3204  2.5147  0.6140
  246MOL0     H33186  -0.353   7.648   4.820  1.1794  1.5280  1.9988
  246MOL0     H33187  -0.263   7.784   4.751  2.1489 -0.8104 -0.9184
  246MOL0     H33188  -0.493   7.699   4.626 -0.1970 -2.8192 -0.6282
  246MOL0     H33189  -0.391   7.570   4.576 -1.9997 -0.9049  1.3680
  246MOL0     H33190  -0.394   7.748   4.403 -1.5263  1.3294  0.7771
  246MOL0     H33191  -0.232   7.715   4.466 -0.3066 -2.8937  1.0834
  246MOL0     H33192   0.355   7.524   4.999  3.9665 -0.3554 -1.2709
  246MOL0     H33193   0.526   7.429   5.155 -2.0457 -0.5426  1.4577
  246MOL0     H33194   0.852   7.578   5.474  1.1189  0.6993 -0.7236
  246MOL0     H33195   1.086   7.560   5.453 -0.6464 -0.2505 -0.6675
  246MOL0     H33196   2.511   7.703   6.341  1.3467 -4.5588 -0.0295
  246MOL0     H33197   2.690   7.810   6.468  1.3914  4.6048 -1.3343
  246MOL0     H33198   2.987   8.231   6.540  1.6662  1.6545  0.5661
  246MOL0     H33199   3.153   8.294   6.684 -0.9889  0.7134 -0.0446
  246MOL0     H33200   3.405   7.963   6.846  1.3067  0.3024  1.2470
  246MOL0     H33201   3.536   8.037   6.758  1.2758 -1.0007  2.5103
  246MOL0     H33202   3.553   8.032   7.010  1.9894  0.0363 -0.7414
  246MOL0     H33203   3.436   8.167   7.016 -0.4046 -0.7622 -0.0117
  246MOL0     H33204   3.588   8.272   6.838 -0.6165  1.9056  1.6520
  246MOL0     H33205   3.718   8.163   6.885 -0.2005 -2.6375  0.3600
  246MOL0     H33206   3.664   8.223   7.123 -0.4388 -1.2073 -1.8026
  246MOL0     H33207   3.576   8.370   7.061  0.0667  0.8310  1.1761
  246MOL0     H33208   3.981   8.477   6.992 -0.0748  0.9957 -0.1647
  246MOL0     H33209   3.332   7.893   6.664 -0.5941 -1.8330 -0.7189
  246MOL0     H33210   3.133   7.824   6.533  0.1841  0.1378 -0.0360
  247MOL0     O33211  10.252   7.227   3.659 -0.8492  0.1602  0.5210
  247MOL0     C33212  10.204   7.185   3.553  0.4674 -0.0631 -1.4159
  247MOL0     O33213  10.260   7.092   3.474  0.1295 -0.2190  0.0117
  247MOL0     C33214  10.386   7.046   3.501 -0.0691 -0.4352 -0.3744
  247MOL0     C33215  10.510   7.121   3.487  0.1666  1.0346 -0.5582
  247MOL0     C33216  10.630   7.059   3.534  0.3655  0.0090 -0.4537
  247MOL0     C33217  10.631   6.923   3.586 -0.1991  0.2596  0.4165
  247MOL0     O33218  10.748   6.860   3.625 -0.1243 -0.7607  0.1711
  247MOL0     C33219  10.868   6.949   3.635 -0.2323 -0.0032 -0.1086
  247MOL0     C33220  10.992   6.866   3.658  0.5113  0.4998  0.2618
  247MOL0     C33221  10.993   6.799   3.801  0.8082 -0.4712 -0.2436
  247MOL0     C33222  10.886   6.705   3.836  0.2265  0.1545 -0.2801
  247MOL0     C33223  10.871   6.582   3.767  0.3992 -0.2134  0.6289
  247MOL0     C33224  10.999   6.500   3.740 -1.0689  0.8456 -0.4472
  247MOL0     C33225  10.978   6.369   3.665 -0.2930  0.0682 -0.3384
  247MOL0     C33226  11.104   6.287   3.652  0.2883 -0.7254 -0.4258
  247MOL0     N33227  11.111   6.213   3.530  0.4140 -0.8140  0.9552
  247MOL0     C33228  11.044   6.094   3.504 -0.2187 -0.2120  0.1298
  247MOL0     C33229  11.109   6.027   3.402 -0.5350 -1.3792  0.2947
  247MOL0     C33230  11.061   5.903   3.325  0.1760  0.0263 -0.1571
  247MOL0     C33231  11.006   5.941   3.183  0.6267  0.5744 -0.2676
  247MOL0     C33232  11.044   5.831   3.087 -0.9040  0.3262 -0.1949
  247MOL0     C33233  10.970   5.703   3.092 -0.4240  0.2146 -0.1122
  247MOL0     O33234  11.064   5.596   3.082  0.6714 -0.3163  0.3087
  247MOL0     C33235  11.128   5.535   3.180 -0.3674 -0.3950  0.7617
  247MOL0     C33236  11.070   5.498   3.301  0.6188  0.2229  0.7493
  247MOL0     C33237  11.150   5.429   3.395 -0.4252  0.1790 -1.3462
  247MOL0     C33238  11.076   5.371   3.511  0.1041 -0.1014  0.4453
  247MOL0     C33239  11.300   5.429   3.380  0.5682  0.1513 -0.3959
  247MOL0     C33240  11.388   5.355   3.469 -0.7827 -0.8929 -0.1480
  247MOL0     O33241  11.337   5.246   3.529 -0.2494 -0.0373  0.0019
  247MOL0     C33242  11.427   5.176   3.611  0.7699 -0.8683 -0.0672
  247MOL0     C33243  11.446   5.211   3.746  0.6663  0.3778  0.3980
  247MOL0     C33244  11.534   5.130   3.817 -0.6868 -0.7695  0.1816
  247MOL0     C33245  11.621   5.034   3.754  0.1494  0.6017  1.1896
  247MOL0     O33246  11.727   4.992   3.834  0.5637 -0.1752 -0.1615
  247MOL0     C33247  11.789   4.870   3.801 -0.3813  0.6206 -0.6686
  247MOL0     C33248  11.836   4.803   3.928  0.1926 -0.5967  0.5992
  247MOL0     C33249  11.873   4.656   3.909 -0.5341  0.3558  0.5320
  247MOL0     C33250  12.006   4.634   3.831  1.0964  0.1199 -1.1263
  247MOL0     C33251  12.130   4.643   3.921  0.3453  0.5956 -0.5400
  247MOL0     C33252  12.126   4.536   4.043  0.2162 -0.3616  0.7357
  247MOL0     C33253  12.262   4.518   4.105 -1.1281  0.9215 -1.0134
  247MOL0     C33254  12.317   4.648   4.161  0.4572  0.2234 -0.4185
  247MOL0    Cl33255  12.479   4.622   4.213  0.0751  0.0995  0.2525
  247MOL0     C33256  11.606   5.003   3.620 -0.4719 -0.8249  0.5260
  247MOL0     C33257  11.509   5.079   3.547 -0.8675 -0.5409 -0.7591
  247MOL0     O33258  11.501   5.406   3.492 -0.1893  0.3587  0.6649
  247MOL0     C33259  11.351   5.485   3.263 -0.4913 -1.3058  0.7839
  247MOL0     C33260  11.268   5.538   3.164 -0.6999  1.0539  0.4131
  247MOL0     N33261  11.223   6.101   3.382 -0.0795 -0.2513  0.5048
  247MOL0     N33262  11.222   6.204   3.456  0.5813  0.1130  0.2368
  247MOL0     C33263  10.511   6.864   3.601  0.6842  0.7624  0.3499
  247MOL0     C33264  10.387   6.918   3.550  0.1239 -0.5077 -0.1016
  247MOL0     C33265  10.083   7.263   3.502 -0.2921 -0.0299  0.3867
  247MOL0     C33266  10.021   7.237   3.378  0.1439 -0.3754 -0.7120
  247MOL0     C33267   9.895   7.292   3.344 -1.0535 -0.6108 -0.7152
  247MOL0     C33268   9.822   7.359   3.434 -0.5099 -0.1594 -0.3158
  247MOL0     O33269   9.686   7.390   3.396  0.3607  0.5114 -0.1195
  247MOL0     C33270   9.585   7.362   3.492 -0.0367  0.8030  0.2275
  247MOL0     C33271   9.447   7.348   3.425  0.0362 -0.2124  0.0263
  247MOL0     C33272   9.384   7.490   3.390 -0.4557 -0.3315 -0.3954
  247MOL0     C33273   9.417   7.535   3.247  0.1415  0.2122  0.6737
  247MOL0     C33274   9.351   7.668   3.238  0.1670  0.2008 -0.3255
  247MOL0     C33275   9.310   7.782   3.223  0.1646  0.3205  0.5167
  247MOL0     C33276   9.877   7.378   3.560  0.4918 -0.2927 -0.0202
  247MOL0     C33277  10.002   7.329   3.595 -0.7617 -0.3085  0.0747
  247MOL0     H33278  10.501   7.220   3.442 -2.4290  2.1119  1.9769
  247MOL0     H33279  10.703   7.139   3.525 -3.3207  3.8692  0.6320
  247MOL0     H33280  10.891   7.005   3.544  0.9897 -2.3001 -1.2903
  247MOL0     H33281  10.860   7.022   3.717  1.1411 -3.0024  2.9080
  247MOL0     H33282  10.990   6.785   3.584  1.6103  0.6248  0.0858
  247MOL0     H33283  11.081   6.928   3.647  0.2694  0.6305 -1.0361
  247MOL0     H33284  11.090   6.752   3.819  0.8128  0.0141  1.1395
  247MOL0     H33285  10.980   6.885   3.868 -1.8737 -1.7412  1.0232
  247MOL0     H33286  10.899   6.679   3.942 -1.4975  1.8034  0.4065
  247MOL0     H33287  10.792   6.762   3.840  0.0430 -0.1604  3.4105
  247MOL0     H33288  10.801   6.516   3.818 -0.9282 -0.2321 -1.1203
  247MOL0     H33289  10.816   6.601   3.674  1.5702  0.3664  0.0276
  247MOL0     H33290  11.070   6.565   3.687  0.2420  2.7767  3.3413
  247MOL0     H33291  11.057   6.483   3.831  1.4343  2.5864 -1.5919
  247MOL0     H33292  10.909   6.297   3.709  0.6399 -0.0002  1.0964
  247MOL0     H33293  10.935   6.389   3.566 -0.7007  0.2914 -0.1168
  247MOL0     H33294  11.107   6.216   3.735 -2.6695 -0.9145 -0.3780
  247MOL0     H33295  11.187   6.358   3.661  0.1835 -0.7115  0.5533
  247MOL0     H33296  10.947   6.058   3.539 -2.2696  2.6524 -2.0618
  247MOL0     H33297  11.139   5.827   3.322 -0.1326 -0.3467  0.9301
  247MOL0     H33298  10.983   5.857   3.386  1.6622  0.9296  2.5721
  247MOL0     H33299  11.048   6.037   3.153  0.8811  0.7533  0.6434
  247MOL0     H33300  10.897   5.949   3.192  0.8431  1.5163  2.5795
  247MOL0     H33301  11.150   5.817   3.111 -1.1426  1.4790  1.6747
  247MOL0     H33302  11.032   5.872   2.986  2.0139  0.3961 -0.6188
  247MOL0     H33303  10.890   5.692   3.019 -0.8349 -1.1417  0.4950
  247MOL0     H33304  10.916   5.693   3.187 -1.0152 -0.9400 -0.5515
  247MOL0     H33305  10.963   5.509   3.310  0.6551  1.7142 -0.4672
  247MOL0     H33306  10.981   5.422   3.527  1.8340  2.9522  1.8548
  247MOL0     H33307  11.078   5.262   3.508  1.2791 -0.1073  0.6363
  247MOL0     H33308  11.135   5.396   3.600  4.3358 -0.0130 -2.0806
  247MOL0     H33309  11.387   5.291   3.791 -1.8347 -1.6365  0.9114
  247MOL0     H33310  11.543   5.145   3.925  2.4273  2.4265 -0.3349
  247MOL0     H33311  11.715   4.814   3.743  1.5117  2.4498 -5.3574
  247MOL0     H33312  11.875   4.889   3.736 -0.7645  3.1737 -0.5283
  247MOL0     H33313  11.913   4.867   3.973  0.0246 -0.6344  0.9465
  247MOL0     H33314  11.753   4.808   4.000  1.7141  0.0851  2.4035
  247MOL0     H33315  11.801   4.596   3.852 -0.4762 -0.3268  1.1632
  247MOL0     H33316  11.878   4.619   4.011  1.6906 -2.3040 -0.4422
  247MOL0     H33317  11.997   4.541   3.774 -2.0057  0.0922 -0.8002
  247MOL0     H33318  12.016   4.710   3.754  1.3964  0.6344 -0.5829
  247MOL0     H33319  12.122   4.737   3.976 -2.8109  0.2091 -0.1716
  247MOL0     H33320  12.217   4.645   3.855 -1.2766 -0.2632 -2.8325
  247MOL0     H33321  12.047   4.558   4.116  2.0500  4.2054  1.7123
  247MOL0     H33322  12.104   4.442   3.993 -2.6947  0.6481 -0.0754
  247MOL0     H33323  12.335   4.494   4.027 -2.9021  2.0496 -3.1200
  247MOL0     H33324  12.275   4.434   4.173  1.5115  1.2919 -0.9214
  247MOL0     H33325  12.247   4.668   4.242  0.7587 -2.1186  0.5140
  247MOL0     H33326  12.321   4.732   4.091  1.0182 -1.9410 -3.1525
  247MOL0     H33327  11.666   4.925   3.576 -0.9161 -0.9257  0.0945
  247MOL0     H33328  11.513   5.059   3.441  3.3397 -1.9254 -0.5098
  247MOL0     H33329  11.458   5.501   3.253 -1.0265  2.3536 -0.7188
  247MOL0     H33330  11.307   5.568   3.068 -0.3897 -2.1245 -0.5591
  247MOL0     H33331  10.495   6.766   3.645  1.2568  0.4121 -0.2073
  247MOL0     H33332  10.294   6.871   3.581 -0.3156  1.8208  2.4573
  247MOL0     H33333  10.079   7.187   3.302  0.2794  0.8035 -1.4021
  247MOL0     H33334   9.854   7.261   3.248 -0.6155 -0.4189 -0.9664
  247MOL0     H33335   9.603   7.264   3.535 -0.6201  0.0672 -1.1306
  247MOL0     H33336   9.584   7.438   3.570 -1.1473  0.0845  0.9341
  247MOL0     H33337   9.375   7.316   3.502  0.5852  1.4931  1.2991
  247MOL0     H33338   9.453   7.275   3.344  1.7174 -1.1532  0.9434
  247MOL0     H33339   9.431   7.554   3.465 -3.6981 -1.4349  2.8324
  247MOL0     H33340   9.275   7.487   3.400 -0.6122 -2.2079 -1.9409
  247MOL0     H33341   9.377   7.472   3.167 -0.5778  0.8221  0.5405
  247MOL0     H33342   9.525   7.548   3.239 -0.0482  0.9801 -1.2283
  247MOL0     H33343   9.268   7.880   3.232  0.2142  0.5607 -1.4397
  247MOL0     H33344   9.831   7.424   3.647 -0.8839 -1.9406  0.1850
  247MOL0     H33345  10.039   7.344   3.696 -1.6707  1.2208  0.2076
  248MOL0     O33346   8.167   6.767   7.223 -0.4222  0.8640 -0.2723
  248MOL0     C33347   8.098   6.682   7.279  0.6351  0.0233 -0.3035
  248MOL0     O33348   8.065   6.681   7.414  0.4418  0.3992 -0.3425
  248MOL0     C33349   8.082   6.801   7.491 -0.9286  0.5300 -0.0616
  248MOL0     C33350   8.210   6.825   7.542 -0.0357 -0.4640  0.5621
  248MOL0     C33351   8.237   6.947   7.596 -0.0301  0.2108 -0.0531
  248MOL0     C33352   8.136   7.048   7.606  0.3616 -1.1728 -0.4838
  248MOL0     O33353   8.157   7.179   7.668  0.1183  0.3302  0.1524
  248MOL0     C33354   8.265   7.192   7.762  0.7688 -0.2081  0.2724
  248MOL0     C33355   8.362   7.309   7.745 -0.2499  1.4787  0.7562
  248MOL0     C33356   8.463   7.303   7.626  0.1882  0.4700  0.1002
  248MOL0     C33357   8.580   7.403   7.631 -0.5602 -0.5943  0.3681
  248MOL0     C33358   8.696   7.341   7.552 -0.1760  0.1727  0.8244
  248MOL0     C33359   8.823   7.325   7.632 -0.1192  0.0764 -0.1812
  248MOL0     C33360   8.922   7.242   7.546 -0.0726  0.4315  0.1535
  248MOL0     C33361   9.060   7.237   7.614 -0.5673 -0.4719  1.3168
  248MOL0     N33362   9.066   7.187   7.754 -0.0006 -0.2316 -0.3486
  248MOL0     C33363   9.064   7.260   7.869 -0.0441 -0.0770  0.1361
  248MOL0     C33364   9.124   7.183   7.965  0.6559 -0.1436  0.2214
  248MOL0     C33365   9.183   7.225   8.090 -0.5541 -0.5296 -0.9887
  248MOL0     C33366   9.085   7.223   8.210  0.8799 -0.4330 -0.2520
  248MOL0     C33367   9.138   7.289   8.339 -0.3837 -0.7177 -0.0467
  248MOL0     C33368   9.275   7.243   8.385  0.0528  0.4883  0.3638
  248MOL0     O33369   9.286   7.293   8.515  0.5651 -0.6347  0.2790
  248MOL0     C33370   9.415   7.290   8.565  0.8095  0.8812 -0.0754
  248MOL0     C33371   9.513   7.198   8.528  1.0805  0.4484  1.1808
  248MOL0     C33372   9.632   7.186   8.592  0.3455  0.2004 -0.2754
  248MOL0     C33373   9.728   7.089   8.529  0.4239 -0.2037 -0.1553
  248MOL0     C33374   9.666   7.269   8.702  0.5035 -0.4848 -0.5632
  248MOL0     C33375   9.773   7.232   8.799  0.2760  0.2202  0.0043
  248MOL0     O33376   9.793   7.309   8.909 -0.9462  0.2382  0.1762
  248MOL0     C33377   9.894   7.283   8.994  0.7102 -0.1750  0.0385
  248MOL0     C33378  10.013   7.338   8.976  0.8016  0.5408  0.1910
  248MOL0     C33379  10.120   7.306   9.069  0.6564 -0.4438  0.8035
  248MOL0     C33380  10.102   7.214   9.168 -0.1404  0.5418  0.1056
  248MOL0     O33381  10.188   7.189   9.269 -0.0825 -1.1614  0.0139
  248MOL0     C33382  10.321   7.147   9.226 -0.0226 -0.6213 -0.3044
  248MOL0     C33383  10.309   7.012   9.150 -0.4353  0.1141 -0.6972
  248MOL0     C33384  10.319   6.890   9.247  1.0210 -0.7872 -0.4667
  248MOL0     C33385  10.313   6.761   9.168 -0.2673  0.2641 -0.4465
  248MOL0     C33386  10.293   6.634   9.263  0.0159 -0.2892  0.1300
  248MOL0     C33387  10.312   6.501   9.193 -0.0289  0.1017 -0.2471
  248MOL0     C33388  10.219   6.469   9.071 -0.2253 -0.3150  0.6644
  248MOL0     C33389  10.279   6.333   9.012 -0.4237 -1.3409  0.5922
  248MOL0    Cl33390  10.183   6.277   8.869  0.5112 -0.2956  0.0842
  248MOL0     C33391   9.975   7.163   9.187 -0.2013  0.6751  0.1226
  248MOL0     C33392   9.868   7.199   9.103  0.0406 -0.0470  0.1936
  248MOL0     O33393   9.833   7.133   8.778  0.2663  0.1633 -0.2260
  248MOL0     C33394   9.572   7.361   8.740 -1.0126 -0.7650  0.1219
  248MOL0     C33395   9.447   7.374   8.676  0.4548  0.3633  0.8628
  248MOL0     N33396   9.154   7.065   7.908  0.9350  0.8027  0.2502
  248MOL0     N33397   9.119   7.067   7.785  0.7188  0.2785 -0.2486
  248MOL0     C33398   8.011   7.021   7.556  1.5806  0.5732  0.4622
  248MOL0     C33399   7.981   6.893   7.506  0.0245 -0.7104 -0.7648
  248MOL0     C33400   8.074   6.551   7.206  0.4765 -0.2280 -0.6776
  248MOL0     C33401   8.082   6.542   7.066 -1.1156  0.4966 -0.4503
  248MOL0     C33402   8.063   6.420   7.000 -0.7335 -0.5718 -0.2294
  248MOL0     C33403   8.040   6.305   7.070 -1.3299  0.5679  0.2747
  248MOL0     O33404   8.011   6.190   6.998  0.2414 -0.4300  0.4453
  248MOL0     C33405   8.014   6.065   7.062  0.6606 -0.0861  0.5132
  248MOL0     C33406   7.963   5.954   6.965  0.5506  0.1271  0.1185
  248MOL0     C33407   7.898   5.839   7.037  0.1418 -0.1631 -0.0348
  248MOL0     C33408   8.007   5.760   7.104 -0.3997 -0.6141  0.6962
  248MOL0     C33409   7.948   5.648   7.171  0.1654  0.6239  0.3448
  248MOL0     C33410   7.904   5.552   7.241  0.2266 -0.4113 -0.1585
  248MOL0     C33411   8.021   6.315   7.211  0.7092 -0.3399 -0.6411
  248MOL0     C33412   8.026   6.439   7.279 -0.2308 -0.3173 -0.3828
  248MOL0     H33413   8.290   6.752   7.535  0.8912  0.6583 -1.3538
  248MOL0     H33414   8.342   6.959   7.620  0.0561  1.5525 -1.0063
  248MOL0     H33415   8.210   7.209   7.854 -0.3030 -0.1925 -0.3494
  248MOL0     H33416   8.327   7.106   7.787  0.9093  0.2640  1.6023
  248MOL0     H33417   8.308   7.404   7.751 -2.8589  0.0988  0.4008
  248MOL0     H33418   8.432   7.288   7.826 -0.2937 -1.0905  0.1978
  248MOL0     H33419   8.503   7.202   7.612 -4.1689 -1.2657 -1.2614
  248MOL0     H33420   8.402   7.322   7.538 -1.2925  0.1916  1.0405
  248MOL0     H33421   8.552   7.498   7.584 -0.8702 -0.4800  0.7748
  248MOL0     H33422   8.604   7.427   7.736  2.0216  0.9316 -0.4750
  248MOL0     H33423   8.676   7.241   7.512  1.8328 -0.2398  0.7432
  248MOL0     H33424   8.733   7.399   7.468 -0.1439 -1.0173 -0.0089
  248MOL0     H33425   8.870   7.419   7.661  2.1039 -1.1249  0.3174
  248MOL0     H33426   8.799   7.271   7.724 -1.3990  1.4165  0.3254
  248MOL0     H33427   8.880   7.141   7.533  1.0113  0.1629 -1.7101
  248MOL0     H33428   8.938   7.286   7.447 -0.4846  0.3434  0.0454
  248MOL0     H33429   9.107   7.335   7.624  0.5971 -0.8576 -0.0234
  248MOL0     H33430   9.126   7.175   7.552  0.0776  1.2628  0.1976
  248MOL0     H33431   9.053   7.368   7.866  2.3985  0.3627  2.6081
  248MOL0     H33432   9.269   7.158   8.106  1.8663  2.5676 -0.0999
  248MOL0     H33433   9.233   7.320   8.072 -1.5479 -0.2510 -2.4203
  248MOL0     H33434   9.057   7.122   8.243  1.1675 -0.0073  1.3791
  248MOL0     H33435   8.996   7.275   8.175 -0.7760 -2.4880  0.6431
  248MOL0     H33436   9.076   7.274   8.428  1.1023  0.6512  1.2886
  248MOL0     H33437   9.145   7.396   8.319  0.5164 -0.2710  2.3871
  248MOL0     H33438   9.360   7.281   8.327 -0.5404  5.3444  2.1430
  248MOL0     H33439   9.275   7.134   8.376 -2.1878  0.5379 -0.8963
  248MOL0     H33440   9.502   7.149   8.432  3.5109  2.2902 -0.1576
  248MOL0     H33441   9.817   7.146   8.501  0.1855 -0.1004 -0.7282
  248MOL0     H33442   9.754   7.012   8.602  2.3588  0.2142 -0.3420
  248MOL0     H33443   9.696   7.042   8.435 -0.3422 -1.2357  0.6016
  248MOL0     H33444  10.011   7.407   8.892 -0.1719 -1.6756 -1.7366
  248MOL0     H33445  10.217   7.354   9.056  0.4441  0.0125  0.9019
  248MOL0     H33446  10.372   7.223   9.166 -0.1144  1.2909  1.9020
  248MOL0     H33447  10.389   7.126   9.309  1.3335  0.1246 -1.1840
  248MOL0     H33448  10.217   6.988   9.097 -1.2922  2.6943 -0.5475
  248MOL0     H33449  10.382   7.003   9.069 -2.7027  2.3713 -3.1977
  248MOL0     H33450  10.229   6.899   9.307  1.0745  3.0006 -0.7059
  248MOL0     H33451  10.415   6.899   9.298  1.1233  0.6988 -0.8591
  248MOL0     H33452  10.230   6.768   9.097 -2.0471  0.3150  1.5471
  248MOL0     H33453  10.404   6.748   9.108 -0.0608  0.9626 -0.2899
  248MOL0     H33454  10.190   6.624   9.299 -1.0443  0.4015 -2.4600
  248MOL0     H33455  10.367   6.643   9.342 -0.6964  1.6888  0.6299
  248MOL0     H33456  10.417   6.476   9.175 -0.3003 -0.9169 -0.4578
  248MOL0     H33457  10.285   6.425   9.266  1.2530  0.0535  0.1995
  248MOL0     H33458  10.233   6.549   8.998 -1.7518 -0.0435  0.6270
  248MOL0     H33459  10.115   6.462   9.103  0.1894 -0.5135  2.0430
  248MOL0     H33460  10.294   6.253   9.085  0.2400  1.1063  3.3233
  248MOL0     H33461  10.383   6.348   8.981 -0.0533 -3.8288  0.4637
  248MOL0     H33462   9.962   7.107   9.279  1.7193  4.2584  2.7887
  248MOL0     H33463   9.768   7.171   9.134  0.2184 -0.0965  0.7372
  248MOL0     H33464   9.586   7.425   8.826 -1.6745 -1.0298  0.4347
  248MOL0     H33465   9.374   7.449   8.703  2.0999  2.0820  0.6849
  248MOL0     H33466   7.937   7.100   7.557 -1.1461 -1.6535 -2.4211
  248MOL0     H33467   7.880   6.856   7.488  0.9822 -4.1588  0.2426
  248MOL0     H33468   8.116   6.615   6.992  0.0357  0.5374  0.0909
  248MOL0     H33469   8.056   6.415   6.891 -0.9922  0.0165 -0.2438
  248MOL0     H33470   8.118   6.046   7.093  1.7894  4.3961  0.1920
  248MOL0     H33471   7.955   6.074   7.153 -3.8612  1.7786 -2.2472
  248MOL0     H33472   8.036   5.938   6.886  1.5636 -0.9803  1.2319
  248MOL0     H33473   7.878   5.989   6.906  0.8989 -6.3052 -5.3725
  248MOL0     H33474   7.844   5.775   6.966 -0.6190  1.1668 -0.6825
  248MOL0     H33475   7.823   5.884   7.103 -1.6921 -0.6481 -1.6976
  248MOL0     H33476   8.058   5.825   7.176 -2.2470  0.2057  1.3357
  248MOL0     H33477   8.086   5.721   7.039  1.0763 -2.1955  3.2430
  248MOL0     H33478   7.877   5.462   7.293 -1.1902 -1.3598 -2.3658
  248MOL0     H33479   7.974   6.232   7.261  0.4253  1.1805  1.7851
  248MOL0     H33480   8.022   6.438   7.387  4.8075 -0.8651  0.0527
  249MOL0     O33481   2.979   1.482   3.588  0.0051  0.5221 -0.1771
  249MOL0     C33482   3.064   1.565   3.546 -0.0671  1.7311  0.5621
  249MOL0     O33483   3.143   1.550   3.436  0.5616 -0.4659 -0.1008
  249MOL0     C33484   3.162   1.426   3.391  0.5403  0.4574  1.1504
  249MOL0     C33485   3.158   1.421   3.246  0.5986  0.2957 -0.4550
  249MOL0     C33486   3.185   1.300   3.180  0.2652  0.5831  1.4601
  249MOL0     C33487   3.221   1.182   3.254  0.0131 -0.1189  0.5839
  249MOL0     O33488   3.245   1.059   3.196 -0.3410  0.1011  0.1008
  249MOL0     C33489   3.352   1.052   3.105  0.3541 -1.1606 -0.4769
  249MOL0     C33490   3.400   0.900   3.107  0.5233 -0.3159  0.2122
  249MOL0     C33491   3.433   0.843   3.251  0.1104 -0.4363 -0.2828
  249MOL0     C33492   3.485   0.699   3.240  0.8795 -1.0595 -0.7312
  249MOL0     C33493   3.556   0.664   3.371 -0.4162 -0.9921 -0.2655
  249MOL0     C33494   3.602   0.514   3.370  0.6613 -0.0086  0.7072
  249MOL0     C33495   3.485   0.412   3.350 -0.4989  0.5655  0.2540
  249MOL0     C33496   3.535   0.269   3.376 -0.6893  0.1880  0.8266
  249MOL0     N33497   3.593   0.262   3.511 -0.4007 -0.2471 -0.4180
  249MOL0     C33498   3.518   0.282   3.635 -0.1963  0.2088  0.2394
  249MOL0     C33499   3.610   0.280   3.730  0.4981  0.7530  0.6261
  249MOL0     C33500   3.585   0.278   3.875  0.6211  0.3964 -0.1099
  249MOL0     C33501   3.518   0.145   3.928 -0.8039 -0.2637 -1.0620
  249MOL0     C33502   3.485   0.157   4.086  0.1548  0.4746  1.4576
  249MOL0     C33503   3.395   0.276   4.117 -0.9339 -0.0545  0.3699
  249MOL0     O33504   3.349   0.265   4.254  0.7556  0.6023  0.2473
  249MOL0     C33505   3.221   0.320   4.272  0.4387 -0.1061  0.0125
  249MOL0     C33506   3.187   0.450   4.219 -0.1206 -0.1973 -0.7057
  249MOL0     C33507   3.060   0.515   4.243  0.3753 -0.9195  0.0332
  249MOL0     C33508   3.057   0.653   4.183  0.0488  0.2975  0.0072
  249MOL0     C33509   2.959   0.440   4.307 -0.4520 -0.5622 -0.1776
  249MOL0     C33510   2.828   0.486   4.316 -0.5323 -0.2007 -0.7360
  249MOL0     O33511   2.754   0.401   4.384  0.7447 -0.2311 -0.0974
  249MOL0     C33512   2.615   0.419   4.371 -0.1420 -0.0033 -0.4943
  249MOL0     C33513   2.538   0.510   4.441 -0.1492  0.5365  0.0493
  249MOL0     C33514   2.406   0.507   4.441 -0.0648 -0.1878  0.6345
  249MOL0     C33515   2.340   0.424   4.348  0.5854  0.6380 -0.2484
  249MOL0     O33516   2.202   0.406   4.354  0.3355  0.2017  0.4988
  249MOL0     C33517   2.131   0.531   4.377 -0.3579  0.5885  0.7949
  249MOL0     C33518   1.991   0.504   4.322  0.0818  0.1068  0.3656
  249MOL0     C33519   1.993   0.494   4.169  0.3156 -1.0055  0.8004
  249MOL0     C33520   1.849   0.491   4.108  0.4007 -0.4558  0.2269
  249MOL0     C33521   1.854   0.443   3.954 -0.3311 -0.6164 -0.9429
  249MOL0     C33522   1.726   0.466   3.888  0.1686 -0.1753 -0.6990
  249MOL0     C33523   1.619   0.369   3.923  0.0545 -0.0057 -0.4416
  249MOL0     C33524   1.626   0.234   3.849 -0.6763 -0.2105 -0.4492
  249MOL0    Cl33525   1.615   0.251   3.671 -0.5871 -0.2239  0.1284
  249MOL0     C33526   2.407   0.332   4.274 -1.2383 -0.1754 -0.8671
  249MOL0     C33527   2.547   0.330   4.286  0.4435 -0.2687 -0.2403
  249MOL0     O33528   2.791   0.596   4.281  0.6207 -0.3250  0.6064
  249MOL0     C33529   2.993   0.305   4.348 -0.9894 -0.6754 -0.5249
  249MOL0     C33530   3.118   0.247   4.335 -0.2601 -0.2173 -0.1188
  249MOL0     N33531   3.734   0.258   3.680  0.5819 -0.2073 -1.5042
  249MOL0     N33532   3.726   0.243   3.549  0.5845  0.3986 -0.1975
  249MOL0     C33533   3.232   1.186   3.390 -0.3445  0.7294  0.0977
  249MOL0     C33534   3.219   1.311   3.460 -1.1892 -0.1038 -0.0321
  249MOL0     C33535   3.077   1.697   3.615  0.7013 -0.8996  0.0871
  249MOL0     C33536   2.990   1.734   3.714 -0.0390  0.3057  0.1224
  249MOL0     C33537   2.984   1.857   3.777 -0.2272 -0.9629  0.0998
  249MOL0     C33538   3.085   1.949   3.739  1.1670  0.6083 -0.6143
  249MOL0     O33539   3.089   2.069   3.806 -0.0672  0.2792 -0.2241
  249MOL0     C33540   3.187   2.161   3.747 -0.8170 -0.2417  0.1217
  249MOL0     C33541   3.161   2.304   3.809 -1.2130 -0.3133 -0.2973
  249MOL0     C33542   3.292   2.384   3.802  0.6990 -0.2780  0.7643
  249MOL0     C33543   3.384   2.378   3.677  0.1342  0.7424 -0.3971
  249MOL0     C33544   3.462   2.253   3.677 -0.4237 -0.1947  0.3653
  249MOL0     C33545   3.536   2.157   3.690  0.6716  0.5413 -0.1664
  249MOL0     C33546   3.180   1.910   3.636 -0.3410  0.3603  0.5639
  249MOL0     C33547   3.169   1.792   3.567  0.6431 -0.4011 -0.7780
  249MOL0     H33548   3.116   1.509   3.198  0.6035  1.7932  2.0861
  249MOL0     H33549   3.174   1.301   3.072  1.1000  1.3861  1.3695
  249MOL0     H33550   3.319   1.076   3.004 -0.2639 -2.9185 -0.7278
  249MOL0     H33551   3.428   1.126   3.131 -1.3776  0.7958 -0.6461
  249MOL0     H33552   3.316   0.845   3.064  0.5589 -1.4543  1.5203
  249MOL0     H33553   3.488   0.887   3.043 -0.4288 -1.9314 -0.8254
  249MOL0     H33554   3.511   0.906   3.296 -1.3279  0.8852  0.4809
  249MOL0     H33555   3.349   0.859   3.319 -0.4452 -0.6354 -0.9043
  249MOL0     H33556   3.400   0.633   3.219 -2.0609  2.1290  0.1352
  249MOL0     H33557   3.567   0.692   3.168 -0.1799  1.5072 -2.3694
  249MOL0     H33558   3.644   0.729   3.377  0.1420 -1.8613  1.5392
  249MOL0     H33559   3.496   0.670   3.462  1.6374 -2.6036  1.2828
  249MOL0     H33560   3.663   0.515   3.279 -0.8420  5.6488 -0.6504
  249MOL0     H33561   3.651   0.495   3.466  0.2632 -3.9646  0.2940
  249MOL0     H33562   3.402   0.434   3.417 -0.8265  1.9717 -0.5672
  249MOL0     H33563   3.458   0.414   3.244  1.5886  1.1895 -0.3083
  249MOL0     H33564   3.613   0.247   3.303  0.2974 -0.5141  2.0523
  249MOL0     H33565   3.454   0.196   3.363  1.2310 -2.0923  0.9747
  249MOL0     H33566   3.410   0.288   3.645 -0.2426  1.6372 -0.7542
  249MOL0     H33567   3.677   0.295   3.933  1.1750  0.9521 -1.1324
  249MOL0     H33568   3.508   0.353   3.893 -2.2078 -2.3447  0.1971
  249MOL0     H33569   3.587   0.061   3.915  2.0683  1.8238 -0.2985
  249MOL0     H33570   3.428   0.117   3.872 -1.4368 -1.9742  0.7066
  249MOL0     H33571   3.577   0.162   4.145  0.3590  1.5311  1.0819
  249MOL0     H33572   3.444   0.060   4.116  0.7316 -0.3483 -0.2559
  249MOL0     H33573   3.307   0.275   4.052 -1.2197  1.9860  0.6394
  249MOL0     H33574   3.447   0.372   4.110 -0.4999 -0.3699 -1.1043
  249MOL0     H33575   3.266   0.504   4.168  0.8462 -1.5502 -0.6849
  249MOL0     H33576   3.047   0.628   4.077  0.5736 -1.8106  0.4102
  249MOL0     H33577   2.978   0.721   4.215 -0.3021 -0.2414  0.2988
  249MOL0     H33578   3.148   0.711   4.201  0.0478  0.3525 -0.1567
  249MOL0     H33579   2.586   0.587   4.500 -0.1407 -0.4583  1.3919
  249MOL0     H33580   2.363   0.584   4.504 -2.2757  0.5156 -1.5515
  249MOL0     H33581   2.132   0.555   4.484  1.9625 -1.6451  1.4005
  249MOL0     H33582   2.171   0.612   4.316 -1.6141 -0.6166 -1.7723
  249MOL0     H33583   1.952   0.411   4.364  0.3725 -0.7130 -1.1088
  249MOL0     H33584   1.927   0.592   4.333 -1.6444 -0.9285 -0.9257
  249MOL0     H33585   2.051   0.410   4.129  1.0353  0.1390 -0.6606
  249MOL0     H33586   2.050   0.574   4.120  1.2061 -2.9271 -1.5179
  249MOL0     H33587   1.784   0.432   4.172 -1.4874  0.0560 -1.1427
  249MOL0     H33588   1.821   0.597   4.109  2.0144  0.0041  1.5944
  249MOL0     H33589   1.878   0.337   3.946 -5.6045 -1.9861 -1.9867
  249MOL0     H33590   1.933   0.504   3.908  2.4203 -3.9117 -0.9930
  249MOL0     H33591   1.681   0.564   3.907 -2.5191 -1.3078 -0.8199
  249MOL0     H33592   1.744   0.455   3.780 -0.1773  0.2861 -0.8062
  249MOL0     H33593   1.527   0.421   3.896 -1.6814 -2.4560  0.4484
  249MOL0     H33594   1.609   0.354   4.031 -0.8536 -0.1825 -0.5441
  249MOL0     H33595   1.548   0.166   3.885  0.2356 -1.3378 -0.5265
  249MOL0     H33596   1.722   0.191   3.877 -1.1153  0.3029  2.0388
  249MOL0     H33597   2.349   0.268   4.208 -1.1587 -0.5002 -0.6256
  249MOL0     H33598   2.599   0.256   4.226 -1.6355  0.6807 -3.4741
  249MOL0     H33599   2.922   0.235   4.390 -0.3800  0.6035  2.9825
  249MOL0     H33600   3.152   0.149   4.367 -0.5999 -0.9497 -1.9259
  249MOL0     H33601   3.260   1.099   3.448 -3.6246  0.3716  1.3257
  249MOL0     H33602   3.248   1.313   3.565  2.1462 -1.9414 -0.7709
  249MOL0     H33603   2.916   1.664   3.753  1.8754 -0.8390  1.9381
  249MOL0     H33604   2.903   1.876   3.847 -3.8811 -1.5135 -3.5524
  249MOL0     H33605   3.289   2.138   3.781 -0.8050  0.6537  0.7097
  249MOL0     H33606   3.184   2.160   3.638 -1.4663 -0.2025  0.1388
  249MOL0     H33607   3.133   2.311   3.914 -1.2859  1.3476 -0.3986
  249MOL0     H33608   3.081   2.350   3.749 -0.6993 -0.3442 -1.0203
  249MOL0     H33609   3.344   2.371   3.897  1.7206  2.7871  0.7321
  249MOL0     H33610   3.260   2.488   3.804 -1.1765 -0.8272  1.3515
  249MOL0     H33611   3.465   2.451   3.689  3.4717 -2.8523  1.2146
  249MOL0     H33612   3.325   2.407   3.590 -1.8071  2.1523  1.2800
  249MOL0     H33613   3.607   2.077   3.684  1.2354  0.9323  1.0514
  249MOL0     H33614   3.267   1.963   3.598  0.6094 -2.5418 -1.7228
  249MOL0     H33615   3.244   1.769   3.492 -1.2830  2.0797 -3.7239
  250MOL0     O33616   0.033   8.968   1.264 -0.1349 -0.5816 -0.3530
  250MOL0     C33617   0.106   8.914   1.350 -0.9128 -0.1450  0.1528
  250MOL0     O33618   0.095   8.786   1.405 -0.6441  0.1751  0.2075
  250MOL0     C33619  -0.005   8.706   1.350 -0.2767 -0.3775 -0.7242
  250MOL0     C33620   0.027   8.617   1.250  0.5106  0.6011 -0.1411
  250MOL0     C33621  -0.066   8.531   1.202  0.4453  0.6636  0.2637
  250MOL0     C33622  -0.184   8.515   1.277 -0.4642  0.2446  0.2470
  250MOL0     O33623  -0.272   8.410   1.254  0.1879 -0.4814  0.0113
  250MOL0     C33624  -0.219   8.300   1.185  0.3042  0.5104 -0.0760
  250MOL0     C33625  -0.330   8.194   1.183 -0.2322  0.1729  0.0873
  250MOL0     C33626  -0.451   8.219   1.092  1.2506 -0.1913  0.2759
  250MOL0     C33627  -0.561   8.114   1.131 -0.2022  0.2750  0.1504
  250MOL0     C33628  -0.644   8.097   1.004 -0.5089  0.7530 -0.1995
  250MOL0     C33629  -0.760   8.002   1.010 -0.2437 -0.2825  0.4219
  250MOL0     C33630  -0.887   8.065   1.080  0.5829 -0.4543 -0.3934
  250MOL0     C33631  -0.944   7.975   1.193  0.2852 -1.3297 -0.2864
  250MOL0     N33632  -1.081   8.023   1.235 -0.1244  0.1471  1.0212
  250MOL0     C33633  -1.194   7.965   1.202  0.5162 -0.0086  0.6914
  250MOL0     C33634  -1.293   8.038   1.260 -0.1581 -1.2791 -0.3072
  250MOL0     C33635  -1.441   8.011   1.263 -0.5132  0.1066  0.3534
  250MOL0     C33636  -1.535   8.137   1.284 -0.6474 -0.1132 -0.5575
  250MOL0     C33637  -1.674   8.111   1.351  0.1966 -0.2488  0.9556
  250MOL0     C33638  -1.744   8.237   1.413  0.2649  0.3248  0.9412
  250MOL0     O33639  -1.781   8.331   1.306  0.3105  0.2217  0.8207
  250MOL0     C33640  -1.908   8.343   1.260  0.2386  0.3611 -0.6827
  250MOL0     C33641  -2.008   8.407   1.325 -0.4648  0.0699 -0.1624
  250MOL0     C33642  -2.135   8.424   1.266  0.3666 -0.6050  0.0013
  250MOL0     C33643  -2.234   8.498   1.354 -0.5773 -0.3187  1.4349
  250MOL0     C33644  -2.159   8.368   1.134 -0.2443  0.6393 -0.3531
  250MOL0     C33645  -2.280   8.382   1.057  0.0259 -0.1283 -0.0213
  250MOL0     O33646  -2.262   8.400   0.918 -0.1157 -0.2028  0.2065
  250MOL0     C33647  -2.377   8.381   0.850  0.1564  0.8447  0.1359
  250MOL0     C33648  -2.382   8.277   0.761 -1.0047  0.0252  0.4236
  250MOL0     C33649  -2.478   8.253   0.664 -0.2874  0.0903  0.7875
  250MOL0     C33650  -2.584   8.336   0.643  1.0536  0.0710 -0.2542
  250MOL0     O33651  -2.679   8.313   0.550  0.3811  0.1664  0.1996
  250MOL0     C33652  -2.754   8.190   0.552 -0.1897  0.3536 -0.2952
  250MOL0     C33653  -2.733   8.099   0.428  0.5034  0.6963 -0.3720
  250MOL0     C33654  -2.760   8.169   0.288 -0.1486  0.3937 -0.7916
  250MOL0     C33655  -2.893   8.237   0.292  0.4318 -0.3920 -0.3904
  250MOL0     C33656  -2.953   8.280   0.160  0.3005  0.4462  0.0358
  250MOL0     C33657  -3.083   8.340   0.184  0.0451 -0.0459  1.0536
  250MOL0     C33658  -3.130   8.424   0.064  0.5349 -0.3796  0.1566
  250MOL0     C33659  -3.265   8.474   0.101  0.2345 -0.5856 -0.2568
  250MOL0    Cl33660  -3.331   8.564  -0.040 -0.0040 -0.2124 -0.3796
  250MOL0     C33661  -2.582   8.444   0.731 -0.1766  0.2115  0.5668
  250MOL0     C33662  -2.484   8.461   0.834  0.6801  0.3971  0.3373
  250MOL0     O33663  -2.391   8.361   1.115 -0.4193 -0.5435  0.0702
  250MOL0     C33664  -2.047   8.301   1.070 -0.5515 -0.0084 -0.3148
  250MOL0     C33665  -1.924   8.287   1.135 -0.8808 -0.5589  0.6163
  250MOL0     N33666  -1.234   8.144   1.322 -0.6907 -0.1219 -0.0269
  250MOL0     N33667  -1.106   8.139   1.302  0.2872  0.2337  0.1254
  250MOL0     C33668  -0.220   8.606   1.379 -0.4620  0.0758  0.6894
  250MOL0     C33669  -0.131   8.704   1.410 -0.4356 -0.5584  0.4612
  250MOL0     C33670   0.225   8.996   1.388  0.4710  0.0068  0.2611
  250MOL0     C33671   0.305   8.956   1.494  0.1469  0.9475  0.5312
  250MOL0     C33672   0.417   9.038   1.528 -0.0788  0.1535 -0.0296
  250MOL0     C33673   0.434   9.161   1.471  0.1112 -0.4642 -0.0575
  250MOL0     O33674   0.526   9.246   1.522  0.0614  0.0425 -0.5099
  250MOL0     C33675   0.576   9.236   1.661 -0.2821  0.4767 -0.2328
  250MOL0     C33676   0.643   9.366   1.696  0.5019 -0.1718  0.1709
  250MOL0     C33677   0.737   9.350   1.814  0.9035 -0.3335 -0.1534
  250MOL0     C33678   0.873   9.283   1.776  0.4214  0.2287  0.5977
  250MOL0     C33679   0.978   9.371   1.720  0.5740 -0.4888  0.1339
  250MOL0     C33680   1.054   9.443   1.654 -0.0741  0.1330  0.0750
  250MOL0     C33681   0.333   9.210   1.386  0.3328 -0.3566  0.8674
  250MOL0     C33682   0.229   9.131   1.341 -0.7065 -0.5907  0.8350
  250MOL0     H33683   0.124   8.627   1.202 -0.3656  0.9872 -1.8863
  250MOL0     H33684  -0.040   8.474   1.114 -0.5516  0.4981  0.0701
  250MOL0     H33685  -0.202   8.335   1.083 -2.1722  1.1811 -0.3378
  250MOL0     H33686  -0.123   8.266   1.224  0.2276 -2.7876 -2.3598
  250MOL0     H33687  -0.287   8.098   1.151 -0.4294  0.1038  0.0296
  250MOL0     H33688  -0.359   8.168   1.285 -1.8879 -1.7421 -0.7902
  250MOL0     H33689  -0.491   8.318   1.118 -2.2050 -1.6960  1.2052
  250MOL0     H33690  -0.416   8.225   0.988  0.4325 -2.2716 -0.1705
  250MOL0     H33691  -0.521   8.014   1.151  0.1712  0.7117  1.6859
  250MOL0     H33692  -0.625   8.153   1.210 -2.6279 -0.2834 -1.4192
  250MOL0     H33693  -0.666   8.201   0.979 -0.9104  1.5246  2.9261
  250MOL0     H33694  -0.587   8.059   0.919 -3.1916 -2.5825 -0.7302
  250MOL0     H33695  -0.783   7.971   0.908  0.1133  1.7415 -0.3177
  250MOL0     H33696  -0.736   7.906   1.057 -1.1010 -1.0337 -0.6310
  250MOL0     H33697  -0.864   8.165   1.118 -4.6148  1.1535 -0.7069
  250MOL0     H33698  -0.957   8.075   0.996 -0.1250  0.0466  0.2412
  250MOL0     H33699  -0.880   7.980   1.282  0.8678 -2.5708 -0.5952
  250MOL0     H33700  -0.949   7.868   1.169 -0.2913 -0.6910 -3.4991
  250MOL0     H33701  -1.214   7.878   1.140 -2.5176 -0.7318  2.4595
  250MOL0     H33702  -1.466   7.972   1.165 -0.5821 -0.8375  0.7322
  250MOL0     H33703  -1.464   7.934   1.337  0.4251 -0.2257  0.3192
  250MOL0     H33704  -1.558   8.182   1.187 -0.2379 -0.3642 -0.7749
  250MOL0     H33705  -1.482   8.204   1.353 -2.5713 -1.0397  2.0109
  250MOL0     H33706  -1.665   8.034   1.428 -0.3038 -0.6644  0.6065
  250MOL0     H33707  -1.747   8.064   1.285 -2.2140  1.1116  2.4910
  250MOL0     H33708  -1.674   8.279   1.486 -0.4875 -2.9113  3.8000
  250MOL0     H33709  -1.837   8.204   1.462 -0.8949  0.3814 -1.1287
  250MOL0     H33710  -1.987   8.446   1.425  3.1622 -1.2566 -0.2429
  250MOL0     H33711  -2.297   8.563   1.293  0.7930  0.8613  1.2302
  250MOL0     H33712  -2.288   8.428   1.419  0.0397 -2.0178  0.1886
  250MOL0     H33713  -2.179   8.567   1.418  1.3591  2.2145 -2.5428
  250MOL0     H33714  -2.291   8.217   0.760 -0.8244  0.1030  3.5111
  250MOL0     H33715  -2.471   8.160   0.608  1.1076  0.0125  1.0508
  250MOL0     H33716  -2.726   8.128   0.637 -0.1438 -2.6393 -2.3646
  250MOL0     H33717  -2.857   8.226   0.568  0.1166  0.4423  1.6747
  250MOL0     H33718  -2.630   8.062   0.430 -0.0757 -1.1210 -1.4781
  250MOL0     H33719  -2.791   8.007   0.432  3.6602 -1.5806 -2.4763
  250MOL0     H33720  -2.764   8.099   0.204 -3.4787  1.4381 -1.6584
  250MOL0     H33721  -2.686   8.249   0.279  1.4085 -0.4572  2.9165
  250MOL0     H33722  -2.960   8.172   0.348  0.1731  0.3120  0.1421
  250MOL0     H33723  -2.872   8.331   0.344  1.3483 -1.4290  1.2008
  250MOL0     H33724  -2.962   8.185   0.105 -2.6460  1.3761 -1.3044
  250MOL0     H33725  -2.891   8.345   0.098  0.8788 -1.3700 -1.4095
  250MOL0     H33726  -3.161   8.264   0.199  2.1549 -2.1561  2.0089
  250MOL0     H33727  -3.083   8.407   0.271 -0.3969 -0.4204  1.3509
  250MOL0     H33728  -3.146   8.366  -0.027 -4.5527  2.8448 -1.4311
  250MOL0     H33729  -3.056   8.496   0.029 -1.1661  2.0397  1.2668
  250MOL0     H33730  -3.271   8.527   0.197 -1.4316 -0.4824 -0.3833
  250MOL0     H33731  -3.330   8.387   0.114 -2.3709  1.3405  0.4294
  250MOL0     H33732  -2.663   8.515   0.720  0.0645  0.6885  1.7177
  250MOL0     H33733  -2.501   8.545   0.900  0.0081 -0.7678  1.6896
  250MOL0     H33734  -2.073   8.260   0.973  1.8855 -0.3077 -0.9193
  250MOL0     H33735  -1.852   8.233   1.075 -0.2728  0.9061 -0.0242
  250MOL0     H33736  -0.314   8.604   1.434  0.9006  2.0171  3.2721
  250MOL0     H33737  -0.148   8.780   1.485  0.3047 -1.6127  1.7541
  250MOL0     H33738   0.299   8.865   1.552  1.4370 -0.4266 -1.3848
  250MOL0     H33739   0.497   9.012   1.597  1.3036  2.1620 -0.7872
  250MOL0     H33740   0.486   9.216   1.721 -0.0362  1.4704  0.4947
  250MOL0     H33741   0.650   9.156   1.660  0.8929  1.3762 -4.3227
  250MOL0     H33742   0.575   9.443   1.734  2.4017  0.2931  2.8848
  250MOL0     H33743   0.700   9.402   1.610 -3.0341  1.1015 -1.8754
  250MOL0     H33744   0.687   9.287   1.888 -0.5850 -2.2085 -2.6139
  250MOL0     H33745   0.757   9.446   1.863 -0.5265  0.8214 -1.7238
  250MOL0     H33746   0.866   9.199   1.706  1.5994  0.0250  0.7063
  250MOL0     H33747   0.907   9.236   1.868  2.7971 -0.0288 -0.3404
  250MOL0     H33748   1.130   9.493   1.599  2.2456 -3.5444 -0.4178
  250MOL0     H33749   0.337   9.313   1.355  1.1093  0.2475  2.7905
  250MOL0     H33750   0.171   9.170   1.258 -0.2742 -0.0044  0.8011
  251MOL0     O33751   3.826   9.914  10.727 -0.0670 -0.1973 -1.0963
  251MOL0     C33752   3.804   9.809  10.679 -0.1337  1.4126 -0.3739
  251MOL0     O33753   3.685   9.738  10.690  0.3044  0.6879  0.3612
  251MOL0     C33754   3.600   9.794  10.782 -0.9202  0.3889 -0.4404
  251MOL0     C33755   3.560   9.717  10.890  0.4256 -0.4433 -0.3810
  251MOL0     C33756   3.465   9.760  10.978 -0.1636 -0.6489 -0.7036
  251MOL0     C33757   3.400   9.883  10.969 -0.6579  0.0316  0.0654
  251MOL0     O33758   3.299   9.907  11.063 -0.8532 -0.9145 -0.1983
  251MOL0     C33759   3.216  10.012  11.036  0.2387  0.1142 -0.5545
  251MOL0     C33760   3.100   9.993  11.138  0.2853 -0.5965 -0.3272
  251MOL0     C33761   3.027   9.858  11.126 -0.1322  0.6973  0.1976
  251MOL0     C33762   2.889   9.870  11.190 -0.2197 -0.4173  1.5028
  251MOL0     C33763   2.833   9.731  11.216  0.4643  0.2325  0.1027
  251MOL0     C33764   2.681   9.740  11.260 -0.5110  0.4758 -0.6604
  251MOL0     C33765   2.612   9.621  11.203  0.2927 -0.1361  0.3737
  251MOL0     C33766   2.524   9.567  11.310  1.4114  0.1635 -0.2948
  251MOL0     N33767   2.424   9.480  11.256 -0.0742  0.6332  1.1625
  251MOL0     C33768   2.427   9.419  11.135  0.0273  1.0423  0.9139
  251MOL0     C33769   2.299   9.370  11.113  0.2100 -0.7160  0.2899
  251MOL0     C33770   2.266   9.286  11.004  0.0266 -0.0956  1.0661
  251MOL0     C33771   2.201   9.148  11.038  0.0116 -0.6107  0.8581
  251MOL0     C33772   2.053   9.170  11.051  0.2934 -0.5238  0.1298
  251MOL0     C33773   1.969   9.038  11.064 -0.0345 -0.1830  0.6511
  251MOL0     O33774   1.960   8.971  10.932 -0.3810  0.7361 -0.1799
  251MOL0     C33775   2.058   8.886  10.887 -0.0662  1.1446  0.8283
  251MOL0     C33776   2.136   8.804  10.961  0.1906  0.9113 -1.0286
  251MOL0     C33777   2.215   8.706  10.913 -0.8490 -0.1145  0.2981
  251MOL0     C33778   2.308   8.633  11.005  0.9225  0.4380  0.1950
  251MOL0     C33779   2.216   8.672  10.779  0.9936  0.2319  0.4231
  251MOL0     C33780   2.289   8.558  10.707 -1.0504  0.1374  0.2661
  251MOL0     O33781   2.304   8.560  10.566  0.6477  0.1688  0.2491
  251MOL0     C33782   2.353   8.446  10.504 -0.1881 -0.3110 -0.3521
  251MOL0     C33783   2.279   8.322  10.521  0.3868 -0.4128 -0.7627
  251MOL0     C33784   2.326   8.211  10.449  0.0650  0.9545  0.1514
  251MOL0     C33785   2.431   8.221  10.356  0.0701  0.3654 -0.1572
  251MOL0     O33786   2.463   8.107  10.292  0.0355  0.1595  0.0060
  251MOL0     C33787   2.567   8.045  10.363 -1.1558  0.1287 -0.3921
  251MOL0     C33788   2.622   7.929  10.276  0.7797 -0.2977 -0.1594
  251MOL0     C33789   2.509   7.864  10.190  0.2387 -0.6965  0.0860
  251MOL0     C33790   2.552   7.748  10.097 -0.0977  0.3765  0.5154
  251MOL0     C33791   2.453   7.708   9.992  0.0628  0.3750  0.6476
  251MOL0     C33792   2.519   7.624   9.879  0.5518  0.9224 -0.0845
  251MOL0     C33793   2.411   7.538   9.815 -0.1095  0.7056  1.1212
  251MOL0     C33794   2.474   7.458   9.697  1.1618  0.7302 -0.1138
  251MOL0    Cl33795   2.622   7.362   9.747  0.0887  0.1265 -0.0943
  251MOL0     C33796   2.498   8.338  10.330 -0.7845  0.1534 -0.1448
  251MOL0     C33797   2.462   8.459  10.402 -0.3614  0.6738  0.2279
  251MOL0     O33798   2.314   8.459  10.781 -0.2878  0.3042 -0.2578
  251MOL0     C33799   2.129   8.757  10.693 -1.1683  0.1881 -0.3083
  251MOL0     C33800   2.056   8.860  10.747 -0.2416 -0.1561 -0.7817
  251MOL0     N33801   2.227   9.393  11.221  0.3987 -0.0222  0.0065
  251MOL0     N33802   2.296   9.466  11.302  0.2192 -0.1319 -0.9580
  251MOL0     C33803   3.440   9.968  10.861 -0.4180 -0.2524 -0.3016
  251MOL0     C33804   3.539   9.923  10.769 -0.6848 -1.0512 -0.3536
  251MOL0     C33805   3.916   9.745  10.618 -0.0326  1.0557 -0.6482
  251MOL0     C33806   4.031   9.819  10.586 -0.6903  0.4835 -0.6453
  251MOL0     C33807   4.148   9.751  10.543 -0.3237 -0.4751  0.2198
  251MOL0     C33808   4.148   9.614  10.533 -0.2089  0.2364  0.3760
  251MOL0     O33809   4.274   9.558  10.507 -0.2900 -0.7030 -0.2198
  251MOL0     C33810   4.284   9.428  10.446 -0.7171 -0.4437  0.8291
  251MOL0     C33811   4.426   9.411  10.385 -0.9621 -0.3448  0.2332
  251MOL0     C33812   4.529   9.347  10.479  0.2234  0.4333 -0.2725
  251MOL0     C33813   4.669   9.363  10.419 -0.5248 -0.2727  0.2150
  251MOL0     C33814   4.767   9.272  10.474  0.4093 -0.1658 -0.9794
  251MOL0     C33815   4.848   9.199  10.522 -0.3876 -0.7801  0.8951
  251MOL0     C33816   4.034   9.537  10.575 -0.0223  0.0409 -0.2909
  251MOL0     C33817   3.918   9.604  10.606 -0.1401  0.1265  0.6227
  251MOL0     H33818   3.601   9.617  10.895  0.5428 -0.4588 -1.5076
  251MOL0     H33819   3.427   9.700  11.061  5.3409  2.2880  4.7241
  251MOL0     H33820   3.254  10.113  11.050  1.1228 -0.5424  2.6009
  251MOL0     H33821   3.170  10.010  10.936 -1.9925 -0.3000  0.4174
  251MOL0     H33822   3.136  10.000  11.241  0.7434 -0.1745 -0.5083
  251MOL0     H33823   3.036  10.081  11.129  1.3574  0.2409 -0.1072
  251MOL0     H33824   3.021   9.839  11.018  2.8175 -0.2058  0.1082
  251MOL0     H33825   3.085   9.777  11.171 -0.4249 -1.2804 -2.7017
  251MOL0     H33826   2.909   9.910  11.290 -0.0861  2.1162  0.5295
  251MOL0     H33827   2.830   9.932  11.122 -0.9276 -3.3737 -0.8472
  251MOL0     H33828   2.839   9.675  11.122 -1.1268 -0.0886  0.1492
  251MOL0     H33829   2.895   9.675  11.287  0.9687 -0.9146 -1.1976
  251MOL0     H33830   2.672   9.740  11.369 -1.1080  1.0258 -0.7068
  251MOL0     H33831   2.642   9.837  11.228  2.2699  1.9035 -0.0105
  251MOL0     H33832   2.557   9.665  11.119 -3.4500  2.7510  3.9235
  251MOL0     H33833   2.675   9.538  11.171  0.1415  0.2845 -1.0968
  251MOL0     H33834   2.474   9.650  11.362  1.3879  1.2888 -2.0333
  251MOL0     H33835   2.569   9.510  11.392 -0.9151 -2.1183 -0.4643
  251MOL0     H33836   2.514   9.410  11.071  1.3632  3.6174  2.2065
  251MOL0     H33837   2.197   9.343  10.941 -0.3000 -1.0119  0.5868
  251MOL0     H33838   2.360   9.274  10.950 -0.6539  0.8637 -0.3947
  251MOL0     H33839   2.243   9.101  11.128  0.7629  1.2652  1.5442
  251MOL0     H33840   2.216   9.086  10.950 -0.6781 -0.2953  0.5126
  251MOL0     H33841   2.004   9.226  10.971  1.4040 -3.0076 -2.4332
  251MOL0     H33842   2.032   9.228  11.141  1.5305 -1.2926  0.9401
  251MOL0     H33843   1.867   9.065  11.094 -0.5002  0.3205 -1.2502
  251MOL0     H33844   2.019   8.987  11.146 -0.1592 -1.0031  0.2254
  251MOL0     H33845   2.128   8.813  11.069  0.5503 -0.8559 -0.8246
  251MOL0     H33846   2.302   8.526  10.987 -2.2841 -0.0313  2.9503
  251MOL0     H33847   2.412   8.665  10.994  0.4028  1.4206 -2.6982
  251MOL0     H33848   2.272   8.644  11.108 -0.4300 -0.6948 -0.1279
  251MOL0     H33849   2.197   8.314  10.592  0.0212  1.5683 -0.9091
  251MOL0     H33850   2.271   8.118  10.450 -1.3070  1.7339 -0.5558
  251MOL0     H33851   2.656   8.107  10.377 -0.7789 -0.9190  2.4329
  251MOL0     H33852   2.544   8.001  10.460  2.6445 -0.2998  0.4736
  251MOL0     H33853   2.700   7.956  10.205 -0.6801 -1.0664 -2.1484
  251MOL0     H33854   2.674   7.855  10.338  0.6475 -0.3968 -0.1639
  251MOL0     H33855   2.449   7.942  10.142  1.5450  2.2321  2.8489
  251MOL0     H33856   2.433   7.823  10.257 -0.5134  1.6476  0.7824
  251MOL0     H33857   2.646   7.774  10.047 -0.6628  2.4244  0.4377
  251MOL0     H33858   2.573   7.657  10.155  0.6357 -0.2883 -0.7359
  251MOL0     H33859   2.408   7.793   9.939 -1.9477 -2.5839 -2.8850
  251MOL0     H33860   2.374   7.650  10.040 -0.6656 -0.4423 -1.4282
  251MOL0     H33861   2.561   7.690   9.803 -3.3765  4.1548  0.2594
  251MOL0     H33862   2.597   7.561   9.924 -0.6902 -0.4208  0.2622
  251MOL0     H33863   2.331   7.605   9.782 -0.2137  1.1216  2.1773
  251MOL0     H33864   2.369   7.466   9.885 -0.3131 -2.2280 -1.7737
  251MOL0     H33865   2.507   7.533   9.625  0.1876  2.6026  1.3236
  251MOL0     H33866   2.400   7.397   9.644  2.5692 -0.1128 -1.1827
  251MOL0     H33867   2.569   8.336  10.248 -1.9853  0.4793 -1.2257
  251MOL0     H33868   2.510   8.553  10.379  1.2551 -0.3452 -0.6993
  251MOL0     H33869   2.130   8.755  10.585  0.9406 -0.3333 -0.3237
  251MOL0     H33870   2.009   8.934  10.682  0.7307  0.4568 -0.8109
  251MOL0     H33871   3.397  10.066  10.847 -0.5625 -0.4798 -1.5582
  251MOL0     H33872   3.573   9.984  10.685 -3.2700  0.3446 -0.4999
  251MOL0     H33873   4.022   9.927  10.582  0.3021  0.5498 -1.2876
  251MOL0     H33874   4.227   9.822  10.520 -1.1264  1.1017  1.9861
  251MOL0     H33875   4.259   9.343  10.509 -2.5659 -0.0755  0.6565
  251MOL0     H33876   4.219   9.434  10.358 -1.6536  1.5927  1.5966
  251MOL0     H33877   4.457   9.509  10.347  0.0331 -0.4129  0.8201
  251MOL0     H33878   4.415   9.339  10.303  0.7204 -0.7135  0.2800
  251MOL0     H33879   4.507   9.243  10.505 -0.7053  0.4822 -0.8243
  251MOL0     H33880   4.529   9.400  10.574  1.9618 -1.0696  0.6305
  251MOL0     H33881   4.696   9.468  10.432  2.2608 -0.5660 -2.0213
  251MOL0     H33882   4.666   9.348  10.311  2.2640  4.7550 -0.9046
  251MOL0     H33883   4.933   9.138  10.546  0.6092 -0.4583 -1.5556
  251MOL0     H33884   4.030   9.430  10.588 -1.1821  0.1931  0.7398
  251MOL0     H33885   3.837   9.539  10.637  0.9012 -0.5647  2.0022
  252MOL0     O33886   0.094   0.743   4.998  0.1083 -0.0451 -0.0416
  252MOL0     C33887  -0.008   0.806   4.974 -0.8024  0.5893  0.4753
  252MOL0     O33888  -0.025   0.945   4.998  0.8008  0.2409 -0.4897
  252MOL0     C33889   0.065   1.035   5.045 -0.9146  0.5786 -0.5254
  252MOL0     C33890   0.090   1.153   4.977 -0.5105  0.5498  1.0236
  252MOL0     C33891   0.181   1.247   5.022  0.5968 -0.1446 -0.4853
  252MOL0     C33892   0.258   1.222   5.130 -0.6328 -0.1049  0.3315
  252MOL0     O33893   0.343   1.314   5.187  0.3314 -0.4548  0.3280
  252MOL0     C33894   0.467   1.342   5.111  0.1372 -0.4372  0.1080
  252MOL0     C33895   0.518   1.482   5.134  0.2235 -1.0500  0.7495
  252MOL0     C33896   0.644   1.519   5.056  0.4685 -0.3188  0.0130
  252MOL0     C33897   0.669   1.666   5.076  0.5330  0.3006 -0.5200
  252MOL0     C33898   0.793   1.712   5.010 -0.2890 -0.0684  0.1836
  252MOL0     C33899   0.791   1.707   4.858  0.0744 -0.1006  0.3891
  252MOL0     C33900   0.935   1.715   4.808 -0.0154 -0.4463 -0.1485
  252MOL0     C33901   1.009   1.842   4.834 -0.1319 -0.6872  1.1016
  252MOL0     N33902   1.140   1.859   4.759  0.5407 -0.1297 -0.2237
  252MOL0     C33903   1.258   1.790   4.778 -0.3927  0.0270  0.2363
  252MOL0     C33904   1.330   1.824   4.674  0.8278 -0.0470  0.2402
  252MOL0     C33905   1.465   1.773   4.637  0.8100 -0.3087 -0.3553
  252MOL0     C33906   1.576   1.844   4.719 -0.4917 -0.5793  0.1445
  252MOL0     C33907   1.580   1.806   4.873 -0.7389 -0.5805  0.8747
  252MOL0     C33908   1.642   1.665   4.885  0.3607 -0.6513  0.8698
  252MOL0     O33909   1.661   1.651   5.023  0.7442  0.4372 -0.3624
  252MOL0     C33910   1.764   1.570   5.070  0.3886  0.7411  0.6450
  252MOL0     C33911   1.866   1.501   4.992 -0.3182 -0.1922 -0.0939
  252MOL0     C33912   1.968   1.421   5.046  0.5281  0.0159  0.8071
  252MOL0     C33913   2.071   1.373   4.948 -0.1844  0.5141 -0.6509
  252MOL0     C33914   1.967   1.401   5.188  0.0943 -0.1930 -0.2895
  252MOL0     C33915   2.067   1.327   5.264  0.1923  0.2907 -0.5274
  252MOL0     O33916   2.171   1.259   5.204 -0.4908  0.0030 -0.6673
  252MOL0     C33917   2.257   1.188   5.284 -0.4455  0.6057  0.2054
  252MOL0     C33918   2.307   1.072   5.217  0.5830 -0.3814 -0.7250
  252MOL0     C33919   2.388   0.973   5.279 -0.0614  0.3632  0.3039
  252MOL0     C33920   2.426   1.006   5.413  0.7232 -0.7345  0.4579
  252MOL0     O33921   2.499   0.921   5.486  0.5408  0.3704 -0.9725
  252MOL0     C33922   2.629   0.962   5.525  0.3717 -0.4669 -0.0469
  252MOL0     C33923   2.729   0.862   5.495 -0.1782  0.4997  0.4083
  252MOL0     C33924   2.867   0.904   5.546  0.0430  0.4405  0.4640
  252MOL0     C33925   2.944   0.990   5.443 -0.1878 -1.0639  0.4168
  252MOL0     C33926   3.043   1.081   5.519 -0.1836  0.6107  0.1274
  252MOL0     C33927   3.173   1.110   5.449 -0.1211  0.7776 -0.5606
  252MOL0     C33928   3.261   1.198   5.527  0.3328  0.6716  0.9457
  252MOL0     C33929   3.413   1.175   5.494  0.8343  0.0909  0.1213
  252MOL0    Cl33930   3.478   1.004   5.520  0.0057  0.3226 -0.3526
  252MOL0     C33931   2.375   1.121   5.473  0.7470  0.7527 -0.0405
  252MOL0     C33932   2.294   1.213   5.410 -0.4868  0.1616  0.1158
  252MOL0     O33933   2.045   1.328   5.391  0.7115  0.1292  0.5787
  252MOL0     C33934   1.866   1.465   5.260  0.5190  0.1563  0.6940
  252MOL0     C33935   1.759   1.541   5.204  0.2522 -0.3584  0.2743
  252MOL0     N33936   1.263   1.923   4.595 -0.8594  0.0566  0.0243
  252MOL0     N33937   1.148   1.936   4.654 -0.5529 -0.2259 -0.1234
  252MOL0     C33938   0.227   1.110   5.211 -0.1475 -0.0154  0.3785
  252MOL0     C33939   0.130   1.022   5.166 -0.4689 -0.1946  0.3221
  252MOL0     C33940  -0.133   0.742   4.928  0.3317  0.2306 -0.8179
  252MOL0     C33941  -0.257   0.798   4.956  0.5036 -0.0468  0.8651
  252MOL0     C33942  -0.384   0.740   4.913 -0.6101 -0.5990 -0.4074
  252MOL0     C33943  -0.388   0.622   4.843 -0.4625 -0.2764  0.3845
  252MOL0     O33944  -0.502   0.560   4.803 -0.5878  0.2060  0.1164
  252MOL0     C33945  -0.626   0.638   4.796 -0.5882 -0.2707 -0.0668
  252MOL0     C33946  -0.740   0.562   4.735  0.1469  0.1244 -0.3775
  252MOL0     C33947  -0.749   0.419   4.801  0.1258 -0.2670  0.1431
  252MOL0     C33948  -0.790   0.423   4.950 -0.5070  0.2464  0.4831
  252MOL0     C33949  -0.690   0.348   5.038  1.0444 -0.0701  1.1727
  252MOL0     C33950  -0.625   0.279   5.108  0.4872  0.4537 -0.5135
  252MOL0     C33951  -0.260   0.567   4.824 -0.2332  0.1471  0.7416
  252MOL0     C33952  -0.136   0.620   4.865  0.0653 -0.6535 -0.1005
  252MOL0     H33953   0.036   1.184   4.888 -0.4910  1.2167  1.2335
  252MOL0     H33954   0.197   1.345   4.978  0.5088  1.0408  1.9225
  252MOL0     H33955   0.542   1.269   5.143 -2.3409 -3.6531 -0.8705
  252MOL0     H33956   0.455   1.328   5.003  1.5937 -0.6667 -0.0523
  252MOL0     H33957   0.440   1.554   5.107 -0.9084 -2.6554 -0.4104
  252MOL0     H33958   0.542   1.489   5.240 -0.7935 -0.9952  0.9840
  252MOL0     H33959   0.731   1.460   5.085 -0.8354 -2.3650  0.0001
  252MOL0     H33960   0.622   1.500   4.951 -3.3953  0.5707  0.4761
  252MOL0     H33961   0.578   1.709   5.032 -1.3617 -1.8210  1.0397
  252MOL0     H33962   0.677   1.697   5.181  1.4766  2.6224 -1.2016
  252MOL0     H33963   0.818   1.815   5.036 -0.0549  0.0842 -0.6136
  252MOL0     H33964   0.876   1.650   5.047 -0.1424 -0.2144 -0.3845
  252MOL0     H33965   0.758   1.609   4.821 -4.0159  1.3548 -0.3052
  252MOL0     H33966   0.718   1.778   4.818  0.1347 -0.9440 -1.3507
  252MOL0     H33967   0.990   1.635   4.858  1.6345  1.0609  0.5441
  252MOL0     H33968   0.933   1.688   4.702  0.9581 -2.3882  0.2773
  252MOL0     H33969   1.027   1.860   4.941  0.3137  1.2092  0.7445
  252MOL0     H33970   0.940   1.915   4.792  1.3004  0.6540  0.9936
  252MOL0     H33971   1.286   1.714   4.851  2.2026  2.0025  1.4432
  252MOL0     H33972   1.468   1.665   4.655  1.0412 -0.9194 -3.4518
  252MOL0     H33973   1.483   1.808   4.535  3.2907  3.3795  1.1061
  252MOL0     H33974   1.571   1.953   4.715 -2.5307 -0.4594  2.8575
  252MOL0     H33975   1.673   1.821   4.673 -0.4754  0.9155 -0.6165
  252MOL0     H33976   1.477   1.816   4.909 -0.6912  0.8805  0.6641
  252MOL0     H33977   1.627   1.884   4.933  1.6809 -0.8708 -0.5277
  252MOL0     H33978   1.740   1.679   4.840  0.2824  0.4268  0.9976
  252MOL0     H33979   1.579   1.584   4.846 -1.6493  1.4372 -0.4879
  252MOL0     H33980   1.859   1.508   4.884 -1.2224 -2.8186 -0.2709
  252MOL0     H33981   2.031   1.380   4.846  0.6115  0.7526 -0.9584
  252MOL0     H33982   2.162   1.433   4.962  1.4701 -1.6132 -1.6182
  252MOL0     H33983   2.100   1.269   4.965 -3.8889 -0.4460  0.6111
  252MOL0     H33984   2.278   1.057   5.113  0.2033  2.2075 -1.0624
  252MOL0     H33985   2.408   0.875   5.236  1.7540 -0.7708  3.4203
  252MOL0     H33986   2.648   1.052   5.465 -0.4925  1.1661  1.9760
  252MOL0     H33987   2.638   0.988   5.631 -0.1458  2.1348 -0.5599
  252MOL0     H33988   2.709   0.761   5.532  0.7580 -0.7176 -2.2181
  252MOL0     H33989   2.732   0.861   5.386 -0.2937 -0.3887  0.4051
  252MOL0     H33990   2.923   0.814   5.569 -2.1979 -0.5797  2.2767
  252MOL0     H33991   2.859   0.945   5.647  1.5346 -1.1307  1.2567
  252MOL0     H33992   3.001   0.920   5.382  0.6286 -1.9529  2.1333
  252MOL0     H33993   2.886   1.052   5.374  3.2655  1.3889 -0.5784
  252MOL0     H33994   3.059   1.035   5.617 -0.2355  1.6638  0.6421
  252MOL0     H33995   2.997   1.178   5.539  0.6416  1.3880 -1.5693
  252MOL0     H33996   3.224   1.014   5.439 -1.8996 -1.0890  4.6609
  252MOL0     H33997   3.151   1.159   5.354 -0.5597  1.9659  0.1258
  252MOL0     H33998   3.247   1.178   5.634  3.3165 -0.2212  1.2558
  252MOL0     H33999   3.236   1.303   5.513  1.5390  1.0803  1.6556
  252MOL0     H34000   3.472   1.241   5.559  2.4120 -0.2483 -0.9170
  252MOL0     H34001   3.434   1.191   5.388  0.4900 -0.7333 -0.0790
  252MOL0     H34002   2.400   1.133   5.578  0.0903  4.1129 -0.1622
  252MOL0     H34003   2.279   1.306   5.464  0.9299 -1.3282  3.3351
  252MOL0     H34004   1.863   1.462   5.369  1.4586  1.5247  0.7906
  252MOL0     H34005   1.680   1.575   5.270 -0.7296 -0.5621 -0.7666
  252MOL0     H34006   0.266   1.106   5.312  0.1109  0.9854  0.3300
  252MOL0     H34007   0.082   0.951   5.232 -0.0802  0.5793  1.4552
  252MOL0     H34008  -0.264   0.899   4.993  0.1838  0.0734  0.4781
  252MOL0     H34009  -0.479   0.793   4.922  0.1401  0.4769  2.0289
  252MOL0     H34010  -0.653   0.669   4.897 -0.4929 -0.6521  0.0793
  252MOL0     H34011  -0.598   0.719   4.729 -1.1987 -0.1943 -0.2339
  252MOL0     H34012  -0.731   0.538   4.628 -1.5682  1.5572 -0.8963
  252MOL0     H34013  -0.837   0.608   4.752 -0.5368 -1.5041  0.2913
  252MOL0     H34014  -0.657   0.362   4.788  0.8430  0.1649  2.6993
  252MOL0     H34015  -0.826   0.360   4.750  1.4450 -1.3076 -0.7363
  252MOL0     H34016  -0.895   0.398   4.972 -0.0531  0.1385  2.8072
  252MOL0     H34017  -0.784   0.529   4.978 -1.2049  0.0069  1.6266
  252MOL0     H34018  -0.570   0.217   5.175 -0.8244  1.8171  2.0034
  252MOL0     H34019  -0.263   0.474   4.767  0.0505  1.3994 -1.4526
  252MOL0     H34020  -0.039   0.584   4.834 -0.5877 -0.9754 -1.9093
  253MOL0     O34021  11.216   1.727   3.978 -0.2743  0.6456  0.6745
  253MOL0     C34022  11.319   1.679   4.009  0.9194 -0.5629  1.2793
  253MOL0     O34023  11.344   1.620   4.130 -0.6217 -0.1346  0.0594
  253MOL0     C34024  11.237   1.566   4.211  0.0996 -0.5396  0.9713
  253MOL0     C34025  11.275   1.550   4.344  0.2830 -0.1229 -0.3274
  253MOL0     C34026  11.182   1.501   4.444 -0.0707  0.5010 -0.0048
  253MOL0     C34027  11.055   1.459   4.418 -0.3171  0.2086  0.1100
  253MOL0     O34028  10.983   1.395   4.512  0.3516  0.0343 -0.1234
  253MOL0     C34029  10.967   1.454   4.637  0.4537 -0.7935 -0.7625
  253MOL0     C34030  10.823   1.519   4.636  0.3286  0.1086 -0.1116
  253MOL0     C34031  10.768   1.532   4.778  0.1085 -0.0249 -0.7920
  253MOL0     C34032  10.707   1.396   4.828 -0.4339 -0.2950  0.1403
  253MOL0     C34033  10.664   1.406   4.970 -0.2923  0.1550 -1.7550
  253MOL0     C34034  10.520   1.357   4.990  0.3498 -0.1558 -0.3684
  253MOL0     C34035  10.407   1.452   4.931 -0.1956 -0.3914  0.0194
  253MOL0     C34036  10.421   1.592   4.979 -0.4108  0.1306  0.1905
  253MOL0     N34037  10.435   1.624   5.119  0.8640  0.1514  0.4756
  253MOL0     C34038  10.362   1.562   5.219  0.3381 -0.1701  0.0521
  253MOL0     C34039  10.423   1.613   5.327 -0.5964  0.2576  0.2412
  253MOL0     C34040  10.381   1.577   5.458  0.0481 -0.6806 -1.0298
  253MOL0     C34041  10.495   1.491   5.530 -0.1996  0.1795 -0.0175
  253MOL0     C34042  10.470   1.478   5.678 -0.5046 -0.2290  0.0979
  253MOL0     C34043  10.583   1.397   5.750  0.4522  0.7209 -0.0981
  253MOL0     O34044  10.615   1.281   5.678  0.3696  0.1656  1.0674
  253MOL0     C34045  10.554   1.161   5.700  0.2787 -0.7609 -0.1176
  253MOL0     C34046  10.445   1.132   5.781  0.0647  0.4683 -0.0817
  253MOL0     C34047  10.404   0.995   5.793  0.7959 -0.2808  0.0598
  253MOL0     C34048  10.291   0.974   5.885 -0.3044 -0.5697 -0.0512
  253MOL0     C34049  10.463   0.892   5.717  0.4743 -0.7698  0.2133
  253MOL0     C34050  10.413   0.756   5.715 -1.2201  1.2508  0.7631
  253MOL0     O34051  10.407   0.693   5.587  0.3953  0.2727 -0.4554
  253MOL0     C34052  10.323   0.584   5.567 -0.0120 -1.5488 -0.0723
  253MOL0     C34053  10.374   0.493   5.477  0.1053  1.6243  0.1851
  253MOL0     C34054  10.291   0.382   5.444 -0.5348 -0.0711  0.2076
  253MOL0     C34055  10.172   0.365   5.502 -0.0956 -0.3110  0.1378
  253MOL0     O34056  10.093   0.255   5.463  0.0262  0.0793  0.2861
  253MOL0     C34057   9.966   0.226   5.525  0.4106  0.3093  0.7268
  253MOL0     C34058   9.886   0.109   5.467  0.1113 -0.0596  0.2095
  253MOL0     C34059   9.829   0.143   5.328  0.1035  0.3325  0.2491
  253MOL0     C34060   9.768   0.019   5.262  1.1174 -0.9699 -0.0581
  253MOL0     C34061   9.685   0.054   5.144  1.0113 -1.0901  0.1047
  253MOL0     C34062   9.559   0.147   5.178  0.1314  0.3196  0.3082
  253MOL0     C34063   9.447   0.085   5.249  0.5248  0.4071  0.0531
  253MOL0     C34064   9.316   0.168   5.250 -0.5358 -1.5252  0.1521
  253MOL0    Cl34065   9.203   0.117   5.375  0.0720 -0.1376  0.2889
  253MOL0     C34066  10.125   0.455   5.599  0.1860 -0.2080 -0.7599
  253MOL0     C34067  10.204   0.568   5.634  0.2914 -0.3908 -0.4275
  253MOL0     O34068  10.405   0.702   5.822  0.1089 -0.7042 -0.5339
  253MOL0     C34069  10.563   0.924   5.630  0.2628 -0.6550 -0.2575
  253MOL0     C34070  10.606   1.064   5.624  0.1250  0.8910  0.9937
  253MOL0     N34071  10.515   1.715   5.293  0.0241 -0.0270  0.6949
  253MOL0     N34072  10.512   1.723   5.165 -0.2922  0.3441  0.2461
  253MOL0     C34073  11.018   1.486   4.280  0.6321 -0.3753 -1.1432
  253MOL0     C34074  11.099   1.543   4.181 -0.7752  0.8302  0.1304
  253MOL0     C34075  11.428   1.693   3.923  0.2719 -0.6674 -0.5812
  253MOL0     C34076  11.560   1.680   3.975 -0.4461 -0.1434  0.0619
  253MOL0     C34077  11.672   1.688   3.891 -0.4808 -0.2134  0.4502
  253MOL0     C34078  11.654   1.736   3.756  0.2760 -0.4904  0.3576
  253MOL0     O34079  11.758   1.780   3.680 -0.3378 -0.1947 -0.5203
  253MOL0     C34080  11.886   1.789   3.746  0.2196  0.2485  0.1751
  253MOL0     C34081  11.986   1.855   3.651 -0.8500 -0.0606 -0.1268
  253MOL0     C34082  11.995   1.794   3.508  0.1539  0.2963  0.6508
  253MOL0     C34083  12.082   1.868   3.410  0.7825 -0.3872 -0.1459
  253MOL0     C34084  12.224   1.848   3.443 -0.6674  0.1036 -0.6927
  253MOL0     C34085  12.345   1.829   3.469 -0.7635 -0.6465 -0.7437
  253MOL0     C34086  11.522   1.762   3.702  0.1232  0.1573  0.1892
  253MOL0     C34087  11.418   1.740   3.786  0.0554  0.0577 -0.1374
  253MOL0     H34088  11.376   1.575   4.373  0.9923 -0.1004 -2.6171
  253MOL0     H34089  11.211   1.488   4.547 -0.7713 -2.8661 -0.1083
  253MOL0     H34090  10.974   1.374   4.711  2.1391  0.5934  0.6717
  253MOL0     H34091  11.037   1.534   4.664 -1.2626  0.1215  1.3792
  253MOL0     H34092  10.833   1.617   4.588  1.4946 -1.4584 -3.3794
  253MOL0     H34093  10.761   1.456   4.572  2.1970 -2.6959  0.6535
  253MOL0     H34094  10.840   1.568   4.852 -0.1510 -0.8380 -0.1317
  253MOL0     H34095  10.689   1.607   4.778 -1.5707 -1.6371  1.9953
  253MOL0     H34096  10.619   1.377   4.765 -0.1293  0.3943 -0.5215
  253MOL0     H34097  10.777   1.313   4.816  1.9129  1.5272  0.5925
  253MOL0     H34098  10.729   1.340   5.027 -0.2939 -1.6396 -3.6817
  253MOL0     H34099  10.683   1.508   5.004 -2.5845 -1.0351  4.3182
  253MOL0     H34100  10.506   1.256   4.951 -1.1851  0.1019 -0.5260
  253MOL0     H34101  10.506   1.350   5.099 -1.6433  1.3409 -0.4769
  253MOL0     H34102  10.418   1.462   4.822 -1.9956 -0.8030 -0.2222
  253MOL0     H34103  10.302   1.425   4.942 -0.3553  0.4298  0.5837
  253MOL0     H34104  10.328   1.637   4.941 -0.5643 -0.1326  0.2488
  253MOL0     H34105  10.506   1.644   4.933  0.7462 -0.9840  1.0158
  253MOL0     H34106  10.286   1.485   5.207  3.3330 -3.1802 -1.2662
  253MOL0     H34107  10.372   1.663   5.524 -2.5058 -0.6884 -1.2683
  253MOL0     H34108  10.285   1.523   5.457  0.6783 -2.1655  2.8333
  253MOL0     H34109  10.589   1.547   5.524 -1.4194  2.2468 -0.4682
  253MOL0     H34110  10.501   1.392   5.483 -0.2217  0.6853 -1.1116
  253MOL0     H34111  10.368   1.445   5.699 -1.0759  0.2666 -1.7388
  253MOL0     H34112  10.472   1.579   5.721 -0.4781  0.2920 -1.1029
  253MOL0     H34113  10.544   1.380   5.850  0.0318  3.1819  0.2119
  253MOL0     H34114  10.674   1.456   5.763  1.4452 -0.6201 -0.6693
  253MOL0     H34115  10.404   1.207   5.848  0.2410  0.3094  0.2064
  253MOL0     H34116  10.194   0.964   5.835 -0.5258 -2.7453  0.7131
  253MOL0     H34117  10.306   0.889   5.952 -3.3456 -1.1825  0.0096
  253MOL0     H34118  10.289   1.045   5.968  2.1530  0.8406 -1.0988
  253MOL0     H34119  10.471   0.507   5.430 -0.8848  0.8114 -2.2366
  253MOL0     H34120  10.335   0.314   5.371  3.0996  0.2193  1.9136
  253MOL0     H34121   9.978   0.202   5.631  2.6003  1.4048  0.7765
  253MOL0     H34122   9.905   0.315   5.511  0.5505  0.5897  1.8538
  253MOL0     H34123   9.948   0.019   5.462  2.4022  1.4930 -1.4714
  253MOL0     H34124   9.807   0.080   5.537 -1.7116  2.5548 -0.5847
  253MOL0     H34125   9.904   0.187   5.261  0.7187 -1.2436 -0.1367
  253MOL0     H34126   9.748   0.214   5.345 -1.5976 -1.7859  1.4523
  253MOL0     H34127   9.846  -0.050   5.229  2.1833  0.0890  0.1729
  253MOL0     H34128   9.716  -0.029   5.345 -1.6334  2.9820  0.7896
  253MOL0     H34129   9.662  -0.032   5.082  0.3611 -0.1096 -1.0479
  253MOL0     H34130   9.742   0.103   5.065  1.7070 -1.7750  0.1681
  253MOL0     H34131   9.586   0.241   5.227  1.1851  1.1204 -1.6545
  253MOL0     H34132   9.515   0.183   5.084  0.0681 -0.8813 -0.1395
  253MOL0     H34133   9.479   0.072   5.353 -0.7111 -0.1485  0.3716
  253MOL0     H34134   9.431  -0.010   5.197 -2.7102  0.3713  0.9193
  253MOL0     H34135   9.272   0.163   5.150  1.3107  1.5062 -0.9750
  253MOL0     H34136   9.329   0.275   5.265  0.6332 -1.2986 -2.0788
  253MOL0     H34137  10.035   0.454   5.659  1.3971  1.2468  1.2160
  253MOL0     H34138  10.172   0.642   5.708 -0.5681 -1.0604 -0.1152
  253MOL0     H34139  10.608   0.847   5.568  2.1393 -1.0320  1.4706
  253MOL0     H34140  10.682   1.084   5.549  0.3804 -0.1875  0.9423
  253MOL0     H34141  10.914   1.466   4.255  0.1479  2.7247 -2.1730
  253MOL0     H34142  11.051   1.557   4.085 -0.1424  1.6524 -0.0753
  253MOL0     H34143  11.587   1.650   4.076  2.6038  1.2276 -0.2310
  253MOL0     H34144  11.766   1.662   3.938 -2.0043 -3.7624  1.8945
  253MOL0     H34145  11.882   1.828   3.849 -2.4967 -1.0147  0.6427
  253MOL0     H34146  11.928   1.689   3.762 -1.5690 -0.1964  2.8860
  253MOL0     H34147  12.082   1.849   3.703  0.3686  2.5740 -1.8716
  253MOL0     H34148  11.960   1.961   3.638 -1.1501 -0.0624  0.3956
  253MOL0     H34149  11.896   1.801   3.462  0.1109 -3.0538 -0.0591
  253MOL0     H34150  12.023   1.688   3.510 -0.5892  0.0147 -1.1327
  253MOL0     H34151  12.050   1.972   3.403 -1.8375 -1.2226 -1.6886
  253MOL0     H34152  12.056   1.830   3.311  2.4270  0.5301 -0.9785
  253MOL0     H34153  12.450   1.810   3.479 -0.9511 -2.0079 -1.0736
  253MOL0     H34154  11.513   1.797   3.599 -1.2345 -0.4216  0.1006
  253MOL0     H34155  11.318   1.760   3.750 -3.0064 -3.9880  4.7170
  254MOL0     O34156   5.914   7.871   8.659  0.1252  0.7925  0.4155
  254MOL0     C34157   5.985   7.943   8.732 -0.4500  0.1350 -0.6557
  254MOL0     O34158   6.001   7.929   8.871  0.1656  0.2525  0.4276
  254MOL0     C34159   5.930   7.828   8.934 -0.1665 -0.3090 -0.2503
  254MOL0     C34160   5.900   7.696   8.899  0.1001 -0.4791 -0.0365
  254MOL0     C34161   5.826   7.607   8.968 -0.1564 -0.2957 -0.3486
  254MOL0     C34162   5.782   7.656   9.097 -0.0744 -0.0794  0.7843
  254MOL0     O34163   5.714   7.575   9.186 -0.4548  0.0047  0.8119
  254MOL0     C34164   5.655   7.456   9.149 -0.3902  0.4866 -0.0261
  254MOL0     C34165   5.596   7.401   9.274  0.2431  0.9231  0.4525
  254MOL0     C34166   5.502   7.284   9.231  0.0866 -0.4273  0.2661
  254MOL0     C34167   5.426   7.227   9.346 -0.1914 -0.3233  0.6909
  254MOL0     C34168   5.347   7.095   9.306 -0.7116 -0.3424 -0.4888
  254MOL0     C34169   5.423   6.975   9.275  0.6833 -0.3023 -0.2964
  254MOL0     C34170   5.330   6.855   9.229 -0.6655 -1.0050  0.3197
  254MOL0     C34171   5.415   6.719   9.208  0.0591 -0.1369 -0.5883
  254MOL0     N34172   5.337   6.605   9.149  0.1249 -0.3811  0.1146
  254MOL0     C34173   5.350   6.574   9.012  0.0560  0.1371 -0.5220
  254MOL0     C34174   5.239   6.497   8.980 -1.6092 -0.2667  0.6723
  254MOL0     C34175   5.212   6.437   8.847  0.4119 -0.2014  0.4151
  254MOL0     C34176   5.062   6.399   8.835  0.1906  0.3700  0.1477
  254MOL0     C34177   5.040   6.340   8.701  0.2186  0.2006  0.6701
  254MOL0     C34178   4.884   6.324   8.679 -0.6919  0.3152 -0.6566
  254MOL0     O34179   4.835   6.459   8.650  0.6998 -0.2154 -0.1429
  254MOL0     C34180   4.693   6.483   8.656 -0.8299  0.5347  0.7493
  254MOL0     C34181   4.607   6.383   8.611 -0.7633  0.5755  0.5687
  254MOL0     C34182   4.470   6.388   8.622  0.8484  0.9828  0.3718
  254MOL0     C34183   4.384   6.267   8.576 -0.1363 -0.2293 -0.3534
  254MOL0     C34184   4.409   6.511   8.661 -0.6093 -0.2261  0.0361
  254MOL0     C34185   4.269   6.537   8.689  0.6296 -0.3839  0.7768
  254MOL0     O34186   4.234   6.662   8.747  0.5243 -0.9395 -0.0071
  254MOL0     C34187   4.111   6.662   8.793  0.4266  0.0066  0.3311
  254MOL0     C34188   4.069   6.600   8.909 -0.2376 -1.1304 -0.1838
  254MOL0     C34189   3.935   6.606   8.953 -0.2009  0.8038 -0.5195
  254MOL0     C34190   3.841   6.655   8.880 -0.6483 -0.5028  0.9869
  254MOL0     O34191   3.715   6.638   8.932  0.2259 -0.3441  0.7042
  254MOL0     C34192   3.603   6.680   8.845  0.2303  0.1101 -0.3594
  254MOL0     C34193   3.484   6.622   8.922  0.1407 -0.0759  0.1733
  254MOL0     C34194   3.473   6.671   9.065 -0.1729 -0.8785  0.4116
  254MOL0     C34195   3.337   6.636   9.110  0.0179  0.7482 -0.2753
  254MOL0     C34196   3.308   6.693   9.249  0.7894  0.0328  0.1918
  254MOL0     C34197   3.381   6.625   9.366  0.0400  0.0502  0.1812
  254MOL0     C34198   3.333   6.691   9.496  0.3548 -0.4307 -0.3472
  254MOL0     C34199   3.356   6.837   9.515 -0.6803 -0.0004 -0.2419
  254MOL0    Cl34200   3.528   6.881   9.567 -0.6286  0.1198  0.0092
  254MOL0     C34201   3.879   6.718   8.758  0.2664  0.3662 -0.6983
  254MOL0     C34202   4.014   6.721   8.717  0.5191  0.0897 -0.2670
  254MOL0     O34203   4.189   6.446   8.661  0.6905  0.0283  0.4124
  254MOL0     C34204   4.498   6.616   8.691 -0.2468  0.5787  0.4458
  254MOL0     C34205   4.636   6.609   8.679  0.2474  0.4585 -0.5967
  254MOL0     N34206   5.164   6.489   9.093 -0.3896  0.5335  0.9671
  254MOL0     N34207   5.226   6.549   9.187  0.8038 -0.7178  0.1927
  254MOL0     C34208   5.816   7.782   9.140 -1.0883 -0.3078  0.4698
  254MOL0     C34209   5.875   7.875   9.054 -0.9929  0.1723  0.2536
  254MOL0     C34210   6.073   8.042   8.663  0.3644 -0.4289  0.4997
  254MOL0     C34211   6.181   8.104   8.721 -0.4254  0.9562 -0.2471
  254MOL0     C34212   6.250   8.209   8.651 -0.3264  0.4642  0.1717
  254MOL0     C34213   6.218   8.242   8.517 -0.3554  0.0705  0.2494
  254MOL0     O34214   6.277   8.340   8.434  0.4012  0.3120 -0.1976
  254MOL0     C34215   6.416   8.376   8.460 -0.3867  0.1073 -0.0065
  254MOL0     C34216   6.460   8.488   8.377 -0.7721 -0.2947 -0.1716
  254MOL0     C34217   6.484   8.463   8.233  0.4396 -0.7245  0.6892
  254MOL0     C34218   6.552   8.588   8.160 -0.3303  0.9617 -0.7028
  254MOL0     C34219   6.616   8.544   8.041 -0.8611  0.3103  0.0735
  254MOL0     C34220   6.669   8.493   7.942 -0.1010  1.0669 -0.6263
  254MOL0     C34221   6.128   8.153   8.452 -0.7314 -0.3279 -0.1429
  254MOL0     C34222   6.053   8.061   8.525  0.5767 -0.2929 -0.0160
  254MOL0     H34223   5.935   7.673   8.799 -0.6502 -0.8579 -0.2285
  254MOL0     H34224   5.818   7.504   8.936 -2.7868 -0.1969 -0.1578
  254MOL0     H34225   5.572   7.480   9.082 -1.3721 -0.1830  0.9187
  254MOL0     H34226   5.714   7.384   9.091 -0.6933 -0.9958  1.4514
  254MOL0     H34227   5.677   7.353   9.330 -0.6817 -1.6386 -0.2623
  254MOL0     H34228   5.546   7.481   9.329 -0.4401  0.2565  0.8165
  254MOL0     H34229   5.421   7.323   9.168  0.7103  1.4831  0.5821
  254MOL0     H34230   5.561   7.208   9.178  0.4724 -1.0209  1.5090
  254MOL0     H34231   5.496   7.203   9.426 -1.3139  1.3770  2.2708
  254MOL0     H34232   5.363   7.308   9.384  0.0346 -1.0132  2.6355
  254MOL0     H34233   5.291   7.073   9.398 -1.5032 -1.7017 -1.2646
  254MOL0     H34234   5.279   7.123   9.225 -1.2857  1.4584  0.5662
  254MOL0     H34235   5.479   6.997   9.184  1.2895  0.5110  0.2592
  254MOL0     H34236   5.498   6.947   9.349 -0.0685 -1.5566  0.0142
  254MOL0     H34237   5.257   6.842   9.310 -0.6905 -0.2061  0.4306
  254MOL0     H34238   5.286   6.883   9.133  0.8395 -1.9807 -0.7112
  254MOL0     H34239   5.437   6.687   9.310  1.0450  0.9984 -0.4207
  254MOL0     H34240   5.510   6.741   9.158  1.0211 -1.4491  0.5843
  254MOL0     H34241   5.442   6.592   8.957 -1.8265  0.3765 -3.8570
  254MOL0     H34242   5.241   6.506   8.767  1.6137 -2.2873 -1.0149
  254MOL0     H34243   5.282   6.354   8.842 -1.3011 -1.7508  0.9852
  254MOL0     H34244   5.000   6.488   8.848 -0.3324 -0.1643  1.3917
  254MOL0     H34245   5.027   6.323   8.905 -4.3526 -1.1008 -3.1920
  254MOL0     H34246   5.084   6.240   8.695  2.2858  1.1406 -1.1160
  254MOL0     H34247   5.080   6.406   8.624  0.0538  0.2342  0.6145
  254MOL0     H34248   4.831   6.272   8.759 -0.8231  1.5604  0.1001
  254MOL0     H34249   4.874   6.264   8.588  0.9322 -4.5318  2.0128
  254MOL0     H34250   4.640   6.291   8.563 -1.5570 -0.0029  1.1128
  254MOL0     H34251   4.453   6.190   8.541  2.1986  2.4205 -1.9768
  254MOL0     H34252   4.330   6.229   8.664  3.9000  0.8750  2.9036
  254MOL0     H34253   4.325   6.307   8.493  1.3070  2.5708 -0.1515
  254MOL0     H34254   4.133   6.550   8.980  0.3228  0.5516  0.5480
  254MOL0     H34255   3.907   6.555   9.044 -1.3071 -2.1414 -2.3592
  254MOL0     H34256   3.608   6.789   8.846 -3.3731  0.4796  2.9860
  254MOL0     H34257   3.587   6.642   8.744 -0.3017 -2.5917  0.6554
  254MOL0     H34258   3.403   6.662   8.861 -0.0276  2.5812  1.9362
  254MOL0     H34259   3.479   6.513   8.928 -2.4407  0.0149  0.8903
  254MOL0     H34260   3.494   6.778   9.060 -3.5202 -0.0658  0.8054
  254MOL0     H34261   3.548   6.620   9.126 -0.7963  0.5714  2.5032
  254MOL0     H34262   3.262   6.664   9.036 -4.1793  1.2856  3.7265
  254MOL0     H34263   3.337   6.526   9.117  1.6139  0.7039 -0.4160
  254MOL0     H34264   3.199   6.686   9.261  0.1669 -0.5872 -4.3455
  254MOL0     H34265   3.337   6.798   9.246  2.1397 -0.3414 -2.9192
  254MOL0     H34266   3.353   6.520   9.376 -1.5540  0.3895 -0.4054
  254MOL0     H34267   3.488   6.616   9.345  0.0416 -0.7891  0.5269
  254MOL0     H34268   3.373   6.648   9.588 -1.4977  4.1943  3.0417
  254MOL0     H34269   3.224   6.687   9.489  0.2340 -0.8778  1.4432
  254MOL0     H34270   3.278   6.863   9.588 -2.1535 -0.6288 -1.5318
  254MOL0     H34271   3.335   6.895   9.425  0.1309  1.8637  0.7073
  254MOL0     H34272   3.796   6.755   8.699 -0.0924  3.0606  1.2860
  254MOL0     H34273   4.045   6.777   8.630 -0.9286  1.2782 -0.0401
  254MOL0     H34274   4.467   6.715   8.724  0.1160  0.4724  1.1359
  254MOL0     H34275   4.701   6.688   8.718  0.8938 -0.1742 -0.3762
  254MOL0     H34276   5.792   7.818   9.239 -1.7637 -1.0906  0.5971
  254MOL0     H34277   5.895   7.979   9.079  0.2445 -0.3100  1.3769
  254MOL0     H34278   6.208   8.070   8.820 -1.7654  2.2876  0.6068
  254MOL0     H34279   6.332   8.261   8.699  0.7049 -0.1063 -0.9319
  254MOL0     H34280   6.439   8.385   8.566  0.8318 -0.2606 -0.2296
  254MOL0     H34281   6.479   8.295   8.422  0.0961 -1.8326  4.4061
  254MOL0     H34282   6.551   8.528   8.422 -0.2125  0.6841 -2.0561
  254MOL0     H34283   6.392   8.573   8.387 -0.0082  0.6513 -2.3405
  254MOL0     H34284   6.392   8.431   8.183  0.5668  0.4101 -0.3064
  254MOL0     H34285   6.554   8.381   8.217  1.9346  0.5264  0.6582
  254MOL0     H34286   6.630   8.633   8.222 -1.1891  0.9429  0.4425
  254MOL0     H34287   6.481   8.668   8.136  0.5540  1.3409 -2.1269
  254MOL0     H34288   6.704   8.438   7.857  2.2939  0.4350  0.6769
  254MOL0     H34289   6.113   8.170   8.346 -1.9932 -2.3705 -0.3447
  254MOL0     H34290   5.978   8.005   8.470 -0.3722 -0.7955  1.6913
  255MOL0     O34291   6.718   8.550   5.432  0.0826 -1.0195  0.2153
  255MOL0     C34292   6.625   8.561   5.352  0.1829 -0.5638  0.0972
  255MOL0     O34293   6.634   8.613   5.226 -0.4729  0.0707  0.0037
  255MOL0     C34294   6.733   8.688   5.175  0.3041 -0.5990  0.5986
  255MOL0     C34295   6.751   8.831   5.199 -0.1472 -0.2428  0.2301
  255MOL0     C34296   6.853   8.899   5.138 -0.1572  0.1370 -0.0976
  255MOL0     C34297   6.942   8.830   5.055 -1.3874  1.1136  0.2926
  255MOL0     O34298   7.035   8.901   4.995 -0.5530  0.5283  0.0939
  255MOL0     C34299   7.158   8.843   4.947  0.8620 -0.2063 -0.5092
  255MOL0     C34300   7.245   8.959   4.896 -0.1950  0.0984 -0.1529
  255MOL0     C34301   7.190   9.039   4.782  0.0308  0.0798  0.4771
  255MOL0     C34302   7.305   9.105   4.694 -0.4096 -0.3614 -0.4866
  255MOL0     C34303   7.266   9.219   4.600 -0.1058  0.1122 -0.1843
  255MOL0     C34304   7.157   9.186   4.494  0.5160  0.1392  1.1818
  255MOL0     C34305   7.151   9.299   4.389  0.0101  0.5582 -0.1691
  255MOL0     C34306   7.040   9.261   4.282  0.4773  0.6898 -0.6804
  255MOL0     N34307   7.039   9.354   4.162 -0.3592 -0.0547  0.1339
  255MOL0     C34308   7.133   9.348   4.062  0.1380 -0.8672  0.4551
  255MOL0     C34309   7.099   9.441   3.969  0.4000 -0.3138 -0.2869
  255MOL0     C34310   7.156   9.465   3.834  1.2456 -1.0057 -1.1281
  255MOL0     C34311   7.122   9.358   3.733 -0.1447 -0.4136 -0.9521
  255MOL0     C34312   6.962   9.331   3.711 -0.0864  0.0578  0.5629
  255MOL0     C34313   6.915   9.303   3.566 -0.3379  0.7051 -0.1040
  255MOL0     O34314   6.915   9.166   3.553  0.7342  0.3411 -0.2472
  255MOL0     C34315   7.003   9.095   3.474 -0.3448 -0.0231 -0.8301
  255MOL0     C34316   7.051   8.973   3.521 -0.0324  0.6363  0.8804
  255MOL0     C34317   7.137   8.898   3.447  0.3168  0.8250 -0.6526
  255MOL0     C34318   7.158   8.768   3.511  0.2178  0.5951 -0.6755
  255MOL0     C34319   7.180   8.929   3.317  0.4871 -0.2058  0.7188
  255MOL0     C34320   7.270   8.849   3.240  1.2639 -0.1905  1.5377
  255MOL0     O34321   7.264   8.876   3.104 -0.6257  0.4128 -0.1711
  255MOL0     C34322   7.359   8.825   3.020 -0.0758  0.9311  0.1527
  255MOL0     C34323   7.435   8.915   2.941  0.6879 -0.3646 -0.0414
  255MOL0     C34324   7.535   8.868   2.853 -0.3157 -0.2887 -0.2419
  255MOL0     C34325   7.557   8.731   2.825  0.6412  0.0962 -0.7686
  255MOL0     O34326   7.647   8.703   2.737 -0.8623  0.1075 -0.0347
  255MOL0     C34327   7.698   8.572   2.722 -0.4378  0.1494 -0.4339
  255MOL0     C34328   7.845   8.559   2.679  0.1397  0.4208  0.3174
  255MOL0     C34329   7.912   8.423   2.690 -0.1584  0.4469  0.1120
  255MOL0     C34330   7.957   8.365   2.823 -0.6091  0.4652  0.5451
  255MOL0     C34331   8.039   8.231   2.802 -0.2039  0.1552  0.0344
  255MOL0     C34332   7.964   8.122   2.719  0.0464 -0.7494 -0.3358
  255MOL0     C34333   8.040   7.988   2.710  0.3118 -0.2563  0.2998
  255MOL0     C34334   7.971   7.871   2.635  0.0380 -0.1914 -0.2233
  255MOL0    Cl34335   7.823   7.924   2.551 -0.2051  0.1615  0.0891
  255MOL0     C34336   7.482   8.642   2.900 -0.6447 -0.3367 -0.8115
  255MOL0     C34337   7.384   8.692   2.990 -0.1781 -0.9708  0.3724
  255MOL0     O34338   7.336   8.761   3.291 -0.5385  0.1857  0.5539
  255MOL0     C34339   7.124   9.056   3.268  0.6213 -0.1171  0.2827
  255MOL0     C34340   7.033   9.134   3.345 -0.7437 -0.0599  0.5374
  255MOL0     N34341   6.981   9.510   4.018  0.3406  0.4769 -0.4584
  255MOL0     N34342   6.944   9.455   4.130  0.4141 -0.1333  0.4619
  255MOL0     C34343   6.924   8.692   5.029 -0.0741 -0.3627  0.5484
  255MOL0     C34344   6.826   8.620   5.090 -0.3407  0.6941  0.9167
  255MOL0     C34345   6.491   8.518   5.402  0.5601  0.4731  0.3896
  255MOL0     C34346   6.471   8.479   5.533 -0.1726 -0.4063 -0.0125
  255MOL0     C34347   6.346   8.462   5.580 -0.1454  0.0976 -0.3101
  255MOL0     C34348   6.235   8.469   5.496 -0.3177  0.3275 -0.8069
  255MOL0     O34349   6.113   8.453   5.555  0.5208  0.4232  0.2496
  255MOL0     C34350   6.002   8.421   5.470  0.5739  0.5437 -0.1903
  255MOL0     C34351   5.885   8.370   5.554 -0.0257 -0.0416 -0.7637
  255MOL0     C34352   5.926   8.244   5.630 -1.3332 -0.3452  0.5917
  255MOL0     C34353   5.797   8.188   5.700 -0.3355 -0.4378  0.1064
  255MOL0     C34354   5.815   8.057   5.766  0.2050  0.2550 -0.2809
  255MOL0     C34355   5.847   7.951   5.820  0.4206  0.1532 -0.1134
  255MOL0     C34356   6.253   8.501   5.358 -0.0868  0.3597 -0.5101
  255MOL0     C34357   6.382   8.516   5.317 -0.2737  0.6784 -0.9715
  255MOL0     H34358   6.684   8.873   5.273 -0.1558 -0.5523  0.4017
  255MOL0     H34359   6.857   9.005   5.159  3.7747  0.6287 -2.1923
  255MOL0     H34360   7.206   8.787   5.028 -5.3853 -1.7644  2.7255
  255MOL0     H34361   7.140   8.770   4.868 -1.1472  0.2607 -0.5227
  255MOL0     H34362   7.265   9.026   4.980  2.3722 -3.0148  1.9450
  255MOL0     H34363   7.339   8.914   4.864 -0.4136 -1.0734  0.7777
  255MOL0     H34364   7.132   8.972   4.717  1.8375 -2.1642  1.0280
  255MOL0     H34365   7.120   9.114   4.820 -0.9696 -0.7661  0.3765
  255MOL0     H34366   7.382   9.148   4.759  0.5733 -0.2612 -1.6958
  255MOL0     H34367   7.371   9.036   4.641 -0.2844 -0.4109 -0.2667
  255MOL0     H34368   7.231   9.306   4.655 -2.7374 -0.9108 -0.1271
  255MOL0     H34369   7.359   9.250   4.551  1.1843 -0.1376  1.9529
  255MOL0     H34370   7.159   9.089   4.444 -0.5864  1.3119 -1.3208
  255MOL0     H34371   7.061   9.187   4.547 -0.0545 -1.0003  0.2263
  255MOL0     H34372   7.121   9.397   4.429 -2.1810 -0.0443 -0.2286
  255MOL0     H34373   7.246   9.323   4.339 -0.6531  2.3389 -0.6646
  255MOL0     H34374   6.943   9.276   4.331  0.7523  1.2358 -0.2949
  255MOL0     H34375   7.045   9.157   4.248  0.2046  1.3712 -2.9467
  255MOL0     H34376   7.200   9.264   4.047 -0.0989 -1.0720  0.5341
  255MOL0     H34377   7.120   9.561   3.797  0.0074 -1.0035 -0.0071
  255MOL0     H34378   7.264   9.450   3.849  1.1653  0.8116  2.4974
  255MOL0     H34379   7.168   9.260   3.750  1.6650  0.6710  0.8493
  255MOL0     H34380   7.168   9.379   3.637 -2.3760 -1.5745 -2.3826
  255MOL0     H34381   6.902   9.419   3.736 -2.4783 -1.2843 -0.1418
  255MOL0     H34382   6.926   9.252   3.777  1.7474 -1.5421 -0.2643
  255MOL0     H34383   6.975   9.345   3.485  2.9211 -3.7422 -0.3087
  255MOL0     H34384   6.815   9.349   3.564 -0.3770  0.6093 -2.0393
  255MOL0     H34385   7.009   8.948   3.617 -3.0036  1.9541  0.0694
  255MOL0     H34386   7.177   8.694   3.433 -1.1419  0.0758 -0.5475
  255MOL0     H34387   7.245   8.785   3.574 -1.1391  2.5444  0.8094
  255MOL0     H34388   7.087   8.718   3.578  0.8103  1.3433  0.5448
  255MOL0     H34389   7.410   9.020   2.957 -0.8835 -1.1330  3.5907
  255MOL0     H34390   7.571   8.944   2.784 -1.4736  1.0178  0.5370
  255MOL0     H34391   7.683   8.514   2.814  1.8282  0.9249  0.4892
  255MOL0     H34392   7.642   8.525   2.641 -0.9653  0.0201 -0.0014
  255MOL0     H34393   7.841   8.575   2.571  2.3952 -0.1008  0.1004
  255MOL0     H34394   7.897   8.636   2.737  2.9603 -0.9961 -0.1651
  255MOL0     H34395   7.992   8.430   2.617 -1.4747 -1.4902 -1.6460
  255MOL0     H34396   7.846   8.348   2.645  0.9322 -1.1201  1.0183
  255MOL0     H34397   7.995   8.442   2.890 -1.4595  2.7914 -1.5109
  255MOL0     H34398   7.864   8.340   2.875 -0.5214 -0.5884  0.2284
  255MOL0     H34399   8.056   8.189   2.902  0.6983  3.1441  1.2608
  255MOL0     H34400   8.139   8.249   2.761  0.5887  0.5960  2.0051
  255MOL0     H34401   7.861   8.103   2.751  0.6016 -0.3552  1.8494
  255MOL0     H34402   7.962   8.166   2.619  0.8710 -0.3571 -0.1842
  255MOL0     H34403   8.058   7.948   2.810 -1.9431 -0.1358  0.7909
  255MOL0     H34404   8.137   8.010   2.664  0.5515 -1.3308  0.2753
  255MOL0     H34405   7.938   7.800   2.712 -1.2212 -1.9212 -2.2608
  255MOL0     H34406   8.046   7.824   2.571  0.6577 -2.2671  1.8646
  255MOL0     H34407   7.485   8.535   2.888  1.2110 -0.3512 -0.5868
  255MOL0     H34408   7.313   8.625   3.037 -1.8502  0.3823 -0.1476
  255MOL0     H34409   7.149   9.092   3.169  2.8712 -0.3933  0.6921
  255MOL0     H34410   6.987   9.220   3.298  1.2414 -0.0858 -1.6530
  255MOL0     H34411   6.993   8.645   4.960  3.8251  5.2716 -0.0337
  255MOL0     H34412   6.819   8.513   5.076 -0.9204  0.4406  2.8145
  255MOL0     H34413   6.562   8.464   5.591  0.1676  0.6767 -0.2517
  255MOL0     H34414   6.325   8.434   5.683  0.9005  1.8663  0.4463
  255MOL0     H34415   5.963   8.507   5.416 -0.6393  1.3222  1.8225
  255MOL0     H34416   6.036   8.342   5.402  0.2814 -1.2044  1.6031
  255MOL0     H34417   5.806   8.351   5.481 -0.3626  0.5822 -0.5619
  255MOL0     H34418   5.862   8.446   5.629  0.8913 -1.8429  1.4452
  255MOL0     H34419   6.009   8.264   5.698 -1.0779 -1.2665  0.5593
  255MOL0     H34420   5.955   8.167   5.559 -0.5773  1.1906 -0.8427
  255MOL0     H34421   5.716   8.190   5.627 -0.2080  3.2394 -0.0953
  255MOL0     H34422   5.760   8.257   5.776  0.8882 -0.7868  1.0572
  255MOL0     H34423   5.862   7.853   5.861 -2.3375 -0.1713  0.3085
  255MOL0     H34424   6.172   8.505   5.287 -1.8339 -0.2939  1.3571
  255MOL0     H34425   6.388   8.533   5.210 -1.2502  0.6329 -1.0448
  256MOL0     O34426   3.347   6.467   0.800  0.4277  0.3803 -0.8400
  256MOL0     C34427   3.336   6.357   0.848 -0.3310 -0.0983 -0.5355
  256MOL0     O34428   3.232   6.313   0.924 -0.3019  0.4198 -0.5592
  256MOL0     C34429   3.108   6.361   0.935  0.9751  1.1003 -0.6016
  256MOL0     C34430   3.040   6.465   0.859 -0.2436 -0.4837 -0.3818
  256MOL0     C34431   2.901   6.483   0.883 -0.4739 -0.3380  0.8431
  256MOL0     C34432   2.827   6.416   0.981  0.8879 -0.0122  0.9396
  256MOL0     O34433   2.694   6.438   1.008  0.3493 -0.7293 -0.8130
  256MOL0     C34434   2.644   6.571   0.989  0.6284 -0.2298 -0.1948
  256MOL0     C34435   2.508   6.574   1.056  0.3781 -0.7476 -0.6043
  256MOL0     C34436   2.438   6.716   1.065 -0.2841 -0.0397  0.3586
  256MOL0     C34437   2.308   6.721   0.981  0.1796  0.2652 -0.0043
  256MOL0     C34438   2.219   6.839   0.990  0.3107 -0.2651 -0.0871
  256MOL0     C34439   2.271   6.958   0.914  1.3524  0.0691 -0.1425
  256MOL0     C34440   2.261   6.942   0.761  0.0640 -0.5624  0.1896
  256MOL0     C34441   2.400   6.951   0.692 -0.2612  0.5657  0.6573
  256MOL0     N34442   2.476   7.074   0.723 -0.1992 -0.0010  0.5705
  256MOL0     C34443   2.443   7.204   0.728  0.7465 -0.3496  0.0774
  256MOL0     C34444   2.557   7.264   0.783  0.9950 -0.3236  0.0361
  256MOL0     C34445   2.570   7.411   0.837  0.2678 -0.1381 -0.3082
  256MOL0     C34446   2.517   7.429   0.979  0.2841 -0.8108  0.1373
  256MOL0     C34447   2.405   7.531   0.995 -0.5127  0.4577  0.4571
  256MOL0     C34448   2.282   7.501   0.908  0.1763  0.1122 -0.8584
  256MOL0     O34449   2.172   7.569   0.974 -0.6252  0.1273  0.0190
  256MOL0     C34450   2.081   7.640   0.898  1.3363 -0.2374  0.4077
  256MOL0     C34451   1.996   7.738   0.961 -0.0630 -0.5068  0.3316
  256MOL0     C34452   1.919   7.829   0.890 -0.2916  0.8128  0.1977
  256MOL0     C34453   1.837   7.918   0.967  0.3215 -0.0803  0.8972
  256MOL0     C34454   1.909   7.819   0.746  0.5797  0.0168 -0.2565
  256MOL0     C34455   1.822   7.894   0.657  0.2503  0.3773  0.2843
  256MOL0     O34456   1.882   7.937   0.538  0.1807  0.5378  0.0322
  256MOL0     C34457   1.810   8.016   0.455 -0.1868  0.1825 -0.1970
  256MOL0     C34458   1.853   8.150   0.435  0.5446 -0.4377 -0.1110
  256MOL0     C34459   1.778   8.231   0.350  0.3854  0.5749 -0.5392
  256MOL0     C34460   1.672   8.175   0.285  1.0961  0.1251  0.0236
  256MOL0     O34461   1.572   8.244   0.214  0.4959 -0.6049  0.3046
  256MOL0     C34462   1.592   8.376   0.159  0.3402 -0.5249  0.3883
  256MOL0     C34463   1.447   8.412   0.089 -0.1978 -0.1889 -0.1139
  256MOL0     C34464   1.422   8.341  -0.040  0.4294  1.0332  0.2508
  256MOL0     C34465   1.497   8.398  -0.169  0.5855 -0.4455  0.6902
  256MOL0     C34466   1.423   8.352  -0.298  0.5624 -0.4364 -0.2047
  256MOL0     C34467   1.294   8.426  -0.315 -0.7983 -0.4855 -0.5196
  256MOL0     C34468   1.305   8.553  -0.395  0.2903 -0.6439  0.1255
  256MOL0     C34469   1.251   8.674  -0.324 -0.6017 -0.7050 -0.2834
  256MOL0    Cl34470   1.070   8.652  -0.279  0.4996 -0.8215  0.1450
  256MOL0     C34471   1.635   8.039   0.302 -0.3951  0.0571 -0.1721
  256MOL0     C34472   1.708   7.962   0.385  0.6587  0.1705  0.0412
  256MOL0     O34473   1.704   7.909   0.701 -0.1408  0.7133  1.1336
  256MOL0     C34474   1.975   7.706   0.688 -0.1991  0.1160 -0.4370
  256MOL0     C34475   2.059   7.622   0.762  0.6035  0.1942 -0.1350
  256MOL0     N34476   2.652   7.171   0.810 -0.6469 -0.0249 -0.1812
  256MOL0     N34477   2.606   7.055   0.779 -0.2154 -0.4001 -0.1336
  256MOL0     C34478   2.896   6.319   1.049  0.5168  0.8102 -0.2641
  256MOL0     C34479   3.029   6.287   1.028 -0.6436  0.3895  0.4301
  256MOL0     C34480   3.456   6.265   0.837  0.0674 -0.1154 -0.0037
  256MOL0     C34481   3.448   6.136   0.887  0.7579 -0.1978  0.7710
  256MOL0     C34482   3.549   6.041   0.865 -0.6673  0.1708 -1.0996
  256MOL0     C34483   3.671   6.089   0.810 -0.0801  0.1165  0.1346
  256MOL0     O34484   3.772   5.997   0.798 -0.2467 -0.4383  0.2741
  256MOL0     C34485   3.908   6.049   0.757  0.4305 -0.0768  0.1838
  256MOL0     C34486   3.919   6.070   0.607  0.1063 -0.2595 -0.3415
  256MOL0     C34487   3.999   6.199   0.583 -0.7697  0.4012 -0.1840
  256MOL0     C34488   4.077   6.205   0.450  1.2241  0.1009 -0.2643
  256MOL0     C34489   3.984   6.220   0.335 -0.4687  0.6121 -0.0953
  256MOL0     C34490   3.915   6.222   0.240  0.2853  0.1954  0.1473
  256MOL0     C34491   3.679   6.218   0.758 -0.1936  0.6040  0.1857
  256MOL0     C34492   3.569   6.305   0.770 -0.0027  1.2041  0.7307
  256MOL0     H34493   3.092   6.521   0.782  0.7706 -0.1336  0.5325
  256MOL0     H34494   2.852   6.555   0.818 -1.8636  0.3547  2.5557
  256MOL0     H34495   2.698   6.650   1.041 -2.0239 -0.2742  3.0126
  256MOL0     H34496   2.620   6.600   0.886 -1.3808 -1.4922 -0.1303
  256MOL0     H34497   2.437   6.500   1.017 -2.3099  1.2417  0.1610
  256MOL0     H34498   2.529   6.556   1.162 -0.4757 -0.2493 -0.3398
  256MOL0     H34499   2.402   6.739   1.166 -0.5147 -2.2880  0.8547
  256MOL0     H34500   2.500   6.799   1.031  1.2106 -0.7939  1.1482
  256MOL0     H34501   2.346   6.716   0.878  0.1792 -2.0906  0.0615
  256MOL0     H34502   2.250   6.632   1.007 -0.2737  0.4514 -0.3710
  256MOL0     H34503   2.116   6.816   0.961  0.0490 -2.0703  2.0310
  256MOL0     H34504   2.199   6.850   1.097 -2.0395 -0.6218 -0.4459
  256MOL0     H34505   2.204   7.040   0.941 -0.8239 -1.0886 -1.6865
  256MOL0     H34506   2.374   6.976   0.947  1.5934 -1.7685  0.2646
  256MOL0     H34507   2.217   6.843   0.744  2.7063 -1.2959 -3.9847
  256MOL0     H34508   2.191   7.014   0.719 -0.0276 -0.3416  0.7141
  256MOL0     H34509   2.397   6.943   0.583  0.0178 -0.5924  0.7133
  256MOL0     H34510   2.462   6.868   0.727 -0.5369  1.0574  2.4583
  256MOL0     H34511   2.348   7.256   0.720  0.8880  0.1242  1.3001
  256MOL0     H34512   2.677   7.433   0.834  0.3770 -0.3237  1.3210
  256MOL0     H34513   2.533   7.480   0.761  1.3591 -0.1776 -0.8905
  256MOL0     H34514   2.595   7.474   1.041  0.6927  0.3421 -1.1597
  256MOL0     H34515   2.485   7.332   1.017  0.4679 -1.7867 -2.0683
  256MOL0     H34516   2.441   7.631   0.967 -3.0444  0.9047 -1.5733
  256MOL0     H34517   2.381   7.530   1.101  0.5403 -1.3039  0.7165
  256MOL0     H34518   2.260   7.395   0.895 -1.2755  0.5324 -2.1883
  256MOL0     H34519   2.299   7.543   0.808  0.8212  1.9632 -0.0013
  256MOL0     H34520   1.981   7.750   1.068 -3.6269  2.8558 -0.3244
  256MOL0     H34521   1.737   7.878   0.952 -0.1787  0.7833  1.8496
  256MOL0     H34522   1.868   7.922   1.072 -1.8350 -1.1822  1.6268
  256MOL0     H34523   1.854   8.020   0.933 -3.3560  1.0787  2.1358
  256MOL0     H34524   1.935   8.179   0.499  0.4917  0.8835 -0.6139
  256MOL0     H34525   1.792   8.338   0.340  0.7992  0.3282 -3.0762
  256MOL0     H34526   1.622   8.446   0.237  1.9171 -0.5597 -0.1575
  256MOL0     H34527   1.671   8.374   0.083 -1.1396 -0.9152 -1.2140
  256MOL0     H34528   1.373   8.383   0.163 -0.6826  1.7668  0.2340
  256MOL0     H34529   1.441   8.521   0.076 -2.0258 -0.0315  1.5263
  256MOL0     H34530   1.314   8.344  -0.060  0.6303  0.9103 -0.9186
  256MOL0     H34531   1.445   8.235  -0.030  1.2140  1.0068 -1.5343
  256MOL0     H34532   1.498   8.507  -0.170  0.1183 -0.4286  1.3422
  256MOL0     H34533   1.598   8.358  -0.176 -0.4042 -2.9706 -0.6394
  256MOL0     H34534   1.407   8.246  -0.281 -0.2692 -0.1652  0.7710
  256MOL0     H34535   1.486   8.375  -0.385  1.6766  2.3680  1.2188
  256MOL0     H34536   1.229   8.352  -0.362  1.7002 -2.3003 -1.3397
  256MOL0     H34537   1.258   8.468  -0.220 -1.5045  1.2142 -1.4838
  256MOL0     H34538   1.245   8.537  -0.486 -0.2483  2.6252 -0.2256
  256MOL0     H34539   1.410   8.570  -0.422 -0.3005  0.7157 -1.4924
  256MOL0     H34540   1.258   8.758  -0.394 -2.5997  2.6194  3.1331
  256MOL0     H34541   1.310   8.698  -0.236  1.5479 -2.8085 -1.0494
  256MOL0     H34542   1.550   7.991   0.255 -1.9719  0.7274  1.9032
  256MOL0     H34543   1.668   7.862   0.390  0.0456  0.4166  0.2570
  256MOL0     H34544   1.953   7.678   0.586 -2.5576  0.7547 -0.1751
  256MOL0     H34545   2.108   7.541   0.708 -0.7945 -2.4012  2.2251
  256MOL0     H34546   2.842   6.252   1.115  1.5238 -3.1036 -3.0376
  256MOL0     H34547   3.066   6.205   1.088  0.8914  1.6043  1.2161
  256MOL0     H34548   3.355   6.100   0.930  0.3929 -0.1302  0.0649
  256MOL0     H34549   3.529   5.942   0.904 -3.0555  2.1140  3.3508
  256MOL0     H34550   3.930   6.139   0.815 -1.2939 -0.2858  1.2359
  256MOL0     H34551   3.973   5.967   0.790 -0.0940 -0.5602  0.0451
  256MOL0     H34552   3.820   6.085   0.563 -1.0746 -2.7798  1.2250
  256MOL0     H34553   3.962   5.981   0.561 -1.8079 -1.1015 -0.6212
  256MOL0     H34554   4.070   6.203   0.667 -0.4334 -1.0893 -0.3595
  256MOL0     H34555   3.934   6.286   0.591  0.9901  1.7090  0.7557
  256MOL0     H34556   4.119   6.107   0.426  2.2539 -0.2949  2.7738
  256MOL0     H34557   4.160   6.276   0.454  0.8733  0.4899  0.3501
  256MOL0     H34558   3.857   6.225   0.150  2.0712 -2.8182 -1.2405
  256MOL0     H34559   3.768   6.262   0.715  1.1310 -1.6991  0.4159
  256MOL0     H34560   3.575   6.411   0.748  0.0710  1.1775  0.6203
  257MOL0     O34561  10.124   7.946   4.845  0.3523  0.1354  0.0860
  257MOL0     C34562  10.034   7.943   4.766  0.0315 -0.8114  0.6079
  257MOL0     O34563   9.913   7.896   4.784 -0.4312 -0.2747  0.1206
  257MOL0     C34564   9.852   7.858   4.901  0.3707  0.6481 -0.2163
  257MOL0     C34565   9.921   7.813   5.010 -0.3714 -0.4187 -0.8603
  257MOL0     C34566   9.858   7.767   5.124 -1.3427 -0.4194 -1.0613
  257MOL0     C34567   9.719   7.767   5.140  0.1243 -0.3892 -0.4530
  257MOL0     O34568   9.674   7.730   5.271 -0.1460 -0.2840 -0.4948
  257MOL0     C34569   9.541   7.742   5.306 -0.0700 -0.4149  0.3420
  257MOL0     C34570   9.513   7.892   5.341  0.0069  0.2669 -0.1738
  257MOL0     C34571   9.544   7.911   5.486  0.3762  0.3361 -0.1245
  257MOL0     C34572   9.426   7.871   5.569 -0.2434 -0.2133 -0.0932
  257MOL0     C34573   9.442   7.912   5.717 -1.0744 -0.3884  0.2910
  257MOL0     C34574   9.327   7.889   5.805  0.6688 -0.0618  0.0969
  257MOL0     C34575   9.356   7.899   5.962 -0.6534 -0.0748  0.8450
  257MOL0     C34576   9.247   7.835   6.040 -0.0392 -0.0594  0.1025
  257MOL0     N34577   9.235   7.701   6.005 -0.5499 -0.6030 -0.7650
  257MOL0     C34578   9.336   7.605   6.025  0.2494  0.3529 -0.1600
  257MOL0     C34579   9.274   7.489   5.981 -0.7102 -0.6099  0.5643
  257MOL0     C34580   9.356   7.365   5.968 -0.0527 -0.5443 -0.4473
  257MOL0     C34581   9.278   7.254   6.053  0.2898 -0.4465  0.1702
  257MOL0     C34582   9.383   7.161   6.127 -0.8505  0.4471  0.0689
  257MOL0     C34583   9.473   7.081   6.030 -0.5888  0.2324 -0.0542
  257MOL0     O34584   9.558   6.995   6.107 -0.3977  0.4794 -0.2418
  257MOL0     C34585   9.675   7.048   6.162  0.8152 -0.4734 -0.8653
  257MOL0     C34586   9.765   7.109   6.084 -0.2058  0.1916  0.2930
  257MOL0     C34587   9.890   7.162   6.130  0.6840 -0.1450  0.0311
  257MOL0     C34588   9.977   7.231   6.027  0.0432 -0.6124 -0.0119
  257MOL0     C34589   9.924   7.151   6.264 -0.1463  1.0277  0.6299
  257MOL0     C34590  10.048   7.203   6.328 -1.8701 -0.3393  0.5713
  257MOL0     O34591  10.056   7.195   6.468 -0.5277 -0.1972 -0.4382
  257MOL0     C34592  10.172   7.227   6.541 -0.2544 -0.1033  0.4831
  257MOL0     C34593  10.172   7.318   6.642 -0.7566  0.0737  0.2876
  257MOL0     C34594  10.287   7.333   6.717 -0.5958 -0.3933 -1.1467
  257MOL0     C34595  10.406   7.260   6.691  0.2088  0.3722  0.4974
  257MOL0     O34596  10.509   7.275   6.770  0.1560 -0.0767 -0.2458
  257MOL0     C34597  10.606   7.372   6.720  0.5404  1.0456 -0.0231
  257MOL0     C34598  10.738   7.354   6.793 -0.2796 -1.0645 -0.5875
  257MOL0     C34599  10.836   7.460   6.741  0.8137 -0.7826 -0.3843
  257MOL0     C34600  10.817   7.597   6.815 -0.9702  0.0821  0.1668
  257MOL0     C34601  10.939   7.680   6.821  0.2179 -0.2666 -0.3354
  257MOL0     C34602  10.960   7.768   6.943  0.6410  0.0137 -0.0217
  257MOL0     C34603  11.091   7.841   6.947 -0.9174 -0.7454 -0.6264
  257MOL0     C34604  11.116   7.925   7.067 -1.1500 -0.0084 -0.1600
  257MOL0    Cl34605  10.998   8.048   7.092 -0.2221  0.4383  0.9672
  257MOL0     C34606  10.405   7.185   6.580 -0.0684  0.4808  0.4875
  257MOL0     C34607  10.292   7.164   6.505 -0.1652  0.1820 -0.4308
  257MOL0     O34608  10.138   7.245   6.260  0.1393 -0.3370  0.7708
  257MOL0     C34609   9.833   7.087   6.346 -0.1220 -0.5281 -0.3541
  257MOL0     C34610   9.707   7.043   6.305  0.2375  0.1061  0.1012
  257MOL0     N34611   9.147   7.511   5.949  0.6595  0.2402  0.8612
  257MOL0     N34612   9.120   7.639   5.967  0.2316 -0.3912  0.5173
  257MOL0     C34613   9.651   7.805   5.025 -0.0748 -0.2492  0.3135
  257MOL0     C34614   9.715   7.867   4.910  0.5210  0.3176  0.2165
  257MOL0     C34615  10.061   8.017   4.640 -0.7149 -1.2776 -0.1294
  257MOL0     C34616  10.175   8.102   4.631  0.9371  0.1128 -1.2086
  257MOL0     C34617  10.205   8.175   4.518  0.6712  0.0566 -0.2436
  257MOL0     C34618  10.128   8.156   4.403 -0.3907  0.6059  0.4928
  257MOL0     O34619  10.154   8.225   4.281 -0.0007  0.4814 -0.1901
  257MOL0     C34620  10.236   8.339   4.276  0.6874 -0.1794 -1.5033
  257MOL0     C34621  10.177   8.459   4.354  0.0193 -0.1800 -0.5921
  257MOL0     C34622  10.223   8.590   4.290  0.5246  1.3889  1.3249
  257MOL0     C34623  10.210   8.717   4.387 -1.6607  0.4249 -0.0348
  257MOL0     C34624  10.090   8.716   4.471  0.2663  0.4088  0.5990
  257MOL0     C34625   9.991   8.714   4.537 -0.0981 -0.2741 -0.4714
  257MOL0     C34626  10.012   8.073   4.409  0.1309  0.4480  0.0337
  257MOL0     C34627   9.975   8.005   4.528 -0.4931 -0.2406  0.0344
  257MOL0     H34628  10.030   7.807   5.008 -0.2484  0.6389  0.7020
  257MOL0     H34629   9.925   7.744   5.207 -2.7011 -1.5246 -0.2253
  257MOL0     H34630   9.487   7.718   5.213  3.5122 -0.3095 -1.9374
  257MOL0     H34631   9.508   7.677   5.388  2.5688 -2.8546 -0.3501
  257MOL0     H34632   9.567   7.972   5.287 -0.5923  1.4825  0.9736
  257MOL0     H34633   9.406   7.908   5.326  0.0200  1.3247  0.7164
  257MOL0     H34634   9.629   7.852   5.519 -0.6811 -0.8346  0.6211
  257MOL0     H34635   9.583   8.012   5.500  5.8749 -1.5963  0.8689
  257MOL0     H34636   9.338   7.927   5.536  0.2425  0.6304  0.0089
  257MOL0     H34637   9.407   7.764   5.553 -4.3137  0.6723 -2.7015
  257MOL0     H34638   9.523   7.858   5.766 -0.7496 -0.6907 -0.5529
  257MOL0     H34639   9.479   8.014   5.727  0.5963 -1.0517  1.3655
  257MOL0     H34640   9.248   7.962   5.784  1.5278  0.5287 -1.2294
  257MOL0     H34641   9.287   7.790   5.779  0.5552  0.2325 -0.8698
  257MOL0     H34642   9.451   7.845   5.972  0.3901  0.2156 -4.4913
  257MOL0     H34643   9.376   8.000   5.999  0.9990  0.7869 -2.0862
  257MOL0     H34644   9.155   7.894   6.028 -2.3327 -3.1706  1.1695
  257MOL0     H34645   9.276   7.821   6.144 -0.1148 -1.1763 -0.0190
  257MOL0     H34646   9.430   7.630   6.074 -1.5745  0.4841  3.6335
  257MOL0     H34647   9.366   7.327   5.866  0.6806 -1.6861  0.0196
  257MOL0     H34648   9.455   7.376   6.014  0.4721  0.4813 -1.7704
  257MOL0     H34649   9.239   7.192   5.972  0.1252 -1.9615  1.3667
  257MOL0     H34650   9.201   7.271   6.129  2.2386 -0.2998  2.2018
  257MOL0     H34651   9.327   7.100   6.199  0.6106  1.0952  1.8321
  257MOL0     H34652   9.456   7.212   6.190 -1.3186  0.1150  0.8989
  257MOL0     H34653   9.525   7.146   5.958 -2.5338  0.6530 -1.1313
  257MOL0     H34654   9.416   7.023   5.958  0.0248 -1.0875  0.5032
  257MOL0     H34655   9.736   7.115   5.980  0.8917  1.8228  0.0509
  257MOL0     H34656  10.011   7.321   6.078  1.1226 -1.6397  1.1680
  257MOL0     H34657  10.073   7.177   6.020 -0.6535 -1.7571 -1.3007
  257MOL0     H34658   9.926   7.243   5.931 -1.4244  1.1684  0.9556
  257MOL0     H34659  10.078   7.355   6.681 -1.0125  0.4852 -0.6889
  257MOL0     H34660  10.279   7.400   6.802  2.6651 -0.5428 -0.5735
  257MOL0     H34661  10.625   7.357   6.614 -1.1207  0.8766 -0.3257
  257MOL0     H34662  10.576   7.473   6.750 -0.5325 -0.1301  3.4142
  257MOL0     H34663  10.734   7.361   6.902 -0.8594 -0.7988 -0.6174
  257MOL0     H34664  10.783   7.260   6.762 -0.0481 -1.0128 -0.4100
  257MOL0     H34665  10.821   7.465   6.633 -2.5509  1.3689  0.0202
  257MOL0     H34666  10.934   7.421   6.771  1.1448  1.3171  1.5838
  257MOL0     H34667  10.733   7.655   6.776 -1.1603 -0.6423 -0.5313
  257MOL0     H34668  10.790   7.575   6.919  0.2297  0.7594  0.6430
  257MOL0     H34669  10.935   7.745   6.734 -1.9534  0.1739  0.0306
  257MOL0     H34670  11.028   7.617   6.812 -0.1096 -0.6423 -1.0333
  257MOL0     H34671  10.882   7.844   6.934  2.1334  1.3289 -3.7296
  257MOL0     H34672  10.944   7.713   7.036 -0.0033 -0.4444 -0.3988
  257MOL0     H34673  11.093   7.899   6.854  0.6911  1.7252  0.8534
  257MOL0     H34674  11.175   7.771   6.941 -0.6993 -0.7020  1.3650
  257MOL0     H34675  11.211   7.978   7.050 -0.9135 -0.7388 -1.2366
  257MOL0     H34676  11.132   7.858   7.152 -1.4271  0.2109  0.0633
  257MOL0     H34677  10.496   7.130   6.557  0.3094  0.7577  1.2911
  257MOL0     H34678  10.303   7.097   6.420  0.6457 -0.6234  0.2887
  257MOL0     H34679   9.835   7.080   6.454 -1.6151 -1.4671 -0.3639
  257MOL0     H34680   9.632   7.039   6.383  1.9463 -0.1856  1.8036
  257MOL0     H34681   9.544   7.825   5.030 -0.0354  0.3232 -0.7159
  257MOL0     H34682   9.662   7.904   4.823  0.5985 -0.2615 -0.0827
  257MOL0     H34683  10.243   8.112   4.715 -1.7161 -1.9900  1.3975
  257MOL0     H34684  10.283   8.250   4.512 -1.1600  2.3635  2.1850
  257MOL0     H34685  10.342   8.330   4.301  0.6277 -2.8569 -1.8823
  257MOL0     H34686  10.233   8.368   4.170 -2.8451 -0.0528 -1.4857
  257MOL0     H34687  10.216   8.451   4.457 -1.3080  0.6336  0.0022
  257MOL0     H34688  10.068   8.452   4.364  0.0648  0.8075  1.0332
  257MOL0     H34689  10.170   8.604   4.195  0.6691 -0.5099  0.9312
  257MOL0     H34690  10.325   8.574   4.255 -0.3112 -0.2441 -0.5314
  257MOL0     H34691  10.224   8.811   4.333  0.3611  0.3953  0.3538
  257MOL0     H34692  10.301   8.710   4.448  0.3363 -0.1677 -2.9008
  257MOL0     H34693   9.909   8.715   4.606  0.5480 -1.2721  0.3417
  257MOL0     H34694   9.943   8.055   4.326 -3.7759  3.7010  2.1932
  257MOL0     H34695   9.892   7.935   4.525 -0.0205 -0.7875 -1.1258
  258MOL0     O34696   4.275   8.737   8.027  0.2054  0.3149 -0.1743
  258MOL0     C34697   4.215   8.781   7.923 -0.5707 -0.1752  0.6781
  258MOL0     O34698   4.092   8.834   7.921  0.3939  0.3749 -0.0310
  258MOL0     C34699   4.000   8.799   8.009 -0.1607 -0.0088  0.2886
  258MOL0     C34700   4.001   8.683   8.086  0.5217 -0.2719  1.1678
  258MOL0     C34701   3.899   8.654   8.174 -0.4074  0.2966  0.1373
  258MOL0     C34702   3.776   8.729   8.172 -0.8443 -0.8083  0.2936
  258MOL0     O34703   3.668   8.687   8.243  0.3664  0.1565  0.4082
  258MOL0     C34704   3.618   8.564   8.205  0.3481 -0.2788 -0.5183
  258MOL0     C34705   3.549   8.571   8.060 -0.2192 -0.1564 -0.0049
  258MOL0     C34706   3.490   8.443   8.037 -0.9376 -0.2503  0.7644
  258MOL0     C34707   3.396   8.440   7.918 -0.4086 -1.0773  0.4362
  258MOL0     C34708   3.304   8.324   7.913 -0.2902  0.5038  0.1896
  258MOL0     C34709   3.190   8.349   7.813 -0.2336  0.8320  1.0822
  258MOL0     C34710   3.084   8.235   7.832  1.0579  0.5241 -0.2446
  258MOL0     C34711   3.010   8.217   7.697  0.2722 -0.4627 -0.0849
  258MOL0     N34712   2.935   8.090   7.695  0.1068 -0.2232 -0.7304
  258MOL0     C34713   2.814   8.072   7.758 -0.4640 -0.1914  0.0528
  258MOL0     C34714   2.781   7.939   7.732 -0.3409  0.3028  0.4359
  258MOL0     C34715   2.643   7.870   7.757 -0.0951  0.7527  0.1394
  258MOL0     C34716   2.535   7.920   7.649  0.4079 -0.1692 -0.4275
  258MOL0     C34717   2.577   7.908   7.506 -0.0440 -0.6550 -0.0405
  258MOL0     C34718   2.481   7.989   7.400  0.2245  0.0038  0.1266
  258MOL0     O34719   2.361   7.919   7.369 -0.0585  0.5756 -0.1492
  258MOL0     C34720   2.357   7.850   7.245 -0.2273  0.4700 -0.1596
  258MOL0     C34721   2.475   7.798   7.189 -0.3437  0.1282  0.1270
  258MOL0     C34722   2.471   7.735   7.061  0.0467  0.5628  0.2792
  258MOL0     C34723   2.598   7.680   7.010  0.0637  0.8671  0.7710
  258MOL0     C34724   2.349   7.720   6.989 -0.3926 -1.1287  0.0381
  258MOL0     C34725   2.330   7.651   6.863  0.1142  0.6854  0.0392
  258MOL0     O34726   2.221   7.686   6.788  0.2829 -0.1806  0.0111
  258MOL0     C34727   2.155   7.573   6.743  0.0061 -0.2891  0.7990
  258MOL0     C34728   2.093   7.477   6.826 -0.1401  0.3021  0.3019
  258MOL0     C34729   2.013   7.377   6.777  0.2621 -0.6948  1.0242
  258MOL0     C34730   1.989   7.371   6.639 -0.8551  0.0886 -0.4251
  258MOL0     O34731   1.927   7.260   6.587 -0.0514  0.7396  0.1968
  258MOL0     C34732   1.855   7.167   6.660  0.4254 -0.5454 -1.2456
  258MOL0     C34733   1.834   7.050   6.570 -0.0993  0.2174  1.1931
  258MOL0     C34734   1.805   6.909   6.647  0.8078 -0.8303  0.0009
  258MOL0     C34735   1.661   6.920   6.730 -0.2404 -0.5234  0.2708
  258MOL0     C34736   1.608   6.788   6.787 -0.5266 -0.8669  0.4866
  258MOL0     C34737   1.470   6.811   6.845  0.3026 -0.0599  0.1906
  258MOL0     C34738   1.412   6.700   6.931 -1.1352 -0.7957  0.0041
  258MOL0     C34739   1.368   6.582   6.843 -0.6207 -0.4210  0.8565
  258MOL0    Cl34740   1.335   6.441   6.952  0.3807  0.3267 -0.0189
  258MOL0     C34741   2.055   7.460   6.554  0.3699 -0.2734  0.6217
  258MOL0     C34742   2.139   7.560   6.610  0.1521 -0.4989 -0.1147
  258MOL0     O34743   2.393   7.546   6.851 -0.1579  0.0918  0.1182
  258MOL0     C34744   2.233   7.755   7.057  0.2942  0.0176 -0.3984
  258MOL0     C34745   2.233   7.829   7.180  0.5915 -0.7489  0.4285
  258MOL0     N34746   2.893   7.876   7.677 -1.1368  0.6358 -0.1209
  258MOL0     N34747   2.977   7.968   7.649  1.1806 -0.1478  0.3783
  258MOL0     C34748   3.765   8.835   8.073  0.8722 -0.2086 -0.1672
  258MOL0     C34749   3.877   8.875   7.998 -0.5096 -0.2328 -0.0899
  258MOL0     C34750   4.296   8.792   7.799 -0.0010 -0.4834  0.8899
  258MOL0     C34751   4.229   8.857   7.686 -0.2541 -0.1451  0.1713
  258MOL0     C34752   4.308   8.877   7.567 -0.5670  0.0508  0.7951
  258MOL0     C34753   4.442   8.844   7.570  0.0028 -0.7595 -0.9026
  258MOL0     O34754   4.507   8.877   7.448  0.0330 -0.0874 -0.5303
  258MOL0     C34755   4.557   8.763   7.378 -0.2653 -0.1912 -0.1478
  258MOL0     C34756   4.480   8.737   7.248  0.4142  0.1004  0.0897
  258MOL0     C34757   4.576   8.720   7.134  0.9793 -0.1496 -0.4405
  258MOL0     C34758   4.711   8.643   7.131  0.0578  1.0607  0.7134
  258MOL0     C34759   4.790   8.659   7.008 -0.4561 -0.0752 -0.1265
  258MOL0     C34760   4.847   8.682   6.904  0.1293  0.2023  0.5349
  258MOL0     C34761   4.511   8.796   7.687  0.1017  0.4706 -0.2311
  258MOL0     C34762   4.435   8.757   7.796 -0.0731 -0.9384  0.0863
  258MOL0     H34763   4.079   8.607   8.092 -2.3492 -3.3430  2.2642
  258MOL0     H34764   3.918   8.569   8.240 -0.1790  0.0638 -0.2257
  258MOL0     H34765   3.693   8.484   8.209 -0.2960 -0.8514  0.3613
  258MOL0     H34766   3.537   8.540   8.275 -0.5274  2.9113 -0.2781
  258MOL0     H34767   3.473   8.651   8.064 -1.5208 -1.3452 -0.0935
  258MOL0     H34768   3.618   8.588   7.977  0.3162 -1.9397  0.0371
  258MOL0     H34769   3.582   8.393   8.005 -0.9725  0.8622 -1.2481
  258MOL0     H34770   3.444   8.408   8.129 -2.2211  2.7728  1.3779
  258MOL0     H34771   3.327   8.523   7.937  0.2370 -0.4445  0.0490
  258MOL0     H34772   3.451   8.458   7.825 -0.2700 -1.2933  0.4742
  258MOL0     H34773   3.356   8.228   7.900 -0.6585 -0.1569  2.9728
  258MOL0     H34774   3.259   8.319   8.012  0.9240 -0.8918  0.7160
  258MOL0     H34775   3.148   8.450   7.820 -1.7738  0.2016  1.2787
  258MOL0     H34776   3.235   8.344   7.713 -1.2088  2.1619  0.5308
  258MOL0     H34777   3.141   8.144   7.851 -0.2153 -0.8874 -2.6562
  258MOL0     H34778   3.020   8.253   7.919 -1.3554  0.7596 -1.9817
  258MOL0     H34779   3.085   8.220   7.619  1.0541  4.9265  0.4510
  258MOL0     H34780   2.937   8.298   7.685  0.8350  0.1748  0.6637
  258MOL0     H34781   2.750   8.152   7.794 -0.7462  0.4883 -1.8675
  258MOL0     H34782   2.664   7.764   7.737  1.5601  1.0808 -0.0019
  258MOL0     H34783   2.609   7.898   7.856  1.5182 -0.6878  1.1639
  258MOL0     H34784   2.514   8.027   7.661  0.1252 -0.2009 -0.6076
  258MOL0     H34785   2.444   7.864   7.673 -0.0530 -0.5597 -2.8266
  258MOL0     H34786   2.582   7.803   7.477  1.9347 -0.0933 -2.0012
  258MOL0     H34787   2.681   7.939   7.495 -0.4729  0.0424 -3.5087
  258MOL0     H34788   2.540   8.023   7.314 -0.0642  1.4847  0.4991
  258MOL0     H34789   2.447   8.086   7.438  1.1000  0.4059 -0.0830
  258MOL0     H34790   2.574   7.811   7.230  0.1586  0.8462 -1.2367
  258MOL0     H34791   2.625   7.705   6.907  1.3586  0.1187  0.9144
  258MOL0     H34792   2.678   7.706   7.079 -1.1391  1.7282  1.8938
  258MOL0     H34793   2.586   7.572   7.023  1.7359  1.0833  6.2475
  258MOL0     H34794   2.103   7.474   6.934 -0.1890 -2.3137  0.2914
  258MOL0     H34795   1.957   7.308   6.839  0.8823 -2.9382 -0.7662
  258MOL0     H34796   1.909   7.131   6.747 -3.5090  1.2132  2.2709
  258MOL0     H34797   1.758   7.209   6.690  0.6426  1.9609 -3.6148
  258MOL0     H34798   1.753   7.069   6.499  1.4246  0.2839 -0.5950
  258MOL0     H34799   1.931   7.031   6.524  0.6286  0.2302  2.6506
  258MOL0     H34800   1.894   6.901   6.710  0.9694 -1.8095 -0.3301
  258MOL0     H34801   1.793   6.828   6.574  1.3220 -1.3998  0.5365
  258MOL0     H34802   1.660   6.998   6.807 -2.2292  0.0793 -0.3239
  258MOL0     H34803   1.590   6.964   6.660 -0.2756  0.7037  1.0567
  258MOL0     H34804   1.681   6.763   6.864 -0.3496 -0.4642  0.4522
  258MOL0     H34805   1.599   6.718   6.703 -1.9138  0.3991 -0.4689
  258MOL0     H34806   1.473   6.895   6.914 -2.1945  1.1900 -1.1023
  258MOL0     H34807   1.397   6.831   6.766 -0.4594 -0.7782  0.6982
  258MOL0     H34808   1.331   6.730   6.998  0.2322  1.4640  0.7462
  258MOL0     H34809   1.497   6.662   6.988  0.4698 -0.4603 -2.0633
  258MOL0     H34810   1.447   6.546   6.776 -1.5836 -0.0414 -0.5196
  258MOL0     H34811   1.279   6.612   6.787  1.0829  2.0725 -0.7491
  258MOL0     H34812   2.041   7.439   6.449  0.3546 -1.2939  0.8200
  258MOL0     H34813   2.180   7.634   6.542 -1.4993  1.7479  1.2066
  258MOL0     H34814   2.134   7.740   7.016 -0.7245  2.0074  1.1691
  258MOL0     H34815   2.139   7.868   7.216  1.7313  3.5627 -0.7701
  258MOL0     H34816   3.675   8.895   8.066  2.4196  2.1264 -1.1279
  258MOL0     H34817   3.870   8.956   7.926  0.7380 -0.7073 -0.7896
  258MOL0     H34818   4.127   8.895   7.694  0.3178  2.1180 -2.2397
  258MOL0     H34819   4.258   8.906   7.475  3.0484  1.5144 -0.8858
  258MOL0     H34820   4.662   8.783   7.352 -0.0497 -0.0041  0.8107
  258MOL0     H34821   4.557   8.670   7.437  0.4717  0.0427  0.2419
  258MOL0     H34822   4.421   8.823   7.216  2.2280  0.8462 -1.4614
  258MOL0     H34823   4.422   8.645   7.259  1.2474 -0.7294 -1.9055
  258MOL0     H34824   4.596   8.821   7.098 -0.4692 -0.7763 -3.3204
  258MOL0     H34825   4.510   8.683   7.055  0.5796 -0.6858  0.1328
  258MOL0     H34826   4.714   8.534   7.140  1.6980  0.9921 -0.2478
  258MOL0     H34827   4.782   8.691   7.199 -0.4896  0.5326  1.6728
  258MOL0     H34828   4.888   8.712   6.810 -1.2116  1.4881  0.3257
  258MOL0     H34829   4.616   8.771   7.690 -0.2128 -1.1715 -1.3233
  258MOL0     H34830   4.484   8.726   7.888  2.9411 -0.8964 -1.4229
  259MOL0     O34831   3.267   5.084   6.063 -0.8742  0.1269 -0.5958
  259MOL0     C34832   3.288   5.085   6.187 -0.1193  0.0457  0.0115
  259MOL0     O34833   3.416   5.095   6.242 -0.2268 -0.5654 -0.1809
  259MOL0     C34834   3.510   5.171   6.175 -0.7605  0.2457 -0.1862
  259MOL0     C34835   3.629   5.181   6.242 -0.0440  0.6076  1.2734
  259MOL0     C34836   3.743   5.252   6.198 -0.3023  0.3710 -0.4467
  259MOL0     C34837   3.740   5.326   6.079  0.0485  0.0637 -0.2195
  259MOL0     O34838   3.848   5.412   6.053  0.0304 -0.9357  0.1388
  259MOL0     C34839   3.830   5.504   5.945  0.0023  0.2169  0.6655
  259MOL0     C34840   3.970   5.572   5.930  0.2776  0.6691  0.4407
  259MOL0     C34841   3.990   5.688   6.029  0.2643  1.0002  0.5064
  259MOL0     C34842   3.959   5.822   5.952 -0.1404  0.0660 -0.3579
  259MOL0     C34843   4.008   5.955   6.012 -0.2736  0.3823  0.2090
  259MOL0     C34844   3.954   5.999   6.156 -0.3484 -1.1198  0.0880
  259MOL0     C34845   3.805   5.998   6.152 -0.9115  0.4118 -0.5107
  259MOL0     C34846   3.731   6.058   6.270  0.1657  0.6055 -0.2012
  259MOL0     N34847   3.739   6.204   6.262  0.2127 -0.8634  0.3097
  259MOL0     C34848   3.830   6.281   6.322 -1.1443  0.4186 -0.2219
  259MOL0     C34849   3.782   6.404   6.309 -1.4958  0.0353 -0.4788
  259MOL0     C34850   3.842   6.528   6.367  1.0297  0.1567 -0.5520
  259MOL0     C34851   3.900   6.615   6.259  0.6704  0.3705 -0.7001
  259MOL0     C34852   3.786   6.666   6.168  0.9585 -0.5701 -0.9406
  259MOL0     C34853   3.834   6.787   6.102  0.5725  0.4717 -0.3644
  259MOL0     O34854   3.937   6.750   6.001  0.2225 -0.1542  0.5733
  259MOL0     C34855   3.972   6.840   5.907 -0.2800  0.2433  0.4658
  259MOL0     C34856   3.950   6.975   5.909 -0.9855  0.6753 -0.9998
  259MOL0     C34857   3.971   7.053   5.802 -0.0987 -0.1876 -0.3094
  259MOL0     C34858   3.949   7.199   5.833  0.0367 -0.1879 -0.1418
  259MOL0     C34859   4.024   6.999   5.682  0.3465  0.1861  0.5012
  259MOL0     C34860   4.053   7.084   5.566 -0.2113 -0.4669  0.3742
  259MOL0     O34861   4.056   7.220   5.573  0.4320 -0.3029  0.1672
  259MOL0     C34862   4.040   7.290   5.453  0.2887  0.6240 -1.1570
  259MOL0     C34863   3.926   7.366   5.430 -0.0282  1.1583  0.1370
  259MOL0     C34864   3.902   7.414   5.299  0.2178  0.0341 -0.6788
  259MOL0     C34865   3.996   7.377   5.198 -0.3352 -0.0607  1.2478
  259MOL0     O34866   3.974   7.410   5.062  0.4155  0.3774 -0.2977
  259MOL0     C34867   4.033   7.339   4.954  0.9512 -0.6963 -0.0722
  259MOL0     C34868   3.968   7.349   4.811  0.5792  0.1287 -0.1739
  259MOL0     C34869   3.838   7.258   4.792 -0.2128 -0.3077  0.4686
  259MOL0     C34870   3.796   7.237   4.642  0.6407  0.0003 -0.1095
  259MOL0     C34871   3.672   7.329   4.619  1.3649 -0.1896  0.5531
  259MOL0     C34872   3.544   7.274   4.682 -0.5992  0.3864  0.8580
  259MOL0     C34873   3.422   7.349   4.634 -0.1346  0.2846  0.8110
  259MOL0     C34874   3.299   7.290   4.694 -0.1305 -0.5194  0.0454
  259MOL0    Cl34875   3.265   7.350   4.867  0.0635 -0.4081 -0.2301
  259MOL0     C34876   4.111   7.313   5.228 -0.1938  0.2622  0.6777
  259MOL0     C34877   4.134   7.263   5.353  0.3001 -0.4492 -0.2179
  259MOL0     O34878   4.076   7.025   5.464 -0.7834  0.2790  0.2990
  259MOL0     C34879   4.045   6.856   5.683  0.5000 -0.0632  0.2329
  259MOL0     C34880   4.016   6.775   5.788  0.5825 -0.6904  0.1717
  259MOL0     N34881   3.654   6.399   6.256 -0.3026  0.7327  1.0707
  259MOL0     N34882   3.624   6.276   6.227 -0.4259  0.0965 -0.3337
  259MOL0     C34883   3.624   5.320   6.009 -0.2526  0.4205 -0.4969
  259MOL0     C34884   3.509   5.247   6.053 -0.1263 -0.2672  0.3286
  259MOL0     C34885   3.189   5.035   6.280  0.4877  0.1752  0.0393
  259MOL0     C34886   3.206   5.030   6.419 -0.3360 -0.4495  0.6947
  259MOL0     C34887   3.120   4.965   6.500  0.0657  1.0345  0.3845
  259MOL0     C34888   3.014   4.884   6.448  0.1891  0.3768  0.8082
  259MOL0     O34889   2.929   4.814   6.538 -0.5336  0.8919 -0.6725
  259MOL0     C34890   2.790   4.773   6.509  0.3087  0.5609  0.2059
  259MOL0     C34891   2.778   4.649   6.418  0.0992  0.8675 -0.5417
  259MOL0     C34892   2.639   4.627   6.368  0.1693 -0.6862 -0.1538
  259MOL0     C34893   2.628   4.500   6.278  0.3955 -0.6103 -0.7897
  259MOL0     C34894   2.678   4.507   6.143  0.3618  0.4135  0.1158
  259MOL0     C34895   2.726   4.500   6.028 -1.1080  0.3249  0.5479
  259MOL0     C34896   2.986   4.901   6.315 -0.2603 -0.2943  0.1634
  259MOL0     C34897   3.070   4.974   6.230 -1.3369 -0.5558 -0.4870
  259MOL0     H34898   3.649   5.123   6.332  0.2411  0.6832  1.2599
  259MOL0     H34899   3.829   5.273   6.261  0.3910  3.3124 -2.1885
  259MOL0     H34900   3.823   5.443   5.854  2.8241  1.4187 -0.4912
  259MOL0     H34901   3.742   5.568   5.938 -2.4974 -2.9986  0.3865
  259MOL0     H34902   4.051   5.499   5.935 -1.2710 -1.2171 -0.7759
  259MOL0     H34903   3.973   5.614   5.829  0.3500  2.1316  1.0236
  259MOL0     H34904   3.918   5.682   6.110 -0.6850 -0.7297 -0.4142
  259MOL0     H34905   4.091   5.683   6.072  1.7825  1.3108 -2.7007
  259MOL0     H34906   4.015   5.812   5.859  0.2254 -1.8318  0.0196
  259MOL0     H34907   3.850   5.828   5.938 -0.3425  0.0990  1.0904
  259MOL0     H34908   4.116   5.944   6.020 -0.1411  1.7798  0.5700
  259MOL0     H34909   3.997   6.036   5.939  2.4071  1.0216  0.4298
  259MOL0     H34910   3.993   5.932   6.233  2.3723  0.2493 -0.0061
  259MOL0     H34911   3.992   6.098   6.182 -1.4967 -0.6469  0.0242
  259MOL0     H34912   3.779   6.044   6.056 -1.0400 -1.9946 -1.7021
  259MOL0     H34913   3.772   5.897   6.127 -1.0248  0.9556 -2.7840
  259MOL0     H34914   3.774   6.031   6.366  2.4404  0.4021 -1.2177
  259MOL0     H34915   3.625   6.033   6.261  0.2981 -0.0687  0.0666
  259MOL0     H34916   3.932   6.258   6.350 -1.5272 -2.3548 -0.7866
  259MOL0     H34917   3.772   6.582   6.432 -1.3618  0.3169 -3.0940
  259MOL0     H34918   3.930   6.503   6.428  0.4862 -0.0274  0.1778
  259MOL0     H34919   3.958   6.558   6.186  0.2010  2.2840 -2.6813
  259MOL0     H34920   3.958   6.694   6.308 -1.7908  3.5723 -2.5690
  259MOL0     H34921   3.702   6.701   6.228 -1.9526 -3.9889 -2.6757
  259MOL0     H34922   3.744   6.594   6.097 -1.0452  1.2034 -1.6583
  259MOL0     H34923   3.863   6.867   6.171 -0.1513  0.1880  0.2905
  259MOL0     H34924   3.749   6.829   6.048  0.3419  0.2739 -0.1599
  259MOL0     H34925   3.916   7.021   6.001 -0.5176 -1.0346  0.0791
  259MOL0     H34926   3.894   7.221   5.925  1.6752 -1.5991  1.2496
  259MOL0     H34927   4.049   7.238   5.853  0.4001 -1.6416  1.1103
  259MOL0     H34928   3.898   7.268   5.765 -1.0224  0.9397  1.7174
  259MOL0     H34929   3.854   7.362   5.511  1.8468 -2.7003  1.9099
  259MOL0     H34930   3.809   7.465   5.277  0.7845  1.5068  0.2224
  259MOL0     H34931   4.129   7.388   4.933  0.4437 -0.2904 -1.6293
  259MOL0     H34932   4.054   7.234   4.972  0.4000 -0.7278  0.4231
  259MOL0     H34933   3.948   7.449   4.774 -3.0725 -0.5832 -0.4996
  259MOL0     H34934   4.051   7.316   4.747  1.5604  2.0535  0.0556
  259MOL0     H34935   3.774   7.318   4.858 -0.9878  2.0752 -2.2537
  259MOL0     H34936   3.849   7.158   4.835 -1.3942 -0.3364  0.7462
  259MOL0     H34937   3.872   7.262   4.568  0.4429 -0.7603 -0.5807
  259MOL0     H34938   3.774   7.130   4.634  1.0471 -0.3068  2.1758
  259MOL0     H34939   3.646   7.332   4.513  0.8469 -1.0155  0.6466
  259MOL0     H34940   3.687   7.427   4.666  2.4881 -0.2665  0.3988
  259MOL0     H34941   3.526   7.170   4.654 -0.0895  0.0292  1.8069
  259MOL0     H34942   3.562   7.284   4.790  2.2294 -1.3018  0.6351
  259MOL0     H34943   3.411   7.338   4.526  1.7017 -2.4872  0.8085
  259MOL0     H34944   3.421   7.456   4.659 -2.1605  1.0651 -2.1016
  259MOL0     H34945   3.305   7.181   4.698  1.9145 -0.4244  0.3734
  259MOL0     H34946   3.217   7.318   4.627  0.9459  0.6017 -0.8495
  259MOL0     H34947   4.192   7.319   5.156 -1.8111  0.6911 -1.1744
  259MOL0     H34948   4.219   7.197   5.370 -0.8057 -2.2469 -1.2871
  259MOL0     H34949   4.080   6.812   5.590  1.4072  1.2812 -0.0897
  259MOL0     H34950   4.023   6.667   5.779 -1.1641 -0.7378 -1.5339
  259MOL0     H34951   3.618   5.385   5.921  0.7964 -0.6710 -1.4117
  259MOL0     H34952   3.416   5.269   6.001  0.0350  2.3139  1.0255
  259MOL0     H34953   3.280   5.092   6.469 -0.4180  0.3614 -0.1745
  259MOL0     H34954   3.147   4.973   6.605  1.4582  2.6576 -0.0524
  259MOL0     H34955   2.733   4.757   6.601 -1.3535  1.3457 -0.6379
  259MOL0     H34956   2.734   4.855   6.462 -1.4325 -0.5070  0.3165
  259MOL0     H34957   2.815   4.560   6.471 -1.8358 -0.0591 -0.6459
  259MOL0     H34958   2.845   4.662   6.333 -0.3184 -1.9580 -1.3927
  259MOL0     H34959   2.606   4.717   6.314  0.0607  0.9642  2.5119
  259MOL0     H34960   2.575   4.635   6.456 -0.8496  0.7781 -0.9698
  259MOL0     H34961   2.524   4.469   6.267  0.0210 -1.2265  3.0874
  259MOL0     H34962   2.683   4.420   6.329  0.7100  0.1028  0.0303
  259MOL0     H34963   2.787   4.474   5.943  0.0401  1.3579  1.0371
  259MOL0     H34964   2.893   4.864   6.272 -0.0463  0.6812 -1.2427
  259MOL0     H34965   3.043   4.978   6.125 -0.4359 -0.2515 -0.7202
  260MOL0     O34966   9.202   8.709   7.662  0.1271  0.2714 -0.0784
  260MOL0     C34967   9.263   8.603   7.652  0.1544  1.2425 -0.2388
  260MOL0     O34968   9.310   8.544   7.531  0.4971  0.0037 -0.1105
  260MOL0     C34969   9.261   8.582   7.406  0.1606 -0.1157 -0.3813
  260MOL0     C34970   9.122   8.604   7.386 -0.9309  0.8027  0.9400
  260MOL0     C34971   9.063   8.644   7.265 -0.4454 -0.0268 -0.4766
  260MOL0     C34972   9.156   8.669   7.156  1.3948  0.2341 -0.7235
  260MOL0     O34973   9.108   8.706   7.032  0.2325 -0.4042  0.1249
  260MOL0     C34974   8.962   8.726   7.002 -0.1600  0.2346 -0.6264
  260MOL0     C34975   8.935   8.705   6.854  0.1060 -1.4583  0.2323
  260MOL0     C34976   8.906   8.835   6.783 -0.7208  0.1370 -0.4317
  260MOL0     C34977   9.031   8.924   6.764  0.2083  0.8682 -0.8119
  260MOL0     C34978   9.130   8.868   6.662 -0.4197  0.1028 -0.5079
  260MOL0     C34979   9.240   8.972   6.638  0.6476 -0.2036  0.3587
  260MOL0     C34980   9.358   8.930   6.549  0.0859  0.5989 -0.8880
  260MOL0     C34981   9.453   9.038   6.507  0.4540 -0.1589 -0.3172
  260MOL0     N34982   9.575   8.981   6.440 -0.1322  0.1711  0.2257
  260MOL0     C34983   9.596   8.976   6.303  0.6548  0.2555 -0.6152
  260MOL0     C34984   9.712   8.912   6.292 -0.4258 -0.4021  0.5554
  260MOL0     C34985   9.793   8.913   6.161  0.1345  0.1464  0.0074
  260MOL0     C34986   9.927   8.982   6.148 -0.7355  0.5598 -1.1210
  260MOL0     C34987  10.006   8.952   6.021 -0.1021 -0.0636 -0.3478
  260MOL0     C34988  10.150   8.984   6.047 -0.5827  0.3032  0.8608
  260MOL0     O34989  10.223   8.874   6.103  0.3148 -0.3860 -0.1835
  260MOL0     C34990  10.349   8.896   6.150 -0.9910  0.4651  0.7498
  260MOL0     C34991  10.426   8.775   6.157 -0.4742 -0.6221 -0.0985
  260MOL0     C34992  10.554   8.767   6.218  0.4763 -0.2773  0.3837
  260MOL0     C34993  10.624   8.628   6.218 -0.2989 -0.6818 -0.1272
  260MOL0     C34994  10.608   8.886   6.264  0.1344 -0.0880  0.9503
  260MOL0     C34995  10.741   8.878   6.325 -0.3563 -0.1530  0.6422
  260MOL0     O34996  10.850   8.848   6.254  0.0189 -0.1257  0.1188
  260MOL0     C34997  10.979   8.827   6.295  0.0033 -0.0952  0.5816
  260MOL0     C34998  11.074   8.788   6.199 -0.5750 -0.2552 -0.5592
  260MOL0     C34999  11.210   8.762   6.240  0.4258 -0.2860  1.5048
  260MOL0     C35000  11.253   8.790   6.370  0.2846 -0.2893  0.2080
  260MOL0     O35001  11.387   8.795   6.410  0.8587  1.2394  0.6146
  260MOL0     C35002  11.487   8.781   6.310 -0.2750 -0.1083  1.0406
  260MOL0     C35003  11.633   8.806   6.373  0.5088  0.2847 -0.0226
  260MOL0     C35004  11.624   8.942   6.436 -0.5968  0.6205  0.9373
  260MOL0     C35005  11.767   8.992   6.481  0.1489  0.0698 -0.4183
  260MOL0     C35006  11.851   9.070   6.371  0.0904  0.1395 -0.1698
  260MOL0     C35007  11.987   9.111   6.424 -0.7249 -0.1863  0.9192
  260MOL0     C35008  12.079   9.196   6.327 -0.4661  1.0084  0.4630
  260MOL0     C35009  12.228   9.162   6.352 -0.1508 -0.1308 -0.6127
  260MOL0    Cl35010  12.264   9.161   6.525  0.4717 -0.3874  0.1889
  260MOL0     C35011  11.153   8.826   6.466  0.3183 -0.1328  1.0316
  260MOL0     C35012  11.020   8.842   6.423 -1.4059 -0.5666 -0.8263
  260MOL0     O35013  10.743   8.910   6.446 -0.2630 -0.3542 -0.4534
  260MOL0     C35014  10.545   9.010   6.249  0.7621  0.8606 -0.5127
  260MOL0     C35015  10.413   9.016   6.199  0.6298  0.0576 -0.5045
  260MOL0     N35016   9.775   8.887   6.416 -0.2241 -0.1141  0.0794
  260MOL0     N35017   9.682   8.926   6.497 -0.5386 -0.0568 -0.1504
  260MOL0     C35018   9.289   8.651   7.173 -0.7715  0.9767  0.3369
  260MOL0     C35019   9.342   8.606   7.294  0.3533 -0.5730 -0.0441
  260MOL0     C35020   9.314   8.534   7.780 -1.1255 -0.6567  0.6345
  260MOL0     C35021   9.289   8.586   7.906 -0.4450 -0.1151 -0.7809
  260MOL0     C35022   9.345   8.520   8.016  0.5793 -0.7018  0.6195
  260MOL0     C35023   9.440   8.418   8.002 -0.0861 -0.2526 -0.7852
  260MOL0     O35024   9.505   8.387   8.119  0.2775 -0.2116 -1.0215
  260MOL0     C35025   9.590   8.276   8.125 -0.2555 -0.2721 -0.0217
  260MOL0     C35026   9.743   8.310   8.119  0.1650 -0.1561  0.0538
  260MOL0     C35027   9.836   8.195   8.106 -0.3823  0.0490 -0.4270
  260MOL0     C35028   9.862   8.118   8.236  0.0849 -0.3668  0.8744
  260MOL0     C35029   9.956   8.009   8.201 -0.1727 -0.0633  0.3060
  260MOL0     C35030  10.023   7.908   8.198 -0.4814 -0.7793  0.5845
  260MOL0     C35031   9.477   8.368   7.879  0.3169  0.7441 -0.0831
  260MOL0     C35032   9.408   8.429   7.766 -0.6890  1.4267  0.0796
  260MOL0     H35033   9.061   8.588   7.473  0.6148  0.0493  1.9400
  260MOL0     H35034   8.956   8.659   7.256 -0.6029  1.0255  2.2171
  260MOL0     H35035   8.905   8.650   7.056 -0.0119  1.4511  1.3296
  260MOL0     H35036   8.932   8.826   7.034 -0.4846 -1.1665  4.1840
  260MOL0     H35037   9.020   8.653   6.807  1.4236 -1.2877  2.3163
  260MOL0     H35038   8.847   8.644   6.832  0.7344 -1.0498 -4.5038
  260MOL0     H35039   8.858   8.828   6.685 -2.2548 -2.8360  0.4073
  260MOL0     H35040   8.834   8.883   6.851 -1.4149 -2.3701  0.7452
  260MOL0     H35041   8.998   9.026   6.742 -0.0947  0.8000 -0.6802
  260MOL0     H35042   9.084   8.931   6.859  1.2196  3.0703 -1.4796
  260MOL0     H35043   9.168   8.771   6.695 -1.6197 -0.2200 -0.0223
  260MOL0     H35044   9.087   8.860   6.562 -1.4681  1.6830 -0.2187
  260MOL0     H35045   9.178   9.050   6.593  0.7457  0.1066  0.7506
  260MOL0     H35046   9.285   9.008   6.731 -1.1239  2.2121  0.3705
  260MOL0     H35047   9.409   8.853   6.607  0.7229  1.1694 -0.6848
  260MOL0     H35048   9.315   8.886   6.458 -1.0554  2.3997 -1.2606
  260MOL0     H35049   9.493   9.097   6.590  0.5886  1.5158 -1.5216
  260MOL0     H35050   9.398   9.110   6.446 -0.6723 -0.8876 -0.1870
  260MOL0     H35051   9.537   9.015   6.220  1.0665  0.5878 -0.7595
  260MOL0     H35052   9.797   8.806   6.134 -1.7312  0.8004 -3.5694
  260MOL0     H35053   9.725   8.953   6.085 -1.1965 -2.8113 -0.5186
  260MOL0     H35054   9.983   8.938   6.232 -3.4376 -2.5852 -0.7300
  260MOL0     H35055   9.914   9.090   6.150 -1.5862  0.4686 -1.4768
  260MOL0     H35056   9.958   9.003   5.937 -0.2133  0.3660 -0.0283
  260MOL0     H35057  10.014   8.846   5.996 -0.7426 -0.0939 -0.4214
  260MOL0     H35058  10.158   9.082   6.094  1.1785  0.9095 -0.6085
  260MOL0     H35059  10.198   9.002   5.950 -0.7074  0.1218  0.7647
  260MOL0     H35060  10.387   8.679   6.124  0.0270 -0.4462 -1.2347
  260MOL0     H35061  10.561   8.551   6.262  1.0838 -2.5162 -1.1722
  260MOL0     H35062  10.660   8.592   6.120 -1.1220 -4.5931  0.8053
  260MOL0     H35063  10.713   8.612   6.279  0.3117 -1.8867 -1.2625
  260MOL0     H35064  11.026   8.770   6.104 -0.2226  2.7239 -1.4051
  260MOL0     H35065  11.273   8.751   6.152 -2.1197  2.0180 -0.7985
  260MOL0     H35066  11.480   8.684   6.260 -1.9448  1.8219 -2.8487
  260MOL0     H35067  11.462   8.855   6.233  1.9419 -0.1169  0.2497
  260MOL0     H35068  11.663   8.729   6.445  0.5506  1.9637  1.8566
  260MOL0     H35069  11.711   8.803   6.296  0.0940 -1.6464 -0.4083
  260MOL0     H35070  11.545   8.954   6.511  0.8270  1.7889  2.2913
  260MOL0     H35071  11.593   9.007   6.353 -1.5781 -0.8638  0.0849
  260MOL0     H35072  11.740   9.057   6.564  1.2602 -1.3184  1.0971
  260MOL0     H35073  11.834   8.913   6.516 -2.7000 -1.1114  3.0610
  260MOL0     H35074  11.789   9.155   6.342 -0.6580  0.4722  2.2040
  260MOL0     H35075  11.861   9.006   6.282 -1.8574  2.3943 -2.1634
  260MOL0     H35076  11.961   9.159   6.519 -0.0200 -0.0673  1.0632
  260MOL0     H35077  12.039   9.024   6.464 -1.9113 -1.0062  0.7135
  260MOL0     H35078  12.060   9.297   6.364 -0.4724  0.4918  1.9466
  260MOL0     H35079  12.056   9.178   6.221  2.6843 -0.2104 -0.1122
  260MOL0     H35080  12.287   9.239   6.303  1.0761 -0.4124  0.3755
  260MOL0     H35081  12.261   9.068   6.306 -0.7930 -0.9134  0.4622
  260MOL0     H35082  11.169   8.841   6.572  0.9240 -1.0566  1.0863
  260MOL0     H35083  10.961   8.860   6.513  0.4000  0.1931  0.2646
  260MOL0     H35084  10.595   9.100   6.282  2.2676 -0.3477  0.6529
  260MOL0     H35085  10.371   9.117   6.199  0.7389  0.3668  4.5199
  260MOL0     H35086   9.346   8.655   7.081  1.1999 -4.7697  0.8965
  260MOL0     H35087   9.448   8.581   7.298  0.0818 -1.7398  0.4465
  260MOL0     H35088   9.220   8.667   7.926  0.0416  0.5484 -1.7013
  260MOL0     H35089   9.328   8.568   8.112  1.4754  0.7085  0.0985
  260MOL0     H35090   9.583   8.229   8.224  2.1374 -1.6499 -0.4320
  260MOL0     H35091   9.573   8.198   8.051 -1.6658  2.1800 -2.4442
  260MOL0     H35092   9.763   8.387   8.194  1.7537 -1.2535  0.8107
  260MOL0     H35093   9.743   8.362   8.022 -2.4758  1.8478  1.0121
  260MOL0     H35094   9.932   8.225   8.064  0.2593 -1.4018 -0.0688
  260MOL0     H35095   9.802   8.118   8.036 -2.6366 -0.3883  1.0564
  260MOL0     H35096   9.770   8.079   8.280 -1.2853 -0.2965 -1.7231
  260MOL0     H35097   9.906   8.184   8.311  0.8060  0.5197 -0.2840
  260MOL0     H35098  10.075   7.814   8.194  1.0895  0.0886 -0.5072
  260MOL0     H35099   9.528   8.274   7.867 -1.2039 -0.1136 -0.0814
  260MOL0     H35100   9.421   8.380   7.670  2.7587 -2.1822  2.0481
  261MOL0     O35101   6.242   8.276   6.160 -0.3630 -0.3959 -0.2284
  261MOL0     C35102   6.167   8.311   6.253  0.4335  0.5147  0.7954
  261MOL0     O35103   6.091   8.427   6.252  0.1243  0.2979 -0.1552
  261MOL0     C35104   6.077   8.502   6.133 -0.4066 -0.3492 -1.6820
  261MOL0     C35105   6.101   8.466   6.000  0.1520 -0.1875 -0.0537
  261MOL0     C35106   6.070   8.559   5.906  0.9422 -0.1337 -0.2506
  261MOL0     C35107   6.005   8.678   5.926  0.5417  0.1163  0.1491
  261MOL0     O35108   5.957   8.756   5.819  0.3781  0.1538 -0.6340
  261MOL0     C35109   5.991   8.893   5.819  0.8427  0.0439 -0.6505
  261MOL0     C35110   6.150   8.908   5.801 -0.7154  1.0552 -0.1598
  261MOL0     C35111   6.187   8.857   5.662  0.5596 -0.6653  0.4823
  261MOL0     C35112   6.322   8.905   5.615 -1.1297 -0.1193  0.1783
  261MOL0     C35113   6.365   8.885   5.470  0.5593  0.1057  0.7079
  261MOL0     C35114   6.289   8.970   5.385 -0.8307 -0.6352  0.2096
  261MOL0     C35115   6.362   9.007   5.259  0.2652 -0.6030  0.8290
  261MOL0     C35116   6.290   9.106   5.163  0.0071 -0.3214 -0.2480
  261MOL0     N35117   6.355   9.124   5.038 -0.0078  0.3998  0.6573
  261MOL0     C35118   6.449   9.219   5.014 -0.4295 -0.3473 -0.1067
  261MOL0     C35119   6.469   9.218   4.882  0.5368 -0.0219 -0.3975
  261MOL0     C35120   6.522   9.327   4.801 -1.0345  0.2833 -0.4542
  261MOL0     C35121   6.659   9.301   4.744  0.9604 -0.2269  0.5076
  261MOL0     C35122   6.769   9.361   4.830  0.8737 -0.1974  0.6357
  261MOL0     C35123   6.902   9.347   4.759  0.6364  0.3194 -0.7720
  261MOL0     O35124   6.910   9.396   4.620  0.6512 -0.4916  0.3204
  261MOL0     C35125   6.879   9.524   4.569 -0.2274  0.3914 -0.1672
  261MOL0     C35126   6.888   9.644   4.636 -0.3442 -0.7168  0.3460
  261MOL0     C35127   6.855   9.763   4.570 -0.2392  0.1829  0.2257
  261MOL0     C35128   6.860   9.886   4.657 -0.0574 -0.4300 -0.3386
  261MOL0     C35129   6.830   9.761   4.432  0.3994  0.5652  0.1292
  261MOL0     C35130   6.822   9.880   4.338  0.0092 -0.2511 -0.4167
  261MOL0     O35131   6.837  10.005   4.385 -0.4760 -0.3726 -0.2148
  261MOL0     C35132   6.768  10.104   4.314 -0.0774 -0.1197 -0.6234
  261MOL0     C35133   6.829  10.167   4.214  0.3962 -1.2463  0.6483
  261MOL0     C35134   6.761  10.270   4.143 -0.1892 -0.0162  0.3622
  261MOL0     C35135   6.622  10.295   4.154  0.0910 -0.1196  0.3181
  261MOL0     O35136   6.537  10.368   4.069  0.1169  0.5203 -0.5884
  261MOL0     C35137   6.603  10.479   3.998 -0.3426 -0.4206 -0.1463
  261MOL0     C35138   6.515  10.565   3.912  0.3479  0.2236  0.0462
  261MOL0     C35139   6.453  10.674   3.985  0.1765  0.3928 -0.0181
  261MOL0     C35140   6.348  10.751   3.913  0.0407  0.8513 -0.0001
  261MOL0     C35141   6.238  10.797   4.001  0.4977 -0.0655 -0.1825
  261MOL0     C35142   6.127  10.691   4.009  0.2148  0.0158  0.1579
  261MOL0     C35143   6.024  10.711   4.119  0.1184  0.3618  0.0176
  261MOL0     C35144   5.922  10.596   4.120  0.9732 -0.1726  0.3848
  261MOL0    Cl35145   5.802  10.607   4.254 -0.0907  0.2175  0.0875
  261MOL0     C35146   6.570  10.227   4.265 -0.1225 -0.2572  0.5565
  261MOL0     C35147   6.639  10.138   4.347  0.3977  0.2170  0.4095
  261MOL0     O35148   6.779   9.859   4.228 -0.4613  1.4988 -0.2800
  261MOL0     C35149   6.830   9.641   4.359  0.1839 -0.0841 -0.1951
  261MOL0     C35150   6.851   9.519   4.438  0.9295 -1.0846  1.4836
  261MOL0     N35151   6.387   9.115   4.823 -0.9306  0.5139 -0.0556
  261MOL0     N35152   6.319   9.066   4.921  0.1761  1.5186  0.5452
  261MOL0     C35153   5.967   8.703   6.061 -0.1953  0.5659  0.2876
  261MOL0     C35154   6.004   8.621   6.162  0.0895 -0.3540 -0.5158
  261MOL0     C35155   6.159   8.218   6.372  0.4533  0.4423  0.5448
  261MOL0     C35156   6.064   8.233   6.474 -0.2737 -0.6374 -0.4607
  261MOL0     C35157   6.060   8.155   6.591  0.0357  1.1598  0.7994
  261MOL0     C35158   6.141   8.045   6.595 -0.4654  0.6462  0.5111
  261MOL0     O35159   6.132   7.947   6.694  0.2990 -0.5260  0.1354
  261MOL0     C35160   6.029   7.955   6.794  0.3250  0.0787  0.0944
  261MOL0     C35161   6.007   7.823   6.873  0.6678 -0.0923  0.2797
  261MOL0     C35162   5.879   7.794   6.956  0.7268 -0.9492  0.3313
  261MOL0     C35163   5.856   7.897   7.077  0.0394  0.2758 -0.4121
  261MOL0     C35164   5.914   7.861   7.203  0.0790  0.5806  0.2714
  261MOL0     C35165   5.934   7.823   7.318  0.4954 -0.0627  0.6556
  261MOL0     C35166   6.231   8.028   6.491 -0.2005 -0.1445 -0.6894
  261MOL0     C35167   6.248   8.113   6.388 -0.3441  0.7714 -0.2632
  261MOL0     H35168   6.138   8.368   5.973  2.4414 -0.0508  2.1439
  261MOL0     H35169   6.090   8.527   5.804 -2.5819  1.6160 -1.7126
  261MOL0     H35170   5.949   8.948   5.734  2.0145  1.3273 -0.4352
  261MOL0     H35171   5.946   8.929   5.912 -2.3910 -2.5317 -1.0499
  261MOL0     H35172   6.186   9.010   5.820  2.2137  0.5525 -2.3001
  261MOL0     H35173   6.195   8.847   5.880  2.0834  0.7929 -1.8207
  261MOL0     H35174   6.193   8.749   5.678  3.4191 -1.4586 -4.2382
  261MOL0     H35175   6.116   8.895   5.588  2.3887  1.4089 -0.3274
  261MOL0     H35176   6.328   9.010   5.643 -0.0655 -0.2297  0.4078
  261MOL0     H35177   6.385   8.837   5.674 -1.4252 -1.8645 -1.4085
  261MOL0     H35178   6.469   8.911   5.450  0.0027  1.2523 -0.9103
  261MOL0     H35179   6.341   8.785   5.431  0.6615  0.4814 -0.3495
  261MOL0     H35180   6.194   8.935   5.344 -1.4340  1.0604  0.0724
  261MOL0     H35181   6.274   9.065   5.437  0.3562 -0.5362  0.4059
  261MOL0     H35182   6.467   9.034   5.271  0.0013 -0.4115  3.1174
  261MOL0     H35183   6.361   8.912   5.205 -1.2738 -1.4417  2.2405
  261MOL0     H35184   6.282   9.193   5.229 -1.9901 -0.6953  0.0684
  261MOL0     H35185   6.188   9.070   5.148  0.9054 -2.0050 -3.0914
  261MOL0     H35186   6.484   9.280   5.097  1.7196 -2.9570  1.0975
  261MOL0     H35187   6.456   9.343   4.715  0.5294 -0.4431 -1.8492
  261MOL0     H35188   6.520   9.414   4.868 -1.6257 -0.0917  0.0199
  261MOL0     H35189   6.666   9.347   4.645  1.4786  0.7651  0.9987
  261MOL0     H35190   6.671   9.193   4.728 -2.2455 -0.7708  1.0987
  261MOL0     H35191   6.777   9.298   4.919  0.8121 -0.6927  0.2969
  261MOL0     H35192   6.751   9.466   4.853  5.3224  1.1584 -0.9987
  261MOL0     H35193   6.945   9.247   4.765  3.3232  1.2870 -2.1107
  261MOL0     H35194   6.972   9.414   4.809  1.1829 -0.8503  0.0657
  261MOL0     H35195   6.903   9.647   4.743 -0.5428 -0.4079  0.3657
  261MOL0     H35196   6.761   9.932   4.668  1.9005  3.9649  0.9824
  261MOL0     H35197   6.887   9.863   4.761 -0.3111 -0.2418 -0.2304
  261MOL0     H35198   6.940   9.954   4.627  1.7666 -2.2707  0.1055
  261MOL0     H35199   6.931  10.149   4.181 -0.2091  1.0783 -3.0585
  261MOL0     H35200   6.819  10.318   4.065  0.8876 -0.5437  0.8131
  261MOL0     H35201   6.664  10.525   4.077  0.9629 -1.5848 -0.4297
  261MOL0     H35202   6.678  10.444   3.926  1.2558  3.5835 -0.7432
  261MOL0     H35203   6.573  10.604   3.829  0.7155 -1.7616 -0.6701
  261MOL0     H35204   6.437  10.501   3.869  0.1859  1.1142 -1.0240
  261MOL0     H35205   6.543  10.730   4.014  1.2251 -1.5367  0.5835
  261MOL0     H35206   6.406  10.640   4.078 -1.2302 -1.1664 -1.2331
  261MOL0     H35207   6.396  10.844   3.885 -0.8227  0.9494 -1.2598
  261MOL0     H35208   6.297  10.698   3.832 -0.3268  0.6003  0.3865
  261MOL0     H35209   6.201  10.889   3.955 -1.1878  0.2786  1.7410
  261MOL0     H35210   6.277  10.830   4.098 -1.5951 -1.6648  1.2794
  261MOL0     H35211   6.068  10.680   3.918  1.2411 -0.5836 -0.4568
  261MOL0     H35212   6.166  10.591   4.031 -3.0753 -1.5905 -0.6207
  261MOL0     H35213   5.980  10.811   4.110  1.9368  1.4717  2.4671
  261MOL0     H35214   6.072  10.709   4.217 -0.3930  0.2967  0.2688
  261MOL0     H35215   5.974  10.501   4.128  3.2728  0.5137 -3.7945
  261MOL0     H35216   5.872  10.590   4.023 -0.0244 -1.3942  0.9449
  261MOL0     H35217   6.465  10.227   4.291 -0.0717 -0.4639  0.7689
  261MOL0     H35218   6.581  10.074   4.413 -2.0926  0.4331 -1.4055
  261MOL0     H35219   6.819   9.626   4.252 -0.0412 -1.0362 -0.0480
  261MOL0     H35220   6.845   9.433   4.371  0.3780  0.1632 -0.1396
  261MOL0     H35221   5.902   8.783   6.094  0.5919 -0.2078  4.1153
  261MOL0     H35222   5.956   8.638   6.258  0.1036  2.7325 -0.9770
  261MOL0     H35223   6.005   8.324   6.463 -1.2671 -1.1014  0.7625
  261MOL0     H35224   5.976   8.178   6.655 -0.4510  0.8099  0.3000
  261MOL0     H35225   6.041   8.046   6.854 -1.4215 -0.6038  1.5888
  261MOL0     H35226   5.940   7.971   6.732  2.6447  1.6830 -3.0624
  261MOL0     H35227   6.090   7.823   6.945  1.5748  1.0868 -0.7034
  261MOL0     H35228   6.006   7.741   6.800 -0.5867  0.0974  0.0590
  261MOL0     H35229   5.888   7.695   7.001  2.9349 -1.3695 -0.8778
  261MOL0     H35230   5.787   7.794   6.897 -0.1560  0.0635  1.6309
  261MOL0     H35231   5.748   7.912   7.078  0.3189  2.9043 -2.2413
  261MOL0     H35232   5.900   7.995   7.056  3.1225 -0.9075 -0.0505
  261MOL0     H35233   5.954   7.789   7.417  1.8258 -0.6942  0.1902
  261MOL0     H35234   6.277   7.930   6.495 -3.3164 -1.7440 -1.1263
  261MOL0     H35235   6.312   8.092   6.303 -1.1980 -1.3517 -0.4586
  262MOL0     O35236   1.459   3.579   6.818  0.7301 -0.2092 -0.3040
  262MOL0     C35237   1.347   3.544   6.864 -0.4743 -0.1567 -0.0539
  262MOL0     O35238   1.281   3.606   6.965 -0.6926 -0.4146 -0.0862
  262MOL0     C35239   1.352   3.699   7.037  0.1569 -0.0224 -0.8203
  262MOL0     C35240   1.451   3.668   7.129 -0.0797  0.5652  0.1430
  262MOL0     C35241   1.528   3.763   7.204  0.6224  0.3295 -0.2686
  262MOL0     C35242   1.508   3.898   7.168 -0.8614  0.0866  0.1300
  262MOL0     O35243   1.550   4.011   7.238 -0.4443  0.1568 -0.1542
  262MOL0     C35244   1.668   4.007   7.325 -0.5278  0.6233 -0.3422
  262MOL0     C35245   1.691   4.140   7.394 -0.3549 -0.6934  0.0302
  262MOL0     C35246   1.822   4.152   7.484  0.4396  0.0898  0.4525
  262MOL0     C35247   1.798   4.228   7.608  0.2499 -0.6913 -0.0263
  262MOL0     C35248   1.923   4.239   7.698  0.6595  0.9347  0.6105
  262MOL0     C35249   1.914   4.327   7.832  0.0670  1.3971 -1.0739
  262MOL0     C35250   1.828   4.460   7.835 -0.3696  0.2875 -0.8450
  262MOL0     C35251   1.867   4.559   7.736 -0.1713 -1.3136 -0.5270
  262MOL0     N35252   1.752   4.652   7.724 -0.4093  0.3088  0.6224
  262MOL0     C35253   1.716   4.747   7.809  0.2283  0.2114 -0.4339
  262MOL0     C35254   1.596   4.802   7.760 -0.3939  0.7297 -0.4394
  262MOL0     C35255   1.515   4.922   7.809 -0.9695  0.2361 -0.1043
  262MOL0     C35256   1.365   4.915   7.768 -0.4547 -0.5348 -0.4106
  262MOL0     C35257   1.338   4.974   7.625 -0.2554  0.2229  0.4748
  262MOL0     C35258   1.211   4.907   7.567 -0.0602 -0.6536  0.0410
  262MOL0     O35259   1.091   4.942   7.636 -0.5083  0.4287  0.6241
  262MOL0     C35260   0.983   4.867   7.620  0.5142  0.3235 -0.2796
  262MOL0     C35261   0.962   4.749   7.549 -0.3167  0.4140  0.3366
  262MOL0     C35262   0.828   4.688   7.531  0.4781 -0.0573 -0.0521
  262MOL0     C35263   0.824   4.563   7.435  0.1911  0.0360 -1.0750
  262MOL0     C35264   0.722   4.743   7.606  0.2518 -0.3260 -0.3542
  262MOL0     C35265   0.578   4.706   7.593 -1.1877  0.4809  0.2492
  262MOL0     O35266   0.487   4.803   7.622  1.0452  0.0211  0.4083
  262MOL0     C35267   0.351   4.769   7.656 -0.0745  1.1843  1.0691
  262MOL0     C35268   0.244   4.846   7.609  1.3850  0.1971  0.1775
  262MOL0     C35269   0.110   4.803   7.618  0.7269  0.0562  0.4805
  262MOL0     C35270   0.079   4.683   7.677 -0.8429  0.5903  0.2370
  262MOL0     O35271  -0.054   4.643   7.681  0.3520  0.3343 -0.4603
  262MOL0     C35272  -0.118   4.649   7.807  0.0393 -0.7868  0.0655
  262MOL0     C35273  -0.252   4.599   7.794 -0.6956  0.1086  0.3282
  262MOL0     C35274  -0.338   4.676   7.689 -0.2875  0.3196  0.4433
  262MOL0     C35275  -0.310   4.826   7.686 -0.1817 -0.1371  0.1594
  262MOL0     C35276  -0.426   4.926   7.664  0.3010  1.1466  0.3618
  262MOL0     C35277  -0.425   5.066   7.712 -0.7614 -0.1127 -0.3095
  262MOL0     C35278  -0.527   5.184   7.670  0.1755  0.8729  0.2470
  262MOL0     C35279  -0.670   5.147   7.691 -0.0404 -0.8067  0.1508
  262MOL0    Cl35280  -0.703   5.115   7.861 -0.3221  0.1352 -0.3558
  262MOL0     C35281   0.184   4.606   7.733  0.2898  0.2873  0.4886
  262MOL0     C35282   0.317   4.651   7.723 -0.1626  0.6938  0.7398
  262MOL0     O35283   0.550   4.588   7.561  0.0250 -0.0982 -0.0063
  262MOL0     C35284   0.745   4.860   7.684  0.1612  0.4876 -0.5675
  262MOL0     C35285   0.878   4.919   7.689  1.1154 -0.0270 -0.1736
  262MOL0     N35286   1.564   4.722   7.652  0.8608  0.7604 -0.1363
  262MOL0     N35287   1.667   4.647   7.625  1.0913  0.1337 -0.3893
  262MOL0     C35288   1.415   3.931   7.069 -0.7004  0.8980  1.1447
  262MOL0     C35289   1.336   3.833   7.011  0.1703  0.1526  0.0492
  262MOL0     C35290   1.281   3.409   6.796 -0.6455 -0.8655  0.4622
  262MOL0     C35291   1.363   3.340   6.704  0.5338 -0.0564 -0.1169
  262MOL0     C35292   1.329   3.212   6.667  1.6403  0.1200  0.1217
  262MOL0     C35293   1.207   3.158   6.716 -0.6998 -0.6012 -0.0731
  262MOL0     O35294   1.180   3.029   6.680 -0.3575  0.0862  0.4699
  262MOL0     C35295   1.054   2.964   6.700 -0.2241  0.0860  0.3718
  262MOL0     C35296   1.038   2.868   6.583  0.7547  0.3951  0.8421
  262MOL0     C35297   0.895   2.813   6.573  0.4524  0.2492 -0.7318
  262MOL0     C35298   0.880   2.707   6.465 -0.4251 -0.8877 -0.1749
  262MOL0     C35299   0.734   2.687   6.440 -0.0762  0.5986 -0.1611
  262MOL0     C35300   0.616   2.688   6.409  1.1226 -0.3436 -0.0577
  262MOL0     C35301   1.126   3.237   6.805  0.5828 -0.1024  0.1049
  262MOL0     C35302   1.165   3.357   6.848 -0.2597 -0.8169  0.0519
  262MOL0     H35303   1.465   3.564   7.156  0.3555  0.7571  0.6755
  262MOL0     H35304   1.594   3.721   7.280 -2.2016  2.1087  3.5426
  262MOL0     H35305   1.652   3.929   7.401  0.9902 -0.1175 -0.7439
  262MOL0     H35306   1.756   3.982   7.265  0.0573  2.8569 -0.4776
  262MOL0     H35307   1.700   4.219   7.319 -4.4209  0.2151  0.2529
  262MOL0     H35308   1.603   4.160   7.456  0.5625  3.3886  0.3178
  262MOL0     H35309   1.853   4.050   7.506 -0.3186  0.0024  1.1705
  262MOL0     H35310   1.900   4.204   7.427 -1.7042  4.3004  0.9571
  262MOL0     H35311   1.765   4.327   7.574  0.1610 -0.7828 -0.2100
  262MOL0     H35312   1.709   4.183   7.654 -0.7045  0.6818 -0.4653
  262MOL0     H35313   1.957   4.139   7.727  0.2631  0.0052 -1.9027
  262MOL0     H35314   1.997   4.281   7.629 -0.1520  0.5581 -0.5038
  262MOL0     H35315   1.874   4.267   7.914  0.2697 -0.7022 -2.4506
  262MOL0     H35316   2.018   4.351   7.857  0.5333 -2.6765  1.7899
  262MOL0     H35317   1.725   4.434   7.811 -0.2031 -0.7822 -0.4381
  262MOL0     H35318   1.843   4.502   7.935  3.0894 -0.2731 -1.0175
  262MOL0     H35319   1.880   4.508   7.640 -2.2147 -4.0733  0.5333
  262MOL0     H35320   1.965   4.596   7.767 -0.0807 -2.1853  0.2662
  262MOL0     H35321   1.778   4.783   7.891 -3.9386  4.7140  1.2349
  262MOL0     H35322   1.514   4.923   7.919 -1.2572  0.9555 -0.1076
  262MOL0     H35323   1.560   5.016   7.777  2.7848 -0.8047  1.5322
  262MOL0     H35324   1.299   4.958   7.844 -3.1617 -0.6644 -2.5478
  262MOL0     H35325   1.332   4.810   7.763 -0.2842 -0.5326 -2.9093
  262MOL0     H35326   1.424   4.952   7.561 -0.2111 -3.1287  1.4830
  262MOL0     H35327   1.323   5.083   7.618 -0.7534  0.0518 -1.5651
  262MOL0     H35328   1.233   4.800   7.569 -1.5908 -0.9958  1.0454
  262MOL0     H35329   1.204   4.946   7.465  2.8283  0.5247  0.2143
  262MOL0     H35330   1.044   4.695   7.503 -0.2751  2.3796 -2.1155
  262MOL0     H35331   0.918   4.566   7.379 -0.5967  3.0607 -2.4266
  262MOL0     H35332   0.823   4.473   7.498 -0.2029  2.2866  2.4312
  262MOL0     H35333   0.740   4.580   7.367 -0.4320 -0.1950 -0.3762
  262MOL0     H35334   0.255   4.933   7.545 -1.0329 -0.0648 -0.6859
  262MOL0     H35335   0.035   4.870   7.578  0.7779  0.2671  0.7313
  262MOL0     H35336  -0.064   4.588   7.880  3.7771  2.6897  0.5651
  262MOL0     H35337  -0.114   4.754   7.839 -1.8534 -0.0718 -1.8404
  262MOL0     H35338  -0.251   4.492   7.772 -5.1312 -0.5214  2.1036
  262MOL0     H35339  -0.306   4.603   7.889 -0.0901 -0.0743  0.6788
  262MOL0     H35340  -0.441   4.643   7.698 -0.4058  0.3444 -0.6472
  262MOL0     H35341  -0.314   4.630   7.593 -0.6353 -1.1544  1.0405
  262MOL0     H35342  -0.272   4.855   7.784 -1.1205 -2.7092  1.3629
  262MOL0     H35343  -0.229   4.848   7.616 -2.0302 -0.1224 -2.1001
  262MOL0     H35344  -0.519   4.876   7.692  0.1862 -0.0750 -1.9372
  262MOL0     H35345  -0.447   4.923   7.557 -2.2382 -1.7044  0.7954
  262MOL0     H35346  -0.431   5.058   7.821 -0.8340  0.6399 -0.2552
  262MOL0     H35347  -0.324   5.105   7.697 -1.6371  0.8820 -4.8051
  262MOL0     H35348  -0.514   5.210   7.564 -1.1575 -3.0917 -1.0558
  262MOL0     H35349  -0.500   5.265   7.739  1.1708 -0.2010  1.1656
  262MOL0     H35350  -0.673   5.059   7.626  1.1784  0.2239 -1.3668
  262MOL0     H35351  -0.731   5.235   7.668 -2.3260 -2.4301 -0.2230
  262MOL0     H35352   0.157   4.519   7.791 -1.1958 -0.7401 -1.6003
  262MOL0     H35353   0.406   4.602   7.761 -0.2098  0.3933  0.4584
  262MOL0     H35354   0.666   4.912   7.737 -0.9612  1.2646 -2.8641
  262MOL0     H35355   0.886   5.016   7.736 -2.1643 -1.0433  3.0221
  262MOL0     H35356   1.417   4.030   7.025 -0.1898  0.2226 -0.4482
  262MOL0     H35357   1.262   3.868   6.940  0.0353  0.5626  0.3864
  262MOL0     H35358   1.445   3.397   6.662  4.2849 -1.9603  3.8665
  262MOL0     H35359   1.383   3.149   6.598 -2.6246  0.3674 -3.9319
  262MOL0     H35360   1.069   2.915   6.797  1.1735  0.2945  0.2828
  262MOL0     H35361   0.965   3.028   6.706  0.9894  1.7952  0.7984
  262MOL0     H35362   1.116   2.792   6.590  2.0679  1.7448  1.5116
  262MOL0     H35363   1.053   2.920   6.488 -1.2682  0.1861  0.3573
  262MOL0     H35364   0.826   2.897   6.559 -0.2421  0.5936  3.4802
  262MOL0     H35365   0.871   2.775   6.672  3.7650  3.4940  1.5691
  262MOL0     H35366   0.916   2.610   6.502 -3.0115 -1.1198  2.0075
  262MOL0     H35367   0.928   2.738   6.372  2.1776 -0.8026  1.0995
  262MOL0     H35368   0.513   2.675   6.383  0.2067  1.7025  2.1366
  262MOL0     H35369   1.036   3.192   6.845  2.7109 -1.0137  4.6670
  262MOL0     H35370   1.111   3.409   6.927  3.9928  0.6569  2.3575
  263MOL0     O35371   0.406   2.471   7.269  0.7075  0.3702  0.1227
  263MOL0     C35372   0.436   2.359   7.234  1.0817  0.6374  0.5521
  263MOL0     O35373   0.352   2.271   7.185 -0.1764 -0.8610 -0.4859
  263MOL0     C35374   0.216   2.300   7.180 -0.0644  0.1190 -0.0113
  263MOL0     C35375   0.159   2.295   7.058  0.6915 -1.0586  0.3362
  263MOL0     C35376   0.028   2.335   7.047  0.3372  0.5772 -0.6256
  263MOL0     C35377  -0.051   2.350   7.166  0.7514 -0.4989  0.6000
  263MOL0     O35378  -0.177   2.377   7.137 -0.0540 -0.2472  0.0775
  263MOL0     C35379  -0.274   2.372   7.238 -0.0813 -0.5061  0.0821
  263MOL0     C35380  -0.402   2.451   7.183  0.0554  0.4637 -0.1404
  263MOL0     C35381  -0.475   2.364   7.080 -0.7349 -0.0613 -0.4071
  263MOL0     C35382  -0.586   2.436   7.014  0.0535 -0.5161  0.0454
  263MOL0     C35383  -0.652   2.371   6.894  0.1540  0.6674 -0.8037
  263MOL0     C35384  -0.722   2.243   6.932  0.0594  0.6589  0.3579
  263MOL0     C35385  -0.802   2.189   6.817  0.7643 -0.0744 -0.2998
  263MOL0     C35386  -0.902   2.078   6.859  0.7787  0.3080  0.1601
  263MOL0     N35387  -0.833   1.948   6.879  0.2474 -0.2280 -1.0973
  263MOL0     C35388  -0.767   1.918   6.994  0.5166  0.2360 -0.1054
  263MOL0     C35389  -0.744   1.784   6.980 -0.3988 -0.4321 -0.1331
  263MOL0     C35390  -0.698   1.688   7.087  0.1191  0.6034  0.0854
  263MOL0     C35391  -0.805   1.646   7.187  0.4126 -0.0114 -0.2147
  263MOL0     C35392  -0.748   1.585   7.317  0.5531 -0.7098  0.4938
  263MOL0     C35393  -0.856   1.540   7.415  0.3094 -0.2591 -1.0096
  263MOL0     O35394  -0.939   1.648   7.459 -0.0149  0.0467  0.3602
  263MOL0     C35395  -1.063   1.623   7.513 -0.4678 -0.2303  0.2497
  263MOL0     C35396  -1.082   1.533   7.622  0.4582 -0.1822 -0.0933
  263MOL0     C35397  -1.211   1.533   7.691 -0.1026  0.4771 -0.4933
  263MOL0     C35398  -1.209   1.467   7.825 -0.1464 -0.4442 -0.3592
  263MOL0     C35399  -1.314   1.629   7.652  0.8234 -0.2609 -0.3090
  263MOL0     C35400  -1.449   1.637   7.723 -0.4368 -0.4531  0.3167
  263MOL0     O35401  -1.464   1.562   7.831  0.5299  0.0956 -0.2332
  263MOL0     C35402  -1.541   1.629   7.928 -0.2177  0.6689 -0.0246
  263MOL0     C35403  -1.487   1.742   7.991  0.6022  0.3381  0.2092
  263MOL0     C35404  -1.564   1.817   8.074 -0.1759 -0.0487 -1.1996
  263MOL0     C35405  -1.706   1.792   8.082 -0.2023  0.7045 -0.4460
  263MOL0     O35406  -1.782   1.876   8.159  0.1925  0.7475  0.3871
  263MOL0     C35407  -1.924   1.851   8.180  0.7105  0.0106 -0.5733
  263MOL0     C35408  -1.977   1.941   8.300 -0.3238 -0.0673 -0.0447
  263MOL0     C35409  -2.033   2.071   8.256  0.4688  0.2940  0.9804
  263MOL0     C35410  -2.085   2.163   8.373 -0.8936  0.3088  0.0710
  263MOL0     C35411  -2.236   2.160   8.375 -0.1270 -0.4449 -0.0826
  263MOL0     C35412  -2.303   2.233   8.256 -0.0893 -0.1047 -0.6681
  263MOL0     C35413  -2.450   2.211   8.235 -0.4364  0.6494  0.5178
  263MOL0     C35414  -2.543   2.287   8.332  0.2742  0.3603  0.5129
  263MOL0    Cl35415  -2.545   2.446   8.248 -0.0177 -0.0789 -0.1272
  263MOL0     C35416  -1.760   1.678   8.016  0.0082 -0.3200  0.2774
  263MOL0     C35417  -1.683   1.593   7.936 -0.3844 -0.0137  0.3404
  263MOL0     O35418  -1.525   1.730   7.686 -0.3035  0.2946 -0.2367
  263MOL0     C35419  -1.295   1.700   7.536  0.3401 -0.0409  1.0478
  263MOL0     C35420  -1.171   1.697   7.467  0.3902 -0.1991 -0.6930
  263MOL0     N35421  -0.774   1.752   6.846  0.2621  0.0970  0.1620
  263MOL0     N35422  -0.835   1.851   6.789  0.6073  0.1572 -0.1150
  263MOL0     C35423   0.002   2.344   7.289 -0.4347 -0.8470 -0.0299
  263MOL0     C35424   0.142   2.330   7.290 -0.3354 -0.6863 -0.2444
  263MOL0     C35425   0.576   2.312   7.252  0.6373 -0.9524 -0.3177
  263MOL0     C35426   0.678   2.401   7.284  0.6035  0.7586 -0.4237
  263MOL0     C35427   0.811   2.368   7.292  0.1169  0.3967 -0.4981
  263MOL0     C35428   0.850   2.227   7.275  0.3977 -0.1061 -0.2503
  263MOL0     O35429   0.966   2.163   7.304 -0.2628  0.8059  0.3614
  263MOL0     C35430   1.063   2.229   7.392  0.5298  0.0945 -0.0930
  263MOL0     C35431   1.164   2.126   7.438  0.0347 -0.1154  0.8198
  263MOL0     C35432   1.306   2.160   7.495 -1.0529 -0.6174  0.2307
  263MOL0     C35433   1.303   2.279   7.591 -0.6317 -0.0126 -0.2423
  263MOL0     C35434   1.306   2.412   7.527 -1.2396  0.3276 -1.5205
  263MOL0     C35435   1.350   2.505   7.474 -1.0354 -0.2177 -0.1618
  263MOL0     C35436   0.745   2.138   7.253  0.6287 -0.2448  0.0577
  263MOL0     C35437   0.614   2.176   7.239  0.5708 -0.7706 -0.4299
  263MOL0     H35438   0.215   2.290   6.965  0.4572 -0.2097  0.1393
  263MOL0     H35439  -0.012   2.329   6.947  1.5892 -2.7493 -1.0364
  263MOL0     H35440  -0.304   2.275   7.281 -2.3716  1.1305  2.5228
  263MOL0     H35441  -0.242   2.432   7.323  1.1962  1.6453 -1.8207
  263MOL0     H35442  -0.479   2.473   7.257  0.4166 -0.2425  0.4532
  263MOL0     H35443  -0.371   2.549   7.146  0.5842  0.2746 -0.2114
  263MOL0     H35444  -0.403   2.335   7.003 -0.6804 -2.0178  0.3347
  263MOL0     H35445  -0.513   2.276   7.132  0.9584 -0.2860  0.5353
  263MOL0     H35446  -0.651   2.449   7.100 -0.7522 -0.4763 -0.5535
  263MOL0     H35447  -0.556   2.538   6.991  0.1560  0.7086  4.6839
  263MOL0     H35448  -0.718   2.447   6.852 -0.1149  0.1707 -1.2886
  263MOL0     H35449  -0.571   2.342   6.827  0.7099 -2.1261  0.9309
  263MOL0     H35450  -0.645   2.170   6.956 -1.5209 -1.2319 -0.0653
  263MOL0     H35451  -0.784   2.260   7.021  1.6526  1.0143  1.4420
  263MOL0     H35452  -0.855   2.276   6.778  2.1570  2.3268  2.6586
  263MOL0     H35453  -0.743   2.155   6.732 -0.8094 -0.5793 -1.2156
  263MOL0     H35454  -0.972   2.065   6.775  2.7180 -2.8091 -1.1643
  263MOL0     H35455  -0.951   2.107   6.952  3.3970  2.2524  1.0618
  263MOL0     H35456  -0.737   1.979   7.079  1.1467 -0.9878  0.5769
  263MOL0     H35457  -0.674   1.603   7.023 -0.5674 -0.6945  1.4767
  263MOL0     H35458  -0.610   1.729   7.138 -0.0241 -0.2199  1.0107
  263MOL0     H35459  -0.864   1.566   7.140  1.7970 -0.6491 -0.9303
  263MOL0     H35460  -0.875   1.729   7.199 -0.5073 -0.8839  0.7091
  263MOL0     H35461  -0.680   1.659   7.360 -1.4755  1.2457  0.4963
  263MOL0     H35462  -0.688   1.497   7.292  1.4863 -0.7113  2.5352
  263MOL0     H35463  -0.803   1.503   7.504  2.4352  2.9515 -0.7744
  263MOL0     H35464  -0.911   1.450   7.384 -1.8007 -0.9739  3.8792
  263MOL0     H35465  -1.001   1.488   7.679  1.4047 -0.3753 -1.5448
  263MOL0     H35466  -1.289   1.392   7.827 -2.1050  1.4966  1.8009
  263MOL0     H35467  -1.117   1.415   7.853 -0.1962  1.1184  3.1730
  263MOL0     H35468  -1.219   1.545   7.901  1.0244  1.6785 -2.2857
  263MOL0     H35469  -1.388   1.769   7.954  0.5329  1.2108  0.6321
  263MOL0     H35470  -1.531   1.911   8.118 -1.3058  1.0925 -2.6648
  263MOL0     H35471  -1.980   1.846   8.086 -1.1774 -0.5220  0.5234
  263MOL0     H35472  -1.937   1.754   8.230  1.9214  0.1614  0.0627
  263MOL0     H35473  -2.053   1.883   8.353 -3.0334 -0.8290 -4.2704
  263MOL0     H35474  -1.890   1.949   8.366  2.9837 -1.1163 -3.8358
  263MOL0     H35475  -2.102   2.050   8.174  1.5327  3.8066 -1.0418
  263MOL0     H35476  -1.952   2.133   8.217  1.6005 -0.0829  2.6604
  263MOL0     H35477  -2.050   2.129   8.471  0.2624 -0.3691 -0.5574
  263MOL0     H35478  -2.034   2.259   8.364  1.2690 -0.6684  1.1841
  263MOL0     H35479  -2.280   2.208   8.463 -6.1797 -0.4385 -2.6519
  263MOL0     H35480  -2.254   2.053   8.390 -0.9641 -0.2482  0.4264
  263MOL0     H35481  -2.284   2.338   8.283 -2.1099  0.0368  0.4375
  263MOL0     H35482  -2.261   2.192   8.164 -2.5042 -1.8754 -1.0729
  263MOL0     H35483  -2.457   2.103   8.227 -0.7814  0.7629 -0.8730
  263MOL0     H35484  -2.464   2.242   8.131  4.2679  1.7497 -0.0427
  263MOL0     H35485  -2.517   2.280   8.438 -1.1864  0.7494  0.9161
  263MOL0     H35486  -2.646   2.254   8.316  0.1104  1.5980 -1.2995
  263MOL0     H35487  -1.865   1.651   8.026  0.5329 -1.7274  3.0206
  263MOL0     H35488  -1.712   1.509   7.875  2.2721 -2.0846  1.6916
  263MOL0     H35489  -1.377   1.768   7.513  0.7041  1.8090  4.4494
  263MOL0     H35490  -1.142   1.744   7.373  2.9062 -0.0118  0.1009
  263MOL0     H35491  -0.053   2.380   7.375  1.7301  2.2067  0.2491
  263MOL0     H35492   0.211   2.347   7.372  2.4540  0.7482 -2.6860
  263MOL0     H35493   0.658   2.507   7.302  0.0002  0.4755  0.6514
  263MOL0     H35494   0.879   2.445   7.327  2.8170 -1.5670 -1.0884
  263MOL0     H35495   1.108   2.312   7.335 -1.6144  2.8196  1.8954
  263MOL0     H35496   1.011   2.274   7.476  3.6489  2.7129  0.6579
  263MOL0     H35497   1.175   2.057   7.354 -1.2912 -0.2297  0.7072
  263MOL0     H35498   1.103   2.072   7.511 -0.4478 -1.8608 -0.7968
  263MOL0     H35499   1.370   2.184   7.410  0.0155 -2.0360  0.5948
  263MOL0     H35500   1.342   2.066   7.540 -1.8503 -1.9219 -1.7372
  263MOL0     H35501   1.391   2.283   7.656 -0.2257  1.2777 -0.8307
  263MOL0     H35502   1.212   2.265   7.649 -2.8256  1.5471 -3.0579
  263MOL0     H35503   1.388   2.599   7.440 -0.7646 -0.5558 -0.8129
  263MOL0     H35504   0.761   2.032   7.238 -3.8524 -1.1281 -0.0508
  263MOL0     H35505   0.540   2.098   7.228 -0.5992 -0.0596  1.8282
  264MOL0     O35506  11.315   3.268   0.841 -0.1036  0.3922 -0.4964
  264MOL0     C35507  11.272   3.158   0.804  0.0484  0.0395 -0.2890
  264MOL0     O35508  11.338   3.062   0.740  0.0149 -0.1855  0.7619
  264MOL0     C35509  11.465   3.085   0.718 -0.7741 -0.2004  0.9431
  264MOL0     C35510  11.515   3.158   0.608 -0.5784  0.3034  0.1716
  264MOL0     C35511  11.656   3.193   0.601  0.0434  0.0744 -0.0836
  264MOL0     C35512  11.742   3.159   0.703 -1.2178  0.4862 -0.1320
  264MOL0     O35513  11.877   3.192   0.706 -0.3910 -0.1480  0.1528
  264MOL0     C35514  11.941   3.276   0.609 -0.1517 -0.8803 -0.6234
  264MOL0     C35515  12.091   3.272   0.659  0.6315 -0.2369  0.0850
  264MOL0     C35516  12.184   3.371   0.577  0.1282  0.6889  0.4265
  264MOL0     C35517  12.201   3.333   0.429  0.1577  0.2568  0.7127
  264MOL0     C35518  12.299   3.418   0.349 -0.9822 -0.6964  0.2688
  264MOL0     C35519  12.445   3.368   0.350  0.2792  0.6361  0.2894
  264MOL0     C35520  12.457   3.220   0.317  0.3220  0.2757 -1.1296
  264MOL0     C35521  12.601   3.162   0.283  0.4045 -0.1742  0.2090
  264MOL0     N35522  12.702   3.178   0.389  0.4242  0.0779 -0.4006
  264MOL0     C35523  12.797   3.277   0.386 -0.8815 -0.2829 -0.4165
  264MOL0     C35524  12.871   3.242   0.498 -0.0744 -0.1515 -0.3510
  264MOL0     C35525  12.995   3.320   0.542  0.5417  0.3300 -0.3891
  264MOL0     C35526  13.111   3.270   0.465  1.0733  0.3218 -0.2562
  264MOL0     C35527  13.144   3.119   0.477  0.0741  0.0991 -0.8649
  264MOL0     C35528  13.174   3.066   0.621 -0.8935 -0.0397  0.1830
  264MOL0     O35529  13.245   2.946   0.613 -0.3845 -0.0059  0.4889
  264MOL0     C35530  13.379   2.960   0.572  0.5051 -0.3398 -0.5170
  264MOL0     C35531  13.463   3.072   0.557  0.3898 -0.1662 -0.0884
  264MOL0     C35532  13.592   3.055   0.503 -0.1010  0.1581 -0.4905
  264MOL0     C35533  13.688   3.176   0.507  1.4839  0.1761  0.2930
  264MOL0     C35534  13.636   2.929   0.448 -0.2775  0.4262  0.2381
  264MOL0     C35535  13.770   2.899   0.386  0.0799  0.4634  0.2553
  264MOL0     O35536  13.862   2.996   0.374  0.7500 -0.6348 -0.1027
  264MOL0     C35537  13.995   2.980   0.344 -0.1835  0.0051 -0.6343
  264MOL0     C35538  14.047   3.014   0.220  0.3653  0.5474  0.2109
  264MOL0     C35539  14.176   2.978   0.184 -0.1197 -0.1349 -0.0577
  264MOL0     C35540  14.257   2.939   0.292 -0.6624 -1.3565  0.0156
  264MOL0     O35541  14.390   2.915   0.265 -0.1974 -0.0366 -0.1652
  264MOL0     C35542  14.477   3.022   0.233 -0.1514  0.1927 -0.6635
  264MOL0     C35543  14.530   3.078   0.360  0.7878 -0.9789  0.3264
  264MOL0     C35544  14.644   3.190   0.350 -0.5662 -0.3286  0.9133
  264MOL0     C35545  14.577   3.321   0.302  0.3154 -0.3765  0.4908
  264MOL0     C35546  14.690   3.428   0.301  0.1687 -0.2273  0.0246
  264MOL0     C35547  14.816   3.399   0.212  0.3199 -0.4589 -0.0363
  264MOL0     C35548  14.789   3.418   0.064 -0.4381  0.5887  0.3379
  264MOL0     C35549  14.749   3.293  -0.004 -0.1980  0.2762 -0.1615
  264MOL0    Cl35550  14.906   3.203  -0.012 -0.3124  0.7020  0.0578
  264MOL0     C35551  14.210   2.897   0.421  0.4942 -0.5730 -0.0928
  264MOL0     C35552  14.078   2.924   0.451  0.9602  0.0551  0.2082
  264MOL0     O35553  13.785   2.781   0.357 -0.2100  0.4780  0.8408
  264MOL0     C35554  13.547   2.825   0.458  0.5334 -0.3302 -0.0229
  264MOL0     C35555  13.424   2.839   0.524 -1.3062 -0.5761 -0.2126
  264MOL0     N35556  12.823   3.128   0.552 -0.5258 -0.3021 -0.1141
  264MOL0     N35557  12.720   3.087   0.484 -0.5205 -0.0328  0.2797
  264MOL0     C35558  11.693   3.088   0.808 -0.5783 -1.1629  0.1055
  264MOL0     C35559  11.564   3.043   0.814 -0.4741 -0.2929  0.8125
  264MOL0     C35560  11.130   3.122   0.832 -0.5101 -0.2985 -0.5225
  264MOL0     C35561  11.054   3.214   0.909 -0.3615 -0.3152  0.7776
  264MOL0     C35562  10.917   3.208   0.916 -0.0875  0.4368  0.4612
  264MOL0     C35563  10.857   3.094   0.872  0.4209  0.6444 -0.1052
  264MOL0     O35564  10.722   3.064   0.893  0.2882 -0.3481  0.0279
  264MOL0     C35565  10.654   3.147   0.992  0.7880  0.6041  0.1671
  264MOL0     C35566  10.508   3.094   1.019 -0.3866 -0.5056 -0.2737
  264MOL0     C35567  10.426   3.071   0.883 -0.4880 -0.0472  0.8596
  264MOL0     C35568  10.446   3.179   0.768  0.2085  0.8241 -0.6170
  264MOL0     C35569  10.361   3.297   0.802 -0.3450 -0.0284  0.8282
  264MOL0     C35570  10.285   3.387   0.827  1.2487 -0.9266 -0.3367
  264MOL0     C35571  10.930   2.993   0.796 -0.4087  0.8276  0.8368
  264MOL0     C35572  11.062   3.012   0.770 -0.6811 -0.3758 -0.1791
  264MOL0     H35573  11.451   3.183   0.524 -0.7315  1.3325  0.5821
  264MOL0     H35574  11.683   3.238   0.506  0.1259  0.5565  0.1651
  264MOL0     H35575  11.935   3.235   0.508 -1.5460 -0.1502 -0.8593
  264MOL0     H35576  11.909   3.380   0.606  1.7883 -0.2669 -0.9090
  264MOL0     H35577  12.097   3.286   0.767 -1.2754 -0.1082  0.2056
  264MOL0     H35578  12.115   3.168   0.638  0.6906 -0.5585  1.6725
  264MOL0     H35579  12.126   3.463   0.584  1.3728  1.6567 -1.3360
  264MOL0     H35580  12.282   3.376   0.625  0.9300  1.2836 -1.1870
  264MOL0     H35581  12.230   3.228   0.426  1.0543  0.4962 -2.5607
  264MOL0     H35582  12.106   3.354   0.379  0.2696 -0.1082  0.3421
  264MOL0     H35583  12.279   3.435   0.243  1.0248 -1.8000 -0.3495
  264MOL0     H35584  12.296   3.519   0.392 -4.8983 -0.9843  1.0256
  264MOL0     H35585  12.513   3.419   0.282  0.6172 -0.7451 -0.4257
  264MOL0     H35586  12.488   3.353   0.450  0.7311 -2.9790 -0.3235
  264MOL0     H35587  12.418   3.163   0.401  1.8463  1.0476  0.1437
  264MOL0     H35588  12.386   3.201   0.235 -1.5210 -1.8039  0.8017
  264MOL0     H35589  12.643   3.201   0.190 -0.4024 -0.1920 -0.1776
  264MOL0     H35590  12.599   3.054   0.265  1.3992 -0.2592  0.5535
  264MOL0     H35591  12.812   3.360   0.318 -3.4268  1.8534  1.3984
  264MOL0     H35592  12.980   3.427   0.530 -1.2191 -0.0982 -2.6064
  264MOL0     H35593  13.007   3.310   0.651  1.3388  0.6002 -0.4490
  264MOL0     H35594  13.198   3.328   0.497  1.5538 -0.8625  0.6731
  264MOL0     H35595  13.102   3.304   0.361  2.1005  4.3328  0.8060
  264MOL0     H35596  13.230   3.094   0.414  0.0911 -2.7226  0.0995
  264MOL0     H35597  13.059   3.066   0.432 -0.0081 -0.2041 -0.3567
  264MOL0     H35598  13.094   3.033   0.688 -0.6598 -1.8297 -0.3692
  264MOL0     H35599  13.231   3.145   0.670 -0.4424 -1.1688  1.5560
  264MOL0     H35600  13.430   3.170   0.588 -0.9602 -0.0497 -1.7721
  264MOL0     H35601  13.639   3.259   0.558 -0.5520 -1.3703  0.9886
  264MOL0     H35602  13.783   3.161   0.558  0.7181  2.5442  2.5717
  264MOL0     H35603  13.720   3.197   0.404  3.1173  1.2562  0.9961
  264MOL0     H35604  13.976   3.054   0.148  0.0820  0.9652  0.7202
  264MOL0     H35605  14.239   2.999   0.099  2.5373 -2.6334  1.1339
  264MOL0     H35606  14.555   2.986   0.165 -0.8925 -1.5603 -0.6613
  264MOL0     H35607  14.412   3.095   0.184  0.1520 -0.2535 -1.7731
  264MOL0     H35608  14.446   3.114   0.420 -0.4904 -0.5113 -1.6699
  264MOL0     H35609  14.576   2.989   0.405 -0.7234 -1.6014  0.6909
  264MOL0     H35610  14.720   3.159   0.279  0.3419  1.8881  0.8239
  264MOL0     H35611  14.691   3.200   0.449 -1.8295 -0.7568  1.5865
  264MOL0     H35612  14.542   3.311   0.199  2.2843  1.1345 -0.3919
  264MOL0     H35613  14.499   3.338   0.377 -0.2622 -2.3428  0.3740
  264MOL0     H35614  14.718   3.454   0.403 -1.7382 -2.5815  1.2301
  264MOL0     H35615  14.652   3.518   0.254  3.4556  1.7100  0.7214
  264MOL0     H35616  14.883   3.476   0.251 -1.2262 -0.2253  2.3008
  264MOL0     H35617  14.855   3.302   0.246 -2.0574 -0.9461  1.4979
  264MOL0     H35618  14.884   3.459   0.028  0.3195 -0.3986  1.1612
  264MOL0     H35619  14.717   3.501   0.059  0.2448  1.1356 -1.1405
  264MOL0     H35620  14.712   3.318  -0.104  1.2838 -0.5563 -0.9526
  264MOL0     H35621  14.673   3.231   0.045  2.2075 -3.3595 -0.6900
  264MOL0     H35622  14.285   2.859   0.490  1.2683  4.0106  1.9491
  264MOL0     H35623  14.039   2.895   0.548  1.9879  1.5188  1.0994
  264MOL0     H35624  13.563   2.726   0.415 -2.5666 -1.1747  0.4928
  264MOL0     H35625  13.365   2.748   0.531  0.2016 -1.5088  1.0992
  264MOL0     H35626  11.759   3.070   0.893  1.3116  0.1167 -1.0040
  264MOL0     H35627  11.530   2.976   0.892  0.9238 -2.8814 -0.6591
  264MOL0     H35628  11.102   3.293   0.965  1.1589  0.4429 -1.4524
  264MOL0     H35629  10.875   3.288   0.976 -0.2817  0.0821  0.8029
  264MOL0     H35630  10.708   3.132   1.086 -0.2177 -0.1873  0.6414
  264MOL0     H35631  10.649   3.248   0.952 -2.9758 -0.2472 -2.0513
  264MOL0     H35632  10.449   3.168   1.074 -1.7146  0.0823 -2.3870
  264MOL0     H35633  10.515   3.009   1.087 -0.6787 -1.7285 -1.7085
  264MOL0     H35634  10.319   3.062   0.903 -0.3648 -4.0531  0.4455
  264MOL0     H35635  10.451   2.973   0.842  1.8613  1.2780 -1.1376
  264MOL0     H35636  10.428   3.134   0.670 -0.9761 -0.3050  0.0796
  264MOL0     H35637  10.552   3.206   0.776  0.8203 -1.6347  0.7600
  264MOL0     H35638  10.220   3.468   0.854 -0.3007 -1.2376 -2.8524
  264MOL0     H35639  10.890   2.897   0.763 -1.7158  1.6223 -0.0210
  264MOL0     H35640  11.123   2.944   0.712  0.1564 -0.7208  1.0603
  265MOL0     O35641   1.674   2.604   0.077  0.5686  0.5917 -0.2017
  265MOL0     C35642   1.776   2.595   0.144 -0.8037 -0.8981 -0.6685
  265MOL0     O35643   1.785   2.607   0.283  0.4455  0.6423 -0.3690
  265MOL0     C35644   1.663   2.593   0.343  0.2227  0.2367 -0.3205
  265MOL0     C35645   1.601   2.696   0.415 -0.3337  0.0443 -0.3073
  265MOL0     C35646   1.470   2.672   0.468 -0.1005  0.1783 -0.1143
  265MOL0     C35647   1.404   2.551   0.462  0.9406  0.3334  1.0528
  265MOL0     O35648   1.276   2.517   0.506 -0.8273  0.0988  0.3501
  265MOL0     C35649   1.194   2.628   0.536 -0.1694 -0.0562 -1.1064
  265MOL0     C35650   1.158   2.696   0.403  0.3517 -0.8775 -0.2326
  265MOL0     C35651   1.026   2.637   0.342  0.4110 -0.0311  0.3490
  265MOL0     C35652   1.000   2.671   0.190 -0.3688 -0.2823  0.0425
  265MOL0     C35653   1.035   2.820   0.150 -0.1803  0.3641 -1.0455
  265MOL0     C35654   1.040   2.827  -0.003 -0.0898 -0.7472 -1.0222
  265MOL0     C35655   1.057   2.968  -0.057  0.3279  0.0368 -0.5803
  265MOL0     C35656   0.916   3.034  -0.042 -0.8088  0.5225 -0.4263
  265MOL0     N35657   0.914   3.171  -0.080  0.0396  0.2424  0.8845
  265MOL0     C35658   0.854   3.269  -0.011  0.1891  0.2686  0.2213
  265MOL0     C35659   0.850   3.380  -0.092 -0.4186 -0.0275 -0.0147
  265MOL0     C35660   0.797   3.512  -0.048  0.2628  0.0439  0.4150
  265MOL0     C35661   0.657   3.555  -0.102 -0.0815 -0.1360 -0.3127
  265MOL0     C35662   0.650   3.545  -0.256  0.1279 -0.1449  0.1495
  265MOL0     C35663   0.513   3.598  -0.315  0.0099  0.3808 -0.3465
  265MOL0     O35664   0.418   3.512  -0.257 -0.4725 -0.8911  0.3686
  265MOL0     C35665   0.296   3.480  -0.320  0.0760 -0.5092  0.0025
  265MOL0     C35666   0.264   3.534  -0.442 -0.5022  0.7074 -0.1733
  265MOL0     C35667   0.134   3.513  -0.484 -0.8974 -0.1941 -0.0966
  265MOL0     C35668   0.096   3.565  -0.621 -0.1245 -0.6622  0.1556
  265MOL0     C35669   0.042   3.425  -0.421  0.2074  0.0291 -0.0610
  265MOL0     C35670  -0.097   3.396  -0.467 -0.9358 -0.8617 -0.7660
  265MOL0     O35671  -0.153   3.276  -0.420 -0.8881 -0.2758 -0.2422
  265MOL0     C35672  -0.254   3.234  -0.505  0.6205  0.3880  0.4440
  265MOL0     C35673  -0.383   3.215  -0.452 -0.5220  0.1584 -0.6838
  265MOL0     C35674  -0.491   3.200  -0.543 -0.1243  0.1035  0.2928
  265MOL0     C35675  -0.473   3.188  -0.681  0.6837  0.2886 -0.3548
  265MOL0     O35676  -0.561   3.190  -0.784  0.2265  0.7671 -0.3862
  265MOL0     C35677  -0.694   3.152  -0.759 -0.1198 -0.0138  0.2374
  265MOL0     C35678  -0.708   3.014  -0.719 -0.2933  0.0386  0.3021
  265MOL0     C35679  -0.640   2.917  -0.818  0.1302  0.1610  0.6483
  265MOL0     C35680  -0.721   2.790  -0.838 -0.2905  0.5958  0.2461
  265MOL0     C35681  -0.670   2.720  -0.961  0.0197  1.0104 -0.3219
  265MOL0     C35682  -0.762   2.590  -0.980 -0.8471 -0.1170  0.1323
  265MOL0     C35683  -0.715   2.502  -1.094  0.1100  0.2702 -0.5022
  265MOL0     C35684  -0.760   2.360  -1.080 -1.3128 -0.1436 -0.6779
  265MOL0    Cl35685  -0.932   2.336  -1.108  0.0240  0.3654  0.4732
  265MOL0     C35686  -0.340   3.175  -0.727 -0.2464 -1.1159 -0.0530
  265MOL0     C35687  -0.237   3.200  -0.643  0.7341  0.2234  0.0667
  265MOL0     O35688  -0.159   3.483  -0.523 -0.7050 -0.3018  0.3141
  265MOL0     C35689   0.082   3.363  -0.307 -0.0529 -0.5795 -0.8279
  265MOL0     C35690   0.205   3.391  -0.253  0.3561  0.5267  0.0394
  265MOL0     N35691   0.898   3.353  -0.216  0.2912 -0.3690 -0.6413
  265MOL0     N35692   0.942   3.225  -0.206  0.1374 -0.4322 -0.0372
  265MOL0     C35693   1.476   2.448   0.404  0.2827  0.4008 -0.4594
  265MOL0     C35694   1.594   2.470   0.348 -0.2318 -0.1430  0.7729
  265MOL0     C35695   1.902   2.590   0.071  0.1994 -0.9963 -0.4069
  265MOL0     C35696   2.029   2.582   0.144  0.5991  0.0124 -0.1624
  265MOL0     C35697   2.151   2.598   0.075  0.5009  0.4197 -0.0038
  265MOL0     C35698   2.152   2.619  -0.065  0.2227 -0.0650  0.0501
  265MOL0     O35699   2.266   2.645  -0.129 -0.5560  0.5665  0.1754
  265MOL0     C35700   2.327   2.520  -0.177  0.6556  0.6674  0.2319
  265MOL0     C35701   2.479   2.506  -0.151  0.6954 -0.4564  0.8620
  265MOL0     C35702   2.503   2.490  -0.007 -0.5056 -0.3086 -0.0908
  265MOL0     C35703   2.633   2.407   0.010 -0.9963  0.0685 -0.2008
  265MOL0     C35704   2.758   2.464  -0.045  0.0261  0.2911  0.3336
  265MOL0     C35705   2.874   2.494  -0.070 -0.3303  0.6656  0.0950
  265MOL0     C35706   2.034   2.627  -0.134  0.4221 -0.1087 -0.5273
  265MOL0     C35707   1.911   2.606  -0.069  0.8857 -0.2057  0.3249
  265MOL0     H35708   1.659   2.787   0.427 -1.1977  0.5410  0.2030
  265MOL0     H35709   1.434   2.745   0.540 -0.3702 -0.2530  0.1936
  265MOL0     H35710   1.107   2.589   0.589 -0.3336  1.7949  0.0813
  265MOL0     H35711   1.242   2.702   0.601  3.5929 -4.0135  1.0777
  265MOL0     H35712   1.137   2.801   0.427  3.0836 -1.0224  3.5404
  265MOL0     H35713   1.235   2.694   0.325  0.6889 -3.0064  0.1035
  265MOL0     H35714   1.029   2.529   0.360 -1.3155 -0.1304  0.2746
  265MOL0     H35715   0.938   2.673   0.397  1.0082  2.3427 -0.1257
  265MOL0     H35716   1.051   2.605   0.120 -0.7251  0.9897 -1.4843
  265MOL0     H35717   0.897   2.651   0.160  0.6038 -0.7779 -3.3090
  265MOL0     H35718   0.961   2.885   0.197  2.1918  0.4338  2.9974
  265MOL0     H35719   1.136   2.849   0.180  0.7809 -1.8550 -1.9191
  265MOL0     H35720   1.136   2.779  -0.022  1.1307  1.8018 -1.6377
  265MOL0     H35721   0.956   2.777  -0.053 -1.2159 -2.9558  2.6644
  265MOL0     H35722   1.134   3.018   0.002  2.5025 -0.9927 -2.4191
  265MOL0     H35723   1.094   2.967  -0.160  2.4023  0.7607  0.1041
  265MOL0     H35724   0.894   3.035   0.065 -0.1797  2.0633 -0.3020
  265MOL0     H35725   0.849   2.968  -0.099  0.9252 -2.4943  0.7829
  265MOL0     H35726   0.807   3.255   0.086  0.8138  1.7237  0.7660
  265MOL0     H35727   0.794   3.490   0.059 -5.4472 -2.0482  0.1784
  265MOL0     H35728   0.876   3.580  -0.080  1.4981 -0.6756  1.7974
  265MOL0     H35729   0.626   3.652  -0.062 -1.0685 -0.8730  0.7877
  265MOL0     H35730   0.591   3.480  -0.055  0.4578  0.9117  2.3178
  265MOL0     H35731   0.651   3.437  -0.274  1.4407  0.0480 -1.0771
  265MOL0     H35732   0.733   3.598  -0.304 -1.0900 -0.7777 -2.8939
  265MOL0     H35733   0.526   3.591  -0.424 -0.8451  1.9701 -0.5892
  265MOL0     H35734   0.489   3.701  -0.287  0.8406  0.4767  0.0259
  265MOL0     H35735   0.345   3.586  -0.494  1.0108  2.1883  3.3370
  265MOL0     H35736   0.064   3.483  -0.686  0.6028 -2.2124  1.6531
  265MOL0     H35737   0.001   3.619  -0.615 -0.2593 -1.0302  2.9186
  265MOL0     H35738   0.179   3.614  -0.672 -0.5995 -0.3995 -0.3833
  265MOL0     H35739  -0.415   3.238  -0.351 -0.2209  3.3636 -1.2208
  265MOL0     H35740  -0.590   3.190  -0.501 -1.2059 -0.1858 -2.1413
  265MOL0     H35741  -0.744   3.220  -0.689  2.5200  0.6095  1.6422
  265MOL0     H35742  -0.742   3.157  -0.857 -0.1603 -1.4940  0.1641
  265MOL0     H35743  -0.667   2.995  -0.619  0.1336 -2.8931 -0.3642
  265MOL0     H35744  -0.814   2.991  -0.724 -0.0951 -0.5968 -1.5274
  265MOL0     H35745  -0.546   2.888  -0.768 -1.8886 -0.6048  4.4350
  265MOL0     H35746  -0.613   2.966  -0.912 -2.2542 -0.3782 -0.3897
  265MOL0     H35747  -0.700   2.728  -0.750  2.8227  2.2314  0.7992
  265MOL0     H35748  -0.830   2.802  -0.842 -0.5678 -1.3739  0.9193
  265MOL0     H35749  -0.568   2.679  -0.953 -0.8371 -0.9718  1.4834
  265MOL0     H35750  -0.682   2.782  -1.050 -1.0208 -0.5601 -1.3120
  265MOL0     H35751  -0.770   2.529  -0.889 -1.1026 -1.9097 -1.0430
  265MOL0     H35752  -0.864   2.621  -1.003  0.2355  2.6094 -1.4796
  265MOL0     H35753  -0.606   2.491  -1.090 -0.0336 -0.8308  1.3483
  265MOL0     H35754  -0.746   2.552  -1.186 -2.3521 -1.1995 -0.5609
  265MOL0     H35755  -0.726   2.325  -0.982  1.5790  0.4400 -1.4023
  265MOL0     H35756  -0.690   2.301  -1.140  1.7557 -1.6054  3.7658
  265MOL0     H35757  -0.334   3.174  -0.836 -3.8622  2.9842 -0.5723
  265MOL0     H35758  -0.139   3.207  -0.692  0.3025  3.6107 -0.6015
  265MOL0     H35759   0.008   3.317  -0.242  0.2471  0.0641 -0.0181
  265MOL0     H35760   0.232   3.362  -0.152 -0.5169  0.6436  0.3136
  265MOL0     H35761   1.443   2.345   0.390  0.9370  0.1745 -0.3963
  265MOL0     H35762   1.647   2.391   0.294 -1.3045  0.4660 -1.2735
  265MOL0     H35763   2.022   2.582   0.252 -2.7985  0.6760 -0.2885
  265MOL0     H35764   2.234   2.611   0.143 -2.6855  2.5351  3.9245
  265MOL0     H35765   2.278   2.430  -0.139  3.9150 -1.0368  0.7658
  265MOL0     H35766   2.334   2.522  -0.286 -0.4581  0.6963  0.1502
  265MOL0     H35767   2.537   2.592  -0.185  2.2974 -0.9365  2.2649
  265MOL0     H35768   2.516   2.427  -0.217  0.3292  0.2186 -0.1772
  265MOL0     H35769   2.425   2.428   0.040 -1.4703  1.0799  0.1854
  265MOL0     H35770   2.509   2.584   0.048  0.0683 -1.4995  2.0115
  265MOL0     H35771   2.617   2.319  -0.052 -0.0735  1.2054 -2.1255
  265MOL0     H35772   2.641   2.373   0.114 -3.0757 -0.0283 -0.0262
  265MOL0     H35773   2.966   2.525  -0.115 -1.4657  2.0309 -1.4045
  265MOL0     H35774   2.030   2.645  -0.240  0.4234  1.9595 -0.2210
  265MOL0     H35775   1.816   2.597  -0.122 -0.0024  0.4399  1.7407
  266MOL0     O35776   3.455  10.707   6.550  0.2269  0.1258 -0.2509
  266MOL0     C35777   3.549  10.790   6.540  1.0382  0.6115 -0.4586
  266MOL0     O35778   3.627  10.831   6.641 -0.7418  0.0635  0.2892
  266MOL0     C35779   3.610  10.760   6.756 -0.6652  0.4004 -0.3519
  266MOL0     C35780   3.682  10.641   6.765  0.6555  0.4126 -0.1026
  266MOL0     C35781   3.680  10.566   6.885  0.7033  0.2582  0.5692
  266MOL0     C35782   3.599  10.611   6.993  0.9726  0.5314  0.1317
  266MOL0     O35783   3.587  10.526   7.094 -0.5164  0.3012 -0.6034
  266MOL0     C35784   3.599  10.573   7.228  0.5639 -0.4256 -0.1425
  266MOL0     C35785   3.503  10.504   7.321  0.0837 -0.0440  0.5520
  266MOL0     C35786   3.520  10.551   7.465 -0.9556 -0.5005  0.0096
  266MOL0     C35787   3.398  10.509   7.549  0.4526 -0.1805 -0.3461
  266MOL0     C35788   3.365  10.597   7.667 -0.7204 -0.3075 -0.7826
  266MOL0     C35789   3.425  10.534   7.803 -0.2647 -0.2792 -0.2566
  266MOL0     C35790   3.351  10.575   7.933  0.1753 -1.0122 -0.1650
  266MOL0     C35791   3.365  10.723   7.952  1.1212  0.0728  0.3964
  266MOL0     N35792   3.300  10.763   8.083 -0.1912  0.6152  0.1000
  266MOL0     C35793   3.217  10.862   8.104 -0.7102  0.6206  1.6496
  266MOL0     C35794   3.194  10.866   8.237 -0.6833 -0.9587  0.3006
  266MOL0     C35795   3.111  10.974   8.301  0.4486 -0.6677  0.2241
  266MOL0     C35796   2.972  10.915   8.343 -0.0977  0.4117 -0.0300
  266MOL0     C35797   2.894  11.009   8.437 -0.1354 -0.3746 -0.4323
  266MOL0     C35798   2.757  10.957   8.487 -0.5662  0.3145 -0.3726
  266MOL0     O35799   2.695  11.089   8.538  0.4140  0.6518  0.6201
  266MOL0     C35800   2.565  11.071   8.591  0.4604 -0.1136 -0.5930
  266MOL0     C35801   2.498  10.953   8.606 -0.2241  0.7426 -0.1644
  266MOL0     C35802   2.363  10.952   8.658  0.7974  0.4807 -0.2323
  266MOL0     C35803   2.299  10.816   8.655  0.3810  0.3748 -0.1161
  266MOL0     C35804   2.295  11.071   8.691  0.3364  0.1467  0.5095
  266MOL0     C35805   2.154  11.085   8.735  0.5013 -0.1190  0.7309
  266MOL0     O35806   2.094  11.211   8.718 -0.0314 -0.6909  0.5210
  266MOL0     C35807   1.957  11.193   8.733  0.8384 -0.6427 -0.8474
  266MOL0     C35808   1.872  11.145   8.631  0.5732 -0.3988  0.0655
  266MOL0     C35809   1.730  11.130   8.643  0.0282  0.4474 -0.5432
  266MOL0     C35810   1.672  11.167   8.766  0.0889  0.8800 -0.1826
  266MOL0     O35811   1.540  11.152   8.795 -0.3550  0.7195  0.4909
  266MOL0     C35812   1.439  11.099   8.708 -0.3706 -0.3289  0.8050
  266MOL0     C35813   1.442  10.947   8.687  0.1723 -0.7458 -0.2118
  266MOL0     C35814   1.365  10.912   8.565  0.1877 -0.6593 -0.3698
  266MOL0     C35815   1.230  10.843   8.598  0.0556  0.3428 -0.0424
  266MOL0     C35816   1.238  10.701   8.657  0.1411 -0.5541 -0.1540
  266MOL0     C35817   1.337  10.603   8.601 -0.5041 -0.0635 -0.3799
  266MOL0     C35818   1.319  10.468   8.677  0.5712 -0.5122 -0.5848
  266MOL0     C35819   1.186  10.402   8.633 -0.5411  0.6217  0.2851
  266MOL0    Cl35820   1.165  10.403   8.453  0.0266  0.0692  0.2432
  266MOL0     C35821   1.752  11.229   8.862 -0.7605  0.3226  1.1178
  266MOL0     C35822   1.890  11.241   8.848 -0.0474  0.6633  0.2719
  266MOL0     O35823   2.099  10.984   8.777  0.8807 -0.4197  0.0213
  266MOL0     C35824   2.381  11.185   8.688  0.1238  0.1477  0.3179
  266MOL0     C35825   2.510  11.187   8.643  0.0124  0.2087 -0.1591
  266MOL0     N35826   3.237  10.748   8.293 -1.0223 -0.3506 -0.1044
  266MOL0     N35827   3.310  10.694   8.200  0.6197  0.2447 -0.5354
  266MOL0     C35828   3.527  10.730   6.979  0.4124 -0.7810 -0.4836
  266MOL0     C35829   3.539  10.814   6.863 -0.4619  0.4314 -0.3610
  266MOL0     C35830   3.564  10.849   6.403  0.5923 -0.3913  0.1044
  266MOL0     C35831   3.455  10.849   6.308 -0.8747 -0.1138  0.3352
  266MOL0     C35832   3.476  10.908   6.185 -0.6543 -0.4852  0.4767
  266MOL0     C35833   3.597  10.970   6.152  0.6991  0.1038  0.3391
  266MOL0     O35834   3.597  11.021   6.022 -0.2935 -0.3547 -0.3553
  266MOL0     C35835   3.730  11.035   5.964  0.5344 -0.4738 -0.6493
  266MOL0     C35836   3.784  11.179   5.996 -0.7398  0.1899 -0.3020
  266MOL0     C35837   3.929  11.176   5.996  0.8906 -0.4060 -0.7267
  266MOL0     C35838   4.001  11.315   6.006 -0.5151  0.5906  0.5762
  266MOL0     C35839   4.149  11.298   6.006 -0.2829  0.8711  0.4613
  266MOL0     C35840   4.274  11.297   6.004 -0.2063  0.5729  0.3488
  266MOL0     C35841   3.705  10.971   6.244  0.0125  0.1827 -0.2794
  266MOL0     C35842   3.692  10.901   6.363 -0.4283 -0.0886  0.0520
  266MOL0     H35843   3.714  10.600   6.670  0.5492  2.7828 -1.2154
  266MOL0     H35844   3.723  10.467   6.895 -1.3057 -0.7364 -0.0781
  266MOL0     H35845   3.690  10.532   7.272  1.2183 -0.5649 -1.5517
  266MOL0     H35846   3.591  10.681   7.246 -0.8806 -0.8128  1.8405
  266MOL0     H35847   3.405  10.526   7.279  0.8303  2.6123 -0.0410
  266MOL0     H35848   3.496  10.396   7.313 -0.5244  0.1587 -3.0394
  266MOL0     H35849   3.607  10.510   7.517 -2.5646  0.1430  3.4811
  266MOL0     H35850   3.528  10.660   7.457 -0.4708 -0.4954  0.5486
  266MOL0     H35851   3.315  10.513   7.478 -0.8798  1.1969  1.1967
  266MOL0     H35852   3.405  10.403   7.576 -2.1377 -0.6609 -1.2625
  266MOL0     H35853   3.413  10.694   7.651 -4.8292  1.9704 -0.6899
  266MOL0     H35854   3.256  10.607   7.676 -0.6301 -0.1253  0.1899
  266MOL0     H35855   3.432  10.425   7.799  5.1518 -0.1489 -1.1998
  266MOL0     H35856   3.531  10.559   7.811 -0.2328 -0.1316 -1.0648
  266MOL0     H35857   3.244  10.555   7.926 -0.3676  1.0977  1.0108
  266MOL0     H35858   3.392  10.518   8.017  0.4803  0.7127  0.8993
  266MOL0     H35859   3.319  10.776   7.868  3.1309 -0.6750 -1.2338
  266MOL0     H35860   3.468  10.757   7.955 -0.6040  6.7216  0.5032
  266MOL0     H35861   3.194  10.935   8.027 -1.0507  0.1177  1.2742
  266MOL0     H35862   3.162  11.012   8.390 -2.1335 -1.2174  2.0491
  266MOL0     H35863   3.096  11.048   8.222  2.6833  0.9171  1.1721
  266MOL0     H35864   2.978  10.828   8.409 -2.2726 -0.2518 -0.6399
  266MOL0     H35865   2.913  10.896   8.253 -2.1168  0.8399  1.1386
  266MOL0     H35866   2.870  11.100   8.381 -1.2244 -1.1355 -1.2365
  266MOL0     H35867   2.955  11.024   8.526 -2.3459  1.6189  0.8706
  266MOL0     H35868   2.770  10.888   8.571 -0.1329 -1.3167 -1.7370
  266MOL0     H35869   2.707  10.903   8.407  2.8312 -1.7930 -1.2397
  266MOL0     H35870   2.545  10.857   8.591 -3.7281 -1.3405  1.0415
  266MOL0     H35871   2.372  10.740   8.626  0.1281 -0.7617  2.0590
  266MOL0     H35872   2.269  10.789   8.756  1.2798 -0.9021 -0.1658
  266MOL0     H35873   2.208  10.812   8.595  1.3792  0.9283 -1.7421
  266MOL0     H35874   1.919  11.117   8.538 -1.7764  0.7201 -1.5405
  266MOL0     H35875   1.683  11.062   8.573 -0.8234 -1.4531  1.7375
  266MOL0     H35876   1.351  11.120   8.768 -0.8200  0.1724 -0.0009
  266MOL0     H35877   1.436  11.157   8.615  1.0372  0.5840  1.3011
  266MOL0     H35878   1.547  10.918   8.671  0.5385 -0.5190  1.5556
  266MOL0     H35879   1.407  10.902   8.781  0.5985  2.8100  1.8246
  266MOL0     H35880   1.427  10.850   8.499 -0.1331 -0.9703 -0.3855
  266MOL0     H35881   1.347  11.005   8.509 -0.6028 -1.5538 -1.6656
  266MOL0     H35882   1.175  10.899   8.674 -2.2891 -1.4150 -0.3215
  266MOL0     H35883   1.173  10.847   8.506  0.0647  2.9001 -0.0098
  266MOL0     H35884   1.140  10.652   8.663  1.2494 -2.8908  0.0197
  266MOL0     H35885   1.266  10.720   8.761  0.1364 -0.9909 -0.0702
  266MOL0     H35886   1.310  10.586   8.496  0.2359 -3.5971 -0.1097
  266MOL0     H35887   1.433  10.654   8.616  0.3526 -0.9786 -2.3470
  266MOL0     H35888   1.317  10.488   8.784 -0.9745  1.3684 -0.9130
  266MOL0     H35889   1.414  10.414   8.669  0.8345 -0.4687  1.6114
  266MOL0     H35890   1.100  10.450   8.681  0.1419  1.1292  1.0162
  266MOL0     H35891   1.192  10.300   8.673 -2.0001  0.4747  0.1984
  266MOL0     H35892   1.703  11.262   8.953 -3.2797  1.1977 -0.4624
  266MOL0     H35893   1.938  11.288   8.934 -3.1178  0.8327  2.0641
  266MOL0     H35894   2.337  11.284   8.699  1.8880  1.3155 -2.1955
  266MOL0     H35895   2.576  11.273   8.644  0.7544 -0.3194 -1.2163
  266MOL0     H35896   3.471  10.766   7.064  0.1882  0.2675 -1.0556
  266MOL0     H35897   3.491  10.911   6.853  0.1463  0.7579 -0.1433
  266MOL0     H35898   3.357  10.813   6.337  0.0227 -0.7542  2.8969
  266MOL0     H35899   3.392  10.923   6.118  0.3090  1.7214 -0.3249
  266MOL0     H35900   3.804  10.958   5.983 -0.5212 -2.0708 -2.5291
  266MOL0     H35901   3.719  11.033   5.855  1.9058  0.6010 -0.8392
  266MOL0     H35902   3.746  11.210   6.094  1.3360 -2.8021  1.6115
  266MOL0     H35903   3.747  11.256   5.926  0.2286  2.4809  1.5577
  266MOL0     H35904   3.947  11.124   5.902 -0.5929 -1.3581 -0.5248
  266MOL0     H35905   3.971  11.108   6.071 -0.0876 -5.7798 -4.4149
  266MOL0     H35906   3.976  11.379   6.092  1.0136  0.9257  0.8019
  266MOL0     H35907   3.979  11.371   5.915 -0.9103  0.3112  0.4963
  266MOL0     H35908   4.381  11.298   6.000 -0.1296  4.0215 -1.8052
  266MOL0     H35909   3.804  11.007   6.217  0.2271  0.3421  0.6672
  266MOL0     H35910   3.784  10.900   6.421  1.5807  1.8469 -2.8380
  267MOL0     O35911   1.747  10.793   3.749  0.0089 -0.3383 -0.1008
  267MOL0     C35912   1.635  10.823   3.797  0.0875  0.5305 -0.5965
  267MOL0     O35913   1.611  10.912   3.896 -0.0161  0.1335  0.0581
  267MOL0     C35914   1.712  10.977   3.969 -0.6757  0.7017 -0.1383
  267MOL0     C35915   1.824  10.900   4.018 -0.0208 -0.6741  0.3952
  267MOL0     C35916   1.911  10.952   4.113 -0.3553 -1.2480  0.5918
  267MOL0     C35917   1.903  11.086   4.156 -0.5406  0.9011 -0.3252
  267MOL0     O35918   1.984  11.151   4.252  0.4697 -0.5263 -0.5745
  267MOL0     C35919   2.091  11.078   4.322 -0.2821 -0.6850  0.0317
  267MOL0     C35920   2.139  11.157   4.442  0.3178 -0.1236  0.2988
  267MOL0     C35921   2.247  11.082   4.528 -0.7541  0.4621  0.7546
  267MOL0     C35922   2.384  11.052   4.442  0.0099 -0.2740  0.3770
  267MOL0     C35923   2.493  11.008   4.532 -0.4301 -0.4317 -0.3892
  267MOL0     C35924   2.490  10.860   4.580  0.6219 -0.2604  0.0597
  267MOL0     C35925   2.613  10.803   4.655  1.1696  0.1322 -0.2957
  267MOL0     C35926   2.740  10.816   4.567  0.8870  0.1074  0.2661
  267MOL0     N35927   2.849  10.748   4.645 -1.0776 -0.7835 -0.5526
  267MOL0     C35928   2.888  10.791   4.771  0.2821  0.0788 -0.5591
  267MOL0     C35929   2.981  10.697   4.805 -0.1842  0.6408 -0.5281
  267MOL0     C35930   3.084  10.695   4.930 -0.3465  0.3881  0.2597
  267MOL0     C35931   3.161  10.564   4.950  0.4305  0.3742 -0.1383
  267MOL0     C35932   3.252  10.578   5.069 -0.6531 -0.0042 -0.2747
  267MOL0     C35933   3.342  10.455   5.079  0.1907  0.9121 -0.1815
  267MOL0     O35934   3.269  10.334   5.104 -0.2675 -0.1121 -0.6337
  267MOL0     C35935   3.344  10.223   5.149  0.2180  0.1470  0.3407
  267MOL0     C35936   3.280  10.147   5.247  0.1131  0.3908 -0.0988
  267MOL0     C35937   3.346  10.035   5.302 -0.3310  0.1412 -0.7422
  267MOL0     C35938   3.267   9.946   5.397 -0.2402  0.4010 -0.4199
  267MOL0     C35939   3.484  10.003   5.270 -0.5123  0.1665  0.0804
  267MOL0     C35940   3.572   9.889   5.323  0.5530 -0.4729 -0.2641
  267MOL0     O35941   3.689   9.867   5.252  0.0394  0.5351  0.3609
  267MOL0     C35942   3.785   9.793   5.321  0.7830  0.0691 -0.6901
  267MOL0     C35943   3.902   9.843   5.378 -0.3283  0.3641 -0.1996
  267MOL0     C35944   3.984   9.763   5.455 -0.7219 -0.7109  0.0263
  267MOL0     C35945   3.956   9.624   5.465  0.1392 -0.4377  0.5562
  267MOL0     O35946   4.047   9.557   5.541  0.8407 -0.7105 -0.6678
  267MOL0     C35947   4.007   9.429   5.579 -0.5206  0.2139  0.4130
  267MOL0     C35948   4.129   9.360   5.645  0.6591  0.1936  0.2639
  267MOL0     C35949   4.152   9.388   5.795 -0.2174 -0.3880 -0.4150
  267MOL0     C35950   4.271   9.309   5.854  0.0843 -0.2363  0.2880
  267MOL0     C35951   4.298   9.334   6.001  0.4655  0.1299  0.8502
  267MOL0     C35952   4.182   9.296   6.106  0.2624  0.1500  0.5366
  267MOL0     C35953   4.237   9.311   6.249  0.5246 -0.8867  0.6248
  267MOL0     C35954   4.350   9.226   6.285 -0.6247  0.1268  0.0332
  267MOL0    Cl35955   4.495   9.316   6.259 -0.6619 -0.5885  0.1492
  267MOL0     C35956   3.845   9.567   5.390 -0.2139 -0.1486 -0.3624
  267MOL0     C35957   3.757   9.657   5.333 -0.1753  0.5999 -0.4206
  267MOL0     O35958   3.546   9.849   5.431 -1.1898 -0.2640 -0.7190
  267MOL0     C35959   3.550  10.091   5.174  0.9038 -0.6451 -0.0191
  267MOL0     C35960   3.474  10.192   5.113  0.0258  0.6464  0.2476
  267MOL0     N35961   2.983  10.597   4.704  0.4013 -0.7418 -0.3455
  267MOL0     N35962   2.910  10.639   4.611 -0.4590  0.1074  0.5254
  267MOL0     C35963   1.797  11.163   4.108 -0.4984 -0.1013  0.7606
  267MOL0     C35964   1.699  11.106   4.027  0.6154  0.2461  0.7220
  267MOL0     C35965   1.518  10.736   3.751  0.1463 -0.4919 -0.2633
  267MOL0     C35966   1.539  10.610   3.676  0.3249 -0.5769  0.4301
  267MOL0     C35967   1.428  10.532   3.645 -0.4501 -0.3918 -0.2343
  267MOL0     C35968   1.303  10.561   3.704 -0.2157  0.6491 -0.8316
  267MOL0     O35969   1.207  10.462   3.672  0.0810 -0.3113  0.2642
  267MOL0     C35970   1.073  10.496   3.699 -0.0207  0.3611 -0.3919
  267MOL0     C35971   0.973  10.414   3.617 -0.0496 -0.6691  0.1635
  267MOL0     C35972   1.008  10.415   3.469 -0.9076  0.2612 -0.5822
  267MOL0     C35973   0.995  10.548   3.399  0.4275 -0.2568  0.8594
  267MOL0     C35974   0.875  10.624   3.431 -0.7219  0.5346  0.1340
  267MOL0     C35975   0.795  10.704   3.471 -0.2882  0.6270  0.4167
  267MOL0     C35976   1.289  10.677   3.779 -1.3268 -0.4181  0.2314
  267MOL0     C35977   1.395  10.759   3.808 -0.1452  0.2848  0.8375
  267MOL0     H35978   1.849  10.799   3.988  0.2662 -0.9959  1.6750
  267MOL0     H35979   1.989  10.887   4.151 -0.1370 -2.1429 -1.2822
  267MOL0     H35980   2.051  10.987   4.368 -1.0524  0.7330  2.3424
  267MOL0     H35981   2.182  11.067   4.263 -0.7076  0.2916 -0.8387
  267MOL0     H35982   2.186  11.249   4.405 -3.0237  1.0993 -1.2793
  267MOL0     H35983   2.047  11.172   4.500 -2.3147 -2.6031 -2.8705
  267MOL0     H35984   2.271  11.137   4.619 -1.4789  0.5480  0.8997
  267MOL0     H35985   2.210  10.988   4.569  3.8374 -1.2299  1.6229
  267MOL0     H35986   2.370  10.983   4.358  3.4630  2.7891 -3.0645
  267MOL0     H35987   2.418  11.142   4.391 -2.7479  1.5643  1.5562
  267MOL0     H35988   2.585  11.009   4.473 -0.1029 -1.4261  0.0736
  267MOL0     H35989   2.510  11.070   4.621  1.6566 -0.8710 -0.4387
  267MOL0     H35990   2.410  10.843   4.653  3.8213 -3.2093  3.3138
  267MOL0     H35991   2.459  10.796   4.498 -3.6596 -0.7986  1.8439
  267MOL0     H35992   2.632  10.865   4.743  3.3773  0.2095 -0.7561
  267MOL0     H35993   2.590  10.698   4.678  3.8797 -0.3486  0.5200
  267MOL0     H35994   2.759  10.920   4.540 -3.3479  0.5682 -1.7859
  267MOL0     H35995   2.731  10.766   4.470  4.6265  2.3962 -1.4950
  267MOL0     H35996   2.853  10.879   4.823  0.9380  0.4177 -0.6767
  267MOL0     H35997   3.155  10.779   4.925  0.2853 -0.0100  2.0013
  267MOL0     H35998   3.013  10.706   5.012 -1.1675  2.7320 -0.6512
  267MOL0     H35999   3.220  10.558   4.858  0.4069  2.1746 -0.3071
  267MOL0     H36000   3.097  10.476   4.964  2.1154 -1.4509 -2.8454
  267MOL0     H36001   3.198  10.593   5.163 -0.2203 -2.5739  0.4716
  267MOL0     H36002   3.319  10.663   5.051  0.7178 -0.7587  1.0316
  267MOL0     H36003   3.421  10.480   5.150  0.2540  2.3047 -0.7030
  267MOL0     H36004   3.401  10.445   4.987  3.5090  0.0789  1.8579
  267MOL0     H36005   3.175  10.158   5.273  0.3728 -0.2098  1.2939
  267MOL0     H36006   3.166   9.986   5.413 -0.0290  0.0222  2.4952
  267MOL0     H36007   3.263   9.840   5.370 -0.6609  0.6112 -1.2199
  267MOL0     H36008   3.309   9.947   5.498 -1.7158  1.5598  0.2307
  267MOL0     H36009   3.916   9.949   5.361 -2.0838  0.8297  1.0256
  267MOL0     H36010   4.077   9.806   5.489 -0.8602 -0.4496  0.0818
  267MOL0     H36011   3.927   9.428   5.653 -2.7220 -3.1686 -1.7279
  267MOL0     H36012   3.978   9.376   5.487 -0.3706  0.7851  0.0313
  267MOL0     H36013   4.102   9.254   5.647  1.9393 -0.1549  0.3625
  267MOL0     H36014   4.215   9.363   5.577 -1.0665 -1.1400 -2.1109
  267MOL0     H36015   4.058   9.368   5.848 -0.0232  3.0690  1.5439
  267MOL0     H36016   4.168   9.496   5.799  0.5484 -0.4358 -1.6787
  267MOL0     H36017   4.256   9.201   5.850  5.3479 -1.2188 -1.4438
  267MOL0     H36018   4.359   9.343   5.800  0.1728 -0.4460  0.2981
  267MOL0     H36019   4.325   9.439   6.018 -1.5711  0.9274 -0.4772
  267MOL0     H36020   4.387   9.272   6.013  0.6117  0.2738  0.5004
  267MOL0     H36021   4.099   9.366   6.096  0.1711 -0.2367 -2.0159
  267MOL0     H36022   4.137   9.199   6.084  0.6723  0.4516 -1.9122
  267MOL0     H36023   4.150   9.302   6.315  0.3215  1.8153  0.8429
  267MOL0     H36024   4.277   9.412   6.255 -1.0323 -0.2742  0.9629
  267MOL0     H36025   4.350   9.134   6.225 -2.4375 -1.0437  1.7098
  267MOL0     H36026   4.340   9.194   6.389 -1.4843  1.7239  0.4761
  267MOL0     H36027   3.819   9.463   5.406 -1.8096 -0.4819 -4.1538
  267MOL0     H36028   3.664   9.622   5.289 -0.0209  0.2515 -0.4772
  267MOL0     H36029   3.656  10.081   5.153  1.1194 -0.7376  1.0600
  267MOL0     H36030   3.518  10.255   5.036 -1.4450 -0.7652 -1.8683
  267MOL0     H36031   1.777  11.261   4.151 -1.6233  0.7542 -1.5663
  267MOL0     H36032   1.619  11.174   4.000  0.8581 -0.2598 -1.4209
  267MOL0     H36033   1.640  10.591   3.642  0.3475 -3.5303  1.8428
  267MOL0     H36034   1.453  10.450   3.578 -1.8750 -0.1875 -1.0624
  267MOL0     H36035   1.053  10.493   3.807  2.3053  0.4484  0.0951
  267MOL0     H36036   1.059  10.604   3.683  2.2340  0.4637 -2.2289
  267MOL0     H36037   0.876  10.460   3.636 -1.6720 -3.2579 -1.3057
  267MOL0     H36038   0.972  10.312   3.656  2.5027 -0.3816  1.2087
  267MOL0     H36039   0.943  10.341   3.420  1.7420 -0.3261 -3.4982
  267MOL0     H36040   1.109  10.376   3.451 -1.5903 -0.7819 -2.4337
  267MOL0     H36041   1.002  10.525   3.292 -5.7902  0.5898 -0.1110
  267MOL0     H36042   1.083  10.605   3.433  0.0844 -0.0713  1.4501
  267MOL0     H36043   0.723  10.770   3.516 -0.6074  1.5421 -1.3426
  267MOL0     H36044   1.203  10.708   3.837 -0.7800  2.8849 -0.5444
  267MOL0     H36045   1.380  10.834   3.885 -0.3100 -0.5108  1.6011
  268MOL0     O36046   4.566   7.328   6.163  0.5205 -0.2232 -0.2215
  268MOL0     C36047   4.633   7.371   6.066  1.3663  0.3898  0.2069
  268MOL0     O36048   4.586   7.419   5.952 -0.4762  0.3623 -0.7020
  268MOL0     C36049   4.452   7.449   5.931  0.5875  1.0450 -0.1336
  268MOL0     C36050   4.362   7.489   6.037 -0.2510  0.3557  0.7103
  268MOL0     C36051   4.224   7.520   6.014 -0.0036  0.1368  1.0382
  268MOL0     C36052   4.172   7.514   5.890  1.0363 -0.2837  0.3880
  268MOL0     O36053   4.046   7.576   5.867  0.8033 -0.1557 -0.4031
  268MOL0     C36054   4.033   7.629   5.736  0.1857  0.0008 -0.5325
  268MOL0     C36055   3.912   7.730   5.745  0.0984  0.2199  0.9410
  268MOL0     C36056   3.860   7.762   5.602  0.3387 -0.3533 -0.6475
  268MOL0     C36057   3.785   7.895   5.611 -0.6928  0.6248 -0.2419
  268MOL0     C36058   3.780   7.964   5.471 -0.4979 -0.0488  0.8103
  268MOL0     C36059   3.714   8.096   5.457  0.4529 -0.5926 -0.0419
  268MOL0     C36060   3.566   8.101   5.439 -0.0063  0.4216 -0.6805
  268MOL0     C36061   3.516   8.049   5.307 -0.0627  0.1939 -0.1086
  268MOL0     N36062   3.365   8.023   5.306  0.5096  1.5500  0.6625
  268MOL0     C36063   3.317   7.891   5.313  0.8652 -0.6535 -1.0725
  268MOL0     C36064   3.180   7.913   5.316  0.7323 -0.1836 -0.2503
  268MOL0     C36065   3.069   7.803   5.344 -0.0678  0.2885 -0.0437
  268MOL0     C36066   2.928   7.845   5.319  1.1627  0.1243 -0.0647
  268MOL0     C36067   2.896   7.871   5.169 -0.5751 -0.6687 -0.2913
  268MOL0     C36068   2.746   7.897   5.153 -0.5071 -0.4056  0.5565
  268MOL0     O36069   2.719   7.924   5.018 -0.7043  0.6716  0.3134
  268MOL0     C36070   2.590   7.918   4.976  0.0623 -0.5078 -0.8845
  268MOL0     C36071   2.578   7.934   4.840  0.2009  0.2464  0.3621
  268MOL0     C36072   2.458   7.949   4.770 -0.4403 -0.7188 -0.8221
  268MOL0     C36073   2.449   7.955   4.624 -0.4820 -0.4025  0.6665
  268MOL0     C36074   2.333   7.939   4.852 -0.0604 -0.5822  0.0466
  268MOL0     C36075   2.195   7.949   4.807  1.2058  0.4546 -1.0622
  268MOL0     O36076   2.172   7.927   4.671  0.3166  0.3908  0.4855
  268MOL0     C36077   2.048   7.896   4.614  0.3779 -0.2614  1.5011
  268MOL0     C36078   2.036   7.888   4.473  0.3017  0.2588 -0.2567
  268MOL0     C36079   1.919   7.844   4.407 -0.1828 -0.0835 -0.0706
  268MOL0     C36080   1.811   7.803   4.488 -0.3506 -1.0222 -0.2961
  268MOL0     O36081   1.690   7.768   4.436  0.5445 -0.3082  0.1851
  268MOL0     C36082   1.667   7.827   4.306  0.1953  0.1393  0.3601
  268MOL0     C36083   1.514   7.819   4.283  0.0041 -0.5356  0.2183
  268MOL0     C36084   1.437   7.907   4.384  1.2659 -0.2561 -0.0260
  268MOL0     C36085   1.281   7.886   4.363 -0.2902  0.4789  0.2284
  268MOL0     C36086   1.214   7.983   4.459 -0.5874 -0.3110  0.3858
  268MOL0     C36087   1.067   7.998   4.421 -0.0102  0.3622  0.1862
  268MOL0     C36088   1.043   8.093   4.294 -0.0150  0.5095 -0.2859
  268MOL0     C36089   0.907   8.120   4.267 -0.1622 -0.8408  0.2779
  268MOL0    Cl36090   0.826   7.961   4.227 -0.2966  0.1967  0.2199
  268MOL0     C36091   1.826   7.794   4.629  1.1520 -0.0632  0.5064
  268MOL0     C36092   1.933   7.847   4.692  0.1423  0.0042  0.2624
  268MOL0     O36093   2.107   7.974   4.890  0.3490 -0.1787 -0.1326
  268MOL0     C36094   2.352   7.921   4.992 -0.1173 -0.5896 -0.9994
  268MOL0     C36095   2.476   7.903   5.053 -0.5422 -0.5852  0.1435
  268MOL0     N36096   3.162   8.041   5.278 -0.2865 -0.1183 -0.0376
  268MOL0     N36097   3.271   8.113   5.269 -0.6301  0.8383 -0.4277
  268MOL0     C36098   4.257   7.455   5.790  0.4880  0.1343  0.2515
  268MOL0     C36099   4.389   7.418   5.814  0.4609  0.0294 -0.1127
  268MOL0     C36100   4.786   7.373   6.078  0.5783 -1.3236 -0.5120
  268MOL0     C36101   4.843   7.347   6.205  0.3908  0.2716 -0.3142
  268MOL0     C36102   4.985   7.336   6.217  0.5129 -1.1369 -0.7439
  268MOL0     C36103   5.067   7.357   6.105  0.1122  0.0864 -0.2046
  268MOL0     O36104   5.196   7.369   6.134 -0.5481  0.2344  0.1602
  268MOL0     C36105   5.292   7.320   6.040 -0.8350 -0.6603 -0.4096
  268MOL0     C36106   5.294   7.178   6.011 -0.4198  0.4732 -0.0237
  268MOL0     C36107   5.414   7.130   5.927  0.4532 -0.0805  0.3366
  268MOL0     C36108   5.370   6.990   5.866  0.4451  0.0239  0.1419
  268MOL0     C36109   5.476   6.914   5.799  0.5091 -0.0534 -0.2667
  268MOL0     C36110   5.557   6.852   5.729  0.0132  0.0616  0.2681
  268MOL0     C36111   5.003   7.372   5.981 -0.1838  0.0165 -0.7831
  268MOL0     C36112   4.869   7.384   5.968  0.1683  0.4571  0.7652
  268MOL0     H36113   4.406   7.503   6.136  1.4935  1.6019 -0.1891
  268MOL0     H36114   4.159   7.552   6.095 -3.2860 -1.3418 -0.8648
  268MOL0     H36115   4.120   7.684   5.698  1.0731 -1.4989 -0.7255
  268MOL0     H36116   4.011   7.550   5.665 -0.6274 -1.4463  1.2500
  268MOL0     H36117   3.822   7.697   5.798 -0.0176  0.3881  0.8511
  268MOL0     H36118   3.950   7.820   5.796  0.5440  0.0338  0.9445
  268MOL0     H36119   3.952   7.778   5.544 -1.1906  0.9838 -2.8350
  268MOL0     H36120   3.808   7.674   5.562  0.0332 -1.1177  1.3120
  268MOL0     H36121   3.692   7.882   5.667 -0.6447  1.9122  0.1550
  268MOL0     H36122   3.852   7.957   5.672  1.0380 -0.0761 -1.3413
  268MOL0     H36123   3.878   7.970   5.422 -0.9537 -2.8259 -0.6949
  268MOL0     H36124   3.731   7.888   5.408 -1.0576  0.8426  0.1481
  268MOL0     H36125   3.745   8.156   5.543  3.4576  1.3891 -2.2555
  268MOL0     H36126   3.764   8.145   5.372 -1.1361 -0.4980 -0.9517
  268MOL0     H36127   3.518   8.053   5.525 -2.3964  1.0826 -1.5606
  268MOL0     H36128   3.540   8.207   5.444  1.1758  0.6971  2.8319
  268MOL0     H36129   3.565   7.953   5.290 -0.8810 -0.5354  1.4212
  268MOL0     H36130   3.541   8.121   5.229 -1.4206  0.1982 -0.5653
  268MOL0     H36131   3.374   7.802   5.337  0.1092 -0.8771 -0.0473
  268MOL0     H36132   3.090   7.719   5.277 -1.1402  3.0420 -4.2108
  268MOL0     H36133   3.082   7.759   5.443 -2.9305 -1.9946 -0.5505
  268MOL0     H36134   2.915   7.946   5.360 -2.7365 -0.0551 -0.5657
  268MOL0     H36135   2.855   7.780   5.367  0.2192  1.2967  0.1464
  268MOL0     H36136   2.925   7.784   5.110  0.2682 -0.5446 -0.0745
  268MOL0     H36137   2.947   7.965   5.143 -1.1981  0.0268  0.9393
  268MOL0     H36138   2.711   7.984   5.210 -2.9168  0.0983 -1.5341
  268MOL0     H36139   2.709   7.798   5.182  3.0102 -1.5279  1.7666
  268MOL0     H36140   2.669   7.953   4.786  0.2051 -0.4972  0.0915
  268MOL0     H36141   2.374   8.033   4.606 -0.7839 -0.1337  2.8251
  268MOL0     H36142   2.550   7.980   4.589 -0.5904 -1.7425 -0.7128
  268MOL0     H36143   2.410   7.864   4.577 -1.8243  0.3611  0.2338
  268MOL0     H36144   2.116   7.931   4.415 -0.4171  0.4221 -1.1356
  268MOL0     H36145   1.925   7.847   4.298  4.9129 -0.0688 -0.0438
  268MOL0     H36146   1.683   7.935   4.303 -0.4266  0.2228 -0.0095
  268MOL0     H36147   1.720   7.774   4.227  2.0876  3.2009 -0.5874
  268MOL0     H36148   1.496   7.839   4.176 -1.7548 -3.1829 -0.0847
  268MOL0     H36149   1.468   7.721   4.294  0.9877 -1.0546 -0.1255
  268MOL0     H36150   1.460   8.012   4.367 -1.6052  0.0355 -2.8152
  268MOL0     H36151   1.478   7.879   4.482 -0.0444  4.2770  2.0957
  268MOL0     H36152   1.260   7.904   4.258  0.2617  0.9516  0.1926
  268MOL0     H36153   1.248   7.783   4.383 -3.0616  0.8034 -2.0645
  268MOL0     H36154   1.272   8.075   4.465  2.2386 -2.0043  0.7412
  268MOL0     H36155   1.219   7.953   4.564  2.3484  2.4223  1.1878
  268MOL0     H36156   1.025   7.897   4.410  1.1080  0.0571 -1.8626
  268MOL0     H36157   1.016   8.052   4.502  0.0005 -1.3971  1.4241
  268MOL0     H36158   1.093   8.039   4.213  0.6254 -1.8259  1.5264
  268MOL0     H36159   1.093   8.189   4.307 -1.0297  1.1794 -1.1613
  268MOL0     H36160   0.903   8.185   4.179  0.8103 -0.8785  0.1925
  268MOL0     H36161   0.855   8.179   4.343  1.6264  2.9286 -1.1892
  268MOL0     H36162   1.742   7.766   4.693  0.1757  0.1246 -0.6500
  268MOL0     H36163   1.941   7.841   4.800 -1.0767  1.2477  0.4478
  268MOL0     H36164   2.269   7.928   5.063 -0.0805  4.2175 -1.1092
  268MOL0     H36165   2.478   7.881   5.160 -1.2598  2.1778  0.8215
  268MOL0     H36166   4.219   7.448   5.688  1.9728 -1.8806 -0.2416
  268MOL0     H36167   4.454   7.378   5.737 -0.4723 -0.6150 -0.5930
  268MOL0     H36168   4.787   7.328   6.296  1.9663 -2.6912  0.1505
  268MOL0     H36169   5.031   7.326   6.315 -1.0812  2.1948  0.4934
  268MOL0     H36170   5.281   7.379   5.949 -1.4055  0.3066  0.2738
  268MOL0     H36171   5.384   7.355   6.088 -2.3688  0.0750  2.2289
  268MOL0     H36172   5.199   7.151   5.962  0.9190 -2.7267 -1.1414
  268MOL0     H36173   5.301   7.120   6.103  1.4020  1.7851  0.7293
  268MOL0     H36174   5.507   7.112   5.981  0.9110  0.3465 -0.2926
  268MOL0     H36175   5.452   7.199   5.850  1.0856 -1.7371 -0.8923
  268MOL0     H36176   5.286   7.014   5.801  0.9482  1.7500  0.0817
  268MOL0     H36177   5.333   6.922   5.944  1.3185  1.8355  2.2311
  268MOL0     H36178   5.624   6.783   5.683  0.8452  2.2601 -2.0597
  268MOL0     H36179   5.079   7.390   5.906  0.9703  3.6446  1.0343
  268MOL0     H36180   4.829   7.417   5.872 -0.2661  1.0489  1.1409
  269MOL0     O36181   5.743   3.135   3.276  0.1132 -0.6411  0.2746
  269MOL0     C36182   5.784   3.167   3.165  0.5300 -0.3378 -0.0755
  269MOL0     O36183   5.735   3.122   3.045 -0.3610 -0.1532 -0.5395
  269MOL0     C36184   5.617   3.049   3.049 -0.2261  0.9062  0.0617
  269MOL0     C36185   5.612   2.935   3.133 -0.0384  0.3074  0.6563
  269MOL0     C36186   5.508   2.843   3.122  1.0912 -0.1950 -0.4519
  269MOL0     C36187   5.398   2.868   3.036 -0.2315 -0.4896 -0.0521
  269MOL0     O36188   5.301   2.780   3.030 -0.0133  0.0543  0.3141
  269MOL0     C36189   5.162   2.817   3.036 -0.5983 -0.3992 -0.3576
  269MOL0     C36190   5.081   2.696   3.006 -0.5498  0.3894  0.0106
  269MOL0     C36191   5.114   2.567   3.084 -0.0843  0.4195  0.1859
  269MOL0     C36192   5.118   2.586   3.236  0.4584 -0.0962  0.1506
  269MOL0     C36193   5.077   2.462   3.322  0.4392 -0.3824 -0.0627
  269MOL0     C36194   5.185   2.348   3.325 -0.7964 -0.8342 -0.6748
  269MOL0     C36195   5.147   2.240   3.426 -0.1692 -0.1009  0.1988
  269MOL0     C36196   5.043   2.143   3.384  1.0761 -0.2630 -0.1542
  269MOL0     N36197   4.979   2.076   3.497  0.2604  0.2191  0.3945
  269MOL0     C36198   5.031   1.973   3.567 -0.5630  0.2653  0.4370
  269MOL0     C36199   4.944   1.961   3.664  0.2267  0.6484 -0.3408
  269MOL0     C36200   4.938   1.854   3.773 -0.4162 -0.1789 -0.3926
  269MOL0     C36201   5.062   1.863   3.865 -0.6667 -0.3019 -0.0074
  269MOL0     C36202   5.036   1.775   3.989 -0.2848 -0.5455  0.4418
  269MOL0     C36203   5.000   1.634   3.968 -0.2133  0.4322 -0.0181
  269MOL0     O36204   5.116   1.570   3.905  0.6551  0.5449  0.2834
  269MOL0     C36205   5.146   1.434   3.915  0.7018  0.1678  0.1866
  269MOL0     C36206   5.062   1.332   3.985 -0.1461 -1.6263  0.6481
  269MOL0     C36207   5.119   1.208   4.006 -0.0474 -0.2649 -0.0775
  269MOL0     C36208   5.024   1.111   4.087 -0.5085 -0.7328 -0.4494
  269MOL0     C36209   5.240   1.168   3.955 -0.2512 -0.4383  0.6472
  269MOL0     C36210   5.302   1.032   3.955 -0.7865 -0.2395 -0.0788
  269MOL0     O36211   5.416   1.007   3.880 -0.2341 -0.6177 -0.1313
  269MOL0     C36212   5.480   0.880   3.889 -0.2636 -0.7681  0.3284
  269MOL0     C36213   5.613   0.872   3.929  0.6513  0.8859  0.7486
  269MOL0     C36214   5.685   0.746   3.913 -0.0464  0.0214 -0.3584
  269MOL0     C36215   5.619   0.635   3.867 -0.3717  0.0952  0.6125
  269MOL0     O36216   5.688   0.517   3.848  1.4570 -0.1189  0.5756
  269MOL0     C36217   5.632   0.403   3.911 -0.4627  0.8123 -0.1434
  269MOL0     C36218   5.727   0.286   3.903  0.8884 -0.5774 -0.6747
  269MOL0     C36219   5.734   0.238   4.047  0.0828 -0.7663  0.1394
  269MOL0     C36220   5.796   0.098   4.072 -0.0197 -0.6126 -0.2512
  269MOL0     C36221   5.947   0.101   4.076 -0.7608 -1.4151 -0.5962
  269MOL0     C36222   5.989  -0.042   4.087  0.1535 -0.2575 -0.0243
  269MOL0     C36223   6.011  -0.091   4.236 -0.2770  0.0716  0.2261
  269MOL0     C36224   6.051  -0.240   4.243 -0.0783 -0.6743  0.4192
  269MOL0    Cl36225   6.228  -0.280   4.211  0.4841  0.0588  0.0777
  269MOL0     C36226   5.480   0.638   3.832  0.7148  0.0868 -0.8804
  269MOL0     C36227   5.414   0.761   3.847  0.5541 -0.9680 -1.1019
  269MOL0     O36228   5.228   0.943   3.993 -0.4486 -0.0965 -0.8994
  269MOL0     C36229   5.308   1.263   3.883 -0.5199 -1.2114  0.0134
  269MOL0     C36230   5.264   1.393   3.860 -0.4263 -0.0640 -1.3141
  269MOL0     N36231   4.838   2.054   3.661 -0.3263  0.3480  0.3040
  269MOL0     N36232   4.866   2.125   3.559  0.5041  0.2844 -0.1948
  269MOL0     C36233   5.401   2.988   2.958 -0.1521 -0.6317 -0.2295
  269MOL0     C36234   5.508   3.082   2.972 -0.0384  0.3322  0.3807
  269MOL0     C36235   5.909   3.243   3.169  0.0422 -0.5922  0.9188
  269MOL0     C36236   5.977   3.276   3.056 -0.7082 -0.4529 -0.9342
  269MOL0     C36237   6.105   3.334   3.059  0.6998 -0.4921  0.1554
  269MOL0     C36238   6.166   3.368   3.182  0.1996  0.1813 -0.2644
  269MOL0     O36239   6.286   3.428   3.173  0.3887 -0.0837 -0.8208
  269MOL0     C36240   6.378   3.408   3.277  0.6845  0.1483 -0.7292
  269MOL0     C36241   6.521   3.426   3.231 -0.0268  0.0499 -0.2336
  269MOL0     C36242   6.532   3.572   3.205  0.8324 -0.3527 -0.5198
  269MOL0     C36243   6.658   3.637   3.158  0.3831 -0.3227 -0.2382
  269MOL0     C36244   6.709   3.591   3.032 -0.1042  0.0215  0.9488
  269MOL0     C36245   6.766   3.563   2.932  0.4324 -0.9359  0.5627
  269MOL0     C36246   6.095   3.345   3.306 -0.7529 -0.3091 -0.5372
  269MOL0     C36247   5.971   3.274   3.297  0.2755 -0.4307  0.1128
  269MOL0     H36248   5.700   2.913   3.192  0.1001 -0.1804  0.2759
  269MOL0     H36249   5.507   2.745   3.169  0.0435 -0.1776 -0.4052
  269MOL0     H36250   5.144   2.854   3.138 -0.0823 -0.0283 -0.3995
  269MOL0     H36251   5.128   2.882   2.956  0.9267  0.7620 -0.1007
  269MOL0     H36252   4.977   2.725   3.023 -0.2084  2.0537 -0.6130
  269MOL0     H36253   5.086   2.680   2.898 -0.6523  0.4016  0.0039
  269MOL0     H36254   5.045   2.483   3.072  1.0423 -0.1746 -3.0194
  269MOL0     H36255   5.209   2.518   3.059 -0.0913 -0.2470  1.3592
  269MOL0     H36256   5.213   2.623   3.276  2.5864 -0.8591 -3.6853
  269MOL0     H36257   5.050   2.667   3.265  1.8890  2.3772 -2.7950
  269MOL0     H36258   5.059   2.482   3.428 -1.1803 -1.1824 -0.1519
  269MOL0     H36259   4.988   2.416   3.277 -0.4169  1.6415 -0.5332
  269MOL0     H36260   5.196   2.328   3.218 -0.5469 -0.4054 -0.7307
  269MOL0     H36261   5.275   2.397   3.363 -1.0823 -0.6741 -0.1958
  269MOL0     H36262   5.236   2.178   3.444 -0.7561 -0.8719  0.4560
  269MOL0     H36263   5.118   2.284   3.522  2.0190  1.2320  0.3307
  269MOL0     H36264   5.080   2.063   3.319  3.0953 -2.0990  3.0294
  269MOL0     H36265   4.974   2.203   3.325 -3.7169 -3.3609  1.7089
  269MOL0     H36266   5.125   1.921   3.555  0.3607  0.9199  3.7985
  269MOL0     H36267   4.845   1.875   3.826 -0.2666 -2.9512  1.1862
  269MOL0     H36268   4.921   1.755   3.730  2.3052 -0.7722 -0.2853
  269MOL0     H36269   5.080   1.968   3.891  1.4204 -0.5307 -0.3360
  269MOL0     H36270   5.154   1.855   3.805 -0.4038  1.5904  0.0685
  269MOL0     H36271   4.952   1.821   4.041 -0.0170  2.9783 -1.8604
  269MOL0     H36272   5.122   1.785   4.056 -1.2695 -1.4100  1.8810
  269MOL0     H36273   4.906   1.619   3.913  0.0914  0.6543 -0.6039
  269MOL0     H36274   4.981   1.591   4.067 -0.4944  2.4582  0.8589
  269MOL0     H36275   4.970   1.372   4.028 -0.1044 -0.5430 -0.2238
  269MOL0     H36276   4.965   1.046   4.021 -0.9726 -1.0122  0.2240
  269MOL0     H36277   5.077   1.055   4.164  1.0803  0.4914 -0.6134
  269MOL0     H36278   4.950   1.173   4.138 -0.2521  0.3899 -1.4106
  269MOL0     H36279   5.662   0.968   3.943  2.9195  0.5505 -3.2169
  269MOL0     H36280   5.793   0.745   3.921  0.0503 -1.2364 -1.6452
  269MOL0     H36281   5.601   0.440   4.009 -2.9055 -1.1568 -0.0857
  269MOL0     H36282   5.539   0.371   3.865  0.5131 -2.1256 -0.2423
  269MOL0     H36283   5.678   0.210   3.842  1.4769 -1.9048  0.4313
  269MOL0     H36284   5.828   0.305   3.864  0.5797 -1.0654 -1.7478
  269MOL0     H36285   5.635   0.237   4.093  0.1088 -0.9913  0.1944
  269MOL0     H36286   5.792   0.313   4.101  1.2083 -1.9176  0.5801
  269MOL0     H36287   5.754   0.056   4.164  1.4168  0.1768  0.8022
  269MOL0     H36288   5.771   0.044   3.980  1.8196 -1.8547 -0.0717
  269MOL0     H36289   5.979   0.155   4.166 -1.7140 -0.9520 -0.5296
  269MOL0     H36290   6.002   0.148   3.994 -0.4157  1.5560  1.1920
  269MOL0     H36291   5.912  -0.109   4.048 -1.4370  1.3339  0.2580
  269MOL0     H36292   6.080  -0.061   4.029  0.0223 -0.9917  0.0021
  269MOL0     H36293   5.917  -0.073   4.290 -1.5237 -2.4615 -0.9542
  269MOL0     H36294   6.081  -0.027   4.289  1.4108 -2.6492  1.4837
  269MOL0     H36295   5.990  -0.296   4.171 -1.7276 -1.2330  2.1559
  269MOL0     H36296   6.026  -0.267   4.346 -1.9045  1.0012  0.4807
  269MOL0     H36297   5.425   0.552   3.796 -0.9751  0.9286 -0.4151
  269MOL0     H36298   5.315   0.754   3.804  0.1962 -0.0959 -0.4553
  269MOL0     H36299   5.396   1.228   3.832  0.0960  1.9765 -1.4017
  269MOL0     H36300   5.337   1.450   3.803  1.0081 -1.5713 -1.0418
  269MOL0     H36301   5.316   3.029   2.905 -0.1044  3.2999  2.3109
  269MOL0     H36302   5.495   3.172   2.912 -2.1195 -0.7182 -0.8799
  269MOL0     H36303   5.936   3.246   2.960 -0.6298  0.4529 -1.2629
  269MOL0     H36304   6.156   3.364   2.967 -0.8925  0.0013 -0.5982
  269MOL0     H36305   6.359   3.477   3.360  2.6796 -2.0282  1.7381
  269MOL0     H36306   6.361   3.310   3.323 -0.7460  0.2537 -0.9986
  269MOL0     H36307   6.539   3.363   3.144  1.8542 -0.0443  0.1795
  269MOL0     H36308   6.596   3.398   3.305  2.3246  0.9598 -2.1585
  269MOL0     H36309   6.496   3.621   3.295 -0.4600 -1.1158 -0.6018
  269MOL0     H36310   6.452   3.585   3.131  1.7639 -2.2352 -1.9603
  269MOL0     H36311   6.738   3.607   3.227 -1.9860 -2.3433  1.8812
  269MOL0     H36312   6.642   3.744   3.166 -0.7601 -0.6227  3.6941
  269MOL0     H36313   6.796   3.537   2.833 -1.7703 -0.8627 -0.1611
  269MOL0     H36314   6.130   3.374   3.404  1.1856  0.5182 -1.4167
  269MOL0     H36315   5.924   3.234   3.385  0.0135  1.1088  0.7044
  270MOL0     O36316   6.768  10.902   0.317  0.6821  0.4716 -0.0767
  270MOL0     C36317   6.795  10.969   0.214 -0.7704 -0.4099 -0.5954
  270MOL0     O36318   6.717  11.069   0.169 -0.2374  0.0044 -0.3469
  270MOL0     C36319   6.597  11.104   0.232 -0.1095 -1.3110  1.2526
  270MOL0     C36320   6.484  11.109   0.148  0.1871 -0.3736 -0.4077
  270MOL0     C36321   6.357  11.141   0.197 -0.3150 -0.1958  0.3961
  270MOL0     C36322   6.346  11.144   0.340  0.4455  0.5736 -0.5798
  270MOL0     O36323   6.227  11.174   0.399  0.3201  0.1825  0.5978
  270MOL0     C36324   6.117  11.244   0.334  0.2842  0.1545  0.7561
  270MOL0     C36325   6.015  11.282   0.441  0.9696 -1.4369  0.2953
  270MOL0     C36326   5.890  11.348   0.369 -0.3953 -0.0331 -1.0595
  270MOL0     C36327   5.763  11.360   0.458  0.3164 -0.8382 -0.6613
  270MOL0     C36328   5.783  11.461   0.569 -0.1717  0.9493 -0.2554
  270MOL0     C36329   5.671  11.441   0.672 -0.1912 -0.4820 -0.1819
  270MOL0     C36330   5.665  11.552   0.768  0.0872 -1.1418  0.1749
  270MOL0     C36331   5.547  11.561   0.863  0.5248  0.4220 -0.7715
  270MOL0     N36332   5.560  11.651   0.974  0.7296 -0.0018 -0.4655
  270MOL0     C36333   5.640  11.765   0.989 -0.6163 -0.0293  0.9799
  270MOL0     C36334   5.641  11.798   1.119  1.0829  0.3321 -0.9200
  270MOL0     C36335   5.727  11.909   1.183  0.5866 -0.2442 -0.8327
  270MOL0     C36336   5.860  11.856   1.240 -0.8572 -0.2823  0.3414
  270MOL0     C36337   5.954  11.963   1.299  0.9018  0.7120 -0.0764
  270MOL0     C36338   6.031  12.048   1.200 -0.7949 -0.0820  0.8597
  270MOL0     O36339   6.102  12.151   1.272  0.6857  0.6777 -0.1937
  270MOL0     C36340   6.222  12.113   1.333  0.0417 -0.7180 -0.9291
  270MOL0     C36341   6.340  12.089   1.252  0.3688  0.4743 -0.6566
  270MOL0     C36342   6.449  12.036   1.316 -0.8153 -0.4116  0.0258
  270MOL0     C36343   6.572  12.006   1.228 -0.5121  0.1645  0.0392
  270MOL0     C36344   6.459  12.031   1.461  0.1100  0.4935  0.1010
  270MOL0     C36345   6.564  11.962   1.530  0.0643 -0.2581 -0.1842
  270MOL0     O36346   6.605  12.033   1.644 -0.6985 -0.2532 -0.7778
  270MOL0     C36347   6.710  11.985   1.724 -0.4871  0.3960 -0.4456
  270MOL0     C36348   6.819  12.083   1.732  0.0769 -1.0488 -0.8139
  270MOL0     C36349   6.933  12.055   1.806 -0.7112  0.4422  0.7731
  270MOL0     C36350   6.939  11.940   1.879 -0.5921  0.6817  0.7578
  270MOL0     O36351   7.051  11.902   1.952  0.0994 -0.2342 -0.3621
  270MOL0     C36352   7.147  11.826   1.877 -0.6209  0.0895 -0.2964
  270MOL0     C36353   7.260  11.779   1.971 -0.7196 -0.8050  0.1014
  270MOL0     C36354   7.368  11.668   1.939  0.2453 -0.0638 -0.0811
  270MOL0     C36355   7.465  11.727   1.837 -0.1509 -0.0314 -0.1904
  270MOL0     C36356   7.552  11.612   1.792  0.5239  0.5132 -0.2310
  270MOL0     C36357   7.624  11.651   1.666 -0.1569  0.1212  0.4060
  270MOL0     C36358   7.698  11.529   1.609 -0.2530  0.0823  0.2308
  270MOL0     C36359   7.783  11.567   1.487  0.0115 -0.4271  0.2506
  270MOL0    Cl36360   7.911  11.687   1.505  0.0298 -0.1806  0.2752
  270MOL0     C36361   6.839  11.848   1.879 -0.2353 -0.2441 -0.3109
  270MOL0     C36362   6.729  11.868   1.797 -1.1904  0.1199  1.1314
  270MOL0     O36363   6.616  11.867   1.477 -0.0268 -0.2019  0.8262
  270MOL0     C36364   6.344  12.059   1.534  1.1754  0.1206  0.9042
  270MOL0     C36365   6.222  12.103   1.467 -0.0459 -0.2863 -0.3312
  270MOL0     N36366   5.551  11.716   1.184 -0.1348  0.2342  0.1176
  270MOL0     N36367   5.501  11.629   1.097 -0.6845  0.0383  0.4157
  270MOL0     C36368   6.449  11.135   0.427 -0.8659  0.4089  0.1708
  270MOL0     C36369   6.575  11.109   0.367  0.4349  0.0665 -0.4496
  270MOL0     C36370   6.918  10.942   0.136 -0.1288  0.0857 -0.7157
  270MOL0     C36371   6.945  11.029   0.027 -0.1225 -0.7719 -0.5643
  270MOL0     C36372   7.040  11.000  -0.069  0.3959 -0.1683 -0.6359
  270MOL0     C36373   7.120  10.884  -0.049 -0.8553 -0.3347  0.3929
  270MOL0     O36374   7.204  10.834  -0.140 -0.3309  1.0289 -0.3279
  270MOL0     C36375   7.228  10.900  -0.259  0.2552 -0.1692  0.2558
  270MOL0     C36376   7.328  10.818  -0.345  0.2339  1.1387  1.2206
  270MOL0     C36377   7.472  10.836  -0.312 -0.8148  0.0983  0.4875
  270MOL0     C36378   7.501  10.979  -0.263  0.2584  0.6316  0.1502
  270MOL0     C36379   7.640  11.024  -0.289 -0.0236 -0.5860 -0.0301
  270MOL0     C36380   7.759  11.062  -0.289 -0.1371  0.5999 -0.2998
  270MOL0     C36381   7.107  10.809   0.063  0.8433 -0.2763  1.4982
  270MOL0     C36382   7.012  10.840   0.154 -0.1093 -0.4749 -0.4850
  270MOL0     H36383   6.489  11.102   0.039 -3.2690 -0.1283 -0.6995
  270MOL0     H36384   6.278  11.146   0.123 -0.2525  0.3492  0.3650
  270MOL0     H36385   6.148  11.337   0.284 -1.5655 -1.2506 -3.4262
  270MOL0     H36386   6.079  11.170   0.264 -0.6328  2.0443 -0.8631
  270MOL0     H36387   5.988  11.206   0.515  1.8914 -0.2753  1.8998
  270MOL0     H36388   6.070  11.355   0.501  1.2470 -0.1830 -1.4096
  270MOL0     H36389   5.919  11.443   0.323  3.5034 -1.0266 -0.9885
  270MOL0     H36390   5.850  11.276   0.297  0.0451 -0.9923 -0.3683
  270MOL0     H36391   5.674  11.389   0.402 -0.5648  1.1783  1.6164
  270MOL0     H36392   5.757  11.259   0.500 -1.0594 -1.0007 -1.1905
  270MOL0     H36393   5.879  11.457   0.622  0.2066  2.2769 -0.8093
  270MOL0     H36394   5.783  11.561   0.526 -0.9142  0.2318 -2.0384
  270MOL0     H36395   5.574  11.438   0.621 -1.6477 -3.2156  2.4343
  270MOL0     H36396   5.677  11.345   0.724 -1.3751 -1.6124 -2.0151
  270MOL0     H36397   5.766  11.557   0.809  2.0915 -0.5038 -4.1807
  270MOL0     H36398   5.664  11.638   0.700  0.1307 -0.8034  0.6018
  270MOL0     H36399   5.535  11.461   0.907  2.8392  0.2363 -0.4148
  270MOL0     H36400   5.450  11.579   0.816  0.2607 -1.5971 -1.1049
  270MOL0     H36401   5.700  11.802   0.907 -0.8555 -0.0678  0.7879
  270MOL0     H36402   5.743  11.970   1.094 -1.4299  0.1039 -1.0063
  270MOL0     H36403   5.671  11.970   1.254  0.4629  0.0523 -1.1838
  270MOL0     H36404   5.915  11.797   1.167 -1.2899 -3.5902  2.4873
  270MOL0     H36405   5.829  11.782   1.314  1.8034 -2.0574 -0.1951
  270MOL0     H36406   6.034  11.917   1.359  0.8383 -1.9872 -1.8709
  270MOL0     H36407   5.898  12.015   1.377 -2.2536 -0.2435 -1.5323
  270MOL0     H36408   5.966  12.106   1.133 -0.0262 -0.5442 -0.3083
  270MOL0     H36409   6.102  12.000   1.132  0.1560  2.3728  0.0104
  270MOL0     H36410   6.341  12.113   1.146 -2.5280  0.1260 -0.8342
  270MOL0     H36411   6.558  12.021   1.120  4.7271 -1.3757 -1.1168
  270MOL0     H36412   6.661  12.065   1.252  0.4139 -0.7669 -0.9683
  270MOL0     H36413   6.596  11.901   1.245  1.0237  0.9060  3.0870
  270MOL0     H36414   6.792  12.170   1.674 -3.2338 -1.3109  0.1259
  270MOL0     H36415   7.021  12.118   1.798  0.8905 -1.8086 -0.1612
  270MOL0     H36416   7.107  11.733   1.836  0.7419  0.4068 -2.5668
  270MOL0     H36417   7.182  11.886   1.792 -0.2216  0.5239  0.1629
  270MOL0     H36418   7.328  11.860   2.000 -1.0976 -0.5106  0.1651
  270MOL0     H36419   7.200  11.760   2.061  0.0711  2.0699  1.3734
  270MOL0     H36420   7.321  11.577   1.903  0.4190 -0.0588 -0.3206
  270MOL0     H36421   7.415  11.644   2.035  0.6452 -0.2431 -0.3207
  270MOL0     H36422   7.415  11.774   1.752  0.6359  1.4458  0.1376
  270MOL0     H36423   7.529  11.799   1.888  1.5978 -1.2483 -0.5582
  270MOL0     H36424   7.492  11.521   1.775  0.8453 -0.3381  2.6317
  270MOL0     H36425   7.629  11.589   1.866  1.5141  3.7163 -0.1502
  270MOL0     H36426   7.562  11.685   1.583  0.8347 -2.1663 -1.3798
  270MOL0     H36427   7.709  11.717   1.685  0.9910 -0.7989 -1.2723
  270MOL0     H36428   7.617  11.460   1.587 -1.8468  1.5545  1.2147
  270MOL0     H36429   7.760  11.480   1.685 -0.0735 -3.0302 -1.7762
  270MOL0     H36430   7.836  11.477   1.456  1.0022 -1.5064  4.4822
  270MOL0     H36431   7.709  11.605   1.416 -1.7468  1.3499  2.8219
  270MOL0     H36432   6.837  11.760   1.944 -1.2891 -0.9212 -1.2236
  270MOL0     H36433   6.652  11.792   1.790 -3.8780  2.3875  3.7488
  270MOL0     H36434   6.318  12.041   1.638 -1.7656 -0.2724  0.2084
  270MOL0     H36435   6.141  12.119   1.537 -0.1778 -0.1481 -0.5153
  270MOL0     H36436   6.434  11.158   0.532  1.6703 -1.2635  0.9901
  270MOL0     H36437   6.640  11.073   0.447 -2.7907 -3.5647  0.8292
  270MOL0     H36438   6.880  11.114   0.005  1.6968  0.7447 -0.3161
  270MOL0     H36439   7.062  11.056  -0.160 -1.0996  0.5280 -0.6082
  270MOL0     H36440   7.130  10.895  -0.306  0.8573 -1.7078 -0.9085
  270MOL0     H36441   7.257  11.005  -0.243  2.7454 -1.2116  3.9205
  270MOL0     H36442   7.312  10.847  -0.449 -1.8146 -1.6520  0.6628
  270MOL0     H36443   7.303  10.712  -0.339  0.0791  1.0638 -0.3909
  270MOL0     H36444   7.534  10.814  -0.400  0.8654  1.9092  1.1562
  270MOL0     H36445   7.495  10.753  -0.245 -0.7137 -0.5530 -0.3287
  270MOL0     H36446   7.490  10.988  -0.155 -1.9367 -0.8731  0.1057
  270MOL0     H36447   7.437  11.049  -0.317 -1.1430 -1.6139 -1.2356
  270MOL0     H36448   7.860  11.095  -0.299  0.0609  1.2920  2.9774
  270MOL0     H36449   7.154  10.712   0.053  2.5745  0.6042  0.4445
  270MOL0     H36450   7.005  10.770   0.236 -2.1506 -0.7620 -0.8630
  271MOL0     O36451   4.087   8.849   4.756 -0.8231  0.0503  0.7567
  271MOL0     C36452   4.023   8.757   4.693 -0.1013 -0.6471 -0.7679
  271MOL0     O36453   4.078   8.645   4.629 -0.7281  0.2834 -0.0506
  271MOL0     C36454   4.204   8.619   4.661 -0.1284  1.3155 -0.3922
  271MOL0     C36455   4.298   8.598   4.564  0.3650 -0.3886  0.3638
  271MOL0     C36456   4.435   8.564   4.595  0.8822  0.0475 -0.7534
  271MOL0     C36457   4.473   8.538   4.728 -0.2835  0.1693 -0.3454
  271MOL0     O36458   4.601   8.506   4.766 -0.1564  0.9395  0.4820
  271MOL0     C36459   4.655   8.379   4.724 -0.7941 -0.1368 -0.0310
  271MOL0     C36460   4.687   8.284   4.837  0.4619 -0.3374 -0.2003
  271MOL0     C36461   4.803   8.340   4.925  0.5992  1.4993 -1.1008
  271MOL0     C36462   4.940   8.351   4.864  1.6466  0.5031 -0.2933
  271MOL0     C36463   5.046   8.239   4.899 -0.2786 -0.0777 -0.5645
  271MOL0     C36464   5.017   8.108   4.825 -0.2127  0.6498 -0.1278
  271MOL0     C36465   5.016   8.100   4.674  0.1504 -1.0690  0.0448
  271MOL0     C36466   5.152   8.088   4.603  0.6164 -0.4797 -0.5179
  271MOL0     N36467   5.223   7.967   4.631  0.3378  0.1336  0.2320
  271MOL0     C36468   5.229   7.862   4.542 -1.0981 -0.2690 -0.2401
  271MOL0     C36469   5.309   7.775   4.602  0.2206 -0.0859  0.3493
  271MOL0     C36470   5.330   7.635   4.557 -0.7340 -0.1347  0.5050
  271MOL0     C36471   5.422   7.639   4.428  1.8637  0.3376 -0.3848
  271MOL0     C36472   5.561   7.693   4.454  0.7129  0.3474  0.5695
  271MOL0     C36473   5.655   7.623   4.565  0.6999 -1.0615 -0.4447
  271MOL0     O36474   5.786   7.681   4.540 -0.6828  0.2116 -0.0516
  271MOL0     C36475   5.891   7.628   4.608  0.4267 -0.0508  0.2083
  271MOL0     C36476   5.897   7.626   4.751 -0.3659  0.4501 -0.2438
  271MOL0     C36477   6.003   7.566   4.819  0.0547  0.4979 -0.5225
  271MOL0     C36478   5.992   7.555   4.964  0.4121  0.2946  0.1061
  271MOL0     C36479   6.116   7.514   4.747  0.4391 -0.2745 -1.0060
  271MOL0     C36480   6.229   7.436   4.815  0.6030  0.3219  0.8099
  271MOL0     O36481   6.292   7.347   4.732 -0.4726  0.2962 -0.1400
  271MOL0     C36482   6.406   7.283   4.781  0.1374  0.4515  0.6374
  271MOL0     C36483   6.538   7.318   4.755  0.4444  1.1279  0.2776
  271MOL0     C36484   6.648   7.235   4.792 -0.0483  0.3337  0.6147
  271MOL0     C36485   6.619   7.109   4.855  0.6003  0.7111 -0.2062
  271MOL0     O36486   6.713   7.008   4.889  0.3196 -0.6137  0.0116
  271MOL0     C36487   6.837   7.006   4.820  0.2642 -0.3452 -0.1592
  271MOL0     C36488   6.937   6.902   4.874 -1.3630 -0.1393 -0.0033
  271MOL0     C36489   6.937   6.768   4.804 -0.8087  0.1685  0.5229
  271MOL0     C36490   6.819   6.676   4.826 -0.3362 -0.3787 -0.3387
  271MOL0     C36491   6.712   6.691   4.725  0.1065  0.2278 -0.0585
  271MOL0     C36492   6.738   6.627   4.589 -0.4857  0.8781 -0.5781
  271MOL0     C36493   6.618   6.641   4.505 -0.7098 -0.4457  0.3645
  271MOL0     C36494   6.617   6.768   4.416 -0.1198 -0.4489 -0.6982
  271MOL0    Cl36495   6.460   6.795   4.333  0.1509  0.0592  0.2049
  271MOL0     C36496   6.486   7.079   4.878  0.3216 -0.1060 -0.5883
  271MOL0     C36497   6.384   7.166   4.848  0.0143 -0.0935  0.1620
  271MOL0     O36498   6.247   7.440   4.937  0.1935 -0.8106  0.1435
  271MOL0     C36499   6.101   7.505   4.607 -0.0159  0.0650 -0.1767
  271MOL0     C36500   5.991   7.558   4.533  0.6231  0.2147 -0.5595
  271MOL0     N36501   5.350   7.823   4.726 -0.6102  1.3720  0.5981
  271MOL0     N36502   5.299   7.942   4.744 -0.5775  0.0136  0.1793
  271MOL0     C36503   4.369   8.555   4.825  0.5748  0.0256 -0.3457
  271MOL0     C36504   4.244   8.601   4.795 -0.1386  0.6479  0.5682
  271MOL0     C36505   3.874   8.763   4.683 -0.0713  0.5851  0.5483
  271MOL0     C36506   3.809   8.679   4.586 -0.3377 -0.3889 -0.7063
  271MOL0     C36507   3.676   8.691   4.571  1.1393  0.8058 -0.0421
  271MOL0     C36508   3.595   8.769   4.658 -0.9205  0.1400  0.2614
  271MOL0     O36509   3.463   8.766   4.648 -0.3968  0.1875  0.3262
  271MOL0     C36510   3.398   8.681   4.552 -0.0433 -0.4235 -0.6326
  271MOL0     C36511   3.251   8.734   4.556 -0.8286 -0.6597  0.2343
  271MOL0     C36512   3.178   8.643   4.459 -0.6343 -0.4509  0.1428
  271MOL0     C36513   3.029   8.662   4.457  0.1989  0.0970 -0.4665
  271MOL0     C36514   2.961   8.650   4.589 -0.1302  0.3824  0.0851
  271MOL0     C36515   2.893   8.658   4.689  0.4756 -0.4327  0.2544
  271MOL0     C36516   3.655   8.853   4.756  0.7982  0.8080 -0.4654
  271MOL0     C36517   3.788   8.840   4.770 -0.9604  0.0515  0.1977
  271MOL0     H36518   4.289   8.627   4.459 -1.2853 -0.4977  0.4506
  271MOL0     H36519   4.514   8.557   4.521  0.9189 -1.6126 -0.6081
  271MOL0     H36520   4.578   8.336   4.659  0.0783  0.4210 -1.4925
  271MOL0     H36521   4.742   8.383   4.657  0.5875  4.2694  1.6797
  271MOL0     H36522   4.602   8.276   4.905  1.1860  0.2310  0.7951
  271MOL0     H36523   4.717   8.185   4.802  0.3266 -0.6704  0.6026
  271MOL0     H36524   4.768   8.438   4.958 -1.3471  0.0040  1.7005
  271MOL0     H36525   4.811   8.268   5.007 -0.2745  2.6417  0.0229
  271MOL0     H36526   4.926   8.346   4.755  3.9195 -1.8664 -0.5724
  271MOL0     H36527   4.989   8.448   4.875 -1.0042  1.8148  0.7144
  271MOL0     H36528   5.150   8.262   4.875 -0.6723  1.3431 -0.9795
  271MOL0     H36529   5.037   8.215   5.005 -3.1151 -1.7670 -1.0793
  271MOL0     H36530   5.089   8.036   4.863 -0.5312  0.5674  0.3326
  271MOL0     H36531   4.922   8.066   4.861  0.5899 -0.9002  0.2564
  271MOL0     H36532   4.947   8.022   4.640  0.8120 -0.7314 -2.2806
  271MOL0     H36533   4.977   8.193   4.630 -2.0033 -1.5215  0.8636
  271MOL0     H36534   5.212   8.170   4.645 -0.7396 -1.6156  4.2898
  271MOL0     H36535   5.134   8.103   4.496 -2.3413 -1.1221 -0.1989
  271MOL0     H36536   5.191   7.860   4.441  0.4252  2.2084 -0.9462
  271MOL0     H36537   5.386   7.584   4.635  1.7748  1.2116 -0.3038
  271MOL0     H36538   5.240   7.572   4.549 -0.8130  0.1270 -0.9809
  271MOL0     H36539   5.369   7.706   4.359  0.1362 -0.1035  0.4647
  271MOL0     H36540   5.424   7.538   4.385  2.2697  0.8807 -1.6842
  271MOL0     H36541   5.554   7.796   4.489 -0.8287 -0.2352  2.0551
  271MOL0     H36542   5.613   7.682   4.358 -1.2297 -2.7121 -0.2914
  271MOL0     H36543   5.633   7.516   4.567  1.0057 -1.2407 -3.0250
  271MOL0     H36544   5.623   7.656   4.664 -1.2127 -0.6628 -1.1443
  271MOL0     H36545   5.816   7.675   4.803  0.5715  1.2824  0.4705
  271MOL0     H36546   6.084   7.602   4.997  1.2603 -2.4441  2.0147
  271MOL0     H36547   5.913   7.618   5.004  1.4834  1.1588  0.8933
  271MOL0     H36548   5.995   7.457   5.013  1.6276  1.4754  2.5739
  271MOL0     H36549   6.556   7.413   4.706  1.8060  0.2672 -0.9820
  271MOL0     H36550   6.750   7.270   4.779  0.0201 -0.1618 -0.1806
  271MOL0     H36551   6.829   6.992   4.712  1.9484  1.9917 -0.6700
  271MOL0     H36552   6.882   7.105   4.834  0.2193 -0.7194  3.6480
  271MOL0     H36553   7.035   6.949   4.857 -0.0560 -2.3776  0.9517
  271MOL0     H36554   6.934   6.887   4.982  3.6787 -1.4098  0.1951
  271MOL0     H36555   7.025   6.706   4.820 -0.8345 -0.1820 -0.6297
  271MOL0     H36556   6.941   6.788   4.697 -2.0131 -0.6345  0.3136
  271MOL0     H36557   6.853   6.572   4.829 -0.4295 -0.3976  0.2670
  271MOL0     H36558   6.775   6.713   4.919 -2.9909  1.7487 -2.2557
  271MOL0     H36559   6.675   6.791   4.699 -0.9202 -0.9744 -3.7825
  271MOL0     H36560   6.626   6.642   4.772  2.7625 -0.4090  4.9239
  271MOL0     H36561   6.819   6.683   4.541  1.0400 -0.9636 -0.2644
  271MOL0     H36562   6.774   6.524   4.599 -1.7601  0.5893  1.8418
  271MOL0     H36563   6.528   6.648   4.567 -0.0311 -0.5830  1.3855
  271MOL0     H36564   6.613   6.559   4.433 -3.0249 -0.1254  0.0818
  271MOL0     H36565   6.703   6.764   4.348  1.1356 -0.8262  0.8330
  271MOL0     H36566   6.632   6.854   4.483 -0.9159 -1.0069  0.2325
  271MOL0     H36567   6.460   6.982   4.921  0.8221 -0.8378 -1.8849
  271MOL0     H36568   6.282   7.128   4.852 -0.3308  0.8028  0.0954
  271MOL0     H36569   6.176   7.459   4.543  0.6937  1.9285 -0.7768
  271MOL0     H36570   5.981   7.552   4.425  2.3196  3.5345 -1.0161
  271MOL0     H36571   4.384   8.532   4.930 -1.4659 -1.0562 -0.2478
  271MOL0     H36572   4.168   8.602   4.873  0.0225 -1.4693  0.8137
  271MOL0     H36573   3.859   8.602   4.527 -0.0560 -0.5558 -0.2547
  271MOL0     H36574   3.631   8.625   4.498 -0.7651 -0.1438  1.8745
  271MOL0     H36575   3.440   8.681   4.451 -0.1516 -0.6815 -0.6776
  271MOL0     H36576   3.404   8.576   4.583  2.4602 -0.3795 -0.7645
  271MOL0     H36577   3.244   8.839   4.527  0.4948 -0.7672 -0.5929
  271MOL0     H36578   3.206   8.724   4.655 -1.0247  0.8402  0.3200
  271MOL0     H36579   3.199   8.540   4.489  2.8703  0.7125  2.3877
  271MOL0     H36580   3.221   8.655   4.359 -2.6014 -1.0894 -0.8180
  271MOL0     H36581   2.981   8.594   4.386 -0.0225  0.0636 -0.2867
  271MOL0     H36582   3.013   8.764   4.423  1.3991  1.5067  2.8289
  271MOL0     H36583   2.843   8.679   4.781  0.6057  1.9993 -0.1635
  271MOL0     H36584   3.602   8.920   4.822 -1.5998 -1.0539 -0.3573
  271MOL0     H36585   3.822   8.897   4.856  0.1373 -0.8363  0.3693
  272MOL0     O36586   4.629   4.709   6.088  0.4155 -0.5363  0.3486
  272MOL0     C36587   4.573   4.805   6.138 -0.6867 -0.6691 -0.0275
  272MOL0     O36588   4.445   4.801   6.180 -0.0470  0.5247 -0.0499
  272MOL0     C36589   4.373   4.682   6.163  0.1285 -0.2960  1.2410
  272MOL0     C36590   4.290   4.683   6.052 -0.4813  0.3853  0.3068
  272MOL0     C36591   4.206   4.573   6.029 -0.2729 -0.4562  0.2813
  272MOL0     C36592   4.212   4.463   6.108  0.2853  0.1144  0.2201
  272MOL0     O36593   4.142   4.351   6.085 -0.0064  0.2294  0.5993
  272MOL0     C36594   4.021   4.339   5.999 -0.0033  0.8732  0.8147
  272MOL0     C36595   3.976   4.198   6.005 -0.7539  0.2229  0.4306
  272MOL0     C36596   3.902   4.165   6.138  0.4735 -0.4813  0.3607
  272MOL0     C36597   3.876   4.015   6.165 -0.4960  0.2792  0.3023
  272MOL0     C36598   3.772   4.016   6.271  0.5359  0.5474  0.2430
  272MOL0     C36599   3.772   3.895   6.355  0.2008  0.3172 -0.1548
  272MOL0     C36600   3.666   3.895   6.475 -0.2133  0.7643 -0.3425
  272MOL0     C36601   3.678   4.019   6.564  0.0539  0.2799 -0.4803
  272MOL0     N36602   3.550   4.055   6.615 -0.8569 -0.1219  0.3726
  272MOL0     C36603   3.441   4.089   6.539  0.1279 -1.0536  0.2559
  272MOL0     C36604   3.348   4.122   6.626  1.0648  0.4086 -0.4398
  272MOL0     C36605   3.207   4.167   6.596  0.2150 -0.3810  0.4601
  272MOL0     C36606   3.192   4.320   6.619 -0.9747 -0.0023 -0.3830
  272MOL0     C36607   3.063   4.373   6.566  1.3014 -0.1817 -1.0865
  272MOL0     C36608   2.946   4.303   6.635 -0.2828  0.6292 -0.2929
  272MOL0     O36609   2.820   4.379   6.619 -0.2447 -0.7530  0.1993
  272MOL0     C36610   2.700   4.325   6.591 -0.0484  1.2928  0.2946
  272MOL0     C36611   2.586   4.393   6.620  0.7079 -0.3913 -0.8802
  272MOL0     C36612   2.462   4.344   6.588  0.8396 -0.8686  0.6544
  272MOL0     C36613   2.347   4.418   6.628 -0.6404  0.3456  0.2847
  272MOL0     C36614   2.446   4.213   6.524  0.8540  0.2707  0.2331
  272MOL0     C36615   2.317   4.162   6.475  0.6179  0.3312 -0.9855
  272MOL0     O36616   2.194   4.176   6.547  0.8341 -0.5824 -0.0218
  272MOL0     C36617   2.078   4.129   6.477 -0.7481 -0.5811 -0.5896
  272MOL0     C36618   1.970   4.213   6.483  0.6082 -0.0439 -0.1313
  272MOL0     C36619   1.860   4.171   6.404  0.7183 -0.0545 -0.5644
  272MOL0     C36620   1.854   4.051   6.329 -0.1212 -0.5705  0.4818
  272MOL0     O36621   1.736   4.032   6.259  0.1516 -0.3308 -0.1076
  272MOL0     C36622   1.737   3.928   6.156 -0.1318 -0.1027  1.0700
  272MOL0     C36623   1.638   3.960   6.047  0.6140 -1.4521  0.6474
  272MOL0     C36624   1.574   3.841   5.974  0.1639  0.1063 -0.2654
  272MOL0     C36625   1.692   3.763   5.902  0.0124 -1.1696 -0.2014
  272MOL0     C36626   1.637   3.632   5.840 -0.4626 -0.0901  0.6655
  272MOL0     C36627   1.599   3.507   5.930 -0.0771 -0.1469 -0.0024
  272MOL0     C36628   1.713   3.431   5.993  0.3829  0.1643 -0.1230
  272MOL0     C36629   1.651   3.315   6.066  0.2954 -0.9544  0.1877
  272MOL0    Cl36630   1.531   3.370   6.183 -0.2355 -0.2790 -0.5504
  272MOL0     C36631   1.965   3.967   6.338 -0.7131  0.0476  0.8414
  272MOL0     C36632   2.079   4.005   6.412  1.0939  0.0514 -0.1557
  272MOL0     O36633   2.326   4.110   6.364  0.4235 -0.2255  0.0058
  272MOL0     C36634   2.566   4.145   6.494 -0.0351  0.2302 -0.0307
  272MOL0     C36635   2.688   4.206   6.512 -0.7016  0.1050 -0.0288
  272MOL0     N36636   3.401   4.110   6.756 -0.6359  0.2497  0.1251
  272MOL0     N36637   3.510   4.050   6.747 -0.0441 -0.5191 -0.4597
  272MOL0     C36638   4.312   4.455   6.207  0.1826 -0.1337 -0.0101
  272MOL0     C36639   4.397   4.562   6.232  0.2028  0.2550  0.0179
  272MOL0     C36640   4.645   4.932   6.139  0.1582  0.5829  0.0928
  272MOL0     C36641   4.581   5.058   6.158 -0.7708 -0.4586  0.6316
  272MOL0     C36642   4.658   5.178   6.169 -0.3829 -0.2537  0.3718
  272MOL0     C36643   4.800   5.172   6.164  0.3029 -0.4270 -0.6444
  272MOL0     O36644   4.880   5.283   6.177  0.5055  0.3030  0.0859
  272MOL0     C36645   4.843   5.403   6.109  0.1418  0.6594 -0.6753
  272MOL0     C36646   4.835   5.377   5.959 -0.4090 -0.0877 -0.2375
  272MOL0     C36647   4.958   5.310   5.891 -0.5035 -0.2502 -0.5302
  272MOL0     C36648   4.944   5.316   5.739  0.0029 -0.2085 -0.2740
  272MOL0     C36649   5.055   5.243   5.675 -0.8491  0.0264  0.5079
  272MOL0     C36650   5.121   5.171   5.598  0.8190 -0.1394  0.2501
  272MOL0     C36651   4.860   5.048   6.154  0.2037 -0.0818 -0.4999
  272MOL0     C36652   4.787   4.930   6.137  0.1088 -0.2788  0.3329
  272MOL0     H36653   4.285   4.769   5.987 -0.5828 -0.6148 -1.0438
  272MOL0     H36654   4.125   4.589   5.958 -0.3400 -0.8353  0.2712
  272MOL0     H36655   3.939   4.408   6.021 -2.0168 -1.3529  0.7333
  272MOL0     H36656   4.051   4.360   5.895 -2.7499  0.0194 -0.2468
  272MOL0     H36657   3.917   4.173   5.916  0.0769  0.5597 -0.2271
  272MOL0     H36658   4.064   4.134   5.993 -1.4034 -1.0245  1.9891
  272MOL0     H36659   3.955   4.206   6.225  1.7083 -0.9396 -0.1602
  272MOL0     H36660   3.796   4.194   6.131  0.3928 -0.7966  0.2266
  272MOL0     H36661   3.856   3.951   6.079 -0.0278 -0.9480  1.0589
  272MOL0     H36662   3.976   3.978   6.193  1.1768  1.2293 -3.7441
  272MOL0     H36663   3.791   4.098   6.340 -2.2426  1.6072 -0.1182
  272MOL0     H36664   3.673   4.024   6.224  0.8969  2.1371 -0.3158
  272MOL0     H36665   3.755   3.806   6.294 -2.9783  1.6951 -1.5389
  272MOL0     H36666   3.867   3.879   6.407 -0.3082  0.5443  0.8730
  272MOL0     H36667   3.569   3.895   6.425 -1.0587  1.4348  1.2050
  272MOL0     H36668   3.678   3.796   6.520 -3.3304 -0.1870 -1.3638
  272MOL0     H36669   3.713   4.112   6.517 -1.8018  0.6617 -1.1853
  272MOL0     H36670   3.737   4.001   6.654 -1.6470  0.2535  0.6853
  272MOL0     H36671   3.426   4.088   6.432 -2.9605 -2.3539  0.5954
  272MOL0     H36672   3.174   4.136   6.497  0.7075  0.5713 -0.0165
  272MOL0     H36673   3.148   4.105   6.664  1.7701  0.4700  2.7039
  272MOL0     H36674   3.271   4.372   6.563 -1.4180 -0.0889 -1.1082
  272MOL0     H36675   3.210   4.349   6.723  2.7733  2.1773 -1.4307
  272MOL0     H36676   3.066   4.342   6.461  0.9740 -0.3973 -1.0320
  272MOL0     H36677   3.047   4.480   6.583  2.2466 -0.1082 -0.5528
  272MOL0     H36678   2.968   4.296   6.742  1.8525  1.8074 -0.5894
  272MOL0     H36679   2.929   4.199   6.606 -2.4743  0.8885 -0.0335
  272MOL0     H36680   2.606   4.487   6.670 -1.1472 -1.4943  2.1827
  272MOL0     H36681   2.371   4.511   6.681 -1.3310  1.0257 -0.5672
  272MOL0     H36682   2.275   4.441   6.549  0.5201 -3.2190 -2.0524
  272MOL0     H36683   2.302   4.363   6.712 -1.3554  0.1319 -0.2318
  272MOL0     H36684   1.977   4.309   6.533 -2.7392  1.4200 -2.1376
  272MOL0     H36685   1.771   4.230   6.423  0.1780 -1.5939  2.1646
  272MOL0     H36686   1.831   3.902   6.106 -0.1657  1.2753  0.2361
  272MOL0     H36687   1.713   3.832   6.203 -0.8284  0.0762  1.0915
  272MOL0     H36688   1.554   4.020   6.083  1.1039  0.7613 -1.5844
  272MOL0     H36689   1.689   4.016   5.967 -2.6169  0.6520 -0.1383
  272MOL0     H36690   1.506   3.880   5.898 -0.4079 -0.5919 -0.1222
  272MOL0     H36691   1.524   3.768   6.037 -3.0858  0.2750 -2.4076
  272MOL0     H36692   1.728   3.822   5.817 -1.1129 -0.7942 -0.4397
  272MOL0     H36693   1.779   3.737   5.963  0.0298 -3.7648 -1.2395
  272MOL0     H36694   1.711   3.594   5.769 -1.1906 -1.7995  0.7712
  272MOL0     H36695   1.554   3.661   5.776  1.3866 -1.7080 -2.7369
  272MOL0     H36696   1.530   3.533   6.011 -1.6682 -2.9826 -0.3324
  272MOL0     H36697   1.540   3.444   5.863  0.7110  1.3674 -2.2303
  272MOL0     H36698   1.773   3.501   6.052  1.4739  1.5014 -2.6358
  272MOL0     H36699   1.786   3.402   5.917  2.0552 -0.2898  1.5942
  272MOL0     H36700   1.726   3.266   6.128  0.4159  0.9455  1.6340
  272MOL0     H36701   1.613   3.241   5.995 -0.2664 -0.4307 -0.0704
  272MOL0     H36702   1.973   3.871   6.288 -1.1154  1.3154 -1.8231
  272MOL0     H36703   2.166   3.943   6.428 -0.1945 -1.9622 -0.5305
  272MOL0     H36704   2.560   4.049   6.445 -0.7719  1.2154 -1.9568
  272MOL0     H36705   2.778   4.160   6.474  0.2390 -0.5239  2.7511
  272MOL0     H36706   4.334   4.360   6.254 -1.2441 -0.2964  0.3774
  272MOL0     H36707   4.469   4.563   6.312 -0.8227 -2.6433  1.1271
  272MOL0     H36708   4.473   5.060   6.168 -0.9248 -1.3824 -0.6896
  272MOL0     H36709   4.610   5.275   6.176 -2.4930 -1.2991  1.4779
  272MOL0     H36710   4.748   5.443   6.146  0.8420  1.3373  0.4802
  272MOL0     H36711   4.923   5.476   6.127  0.3960  0.4556 -0.9677
  272MOL0     H36712   4.815   5.472   5.910  0.2020 -0.0304 -0.3838
  272MOL0     H36713   4.746   5.316   5.944  0.3721 -1.8695  1.8419
  272MOL0     H36714   4.956   5.206   5.926 -1.5261  0.1993  0.8471
  272MOL0     H36715   5.053   5.353   5.924  0.2949 -0.9985 -1.8116
  272MOL0     H36716   4.932   5.420   5.708 -0.0831 -0.0114  0.3874
  272MOL0     H36717   4.855   5.257   5.717 -1.1379  1.0671  0.7234
  272MOL0     H36718   5.179   5.118   5.525 -0.2115 -0.3681 -0.4310
  272MOL0     H36719   4.968   5.043   6.154  0.2190 -0.0872 -1.5203
  272MOL0     H36720   4.832   4.831   6.127  0.2217 -0.2022  0.0902
  273MOL0     O36721   8.502   9.483  10.735 -0.0072 -0.3689 -0.2812
  273MOL0     C36722   8.590   9.446  10.810  0.3130 -0.5488 -0.0264
  273MOL0     O36723   8.644   9.322  10.811 -0.6160  0.0654  0.1415
  273MOL0     C36724   8.606   9.210  10.749  0.0856  0.2611  0.4092
  273MOL0     C36725   8.471   9.188  10.711 -0.8997 -0.2208  1.3948
  273MOL0     C36726   8.428   9.063  10.663  0.6652  0.2882 -0.8638
  273MOL0     C36727   8.511   8.952  10.672  0.4634 -0.9853  1.1153
  273MOL0     O36728   8.451   8.839  10.638 -0.3066 -0.3127 -0.3110
  273MOL0     C36729   8.522   8.716  10.626 -0.6154 -0.5322  0.1247
  273MOL0     C36730   8.415   8.606  10.635 -0.1242  0.2388 -0.4857
  273MOL0     C36731   8.294   8.624  10.543 -0.3862  0.3215  0.8204
  273MOL0     C36732   8.330   8.610  10.392  0.6720  0.0083  0.4205
  273MOL0     C36733   8.247   8.699  10.298 -0.0443  0.3157  0.2449
  273MOL0     C36734   8.268   8.854  10.320  0.0775 -0.0882 -0.5700
  273MOL0     C36735   8.406   8.897  10.285  1.1391  0.2564  0.0392
  273MOL0     C36736   8.433   9.045  10.285 -0.4575 -1.2341  0.9142
  273MOL0     N36737   8.573   9.059  10.235  0.4909 -0.0877 -0.0206
  273MOL0     C36738   8.690   9.027  10.304 -0.5366  0.6367  0.4246
  273MOL0     C36739   8.790   9.035  10.216 -0.3534 -0.2717 -0.3318
  273MOL0     C36740   8.931   8.987  10.238  0.2939 -0.7022 -0.6489
  273MOL0     C36741   8.999   8.913  10.116 -0.0433  0.0732  0.6334
  273MOL0     C36742   9.132   8.853  10.162 -0.4851 -0.1715  0.0169
  273MOL0     C36743   9.192   8.766  10.046 -0.7153  0.1857 -0.2800
  273MOL0     O36744   9.132   8.638  10.017  0.0125  0.4610  1.5962
  273MOL0     C36745   9.126   8.545  10.109  0.1988  0.6226 -0.0365
  273MOL0     C36746   9.212   8.542  10.217 -0.4074  0.0489 -0.4460
  273MOL0     C36747   9.198   8.455  10.321  0.3182  0.1892  0.1332
  273MOL0     C36748   9.278   8.467  10.448  0.0206 -0.8591  0.5081
  273MOL0     C36749   9.114   8.340  10.309 -1.2552 -0.5998  0.0798
  273MOL0     C36750   9.097   8.227  10.415  0.4902  0.1978  0.5476
  273MOL0     O36751   9.188   8.191  10.506 -0.2899  0.5371 -0.8834
  273MOL0     C36752   9.162   8.128  10.626  0.5343  0.1563 -0.3517
  273MOL0     C36753   9.271   8.085  10.704 -1.0848 -0.1777  0.4488
  273MOL0     C36754   9.257   8.031  10.831  0.4657 -0.0972 -0.0017
  273MOL0     C36755   9.128   8.014  10.889 -0.3408 -0.2596  0.5057
  273MOL0     O36756   9.122   7.955  11.013 -0.1340  0.1317  0.0089
  273MOL0     C36757   9.001   7.948  11.084 -0.6830  0.0898  0.2227
  273MOL0     C36758   9.031   7.903  11.228  0.7560  0.2217  0.5683
  273MOL0     C36759   8.895   7.877  11.305 -0.1655  1.2478 -0.4726
  273MOL0     C36760   8.828   7.752  11.260  0.1089  0.0730 -0.0211
  273MOL0     C36761   8.696   7.760  11.185 -0.7472  0.2924  0.1669
  273MOL0     C36762   8.585   7.824  11.278 -0.2160  0.5613 -0.1434
  273MOL0     C36763   8.448   7.824  11.201  0.0167  0.5926  0.4142
  273MOL0     C36764   8.341   7.878  11.287 -0.1150  0.5339 -0.9150
  273MOL0    Cl36765   8.392   8.047  11.321  0.2471 -0.0930 -0.2717
  273MOL0     C36766   9.015   8.056  10.813  0.0578  0.3272 -0.6407
  273MOL0     C36767   9.035   8.111  10.686 -0.1833  0.6049  0.0276
  273MOL0     O36768   8.987   8.172  10.411  0.2848  0.4002 -0.3375
  273MOL0     C36769   9.026   8.347  10.196 -0.2103  0.2791 -0.5126
  273MOL0     C36770   9.035   8.443  10.098  0.0405 -0.7582 -0.2423
  273MOL0     N36771   8.734   9.083  10.097 -0.7880  0.0200  0.4095
  273MOL0     N36772   8.617   9.104  10.111  1.4148 -0.8571 -0.2760
  273MOL0     C36773   8.642   8.971  10.727  0.0564  0.1891 -0.3494
  273MOL0     C36774   8.689   9.092  10.767 -0.0273  0.4734  0.5515
  273MOL0     C36775   8.657   9.548  10.890  0.3151 -0.3905 -0.3501
  273MOL0     C36776   8.748   9.505  10.983  0.4348 -0.0194  0.0517
  273MOL0     C36777   8.817   9.587  11.069  0.1361  0.2519  0.0901
  273MOL0     C36778   8.795   9.726  11.059  0.3426  0.2887  0.3510
  273MOL0     O36779   8.864   9.820  11.128 -0.4219 -0.0234  0.4993
  273MOL0     C36780   8.973   9.792  11.212 -0.2308  0.0665 -0.3765
  273MOL0     C36781   8.901   9.769  11.353  0.0554  0.2241  0.0643
  273MOL0     C36782   8.862   9.908  11.397 -1.1219 -1.3540 -0.3054
  273MOL0     C36783   8.815   9.910  11.539 -0.9014 -0.5790 -0.7339
  273MOL0     C36784   8.683   9.843  11.570  0.1714  0.7247  0.6253
  273MOL0     C36785   8.576   9.790  11.584  0.3827  0.2620  0.0592
  273MOL0     C36786   8.708   9.773  10.967 -0.0320  0.1364 -1.0813
  273MOL0     C36787   8.632   9.684  10.886  0.2962 -0.4831  0.4497
  273MOL0     H36788   8.402   9.271  10.719 -0.3479  0.6110 -1.3662
  273MOL0     H36789   8.327   9.048  10.625  1.0362 -1.8639 -1.1534
  273MOL0     H36790   8.581   8.711  10.534 -0.5579 -1.4302  0.1993
  273MOL0     H36791   8.589   8.700  10.711 -1.5885  1.1058  1.2380
  273MOL0     H36792   8.459   8.506  10.623 -1.4521 -1.0429  3.6271
  273MOL0     H36793   8.379   8.606  10.738 -1.1247 -0.6970 -0.8068
  273MOL0     H36794   8.226   8.542  10.568 -0.7110 -0.6630 -2.7374
  273MOL0     H36795   8.253   8.723  10.565  0.1669  0.6974  0.1940
  273MOL0     H36796   8.436   8.639  10.386  0.5307  0.2559 -1.4595
  273MOL0     H36797   8.308   8.506  10.369 -0.2505  0.1836  0.4834
  273MOL0     H36798   8.256   8.677  10.191  0.0679  2.3736 -0.2100
  273MOL0     H36799   8.142   8.677  10.318 -0.3721  0.8111 -0.8670
  273MOL0     H36800   8.199   8.898  10.247  2.0359  2.1916 -1.1821
  273MOL0     H36801   8.239   8.881  10.422  1.0973  3.8632 -1.1295
  273MOL0     H36802   8.477   8.842  10.349  1.2080  1.9475  1.5180
  273MOL0     H36803   8.420   8.860  10.183 -1.6196 -0.0477 -0.2990
  273MOL0     H36804   8.438   9.085  10.387 -0.2365 -1.1293  0.8632
  273MOL0     H36805   8.363   9.110  10.232  2.3479  0.9143 -0.3878
  273MOL0     H36806   8.687   9.006  10.411 -1.8212  0.5343  0.3882
  273MOL0     H36807   8.991   9.076  10.260  1.5622 -1.1359 -2.1434
  273MOL0     H36808   8.934   8.927  10.329  0.1015  2.2667  1.4834
  273MOL0     H36809   9.007   8.973  10.025  1.9713  1.5043  1.6651
  273MOL0     H36810   8.940   8.828  10.079 -2.9592  2.2085 -0.0002
  273MOL0     H36811   9.113   8.794  10.252  1.9714  0.3446  0.9546
  273MOL0     H36812   9.201   8.933  10.190 -2.8896  2.0753 -0.1442
  273MOL0     H36813   9.291   8.762  10.092 -0.6812  2.1666 -0.1031
  273MOL0     H36814   9.216   8.812   9.950  0.1483 -1.6191 -0.9777
  273MOL0     H36815   9.288   8.619  10.225 -1.1460  0.7758 -0.2936
  273MOL0     H36816   9.362   8.398  10.442 -0.0101 -0.8836  0.3488
  273MOL0     H36817   9.310   8.570  10.465 -1.2288 -0.4428  0.4798
  273MOL0     H36818   9.218   8.441  10.536  1.4642  1.3498  2.2898
  273MOL0     H36819   9.372   8.097  10.665  0.5877 -2.0090  3.8002
  273MOL0     H36820   9.340   7.984  10.883 -0.0289 -0.4690  0.4583
  273MOL0     H36821   8.956   8.047  11.100 -1.3165 -0.4937  2.3101
  273MOL0     H36822   8.930   7.880  11.036  1.3981 -0.5496 -2.1275
  273MOL0     H36823   9.093   7.813  11.225  1.5217  0.7748 -1.0815
  273MOL0     H36824   9.080   7.988  11.275  0.9277 -1.3266  3.4692
  273MOL0     H36825   8.829   7.962  11.288 -1.6181  0.1801 -0.3421
  273MOL0     H36826   8.920   7.876  11.412  0.2816 -1.8245 -0.5037
  273MOL0     H36827   8.897   7.695  11.198  1.5065  1.4878  0.1638
  273MOL0     H36828   8.814   7.697  11.353  0.2112  1.2188  0.6959
  273MOL0     H36829   8.673   7.658  11.152  1.9958 -1.1666  2.3514
  273MOL0     H36830   8.710   7.831  11.102 -0.3197  0.0180  0.0008
  273MOL0     H36831   8.576   7.771  11.374  0.9705 -2.2517 -1.4762
  273MOL0     H36832   8.619   7.927  11.291  0.7278  0.2681 -0.2079
  273MOL0     H36833   8.429   7.725  11.160 -2.4454  1.0792  0.2463
  273MOL0     H36834   8.467   7.894  11.120  1.9940  1.1257  1.2802
  273MOL0     H36835   8.344   7.828  11.384  4.7418 -0.2568 -1.2300
  273MOL0     H36836   8.247   7.877  11.230 -0.0054  0.4205 -1.0951
  273MOL0     H36837   8.914   8.042  10.851 -0.4698  1.2087 -1.6567
  273MOL0     H36838   8.948   8.154  10.639 -1.0868  0.4639  1.5001
  273MOL0     H36839   8.949   8.273  10.178 -0.1426 -0.1640  0.9220
  273MOL0     H36840   8.968   8.422  10.015 -0.4128 -1.7941  0.3722
  273MOL0     H36841   8.705   8.885  10.743  1.1505  1.2664  1.4536
  273MOL0     H36842   8.786   9.094  10.816 -0.8344 -1.2348  2.3634
  273MOL0     H36843   8.760   9.401  11.010 -0.4938 -0.2569 -0.3972
  273MOL0     H36844   8.889   9.537  11.133  1.0900  1.0357 -0.3386
  273MOL0     H36845   9.047   9.722  11.173  2.2414  3.4639 -2.2665
  273MOL0     H36846   9.033   9.883  11.219  1.5250 -0.9918 -1.1774
  273MOL0     H36847   8.975   9.740  11.428  2.5167  3.8025 -0.7119
  273MOL0     H36848   8.818   9.698  11.348  0.2061 -0.0518  1.3180
  273MOL0     H36849   8.789   9.951  11.328 -0.1289  0.3091 -0.3638
  273MOL0     H36850   8.947   9.977  11.396 -2.0727 -0.1345  0.6234
  273MOL0     H36851   8.797  10.015  11.563 -0.2630 -0.3567 -1.1777
  273MOL0     H36852   8.898   9.880  11.603 -1.3406  0.2544  0.2510
  273MOL0     H36853   8.486   9.733  11.578  0.5047  0.2531 -3.2460
  273MOL0     H36854   8.687   9.879  10.975 -2.7162 -0.3716 -0.1393
  273MOL0     H36855   8.562   9.736  10.820 -0.1373 -2.0919 -0.4193
  274MOL0     O36856   3.050   5.942   9.529  0.3312 -0.1378  0.0325
  274MOL0     C36857   3.167   5.901   9.531 -0.0947  0.1344  0.8148
  274MOL0     O36858   3.225   5.809   9.628 -0.2266 -0.1798  0.5320
  274MOL0     C36859   3.137   5.750   9.722  0.2808 -0.8779 -1.1630
  274MOL0     C36860   3.153   5.766   9.858  0.9546 -0.5099 -1.0051
  274MOL0     C36861   3.065   5.710   9.950 -0.6987 -0.0206  0.2003
  274MOL0     C36862   2.968   5.615   9.907 -0.7369  0.0552 -0.5399
  274MOL0     O36863   2.913   5.525   9.989  0.6392 -0.7725 -0.4886
  274MOL0     C36864   2.907   5.549  10.130 -0.4058  0.3253 -0.2954
  274MOL0     C36865   2.790   5.466  10.192 -0.9380 -0.1228  0.0442
  274MOL0     C36866   2.794   5.315  10.152  0.0409 -0.1877  0.4114
  274MOL0     C36867   2.684   5.233  10.227  0.4816  0.6076  0.4595
  274MOL0     C36868   2.681   5.091  10.195  0.5118  0.4480  0.6413
  274MOL0     C36869   2.668   5.059  10.053  0.0769 -0.0987  0.3392
  274MOL0     C36870   2.618   4.914  10.037 -0.8021 -0.1314  0.4956
  274MOL0     C36871   2.749   4.822  10.032 -0.4242  0.8009  0.1937
  274MOL0     N36872   2.784   4.789   9.896  0.2112  0.5906  0.0217
  274MOL0     C36873   2.883   4.838   9.814 -0.1339 -0.1473  0.3686
  274MOL0     C36874   2.857   4.799   9.688  0.5949  0.6111  0.2309
  274MOL0     C36875   2.933   4.840   9.562 -0.1324  0.3459  0.6068
  274MOL0     C36876   3.048   4.749   9.522 -0.3946 -1.0560  0.5484
  274MOL0     C36877   2.999   4.654   9.414  0.4491  0.0695 -0.9700
  274MOL0     C36878   3.120   4.575   9.361 -0.0147 -0.7306 -1.0927
  274MOL0     O36879   3.080   4.441   9.325 -0.3433  0.9021  0.7167
  274MOL0     C36880   3.002   4.428   9.216 -0.2773 -0.5443  0.4772
  274MOL0     C36881   2.892   4.353   9.236 -0.8471  0.9153  0.1979
  274MOL0     C36882   2.793   4.341   9.143  0.7211  0.5440  0.2847
  274MOL0     C36883   2.684   4.252   9.166 -0.2724 -0.0417  0.1842
  274MOL0     C36884   2.811   4.407   9.013  0.3337 -0.4411  0.2604
  274MOL0     C36885   2.728   4.390   8.893 -0.6906  0.0511  0.0761
  274MOL0     O36886   2.684   4.499   8.825  0.3749 -0.4427 -0.4086
  274MOL0     C36887   2.613   4.494   8.715  0.4671  0.9681 -0.0394
  274MOL0     C36888   2.485   4.428   8.712 -1.1187  0.4558 -0.1805
  274MOL0     C36889   2.407   4.433   8.594 -0.5497  0.7037 -0.4051
  274MOL0     C36890   2.448   4.489   8.473 -0.5285  0.8421  0.1423
  274MOL0     O36891   2.383   4.498   8.348 -0.3522  0.2898  0.0320
  274MOL0     C36892   2.247   4.454   8.329 -0.1317  0.7319 -1.0706
  274MOL0     C36893   2.207   4.513   8.193  0.0260  0.1873  0.2215
  274MOL0     C36894   2.072   4.462   8.150  0.8968  1.4955 -0.5458
  274MOL0     C36895   1.959   4.495   8.250 -0.7549 -0.5024 -0.9404
  274MOL0     C36896   1.830   4.427   8.219 -0.4729  0.3916  0.0912
  274MOL0     C36897   1.711   4.525   8.199 -0.1980  0.1583  0.5885
  274MOL0     C36898   1.575   4.464   8.232  0.1456 -0.2763  0.3914
  274MOL0     C36899   1.454   4.532   8.173 -0.6161  0.8201 -0.3824
  274MOL0    Cl36900   1.475   4.536   8.003 -0.1233 -0.0158 -0.2084
  274MOL0     C36901   2.559   4.572   8.482  0.3287  0.3217 -1.2318
  274MOL0     C36902   2.643   4.570   8.602  0.8110  0.8191  0.0585
  274MOL0     O36903   2.697   4.282   8.859  0.0367  0.1762 -0.6595
  274MOL0     C36904   2.915   4.500   8.999  0.7314 -0.0131  0.6115
  274MOL0     C36905   3.005   4.507   9.104 -0.2732 -0.6188 -0.2418
  274MOL0     N36906   2.752   4.707   9.692  0.4973 -0.7793  0.2467
  274MOL0     N36907   2.710   4.707   9.812  0.4593  0.7429 -0.4355
  274MOL0     C36908   2.958   5.595   9.769 -0.1114  1.2183 -0.2795
  274MOL0     C36909   3.031   5.672   9.675 -1.1067  0.5483  0.1240
  274MOL0     C36910   3.252   5.931   9.415 -0.3292 -0.0409 -0.4776
  274MOL0     C36911   3.354   5.840   9.384 -0.5531 -0.2776 -0.3145
  274MOL0     C36912   3.432   5.874   9.270 -0.8118 -0.0111  0.0767
  274MOL0     C36913   3.409   5.997   9.206 -0.3012  0.2253  0.5447
  274MOL0     O36914   3.502   6.025   9.105 -0.7954 -0.0462  0.0819
  274MOL0     C36915   3.485   6.132   9.016  0.2923  0.3207  0.2781
  274MOL0     C36916   3.540   6.101   8.875 -0.5281 -0.4425 -0.2086
  274MOL0     C36917   3.498   5.966   8.814 -0.0982  0.1671  0.7093
  274MOL0     C36918   3.556   5.962   8.667  0.7157  0.0516 -0.0192
  274MOL0     C36919   3.512   5.829   8.599 -0.0185 -0.3756 -0.6151
  274MOL0     C36920   3.483   5.732   8.541 -0.4034  0.6076 -0.7913
  274MOL0     C36921   3.321   6.092   9.254 -0.2940  0.1474 -1.0029
  274MOL0     C36922   3.240   6.058   9.361 -0.5521 -0.6470 -0.7320
  274MOL0     H36923   3.231   5.832   9.894 -1.8910  2.3307  0.4782
  274MOL0     H36924   3.088   5.714  10.056  1.4048 -0.9226 -0.1594
  274MOL0     H36925   2.998   5.509  10.177 -1.7590 -1.9319  0.5858
  274MOL0     H36926   2.904   5.655  10.157  4.0891  0.5290  0.2209
  274MOL0     H36927   2.797   5.471  10.301 -0.3115 -2.3528  0.1582
  274MOL0     H36928   2.693   5.506  10.164 -0.7044 -0.9077 -2.1409
  274MOL0     H36929   2.779   5.319  10.044  0.6465  2.4958  0.3372
  274MOL0     H36930   2.887   5.268  10.183 -1.4671 -1.8649  2.7099
  274MOL0     H36931   2.699   5.245  10.335 -0.4207 -1.4033  0.8577
  274MOL0     H36932   2.591   5.280  10.193  1.2453  2.2357  0.4892
  274MOL0     H36933   2.771   5.045  10.236  1.4256  1.3221 -0.3220
  274MOL0     H36934   2.601   5.049  10.257 -1.2195  1.8057 -0.6008
  274MOL0     H36935   2.591   5.127  10.014 -3.2525 -2.1397  2.8220
  274MOL0     H36936   2.765   5.083  10.009  0.1123  0.9965  0.9609
  274MOL0     H36937   2.551   4.893  10.121 -0.8211 -2.2269 -0.0086
  274MOL0     H36938   2.551   4.906   9.951 -1.6901  0.4332  1.1178
  274MOL0     H36939   2.720   4.738  10.097  1.2539  0.4977  0.5940
  274MOL0     H36940   2.840   4.858  10.081  3.1530 -2.4929 -3.3269
  274MOL0     H36941   2.982   4.878   9.835 -0.9731  2.0467  0.3699
  274MOL0     H36942   2.854   4.849   9.487 -0.9167 -0.1074  1.3591
  274MOL0     H36943   2.974   4.939   9.584  3.9523 -1.1495  0.6064
  274MOL0     H36944   3.088   4.689   9.604  1.4214 -0.8064 -0.1271
  274MOL0     H36945   3.120   4.820   9.480 -1.4056  0.7231  1.6679
  274MOL0     H36946   2.961   4.720   9.334  1.0657 -0.8968 -2.0916
  274MOL0     H36947   2.928   4.582   9.457  0.6394  0.1470 -0.5233
  274MOL0     H36948   3.192   4.578   9.443 -0.2179  2.0921 -0.9129
  274MOL0     H36949   3.159   4.638   9.281 -0.0675  1.8166  0.7632
  274MOL0     H36950   2.876   4.316   9.336 -5.1360  1.3780 -0.1259
  274MOL0     H36951   2.688   4.212   9.268 -0.7808  0.4733  0.4129
  274MOL0     H36952   2.590   4.308   9.157 -1.2790 -1.7107 -0.1883
  274MOL0     H36953   2.687   4.169   9.096 -1.3943  3.0170 -3.8509
  274MOL0     H36954   2.448   4.398   8.809 -1.0841  3.2115  0.7695
  274MOL0     H36955   2.314   4.377   8.595  0.2628 -0.8474 -2.3549
  274MOL0     H36956   2.250   4.345   8.327 -2.6285  0.5663 -4.3905
  274MOL0     H36957   2.180   4.485   8.410 -1.1544 -0.5169 -1.3964
  274MOL0     H36958   2.204   4.622   8.188  0.6044  0.2072  0.1524
  274MOL0     H36959   2.286   4.485   8.122 -1.3511  1.9784 -2.1609
  274MOL0     H36960   2.072   4.353   8.143 -2.7620  1.4888 -3.8013
  274MOL0     H36961   2.047   4.501   8.051 -2.6412 -1.0525 -0.8641
  274MOL0     H36962   1.986   4.475   8.354 -0.3175  2.3605 -0.4094
  274MOL0     H36963   1.944   4.603   8.243  2.4297  0.0690 -0.4152
  274MOL0     H36964   1.807   4.365   8.305  3.9002 -0.0130  1.1978
  274MOL0     H36965   1.830   4.369   8.126 -1.1539 -0.2583  0.4878
  274MOL0     H36966   1.728   4.607   8.269 -3.0737  1.3483  0.0127
  274MOL0     H36967   1.703   4.570   8.099 -0.3524 -0.9996  0.0695
  274MOL0     H36968   1.570   4.467   8.342 -1.7271 -2.3064  0.4317
  274MOL0     H36969   1.562   4.358   8.207 -3.3111  0.4411 -1.4028
  274MOL0     H36970   1.452   4.633   8.214  0.9115  0.9929 -0.6731
  274MOL0     H36971   1.365   4.473   8.196  0.1867  0.3509  1.7614
  274MOL0     H36972   2.586   4.641   8.403 -1.9064  3.0449  0.2114
  274MOL0     H36973   2.717   4.648   8.619  1.3080  0.6629 -1.2294
  274MOL0     H36974   2.938   4.554   8.908  0.3270  0.8321  0.9974
  274MOL0     H36975   3.090   4.574   9.096  1.0130 -1.7843  2.4100
  274MOL0     H36976   2.872   5.532   9.747 -0.3105  1.1489  0.6502
  274MOL0     H36977   3.017   5.657   9.568 -2.7926  1.1218  0.2244
  274MOL0     H36978   3.361   5.758   9.456  1.5311  0.3799  0.2794
  274MOL0     H36979   3.507   5.801   9.241 -1.4501 -0.2242 -1.0964
  274MOL0     H36980   3.376   6.142   9.007 -0.9121 -6.5359  1.3712
  274MOL0     H36981   3.536   6.221   9.052  0.3895  1.4279 -2.3660
  274MOL0     H36982   3.649   6.107   8.882 -0.3500 -0.8824 -2.0876
  274MOL0     H36983   3.513   6.180   8.804  2.2983  3.0035  2.1457
  274MOL0     H36984   3.389   5.963   8.827 -0.0275 -0.2180  1.2796
  274MOL0     H36985   3.551   5.887   8.868 -1.3833 -0.1641  1.5390
  274MOL0     H36986   3.665   5.962   8.674  0.8645 -2.3251 -1.5848
  274MOL0     H36987   3.505   6.038   8.607 -3.3116 -2.2766  0.0795
  274MOL0     H36988   3.470   5.647   8.478  2.2114  1.2746 -2.4204
  274MOL0     H36989   3.320   6.189   9.205 -0.9997 -0.2243 -1.7682
  274MOL0     H36990   3.182   6.136   9.410  2.7628 -0.6605  3.9424
  275MOL0     O36991   3.710   9.516   4.314 -0.4610 -0.1543  0.8272
  275MOL0     C36992   3.713   9.514   4.440  0.9883 -1.0442  0.2083
  275MOL0     O36993   3.609   9.554   4.527  1.2229  0.0992  0.3217
  275MOL0     C36994   3.489   9.585   4.475 -0.9427  0.2280  0.7615
  275MOL0     C36995   3.385   9.488   4.452  0.3217 -0.1633  0.0815
  275MOL0     C36996   3.266   9.541   4.411  0.1631  0.1515  0.8388
  275MOL0     C36997   3.246   9.673   4.372  0.3383  0.3118 -0.8135
  275MOL0     O36998   3.124   9.686   4.318 -0.1415 -0.2508  0.3569
  275MOL0     C36999   3.062   9.812   4.287  0.3850  0.4842 -0.1758
  275MOL0     C37000   3.013   9.903   4.414  0.0184 -0.0162 -0.4612
  275MOL0     C37001   2.883   9.861   4.490  0.8536 -0.6545 -0.2865
  275MOL0     C37002   2.910   9.732   4.571  0.7970  0.2082  0.3261
  275MOL0     C37003   2.803   9.696   4.683 -0.1822 -0.1933  0.2524
  275MOL0     C37004   2.865   9.607   4.799  0.1811 -0.3980  0.2663
  275MOL0     C37005   2.781   9.591   4.915  1.1723  0.0625 -0.7713
  275MOL0     C37006   2.649   9.519   4.880 -0.1777  0.3423 -0.0666
  275MOL0     N37007   2.664   9.372   4.865  0.1856 -0.3097 -0.8726
  275MOL0     C37008   2.707   9.275   4.959 -0.3546 -0.2937  0.1175
  275MOL0     C37009   2.722   9.159   4.888  0.4661  0.4350 -0.1939
  275MOL0     C37010   2.768   9.027   4.936 -1.2533  0.8533  0.3518
  275MOL0     C37011   2.923   9.031   4.934 -0.1248 -0.2064  0.0730
  275MOL0     C37012   2.983   8.886   4.962  0.6385 -1.0389 -0.0020
  275MOL0     C37013   3.132   8.870   4.947  0.2535 -0.4002 -0.4460
  275MOL0     O37014   3.163   8.728   4.949 -0.3437  0.6716  0.3606
  275MOL0     C37015   3.285   8.689   4.989 -0.6016  0.2704  0.7098
  275MOL0     C37016   3.291   8.569   5.056  0.2080  0.4672  0.3364
  275MOL0     C37017   3.416   8.506   5.087  0.1095 -0.4157  0.1232
  275MOL0     C37018   3.410   8.369   5.143  0.5216  0.3620  0.0794
  275MOL0     C37019   3.543   8.573   5.059 -0.7527 -0.5123  0.0247
  275MOL0     C37020   3.675   8.495   5.045  0.9380  0.5184 -0.2272
  275MOL0     O37021   3.763   8.538   4.955 -0.3937  0.2707 -0.2708
  275MOL0     C37022   3.895   8.487   4.956 -0.7911  0.9206 -0.5366
  275MOL0     C37023   3.986   8.516   5.058 -0.4889  0.3186 -0.3244
  275MOL0     C37024   4.114   8.452   5.073  0.0684  0.4679 -0.2764
  275MOL0     C37025   4.147   8.337   4.990 -0.4000 -0.0624 -0.6773
  275MOL0     O37026   4.271   8.278   4.989 -0.2891 -0.2112  0.1212
  275MOL0     C37027   4.304   8.206   5.110  0.3990  0.7056 -1.0709
  275MOL0     C37028   4.427   8.269   5.171 -1.0690  0.3999  0.7259
  275MOL0     C37029   4.514   8.181   5.266  0.1821 -0.1205 -0.1405
  275MOL0     C37030   4.565   8.051   5.200  0.3341  0.0792  0.3354
  275MOL0     C37031   4.676   7.976   5.274 -0.7247 -0.7432  0.5593
  275MOL0     C37032   4.815   8.030   5.244 -0.0940  0.9988  0.5375
  275MOL0     C37033   4.925   7.968   5.331  0.8285 -1.5509  1.0812
  275MOL0     C37034   5.045   8.062   5.352 -0.1293  0.1209 -0.6159
  275MOL0    Cl37035   4.997   8.202   5.425 -0.3939 -0.0240  0.0778
  275MOL0     C37036   4.055   8.304   4.893 -0.5571 -0.7914  0.0505
  275MOL0     C37037   3.935   8.377   4.872 -0.0338 -1.2111 -1.5201
  275MOL0     O37038   3.695   8.417   5.138 -0.4292  0.6703 -0.9680
  275MOL0     C37039   3.533   8.702   5.006 -0.7152  0.3608  0.7671
  275MOL0     C37040   3.406   8.748   4.965 -0.7995 -0.5247 -0.1784
  275MOL0     N37041   2.682   9.182   4.757 -0.0799  0.1824  0.6260
  275MOL0     N37042   2.656   9.307   4.750 -0.2416 -0.1897  1.0041
  275MOL0     C37043   3.344   9.765   4.397  0.2070 -0.4372  0.0649
  275MOL0     C37044   3.466   9.721   4.441  1.0204  1.0274  0.6579
  275MOL0     C37045   3.840   9.464   4.502  0.6013  0.2840  0.4264
  275MOL0     C37046   3.835   9.407   4.632 -0.2303  0.0722 -0.3799
  275MOL0     C37047   3.952   9.333   4.677  0.0406  0.3562  0.2309
  275MOL0     C37048   4.065   9.319   4.603 -0.5626  0.9096 -0.1683
  275MOL0     O37049   4.182   9.263   4.646 -0.4679  0.3651  0.4020
  275MOL0     C37050   4.182   9.174   4.759  0.3080 -0.7203 -0.6103
  275MOL0     C37051   4.303   9.079   4.757  0.1170 -0.1712  0.6770
  275MOL0     C37052   4.436   9.158   4.736 -0.0382 -0.1402 -0.5789
  275MOL0     C37053   4.509   9.115   4.608  0.5070 -0.2963 -0.4677
  275MOL0     C37054   4.644   9.174   4.583  0.9234  0.0919 -0.2910
  275MOL0     C37055   4.746   9.222   4.565  0.0209 -1.1247 -0.5086
  275MOL0     C37056   4.071   9.397   4.487  0.1204 -0.5346 -0.0663
  275MOL0     C37057   3.959   9.462   4.432 -0.7902 -0.3037 -0.2933
  275MOL0     H37058   3.388   9.385   4.486  1.1394  0.3617  1.6792
  275MOL0     H37059   3.183   9.474   4.390  0.4733 -0.6443  2.0453
  275MOL0     H37060   3.137   9.853   4.219  0.3496  0.4887 -0.2120
  275MOL0     H37061   2.975   9.799   4.222  1.5393 -0.8931 -1.5247
  275MOL0     H37062   3.093   9.887   4.487 -3.0540 -1.9626  2.8009
  275MOL0     H37063   3.016  10.003   4.371  0.9110  1.0666  1.9580
  275MOL0     H37064   2.857   9.938   4.564  2.3381 -2.0161  1.7908
  275MOL0     H37065   2.805   9.849   4.415  0.9365 -0.6885 -0.3685
  275MOL0     H37066   2.918   9.645   4.505 -3.1590 -1.1127  1.3506
  275MOL0     H37067   3.002   9.742   4.630 -0.5655 -1.3940  2.9211
  275MOL0     H37068   2.755   9.784   4.726  0.2351  0.5834 -0.8415
  275MOL0     H37069   2.719   9.647   4.633 -0.9645 -0.1119  1.4509
  275MOL0     H37070   2.887   9.509   4.756  1.3723 -0.2728  0.5447
  275MOL0     H37071   2.959   9.658   4.822 -1.2718  3.6192 -1.7764
  275MOL0     H37072   2.819   9.541   5.004  0.1793  0.9504  0.1849
  275MOL0     H37073   2.765   9.695   4.946  1.6732 -1.0598  4.1100
  275MOL0     H37074   2.603   9.564   4.792  2.2665 -1.4980 -2.4635
  275MOL0     H37075   2.595   9.541   4.973  0.6085 -0.6596  0.6578
  275MOL0     H37076   2.739   9.300   5.060 -0.9264 -0.2426  0.2916
  275MOL0     H37077   2.738   9.026   5.041  1.0055 -0.8962  1.0493
  275MOL0     H37078   2.733   8.937   4.884 -0.5326  1.6792 -1.6971
  275MOL0     H37079   2.962   9.100   5.009  0.3391  0.6261 -0.9154
  275MOL0     H37080   2.938   9.067   4.832 -0.0413  1.3743  0.6196
  275MOL0     H37081   2.939   8.816   4.890 -0.8889 -1.3535  1.1772
  275MOL0     H37082   2.951   8.851   5.060  1.5789 -2.7427 -0.2549
  275MOL0     H37083   3.185   8.923   5.026 -1.9874 -0.4904  1.2235
  275MOL0     H37084   3.172   8.909   4.853 -3.0866  0.0457 -1.8260
  275MOL0     H37085   3.196   8.522   5.083 -0.1461 -0.6606 -2.5176
  275MOL0     H37086   3.456   8.300   5.072  0.6335  2.6758 -2.2384
  275MOL0     H37087   3.469   8.375   5.235  0.8149 -2.0904  0.1237
  275MOL0     H37088   3.312   8.321   5.156  1.2117 -1.6000 -1.4809
  275MOL0     H37089   3.945   8.582   5.133  1.0180 -0.8458  1.6176
  275MOL0     H37090   4.183   8.470   5.155 -1.3901  0.1989  1.0697
  275MOL0     H37091   4.230   8.219   5.190  1.6483  3.2257 -0.2224
  275MOL0     H37092   4.309   8.103   5.074 -1.9442 -0.3013  1.1656
  275MOL0     H37093   4.491   8.307   5.091  2.5486 -1.2388  2.6154
  275MOL0     H37094   4.404   8.359   5.228  1.6171  2.0277 -0.5815
  275MOL0     H37095   4.459   8.165   5.359  1.9377 -0.9778  0.8109
  275MOL0     H37096   4.601   8.241   5.294  0.8303 -1.4428  0.7382
  275MOL0     H37097   4.473   7.991   5.206 -2.1115  3.4536 -0.3865
  275MOL0     H37098   4.604   8.065   5.099  2.7387 -0.9327  1.0547
  275MOL0     H37099   4.669   7.869   5.250  2.3475 -0.6606 -1.2081
  275MOL0     H37100   4.657   8.003   5.378 -0.4837  0.8928  0.2075
  275MOL0     H37101   4.846   8.001   5.144 -1.9762  0.4977  0.0518
  275MOL0     H37102   4.814   8.139   5.259  2.9468  1.5415 -2.2525
  275MOL0     H37103   4.945   7.870   5.286 -2.7491 -1.6290 -0.7201
  275MOL0     H37104   4.891   7.955   5.434 -0.9546  3.3224  1.3570
  275MOL0     H37105   5.092   8.080   5.255  0.0346 -0.0693 -0.5735
  275MOL0     H37106   5.108   7.998   5.414 -1.9601 -1.9403 -0.7594
  275MOL0     H37107   4.091   8.224   4.828 -0.9612 -0.5944 -0.4194
  275MOL0     H37108   3.864   8.348   4.795 -0.0670 -0.4432 -1.7842
  275MOL0     H37109   3.618   8.760   4.971 -1.3361  1.7396  1.4589
  275MOL0     H37110   3.421   8.847   4.922 -1.1580  0.5696  2.0880
  275MOL0     H37111   3.321   9.868   4.375 -2.4325 -0.6440  1.5419
  275MOL0     H37112   3.552   9.786   4.447  0.2697  2.0007  1.2395
  275MOL0     H37113   3.750   9.406   4.699  0.1382  0.6122  0.1127
  275MOL0     H37114   3.952   9.280   4.772  0.1615  1.9508  1.1521
  275MOL0     H37115   4.182   9.234   4.851 -0.0768 -2.0456  0.2894
  275MOL0     H37116   4.091   9.114   4.755  0.0247 -0.2371 -3.9615
  275MOL0     H37117   4.290   9.005   4.677  0.2191  0.9640 -0.4182
  275MOL0     H37118   4.294   9.023   4.851 -3.4257 -1.6951 -0.3885
  275MOL0     H37119   4.503   9.155   4.823 -1.8955 -2.4037  0.8933
  275MOL0     H37120   4.416   9.266   4.739 -2.3627 -0.5408  1.2697
  275MOL0     H37121   4.447   9.158   4.528  2.2339  2.6587 -0.3354
  275MOL0     H37122   4.508   9.007   4.587 -1.7357 -0.5105  0.4408
  275MOL0     H37123   4.845   9.260   4.548  0.2357 -1.3845  0.1395
  275MOL0     H37124   4.165   9.405   4.432  0.0001  2.4356 -0.0007
  275MOL0     H37125   3.976   9.519   4.341  3.0195 -0.1766  0.3086
  276MOL0     O37126   7.461   0.512  10.147  0.1942 -0.5785  0.5468
  276MOL0     C37127   7.579   0.541  10.136  0.2611 -0.0821 -0.4488
  276MOL0     O37128   7.680   0.473  10.074  0.9710 -0.4189  0.3845
  276MOL0     C37129   7.660   0.348  10.041 -0.0018  0.2555 -0.2791
  276MOL0     C37130   7.595   0.249  10.119  0.7264  1.1316  0.4864
  276MOL0     C37131   7.606   0.111  10.088  0.7167  0.5139 -0.2112
  276MOL0     C37132   7.655   0.067   9.964  0.3735 -0.6108 -0.1902
  276MOL0     O37133   7.647  -0.061   9.919  0.9318 -0.1188 -0.9024
  276MOL0     C37134   7.576  -0.166   9.995 -0.0763  0.1154 -1.0505
  276MOL0     C37135   7.584  -0.300   9.927  0.3168  0.3133 -0.3337
  276MOL0     C37136   7.572  -0.424  10.038  0.1554 -0.3945 -1.4297
  276MOL0     C37137   7.444  -0.431  10.118 -0.0721  1.1124 -0.4469
  276MOL0     C37138   7.422  -0.579  10.171  0.0813 -0.2013 -0.3094
  276MOL0     C37139   7.304  -0.596  10.266 -0.4417 -0.6816  0.0257
  276MOL0     C37140   7.302  -0.719  10.340 -0.0308 -0.0660 -0.7278
  276MOL0     C37141   7.271  -0.852  10.269  0.1097  0.6634 -0.2213
  276MOL0     N37142   7.307  -0.968  10.360 -0.1591  0.5193  0.1549
  276MOL0     C37143   7.226  -1.041  10.435  0.3242 -0.7001 -1.2012
  276MOL0     C37144   7.300  -1.147  10.487  0.1898 -0.4683 -0.3571
  276MOL0     C37145   7.260  -1.261  10.581  0.1753 -0.3911  0.0240
  276MOL0     C37146   7.115  -1.265  10.621 -0.1482 -0.0043 -0.1324
  276MOL0     C37147   7.069  -1.375  10.715  0.4411  0.3111  0.7564
  276MOL0     C37148   6.985  -1.334  10.835 -0.2201 -0.9588 -0.0877
  276MOL0     O37149   6.864  -1.284  10.786  1.4481  0.4085  0.2520
  276MOL0     C37150   6.783  -1.230  10.881  0.9759 -0.3772 -1.1311
  276MOL0     C37151   6.707  -1.121  10.848  0.2723  0.1701  0.5922
  276MOL0     C37152   6.611  -1.062  10.932 -0.7139 -0.3940 -0.3820
  276MOL0     C37153   6.516  -0.958  10.867  0.3567  0.1359 -0.5597
  276MOL0     C37154   6.583  -1.124  11.055  0.7341  1.1215 -0.8093
  276MOL0     C37155   6.464  -1.096  11.154  0.3277  0.1783 -0.9245
  276MOL0     O37156   6.449  -1.180  11.255 -0.3015  0.3528  0.1133
  276MOL0     C37157   6.363  -1.163  11.354  1.2827  0.3994  0.9800
  276MOL0     C37158   6.420  -1.116  11.467  1.4085 -0.0367 -0.3566
  276MOL0     C37159   6.333  -1.092  11.579  0.2188 -1.1384  0.4976
  276MOL0     C37160   6.194  -1.104  11.567  0.5708  0.6519  0.1581
  276MOL0     O37161   6.104  -1.094  11.673  0.2294  0.0379 -0.0520
  276MOL0     C37162   6.142  -1.037  11.800  0.2032  0.5439 -0.4253
  276MOL0     C37163   6.018  -1.034  11.888  0.0244  0.7893 -0.4217
  276MOL0     C37164   6.061  -0.984  12.029  0.7124 -0.3701 -0.0270
  276MOL0     C37165   6.123  -1.089  12.120 -0.2393  0.1064  0.5755
  276MOL0     C37166   6.018  -1.142  12.219  0.0268  1.1082  0.8496
  276MOL0     C37167   6.082  -1.261  12.295  0.8033  0.1578 -0.0725
  276MOL0     C37168   5.990  -1.339  12.383 -0.7668  0.4382 -0.4399
  276MOL0     C37169   6.068  -1.469  12.435  0.7004  0.1039  0.1717
  276MOL0    Cl37170   5.970  -1.568  12.555  0.2920 -0.0379  0.2297
  276MOL0     C37171   6.142  -1.133  11.442  0.5654  0.7344 -0.2371
  276MOL0     C37172   6.224  -1.166  11.331 -0.6476  0.5705 -0.2651
  276MOL0     O37173   6.409  -0.990  11.141  0.7345 -0.0140  0.1171
  276MOL0     C37174   6.662  -1.246  11.090  0.1248 -0.5822  0.6160
  276MOL0     C37175   6.755  -1.291  11.000  0.3419  0.3092 -0.3308
  276MOL0     N37176   7.428  -1.136  10.437  0.7035 -0.0759  1.0248
  276MOL0     N37177   7.428  -1.023  10.372 -0.0686 -0.5486  0.4147
  276MOL0     C37178   7.709   0.169   9.881  0.3197  0.2650  0.5656
  276MOL0     C37179   7.721   0.301   9.924 -0.3646 -0.6679 -0.1365
  276MOL0     C37180   7.617   0.672  10.191 -0.4029 -0.2834  0.2421
  276MOL0     C37181   7.527   0.744  10.281 -0.1198  0.6975 -0.3026
  276MOL0     C37182   7.565   0.870  10.335  0.8172  0.3852 -0.6026
  276MOL0     C37183   7.683   0.938  10.304 -0.4795 -0.4371  0.1435
  276MOL0     O37184   7.720   1.063  10.348 -0.1863 -0.0699  0.3528
  276MOL0     C37185   7.636   1.153  10.420 -1.0605 -0.2906 -0.4501
  276MOL0     C37186   7.648   1.129  10.572  0.0101  0.4697  0.4151
  276MOL0     C37187   7.525   1.198  10.648 -0.3679  0.3626  1.0619
  276MOL0     C37188   7.468   1.099  10.746  0.0368 -1.1380  0.2548
  276MOL0     C37189   7.368   1.164  10.834 -0.0388 -0.0140  0.2986
  276MOL0     C37190   7.297   1.227  10.917  0.7480 -0.1764 -0.1251
  276MOL0     C37191   7.765   0.862  10.216 -0.2302  0.8034 -0.4997
  276MOL0     C37192   7.734   0.734  10.166 -0.1769 -0.2816  0.1021
  276MOL0     H37193   7.555   0.294  10.209 -2.0148  2.0693 -1.0893
  276MOL0     H37194   7.569   0.034  10.156  1.9645 -2.5557 -2.7608
  276MOL0     H37195   7.613  -0.180  10.097 -2.0923  0.1488 -0.2585
  276MOL0     H37196   7.473  -0.134  10.011  0.6289  2.1624 -0.2101
  276MOL0     H37197   7.504  -0.309   9.854  0.7712  0.1861 -0.8255
  276MOL0     H37198   7.674  -0.307   9.864  1.9675 -0.5449  1.9634
  276MOL0     H37199   7.592  -0.511   9.975  3.6755 -5.7079  5.5950
  276MOL0     H37200   7.650  -0.437  10.113 -0.7636 -3.2134 -0.8158
  276MOL0     H37201   7.448  -0.374  10.212 -1.7463 -0.6654  0.7758
  276MOL0     H37202   7.361  -0.392  10.058  2.6786  5.3530 -1.9717
  276MOL0     H37203   7.422  -0.652  10.090 -1.4620  0.4348 -0.9318
  276MOL0     H37204   7.505  -0.604  10.238  1.2681 -0.6539 -1.9057
  276MOL0     H37205   7.313  -0.523  10.347 -1.1991 -0.3394 -0.1915
  276MOL0     H37206   7.205  -0.574  10.225 -1.0147 -1.0938  1.1536
  276MOL0     H37207   7.397  -0.740  10.390 -0.5003  1.8015  1.0565
  276MOL0     H37208   7.239  -0.694  10.426  0.5133  1.8399 -0.8590
  276MOL0     H37209   7.343  -0.857  10.186  1.2125 -0.0974  0.7451
  276MOL0     H37210   7.172  -0.874  10.228  0.5276 -2.1442  0.0702
  276MOL0     H37211   7.124  -1.012  10.457  0.7183 -0.3885  0.3023
  276MOL0     H37212   7.303  -1.352  10.539 -0.0664  0.3996 -2.0315
  276MOL0     H37213   7.307  -1.255  10.680  1.5288 -2.1511 -0.4574
  276MOL0     H37214   7.061  -1.288  10.528  2.7993 -1.7076 -1.5892
  276MOL0     H37215   7.081  -1.166  10.651 -0.5731 -0.8626  2.4377
  276MOL0     H37216   7.156  -1.424  10.760  0.9857  0.7261  0.1692
  276MOL0     H37217   7.016  -1.456  10.664 -1.3009 -0.2080  3.2094
  276MOL0     H37218   7.033  -1.254  10.892 -0.2934 -0.4117 -0.7889
  276MOL0     H37219   6.976  -1.421  10.901  3.3941  0.4203  2.6134
  276MOL0     H37220   6.724  -1.087  10.747 -0.4602  0.3178  0.5130
  276MOL0     H37221   6.520  -0.861  10.916 -2.0865 -0.1730  0.3463
  276MOL0     H37222   6.555  -0.955  10.765  0.8409  0.8840 -0.3626
  276MOL0     H37223   6.415  -1.000  10.866  0.5630 -0.3649 -0.7439
  276MOL0     H37224   6.523  -1.091  11.490  1.9274  0.7405 -3.0919
  276MOL0     H37225   6.374  -1.060  11.674  0.8187 -1.0626  0.2155
  276MOL0     H37226   6.211  -1.108  11.845 -2.3869 -1.2473  0.9817
  276MOL0     H37227   6.167  -0.931  11.794 -1.8630  1.0130 -2.3155
  276MOL0     H37228   5.942  -0.973  11.838  0.8912  2.8377  0.6382
  276MOL0     H37229   5.966  -1.129  11.898 -2.1914  2.0768  1.5959
  276MOL0     H37230   5.977  -0.942  12.084 -1.8953  1.5283 -4.9377
  276MOL0     H37231   6.121  -0.894  12.015 -0.3478  0.2204 -0.8888
  276MOL0     H37232   6.181  -1.154  12.054 -0.1551  1.3426 -0.6302
  276MOL0     H37233   6.178  -1.037  12.199 -0.8793  0.8335  0.5578
  276MOL0     H37234   5.936  -1.174  12.154  0.5590  0.0563  0.6775
  276MOL0     H37235   5.977  -1.070  12.290 -2.3820 -2.5929  3.5532
  276MOL0     H37236   6.114  -1.331  12.217 -1.7952 -0.0113 -1.1141
  276MOL0     H37237   6.174  -1.234  12.348  2.7456  0.0167 -3.1414
  276MOL0     H37238   5.902  -1.367  12.324  1.0118 -3.3261 -1.6314
  276MOL0     H37239   5.950  -1.288  12.470  1.0412  1.3377 -0.0993
  276MOL0     H37240   6.152  -1.435  12.496  0.3898 -0.1874  0.7742
  276MOL0     H37241   6.100  -1.528  12.349 -1.8552 -0.4411 -0.4981
  276MOL0     H37242   6.034  -1.145  11.438 -0.2353  5.7572 -0.1029
  276MOL0     H37243   6.181  -1.182  11.232  1.9968  2.4023 -1.8466
  276MOL0     H37244   6.660  -1.291  11.189  0.9182 -1.2929  0.3229
  276MOL0     H37245   6.812  -1.377  11.033 -3.0456 -1.8388  0.4564
  276MOL0     H37246   7.746   0.137   9.784  1.5161  0.0600  1.0735
  276MOL0     H37247   7.762   0.382   9.865 -0.8282 -0.6048 -0.3784
  276MOL0     H37248   7.435   0.701  10.322  0.0672 -0.6401 -1.2079
  276MOL0     H37249   7.507   0.914  10.416  2.2473  4.8231 -1.6742
  276MOL0     H37250   7.673   1.253  10.396 -0.3775 -0.4984 -0.2783
  276MOL0     H37251   7.529   1.145  10.397 -1.8934 -0.9983  3.1494
  276MOL0     H37252   7.743   1.161  10.616  0.0997  1.0314 -0.1770
  276MOL0     H37253   7.631   1.024  10.597  0.3691  0.7794  2.1024
  276MOL0     H37254   7.450   1.234  10.577  0.6701 -0.8325 -0.7270
  276MOL0     H37255   7.566   1.278  10.710 -1.2066 -0.3422  2.5722
  276MOL0     H37256   7.546   1.058  10.810  0.5386 -0.1027  0.3379
  276MOL0     H37257   7.425   1.014  10.693 -0.6337 -0.3551 -0.5056
  276MOL0     H37258   7.245   1.284  10.992  3.4607 -0.2870  2.0129
  276MOL0     H37259   7.848   0.917  10.172 -3.4392  2.3322 -5.4512
  276MOL0     H37260   7.797   0.691  10.087  0.7916 -1.8530  1.6546
  277MOL0     O37261   1.122   3.111   7.670  0.3572 -0.3972  0.3232
  277MOL0     C37262   1.144   3.109   7.791 -0.0928 -0.0026 -0.8628
  277MOL0     O37263   1.088   3.014   7.881 -0.3734  0.3626  0.9319
  277MOL0     C37264   0.988   2.940   7.823  0.3578  0.5154 -0.1921
  277MOL0     C37265   1.003   2.806   7.826 -0.1006 -1.1165 -0.6228
  277MOL0     C37266   0.903   2.720   7.771  0.4269 -1.1546 -0.3635
  277MOL0     C37267   0.794   2.775   7.701  0.4367 -1.1060 -0.3415
  277MOL0     O37268   0.695   2.710   7.624 -0.5069  0.8421  0.0043
  277MOL0     C37269   0.603   2.651   7.716 -0.6599  0.3610  0.3842
  277MOL0     C37270   0.473   2.620   7.644  0.1145  1.3280  0.0673
  277MOL0     C37271   0.420   2.753   7.576 -0.4088 -0.3300 -0.5846
  277MOL0     C37272   0.290   2.716   7.499 -0.7272 -0.0322 -0.3084
  277MOL0     C37273   0.258   2.816   7.387  0.4987 -0.3786  1.3019
  277MOL0     C37274   0.132   2.768   7.306  0.3659  0.8873  0.1112
  277MOL0     C37275   0.007   2.820   7.375  0.4428 -0.1870 -0.4445
  277MOL0     C37276  -0.121   2.744   7.360  0.8032 -0.0346 -0.0542
  277MOL0     N37277  -0.204   2.735   7.486  0.2274 -0.2883 -0.6296
  277MOL0     C37278  -0.278   2.841   7.538 -0.3582 -0.4915 -0.0847
  277MOL0     C37279  -0.355   2.787   7.630  0.3059  0.3670 -0.1676
  277MOL0     C37280  -0.448   2.852   7.730 -0.1989  1.0577 -0.2486
  277MOL0     C37281  -0.369   2.892   7.863 -0.1714  0.1920 -0.0743
  277MOL0     C37282  -0.471   2.953   7.958  0.6690  0.2237 -0.4055
  277MOL0     C37283  -0.425   3.079   8.015 -0.7391 -0.0226  0.3079
  277MOL0     O37284  -0.528   3.161   8.063 -0.3119 -0.1800 -0.0877
  277MOL0     C37285  -0.594   3.110   8.172  0.4606  0.1120  0.6747
  277MOL0     C37286  -0.527   3.091   8.294  0.0637  0.4437 -0.4806
  277MOL0     C37287  -0.598   3.033   8.403 -0.9982 -0.4531 -0.1574
  277MOL0     C37288  -0.509   3.024   8.536 -0.2494 -1.5090 -0.4729
  277MOL0     C37289  -0.732   2.985   8.394 -0.4319 -0.4835  0.2475
  277MOL0     C37290  -0.818   2.930   8.505 -0.7114  0.7156  0.3306
  277MOL0     O37291  -0.942   2.965   8.502 -0.5931 -0.1374  0.4936
  277MOL0     C37292  -1.023   2.943   8.605  0.6354  0.6404  0.4554
  277MOL0     C37293  -1.078   2.819   8.629 -0.4055  0.1973 -0.3585
  277MOL0     C37294  -1.184   2.801   8.721 -0.0354 -0.3673 -0.1193
  277MOL0     C37295  -1.224   2.911   8.794  0.1029 -0.2117 -0.3766
  277MOL0     O37296  -1.336   2.902   8.874 -0.2521  0.6515  0.7783
  277MOL0     C37297  -1.436   2.991   8.856 -0.8651 -0.6959 -0.1558
  277MOL0     C37298  -1.435   3.095   8.978 -0.2101 -0.2054  0.0717
  277MOL0     C37299  -1.553   3.196   8.976  0.2517  0.1391  0.3240
  277MOL0     C37300  -1.680   3.134   9.039 -0.3127 -0.1303 -0.0677
  277MOL0     C37301  -1.780   3.233   9.073 -0.1407 -0.5242 -0.0480
  277MOL0     C37302  -1.904   3.157   9.112 -0.2437  0.0069 -0.6483
  277MOL0     C37303  -2.010   3.261   9.134 -0.1817  0.1625  0.3064
  277MOL0     C37304  -2.148   3.203   9.133  0.2850 -0.1424  0.4407
  277MOL0    Cl37305  -2.243   3.340   9.085  0.3420 -0.5380  0.0879
  277MOL0     C37306  -1.155   3.037   8.778  0.5602 -0.2741 -0.3347
  277MOL0     C37307  -1.059   3.055   8.683  0.0077  0.3691 -0.2194
  277MOL0     O37308  -0.771   2.852   8.592  0.3813  0.0581  0.6305
  277MOL0     C37309  -0.790   2.991   8.264 -0.8201  0.2468 -0.4765
  277MOL0     C37310  -0.719   3.056   8.155 -0.7272  0.1921 -0.0947
  277MOL0     N37311  -0.320   2.654   7.641 -0.6814  0.8609 -0.3182
  277MOL0     N37312  -0.228   2.623   7.555 -0.6571  0.8309 -0.7070
  277MOL0     C37313   0.777   2.919   7.697  0.8910 -0.3307 -0.1553
  277MOL0     C37314   0.874   2.993   7.756 -0.1737 -0.6870 -1.0637
  277MOL0     C37315   1.246   3.195   7.844 -0.4351 -0.5890 -0.1701
  277MOL0     C37316   1.352   3.253   7.770  0.0243 -0.4208  1.0913
  277MOL0     C37317   1.436   3.353   7.837 -0.1370 -0.2780  0.0298
  277MOL0     C37318   1.417   3.394   7.979  0.5890  0.6146  0.7204
  277MOL0     O37319   1.496   3.487   8.038  0.2464 -0.2841  0.3714
  277MOL0     C37320   1.615   3.438   8.092 -0.2305 -1.0034 -0.1772
  277MOL0     C37321   1.732   3.537   8.068 -0.3008  0.5095  0.1074
  277MOL0     C37322   1.852   3.496   8.154 -0.3943 -0.8653 -0.5543
  277MOL0     C37323   1.952   3.611   8.172  0.6487 -0.3997 -0.0700
  277MOL0     C37324   2.067   3.582   8.262 -0.6382  0.5709 -0.5393
  277MOL0     C37325   2.154   3.565   8.343  0.1840 -0.6118  0.7242
  277MOL0     C37326   1.299   3.340   8.038  0.5518  0.5914  0.3981
  277MOL0     C37327   1.220   3.245   7.972  0.2064  0.3446  0.5782
  277MOL0     H37328   1.090   2.765   7.877  0.9936  2.7415  1.0029
  277MOL0     H37329   0.901   2.612   7.781 -0.0082 -0.9217  4.4337
  277MOL0     H37330   0.651   2.560   7.752  1.7093  0.2786 -2.5465
  277MOL0     H37331   0.590   2.717   7.803 -1.3176  0.4265  0.2356
  277MOL0     H37332   0.493   2.554   7.560 -1.5136  2.2980 -1.1403
  277MOL0     H37333   0.401   2.585   7.719 -1.5821  1.4516 -1.4214
  277MOL0     H37334   0.405   2.829   7.653  1.1019 -0.5404 -0.0513
  277MOL0     H37335   0.492   2.794   7.504  0.1717  0.9809  0.6801
  277MOL0     H37336   0.296   2.620   7.447 -0.5690  0.0375 -0.4178
  277MOL0     H37337   0.210   2.700   7.572 -2.0270  2.2690 -1.1322
  277MOL0     H37338   0.235   2.912   7.434 -1.6484 -1.8098  3.3859
  277MOL0     H37339   0.340   2.821   7.315 -2.0751  2.2333 -1.7183
  277MOL0     H37340   0.143   2.820   7.210  1.0445  3.3352  1.4352
  277MOL0     H37341   0.138   2.659   7.298  1.0973  0.8142  1.3752
  277MOL0     H37342   0.033   2.815   7.481  1.2347 -0.8167 -0.6602
  277MOL0     H37343  -0.001   2.929   7.366 -0.4471 -0.0017  1.8410
  277MOL0     H37344  -0.088   2.644   7.330  0.2511 -0.2527  0.0569
  277MOL0     H37345  -0.183   2.779   7.277  0.8007 -4.1636 -2.0483
  277MOL0     H37346  -0.254   2.947   7.527  0.2211 -0.8798 -3.5169
  277MOL0     H37347  -0.497   2.937   7.682  0.7446 -0.6459 -4.6750
  277MOL0     H37348  -0.523   2.776   7.755  0.9712  0.0017  0.1296
  277MOL0     H37349  -0.303   2.976   7.841  1.8548 -0.8255  1.7276
  277MOL0     H37350  -0.314   2.815   7.917 -2.5598 -1.2982  0.3779
  277MOL0     H37351  -0.485   2.884   8.042 -0.9270 -1.1800 -1.7524
  277MOL0     H37352  -0.573   2.966   7.919 -0.0818  1.7743  1.8191
  277MOL0     H37353  -0.367   3.143   7.948  0.4296 -1.2003  0.1557
  277MOL0     H37354  -0.356   3.050   8.095 -2.3780 -1.5046  1.2326
  277MOL0     H37355  -0.425   3.129   8.300  0.2494 -0.1562  0.4381
  277MOL0     H37356  -0.522   2.926   8.583  0.7338 -0.4166  2.3141
  277MOL0     H37357  -0.401   3.033   8.517 -0.3927 -0.6696 -0.9158
  277MOL0     H37358  -0.524   3.111   8.601  1.1062  0.4713 -2.6375
  277MOL0     H37359  -1.031   2.736   8.578 -1.1895 -0.1277 -0.5673
  277MOL0     H37360  -1.230   2.703   8.723  2.0033 -1.3814  1.7091
  277MOL0     H37361  -1.423   3.036   8.757  1.4823  1.1787  0.9030
  277MOL0     H37362  -1.528   2.931   8.859 -0.1602 -1.8651 -1.1212
  277MOL0     H37363  -1.435   3.035   9.069 -1.0162  1.3831  1.1587
  277MOL0     H37364  -1.342   3.152   8.982  0.9609 -2.0256 -0.4540
  277MOL0     H37365  -1.580   3.228   8.875 -2.8510  1.7202  1.5118
  277MOL0     H37366  -1.528   3.287   9.032 -0.5690  0.8544 -0.4254
  277MOL0     H37367  -1.714   3.053   8.973  2.7463 -2.0623  0.5214
  277MOL0     H37368  -1.641   3.081   9.127  0.9975 -0.1155 -0.6179
  277MOL0     H37369  -1.810   3.294   8.986  2.4818  1.6397  0.4340
  277MOL0     H37370  -1.752   3.291   9.161 -1.8144 -1.3906  1.1195
  277MOL0     H37371  -1.934   3.079   9.041  1.0343  1.1710 -2.5602
  277MOL0     H37372  -1.878   3.095   9.198 -0.6803 -1.4470 -1.5296
  277MOL0     H37373  -2.007   3.321   9.043 -2.4822 -0.4922 -0.2521
  277MOL0     H37374  -1.999   3.315   9.228 -0.2284  1.0590 -0.1903
  277MOL0     H37375  -2.162   3.170   9.236  1.2420  0.6512  0.8486
  277MOL0     H37376  -2.162   3.117   9.066  2.2584 -1.0104  1.0501
  277MOL0     H37377  -1.164   3.121   8.846 -0.1850 -1.1220  0.6396
  277MOL0     H37378  -1.004   3.147   8.666 -1.2094  0.8829 -1.5902
  277MOL0     H37379  -0.893   2.963   8.243 -1.4717  2.1198  0.0586
  277MOL0     H37380  -0.767   3.057   8.058  1.6960  0.9991 -1.3557
  277MOL0     H37381   0.688   2.970   7.663 -0.2572 -0.4250  2.4465
  277MOL0     H37382   0.872   3.101   7.756  2.6954 -0.5523 -1.5605
  277MOL0     H37383   1.367   3.230   7.665 -2.9916  0.7195  0.3063
  277MOL0     H37384   1.525   3.388   7.784 -2.8060  0.8893 -4.2161
  277MOL0     H37385   1.602   3.434   8.200  1.1471  2.3071  0.2329
  277MOL0     H37386   1.656   3.348   8.046  2.9682  0.8431 -1.2698
  277MOL0     H37387   1.697   3.638   8.090 -0.1279  1.3527 -2.9930
  277MOL0     H37388   1.754   3.539   7.960 -1.3506  0.1851 -0.1246
  277MOL0     H37389   1.911   3.417   8.106  0.6878 -2.5945  3.2197
  277MOL0     H37390   1.814   3.449   8.246 -1.3196  0.4835 -0.2142
  277MOL0     H37391   1.898   3.703   8.199  1.5401  1.3337 -3.5938
  277MOL0     H37392   1.987   3.639   8.072  1.5726  2.0518  0.8728
  277MOL0     H37393   2.244   3.544   8.396  1.6347  2.9339 -0.0891
  277MOL0     H37394   1.256   3.389   8.125 -2.0231 -0.7393 -0.0087
  277MOL0     H37395   1.132   3.213   8.028 -1.1561 -0.9254 -2.0933
  278MOL0     O37396   5.835   8.864   4.080 -0.7062  0.4574  0.4851
  278MOL0     C37397   5.862   8.780   4.169  0.8556 -0.5015 -0.2179
  278MOL0     O37398   5.764   8.725   4.252 -0.6902  1.0896 -0.3812
  278MOL0     C37399   5.636   8.777   4.243  0.3484  0.5945  0.2175
  278MOL0     C37400   5.599   8.876   4.326 -0.6916  0.1766  0.0463
  278MOL0     C37401   5.464   8.913   4.322  0.0933 -0.7606 -0.0193
  278MOL0     C37402   5.368   8.847   4.245 -0.2164  0.4955 -0.4663
  278MOL0     O37403   5.235   8.876   4.234  0.2216 -0.2045 -0.2598
  278MOL0     C37404   5.179   8.971   4.327  0.6382  0.5652 -0.1776
  278MOL0     C37405   5.026   8.947   4.332  0.0233 -0.1644  0.5675
  278MOL0     C37406   4.951   9.005   4.460 -0.2726 -0.3847  1.0381
  278MOL0     C37407   4.979   8.912   4.577  1.0324 -0.0390  0.7877
  278MOL0     C37408   4.868   8.814   4.597  0.2244  0.2109  0.0448
  278MOL0     C37409   4.873   8.733   4.733 -0.9180  0.0275  0.5634
  278MOL0     C37410   4.851   8.807   4.858  0.0566 -0.0402 -0.3223
  278MOL0     C37411   4.693   8.837   4.873 -0.8449 -0.1371 -0.9743
  278MOL0     N37412   4.673   8.939   4.973  0.7461 -0.0545  0.4357
  278MOL0     C37413   4.713   9.068   4.961  0.3855 -0.1063 -0.3464
  278MOL0     C37414   4.669   9.122   5.072 -0.1948 -0.0531 -1.1743
  278MOL0     C37415   4.669   9.271   5.108  0.0830 -0.5079  0.4536
  278MOL0     C37416   4.606   9.362   4.995  0.0653 -0.5362  0.0780
  278MOL0     C37417   4.606   9.513   5.023 -0.0497 -0.3768 -0.5067
  278MOL0     C37418   4.499   9.586   4.943  0.2194 -1.0404 -0.0009
  278MOL0     O37419   4.506   9.543   4.810  0.4424  0.2089  0.7852
  278MOL0     C37420   4.413   9.595   4.723  0.1251 -0.1058  0.4708
  278MOL0     C37421   4.439   9.571   4.584  0.6405 -0.3649 -0.4066
  278MOL0     C37422   4.355   9.620   4.474  0.5044  0.6639  0.7894
  278MOL0     C37423   4.387   9.584   4.334 -0.3298 -0.1977 -0.4844
  278MOL0     C37424   4.243   9.702   4.514  0.4325  0.9191 -0.4724
  278MOL0     C37425   4.151   9.778   4.428  0.6660 -0.1670  0.0664
  278MOL0     O37426   4.026   9.826   4.477 -0.6179 -0.0048  0.5412
  278MOL0     C37427   3.952   9.906   4.386  1.5579 -0.7018  1.2013
  278MOL0     C37428   3.844   9.840   4.330  0.8346  0.5966  0.6787
  278MOL0     C37429   3.730   9.914   4.281 -0.7117  0.0881  0.3245
  278MOL0     C37430   3.744  10.052   4.261 -0.1186  0.1885 -0.1590
  278MOL0     O37431   3.649  10.135   4.208  0.1586  0.3854  0.0445
  278MOL0     C37432   3.515  10.086   4.174 -0.6066  0.4275  0.2171
  278MOL0     C37433   3.423  10.202   4.141 -0.1384  0.7536 -0.0873
  278MOL0     C37434   3.290  10.153   4.079  0.9902  0.5260  1.1601
  278MOL0     C37435   3.212  10.261   4.007 -0.0909 -0.6370 -0.6125
  278MOL0     C37436   3.081  10.205   3.941  0.5099 -0.0539 -0.3191
  278MOL0     C37437   2.960  10.163   4.025  0.0949  0.1187 -0.8933
  278MOL0     C37438   2.915  10.285   4.103 -0.4987  0.4613  0.6084
  278MOL0     C37439   2.806  10.258   4.197  0.3907 -0.5970 -0.1688
  278MOL0    Cl37440   2.753  10.404   4.288  0.0635  0.0150  0.3438
  278MOL0     C37441   3.853  10.119   4.317 -0.2270  0.2358 -0.3132
  278MOL0     C37442   3.947  10.041   4.380  0.6870  0.1198 -0.2509
  278MOL0     O37443   4.186   9.787   4.315  0.3300 -0.2267  0.2849
  278MOL0     C37444   4.226   9.728   4.658  0.1531  0.4824 -0.4726
  278MOL0     C37445   4.311   9.689   4.758 -0.5619  0.0320  0.3576
  278MOL0     N37446   4.611   9.028   5.144 -0.6682 -0.4693 -0.5772
  278MOL0     N37447   4.616   8.910   5.090 -0.1130 -0.4542 -0.0483
  278MOL0     C37448   5.415   8.753   4.154  0.8333  0.0350  0.0808
  278MOL0     C37449   5.544   8.722   4.143  0.6435 -0.4146 -0.4793
  278MOL0     C37450   5.988   8.712   4.166 -0.1560 -0.1360 -0.2864
  278MOL0     C37451   6.088   8.752   4.067  0.1715  0.3670 -0.4415
  278MOL0     C37452   6.204   8.676   4.047  0.2855 -0.4028 -0.2080
  278MOL0     C37453   6.223   8.554   4.121  0.5085  0.4834  0.1046
  278MOL0     O37454   6.309   8.460   4.078 -0.3449  0.3014  0.2764
  278MOL0     C37455   6.424   8.507   4.003 -0.1799 -0.4368 -0.2437
  278MOL0     C37456   6.547   8.437   4.044 -0.2932 -0.8470 -0.7093
  278MOL0     C37457   6.668   8.482   3.967  0.1708  0.8730 -0.4270
  278MOL0     C37458   6.792   8.435   4.043  0.2456 -0.8321  0.1130
  278MOL0     C37459   6.911   8.453   3.968 -0.3571  0.0481  0.0434
  278MOL0     C37460   7.008   8.463   3.902  1.0995 -0.9131  0.2876
  278MOL0     C37461   6.137   8.528   4.218 -0.0732 -0.1513  0.1004
  278MOL0     C37462   6.019   8.599   4.237 -0.0139  0.3648  1.1383
  278MOL0     H37463   5.671   8.924   4.392  0.1874  0.6716 -1.2317
  278MOL0     H37464   5.433   8.983   4.398  1.2681 -4.0748  3.8389
  278MOL0     H37465   5.219   8.944   4.425 -2.0266  0.8550  1.0637
  278MOL0     H37466   5.195   9.078   4.310 -1.8174  0.8621 -1.0663
  278MOL0     H37467   4.980   8.992   4.244  2.9560 -0.7724 -1.4138
  278MOL0     H37468   4.999   8.841   4.330 -3.0469  0.4811  2.1578
  278MOL0     H37469   4.980   9.107   4.487 -0.8177  0.2291 -0.5288
  278MOL0     H37470   4.845   9.003   4.432  0.4843  0.4072 -2.4154
  278MOL0     H37471   5.076   8.864   4.567  1.7836  1.3731  0.9702
  278MOL0     H37472   4.989   8.970   4.669  1.6044 -2.0546  2.0377
  278MOL0     H37473   4.777   8.874   4.590 -0.4054 -0.8949 -1.9437
  278MOL0     H37474   4.872   8.748   4.510  1.0446 -1.1098  1.0447
  278MOL0     H37475   4.794   8.659   4.721 -0.8483 -0.1841  1.3352
  278MOL0     H37476   4.966   8.675   4.728 -0.2515  0.9936  1.2567
  278MOL0     H37477   4.879   8.754   4.950  0.1760  0.3625 -0.1236
  278MOL0     H37478   4.911   8.898   4.862 -1.7576  1.4098 -3.2645
  278MOL0     H37479   4.637   8.748   4.904  0.3882 -0.0093  1.9315
  278MOL0     H37480   4.661   8.880   4.778  0.6076 -0.6892 -1.7434
  278MOL0     H37481   4.757   9.121   4.877  0.3986 -0.3887 -0.5197
  278MOL0     H37482   4.614   9.290   5.201  0.1097  1.0545  0.1792
  278MOL0     H37483   4.773   9.303   5.121 -0.5163  1.7026  0.1503
  278MOL0     H37484   4.501   9.336   4.977 -0.2411  1.7327 -1.9401
  278MOL0     H37485   4.650   9.345   4.897  1.2571  1.3208  0.2374
  278MOL0     H37486   4.700   9.562   4.997 -0.6983  1.1552 -0.0698
  278MOL0     H37487   4.603   9.532   5.131 -0.7331  1.0942 -0.7663
  278MOL0     H37488   4.515   9.694   4.944  0.9415 -1.1456  1.1985
  278MOL0     H37489   4.407   9.548   4.989  1.1768 -2.2229  1.0169
  278MOL0     H37490   4.520   9.507   4.549  1.0804 -0.1016  0.0990
  278MOL0     H37491   4.294   9.575   4.278 -0.4471  0.4291 -0.4037
  278MOL0     H37492   4.460   9.642   4.276 -1.1300  0.5226 -0.7930
  278MOL0     H37493   4.428   9.483   4.346  0.8602  0.4216  1.1697
  278MOL0     H37494   3.841   9.732   4.334 -0.9397  0.5441 -0.6572
  278MOL0     H37495   3.639   9.866   4.247  0.4599  0.1402 -3.3101
  278MOL0     H37496   3.516  10.016   4.091 -0.7067  0.0436  0.5395
  278MOL0     H37497   3.469  10.028   4.254 -0.5501  0.7089  0.4597
  278MOL0     H37498   3.408  10.259   4.233  1.6406  2.1380 -0.5982
  278MOL0     H37499   3.471  10.270   4.070 -1.8422  0.3633 -1.7007
  278MOL0     H37500   3.229  10.107   4.158 -0.1370 -0.2856 -0.1351
  278MOL0     H37501   3.302  10.070   4.008  2.1040  2.0339 -0.4941
  278MOL0     H37502   3.188  10.344   4.074 -0.0242 -0.1183 -1.2241
  278MOL0     H37503   3.278  10.295   3.927 -1.5715  1.0556 -1.1636
  278MOL0     H37504   3.103  10.135   3.860  0.0317 -0.7755  0.1717
  278MOL0     H37505   3.049  10.277   3.864 -0.1956 -1.8157 -1.7437
  278MOL0     H37506   2.872  10.137   3.966 -1.2479  1.5469  0.3867
  278MOL0     H37507   2.988  10.086   4.098  0.2493  1.2597  0.3012
  278MOL0     H37508   2.880  10.352   4.023  3.0587  0.9666 -0.7050
  278MOL0     H37509   2.991  10.345   4.153 -1.3407  0.7623  1.5579
  278MOL0     H37510   2.838  10.184   4.271 -0.3917  0.7876  1.6122
  278MOL0     H37511   2.717  10.221   4.145 -1.4656  1.9028  1.0379
  278MOL0     H37512   3.881  10.224   4.318  1.2449 -0.0761  2.7005
  278MOL0     H37513   4.018  10.099   4.438 -1.1089  2.8040 -0.5630
  278MOL0     H37514   4.130   9.771   4.687 -1.4255  0.0301 -4.4161
  278MOL0     H37515   4.284   9.703   4.862 -2.4217  3.2046 -0.4171
  278MOL0     H37516   5.332   8.721   4.092 -0.4897 -1.1331  2.2983
  278MOL0     H37517   5.573   8.644   4.074 -0.0092 -0.4623 -0.7093
  278MOL0     H37518   6.065   8.829   3.994  0.0267 -0.6295 -1.4765
  278MOL0     H37519   6.277   8.704   3.972  1.2584 -2.6113 -0.1770
  278MOL0     H37520   6.406   8.480   3.899 -2.0650 -2.2707  0.4780
  278MOL0     H37521   6.442   8.614   4.016  2.2563 -0.6306 -1.4133
  278MOL0     H37522   6.525   8.330   4.038 -0.0381 -0.8373 -2.1314
  278MOL0     H37523   6.574   8.474   4.144  1.9503  0.3575 -1.7058
  278MOL0     H37524   6.663   8.590   3.953 -0.9535  0.7465 -1.0603
  278MOL0     H37525   6.659   8.430   3.871  3.9322  0.1346 -0.5409
  278MOL0     H37526   6.789   8.332   4.080  0.0996 -0.7871  0.2287
  278MOL0     H37527   6.812   8.505   4.125  0.0982 -1.1934  0.4631
  278MOL0     H37528   7.096   8.469   3.841  2.2111 -0.0436  1.9056
  278MOL0     H37529   6.143   8.436   4.276 -3.3546 -1.2145 -1.0155
  278MOL0     H37530   5.941   8.563   4.304 -1.0265 -0.2841 -0.3506
  279MOL0     O37531   9.716   7.970   5.899 -0.1381 -0.0447 -0.3977
  279MOL0     C37532   9.800   8.048   5.948 -1.3692 -1.0474 -0.0284
  279MOL0     O37533   9.825   8.058   6.075  0.4917 -0.0415 -0.4526
  279MOL0     C37534   9.728   8.018   6.165 -1.0762  0.2185 -0.5913
  279MOL0     C37535   9.767   7.921   6.254  0.3211  0.6636  0.5632
  279MOL0     C37536   9.686   7.882   6.362 -0.1498 -0.3201 -0.3774
  279MOL0     C37537   9.557   7.927   6.368 -0.5973 -0.7560  0.6922
  279MOL0     O37538   9.476   7.882   6.468  1.1084 -0.8230  0.1023
  279MOL0     C37539   9.400   7.975   6.555 -0.5491  0.8231 -0.6261
  279MOL0     C37540   9.406   7.914   6.703  0.0222 -0.6161 -0.0664
  279MOL0     C37541   9.537   7.955   6.773 -0.6055  0.2986  1.1060
  279MOL0     C37542   9.577   7.854   6.873 -0.8394  0.1753  0.8559
  279MOL0     C37543   9.717   7.879   6.922 -0.1217  0.4900 -0.6736
  279MOL0     C37544   9.836   7.834   6.832 -0.3659  0.1015 -0.3159
  279MOL0     C37545   9.828   7.684   6.814  0.2065 -0.0870  0.0401
  279MOL0     C37546   9.967   7.627   6.775  0.5539 -0.4441  0.0483
  279MOL0     N37547  10.061   7.603   6.887  0.2301  0.8937  0.3932
  279MOL0     C37548  10.190   7.641   6.909  0.2766  0.2460 -0.6701
  279MOL0     C37549  10.246   7.569   7.003 -0.3088  0.6083 -0.1677
  279MOL0     C37550  10.381   7.582   7.058 -0.6980 -0.3565 -0.4057
  279MOL0     C37551  10.421   7.723   7.106 -0.8738  0.3104  0.0428
  279MOL0     C37552  10.537   7.719   7.200  0.5991  0.0928  0.2578
  279MOL0     C37553  10.580   7.861   7.222 -0.5335  0.1546 -0.0130
  279MOL0     O37554  10.669   7.874   7.328 -0.1100  0.4827  0.4731
  279MOL0     C37555  10.631   7.853   7.459 -0.0127  0.0650 -0.6803
  279MOL0     C37556  10.733   7.821   7.550  0.8753  0.0214  0.4493
  279MOL0     C37557  10.715   7.774   7.676 -0.1866  0.0436  0.2984
  279MOL0     C37558  10.837   7.758   7.769 -0.3277  0.5532 -0.2694
  279MOL0     C37559  10.589   7.754   7.722 -0.3185 -0.0651 -0.0713
  279MOL0     C37560  10.558   7.718   7.871  0.2101 -0.1437  0.7222
  279MOL0     O37561  10.437   7.771   7.915 -0.6503  0.2286  0.2056
  279MOL0     C37562  10.408   7.750   8.048  0.3108  0.0555 -0.1349
  279MOL0     C37563  10.459   7.832   8.146  0.0612  0.6052 -0.5626
  279MOL0     C37564  10.443   7.802   8.281  0.3062 -0.8414 -0.3245
  279MOL0     C37565  10.353   7.702   8.323  0.0558 -0.5638  0.7890
  279MOL0     O37566  10.316   7.675   8.451 -0.0602  0.2933  0.3322
  279MOL0     C37567  10.331   7.771   8.555  0.6554 -0.0302  0.0889
  279MOL0     C37568  10.219   7.868   8.543  0.0094 -0.2704 -1.1949
  279MOL0     C37569  10.241   7.996   8.627 -0.7003  0.4739  0.5922
  279MOL0     C37570  10.284   7.985   8.780 -0.4551 -0.0831 -0.9558
  279MOL0     C37571  10.169   7.932   8.865  0.9812  1.5609 -0.6228
  279MOL0     C37572  10.071   8.039   8.924  0.4681  0.5024  0.3998
  279MOL0     C37573   9.954   7.965   8.999 -0.4051 -0.1697  0.2196
  279MOL0     C37574   9.854   7.896   8.921  0.5071  0.5527 -0.8201
  279MOL0    Cl37575   9.897   7.733   8.880 -0.2416  0.1650 -0.1315
  279MOL0     C37576  10.299   7.614   8.228 -0.0177 -0.0889  0.4727
  279MOL0     C37577  10.326   7.647   8.087  0.7956 -0.2728  0.0896
  279MOL0     O37578  10.632   7.644   7.931  0.1576  0.1495  0.0314
  279MOL0     C37579  10.487   7.800   7.641  0.5903  0.5731  0.4500
  279MOL0     C37580  10.498   7.844   7.508 -0.0485  0.5964  0.1359
  279MOL0     N37581  10.148   7.476   7.039  0.2604 -0.9220 -0.3194
  279MOL0     N37582  10.035   7.505   6.972 -0.7029  0.1717 -0.0131
  279MOL0     C37583   9.514   8.012   6.260 -0.6227 -0.8642 -0.4198
  279MOL0     C37584   9.600   8.069   6.168  0.7677  0.1505 -0.1717
  279MOL0     C37585   9.901   8.112   5.859  0.1523 -0.2836  0.5638
  279MOL0     C37586   9.881   8.113   5.724 -0.6397  0.0115  0.7790
  279MOL0     C37587   9.976   8.184   5.643  0.4233  0.7321 -0.8379
  279MOL0     C37588  10.101   8.225   5.690  0.1690  0.3227  0.0255
  279MOL0     O37589  10.197   8.294   5.618 -0.2837  0.2459 -0.2395
  279MOL0     C37590  10.220   8.246   5.483 -0.4472  0.0054  0.6207
  279MOL0     C37591  10.363   8.248   5.432 -0.5709  0.2653 -0.5777
  279MOL0     C37592  10.447   8.368   5.466 -0.7107 -0.2080 -0.0568
  279MOL0     C37593  10.578   8.363   5.377 -0.5446  0.1260 -0.2665
  279MOL0     C37594  10.667   8.475   5.407 -0.7990 -0.9240 -0.3943
  279MOL0     C37595  10.734   8.576   5.428  0.7639  0.8653 -0.9468
  279MOL0     C37596  10.128   8.218   5.823  0.4881 -0.0000  0.3299
  279MOL0     C37597  10.025   8.163   5.912 -0.3193 -0.4155  0.4178
  279MOL0     H37598   9.873   7.896   6.253  0.9558  3.1384  0.3563
  279MOL0     H37599   9.736   7.816   6.432 -2.7197 -0.3520  1.5839
  279MOL0     H37600   9.450   8.072   6.562  0.8319  0.0388  2.4807
  279MOL0     H37601   9.300   7.988   6.514 -3.1554 -2.0434  3.9842
  279MOL0     H37602   9.325   7.957   6.762 -0.1332 -4.0772  2.5462
  279MOL0     H37603   9.406   7.804   6.705  1.2065 -0.6611 -1.0560
  279MOL0     H37604   9.605   7.944   6.688 -2.0971 -0.4244 -0.0663
  279MOL0     H37605   9.539   8.052   6.823 -1.7072  0.4642  0.8552
  279MOL0     H37606   9.502   7.859   6.952 -1.8862  2.1902 -0.1726
  279MOL0     H37607   9.568   7.755   6.827  1.9120  0.9999 -1.8079
  279MOL0     H37608   9.729   7.987   6.933  1.8700  0.1254  1.4824
  279MOL0     H37609   9.721   7.852   7.028  1.5400  1.8001 -0.3588
  279MOL0     H37610   9.844   7.889   6.738 -0.2685  0.4751 -0.0929
  279MOL0     H37611   9.926   7.866   6.884 -1.1118  1.8184 -0.0170
  279MOL0     H37612   9.785   7.639   6.904  0.5134 -2.5160 -0.9317
  279MOL0     H37613   9.764   7.661   6.729  2.3119  0.6796 -1.8501
  279MOL0     H37614  10.022   7.692   6.707  0.0238 -4.4398 -4.7253
  279MOL0     H37615   9.951   7.537   6.715 -1.8243  1.7152 -2.8315
  279MOL0     H37616  10.247   7.714   6.852 -0.8453  2.6881  1.1305
  279MOL0     H37617  10.413   7.513   7.137  0.8861  0.9130  0.1137
  279MOL0     H37618  10.445   7.550   6.974  0.9252 -5.2758  2.2749
  279MOL0     H37619  10.332   7.758   7.160  0.6686  3.1849  0.9474
  279MOL0     H37620  10.439   7.784   7.017 -3.3632  0.9771 -0.0881
  279MOL0     H37621  10.620   7.663   7.156 -1.5580 -1.7750 -1.7166
  279MOL0     H37622  10.503   7.671   7.292 -0.1065 -1.9750 -1.0094
  279MOL0     H37623  10.488   7.918   7.239 -1.1128 -0.7870  0.0840
  279MOL0     H37624  10.637   7.901   7.137  0.1398  2.0429  1.2660
  279MOL0     H37625  10.837   7.822   7.519  0.4859  0.7042 -0.9016
  279MOL0     H37626  10.868   7.653   7.776  1.5293  1.0744 -0.0814
  279MOL0     H37627  10.927   7.797   7.721  0.7157 -4.0808 -2.7026
  279MOL0     H37628  10.814   7.787   7.872 -0.4221 -0.4563  0.0077
  279MOL0     H37629  10.516   7.918   8.112 -0.9364  1.5845  0.1585
  279MOL0     H37630  10.474   7.866   8.363  0.0547  0.5313 -1.2598
  279MOL0     H37631  10.318   7.715   8.649  1.1963  0.2300  0.3182
  279MOL0     H37632  10.430   7.816   8.552 -0.2603  2.2465 -4.4764
  279MOL0     H37633  10.199   7.892   8.438 -1.9588 -2.5577 -1.4297
  279MOL0     H37634  10.128   7.817   8.577 -0.8885 -0.3094 -3.4638
  279MOL0     H37635  10.156   8.061   8.606 -1.1881 -0.9075 -2.1043
  279MOL0     H37636  10.310   8.056   8.567 -0.7340  0.1237  0.2000
  279MOL0     H37637  10.374   7.924   8.792  0.9186  2.3451  2.3316
  279MOL0     H37638  10.313   8.085   8.812 -0.5022 -0.1910 -0.5759
  279MOL0     H37639  10.213   7.885   8.954  1.7149  2.9492 -0.2213
  279MOL0     H37640  10.109   7.860   8.810  0.4886  0.9405  0.6775
  279MOL0     H37641  10.119   8.111   8.991 -3.1304  2.6766  0.8838
  279MOL0     H37642  10.030   8.105   8.848 -0.0630  1.3985  1.4371
  279MOL0     H37643   9.893   8.040   9.050  1.4844  1.4256  0.2377
  279MOL0     H37644  10.014   7.903   9.066  0.8996  0.3929 -0.4088
  279MOL0     H37645   9.827   7.963   8.839  0.8708  0.4862 -0.9999
  279MOL0     H37646   9.769   7.884   8.988  1.5862  2.5024  1.0107
  279MOL0     H37647  10.233   7.534   8.258 -3.9362  2.9019  0.6278
  279MOL0     H37648  10.288   7.574   8.016  3.3285 -3.3499  1.6557
  279MOL0     H37649  10.384   7.806   7.675  1.5564 -3.3874  5.0773
  279MOL0     H37650  10.416   7.860   7.439  1.0597 -0.6109 -1.5737
  279MOL0     H37651   9.409   8.040   6.256  0.2131  3.2693  1.8576
  279MOL0     H37652   9.567   8.148   6.101 -2.3461 -0.1536  0.8566
  279MOL0     H37653   9.790   8.082   5.674 -0.1365 -1.5319  0.7696
  279MOL0     H37654   9.951   8.182   5.538 -1.4381 -0.0926 -0.4124
  279MOL0     H37655  10.197   8.139   5.474  1.4753 -0.3466 -1.0047
  279MOL0     H37656  10.149   8.289   5.411  1.2349  1.5844 -0.1662
  279MOL0     H37657  10.357   8.242   5.323 -2.7977  0.2796 -0.5141
  279MOL0     H37658  10.405   8.157   5.475 -0.0809  1.2149  1.0429
  279MOL0     H37659  10.483   8.367   5.569 -1.1442  0.3192  0.0983
  279MOL0     H37660  10.387   8.456   5.444 -1.0815 -1.0444 -2.9092
  279MOL0     H37661  10.549   8.373   5.272  1.5504 -1.8455 -1.1386
  279MOL0     H37662  10.638   8.273   5.392  0.5861  0.8712 -0.1653
  279MOL0     H37663  10.796   8.662   5.450 -0.1590  1.8749 -2.1573
  279MOL0     H37664  10.223   8.250   5.864 -1.0766  2.8676  2.0790
  279MOL0     H37665  10.038   8.179   6.018  3.4246 -0.5775  0.1048
  280MOL0     O37666   4.063   5.642   4.725 -0.3172 -0.5612  0.3961
  280MOL0     C37667   4.118   5.560   4.798  0.4578 -1.3206  0.0348
  280MOL0     O37668   4.095   5.426   4.793  0.5055 -0.0493  0.1792
  280MOL0     C37669   3.976   5.381   4.738  0.1472  0.0391  0.2942
  280MOL0     C37670   3.994   5.281   4.644 -0.2599  0.6472  1.2756
  280MOL0     C37671   3.883   5.234   4.573 -0.3494  0.6015  0.8654
  280MOL0     C37672   3.751   5.291   4.578 -0.6751  0.7953 -0.7121
  280MOL0     O37673   3.648   5.245   4.495 -0.7615  0.0465 -0.7765
  280MOL0     C37674   3.510   5.291   4.509 -0.3754  0.5645 -0.1082
  280MOL0     C37675   3.440   5.220   4.393  0.7815 -0.3436  0.1283
  280MOL0     C37676   3.396   5.077   4.422  0.1668  0.1672 -0.0669
  280MOL0     C37677   3.302   5.033   4.319  0.6702  0.2838  0.8760
  280MOL0     C37678   3.159   5.036   4.367 -1.1352  0.3046  0.2044
  280MOL0     C37679   3.047   4.992   4.260  0.0537  0.4577  0.5721
  280MOL0     C37680   3.049   4.847   4.228 -0.6192  0.0674  0.2905
  280MOL0     C37681   2.924   4.798   4.146  0.2886  0.0966  0.3941
  280MOL0     N37682   2.802   4.789   4.237  0.5332  0.1151  0.2475
  280MOL0     C37683   2.795   4.709   4.351 -0.6574 -0.9560  0.5190
  280MOL0     C37684   2.691   4.764   4.423  0.3601  1.0342 -0.6312
  280MOL0     C37685   2.627   4.719   4.556 -0.0258 -0.0638  0.6051
  280MOL0     C37686   2.727   4.739   4.664  0.2049 -0.6493 -1.1600
  280MOL0     C37687   2.678   4.659   4.791  0.1408  0.5185 -0.4003
  280MOL0     C37688   2.779   4.645   4.909  0.6686 -0.2645 -0.3358
  280MOL0     O37689   2.806   4.770   4.962 -0.1014  0.0117 -0.2990
  280MOL0     C37690   2.930   4.773   5.022 -0.8201  0.2893 -0.1416
  280MOL0     C37691   2.953   4.774   5.155 -0.1614  0.4447 -0.8658
  280MOL0     C37692   3.079   4.783   5.213  0.3593  0.0891 -0.7770
  280MOL0     C37693   3.085   4.795   5.364 -0.1337 -0.2745  0.4910
  280MOL0     C37694   3.189   4.779   5.124 -0.0634  0.1148 -0.9343
  280MOL0     C37695   3.324   4.748   5.179  0.6441  0.4868  0.0834
  280MOL0     O37696   3.433   4.790   5.114 -0.2772  0.1985 -0.0797
  280MOL0     C37697   3.552   4.764   5.170 -1.0236 -0.3332 -0.9671
  280MOL0     C37698   3.602   4.634   5.166 -1.0186 -0.1034  1.5459
  280MOL0     C37699   3.729   4.607   5.229  0.5185 -0.0214  0.4725
  280MOL0     C37700   3.796   4.709   5.291 -0.1439  0.1149  0.0271
  280MOL0     O37701   3.924   4.678   5.333  0.3909  0.2785 -0.2767
  280MOL0     C37702   3.961   4.728   5.460  0.4622  0.5196  0.3505
  280MOL0     C37703   4.088   4.641   5.500  0.0880 -0.5272 -0.3469
  280MOL0     C37704   4.215   4.692   5.418  0.0089 -0.4010  0.3481
  280MOL0     C37705   4.356   4.650   5.472  1.2630 -0.4836 -0.2287
  280MOL0     C37706   4.378   4.638   5.621  0.4735  0.0984 -0.3834
  280MOL0     C37707   4.529   4.660   5.641 -0.0213 -0.2820 -0.3493
  280MOL0     C37708   4.588   4.647   5.783  0.0148  0.6277  0.1600
  280MOL0     C37709   4.545   4.516   5.853 -0.1736  0.6195  0.4435
  280MOL0    Cl37710   4.540   4.358   5.762  0.0722 -0.6478  0.5251
  280MOL0     C37711   3.733   4.831   5.310  0.2879  1.0732 -0.2282
  280MOL0     C37712   3.623   4.861   5.235 -0.1144 -0.7461  0.2226
  280MOL0     O37713   3.325   4.664   5.269  0.4632  0.1315  0.1103
  280MOL0     C37714   3.175   4.810   4.987  0.6068  0.3366 -0.7354
  280MOL0     C37715   3.047   4.798   4.942  0.9669 -0.7394  0.2929
  280MOL0     N37716   2.640   4.869   4.352 -0.0871 -0.9228 -0.4720
  280MOL0     N37717   2.702   4.880   4.243 -0.8764  0.1612  0.3686
  280MOL0     C37718   3.745   5.399   4.666  0.1795 -0.2128 -0.1440
  280MOL0     C37719   3.854   5.440   4.750  0.2533  0.1473  1.0053
  280MOL0     C37720   4.214   5.621   4.892 -0.6273  0.8673 -0.2010
  280MOL0     C37721   4.254   5.555   5.015  0.3506 -0.2345 -0.1222
  280MOL0     C37722   4.358   5.604   5.092  0.0094 -0.3539 -0.4814
  280MOL0     C37723   4.401   5.736   5.070  0.4079 -0.9273 -0.4328
  280MOL0     O37724   4.468   5.810   5.162  0.6682  0.0456 -0.3003
  280MOL0     C37725   4.566   5.735   5.233 -0.6395 -1.0588 -0.4094
  280MOL0     C37726   4.685   5.832   5.270  0.5439 -0.1320 -0.9053
  280MOL0     C37727   4.665   5.911   5.400 -0.4402  0.2106 -0.0669
  280MOL0     C37728   4.651   5.828   5.536  0.2656 -0.4941 -0.5670
  280MOL0     C37729   4.769   5.751   5.563 -0.6882  0.3388  1.0412
  280MOL0     C37730   4.882   5.704   5.574 -0.3491 -0.3438  0.0311
  280MOL0     C37731   4.341   5.808   4.972 -0.5231  1.1143 -0.2931
  280MOL0     C37732   4.262   5.750   4.870 -0.1033 -0.2530  0.2958
  280MOL0     H37733   4.088   5.235   4.616 -1.2165  1.1547 -3.8853
  280MOL0     H37734   3.902   5.155   4.501  2.7918  1.6619  0.3787
  280MOL0     H37735   3.479   5.246   4.604  2.6098 -2.1422 -0.2680
  280MOL0     H37736   3.521   5.400   4.503  3.1662  0.2230 -3.5497
  280MOL0     H37737   3.350   5.280   4.378  1.5242  1.5153  2.4227
  280MOL0     H37738   3.506   5.210   4.306  1.3218  0.2722  0.4585
  280MOL0     H37739   3.484   5.013   4.407  1.2348  1.1849  1.5084
  280MOL0     H37740   3.362   5.062   4.525 -0.9362  3.0639  0.0894
  280MOL0     H37741   3.305   5.099   4.231 -2.6765 -2.4934 -1.5943
  280MOL0     H37742   3.320   4.930   4.289  1.4171 -0.3823  3.3911
  280MOL0     H37743   3.160   4.963   4.448  0.4949  0.9835  0.8382
  280MOL0     H37744   3.124   5.133   4.403  1.4123  0.9430  1.1493
  280MOL0     H37745   2.949   5.016   4.304 -0.2545  1.5857 -0.6904
  280MOL0     H37746   3.062   5.042   4.165 -1.4478 -1.7594 -0.9359
  280MOL0     H37747   3.130   4.824   4.158 -1.0293 -0.6898  0.0437
  280MOL0     H37748   3.079   4.784   4.313 -1.6471 -1.5899 -0.5116
  280MOL0     H37749   2.941   4.697   4.109 -1.0369  0.3551 -1.0107
  280MOL0     H37750   2.901   4.874   4.071  1.0761  0.1052  0.1624
  280MOL0     H37751   2.860   4.628   4.383 -0.8159 -1.6526 -0.8020
  280MOL0     H37752   2.539   4.782   4.571  1.2843  1.3292  3.2572
  280MOL0     H37753   2.591   4.617   4.542 -3.7876  1.2888 -0.8114
  280MOL0     H37754   2.735   4.847   4.676 -1.7130 -0.5659 -0.1810
  280MOL0     H37755   2.827   4.703   4.640  0.3652 -0.4821 -0.7354
  280MOL0     H37756   2.655   4.556   4.762 -0.8265  0.8237 -0.7683
  280MOL0     H37757   2.589   4.704   4.836  1.1508  2.2262 -0.0188
  280MOL0     H37758   2.872   4.601   4.871  0.1726 -3.6450  1.9217
  280MOL0     H37759   2.735   4.585   4.989  1.7120  1.4808  1.6383
  280MOL0     H37760   2.865   4.761   5.218  1.3197  1.5992  1.5799
  280MOL0     H37761   3.145   4.879   5.399  1.3046 -1.1075  0.0916
  280MOL0     H37762   2.986   4.822   5.403 -0.6171  1.1909 -1.6050
  280MOL0     H37763   3.114   4.703   5.416  0.6411 -0.3441 -0.0580
  280MOL0     H37764   3.555   4.549   5.118  2.9087  0.0358 -3.3648
  280MOL0     H37765   3.787   4.516   5.221  0.3825  0.0381 -1.8657
  280MOL0     H37766   4.001   4.829   5.457 -1.2806  1.2203 -0.6990
  280MOL0     H37767   3.876   4.716   5.528 -1.1583 -0.7640 -1.7643
  280MOL0     H37768   4.117   4.662   5.603  0.4089 -1.6754 -0.1855
  280MOL0     H37769   4.056   4.536   5.494 -2.5171  0.1961 -0.2836
  280MOL0     H37770   4.208   4.800   5.432 -2.5801 -0.7245  2.1845
  280MOL0     H37771   4.204   4.672   5.311  1.3523 -0.7009  0.2488
  280MOL0     H37772   4.385   4.554   5.429  0.3950 -0.1133 -1.7047
  280MOL0     H37773   4.407   4.730   5.417 -1.0698  1.1396 -0.2113
  280MOL0     H37774   4.356   4.537   5.655  3.5769 -1.5128 -2.7190
  280MOL0     H37775   4.322   4.715   5.676 -0.1183  2.7110 -4.2856
  280MOL0     H37776   4.583   4.592   5.575  1.5066  1.5377 -1.0623
  280MOL0     H37777   4.546   4.763   5.608 -0.9200  0.1280  0.4327
  280MOL0     H37778   4.551   4.729   5.846  0.6496 -0.7351  2.4098
  280MOL0     H37779   4.696   4.650   5.769 -0.1588  0.7578 -1.3472
  280MOL0     H37780   4.444   4.539   5.887 -0.3526 -0.8102  0.9459
  280MOL0     H37781   4.599   4.497   5.946 -2.2258  2.0376  1.9930
  280MOL0     H37782   3.778   4.909   5.371 -0.1448  1.7966 -0.8156
  280MOL0     H37783   3.588   4.962   5.221 -1.3831 -1.2974 -0.7427
  280MOL0     H37784   3.252   4.828   4.913 -0.0762  0.7139 -1.3695
  280MOL0     H37785   3.034   4.809   4.835  0.4201 -2.0535  0.2123
  280MOL0     H37786   3.652   5.455   4.669 -0.7996 -1.7586 -0.6473
  280MOL0     H37787   3.839   5.525   4.815 -0.8880  2.2746 -1.8606
  280MOL0     H37788   4.223   5.455   5.042  1.1450 -0.4613 -0.0225
  280MOL0     H37789   4.390   5.551   5.181  0.7555  0.8582 -0.0040
  280MOL0     H37790   4.510   5.701   5.321 -0.5212 -0.8471 -0.2510
  280MOL0     H37791   4.607   5.650   5.178 -1.1104 -3.6289  2.8803
  280MOL0     H37792   4.694   5.913   5.197 -2.1412 -0.1395 -1.3329
  280MOL0     H37793   4.774   5.769   5.282 -1.0939 -2.0653  2.4277
  280MOL0     H37794   4.573   5.963   5.372 -0.9750 -0.8725 -0.3517
  280MOL0     H37795   4.741   5.987   5.423 -0.8746  1.5338 -2.6277
  280MOL0     H37796   4.562   5.765   5.525  0.1891 -0.4898 -0.0020
  280MOL0     H37797   4.632   5.887   5.626  3.1479 -2.9028  1.8201
  280MOL0     H37798   4.983   5.670   5.585 -0.0857 -0.8932 -3.1441
  280MOL0     H37799   4.354   5.915   4.959 -0.1853  1.4361  2.2646
  280MOL0     H37800   4.219   5.800   4.784 -0.5711 -0.7375  0.2396
  281MOL0     O37801   7.022   9.445   8.195  0.0975 -0.2154  0.2935
  281MOL0     C37802   7.049   9.323   8.218  0.0487  0.0340 -0.0664
  281MOL0     O37803   7.162   9.269   8.287 -0.3511 -0.4915 -0.2140
  281MOL0     C37804   7.241   9.360   8.367 -0.2809  0.6539  0.4104
  281MOL0     C37805   7.376   9.349   8.354  0.3946 -0.3074  0.7241
  281MOL0     C37806   7.458   9.457   8.399  0.1054 -0.3487 -0.7898
  281MOL0     C37807   7.411   9.561   8.467  0.0438 -0.0718 -0.0921
  281MOL0     O37808   7.489   9.671   8.512  0.3035 -0.2020 -0.4648
  281MOL0     C37809   7.610   9.695   8.445 -1.0105 -0.8665 -0.9971
  281MOL0     C37810   7.664   9.827   8.497  1.2664  0.8637  0.1933
  281MOL0     C37811   7.809   9.856   8.505  0.0530 -0.4381 -0.0548
  281MOL0     C37812   7.830  10.004   8.551  0.3786 -0.6592  1.3461
  281MOL0     C37813   7.982  10.041   8.555  0.9033 -0.3337 -0.1845
  281MOL0     C37814   7.987  10.179   8.632 -0.3038 -1.0677  0.6212
  281MOL0     C37815   8.134  10.230   8.655 -0.3565  0.9815 -0.3957
  281MOL0     C37816   8.135  10.370   8.701  0.1372 -0.2742  1.2297
  281MOL0     N37817   8.053  10.378   8.821 -0.9143 -0.0887  0.3541
  281MOL0     C37818   7.927  10.421   8.824 -0.3011  0.9804  0.0999
  281MOL0     C37819   7.874  10.390   8.945 -0.6724 -0.1572  0.0464
  281MOL0     C37820   7.734  10.407   9.001 -0.3376 -1.1703 -0.3398
  281MOL0     C37821   7.650  10.278   8.989 -0.3676  0.0836  0.6040
  281MOL0     C37822   7.700  10.161   9.062 -0.0587  0.3458 -0.7921
  281MOL0     C37823   7.590  10.052   9.088  0.9650  0.3766  0.3519
  281MOL0     O37824   7.579   9.976   8.968 -0.2813  1.3468 -0.4860
  281MOL0     C37825   7.478   9.888   8.956  0.0139 -0.1769 -1.3766
  281MOL0     C37826   7.399   9.833   9.061  0.3667  0.2385 -0.3285
  281MOL0     C37827   7.282   9.757   9.036  0.0240 -0.8232  0.5509
  281MOL0     C37828   7.188   9.732   9.152  0.8740  0.0573 -0.1178
  281MOL0     C37829   7.255   9.730   8.901 -0.7095  0.2427  1.0774
  281MOL0     C37830   7.133   9.654   8.848  0.6703 -0.0362 -0.2013
  281MOL0     O37831   7.078   9.698   8.730 -0.6712  0.6256 -0.5612
  281MOL0     C37832   6.973   9.637   8.673  0.7333  1.5230  0.0302
  281MOL0     C37833   6.908   9.509   8.712 -0.3951  0.0710 -1.2065
  281MOL0     C37834   6.799   9.457   8.643  0.3213 -0.1218 -0.0173
  281MOL0     C37835   6.751   9.526   8.535  0.2775 -0.2780 -0.2866
  281MOL0     O37836   6.640   9.469   8.470 -0.2810 -0.0571  0.1784
  281MOL0     C37837   6.690   9.367   8.392  0.6086  0.8139  0.1197
  281MOL0     C37838   6.578   9.304   8.293  0.3234 -1.3203 -0.3108
  281MOL0     C37839   6.447   9.281   8.369  0.0283 -0.0132  0.2874
  281MOL0     C37840   6.321   9.305   8.280 -0.5973  0.1464  0.4460
  281MOL0     C37841   6.204   9.247   8.359  0.3776  0.1923  0.1403
  281MOL0     C37842   6.071   9.240   8.276  0.2973 -0.5897 -0.4375
  281MOL0     C37843   5.993   9.116   8.320 -0.2786  0.5658  1.1416
  281MOL0     C37844   5.855   9.105   8.253  0.4601 -0.1447 -0.4727
  281MOL0    Cl37845   5.764   8.968   8.318 -0.7563 -0.5298 -0.5682
  281MOL0     C37846   6.796   9.653   8.504  0.5039 -0.6257  0.2838
  281MOL0     C37847   6.921   9.699   8.559 -0.3564 -0.3481  0.5759
  281MOL0     O37848   7.096   9.557   8.918 -0.0446  0.0319 -0.4330
  281MOL0     C37849   7.328   9.784   8.805 -0.5405  0.6166  0.4013
  281MOL0     C37850   7.430   9.866   8.828 -0.2201  0.9048 -0.6308
  281MOL0     N37851   7.969  10.335   9.019 -0.5664 -0.2289  0.0995
  281MOL0     N37852   8.082  10.331   8.942  0.5128 -0.0492  0.0022
  281MOL0     C37853   7.274   9.561   8.496 -0.1020 -0.6347 -0.7026
  281MOL0     C37854   7.189   9.462   8.444  0.1206 -0.4448  0.1055
  281MOL0     C37855   6.955   9.217   8.183  0.6116 -0.0083 -0.6450
  281MOL0     C37856   6.941   9.107   8.265 -0.9643 -0.1735  0.2346
  281MOL0     C37857   6.854   9.007   8.223 -0.6120 -0.0321 -0.7647
  281MOL0     C37858   6.774   9.016   8.106 -0.3006 -0.8458 -0.6860
  281MOL0     O37859   6.686   8.915   8.086 -0.0161 -0.7021 -0.2586
  281MOL0     C37860   6.606   8.922   7.973  0.5052  0.3024  0.2835
  281MOL0     C37861   6.477   9.006   7.981 -0.9891 -0.9111 -0.4919
  281MOL0     C37862   6.393   9.004   7.846  0.0319 -0.0430  0.2258
  281MOL0     C37863   6.264   9.096   7.857 -0.2748 -0.3312 -0.2819
  281MOL0     C37864   6.164   9.021   7.926 -1.2928 -0.3890  0.8761
  281MOL0     C37865   6.095   8.946   7.991 -1.2507 -0.2176  0.1700
  281MOL0     C37866   6.780   9.134   8.040 -0.6795  0.1004  0.4309
  281MOL0     C37867   6.869   9.233   8.077 -0.7400  0.3158  0.4121
  281MOL0     H37868   7.421   9.269   8.296 -4.0257 -2.0582 -0.7167
  281MOL0     H37869   7.557   9.446   8.356  0.7644  1.1237  0.3014
  281MOL0     H37870   7.684   9.620   8.474  3.7942  4.0663  1.3734
  281MOL0     H37871   7.600   9.699   8.336 -0.3477 -1.3488 -1.0853
  281MOL0     H37872   7.611   9.903   8.439  0.7229 -2.4054 -4.1339
  281MOL0     H37873   7.631   9.854   8.598  0.3541  0.5047  0.0003
  281MOL0     H37874   7.870   9.791   8.569  4.1667  2.7649 -0.2941
  281MOL0     H37875   7.858   9.840   8.408 -1.5167 -2.8326 -0.5427
  281MOL0     H37876   7.774  10.066   8.480 -0.4921  2.0422  4.1794
  281MOL0     H37877   7.781  10.008   8.649 -3.5040 -1.8392 -0.3336
  281MOL0     H37878   8.047   9.968   8.604  1.7590  0.1223 -0.6231
  281MOL0     H37879   8.022  10.041   8.454  1.5543  3.7470 -0.1151
  281MOL0     H37880   7.939  10.259   8.574  0.6980  1.1178  2.6108
  281MOL0     H37881   7.928  10.167   8.723  0.2245 -4.1768  0.6435
  281MOL0     H37882   8.168  10.169   8.739  0.6792 -0.9402 -2.1220
  281MOL0     H37883   8.200  10.230   8.568  2.2715  0.6595  1.4887
  281MOL0     H37884   8.090  10.440   8.629 -0.2513 -0.4709  1.2771
  281MOL0     H37885   8.239  10.397   8.719  1.0484 -0.8486 -2.4560
  281MOL0     H37886   7.866  10.451   8.739  0.2643 -1.6414 -1.3524
  281MOL0     H37887   7.737  10.440   9.105 -0.5675 -2.1620  0.0009
  281MOL0     H37888   7.689  10.485   8.939 -1.6699 -2.8233 -1.5446
  281MOL0     H37889   7.617  10.242   8.891 -1.0069 -1.0990  1.2174
  281MOL0     H37890   7.555  10.311   9.034 -1.8750 -1.3745 -1.3349
  281MOL0     H37891   7.735  10.187   9.163 -2.7630 -0.6970  0.4999
  281MOL0     H37892   7.774  10.120   8.993  1.6846  2.7845 -0.5090
  281MOL0     H37893   7.499  10.103   9.120  0.5420 -1.7660  2.8423
  281MOL0     H37894   7.624   9.976   9.158  0.6778  0.8807  1.0461
  281MOL0     H37895   7.427   9.851   9.164 -0.3003 -2.3734  0.3884
  281MOL0     H37896   7.205   9.645   9.216 -0.9305 -0.7891 -0.7262
  281MOL0     H37897   7.198   9.817   9.220  0.5856 -0.4603  0.5776
  281MOL0     H37898   7.084   9.726   9.118  0.8864 -1.7453  0.0513
  281MOL0     H37899   6.946   9.445   8.791 -0.3196  0.6603 -0.7604
  281MOL0     H37900   6.753   9.362   8.669 -2.2736  1.8332  3.4348
  281MOL0     H37901   6.773   9.404   8.330  2.0480 -2.4345 -0.1095
  281MOL0     H37902   6.735   9.287   8.452  1.5450 -0.4464 -2.1253
  281MOL0     H37903   6.553   9.377   8.215 -0.6394 -0.5030  0.7145
  281MOL0     H37904   6.616   9.215   8.243  2.4886 -0.1582 -0.8662
  281MOL0     H37905   6.436   9.354   8.450 -1.5927  1.6364 -1.3049
  281MOL0     H37906   6.438   9.184   8.420 -1.4670  0.8753  1.8044
  281MOL0     H37907   6.316   9.414   8.278  0.9624  0.2484 -1.6273
  281MOL0     H37908   6.324   9.266   8.178  0.3481  4.1948 -1.2547
  281MOL0     H37909   6.181   9.299   8.452 -2.9520 -1.0489  0.1569
  281MOL0     H37910   6.240   9.150   8.394 -0.3495 -0.4557 -0.8389
  281MOL0     H37911   6.021   9.330   8.315 -0.2420 -1.9457  2.2232
  281MOL0     H37912   6.080   9.263   8.169 -0.9060 -0.2913 -0.4893
  281MOL0     H37913   5.981   9.105   8.428 -0.5931 -0.2281  1.0299
  281MOL0     H37914   6.052   9.032   8.282 -2.5340 -1.1041  1.0757
  281MOL0     H37915   5.855   9.101   8.144 -0.6744 -1.1017 -0.4663
  281MOL0     H37916   5.787   9.185   8.282 -0.9823 -1.7437  0.7921
  281MOL0     H37917   6.740   9.708   8.429 -1.9287 -1.1633  1.6019
  281MOL0     H37918   6.971   9.785   8.517 -1.9246  0.8866  1.1773
  281MOL0     H37919   7.315   9.757   8.701 -1.1844 -2.3316  1.1588
  281MOL0     H37920   7.475   9.912   8.740 -1.0993 -0.2917 -1.7645
  281MOL0     H37921   7.229   9.650   8.539  0.9853 -0.0416 -0.7371
  281MOL0     H37922   7.082   9.481   8.444  0.1252 -0.0720  2.3061
  281MOL0     H37923   7.010   9.096   8.348  0.0562  0.7656 -0.4488
  281MOL0     H37924   6.851   8.913   8.277  1.2800 -0.0169 -0.5489
  281MOL0     H37925   6.654   8.951   7.879 -0.5334  0.1784 -0.3053
  281MOL0     H37926   6.567   8.820   7.962 -1.8845  1.0223  1.4881
  281MOL0     H37927   6.494   9.109   8.012  2.1791 -0.7926 -2.2250
  281MOL0     H37928   6.416   8.959   8.059 -0.7487  1.8512  1.4801
  281MOL0     H37929   6.363   8.904   7.812 -0.3770  0.5999 -1.4328
  281MOL0     H37930   6.460   9.038   7.767  1.7560 -1.7612  0.8741
  281MOL0     H37931   6.216   9.121   7.762 -0.9876 -3.9775 -1.0509
  281MOL0     H37932   6.284   9.184   7.918  2.5937 -1.2148  0.1700
  281MOL0     H37933   6.034   8.872   8.038  1.5943 -3.8635 -1.4424
  281MOL0     H37934   6.719   9.160   7.954 -0.7253 -0.5494  0.2637
  281MOL0     H37935   6.862   9.322   8.014 -1.2701 -0.0057  0.0026
  282MOL0     O37936   4.526   3.777   5.478  0.4586  0.2442  0.9382
  282MOL0     C37937   4.507   3.826   5.587  0.0795  0.6093 -0.2873
  282MOL0     O37938   4.590   3.921   5.646  0.2886  0.3333 -0.2788
  282MOL0     C37939   4.688   3.958   5.566 -0.3205 -0.3102  0.3148
  282MOL0     C37940   4.796   3.887   5.530  0.2756 -0.6347 -0.2712
  282MOL0     C37941   4.897   3.939   5.449  0.1754 -1.0662 -0.0945
  282MOL0     C37942   4.887   4.067   5.390  0.0503 -1.0116 -1.5495
  282MOL0     O37943   4.997   4.108   5.316 -0.4095 -0.6637  0.4237
  282MOL0     C37944   4.971   4.189   5.197  0.5897  0.1173 -0.2005
  282MOL0     C37945   5.088   4.195   5.115 -1.1463 -1.3764 -0.4872
  282MOL0     C37946   5.124   4.053   5.056 -0.2481 -0.2639 -0.0247
  282MOL0     C37947   5.048   3.987   4.938 -0.2069 -1.7033 -0.5275
  282MOL0     C37948   5.075   3.844   4.938 -0.2870 -0.3337  0.1887
  282MOL0     C37949   5.024   3.774   4.812 -0.2583 -0.1878 -0.5646
  282MOL0     C37950   5.010   3.620   4.840 -0.8003 -0.5898  0.5618
  282MOL0     C37951   5.056   3.543   4.724 -0.2260 -0.8379  0.3214
  282MOL0     N37952   4.980   3.594   4.613  0.0430 -0.7707  0.6180
  282MOL0     C37953   4.843   3.588   4.592  0.9718 -0.2000 -1.2590
  282MOL0     C37954   4.824   3.650   4.480 -0.3150  0.1654  0.7834
  282MOL0     C37955   4.683   3.688   4.420  0.8223  0.1528 -0.2560
  282MOL0     C37956   4.594   3.782   4.496 -0.1887  1.2869 -0.6709
  282MOL0     C37957   4.437   3.757   4.489  0.1423  0.2383  0.2104
  282MOL0     C37958   4.384   3.759   4.348 -0.5964 -0.1092  0.3746
  282MOL0     O37959   4.416   3.887   4.291 -0.3319  0.2037  0.4905
  282MOL0     C37960   4.376   3.913   4.162 -0.2103 -0.1586 -0.7475
  282MOL0     C37961   4.415   4.032   4.096 -0.1804  0.2584 -0.1673
  282MOL0     C37962   4.384   4.067   3.969 -0.3363 -0.4824  0.8554
  282MOL0     C37963   4.458   4.176   3.896 -0.1126 -1.3719  1.0023
  282MOL0     C37964   4.287   3.984   3.895  0.0481 -0.7646  0.2610
  282MOL0     C37965   4.244   4.005   3.755 -0.5553  0.6660 -0.6606
  282MOL0     O37966   4.335   4.016   3.654  0.2362  0.0738 -0.3481
  282MOL0     C37967   4.280   4.059   3.528  0.3223  0.1752 -0.2069
  282MOL0     C37968   4.208   4.180   3.504  0.5890 -0.4003 -0.3104
  282MOL0     C37969   4.183   4.231   3.369  0.6269 -0.4300 -0.2180
  282MOL0     C37970   4.216   4.146   3.258  0.3892 -0.6391  0.4488
  282MOL0     O37971   4.179   4.190   3.131  0.1768 -0.1529 -0.2261
  282MOL0     C37972   4.076   4.289   3.115  0.2269 -0.0982  0.0018
  282MOL0     C37973   4.018   4.258   2.979 -0.0965  0.1621  0.5244
  282MOL0     C37974   3.907   4.357   2.946  0.9362 -0.1201  0.8714
  282MOL0     C37975   3.833   4.309   2.820  0.7661 -0.5391 -0.1500
  282MOL0     C37976   3.714   4.406   2.783 -1.4149  0.9058 -1.2881
  282MOL0     C37977   3.756   4.542   2.750 -0.8828  0.6157  0.4011
  282MOL0     C37978   3.652   4.635   2.679  0.8470  0.0302 -1.0226
  282MOL0     C37979   3.721   4.754   2.624  0.1812 -0.6417  0.0719
  282MOL0    Cl37980   3.784   4.851   2.755 -0.1136 -0.3473 -0.0777
  282MOL0     C37981   4.284   4.029   3.287  0.1442 -0.1621  0.3070
  282MOL0     C37982   4.316   3.991   3.413  0.6456  0.4003 -0.5770
  282MOL0     O37983   4.120   4.020   3.747 -0.0452  0.7946 -0.3908
  282MOL0     C37984   4.245   3.867   3.962  0.4485  0.5256  0.4150
  282MOL0     C37985   4.287   3.837   4.087  0.4643  0.1364  0.5118
  282MOL0     N37986   4.943   3.687   4.432 -0.4433 -0.3125 -0.0831
  282MOL0     N37987   5.040   3.660   4.510  0.1223 -0.5412  0.5035
  282MOL0     C37988   4.772   4.148   5.428  0.6491  0.5559 -0.2472
  282MOL0     C37989   4.677   4.089   5.512  0.3580  0.4755 -0.2787
  282MOL0     C37990   4.386   3.790   5.670  0.8022  0.4863 -0.0194
  282MOL0     C37991   4.336   3.874   5.773  0.7072  0.9756 -0.3705
  282MOL0     C37992   4.223   3.854   5.840 -0.1388 -0.3013  0.4851
  282MOL0     C37993   4.153   3.734   5.827  0.1624 -0.1885 -0.1925
  282MOL0     O37994   4.059   3.707   5.926 -0.2278  0.5154 -0.0213
  282MOL0     C37995   3.971   3.597   5.911  0.0901 -0.1396 -0.2379
  282MOL0     C37996   3.885   3.611   6.042  0.4434  0.2956  0.8541
  282MOL0     C37997   3.775   3.507   6.048 -0.0681  0.5122  0.3667
  282MOL0     C37998   3.705   3.516   6.183  0.4069 -0.1528 -0.6293
  282MOL0     C37999   3.578   3.433   6.191  0.3042  0.3001 -0.1254
  282MOL0     C38000   3.466   3.376   6.194  0.2322 -0.0810 -0.2179
  282MOL0     C38001   4.181   3.645   5.718  0.5944 -0.6216  0.1894
  282MOL0     C38002   4.303   3.677   5.642  0.7565  0.3174 -0.4538
  282MOL0     H38003   4.803   3.795   5.586  0.9384  0.0403  0.7894
  282MOL0     H38004   4.971   3.866   5.416  0.3125 -0.4940 -1.0919
  282MOL0     H38005   4.890   4.136   5.145  0.4402 -0.6714  0.8123
  282MOL0     H38006   4.948   4.290   5.230 -0.2896  0.6441 -2.2404
  282MOL0     H38007   5.072   4.270   5.038  0.8686 -0.0457  0.2986
  282MOL0     H38008   5.169   4.235   5.177 -3.0359 -2.3032  2.8556
  282MOL0     H38009   5.227   4.068   5.021  0.2817 -1.3019  1.0409
  282MOL0     H38010   5.126   3.978   5.136  0.4116 -0.1039  0.1125
  282MOL0     H38011   4.940   4.005   4.946 -0.2096 -2.0850  0.4081
  282MOL0     H38012   5.073   4.036   4.844 -0.1815  0.3658  0.4924
  282MOL0     H38013   5.183   3.825   4.944 -0.1427  0.8783  3.2984
  282MOL0     H38014   5.021   3.804   5.024 -0.9587 -0.9607 -0.5072
  282MOL0     H38015   4.931   3.816   4.773 -0.9146 -1.4901 -0.4426
  282MOL0     H38016   5.096   3.797   4.732 -0.1482 -1.0362 -0.7180
  282MOL0     H38017   5.086   3.610   4.918  0.6209  2.7257 -0.2125
  282MOL0     H38018   4.909   3.594   4.875 -0.9331 -1.5319 -0.4703
  282MOL0     H38019   5.039   3.435   4.719  0.5671 -0.9942  0.8183
  282MOL0     H38020   5.164   3.559   4.711 -0.2914 -0.4310  0.2855
  282MOL0     H38021   4.766   3.538   4.650  1.3833 -0.3404 -0.8243
  282MOL0     H38022   4.681   3.714   4.314 -1.2611 -1.2139 -0.6097
  282MOL0     H38023   4.638   3.591   4.439 -0.7022  0.6652 -1.0758
  282MOL0     H38024   4.622   3.885   4.470  2.8577  0.4262 -1.2019
  282MOL0     H38025   4.619   3.776   4.602  1.3406 -0.0144 -1.0639
  282MOL0     H38026   4.386   3.834   4.548  0.3477  0.1522  0.5057
  282MOL0     H38027   4.413   3.660   4.534 -0.1131  0.0195 -0.3855
  282MOL0     H38028   4.277   3.740   4.361 -0.8832  1.3010  0.2633
  282MOL0     H38029   4.436   3.682   4.291 -0.1304 -1.4268  2.4556
  282MOL0     H38030   4.484   4.099   4.148 -0.6371  0.5916  0.0168
  282MOL0     H38031   4.390   4.243   3.843  0.2959 -1.6196  0.1437
  282MOL0     H38032   4.520   4.239   3.960 -1.9827 -1.4363  3.0159
  282MOL0     H38033   4.524   4.132   3.821  0.1641  0.6340  0.0096
  282MOL0     H38034   4.178   4.233   3.594  3.1912  0.4472  0.1401
  282MOL0     H38035   4.112   4.313   3.367 -2.2577 -2.7144  1.0348
  282MOL0     H38036   4.007   4.279   3.199  1.1274  1.7343  1.0235
  282MOL0     H38037   4.126   4.387   3.116 -3.5912  2.0556  0.4945
  282MOL0     H38038   4.099   4.259   2.906  2.0983  0.1414  2.8456
  282MOL0     H38039   3.983   4.155   2.979  1.8592 -0.5405  1.1518
  282MOL0     H38040   3.946   4.458   2.933 -0.8547  0.2980 -2.3335
  282MOL0     H38041   3.824   4.349   3.017 -1.0686 -1.2537 -1.3975
  282MOL0     H38042   3.900   4.317   2.734  0.3668  3.3918 -0.2672
  282MOL0     H38043   3.799   4.205   2.832  3.2977 -1.7237 -2.2802
  282MOL0     H38044   3.652   4.409   2.873  1.3312 -3.6916  1.1580
  282MOL0     H38045   3.661   4.354   2.702 -1.1857 -2.3962  0.4762
  282MOL0     H38046   3.798   4.592   2.837  1.7455 -0.6938  0.0125
  282MOL0     H38047   3.846   4.532   2.688  0.4729  0.7304  2.2597
  282MOL0     H38048   3.566   4.653   2.743  1.4719 -0.4471 -0.0126
  282MOL0     H38049   3.617   4.579   2.592 -0.4512 -1.8967  0.6570
  282MOL0     H38050   3.657   4.818   2.563  4.1907 -0.3538 -4.4466
  282MOL0     H38051   3.809   4.725   2.565  0.6319  3.1342 -1.3883
  282MOL0     H38052   4.332   3.975   3.206  3.2373 -0.3786  2.1115
  282MOL0     H38053   4.387   3.908   3.418  1.3598  1.0757  1.6012
  282MOL0     H38054   4.180   3.801   3.905  4.0537 -0.4285 -2.9476
  282MOL0     H38055   4.258   3.741   4.127  2.9628 -0.9945 -0.1759
  282MOL0     H38056   4.760   4.249   5.390  1.8847  0.2602 -1.5266
  282MOL0     H38057   4.592   4.151   5.537 -0.8077 -1.2077  0.0949
  282MOL0     H38058   4.385   3.969   5.788 -1.6958  2.3305 -0.5329
  282MOL0     H38059   4.189   3.926   5.914 -0.4883 -1.0711  1.1016
  282MOL0     H38060   3.901   3.594   5.827  0.2823 -0.7563 -0.3777
  282MOL0     H38061   4.023   3.501   5.913  1.8562  0.7006 -2.1273
  282MOL0     H38062   3.847   3.713   6.054 -1.9459 -0.7509  3.6008
  282MOL0     H38063   3.959   3.596   6.121  0.7810 -0.1259  0.4537
  282MOL0     H38064   3.824   3.410   6.036 -0.3819  0.6114 -2.4125
  282MOL0     H38065   3.706   3.508   5.963  1.2861 -0.8635 -0.7982
  282MOL0     H38066   3.661   3.613   6.207 -5.5935 -2.6550  0.1558
  282MOL0     H38067   3.776   3.506   6.266 -2.9832 -1.8956  2.3165
  282MOL0     H38068   3.375   3.322   6.207 -0.0611  0.5476  0.4042
  282MOL0     H38069   4.125   3.554   5.699 -0.7084 -0.4175  2.6324
  282MOL0     H38070   4.320   3.608   5.560 -2.8744 -1.9910  0.4806
  283MOL0     O38071  10.220   4.604   8.995  0.0997  0.6694 -0.5706
  283MOL0     C38072  10.332   4.555   8.978 -0.1286  0.1557  0.2071
  283MOL0     O38073  10.435   4.556   9.066  0.1460 -1.1314  0.3707
  283MOL0     C38074  10.415   4.564   9.204 -0.0125 -0.1675 -0.6259
  283MOL0     C38075  10.513   4.631   9.288  0.4458  1.2308 -0.1567
  283MOL0     C38076  10.504   4.624   9.425 -0.9302  0.3990  0.1004
  283MOL0     C38077  10.379   4.577   9.488  0.8603  0.5928  0.7969
  283MOL0     O38078  10.365   4.549   9.620  0.7563 -0.1042 -0.0643
  283MOL0     C38079  10.443   4.617   9.709 -0.5835 -0.3953  0.4086
  283MOL0     C38080  10.398   4.574   9.854 -0.5410 -0.2053 -0.3777
  283MOL0     C38081  10.256   4.626   9.884 -1.5858 -0.1826 -0.1342
  283MOL0     C38082  10.255   4.713  10.019 -1.0855  0.0038  1.2360
  283MOL0     C38083  10.127   4.731  10.086  0.4094 -0.3330 -0.4064
  283MOL0     C38084  10.137   4.840  10.194  0.2029  0.5074  0.5122
  283MOL0     C38085  10.240   4.824  10.298 -0.6613  0.9639  0.8755
  283MOL0     C38086  10.227   4.696  10.374  1.5110  0.1551  0.3107
  283MOL0     N38087  10.089   4.675  10.431 -1.0419  0.2336 -0.3808
  283MOL0     C38088  10.024   4.757  10.523  0.8025 -0.4869 -0.3029
  283MOL0     C38089   9.895   4.707  10.532 -0.1492  0.9627  0.6246
  283MOL0     C38090   9.788   4.770  10.603  0.4434 -0.9824 -0.4862
  283MOL0     C38091   9.820   4.805  10.757 -0.2843  0.4314  0.7214
  283MOL0     C38092   9.847   4.686  10.846 -0.2732  0.1128 -0.6586
  283MOL0     C38093   9.727   4.597  10.877  0.2961 -0.7283 -0.7040
  283MOL0     O38094   9.662   4.667  10.985  0.2787 -0.4660  1.1714
  283MOL0     C38095   9.555   4.596  11.040  0.7302  0.4695  0.4263
  283MOL0     C38096   9.493   4.635  11.157 -0.0118  0.4968 -1.0189
  283MOL0     C38097   9.388   4.567  11.217  1.0274  0.0217 -0.1804
  283MOL0     C38098   9.319   4.615  11.344 -0.2402  0.0201 -0.6676
  283MOL0     C38099   9.341   4.445  11.163 -0.8282  0.4691  0.4095
  283MOL0     C38100   9.224   4.371  11.221  0.6060  0.8943  0.4198
  283MOL0     O38101   9.113   4.430  11.207 -0.1776 -0.2666  0.9553
  283MOL0     C38102   9.020   4.409  11.308 -0.3937 -0.0830  0.0894
  283MOL0     C38103   8.971   4.275  11.335 -0.6360 -0.0557  0.4875
  283MOL0     C38104   8.884   4.241  11.450  0.8852 -0.9457  0.5801
  283MOL0     C38105   8.866   4.346  11.532  0.5391 -0.0566  0.0793
  283MOL0     O38106   8.818   4.341  11.657 -0.7062 -0.3186 -0.1336
  283MOL0     C38107   8.693   4.262  11.666  0.5890 -0.1256 -0.3142
  283MOL0     C38108   8.634   4.270  11.808  0.8562  0.0137 -0.3906
  283MOL0     C38109   8.479   4.224  11.801  0.7824 -0.3883 -0.7412
  283MOL0     C38110   8.429   4.233  11.943 -0.1596  0.1403 -0.4511
  283MOL0     C38111   8.275   4.198  11.963  0.2163  0.3689 -0.0974
  283MOL0     C38112   8.222   4.209  12.110 -0.4277 -0.1398 -0.3376
  283MOL0     C38113   8.073   4.184  12.106  0.1874 -0.0440 -0.6100
  283MOL0     C38114   8.022   4.198  12.247 -0.2300 -0.5220 -0.2342
  283MOL0    Cl38115   7.841   4.195  12.239 -0.1246 -0.0893  0.0122
  283MOL0     C38116   8.907   4.475  11.496 -0.4277 -0.9210 -0.0815
  283MOL0     C38117   8.979   4.513  11.381 -0.0043  0.0561 -1.0455
  283MOL0     O38118   9.244   4.254  11.251  0.2893  0.3068 -0.2737
  283MOL0     C38119   9.404   4.398  11.050  0.0539  0.8426 -0.4949
  283MOL0     C38120   9.505   4.468  10.996  0.2269  0.5006  0.5019
  283MOL0     N38121   9.897   4.587  10.457  0.0038 -0.3029  0.2042
  283MOL0     N38122  10.009   4.569  10.398 -0.1786  0.4526  0.5189
  283MOL0     C38123  10.281   4.518   9.402  0.2612  0.1368  0.6266
  283MOL0     C38124  10.296   4.521   9.266  0.3112 -0.7666 -0.6783
  283MOL0     C38125  10.363   4.487   8.854  0.0944 -0.3699  0.2383
  283MOL0     C38126  10.493   4.456   8.810 -0.8829 -0.3708  0.1453
  283MOL0     C38127  10.517   4.399   8.674  0.0040 -0.0362 -0.9739
  283MOL0     C38128  10.412   4.372   8.595 -0.6285 -0.5462 -0.2557
  283MOL0     O38129  10.438   4.328   8.468  0.8434 -0.3307 -0.1512
  283MOL0     C38130  10.426   4.419   8.361  0.2074 -0.3441 -0.0353
  283MOL0     C38131  10.305   4.392   8.275  0.2853 -0.5612  0.2054
  283MOL0     C38132  10.279   4.509   8.179  0.6954 -0.4529  0.1898
  283MOL0     C38133  10.185   4.454   8.074  0.5938  0.2423  0.1353
  283MOL0     C38134  10.055   4.404   8.120 -0.2694  0.3724  0.0069
  283MOL0     C38135   9.966   4.326   8.160  0.0169  0.0878  0.1914
  283MOL0     C38136  10.280   4.411   8.637 -0.5019  0.2486 -0.4996
  283MOL0     C38137  10.259   4.456   8.764  0.5014 -0.0536  0.5615
  283MOL0     H38138  10.606   4.672   9.251 -0.4729  2.3581 -1.3403
  283MOL0     H38139  10.585   4.671   9.479 -0.9859  0.1666  0.3881
  283MOL0     H38140  10.551   4.596   9.704 -0.2606  0.7740  1.8589
  283MOL0     H38141  10.422   4.721   9.685  4.2929  0.6567 -0.5252
  283MOL0     H38142  10.402   4.466   9.863  1.3301 -0.1044  0.4527
  283MOL0     H38143  10.465   4.607   9.934 -1.7124  0.4659  0.3534
  283MOL0     H38144  10.215   4.686   9.802 -1.6821 -1.7063 -1.2514
  283MOL0     H38145  10.183   4.545   9.893 -0.4298 -1.4346 -1.4943
  283MOL0     H38146  10.306   4.652  10.094 -3.4959 -1.6010  1.6634
  283MOL0     H38147  10.317   4.801   9.998  0.6247 -1.4362  0.0086
  283MOL0     H38148  10.054   4.764  10.011 -0.1353 -0.5043  0.0381
  283MOL0     H38149  10.080   4.639  10.123  0.6874  0.1670  1.2974
  283MOL0     H38150  10.175   4.929  10.142  1.9920  0.1496  1.1598
  283MOL0     H38151  10.036   4.852  10.235 -0.5812 -0.5039 -1.0028
  283MOL0     H38152  10.341   4.825  10.256 -0.8759  1.4248  0.3560
  283MOL0     H38153  10.239   4.904  10.371  0.2189  0.0310  1.9460
  283MOL0     H38154  10.302   4.693  10.454  1.8590 -0.8764 -0.0405
  283MOL0     H38155  10.256   4.614  10.307 -1.6512  0.2152 -1.3145
  283MOL0     H38156  10.063   4.849  10.565  1.0093  0.0375 -1.5876
  283MOL0     H38157   9.767   4.867  10.556 -1.8614 -0.6380  1.0807
  283MOL0     H38158   9.690   4.721  10.610  0.0420 -0.0464  0.9659
  283MOL0     H38159   9.742   4.860  10.811 -2.5495 -2.1146  0.2315
  283MOL0     H38160   9.914   4.862  10.751 -1.3760  2.4277  1.4779
  283MOL0     H38161   9.902   4.732  10.928 -1.6561  1.0893 -0.2389
  283MOL0     H38162   9.918   4.616  10.800 -0.0167 -0.4678  0.5821
  283MOL0     H38163   9.756   4.502  10.923 -0.3507  0.2042  1.8009
  283MOL0     H38164   9.653   4.583  10.797 -1.3356 -1.0632  0.8131
  283MOL0     H38165   9.518   4.730  11.204  0.4419 -0.8287  1.5438
  283MOL0     H38166   9.366   4.703  11.388 -4.6375  1.7768  1.0846
  283MOL0     H38167   9.219   4.655  11.327 -1.1794 -1.3082  1.3064
  283MOL0     H38168   9.313   4.536  11.420  0.6412  0.2117 -0.3830
  283MOL0     H38169   8.996   4.200  11.262  1.9628  1.3327 -0.1812
  283MOL0     H38170   8.855   4.138  11.472  2.1761 -1.1674  1.3897
  283MOL0     H38171   8.623   4.325  11.610  1.2925  0.8565 -0.1189
  283MOL0     H38172   8.703   4.157  11.637  1.3973 -0.4422  1.0483
  283MOL0     H38173   8.696   4.201  11.867 -1.1533 -1.1159  0.5081
  283MOL0     H38174   8.635   4.373  11.846  0.9862 -0.1172 -0.0376
  283MOL0     H38175   8.473   4.124  11.757 -2.4984  0.8654 -3.5722
  283MOL0     H38176   8.417   4.299  11.752 -0.4031 -1.5597 -1.0813
  283MOL0     H38177   8.484   4.165  12.008 -0.9674 -0.7460 -0.6858
  283MOL0     H38178   8.460   4.327  11.991  1.5213 -1.0530  0.9553
  283MOL0     H38179   8.262   4.093  11.935  0.6874  0.8053 -2.0993
  283MOL0     H38180   8.215   4.262  11.898  3.4471  1.2755 -2.4865
  283MOL0     H38181   8.272   4.135  12.173 -2.9065 -1.5855  0.0868
  283MOL0     H38182   8.248   4.309  12.146  0.0991 -0.6170  0.6453
  283MOL0     H38183   8.031   4.088  12.075  1.5680 -1.7628  2.4170
  283MOL0     H38184   8.024   4.265  12.050 -1.2895 -0.9415 -0.6780
  283MOL0     H38185   8.053   4.291  12.296  0.8197 -2.6914  3.6093
  283MOL0     H38186   8.059   4.117  12.310  0.9762 -1.2066 -1.7650
  283MOL0     H38187   8.882   4.558  11.560 -1.6749  0.6555 -2.4540
  283MOL0     H38188   9.001   4.619  11.368  2.2631 -0.0260  1.3892
  283MOL0     H38189   9.368   4.302  11.012  2.8820  0.2072 -1.7973
  283MOL0     H38190   9.545   4.422  10.906 -0.1656 -1.6486  1.3689
  283MOL0     H38191  10.192   4.471   9.443 -2.4114  2.6224 -1.7730
  283MOL0     H38192  10.225   4.469   9.202 -1.1161 -0.1978  0.3983
  283MOL0     H38193  10.577   4.471   8.877  0.1926  0.7208 -1.3776
  283MOL0     H38194  10.616   4.380   8.635 -0.8968 -3.2453 -1.9963
  283MOL0     H38195  10.414   4.514   8.414 -2.0903 -1.6528  2.0232
  283MOL0     H38196  10.520   4.412   8.307 -0.4303 -2.7493 -0.9390
  283MOL0     H38197  10.221   4.381   8.345  0.3301 -3.0811 -0.0334
  283MOL0     H38198  10.307   4.295   8.224 -5.3479 -0.9091 -0.0282
  283MOL0     H38199  10.370   4.547   8.130  0.7594 -0.8910 -0.0400
  283MOL0     H38200  10.238   4.587   8.244  3.0602 -0.1500  1.4334
  283MOL0     H38201  10.238   4.376   8.020 -0.2441 -0.2276 -0.0245
  283MOL0     H38202  10.170   4.526   7.993  1.0626 -0.1104 -0.2647
  283MOL0     H38203   9.905   4.258   8.216  1.8209 -1.4851  0.3436
  283MOL0     H38204  10.190   4.374   8.590 -0.8462 -1.3627  1.2856
  283MOL0     H38205  10.157   4.481   8.792 -1.4584 -2.2361 -3.7268
  284MOL0     O38206   9.379   6.436   0.830  0.4985 -0.4528 -0.3109
  284MOL0     C38207   9.382   6.529   0.746 -0.2568 -1.1022  0.1831
  284MOL0     O38208   9.275   6.582   0.681 -0.1190  0.3511  0.0107
  284MOL0     C38209   9.154   6.525   0.706 -0.4539  0.2515 -0.0931
  284MOL0     C38210   9.099   6.435   0.612 -0.6094  0.3129  0.6014
  284MOL0     C38211   8.967   6.413   0.618 -0.7577 -0.0252 -0.2488
  284MOL0     C38212   8.886   6.452   0.731 -0.0229  0.0709 -0.0063
  284MOL0     O38213   8.757   6.410   0.736  0.1665  0.1379  0.2914
  284MOL0     C38214   8.669   6.501   0.801  0.4155 -0.4966 -0.2382
  284MOL0     C38215   8.522   6.460   0.772  0.1725 -1.4263  0.1974
  284MOL0     C38216   8.422   6.556   0.837  0.9573  0.0036 -0.1459
  284MOL0     C38217   8.274   6.517   0.793  0.8607 -0.1048 -0.4878
  284MOL0     C38218   8.174   6.609   0.858 -0.1093 -1.0316 -0.0456
  284MOL0     C38219   8.025   6.604   0.806 -0.8186 -0.6318  0.2675
  284MOL0     C38220   7.935   6.674   0.907  0.4904  0.4816  0.3144
  284MOL0     C38221   7.782   6.665   0.864 -0.1655  0.4859  0.3570
  284MOL0     N38222   7.700   6.718   0.978 -0.8443 -0.4881  0.0444
  284MOL0     C38223   7.737   6.819   1.067  0.7510  0.7186  0.0284
  284MOL0     C38224   7.621   6.833   1.134 -0.8486  0.2862 -0.7035
  284MOL0     C38225   7.602   6.935   1.236 -0.3644  1.0163  0.6132
  284MOL0     C38226   7.447   6.960   1.267  0.3056 -1.3535 -0.4391
  284MOL0     C38227   7.390   6.853   1.356  1.3697  0.1177  0.2597
  284MOL0     C38228   7.253   6.909   1.405 -0.6032  0.0159  0.2141
  284MOL0     O38229   7.196   6.810   1.488 -0.8414 -0.1255 -0.2698
  284MOL0     C38230   7.094   6.847   1.571  0.0034  0.0375  0.1336
  284MOL0     C38231   7.037   6.979   1.575 -0.3724  0.2573  0.4899
  284MOL0     C38232   6.930   7.005   1.669  0.0078 -0.5293  0.9149
  284MOL0     C38233   6.888   7.151   1.674  0.0403  0.4914 -0.2523
  284MOL0     C38234   6.881   6.906   1.743 -0.8725  1.0873 -0.5508
  284MOL0     C38235   6.781   6.925   1.849 -0.8658  0.2153  0.1724
  284MOL0     O38236   6.807   7.026   1.942  0.3491 -0.4399 -0.7719
  284MOL0     C38237   6.707   7.051   2.034 -0.5763  0.3829 -0.8081
  284MOL0     C38238   6.654   7.176   2.029  0.9835  0.1635  0.7888
  284MOL0     C38239   6.553   7.198   2.118 -0.2326 -0.5675 -0.8097
  284MOL0     C38240   6.522   7.112   2.227  0.7130  0.1209  0.4836
  284MOL0     O38241   6.413   7.150   2.309 -0.0652  0.8872 -0.2591
  284MOL0     C38242   6.329   7.044   2.359 -0.2017  0.4532  0.7787
  284MOL0     C38243   6.189   7.108   2.399 -0.7066 -0.4155 -0.0939
  284MOL0     C38244   6.213   7.215   2.504 -0.9707 -0.5704 -0.7166
  284MOL0     C38245   6.200   7.357   2.437 -0.1260  0.8869 -1.3575
  284MOL0     C38246   6.236   7.481   2.521  0.2003 -0.4273  0.3524
  284MOL0     C38247   6.362   7.479   2.612 -0.8849 -0.2839  0.9555
  284MOL0     C38248   6.484   7.459   2.529  0.1456  0.3794  0.0308
  284MOL0     C38249   6.511   7.556   2.417  0.1426 -1.0750 -0.1053
  284MOL0    Cl38250   6.654   7.484   2.327  0.4672 -0.1299  0.1904
  284MOL0     C38251   6.598   6.994   2.240  0.2579  0.1466  0.2731
  284MOL0     C38252   6.685   6.964   2.141 -0.1469  0.4359  0.8855
  284MOL0     O38253   6.701   6.838   1.864 -0.8838  0.1971 -0.1760
  284MOL0     C38254   6.941   6.777   1.746  0.2463  0.0052  0.8272
  284MOL0     C38255   7.053   6.749   1.656  0.2484  0.3019 -1.2074
  284MOL0     N38256   7.530   6.739   1.096  0.1193 -0.4720  0.7312
  284MOL0     N38257   7.577   6.675   0.998 -0.0133 -0.0024  0.4322
  284MOL0     C38258   8.946   6.523   0.830 -0.3132 -0.2253 -0.4414
  284MOL0     C38259   9.077   6.565   0.815  1.5661 -0.0356 -0.4063
  284MOL0     C38260   9.512   6.596   0.725 -0.3868  0.6477  0.7246
  284MOL0     C38261   9.527   6.679   0.609 -0.3908  0.1690 -0.7420
  284MOL0     C38262   9.652   6.727   0.574  0.6495  0.4022  0.3797
  284MOL0     C38263   9.765   6.697   0.650 -0.4523  0.5951 -0.4489
  284MOL0     O38264   9.880   6.753   0.608 -0.3759  0.4923  0.0545
  284MOL0     C38265   9.991   6.660   0.602  0.5520  0.8214 -0.4689
  284MOL0     C38266  10.094   6.692   0.706  0.0849 -0.6393 -0.4073
  284MOL0     C38267  10.232   6.617   0.683  0.0170 -0.0766  0.4292
  284MOL0     C38268  10.321   6.690   0.583 -0.2562 -0.1128 -0.7557
  284MOL0     C38269  10.461   6.701   0.628 -0.0408 -0.5420 -0.9534
  284MOL0     C38270  10.580   6.725   0.652  0.9539  0.4467  0.4811
  284MOL0     C38271   9.750   6.606   0.754 -0.1821 -1.2181 -0.5509
  284MOL0     C38272   9.624   6.570   0.806  0.5152  1.7701  0.6694
  284MOL0     H38273   9.160   6.392   0.533  0.3737  1.2380  0.8369
  284MOL0     H38274   8.919   6.340   0.552 -2.6337 -0.4109  1.4343
  284MOL0     H38275   8.682   6.519   0.908  3.4139  0.8069 -0.7021
  284MOL0     H38276   8.675   6.604   0.762  0.4343 -0.9740 -1.5500
  284MOL0     H38277   8.504   6.451   0.665 -1.1819  2.8189 -0.1319
  284MOL0     H38278   8.512   6.359   0.812 -0.1298 -1.8748 -0.9813
  284MOL0     H38279   8.436   6.546   0.945  2.6144  2.1946 -0.1033
  284MOL0     H38280   8.440   6.654   0.794  0.8652 -0.6403 -1.7369
  284MOL0     H38281   8.252   6.515   0.686 -1.8427  1.5167 -0.0421
  284MOL0     H38282   8.249   6.416   0.827  0.4595 -0.6753 -2.3534
  284MOL0     H38283   8.175   6.596   0.967 -1.5932  1.5053  0.3591
  284MOL0     H38284   8.210   6.712   0.844 -1.7932 -0.1502  1.5751
  284MOL0     H38285   8.010   6.651   0.709 -1.3201  0.1314  0.7046
  284MOL0     H38286   8.001   6.499   0.791  2.1655 -1.0328 -2.8582
  284MOL0     H38287   7.954   6.626   1.003  3.1015  0.6510 -0.0359
  284MOL0     H38288   7.971   6.777   0.909  4.3436 -0.2489 -5.9194
  284MOL0     H38289   7.757   6.561   0.840 -1.8649  1.1458 -0.8628
  284MOL0     H38290   7.763   6.724   0.775  0.3661  2.4978  1.5181
  284MOL0     H38291   7.830   6.871   1.085  1.1278  0.1437 -0.2266
  284MOL0     H38292   7.650   6.901   1.329 -0.3140  0.5835  0.4310
  284MOL0     H38293   7.658   7.026   1.210 -0.2927  0.5870 -0.8098
  284MOL0     H38294   7.393   6.969   1.173 -2.3389  0.4587  1.1193
  284MOL0     H38295   7.454   7.058   1.314 -0.0001 -1.4099 -0.2741
  284MOL0     H38296   7.465   6.825   1.430  1.8932 -0.4076 -0.4522
  284MOL0     H38297   7.386   6.761   1.296  0.4348  0.3351 -0.0306
  284MOL0     H38298   7.189   6.921   1.317 -1.2357  3.4465  0.9989
  284MOL0     H38299   7.262   7.004   1.459 -0.3143 -0.3916  0.9078
  284MOL0     H38300   7.071   7.054   1.504 -0.6771 -1.2518 -1.3162
  284MOL0     H38301   6.813   7.181   1.748  1.5342 -0.4958  1.7659
  284MOL0     H38302   6.979   7.195   1.714 -0.0211 -1.9421  2.9654
  284MOL0     H38303   6.869   7.193   1.575 -0.0473 -1.4752 -1.1139
  284MOL0     H38304   6.689   7.244   1.952 -2.0133  1.0774  0.0966
  284MOL0     H38305   6.487   7.284   2.116 -1.3066 -1.3777 -0.8072
  284MOL0     H38306   6.303   6.974   2.279  0.3223 -0.7750  1.6646
  284MOL0     H38307   6.375   6.985   2.438 -2.7035 -0.3739  1.7306
  284MOL0     H38308   6.143   7.148   2.309  0.0562 -0.9652 -0.7514
  284MOL0     H38309   6.126   7.028   2.439 -1.6689 -0.6823 -2.0397
  284MOL0     H38310   6.312   7.211   2.550 -1.8173 -1.8807  1.1189
  284MOL0     H38311   6.141   7.181   2.580  0.5468 -2.6568 -0.1201
  284MOL0     H38312   6.262   7.356   2.347  1.1002 -0.9451 -0.5484
  284MOL0     H38313   6.096   7.373   2.408 -0.2328  0.7922 -1.0382
  284MOL0     H38314   6.152   7.502   2.588 -1.1025 -2.4662 -0.5516
  284MOL0     H38315   6.232   7.564   2.451 -0.5935 -0.5705  0.2199
  284MOL0     H38316   6.361   7.572   2.668  1.7731  0.1834  0.3683
  284MOL0     H38317   6.358   7.403   2.691 -1.1272  1.1052  2.3045
  284MOL0     H38318   6.468   7.364   2.477  1.4018 -0.9224  1.9244
  284MOL0     H38319   6.571   7.446   2.594 -0.8670  2.7029  2.0326
  284MOL0     H38320   6.535   7.659   2.448 -2.8443 -0.9072  2.0897
  284MOL0     H38321   6.431   7.559   2.342  1.4390 -0.3598 -1.5261
  284MOL0     H38322   6.583   6.918   2.316  0.7366 -0.8088 -0.5657
  284MOL0     H38323   6.751   6.878   2.145  0.2890  0.7500  0.4720
  284MOL0     H38324   6.901   6.707   1.818 -0.6780 -1.8148 -1.3284
  284MOL0     H38325   7.107   6.655   1.653  2.7547  1.5457  0.8816
  284MOL0     H38326   8.890   6.542   0.921 -0.7219 -0.4937 -0.6349
  284MOL0     H38327   9.121   6.634   0.887  1.7337  0.7414 -1.2468
  284MOL0     H38328   9.448   6.710   0.541  1.6967  3.2384 -1.9536
  284MOL0     H38329   9.666   6.791   0.488  2.0597  0.7128  0.8174
  284MOL0     H38330   9.958   6.557   0.616 -1.6332  1.7907  2.3920
  284MOL0     H38331  10.027   6.668   0.499 -2.8191 -1.6942 -2.0565
  284MOL0     H38332  10.060   6.665   0.806 -1.8385  0.1070 -0.8301
  284MOL0     H38333  10.099   6.801   0.714  0.1582 -0.6061 -0.8397
  284MOL0     H38334  10.213   6.517   0.644  1.9874 -0.1759 -0.3844
  284MOL0     H38335  10.289   6.594   0.774  0.4702 -2.4190 -0.3891
  284MOL0     H38336  10.280   6.790   0.563  0.5297  0.3408 -0.1704
  284MOL0     H38337  10.314   6.634   0.489  1.4399 -2.1887  0.2618
  284MOL0     H38338  10.675   6.752   0.693 -0.7856  1.5309  4.2239
  284MOL0     H38339   9.839   6.587   0.813 -0.1490 -0.0582 -0.1900
  284MOL0     H38340   9.607   6.519   0.900  2.5781 -0.2523  0.0340
  285MOL0     O38341   3.733   7.856   1.142 -0.2452  0.5577  0.5533
  285MOL0     C38342   3.780   7.847   1.026 -1.0435  0.6038 -0.0666
  285MOL0     O38343   3.755   7.933   0.926  0.5229 -0.2190  0.8745
  285MOL0     C38344   3.671   8.038   0.940  0.5125 -0.3873  0.1367
  285MOL0     C38345   3.712   8.145   1.011 -0.4596 -0.1767 -1.0311
  285MOL0     C38346   3.645   8.267   0.996  0.2038  0.7078 -1.4339
  285MOL0     C38347   3.528   8.285   0.928  0.1202  0.5947 -0.5730
  285MOL0     O38348   3.468   8.403   0.929  0.0095 -0.3989  0.5433
  285MOL0     C38349   3.358   8.415   1.022  0.1080 -0.6127 -0.3743
  285MOL0     C38350   3.228   8.488   0.975 -0.5498  0.4551 -0.0170
  285MOL0     C38351   3.190   8.453   0.834 -0.0696  0.7707  0.0762
  285MOL0     C38352   3.042   8.493   0.814 -0.9803  1.1627  0.5257
  285MOL0     C38353   2.989   8.444   0.684 -0.1848 -0.0979 -0.3754
  285MOL0     C38354   2.973   8.290   0.698  0.2004 -0.4006 -0.1350
  285MOL0     C38355   2.910   8.236   0.563 -0.4665 -0.0094 -0.2835
  285MOL0     C38356   2.922   8.084   0.556 -0.5853 -0.1500 -0.3963
  285MOL0     N38357   2.847   8.022   0.450 -0.6222  1.2863 -0.6731
  285MOL0     C38358   2.710   8.020   0.455 -0.4452 -0.9071 -0.0499
  285MOL0     C38359   2.679   7.954   0.347  0.1699 -0.1175 -1.2379
  285MOL0     C38360   2.538   7.942   0.302  0.8751  0.1390 -1.0473
  285MOL0     C38361   2.511   7.954   0.154 -0.1862 -0.3535 -0.2074
  285MOL0     C38362   2.539   8.092   0.087 -0.2449  0.4192 -0.7033
  285MOL0     C38363   2.420   8.188   0.117 -0.6590 -0.8709 -0.0683
  285MOL0     O38364   2.417   8.299   0.034 -0.0036  0.0610 -0.2379
  285MOL0     C38365   2.497   8.413   0.058  0.2776 -0.4964 -0.3508
  285MOL0     C38366   2.551   8.452   0.181 -0.6734 -0.5120  0.0278
  285MOL0     C38367   2.612   8.577   0.206 -0.6153 -0.0964 -0.1148
  285MOL0     C38368   2.662   8.610   0.346 -0.5660  0.8311  0.3245
  285MOL0     C38369   2.622   8.668   0.095 -0.8903 -0.0770 -0.0038
  285MOL0     C38370   2.699   8.798   0.094 -0.4436  0.5448  1.3430
  285MOL0     O38371   2.788   8.819  -0.015  0.7785  0.2959 -0.4077
  285MOL0     C38372   2.909   8.889  -0.004  0.0611  0.0708 -0.4582
  285MOL0     C38373   2.989   8.924   0.107 -0.1713  0.2583 -0.5918
  285MOL0     C38374   3.104   8.992   0.080 -0.5993  0.0128  0.6167
  285MOL0     C38375   3.140   9.020  -0.045  0.3406 -0.0078  0.2274
  285MOL0     O38376   3.275   9.042  -0.061  0.0188  0.6312  0.3413
  285MOL0     C38377   3.337   8.916  -0.083  0.6192  0.0818  0.5163
  285MOL0     C38378   3.487   8.932  -0.082  0.8291 -0.1123  0.1311
  285MOL0     C38379   3.550   8.820  -0.174  0.6963 -0.5005 -0.1128
  285MOL0     C38380   3.697   8.831  -0.166 -0.3634 -0.4798 -0.0273
  285MOL0     C38381   3.763   8.957  -0.229  0.7893 -0.2281 -0.2684
  285MOL0     C38382   3.909   8.952  -0.194 -0.1581  0.4984  0.0893
  285MOL0     C38383   3.965   9.094  -0.228 -0.2288  0.0091 -0.3294
  285MOL0     C38384   4.067   9.145  -0.120  0.2014  0.4801  0.6756
  285MOL0    Cl38385   4.195   9.020  -0.101  0.3566  0.2065  0.1594
  285MOL0     C38386   3.057   9.005  -0.158  0.4017  0.5684  0.0071
  285MOL0     C38387   2.943   8.932  -0.133  0.9027  0.4760 -1.5951
  285MOL0     O38388   2.701   8.865   0.194 -0.4132  0.1275 -0.4901
  285MOL0     C38389   2.559   8.641  -0.027 -0.5527 -0.7567 -0.4019
  285MOL0     C38390   2.495   8.516  -0.044  0.7169 -1.0929 -0.5367
  285MOL0     N38391   2.788   7.910   0.277  0.0289 -0.3423 -0.1736
  285MOL0     N38392   2.887   7.941   0.347 -0.4564 -0.1845  0.6939
  285MOL0     C38393   3.492   8.181   0.842 -0.1829 -0.0709  0.3393
  285MOL0     C38394   3.562   8.059   0.850 -0.1105 -0.6825 -0.2965
  285MOL0     C38395   3.889   7.748   1.005 -0.3983  0.7855 -0.1361
  285MOL0     C38396   3.947   7.739   0.879 -0.1226 -0.4041 -0.5785
  285MOL0     C38397   4.030   7.638   0.850 -0.6636  0.1883 -0.1839
  285MOL0     C38398   4.058   7.532   0.940  0.0848 -1.1472  0.4859
  285MOL0     O38399   4.127   7.421   0.908  0.6536 -0.4174  0.2010
  285MOL0     C38400   4.205   7.428   0.780 -0.6747  0.0714 -0.4497
  285MOL0     C38401   4.282   7.295   0.744 -0.3640  0.2431 -0.0718
  285MOL0     C38402   4.409   7.266   0.826  0.2238  0.0894 -0.2743
  285MOL0     C38403   4.388   7.212   0.966  0.6480  1.1561 -0.4623
  285MOL0     C38404   4.361   7.064   0.962  0.1224  0.1290  0.1380
  285MOL0     C38405   4.352   6.946   0.974 -0.2112  0.4415 -0.1127
  285MOL0     C38406   4.000   7.539   1.062 -0.4582 -0.2855  0.0366
  285MOL0     C38407   3.919   7.648   1.102  0.0284 -0.3748 -0.7597
  285MOL0     H38408   3.808   8.139   1.063  0.9432 -1.2112 -3.5536
  285MOL0     H38409   3.689   8.344   1.059  0.2489 -2.1361  2.4031
  285MOL0     H38410   3.327   8.320   1.067 -3.2356  0.1233 -0.8895
  285MOL0     H38411   3.396   8.476   1.105  2.0177  0.1572 -1.7555
  285MOL0     H38412   3.152   8.463   1.050  0.5684 -1.5361  0.5085
  285MOL0     H38413   3.252   8.595   0.979  0.2539  0.2651  0.5695
  285MOL0     H38414   3.260   8.505   0.768  2.1607  2.4039  3.4414
  285MOL0     H38415   3.196   8.347   0.810 -1.6084  0.8112 -0.6355
  285MOL0     H38416   2.983   8.455   0.898  3.0449 -2.7052  2.0393
  285MOL0     H38417   3.024   8.601   0.812 -1.0413  1.1422 -0.0028
  285MOL0     H38418   2.897   8.496   0.658 -1.1521 -0.2143  2.4576
  285MOL0     H38419   3.059   8.468   0.603  1.2005 -1.3835  0.3782
  285MOL0     H38420   3.072   8.245   0.708  1.8626  2.9331 -0.1472
  285MOL0     H38421   2.906   8.250   0.774 -2.4900 -0.5068 -2.4076
  285MOL0     H38422   2.807   8.268   0.550 -0.5558  0.4556  1.3986
  285MOL0     H38423   2.975   8.276   0.484  1.6929 -0.5707  1.1338
  285MOL0     H38424   2.904   8.041   0.655  0.0956 -1.9921 -1.0165
  285MOL0     H38425   3.026   8.058   0.533 -0.4318  0.5955 -0.5627
  285MOL0     H38426   2.643   8.070   0.526 -2.3801 -0.7767 -1.8635
  285MOL0     H38427   2.492   7.850   0.339 -1.1996  1.2186 -0.7786
  285MOL0     H38428   2.484   8.022   0.352  2.8575  1.4411 -0.8782
  285MOL0     H38429   2.411   7.914   0.133  0.3478 -1.9450  0.1445
  285MOL0     H38430   2.583   7.890   0.103 -2.2616 -2.6175 -0.4410
  285MOL0     H38431   2.554   8.065  -0.018  0.7705 -1.5438 -0.1088
  285MOL0     H38432   2.630   8.139   0.124 -1.2388  1.6001  0.3337
  285MOL0     H38433   2.416   8.230   0.218  0.2929  3.6952 -1.6619
  285MOL0     H38434   2.328   8.130   0.106 -0.8221 -1.4293  3.3065
  285MOL0     H38435   2.551   8.382   0.264  2.6353 -1.3999 -0.5955
  285MOL0     H38436   2.643   8.713   0.378  0.1128  1.4368 -1.1512
  285MOL0     H38437   2.606   8.544   0.413 -0.5875  0.6451  0.1218
  285MOL0     H38438   2.768   8.586   0.361 -0.9062 -0.4433  0.7635
  285MOL0     H38439   2.964   8.889   0.207  3.9459 -0.3253  0.4040
  285MOL0     H38440   3.172   9.017   0.161  1.0396 -0.9476 -0.3992
  285MOL0     H38441   3.302   8.832  -0.023 -1.3560 -1.3714 -2.4506
  285MOL0     H38442   3.311   8.891  -0.186  3.4496 -1.3474  0.0527
  285MOL0     H38443   3.515   9.035  -0.106  2.1508 -0.7140 -1.0385
  285MOL0     H38444   3.524   8.927   0.021  1.3572  1.8585  0.0754
  285MOL0     H38445   3.519   8.836  -0.277 -1.4844 -0.2454  0.5290
  285MOL0     H38446   3.512   8.726  -0.132 -2.0720  0.8416  0.6292
  285MOL0     H38447   3.719   8.840  -0.059 -0.5908 -0.7814  0.0451
  285MOL0     H38448   3.748   8.748  -0.217  0.7126  0.8175 -1.1310
  285MOL0     H38449   3.719   9.047  -0.185  1.8095 -0.0360  0.3924
  285MOL0     H38450   3.747   8.947  -0.337  1.6607 -2.6807 -0.2335
  285MOL0     H38451   3.917   8.920  -0.090 -2.6938  0.4443  0.3406
  285MOL0     H38452   3.963   8.874  -0.249  0.3761 -0.5125  1.9568
  285MOL0     H38453   3.886   9.165  -0.254 -2.0914 -1.4290  1.0905
  285MOL0     H38454   4.032   9.084  -0.314  0.0658  0.7103 -0.1839
  285MOL0     H38455   4.016   9.168  -0.026  0.3773  0.3354  0.8061
  285MOL0     H38456   4.109   9.243  -0.144 -0.3237  0.8378  1.1666
  285MOL0     H38457   3.089   9.018  -0.261  3.3125  0.3002  0.8047
  285MOL0     H38458   2.868   8.920  -0.211 -0.0402  2.2104 -1.0224
  285MOL0     H38459   2.567   8.706  -0.114  3.4285  1.1046  1.1332
  285MOL0     H38460   2.443   8.497  -0.137  1.2357 -2.5137 -0.5599
  285MOL0     H38461   3.404   8.189   0.780  1.2213  1.0908 -1.6036
  285MOL0     H38462   3.543   7.999   0.762  1.4000 -0.4214 -0.8301
  285MOL0     H38463   3.914   7.810   0.803 -0.8440  2.1911  1.9858
  285MOL0     H38464   4.078   7.636   0.752 -1.4379  1.0330 -0.5950
  285MOL0     H38465   4.140   7.435   0.693 -0.8454  2.3374 -0.1907
  285MOL0     H38466   4.267   7.518   0.782  1.8138 -1.5254  2.2601
  285MOL0     H38467   4.311   7.295   0.639 -0.1411 -2.6483 -0.0740
  285MOL0     H38468   4.206   7.220   0.766  0.1574 -0.1424  0.4502
  285MOL0     H38469   4.469   7.357   0.822  0.7252 -0.0836  1.8163
  285MOL0     H38470   4.470   7.188   0.779  0.9243 -0.0778  0.8667
  285MOL0     H38471   4.301   7.256   1.016  1.9155  0.6479  2.3292
  285MOL0     H38472   4.478   7.240   1.020 -1.7221  3.4446  2.6260
  285MOL0     H38473   4.355   6.843   1.005 -0.5564  0.6392  0.5957
  285MOL0     H38474   4.021   7.457   1.129 -0.1402  1.1242  1.7206
  285MOL0     H38475   3.874   7.654   1.201  0.2037 -2.2255 -0.5330
  286MOL0     O38476  11.413   7.621   3.654 -0.4740 -0.2992  0.3506
  286MOL0     C38477  11.366   7.510   3.694  0.5880  0.4019 -0.2567
  286MOL0     O38478  11.440   7.403   3.744  0.0240  0.5916  0.1472
  286MOL0     C38479  11.566   7.420   3.805 -0.0316  0.1369  0.2551
  286MOL0     C38480  11.676   7.333   3.776  0.8284  0.0089 -1.0467
  286MOL0     C38481  11.800   7.339   3.844  0.0754 -0.6170 -0.2264
  286MOL0     C38482  11.815   7.430   3.945 -0.0660 -0.2340 -0.1718
  286MOL0     O38483  11.926   7.413   4.026  0.2691 -0.0988  0.1680
  286MOL0     C38484  11.981   7.544   4.055  0.0152 -0.3546 -1.1143
  286MOL0     C38485  12.118   7.525   4.107 -0.3981  0.0538 -0.7315
  286MOL0     C38486  12.101   7.454   4.251 -0.1601 -0.0797 -0.3273
  286MOL0     C38487  12.235   7.420   4.322 -0.2183 -0.3267  0.3863
  286MOL0     C38488  12.340   7.541   4.308 -0.3277 -0.4908  0.1992
  286MOL0     C38489  12.436   7.542   4.422 -0.4945 -0.6496 -0.3728
  286MOL0     C38490  12.573   7.490   4.397  0.2457  0.5979 -0.8480
  286MOL0     C38491  12.581   7.342   4.421  0.8290 -0.0172  0.2931
  286MOL0     N38492  12.560   7.306   4.560  1.3004  0.5408 -1.0519
  286MOL0     C38493  12.629   7.350   4.675 -0.8282 -0.8414  0.0462
  286MOL0     C38494  12.572   7.277   4.783  0.0127 -0.7378 -0.3457
  286MOL0     C38495  12.618   7.296   4.934  0.6530  1.3870 -0.0755
  286MOL0     C38496  12.748   7.209   4.952  0.0801 -0.2434  0.1449
  286MOL0     C38497  12.789   7.199   5.097 -0.4876 -0.2450  0.1451
  286MOL0     C38498  12.888   7.082   5.117 -0.0354  0.5378  0.3673
  286MOL0     O38499  12.994   7.104   5.013 -0.2616 -0.7916  0.0936
  286MOL0     C38500  13.124   7.085   5.053  0.2254 -0.9884 -0.2112
  286MOL0     C38501  13.219   7.186   5.027 -0.0819  0.1859  0.5018
  286MOL0     C38502  13.350   7.180   5.084 -0.5601 -0.4056 -0.4080
  286MOL0     C38503  13.434   7.301   5.048  0.4182 -1.0266  0.1688
  286MOL0     C38504  13.395   7.072   5.155  0.5922  0.2855 -0.3937
  286MOL0     C38505  13.538   7.053   5.201 -0.4578  0.3106 -0.9097
  286MOL0     O38506  13.632   7.147   5.170 -0.3691  0.8193  0.7895
  286MOL0     C38507  13.758   7.135   5.240  0.5354  0.3931 -0.4356
  286MOL0     C38508  13.801   7.218   5.341  0.1878 -0.5277  0.0611
  286MOL0     C38509  13.925   7.192   5.410 -0.2073 -0.8350  0.6190
  286MOL0     C38510  14.012   7.094   5.367  0.2384 -0.1647  0.7688
  286MOL0     O38511  14.132   7.092   5.440  0.0403 -0.3223 -0.9169
  286MOL0     C38512  14.215   6.981   5.419 -0.5798  0.5837 -0.5424
  286MOL0     C38513  14.345   6.983   5.500 -1.3935 -0.0330 -0.0305
  286MOL0     C38514  14.464   6.919   5.429  1.3002  0.7062 -0.3120
  286MOL0     C38515  14.427   6.793   5.352  0.1544  0.8004  0.7387
  286MOL0     C38516  14.552   6.707   5.320 -0.2727  1.2132 -0.0259
  286MOL0     C38517  14.678   6.785   5.260  0.7862  0.3590  0.7109
  286MOL0     C38518  14.646   6.835   5.116 -0.7570  0.1940 -0.0745
  286MOL0     C38519  14.755   6.941   5.070  0.5763  0.0030 -0.2963
  286MOL0    Cl38520  14.717   7.111   5.129 -0.4463 -0.0301 -0.0763
  286MOL0     C38521  13.973   7.012   5.263 -0.2933  0.4041 -0.8278
  286MOL0     C38522  13.844   7.032   5.198  0.6078  0.5270 -0.5051
  286MOL0     O38523  13.562   6.953   5.275 -0.2098 -0.0240 -0.2112
  286MOL0     C38524  13.298   6.962   5.177  0.8252  0.3146  0.0914
  286MOL0     C38525  13.167   6.981   5.126  0.2069  0.5141  0.0319
  286MOL0     N38526  12.474   7.197   4.728  0.6228  0.1004 -0.1349
  286MOL0     N38527  12.465   7.208   4.592 -0.3934  0.6761  0.6683
  286MOL0     C38528  11.719   7.531   3.967 -0.1533 -0.7391  0.2461
  286MOL0     C38529  11.591   7.512   3.907  0.9743  0.0980 -0.2907
  286MOL0     C38530  11.219   7.495   3.667  0.5175 -0.1494 -0.3601
  286MOL0     C38531  11.172   7.543   3.543  0.3193  0.0340  0.4306
  286MOL0     C38532  11.040   7.510   3.500 -1.2457 -0.6084 -0.6517
  286MOL0     C38533  10.959   7.434   3.577  0.1395  0.7103  0.4094
  286MOL0     O38534  10.834   7.391   3.529  0.2308  0.2118  0.2623
  286MOL0     C38535  10.735   7.491   3.521  0.5525 -0.7565 -0.6223
  286MOL0     C38536  10.704   7.549   3.664 -0.3259  0.7608  1.0345
  286MOL0     C38537  10.593   7.654   3.654 -0.3803 -0.9198  0.2122
  286MOL0     C38538  10.653   7.799   3.625 -0.3507 -0.3463  0.2644
  286MOL0     C38539  10.716   7.812   3.501  1.0709  0.7961  0.9348
  286MOL0     C38540  10.759   7.833   3.390  0.3659  0.4997  1.0075
  286MOL0     C38541  11.007   7.376   3.694  0.1406  1.1323 -0.2522
  286MOL0     C38542  11.134   7.410   3.740 -0.3218 -0.4000 -0.3204
  286MOL0     H38543  11.655   7.258   3.699 -0.3960 -1.3135  0.4927
  286MOL0     H38544  11.880   7.268   3.830  0.5478  0.1826 -1.8194
  286MOL0     H38545  11.984   7.603   3.963  0.5022 -0.6013 -1.2628
  286MOL0     H38546  11.922   7.592   4.134 -1.7232 -4.0868  0.0478
  286MOL0     H38547  12.179   7.459   4.045 -0.4646  1.3854 -2.2865
  286MOL0     H38548  12.156   7.627   4.114 -1.2251  0.5850 -3.0406
  286MOL0     H38549  12.052   7.524   4.320  1.9712  0.4724  0.7224
  286MOL0     H38550  12.041   7.363   4.243 -0.5862  0.0368  1.1992
  286MOL0     H38551  12.220   7.391   4.427  2.1500 -0.6734  0.6782
  286MOL0     H38552  12.283   7.330   4.284 -0.2363 -1.1623  2.2018
  286MOL0     H38553  12.385   7.541   4.208  1.7352  0.1955  1.0746
  286MOL0     H38554  12.282   7.633   4.319  0.3259  0.2637 -2.0049
  286MOL0     H38555  12.447   7.651   4.431 -1.0651 -0.4932 -1.3482
  286MOL0     H38556  12.395   7.506   4.516  1.9331 -0.0154  1.0075
  286MOL0     H38557  12.610   7.507   4.295  1.4815 -1.4347 -0.8148
  286MOL0     H38558  12.635   7.543   4.470 -0.0616 -1.0065  0.6582
  286MOL0     H38559  12.677   7.301   4.389  0.9845  1.0967 -0.7177
  286MOL0     H38560  12.505   7.300   4.355  3.8117 -0.1243 -3.3847
  286MOL0     H38561  12.697   7.434   4.688 -1.0401 -1.0080  2.7178
  286MOL0     H38562  12.621   7.404   4.956 -1.9308  1.7598 -1.1605
  286MOL0     H38563  12.553   7.252   5.010  3.6625  0.6606  2.2494
  286MOL0     H38564  12.831   7.249   4.892  0.5471  1.7099  1.9696
  286MOL0     H38565  12.716   7.112   4.912 -1.1886 -0.3031  1.2394
  286MOL0     H38566  12.707   7.176   5.165 -0.1819 -4.7054 -0.7057
  286MOL0     H38567  12.835   7.295   5.123  1.5565 -1.1179  0.0004
  286MOL0     H38568  12.837   6.992   5.082  0.5815  0.1907  0.3422
  286MOL0     H38569  12.934   7.066   5.215  2.0114  0.3290 -0.5742
  286MOL0     H38570  13.197   7.265   4.956  1.5240 -2.8496 -3.7511
  286MOL0     H38571  13.476   7.335   5.143 -0.8856 -1.6967  1.0075
  286MOL0     H38572  13.510   7.283   4.971 -0.6311  0.4850 -1.3157
  286MOL0     H38573  13.373   7.383   5.009  0.1849 -0.7131  1.1824
  286MOL0     H38574  13.731   7.298   5.363  1.4516  0.8666 -0.7863
  286MOL0     H38575  13.941   7.262   5.492  1.9004  0.2178 -0.6363
  286MOL0     H38576  14.151   6.895   5.441 -1.8631  1.7806  0.6303
  286MOL0     H38577  14.238   6.973   5.312 -2.5855  2.1305 -1.1602
  286MOL0     H38578  14.375   7.085   5.527  1.1823 -0.1654 -1.9523
  286MOL0     H38579  14.339   6.924   5.592  0.7203 -2.2789 -1.2276
  286MOL0     H38580  14.551   6.900   5.493  1.9729 -0.4690 -1.5292
  286MOL0     H38581  14.500   6.993   5.357  0.3058 -0.0895 -1.6765
  286MOL0     H38582  14.360   6.729   5.411 -2.6229 -0.2677 -3.2090
  286MOL0     H38583  14.374   6.819   5.260 -0.9832 -0.3795  1.0163
  286MOL0     H38584  14.528   6.621   5.257  0.9560 -1.7088  3.1492
  286MOL0     H38585  14.598   6.668   5.411 -0.4062 -0.6777 -0.7244
  286MOL0     H38586  14.681   6.873   5.326  0.5154  0.3706  0.7088
  286MOL0     H38587  14.772   6.732   5.246 -1.0495 -2.7216 -1.0386
  286MOL0     H38588  14.543   6.872   5.107 -1.2012 -1.1851 -0.9828
  286MOL0     H38589  14.656   6.756   5.041 -2.4761  0.5736 -0.7454
  286MOL0     H38590  14.734   6.951   4.963  0.8648 -2.6034 -0.6478
  286MOL0     H38591  14.857   6.904   5.077  0.9846  0.9568 -1.0336
  286MOL0     H38592  14.035   6.933   5.221 -0.2626  0.8017 -1.5415
  286MOL0     H38593  13.812   6.985   5.106 -0.8625  0.8768 -0.1965
  286MOL0     H38594  13.327   6.868   5.222 -2.8537 -0.1985  1.7417
  286MOL0     H38595  13.093   6.904   5.147 -1.1152  1.6949 -0.1681
  286MOL0     H38596  11.731   7.600   4.050  1.7728 -1.5561  0.6994
  286MOL0     H38597  11.503   7.574   3.922  0.5181 -1.0838  2.6322
  286MOL0     H38598  11.234   7.603   3.477  2.6207 -1.7513  0.8444
  286MOL0     H38599  10.997   7.544   3.407  0.1837  2.4919 -0.2911
  286MOL0     H38600  10.778   7.572   3.462 -0.4596  2.9761  3.2506
  286MOL0     H38601  10.641   7.450   3.486  0.5944 -1.5496  0.1530
  286MOL0     H38602  10.794   7.597   3.702  0.0595 -0.2398  1.4110
  286MOL0     H38603  10.691   7.467   3.734  1.6524  1.7261  2.6277
  286MOL0     H38604  10.545   7.658   3.752 -1.1513 -1.1752 -0.1452
  286MOL0     H38605  10.523   7.640   3.571 -0.7017 -0.6488  0.4385
  286MOL0     H38606  10.732   7.831   3.694 -0.4838  2.4904 -0.7779
  286MOL0     H38607  10.571   7.869   3.641  0.9869  1.2948  0.2711
  286MOL0     H38608  10.796   7.840   3.289  1.5928 -1.2891  1.2738
  286MOL0     H38609  10.948   7.294   3.735 -0.9993  1.2006 -1.6734
  286MOL0     H38610  11.184   7.379   3.832 -0.4317 -0.6282 -0.3367
  287MOL0     O38611   0.062   5.081   6.222 -0.1750 -0.4016 -0.3871
  287MOL0     C38612  -0.054   5.084   6.261  0.2388  0.6407 -0.2710
  287MOL0     O38613  -0.101   5.119   6.381 -0.1200 -0.0113 -0.0183
  287MOL0     C38614  -0.038   5.196   6.477 -0.3465 -0.5694 -0.3816
  287MOL0     C38615  -0.105   5.223   6.595 -0.9752 -0.3406 -0.1122
  287MOL0     C38616  -0.052   5.291   6.705 -0.1826 -0.0736  0.4905
  287MOL0     C38617   0.074   5.347   6.693  0.5574  0.7926  0.9535
  287MOL0     O38618   0.115   5.428   6.792  0.3306 -0.4576 -0.8336
  287MOL0     C38619   0.213   5.364   6.888  0.4456 -0.5581  0.8908
  287MOL0     C38620   0.276   5.484   6.959  0.7260 -0.1260 -0.6295
  287MOL0     C38621   0.353   5.438   7.081  0.0959 -0.7321 -0.2608
  287MOL0     C38622   0.436   5.561   7.129  0.3739 -0.5570 -0.6488
  287MOL0     C38623   0.526   5.532   7.249  0.1391 -0.4902  0.1454
  287MOL0     C38624   0.439   5.501   7.378 -0.4056 -0.7322  0.2656
  287MOL0     C38625   0.518   5.532   7.512  0.5382  0.8594  0.4066
  287MOL0     C38626   0.633   5.427   7.543  0.7225 -0.3426  0.1765
  287MOL0     N38627   0.605   5.283   7.519 -1.2443 -0.3275 -0.6375
  287MOL0     C38628   0.622   5.215   7.407  0.5202  0.7930 -0.5442
  287MOL0     C38629   0.559   5.094   7.441 -0.1511 -1.1173  0.3414
  287MOL0     C38630   0.560   4.984   7.341 -0.6284 -0.3442 -0.2358
  287MOL0     C38631   0.418   4.957   7.290 -0.1265 -0.4866 -0.2666
  287MOL0     C38632   0.399   4.802   7.266  0.3962 -0.2360 -0.3108
  287MOL0     C38633   0.263   4.762   7.216 -0.3564 -0.0391  1.2194
  287MOL0     O38634   0.277   4.643   7.131 -0.2395  0.6692 -0.0405
  287MOL0     C38635   0.164   4.586   7.071  1.2707 -0.3074 -0.6643
  287MOL0     C38636   0.185   4.484   6.970 -0.1959  0.0111  0.3862
  287MOL0     C38637   0.089   4.417   6.902  0.6591  1.0758  0.2138
  287MOL0     C38638   0.136   4.308   6.805 -0.0380 -0.1595 -0.4406
  287MOL0     C38639  -0.051   4.446   6.935 -1.0811 -1.1524 -0.0911
  287MOL0     C38640  -0.162   4.373   6.873  0.6350  1.1748 -0.5817
  287MOL0     O38641  -0.277   4.436   6.914 -0.3034 -0.3643  0.9028
  287MOL0     C38642  -0.383   4.405   6.832  0.3501 -0.2145  1.0512
  287MOL0     C38643  -0.449   4.284   6.836  0.0652 -0.4586 -0.2197
  287MOL0     C38644  -0.563   4.262   6.750  0.1940  0.3090  0.0420
  287MOL0     C38645  -0.596   4.357   6.655 -0.2966  0.4858 -0.2673
  287MOL0     O38646  -0.692   4.346   6.552 -0.2062 -0.3011 -0.0023
  287MOL0     C38647  -0.740   4.213   6.523  0.6479 -0.0340 -0.0447
  287MOL0     C38648  -0.847   4.223   6.420  0.7277 -0.3799  0.5353
  287MOL0     C38649  -0.921   4.097   6.396 -0.4100 -0.2949  0.2687
  287MOL0     C38650  -1.046   4.122   6.315  0.3520  0.4131  0.3472
  287MOL0     C38651  -1.172   4.066   6.378  0.6121 -0.1075 -0.3837
  287MOL0     C38652  -1.245   4.154   6.478  0.2617  0.0221  0.9402
  287MOL0     C38653  -1.385   4.091   6.505  0.4481  0.0578  0.2769
  287MOL0     C38654  -1.487   4.179   6.561  0.0938  0.2741 -0.2630
  287MOL0    Cl38655  -1.489   4.315   6.433 -0.0056 -0.2713 -0.2482
  287MOL0     C38656  -0.538   4.485   6.663 -0.0090 -0.1807 -0.5193
  287MOL0     C38657  -0.438   4.507   6.755  0.2675 -0.0452 -0.2398
  287MOL0     O38658  -0.152   4.259   6.830 -0.7833 -0.0837 -0.0890
  287MOL0     C38659  -0.070   4.550   7.029  0.6745 -0.3102  0.3493
  287MOL0     C38660   0.027   4.615   7.098 -0.7848 -0.1737  0.0641
  287MOL0     N38661   0.499   5.101   7.567 -0.6029  0.4379  1.0335
  287MOL0     N38662   0.536   5.213   7.618 -0.2658 -0.3866  0.7295
  287MOL0     C38663   0.139   5.329   6.566  0.3503  0.4905 -0.0478
  287MOL0     C38664   0.088   5.255   6.462 -0.2335  0.1319  1.1869
  287MOL0     C38665  -0.166   5.039   6.168  0.2726 -1.0105 -0.1310
  287MOL0     C38666  -0.153   5.062   6.034  1.3351 -0.3053  0.7776
  287MOL0     C38667  -0.249   5.014   5.939 -0.0953  0.3018 -0.9777
  287MOL0     C38668  -0.374   4.973   5.990  0.2701 -0.1031  0.7475
  287MOL0     O38669  -0.471   4.936   5.905  0.2514 -0.6104  0.7117
  287MOL0     C38670  -0.533   4.816   5.946 -0.5396  0.0705 -0.1992
  287MOL0     C38671  -0.619   4.762   5.828  0.4302 -0.5697  1.1230
  287MOL0     C38672  -0.746   4.839   5.806 -0.6958 -0.9716 -0.6214
  287MOL0     C38673  -0.836   4.771   5.705 -0.0271  0.2370 -0.0891
  287MOL0     C38674  -0.951   4.715   5.776 -0.0162 -0.3009  0.3282
  287MOL0     C38675  -1.042   4.685   5.849 -0.3575 -0.4458 -0.3649
  287MOL0     C38676  -0.394   4.969   6.130 -0.1384  0.4216  0.3286
  287MOL0     C38677  -0.291   5.009   6.216  0.1081  1.2935 -0.4605
  287MOL0     H38678  -0.205   5.183   6.608 -0.4864 -1.5099  0.1641
  287MOL0     H38679  -0.120   5.307   6.788 -0.1595 -2.1672  0.9743
  287MOL0     H38680   0.174   5.294   6.962  2.6661 -0.7277  1.9780
  287MOL0     H38681   0.303   5.326   6.839  0.0328  0.1965 -0.5141
  287MOL0     H38682   0.346   5.537   6.894  0.8032  0.2671 -0.2333
  287MOL0     H38683   0.197   5.549   6.999 -1.2047 -1.3541 -2.2382
  287MOL0     H38684   0.282   5.405   7.158  0.9457  0.1863  0.9491
  287MOL0     H38685   0.419   5.353   7.067  0.1233 -0.9541  1.0908
  287MOL0     H38686   0.495   5.598   7.045 -1.4273  0.6107 -1.4601
  287MOL0     H38687   0.355   5.627   7.162  1.6294 -0.1963  1.9742
  287MOL0     H38688   0.582   5.444   7.215 -2.3326 -1.9542 -0.3994
  287MOL0     H38689   0.594   5.617   7.259 -1.3704  0.7855 -0.0769
  287MOL0     H38690   0.347   5.560   7.375  0.6260  1.0226  1.0756
  287MOL0     H38691   0.408   5.397   7.385 -1.3379 -0.6651 -2.0705
  287MOL0     H38692   0.558   5.633   7.500 -0.7075  1.1922 -1.4030
  287MOL0     H38693   0.452   5.533   7.599 -0.9381 -1.0215 -0.6133
  287MOL0     H38694   0.664   5.445   7.646 -1.3355  2.7860  0.3863
  287MOL0     H38695   0.714   5.454   7.474  0.9119 -0.0189  0.5193
  287MOL0     H38696   0.681   5.238   7.318  0.6741 -1.1966 -1.0108
  287MOL0     H38697   0.624   5.015   7.257  0.7790 -2.0680  0.1356
  287MOL0     H38698   0.609   4.897   7.386  1.0240  0.4336 -0.4439
  287MOL0     H38699   0.398   5.008   7.195  0.5014 -3.0451 -1.8932
  287MOL0     H38700   0.359   5.000   7.371  1.9757  0.2861  0.9344
  287MOL0     H38701   0.422   4.733   7.347 -1.5369 -1.9818 -1.1619
  287MOL0     H38702   0.465   4.770   7.185  0.0223 -0.2243 -0.6230
  287MOL0     H38703   0.223   4.840   7.149  1.5994 -1.4362 -1.8079
  287MOL0     H38704   0.198   4.754   7.303 -1.9156  4.8221  0.8391
  287MOL0     H38705   0.287   4.455   6.947 -0.6937 -1.2251 -0.3579
  287MOL0     H38706   0.242   4.285   6.824 -0.8085 -1.6016  2.9206
  287MOL0     H38707   0.092   4.209   6.820  1.1682 -0.6783 -0.1220
  287MOL0     H38708   0.118   4.344   6.704 -1.7299  0.4684  0.0550
  287MOL0     H38709  -0.418   4.197   6.893  1.7189  0.3909  0.2290
  287MOL0     H38710  -0.625   4.174   6.764  1.0819 -0.7577 -2.2147
  287MOL0     H38711  -0.652   4.151   6.504 -1.7529 -5.0690  2.9542
  287MOL0     H38712  -0.782   4.169   6.614 -0.0395 -0.6417 -0.6396
  287MOL0     H38713  -0.914   4.299   6.460  2.2251  1.0827  0.3646
  287MOL0     H38714  -0.805   4.259   6.326  2.9628  0.7211  1.8565
  287MOL0     H38715  -0.931   4.044   6.490  0.3979  2.0464  1.7643
  287MOL0     H38716  -0.859   4.028   6.338 -0.7144 -1.2968  1.1270
  287MOL0     H38717  -1.063   4.230   6.317 -0.3646  0.3038  1.0218
  287MOL0     H38718  -1.043   4.069   6.219 -0.4870  0.9672 -0.0031
  287MOL0     H38719  -1.156   3.974   6.435 -0.8153 -0.6240 -0.7720
  287MOL0     H38720  -1.235   4.036   6.294  0.4651 -1.5920  0.2244
  287MOL0     H38721  -1.190   4.156   6.572  0.6518 -2.2599  0.8215
  287MOL0     H38722  -1.242   4.260   6.453 -0.3522 -0.2575 -0.3870
  287MOL0     H38723  -1.377   4.010   6.577  0.6775 -0.6185 -0.4929
  287MOL0     H38724  -1.417   4.039   6.414  0.9116 -0.2478  0.2848
  287MOL0     H38725  -1.464   4.226   6.657 -0.8335 -1.1650  0.7001
  287MOL0     H38726  -1.586   4.133   6.566  0.3378 -0.1488  1.4937
  287MOL0     H38727  -0.564   4.562   6.592 -0.3924  0.0251 -0.1608
  287MOL0     H38728  -0.402   4.604   6.787  2.2044 -0.8171  0.0554
  287MOL0     H38729  -0.171   4.578   7.057  0.6256 -0.9462  0.8194
  287MOL0     H38730   0.001   4.698   7.163 -0.6478  0.6559 -0.9154
  287MOL0     H38731   0.243   5.362   6.564  0.5556 -0.1446 -1.5895
  287MOL0     H38732   0.140   5.243   6.367 -3.6566 -1.4165 -0.6482
  287MOL0     H38733  -0.060   5.109   6.003 -0.0190  0.3936 -2.7557
  287MOL0     H38734  -0.229   5.005   5.833 -0.3380 -2.4180 -0.8605
  287MOL0     H38735  -0.455   4.742   5.969 -0.7661  0.1848  1.0135
  287MOL0     H38736  -0.598   4.821   6.033  0.7866 -1.7527  0.9760
  287MOL0     H38737  -0.647   4.661   5.860  1.1212 -0.9399  0.5735
  287MOL0     H38738  -0.560   4.755   5.737 -3.2976 -3.9382 -1.3995
  287MOL0     H38739  -0.716   4.932   5.756 -0.5091 -0.2076  0.8416
  287MOL0     H38740  -0.799   4.872   5.896  1.2542  1.4527 -0.2239
  287MOL0     H38741  -0.796   4.696   5.637 -0.4440  0.5501 -0.6885
  287MOL0     H38742  -0.880   4.848   5.641 -0.7514 -0.4819 -0.4872
  287MOL0     H38743  -1.112   4.644   5.919  0.6415  0.5248  1.2577
  287MOL0     H38744  -0.487   4.933   6.173 -0.8725  0.9625 -0.7472
  287MOL0     H38745  -0.314   4.996   6.321 -2.1793 -1.3820 -1.1526
  288MOL0     O38746   3.113   1.131   8.137 -0.2583 -0.2799 -0.1626
  288MOL0     C38747   3.141   1.067   8.033 -0.1594 -0.2118  0.8439
  288MOL0     O38748   3.063   0.979   7.971 -0.1343  0.1751  0.0328
  288MOL0     C38749   2.941   0.927   8.023 -0.0155  0.5246 -0.4378
  288MOL0     C38750   2.853   0.889   7.920 -0.3060  0.0158 -0.3520
  288MOL0     C38751   2.728   0.841   7.954 -0.3404  1.2507 -1.0095
  288MOL0     C38752   2.695   0.803   8.093 -0.9224 -1.1558  1.0066
  288MOL0     O38753   2.578   0.759   8.135  0.0628  0.2761  0.0901
  288MOL0     C38754   2.482   0.703   8.041 -0.9488  0.6185  0.0021
  288MOL0     C38755   2.369   0.652   8.128 -0.3284 -0.2193  0.9456
  288MOL0     C38756   2.241   0.588   8.052 -0.2984 -1.3853  0.0006
  288MOL0     C38757   2.134   0.523   8.149 -0.7425  0.0582  0.1153
  288MOL0     C38758   2.040   0.444   8.067 -0.4682  0.1043  0.0223
  288MOL0     C38759   1.931   0.386   8.160 -0.2643  0.1083  0.7597
  288MOL0     C38760   1.836   0.274   8.111  0.1958  0.2233 -0.1865
  288MOL0     C38761   1.904   0.139   8.119  0.7112  0.1207 -0.3036
  288MOL0     N38762   1.808   0.035   8.066  0.7957 -0.5264 -1.0037
  288MOL0     C38763   1.676   0.014   8.100  0.1062 -0.0167 -0.3157
  288MOL0     C38764   1.631  -0.064   7.994 -0.0756  0.6330 -0.3483
  288MOL0     C38765   1.497  -0.113   7.960 -0.2486  0.3539 -0.2199
  288MOL0     C38766   1.405   0.004   7.932  0.5535 -0.9466  0.3479
  288MOL0     C38767   1.261  -0.034   7.933 -0.2689 -0.7540  0.4601
  288MOL0     C38768   1.161   0.074   7.893 -0.9059  0.2790  0.0808
  288MOL0     O38769   1.023   0.031   7.878 -0.0713  0.1124 -0.7478
  288MOL0     C38770   0.948   0.078   7.780  0.0426  0.4710  0.3774
  288MOL0     C38771   0.836   0.008   7.756  0.7210  0.6849  0.9645
  288MOL0     C38772   0.757   0.034   7.642 -0.4197 -0.5933 -0.3164
  288MOL0     C38773   0.652  -0.065   7.605 -0.0489 -0.0636  0.0683
  288MOL0     C38774   0.789   0.153   7.568 -0.4261  0.4290  0.5458
  288MOL0     C38775   0.715   0.181   7.442 -1.1592  0.5069 -0.5940
  288MOL0     O38776   0.769   0.118   7.337  0.6816  0.0080  0.0332
  288MOL0     C38777   0.703   0.091   7.212 -0.0484 -0.7663  0.4101
  288MOL0     C38778   0.788   0.074   7.099 -0.3000  0.6070  0.5589
  288MOL0     C38779   0.733   0.066   6.972  0.0560 -0.6579  0.7204
  288MOL0     C38780   0.595   0.075   6.948 -0.3788  0.9491  1.2487
  288MOL0     O38781   0.548   0.081   6.821 -0.0579 -0.1057  0.0104
  288MOL0     C38782   0.612   0.159   6.720  0.1422  0.5393 -0.5916
  288MOL0     C38783   0.539   0.174   6.585  0.7180 -0.2817 -0.1742
  288MOL0     C38784   0.573   0.057   6.485  0.5361 -0.7732  0.0327
  288MOL0     C38785   0.514  -0.077   6.524 -0.3545  1.1664  0.3029
  288MOL0     C38786   0.534  -0.186   6.417 -0.2569 -0.2642  1.2942
  288MOL0     C38787   0.668  -0.207   6.340  0.2652  0.1061  0.0051
  288MOL0     C38788   0.656  -0.333   6.262  0.0158 -0.0116  0.2896
  288MOL0     C38789   0.745  -0.343   6.135 -1.2815 -0.1627  0.7578
  288MOL0    Cl38790   0.912  -0.286   6.165 -0.0055  0.2294 -0.3586
  288MOL0     C38791   0.512   0.079   7.058  0.1057 -0.3266 -0.3833
  288MOL0     C38792   0.565   0.088   7.193 -0.3480 -0.4082  0.9663
  288MOL0     O38793   0.624   0.259   7.439 -0.0097 -0.5045  1.4397
  288MOL0     C38794   0.899   0.229   7.606 -0.0438 -0.4902 -0.2889
  288MOL0     C38795   0.973   0.199   7.714 -0.3334 -0.1522  0.7247
  288MOL0     N38796   1.739  -0.103   7.915  0.8053  0.8125 -0.1184
  288MOL0     N38797   1.842  -0.037   7.958 -0.0361 -0.4828  0.0635
  288MOL0     C38798   2.779   0.847   8.190 -1.0848 -0.3870  0.4664
  288MOL0     C38799   2.903   0.904   8.159 -0.0020  0.2442  0.5568
  288MOL0     C38800   3.279   1.074   7.977  0.3476 -0.6468  0.8754
  288MOL0     C38801   3.383   1.077   8.076  0.8057  0.0356  0.7241
  288MOL0     C38802   3.515   1.076   8.040 -1.2131  1.1066  0.2212
  288MOL0     C38803   3.559   1.057   7.911  0.1827 -0.8761  1.0048
  288MOL0     O38804   3.694   1.061   7.876  1.0045 -0.0403  0.1616
  288MOL0     C38805   3.759   0.930   7.870  0.5335 -0.6717 -0.3062
  288MOL0     C38806   3.909   0.941   7.913 -0.3886  0.0367  0.8261
  288MOL0     C38807   4.015   0.982   7.818 -1.4556  0.0997 -0.9588
  288MOL0     C38808   4.092   0.862   7.763 -0.2260 -0.1854  0.4111
  288MOL0     C38809   4.020   0.806   7.644 -0.6168  0.8196 -0.0750
  288MOL0     C38810   3.957   0.756   7.552  0.2649 -0.1615  0.6790
  288MOL0     C38811   3.454   1.038   7.816  0.5760 -0.5405  0.2280
  288MOL0     C38812   3.313   1.050   7.848  1.0545  0.1480  1.0089
  288MOL0     H38813   2.884   0.899   7.817 -0.0840  0.2471 -0.2625
  288MOL0     H38814   2.657   0.819   7.875  0.2596  0.5830 -1.3784
  288MOL0     H38815   2.452   0.773   7.963 -0.2181 -0.3556 -1.1874
  288MOL0     H38816   2.534   0.625   7.985  3.2226  2.8748  0.2870
  288MOL0     H38817   2.402   0.580   8.203  0.0977 -0.6090  0.3883
  288MOL0     H38818   2.332   0.736   8.188  1.8984  0.5082  1.3877
  288MOL0     H38819   2.195   0.656   7.979 -1.4121 -0.5311  1.4544
  288MOL0     H38820   2.284   0.509   7.989 -0.8712 -0.4184 -1.6765
  288MOL0     H38821   2.183   0.450   8.214  3.1604  2.7038  0.4888
  288MOL0     H38822   2.077   0.600   8.201 -2.6746 -0.1811 -1.5423
  288MOL0     H38823   2.001   0.511   7.990  1.3450  2.9615  1.4379
  288MOL0     H38824   2.097   0.371   8.009  2.6032  2.5811 -0.2875
  288MOL0     H38825   1.986   0.336   8.241  0.3036  0.5231  0.6301
  288MOL0     H38826   1.872   0.465   8.207  1.3915  0.4878  2.2787
  288MOL0     H38827   1.744   0.268   8.170  0.1457  1.1194 -0.1579
  288MOL0     H38828   1.808   0.301   8.008 -2.6748  2.0955  0.9743
  288MOL0     H38829   1.929   0.104   8.219 -0.2138  1.2516  0.3482
  288MOL0     H38830   1.998   0.146   8.063  2.5293  2.2058  2.6810
  288MOL0     H38831   1.614   0.040   8.185 -1.0462 -0.3981 -1.0126
  288MOL0     H38832   1.491  -0.179   7.873 -1.1092  1.1274 -0.7642
  288MOL0     H38833   1.463  -0.166   8.050 -0.0223  0.5053 -0.0464
  288MOL0     H38834   1.440   0.049   7.839  3.3470  2.4791  2.7821
  288MOL0     H38835   1.417   0.085   8.005 -0.5428 -0.1703 -0.2902
  288MOL0     H38836   1.232  -0.076   8.029  0.0100 -2.9847 -0.3641
  288MOL0     H38837   1.249  -0.122   7.869  0.9664 -0.5390 -0.1131
  288MOL0     H38838   1.198   0.112   7.798  3.2679  1.2904  1.8542
  288MOL0     H38839   1.156   0.154   7.968 -0.5899 -1.4587  2.0819
  288MOL0     H38840   0.810  -0.081   7.814 -0.3580  0.2779 -0.0944
  288MOL0     H38841   0.706  -0.158   7.581  1.9304  1.1297 -0.3309
  288MOL0     H38842   0.594  -0.089   7.694 -1.1682  0.9344 -0.3678
  288MOL0     H38843   0.578  -0.030   7.532  0.1296  2.1745  0.8969
  288MOL0     H38844   0.893   0.067   7.122 -0.1950  0.4649  0.0507
  288MOL0     H38845   0.804   0.050   6.891  0.3770  1.3147  0.5732
  288MOL0     H38846   0.642   0.257   6.758 -2.1182  1.3307 -0.7089
  288MOL0     H38847   0.706   0.106   6.699 -0.3235  0.2992 -2.2624
  288MOL0     H38848   0.434   0.189   6.611  0.3519  0.4348 -1.8855
  288MOL0     H38849   0.566   0.272   6.545 -0.8962  0.9675  1.6201
  288MOL0     H38850   0.681   0.063   6.467  0.8736 -0.0849  2.0348
  288MOL0     H38851   0.516   0.086   6.397  1.3645  0.2104 -0.2037
  288MOL0     H38852   0.573  -0.119   6.606  2.5922  2.1946 -1.1514
  288MOL0     H38853   0.413  -0.070   6.566 -0.2916  3.2892  0.1601
  288MOL0     H38854   0.456  -0.169   6.342 -0.6085  0.2740  1.7695
  288MOL0     H38855   0.518  -0.275   6.478 -0.7208 -1.2435 -0.1994
  288MOL0     H38856   0.665  -0.131   6.261  1.0395 -0.1609 -0.2841
  288MOL0     H38857   0.754  -0.215   6.407  1.5235 -2.3641 -1.7579
  288MOL0     H38858   0.550  -0.346   6.240 -0.0765 -0.1130  0.7855
  288MOL0     H38859   0.682  -0.416   6.328  1.3363 -0.9957 -1.3783
  288MOL0     H38860   0.700  -0.276   6.062  0.4616  0.9072  0.6076
  288MOL0     H38861   0.744  -0.440   6.084  1.6276  0.1046 -0.0052
  288MOL0     H38862   0.405   0.076   7.038  0.4540  1.9199 -3.0595
  288MOL0     H38863   0.496   0.094   7.276  0.8142 -1.6513  2.0553
  288MOL0     H38864   0.936   0.314   7.550  3.5517 -0.3854  1.8975
  288MOL0     H38865   1.057   0.262   7.744 -0.3937 -0.4312  1.5056
  288MOL0     H38866   2.755   0.836   8.295 -1.7647  1.8365  0.6078
  288MOL0     H38867   2.962   0.943   8.242  3.1950  1.1484 -1.9537
  288MOL0     H38868   3.349   1.089   8.178 -4.7734 -1.4097 -0.6432
  288MOL0     H38869   3.584   1.093   8.121 -0.7756  0.3601  0.0140
  288MOL0     H38870   3.707   0.870   7.944 -1.1222 -0.0083 -0.8895
  288MOL0     H38871   3.741   0.876   7.777  0.7029 -0.4625 -0.4644
  288MOL0     H38872   3.934   0.843   7.955  1.7072 -0.0666 -0.5434
  288MOL0     H38873   3.924   1.014   7.993 -1.4262  2.0281 -0.7108
  288MOL0     H38874   4.083   1.050   7.870  0.7833 -1.9663 -0.9702
  288MOL0     H38875   3.971   1.037   7.735  1.4351  0.6696 -2.2381
  288MOL0     H38876   4.118   0.781   7.832  1.3977 -1.7564 -1.8975
  288MOL0     H38877   4.193   0.890   7.732 -0.1269  1.2824  1.8927
  288MOL0     H38878   3.889   0.716   7.479  1.5465  2.4515 -2.1394
  288MOL0     H38879   3.481   1.011   7.715  1.7293  1.9762 -0.2091
  288MOL0     H38880   3.244   1.039   7.765  2.9841  3.8308 -1.3385
  289MOL0     O38881   6.667   2.371   8.729  0.0838  0.4462 -0.9413
  289MOL0     C38882   6.664   2.269   8.663  0.3158  0.5598 -0.1136
  289MOL0     O38883   6.651   2.263   8.520 -0.5897 -0.2296 -0.2557
  289MOL0     C38884   6.629   2.371   8.445  0.4259 -0.6719  0.7265
  289MOL0     C38885   6.716   2.389   8.339 -0.5389 -0.7218 -0.4661
  289MOL0     C38886   6.711   2.508   8.265  0.9178  0.5429  0.5317
  289MOL0     C38887   6.606   2.603   8.290  0.5318 -0.0783  0.1111
  289MOL0     O38888   6.584   2.710   8.207  0.1376  0.2065  0.5171
  289MOL0     C38889   6.695   2.775   8.145 -0.4921  0.4417  0.5408
  289MOL0     C38890   6.788   2.836   8.244  0.0153 -0.7491 -0.2484
  289MOL0     C38891   6.904   2.919   8.173  0.8541 -0.2077  0.0324
  289MOL0     C38892   7.026   2.841   8.185  0.3568 -0.8130  0.7164
  289MOL0     C38893   7.151   2.915   8.114 -0.4707  0.3453 -0.1223
  289MOL0     C38894   7.285   2.850   8.129  0.2099  1.0857  0.2657
  289MOL0     C38895   7.338   2.867   8.263  0.3645  0.4817 -0.5021
  289MOL0     C38896   7.418   2.741   8.324 -0.2189  0.5024 -0.2242
  289MOL0     N38897   7.540   2.681   8.249 -0.2162  0.3356 -0.6249
  289MOL0     C38898   7.645   2.752   8.197 -0.8677 -0.3356 -0.2208
  289MOL0     C38899   7.740   2.659   8.162  0.3694 -0.2846 -0.3708
  289MOL0     C38900   7.875   2.701   8.096  0.1987  0.6923  0.0605
  289MOL0     C38901   7.983   2.699   8.198  0.2928 -0.6217  0.2973
  289MOL0     C38902   8.116   2.723   8.137 -0.4429 -0.4194 -0.3468
  289MOL0     C38903   8.238   2.699   8.240 -0.3114 -0.5549 -0.2670
  289MOL0     O38904   8.237   2.578   8.318  0.5038  0.9948 -0.9105
  289MOL0     C38905   8.342   2.560   8.414 -0.1418 -0.6243  0.0860
  289MOL0     C38906   8.464   2.626   8.428 -0.3808  0.6412  0.2367
  289MOL0     C38907   8.569   2.588   8.514  0.5035  0.4217 -0.5867
  289MOL0     C38908   8.682   2.683   8.516  1.3186  0.2968  0.3104
  289MOL0     C38909   8.551   2.482   8.598 -0.4364  0.2586  0.6170
  289MOL0     C38910   8.659   2.436   8.700  0.9035  0.6056  0.3989
  289MOL0     O38911   8.629   2.325   8.761  0.4511  0.4180  0.4339
  289MOL0     C38912   8.713   2.263   8.846  0.7782  0.2205  0.3309
  289MOL0     C38913   8.845   2.234   8.810 -0.3854  0.6659 -0.4330
  289MOL0     C38914   8.936   2.177   8.896 -0.7258 -1.0796  0.0028
  289MOL0     C38915   8.915   2.163   9.027  0.2912  0.0060 -1.4241
  289MOL0     O38916   9.004   2.141   9.123  0.1736 -0.5367 -0.9126
  289MOL0     C38917   9.093   2.039   9.092  0.5235  0.5663 -0.0226
  289MOL0     C38918   9.227   2.045   9.167 -0.6104 -0.4795  0.0233
  289MOL0     C38919   9.315   1.923   9.130 -0.7209  0.2685  0.9176
  289MOL0     C38920   9.464   1.959   9.162  0.2090 -0.3706 -0.2151
  289MOL0     C38921   9.549   1.827   9.162  0.6974  0.3623  0.1175
  289MOL0     C38922   9.695   1.851   9.205  0.3792 -0.1293 -0.5974
  289MOL0     C38923   9.788   1.725   9.203  0.0386  0.0326  0.1952
  289MOL0     C38924   9.932   1.767   9.221  0.2346  0.8752 -1.0975
  289MOL0    Cl38925   9.966   1.838   9.386  0.0311 -0.1332  0.3024
  289MOL0     C38926   8.780   2.198   9.071  0.8829  0.4542  0.8770
  289MOL0     C38927   8.679   2.244   8.981  0.4513  0.1769  0.4348
  289MOL0     O38928   8.760   2.501   8.721  0.5378 -0.2892  0.0280
  289MOL0     C38929   8.434   2.416   8.589 -0.8939  0.1068  0.0744
  289MOL0     C38930   8.337   2.448   8.501 -0.0374 -0.1887  0.0356
  289MOL0     N38931   7.685   2.539   8.195  0.1430 -0.1728 -0.6283
  289MOL0     N38932   7.569   2.549   8.251 -0.5067 -0.2473 -0.0716
  289MOL0     C38933   6.521   2.586   8.397  0.9698 -0.5407 -0.1130
  289MOL0     C38934   6.530   2.463   8.471  0.0224 -0.2854  0.7510
  289MOL0     C38935   6.653   2.137   8.739 -0.4410 -0.1615 -0.4737
  289MOL0     C38936   6.630   2.128   8.878 -0.1706 -0.6548  0.6394
  289MOL0     C38937   6.616   2.007   8.947 -0.5263  0.1442 -1.0420
  289MOL0     C38938   6.622   1.892   8.877 -0.7118 -0.0055 -0.1487
  289MOL0     O38939   6.600   1.778   8.954 -0.0065 -0.2830  0.5176
  289MOL0     C38940   6.637   1.650   8.892 -0.0567 -0.2817 -0.7537
  289MOL0     C38941   6.637   1.538   8.997 -0.0513  0.8315  0.0703
  289MOL0     C38942   6.734   1.565   9.120  0.5964 -0.4203 -0.5187
  289MOL0     C38943   6.783   1.439   9.193 -0.1743 -0.8773  1.0383
  289MOL0     C38944   6.683   1.388   9.286 -0.4166  0.5236  0.4106
  289MOL0     C38945   6.605   1.342   9.362 -0.1983 -1.0188 -0.5564
  289MOL0     C38946   6.655   1.890   8.745  0.1924 -0.4996  0.2317
  289MOL0     C38947   6.672   2.012   8.677  0.5351 -0.2869  0.3138
  289MOL0     H38948   6.780   2.306   8.310  0.8664  0.6551 -1.4775
  289MOL0     H38949   6.774   2.527   8.179 -0.1668  1.9084 -0.0109
  289MOL0     H38950   6.760   2.707   8.089 -0.5781  0.9081 -0.1482
  289MOL0     H38951   6.663   2.860   8.084 -0.6036  1.3376  1.8210
  289MOL0     H38952   6.730   2.904   8.306 -2.1246 -0.3456 -2.5549
  289MOL0     H38953   6.824   2.767   8.321  2.1997 -0.5147 -0.9727
  289MOL0     H38954   6.886   2.924   8.066 -3.5064 -0.3557  0.6038
  289MOL0     H38955   6.905   3.019   8.217 -2.4743  1.6342 -3.5498
  289MOL0     H38956   7.044   2.827   8.292 -2.3637 -1.5583  1.1740
  289MOL0     H38957   7.005   2.742   8.143  1.0282 -0.8898  0.5573
  289MOL0     H38958   7.127   2.920   8.007 -0.2620  1.1772 -0.1385
  289MOL0     H38959   7.164   3.021   8.138  4.5911  0.4220 -1.8297
  289MOL0     H38960   7.280   2.742   8.109 -3.0612  0.9858  1.0282
  289MOL0     H38961   7.347   2.914   8.065  0.9725  1.0182  0.9165
  289MOL0     H38962   7.408   2.951   8.264  1.5241 -0.4318 -1.4410
  289MOL0     H38963   7.261   2.882   8.339 -0.5594  0.0162 -1.3218
  289MOL0     H38964   7.343   2.668   8.355  1.0193  0.2075  2.4388
  289MOL0     H38965   7.470   2.788   8.409  1.1571  0.2176 -0.8751
  289MOL0     H38966   7.633   2.859   8.199 -0.5267 -0.2971 -0.1081
  289MOL0     H38967   7.899   2.625   8.020  1.5741 -3.1304  3.8989
  289MOL0     H38968   7.861   2.799   8.048 -3.3985 -0.6931 -2.1311
  289MOL0     H38969   7.975   2.610   8.261  2.9912 -2.1425 -1.3170
  289MOL0     H38970   7.963   2.783   8.266  2.0788 -1.2349  1.6495
  289MOL0     H38971   8.119   2.824   8.096 -0.8195  0.5595  1.9006
  289MOL0     H38972   8.123   2.655   8.052 -0.1435  0.2404 -0.8581
  289MOL0     H38973   8.230   2.792   8.295  0.8367  0.1268 -1.2011
  289MOL0     H38974   8.332   2.698   8.185 -0.5596 -2.3649 -0.7444
  289MOL0     H38975   8.482   2.716   8.370  2.3523  0.0038 -0.0235
  289MOL0     H38976   8.781   2.634   8.510  1.1369 -0.2303  1.4632
  289MOL0     H38977   8.677   2.765   8.444 -1.1036  0.2832  0.3818
  289MOL0     H38978   8.675   2.734   8.612  0.7289  0.8774 -0.0375
  289MOL0     H38979   8.870   2.256   8.707  0.6596  2.9150  0.2300
  289MOL0     H38980   9.037   2.173   8.856 -0.2188  0.2077  1.0677
  289MOL0     H38981   9.051   1.940   9.111 -0.8343  1.0864 -0.2438
  289MOL0     H38982   9.116   2.047   8.985 -0.9891 -0.4878 -0.4674
  289MOL0     H38983   9.275   2.140   9.144 -0.8182  0.3133  2.5986
  289MOL0     H38984   9.203   2.041   9.273  4.1678  0.8496  1.4156
  289MOL0     H38985   9.307   1.897   9.024  0.5795  0.4865  0.7402
  289MOL0     H38986   9.279   1.835   9.183 -0.5054 -1.0060 -0.9470
  289MOL0     H38987   9.515   2.025   9.092  0.4242 -0.6920 -0.3650
  289MOL0     H38988   9.473   2.003   9.262 -3.8754  5.9978 -2.0661
  289MOL0     H38989   9.542   1.794   9.058  1.1489  0.9421 -0.1041
  289MOL0     H38990   9.503   1.751   9.225  1.6903  0.4426  0.9587
  289MOL0     H38991   9.735   1.927   9.138  0.6943 -0.6843 -1.0503
  289MOL0     H38992   9.691   1.902   9.302 -4.2695 -0.2890 -0.4785
  289MOL0     H38993   9.793   1.691   9.099  1.0052  1.9701 -0.4473
  289MOL0     H38994   9.756   1.654   9.281  1.3977 -2.2446 -1.2082
  289MOL0     H38995   9.959   1.836   9.140 -1.9111  0.4270 -2.2821
  289MOL0     H38996  10.009   1.689   9.218  1.0204  1.5421  0.7953
  289MOL0     H38997   8.755   2.195   9.176 -0.3514 -2.8652  0.6106
  289MOL0     H38998   8.579   2.276   9.007 -0.2175  0.8209 -2.5326
  289MOL0     H38999   8.418   2.328   8.651  1.3842  0.0855  0.7267
  289MOL0     H39000   8.253   2.381   8.487  0.8173 -0.9684 -1.7134
  289MOL0     H39001   6.428   2.640   8.411  0.7492 -0.3883 -1.9349
  289MOL0     H39002   6.467   2.449   8.558  0.8908  1.8563  1.7696
  289MOL0     H39003   6.612   2.223   8.927  0.2162  0.6104 -1.5438
  289MOL0     H39004   6.594   2.012   9.053  2.1980 -2.1368 -0.2523
  289MOL0     H39005   6.586   1.630   8.798  0.5904 -0.2418 -1.1215
  289MOL0     H39006   6.742   1.668   8.865 -0.3460  1.1733 -0.9874
  289MOL0     H39007   6.672   1.450   8.944 -1.9177 -0.0444  0.1950
  289MOL0     H39008   6.538   1.515   9.038  0.7781  0.9548  2.2921
  289MOL0     H39009   6.672   1.623   9.189 -0.2636 -1.3893 -0.4630
  289MOL0     H39010   6.819   1.627   9.091  0.4687  0.1150  0.2081
  289MOL0     H39011   6.863   1.470   9.261  0.5892 -2.7082  1.0266
  289MOL0     H39012   6.815   1.366   9.118 -1.5364 -0.5519  0.0970
  289MOL0     H39013   6.533   1.306   9.432  2.0682 -0.6517  2.1196
  289MOL0     H39014   6.671   1.804   8.681 -1.1698 -0.9219  0.4228
  289MOL0     H39015   6.706   2.009   8.574 -0.5564 -0.1645 -0.0692
  290MOL0     O39016   0.694   7.479  10.672 -0.1063  0.3290 -0.0910
  290MOL0     C39017   0.638   7.429  10.768 -0.5423 -0.2757  0.8251
  290MOL0     O39018   0.517   7.359  10.762  0.0303  0.7948 -0.7598
  290MOL0     C39019   0.441   7.377  10.650  0.4259  0.0160  0.4936
  290MOL0     C39020   0.322   7.459  10.646  0.0784  0.0579  0.7863
  290MOL0     C39021   0.252   7.473  10.532 -1.3868  0.9455  0.4834
  290MOL0     C39022   0.291   7.404  10.416 -0.6964 -0.3187 -0.4952
  290MOL0     O39023   0.236   7.417  10.294  0.3343  0.2946 -0.3135
  290MOL0     C39024   0.141   7.524  10.269  0.3040 -0.1481 -0.6388
  290MOL0     C39025   0.107   7.519  10.125  0.3072 -0.2954  0.8904
  290MOL0     C39026   0.085   7.379  10.053  0.3092  0.4990 -0.6746
  290MOL0     C39027   0.130   7.367   9.901  0.7716  0.5187  1.0937
  290MOL0     C39028   0.119   7.220   9.845 -0.3725 -0.4447  0.4343
  290MOL0     C39029   0.239   7.124   9.878 -0.0167 -0.8333  0.1127
  290MOL0     C39030   0.217   6.989   9.810 -0.4439  0.0654 -0.4487
  290MOL0     C39031   0.344   6.902   9.789  0.0204  0.1216  0.5968
  290MOL0     N39032   0.302   6.773   9.747 -0.2132  0.1348 -0.0778
  290MOL0     C39033   0.234   6.685   9.815 -0.3427  0.4330 -0.4387
  290MOL0     C39034   0.236   6.577   9.731  0.4528 -0.7458 -0.9499
  290MOL0     C39035   0.150   6.448   9.754 -0.3678  0.0243 -0.3402
  290MOL0     C39036   0.242   6.350   9.834  0.7293  0.9187 -0.7732
  290MOL0     C39037   0.242   6.393   9.986 -0.9401  1.0418  1.0928
  290MOL0     C39038   0.290   6.271  10.064  0.1042 -0.2236 -0.2684
  290MOL0     O39039   0.299   6.301  10.203 -0.1013 -0.5620 -0.3558
  290MOL0     C39040   0.363   6.219  10.289 -1.0647 -0.4977  0.0324
  290MOL0     C39041   0.374   6.269  10.423 -0.2955  0.0628  0.3393
  290MOL0     C39042   0.422   6.197  10.527  1.1644  0.4342 -0.3647
  290MOL0     C39043   0.406   6.254  10.666 -0.5515 -0.1461 -0.4058
  290MOL0     C39044   0.470   6.058  10.498 -0.3239 -0.7298 -0.0035
  290MOL0     C39045   0.537   5.979  10.601 -0.6974  0.1657 -0.6049
  290MOL0     O39046   0.550   5.851  10.576  0.8721  0.0699  0.1304
  290MOL0     C39047   0.617   5.764  10.664  0.1758  0.0374  0.4634
  290MOL0     C39048   0.705   5.799  10.768  0.4965  1.1452  0.1605
  290MOL0     C39049   0.759   5.699  10.854 -0.1720 -1.0966  0.0229
  290MOL0     C39050   0.738   5.561  10.827 -0.3631 -0.5751 -0.3888
  290MOL0     O39051   0.786   5.451  10.900 -0.2992 -0.6196 -0.4055
  290MOL0     C39052   0.906   5.482  10.969  0.6877 -0.2500  0.6784
  290MOL0     C39053   0.999   5.362  10.977  0.4803  0.0077  0.0836
  290MOL0     C39054   1.137   5.409  11.024 -0.6071  0.4172  0.2639
  290MOL0     C39055   1.220   5.296  11.086  0.0135 -0.2414 -0.5590
  290MOL0     C39056   1.309   5.339  11.207  0.1200 -0.0605 -0.2009
  290MOL0     C39057   1.330   5.218  11.300  0.2981 -0.3772 -0.0496
  290MOL0     C39058   1.410   5.097  11.239  0.3166  1.0998 -0.4857
  290MOL0     C39059   1.516   5.053  11.333  0.8278  0.4374  0.6372
  290MOL0    Cl39060   1.614   4.914  11.281 -0.5826 -0.0260 -0.0539
  290MOL0     C39061   0.659   5.533  10.714 -0.3107  1.4747 -0.3119
  290MOL0     C39062   0.599   5.630  10.637 -0.0016  0.4375 -0.2796
  290MOL0     O39063   0.586   6.043  10.691 -0.1576  0.2105  0.1784
  290MOL0     C39064   0.471   6.014  10.364 -0.4191  0.1683 -0.3808
  290MOL0     C39065   0.411   6.089  10.270  1.1480 -0.1989  0.3167
  290MOL0     N39066   0.307   6.599   9.612  0.2020 -0.5709 -0.5745
  290MOL0     N39067   0.340   6.719   9.625 -0.0337  0.6382  0.6044
  290MOL0     C39068   0.399   7.314  10.421  0.1630 -0.1169 -0.0960
  290MOL0     C39069   0.475   7.300  10.538 -0.4945 -2.3968  0.0564
  290MOL0     C39070   0.708   7.424  10.899  0.2747  0.3648  1.4580
  290MOL0     C39071   0.628   7.431  11.011 -0.5564  1.0525  0.1650
  290MOL0     C39072   0.684   7.444  11.137  0.8964 -0.6607  0.5626
  290MOL0     C39073   0.825   7.440  11.152  0.7099  0.3048  0.5143
  290MOL0     O39074   0.857   7.451  11.283  0.0902  0.7374 -0.9762
  290MOL0     C39075   0.997   7.485  11.308 -0.3538 -0.4367 -0.2002
  290MOL0     C39076   1.015   7.502  11.455  0.7576  0.4789  0.7270
  290MOL0     C39077   0.998   7.379  11.533  0.6362  0.1946  0.3647
  290MOL0     C39078   1.116   7.289  11.516  0.0544  0.6286 -0.7352
  290MOL0     C39079   1.105   7.154  11.576  0.0129  0.2141  0.7701
  290MOL0     C39080   1.097   7.049  11.628 -0.2250 -0.4116 -0.2105
  290MOL0     C39081   0.906   7.432  11.046 -0.4874  0.6133  0.7968
  290MOL0     C39082   0.846   7.403  10.923  1.2812 -1.0277  1.9435
  290MOL0     H39083   0.288   7.522  10.728  0.1020  0.5678  0.4068
  290MOL0     H39084   0.175   7.549  10.525 -0.1762  2.1866  0.1257
  290MOL0     H39085   0.053   7.493  10.327 -2.4161  0.0392 -4.2951
  290MOL0     H39086   0.182   7.621  10.299  0.7680 -1.2248  2.7540
  290MOL0     H39087   0.020   7.583  10.108 -0.5791 -1.3841  1.2005
  290MOL0     H39088   0.193   7.566  10.076 -0.1979  1.2487  1.4216
  290MOL0     H39089   0.133   7.299  10.110  0.0506  1.8363  1.5344
  290MOL0     H39090  -0.018   7.343  10.063  1.8024 -3.7613  3.1663
  290MOL0     H39091   0.064   7.433   9.843  0.0654 -0.9851  0.1106
  290MOL0     H39092   0.233   7.400   9.887 -0.2598  2.9147 -2.5177
  290MOL0     H39093   0.026   7.188   9.892 -2.5671  2.1124 -1.8034
  290MOL0     H39094   0.118   7.239   9.737 -0.1121  1.4515  0.7265
  290MOL0     H39095   0.338   7.159   9.848  0.3302  2.5587  4.3002
  290MOL0     H39096   0.242   7.119   9.987 -1.3682  0.6045  0.2453
  290MOL0     H39097   0.130   6.946   9.860 -0.9486  0.8949 -0.6001
  290MOL0     H39098   0.178   7.012   9.711  0.6395  1.1269 -0.6427
  290MOL0     H39099   0.421   6.897   9.867  0.8234  1.4356 -0.0858
  290MOL0     H39100   0.389   6.949   9.702 -2.2686 -3.0344 -2.6207
  290MOL0     H39101   0.181   6.696   9.909 -0.9599 -0.0270 -0.7300
  290MOL0     H39102   0.053   6.469   9.798  0.7153  3.3042  0.7954
  290MOL0     H39103   0.146   6.415   9.650  0.8595  0.6649 -0.6152
  290MOL0     H39104   0.339   6.352   9.784  0.4863  0.6683 -1.2667
  290MOL0     H39105   0.194   6.253   9.815 -1.6199  1.8935 -0.1929
  290MOL0     H39106   0.138   6.412  10.014 -1.1477  1.6518 -0.0301
  290MOL0     H39107   0.304   6.483  10.001 -1.4187  1.2537  1.8941
  290MOL0     H39108   0.384   6.230  10.025  0.7747 -1.1476  2.1326
  290MOL0     H39109   0.220   6.191  10.040  0.3181 -0.1435 -1.1974
  290MOL0     H39110   0.343   6.372  10.432  3.0717  1.4698 -1.9733
  290MOL0     H39111   0.333   6.192  10.718  0.1184 -0.6612 -0.0589
  290MOL0     H39112   0.505   6.248  10.713 -0.1555  1.4303 -0.9608
  290MOL0     H39113   0.379   6.359  10.682 -2.8703 -0.7156 -0.2157
  290MOL0     H39114   0.736   5.901  10.788 -1.4416  2.0066 -0.9297
  290MOL0     H39115   0.816   5.740  10.937  0.4618 -0.2455 -0.7946
  290MOL0     H39116   0.961   5.553  10.906  1.2660 -0.8011  0.5568
  290MOL0     H39117   0.886   5.529  11.066  2.1371  3.4261 -0.6179
  290MOL0     H39118   0.963   5.285  11.046  1.1978  2.8452  3.9549
  290MOL0     H39119   1.001   5.311  10.880 -1.3080 -1.3580  0.7177
  290MOL0     H39120   1.126   5.494  11.092 -4.7346 -0.2662  0.7167
  290MOL0     H39121   1.198   5.444  10.940 -1.5905 -0.4226 -0.8384
  290MOL0     H39122   1.153   5.215  11.116 -0.2341 -0.1269 -0.7951
  290MOL0     H39123   1.276   5.239  11.011  0.1649 -2.7347  1.3394
  290MOL0     H39124   1.261   5.414  11.270 -0.3122 -0.8546  0.4251
  290MOL0     H39125   1.406   5.385  11.183 -0.8527  1.4520 -1.4460
  290MOL0     H39126   1.384   5.256  11.387  3.6506 -2.9267 -0.7903
  290MOL0     H39127   1.227   5.187  11.324 -0.3896  1.0337 -1.0478
  290MOL0     H39128   1.458   5.142  11.151 -0.2782  1.7725 -0.4721
  290MOL0     H39129   1.338   5.020  11.212 -0.1137  0.8215  1.3291
  290MOL0     H39130   1.464   5.026  11.425  0.5757  0.6070  0.5487
  290MOL0     H39131   1.575   5.145  11.339 -1.0653  1.6889  1.0153
  290MOL0     H39132   0.638   5.428  10.696  1.3519 -0.2286  5.4931
  290MOL0     H39133   0.525   5.617  10.559 -1.2016  2.4446  0.4539
  290MOL0     H39134   0.507   5.914  10.344  2.3156  0.8621  0.5816
  290MOL0     H39135   0.396   6.044  10.172  2.4980  2.7790 -1.3946
  290MOL0     H39136   0.431   7.262  10.331 -0.1609  0.4571 -0.5541
  290MOL0     H39137   0.557   7.229  10.540 -0.3543 -2.2156  0.8487
  290MOL0     H39138   0.523   7.439  10.986 -0.6206  0.8237  0.3604
  290MOL0     H39139   0.606   7.460  11.211 -1.6679  2.0003 -2.4299
  290MOL0     H39140   1.063   7.409  11.265 -0.9602 -2.7099  2.5797
  290MOL0     H39141   1.023   7.574  11.251 -1.1915 -2.2866 -3.7443
  290MOL0     H39142   0.934   7.568  11.488 -0.7413 -2.4315  3.3837
  290MOL0     H39143   1.111   7.553  11.470  0.6033  0.7380  0.8398
  290MOL0     H39144   0.904   7.327  11.511  0.0544 -0.0208  2.9859
  290MOL0     H39145   0.983   7.416  11.635  0.1711  3.7524 -0.8689
  290MOL0     H39146   1.209   7.332  11.555 -0.7325  2.6528 -0.9862
  290MOL0     H39147   1.137   7.270  11.411 -1.3010  1.3278 -1.1541
  290MOL0     H39148   1.090   6.959  11.686  0.6119  0.3517  1.1254
  290MOL0     H39149   1.012   7.407  11.043 -1.2038 -3.3088 -3.7100
  290MOL0     H39150   0.906   7.393  10.834 -2.2009 -0.3079 -0.6928
  291MOL0     O39151   8.464   7.614  10.337 -0.0198 -0.3384  0.1021
  291MOL0     C39152   8.466   7.569  10.221  0.5329  0.0394  0.6397
  291MOL0     O39153   8.507   7.639  10.111  0.4487  0.3245 -0.4089
  291MOL0     C39154   8.567   7.761  10.131  0.1574 -0.3808 -0.1953
  291MOL0     C39155   8.659   7.801  10.229  0.2119 -0.1085 -0.3394
  291MOL0     C39156   8.711   7.936  10.227 -0.2892 -0.1519  0.0316
  291MOL0     C39157   8.677   8.031  10.138  0.0690 -0.1002 -0.2763
  291MOL0     O39158   8.724   8.159  10.130 -0.2596  0.0288  1.2281
  291MOL0     C39159   8.645   8.255  10.203 -0.2503 -1.4005 -0.5490
  291MOL0     C39160   8.557   8.346  10.112  0.0673 -0.1094 -1.0731
  291MOL0     C39161   8.641   8.466  10.062 -0.8070 -0.7376  0.5716
  291MOL0     C39162   8.564   8.603  10.088 -0.4849 -0.2668  0.1253
  291MOL0     C39163   8.641   8.727  10.035 -0.6588  0.1220 -0.6587
  291MOL0     C39164   8.696   8.711   9.900  0.3273  1.0136 -0.4660
  291MOL0     C39165   8.745   8.840   9.852 -0.6906 -0.0647  0.4526
  291MOL0     C39166   8.809   8.822   9.713 -0.8893  0.8449 -0.1038
  291MOL0     N39167   8.845   8.950   9.643  0.1116 -0.1448  0.0252
  291MOL0     C39168   8.798   9.077   9.673 -0.8235  0.6197  0.0597
  291MOL0     C39169   8.859   9.155   9.580  0.5987  0.8411 -0.8963
  291MOL0     C39170   8.856   9.308   9.580 -0.1645  0.7205 -0.0262
  291MOL0     C39171   8.868   9.382   9.705 -0.2449  0.1212 -0.4002
  291MOL0     C39172   8.903   9.529   9.668  0.1773 -0.5974 -0.4218
  291MOL0     C39173   8.932   9.615   9.780 -0.3415 -0.2137  0.7803
  291MOL0     O39174   8.959   9.743   9.725 -0.7889 -0.3907  0.2365
  291MOL0     C39175   8.995   9.847   9.808  0.4763 -0.8374 -0.3483
  291MOL0     C39176   8.936   9.866   9.934 -0.5648  0.1102  1.1418
  291MOL0     C39177   8.975   9.971  10.014 -0.5495 -0.1337 -0.5147
  291MOL0     C39178   8.899   9.988  10.141  0.6604 -0.1337  0.1420
  291MOL0     C39179   9.088  10.045   9.970  0.0385  0.3129 -0.2425
  291MOL0     C39180   9.162  10.134  10.060 -0.5183 -0.3339 -1.4895
  291MOL0     O39181   9.091  10.237  10.117 -0.0576 -0.7018  0.4678
  291MOL0     C39182   9.164  10.319  10.205  0.2075  0.0170  0.2582
  291MOL0     C39183   9.206  10.274  10.331 -0.6496  0.1111 -0.5817
  291MOL0     C39184   9.257  10.360  10.423 -0.2301  0.0877 -0.4446
  291MOL0     C39185   9.282  10.501  10.402  0.1234  0.8106 -0.1036
  291MOL0     O39186   9.333  10.598  10.492  1.0625  0.8719 -0.4769
  291MOL0     C39187   9.355  10.552  10.629  0.0247 -0.5182  0.0309
  291MOL0     C39188   9.406  10.676  10.704  0.5750  0.7518  1.0408
  291MOL0     C39189   9.430  10.645  10.852 -0.1643  0.3835 -0.1952
  291MOL0     C39190   9.579  10.627  10.890  0.4373 -0.6627  0.7075
  291MOL0     C39191   9.593  10.577  11.029 -0.0390 -0.2955  0.5641
  291MOL0     C39192   9.744  10.569  11.055 -0.1637 -0.3563 -0.1889
  291MOL0     C39193   9.768  10.491  11.186  0.5582  0.2606 -0.0401
  291MOL0     C39194   9.910  10.507  11.254 -0.0378  0.1018  0.0284
  291MOL0    Cl39195  10.030  10.428  11.138  0.0249  0.3047  0.6924
  291MOL0     C39196   9.245  10.544  10.283 -0.5479  0.2114  0.7122
  291MOL0     C39197   9.174  10.458  10.184 -0.3014  0.0164 -0.3690
  291MOL0     O39198   9.282  10.124  10.063  0.9629 -0.0615 -0.0558
  291MOL0     C39199   9.146  10.029   9.843  0.3101 -0.5230 -0.0340
  291MOL0     C39200   9.098   9.928   9.762 -0.0272  0.0626 -0.0693
  291MOL0     N39201   8.940   9.078   9.495  0.5767  1.0317 -0.6923
  291MOL0     N39202   8.923   8.959   9.533 -0.7450  0.0841 -0.3349
  291MOL0     C39203   8.578   7.992  10.045  0.5280 -0.2871 -0.4899
  291MOL0     C39204   8.526   7.859  10.045 -0.0819 -0.5383  0.7784
  291MOL0     C39205   8.423   7.438  10.194  0.6954  0.0880  0.5343
  291MOL0     C39206   8.310   7.385  10.253 -0.3922 -0.0736 -0.1758
  291MOL0     C39207   8.270   7.261  10.220  0.4063  1.1348 -0.8703
  291MOL0     C39208   8.329   7.189  10.109  0.4920  0.1254 -1.2943
  291MOL0     O39209   8.266   7.080  10.056 -0.4907 -0.5416 -0.0565
  291MOL0     C39210   8.244   6.967  10.154 -0.2933 -0.3183  0.2091
  291MOL0     C39211   8.383   6.927  10.212  0.9300  0.1838  0.2070
  291MOL0     C39212   8.446   6.839  10.108 -0.0452  0.6092 -0.9002
  291MOL0     C39213   8.589   6.789  10.132  0.1574 -0.5921 -0.6339
  291MOL0     C39214   8.605   6.753  10.277 -0.7929  0.8487 -0.6721
  291MOL0     C39215   8.615   6.730  10.395 -0.0746  0.8165 -0.4780
  291MOL0     C39216   8.430   7.244  10.044  0.9377  0.2446  0.2343
  291MOL0     C39217   8.471   7.368  10.084 -0.4357 -0.4350  0.6453
  291MOL0     H39218   8.705   7.720  10.285  1.7357 -1.5527 -3.4313
  291MOL0     H39219   8.783   7.956  10.306  0.3401  0.1322 -0.6068
  291MOL0     H39220   8.580   8.209  10.278  0.0792  0.9569  1.3472
  291MOL0     H39221   8.715   8.323  10.254 -0.2887 -1.2271 -0.7241
  291MOL0     H39222   8.517   8.276  10.037 -0.1492 -0.1774 -0.8961
  291MOL0     H39223   8.465   8.383  10.159 -0.9006  0.8689 -3.5642
  291MOL0     H39224   8.741   8.472  10.108 -1.4333  2.0635  1.7966
  291MOL0     H39225   8.659   8.441   9.957 -1.2225 -1.5265  0.6868
  291MOL0     H39226   8.467   8.598  10.037 -0.4254  0.6332 -0.1021
  291MOL0     H39227   8.538   8.625  10.192 -3.0974 -3.4366  0.3023
  291MOL0     H39228   8.576   8.815  10.035 -1.5589 -0.5322 -1.3780
  291MOL0     H39229   8.714   8.764  10.108 -0.9535  1.8566 -1.1921
  291MOL0     H39230   8.785   8.648   9.903  0.8050  1.7082  0.6147
  291MOL0     H39231   8.623   8.677   9.825 -0.1690 -0.6231  0.7204
  291MOL0     H39232   8.656   8.905   9.846 -1.6451 -1.3534  0.1792
  291MOL0     H39233   8.822   8.873   9.922 -0.6759 -0.7421  0.7574
  291MOL0     H39234   8.743   8.762   9.650  1.9573 -0.9386 -1.6513
  291MOL0     H39235   8.902   8.765   9.725 -0.7780  1.4572  2.6335
  291MOL0     H39236   8.735   9.120   9.750 -3.0463  1.9582 -2.3628
  291MOL0     H39237   8.936   9.341   9.514 -0.0376 -1.7767 -1.2418
  291MOL0     H39238   8.766   9.327   9.521  0.0228  0.9453 -0.2386
  291MOL0     H39239   8.948   9.338   9.764  0.2974  0.4675 -0.8604
  291MOL0     H39240   8.776   9.380   9.764 -0.8347  1.3494 -1.2337
  291MOL0     H39241   8.811   9.566   9.620 -0.8655 -1.1016  1.1254
  291MOL0     H39242   8.994   9.524   9.607  0.9043 -1.9064  0.7396
  291MOL0     H39243   9.013   9.572   9.840  0.8401 -0.3114 -0.8079
  291MOL0     H39244   8.847   9.628   9.847 -0.2669  1.0770  0.6542
  291MOL0     H39245   8.853   9.799   9.956 -0.7448 -1.5742 -3.6076
  291MOL0     H39246   8.792  10.003  10.126  0.4966  1.3109  2.1760
  291MOL0     H39247   8.918   9.899  10.201 -0.6937 -1.9432 -1.9865
  291MOL0     H39248   8.926  10.084  10.188  0.8108  0.4867 -1.1706
  291MOL0     H39249   9.182  10.171  10.354 -0.6072  0.2828  0.2368
  291MOL0     H39250   9.268  10.320  10.523 -3.1395 -0.3553 -0.2331
  291MOL0     H39251   9.260  10.516  10.668 -0.4713  0.2183 -0.4793
  291MOL0     H39252   9.433  10.475  10.627 -0.3298 -0.8874  0.2319
  291MOL0     H39253   9.499  10.717  10.663  1.9611  1.3271  4.4470
  291MOL0     H39254   9.339  10.760  10.688  0.2453  0.1923 -0.7050
  291MOL0     H39255   9.381  10.558  10.896 -0.6033  1.8002  2.3494
  291MOL0     H39256   9.380  10.727  10.905 -2.6362  0.4543 -2.4304
  291MOL0     H39257   9.627  10.558  10.819 -1.9074  0.1045 -1.8028
  291MOL0     H39258   9.626  10.725  10.880 -1.4293  0.0613 -2.3766
  291MOL0     H39259   9.550  10.477  11.035 -0.4609 -0.1452  0.0695
  291MOL0     H39260   9.541  10.641  11.101  1.4373  0.8757  0.6410
  291MOL0     H39261   9.798  10.525  10.971 -0.0601 -1.6392  0.5237
  291MOL0     H39262   9.779  10.669  11.081 -2.8571  0.7412 -0.4746
  291MOL0     H39263   9.753  10.384  11.169  0.5371  0.5333 -2.0797
  291MOL0     H39264   9.695  10.510  11.265 -1.1124 -3.2198 -0.5329
  291MOL0     H39265   9.910  10.464  11.355 -1.8628 -3.6200 -1.3478
  291MOL0     H39266   9.946  10.610  11.258  0.4804  0.1061 -2.9493
  291MOL0     H39267   9.266  10.646  10.254  2.9316 -0.1771  1.4363
  291MOL0     H39268   9.124  10.504  10.099 -0.9630 -1.8518 -1.0333
  291MOL0     H39269   9.239  10.077   9.816  0.5256  0.5511  2.3325
  291MOL0     H39270   9.162   9.888   9.684  1.9706 -1.9823  2.4667
  291MOL0     H39271   8.544   8.070   9.977  0.9640 -1.5966 -2.2690
  291MOL0     H39272   8.455   7.829   9.968  3.4881 -1.7827 -2.3388
  291MOL0     H39273   8.246   7.424  10.332 -1.5357 -1.0728 -0.5711
  291MOL0     H39274   8.180   7.226  10.269  0.8790  0.0186 -0.7693
  291MOL0     H39275   8.169   6.993  10.230 -3.6027 -2.3797 -2.0746
  291MOL0     H39276   8.198   6.886  10.096  1.9406  0.2861 -2.6419
  291MOL0     H39277   8.360   6.870  10.303 -1.1239  1.0599  0.2933
  291MOL0     H39278   8.461   7.001  10.233  1.8179 -1.3709  3.0106
  291MOL0     H39279   8.453   6.890  10.011 -1.0283 -0.3037 -1.4780
  291MOL0     H39280   8.381   6.752  10.093  1.5980 -0.5856 -1.4627
  291MOL0     H39281   8.655   6.870  10.101  1.0065 -0.7655  0.6291
  291MOL0     H39282   8.603   6.704  10.066  0.8205 -2.0968  1.3472
  291MOL0     H39283   8.621   6.714  10.501  0.1358  3.1647 -0.0816
  291MOL0     H39284   8.460   7.193   9.953 -0.8561  0.5138 -0.5575
  291MOL0     H39285   8.559   7.406  10.032 -1.0265 -1.9111 -1.5927
  292MOL0     O39286   2.625   8.653   2.254 -1.1443 -0.2214 -0.2031
  292MOL0     C39287   2.598   8.755   2.197  0.1884 -0.6886 -0.3479
  292MOL0     O39288   2.681   8.871   2.197 -0.8432  0.8965  0.3016
  292MOL0     C39289   2.798   8.878   2.263 -0.2859  0.1316  0.2388
  292MOL0     C39290   2.898   8.786   2.249 -0.3713  0.0659 -0.5910
  292MOL0     C39291   3.016   8.780   2.326 -0.2468  0.8647  0.5253
  292MOL0     C39292   3.035   8.886   2.418  0.6533  0.1135  0.0958
  292MOL0     O39293   3.151   8.898   2.491 -0.0027 -0.2740  0.9768
  292MOL0     C39294   3.214   9.022   2.512 -0.0318 -0.0676 -0.1480
  292MOL0     C39295   3.324   9.036   2.407  0.5739  0.3885  0.7905
  292MOL0     C39296   3.403   9.166   2.426  0.3413  0.7213  0.6367
  292MOL0     C39297   3.314   9.288   2.392 -0.3855  0.7114 -1.0530
  292MOL0     C39298   3.391   9.410   2.326 -0.7840  0.9353 -0.3526
  292MOL0     C39299   3.461   9.496   2.426 -0.4862  0.4106  0.2189
  292MOL0     C39300   3.538   9.625   2.372  0.2761 -0.7629 -0.3148
  292MOL0     C39301   3.615   9.691   2.487 -0.5725  0.0492 -0.2446
  292MOL0     N39302   3.675   9.818   2.433  0.7820  0.3707 -0.4167
  292MOL0     C39303   3.625   9.948   2.435 -0.8066 -0.6280 -0.2972
  292MOL0     C39304   3.721  10.018   2.368 -0.7381 -0.2682  0.7965
  292MOL0     C39305   3.726  10.167   2.325 -0.3779  0.4229  1.0445
  292MOL0     C39306   3.647  10.264   2.411  0.4725 -0.8485 -0.5940
  292MOL0     C39307   3.680  10.265   2.553  0.3758  0.0797 -0.2297
  292MOL0     C39308   3.831  10.296   2.578  0.3730 -0.5577  0.4770
  292MOL0     O39309   3.843  10.307   2.720  0.1749  0.1890  0.5266
  292MOL0     C39310   3.968  10.348   2.750  0.1853 -0.6093 -1.2485
  292MOL0     C39311   4.050  10.255   2.803 -0.4361 -0.5810  0.1577
  292MOL0     C39312   4.184  10.280   2.838  0.3440  0.5671 -0.1442
  292MOL0     C39313   4.261  10.171   2.904  0.2614 -0.1967  0.1205
  292MOL0     C39314   4.243  10.410   2.800  0.0240  0.0077  0.6349
  292MOL0     C39315   4.387  10.448   2.828 -0.2551  0.1266  1.1734
  292MOL0     O39316   4.478  10.352   2.864 -0.5873  0.0798  0.1546
  292MOL0     C39317   4.606  10.390   2.886  0.6404 -0.2018  0.3128
  292MOL0     C39318   4.698  10.373   2.780 -0.1570  0.2830 -0.2883
  292MOL0     C39319   4.829  10.423   2.810  0.7312  0.2670 -0.3737
  292MOL0     C39320   4.869  10.474   2.928 -0.2524 -0.1541 -0.0987
  292MOL0     O39321   4.997  10.531   2.942  0.0827  0.5610 -0.1629
  292MOL0     C39322   5.110  10.476   2.888 -0.1911  0.4291 -0.0890
  292MOL0     C39323   5.231  10.567   2.925 -0.3430 -0.2194 -0.0561
  292MOL0     C39324   5.372  10.505   2.907 -0.6920 -0.3159 -0.9621
  292MOL0     C39325   5.418  10.519   2.759  0.3132 -1.1164  0.1851
  292MOL0     C39326   5.555  10.456   2.737  0.4093  0.2306  0.1269
  292MOL0     C39327   5.595  10.453   2.587  0.6639  0.9950 -0.1799
  292MOL0     C39328   5.745  10.435   2.577 -0.0361 -0.5132 -0.7559
  292MOL0     C39329   5.786  10.379   2.442 -0.6067  0.2544 -0.4291
  292MOL0    Cl39330   5.701  10.215   2.416  0.4667 -0.2253  0.3944
  292MOL0     C39331   4.777  10.489   3.027 -0.4637 -0.4713 -0.0537
  292MOL0     C39332   4.648  10.435   3.009 -0.2239  0.0873  0.1387
  292MOL0     O39333   4.416  10.566   2.803 -0.9293  0.2447  0.0626
  292MOL0     C39334   4.149  10.494   2.727 -0.7546 -0.9950  0.5502
  292MOL0     C39335   4.017  10.470   2.715  0.0853 -0.0826 -0.5186
  292MOL0     N39336   3.821   9.939   2.330 -0.1350  0.3908 -0.1672
  292MOL0     N39337   3.792   9.815   2.376 -1.0875  0.0181  0.0625
  292MOL0     C39338   2.934   8.980   2.435  0.0168 -0.0608  0.0611
  292MOL0     C39339   2.822   8.986   2.349 -0.4613  0.5259 -0.6198
  292MOL0     C39340   2.474   8.774   2.116 -0.5719 -0.7057 -0.4503
  292MOL0     C39341   2.413   8.661   2.065  1.1697  0.2750  0.1810
  292MOL0     C39342   2.287   8.671   1.999 -0.0454 -0.2600  0.2080
  292MOL0     C39343   2.238   8.797   1.968  0.4416  0.1979 -0.0006
  292MOL0     O39344   2.118   8.823   1.912 -0.7016  0.7404 -0.4356
  292MOL0     C39345   2.057   8.718   1.836  0.0889  1.6721  0.1101
  292MOL0     C39346   2.147   8.685   1.711 -1.4139  0.5985  0.0497
  292MOL0     C39347   2.068   8.695   1.577  0.7446  1.0608 -0.2053
  292MOL0     C39348   1.980   8.567   1.547  0.0248 -0.3802  0.4791
  292MOL0     C39349   1.859   8.567   1.629  0.0738 -0.7925 -0.7859
  292MOL0     C39350   1.774   8.577   1.705  0.0225  0.7462 -0.7810
  292MOL0     C39351   2.304   8.911   2.019 -0.0939  0.5796  0.2643
  292MOL0     C39352   2.417   8.902   2.097 -0.4398  0.5997  0.0053
  292MOL0     H39353   2.880   8.705   2.178  2.4203 -0.8379 -0.3949
  292MOL0     H39354   3.091   8.702   2.319 -1.9572 -0.6559 -2.8426
  292MOL0     H39355   3.147   9.108   2.503 -0.0469 -0.1686 -1.1002
  292MOL0     H39356   3.256   9.012   2.612 -2.7890 -2.6572  0.9102
  292MOL0     H39357   3.399   8.957   2.410 -1.2814 -1.4430  0.9484
  292MOL0     H39358   3.284   9.040   2.305 -0.9808  3.8261  1.3893
  292MOL0     H39359   3.434   9.174   2.530 -2.0418  2.7248  1.2795
  292MOL0     H39360   3.498   9.171   2.372  1.5517 -0.8528  2.4941
  292MOL0     H39361   3.228   9.268   2.327 -1.9668  3.0250  0.1959
  292MOL0     H39362   3.271   9.325   2.485  3.7189  3.9911 -0.1748
  292MOL0     H39363   3.456   9.362   2.253 -2.0486 -2.2971  0.4626
  292MOL0     H39364   3.320   9.472   2.271 -1.2144  1.4594  0.7521
  292MOL0     H39365   3.382   9.529   2.495 -0.8140  2.6895 -1.1580
  292MOL0     H39366   3.529   9.432   2.482  0.6473  0.4406 -1.0880
  292MOL0     H39367   3.605   9.592   2.292  1.4118 -2.0468  1.1068
  292MOL0     H39368   3.465   9.690   2.322 -2.0086 -2.5950  0.4191
  292MOL0     H39369   3.690   9.628   2.537 -1.1390  1.5278  2.6719
  292MOL0     H39370   3.540   9.718   2.562  1.9009  3.1986  1.3422
  292MOL0     H39371   3.531   9.992   2.467  0.0364  5.0280 -4.1666
  292MOL0     H39372   3.830  10.201   2.329 -0.7715  1.7571  0.4125
  292MOL0     H39373   3.701  10.180   2.219 -1.5669 -1.3626  1.0670
  292MOL0     H39374   3.544  10.228   2.397  0.8813 -1.7040 -1.5820
  292MOL0     H39375   3.651  10.363   2.365 -0.5198 -1.7906 -2.8594
  292MOL0     H39376   3.656  10.161   2.576 -0.7841  0.1732 -0.9135
  292MOL0     H39377   3.624  10.342   2.607  0.7257 -0.2419  0.6093
  292MOL0     H39378   3.850  10.396   2.538 -2.5491 -0.6067 -1.3640
  292MOL0     H39379   3.905  10.223   2.545  1.6452  2.2114 -3.5564
  292MOL0     H39380   4.009  10.157   2.829  2.4476 -1.8914  0.1207
  292MOL0     H39381   4.208  10.075   2.904  3.7877 -2.3183  1.4916
  292MOL0     H39382   4.348  10.139   2.846 -0.9064 -5.0461  0.6160
  292MOL0     H39383   4.295  10.215   2.998 -1.9436  2.9533 -0.3941
  292MOL0     H39384   4.673  10.327   2.685  1.5116  0.7622 -0.9961
  292MOL0     H39385   4.903  10.399   2.734  2.4866 -0.7138  1.5526
  292MOL0     H39386   5.125  10.376   2.930 -1.4035 -0.1326 -0.9240
  292MOL0     H39387   5.101  10.470   2.779 -1.7087 -4.4692  0.0489
  292MOL0     H39388   5.213  10.664   2.879 -2.0804  0.1580  1.3222
  292MOL0     H39389   5.224  10.587   3.032 -1.1175 -0.9553  0.0470
  292MOL0     H39390   5.361  10.402   2.942  2.1014 -0.5466 -0.5572
  292MOL0     H39391   5.443  10.550   2.976 -2.4411  1.5537 -0.2683
  292MOL0     H39392   5.349  10.471   2.689 -1.9948  3.0633 -0.7599
  292MOL0     H39393   5.413  10.622   2.722 -2.0977 -1.6906 -1.3331
  292MOL0     H39394   5.572  10.361   2.790  3.6586 -0.6674 -2.1844
  292MOL0     H39395   5.631  10.515   2.789 -0.5568  0.3036  1.5012
  292MOL0     H39396   5.546  10.370   2.535 -1.9156  1.3799  1.4607
  292MOL0     H39397   5.565  10.541   2.529 -0.1863  0.2582 -0.8959
  292MOL0     H39398   5.771  10.356   2.648 -3.5845 -1.3335 -0.1953
  292MOL0     H39399   5.787  10.533   2.604 -2.1553 -0.2313  1.9268
  292MOL0     H39400   5.894  10.362   2.451 -0.6847  0.1457  0.3430
  292MOL0     H39401   5.760  10.443   2.357 -1.0478 -0.2636 -0.6880
  292MOL0     H39402   4.801  10.548   3.114 -0.9483 -0.9280  0.3943
  292MOL0     H39403   4.575  10.425   3.089 -0.9982  1.0837 -0.4220
  292MOL0     H39404   4.198  10.586   2.696 -1.3527  0.6407  4.0106
  292MOL0     H39405   3.962  10.546   2.659  0.7154  1.6590  1.1196
  292MOL0     H39406   2.933   9.042   2.524 -0.0428  0.7062 -0.4604
  292MOL0     H39407   2.743   9.060   2.353 -2.7196 -1.7724  1.7950
  292MOL0     H39408   2.464   8.566   2.074 -1.0507 -1.1935 -1.7132
  292MOL0     H39409   2.239   8.578   1.972 -2.3462  0.8636  0.1389
  292MOL0     H39410   2.031   8.633   1.900 -0.0807  0.1923 -1.8201
  292MOL0     H39411   1.965   8.759   1.792 -0.7905  1.8438  2.0290
  292MOL0     H39412   2.189   8.586   1.729  3.2202  2.7171  2.8819
  292MOL0     H39413   2.232   8.755   1.712 -1.8053  1.1142 -0.9843
  292MOL0     H39414   2.134   8.699   1.489 -1.8760 -1.4707 -2.5113
  292MOL0     H39415   2.011   8.788   1.576 -1.9035 -0.4429 -2.4095
  292MOL0     H39416   2.033   8.471   1.549  0.3409 -0.1901  1.6625
  292MOL0     H39417   1.956   8.575   1.441 -0.6708 -0.2351  0.6477
  292MOL0     H39418   1.703   8.557   1.783  2.0978 -0.1030  0.9897
  292MOL0     H39419   2.257   9.007   2.001  0.2375  0.7199  0.1423
  292MOL0     H39420   2.479   8.985   2.130  1.5642 -0.3560 -1.1349
  293MOL0     O39421   2.706  10.216   1.289 -0.2743 -0.0265  0.0314
  293MOL0     C39422   2.798  10.170   1.361 -0.4146  0.0997  0.6851
  293MOL0     O39423   2.783  10.064   1.455  0.0356  0.4150  0.0839
  293MOL0     C39424   2.664  10.003   1.504 -0.9667 -1.1615  1.2824
  293MOL0     C39425   2.525  10.036   1.471  0.1146 -0.0506  0.3152
  293MOL0     C39426   2.415   9.982   1.549 -0.3228  0.6502  0.6705
  293MOL0     C39427   2.445   9.898   1.654 -0.0520  0.0139  0.1471
  293MOL0     O39428   2.343   9.857   1.739  0.4062 -0.5172  0.2395
  293MOL0     C39429   2.375   9.759   1.836 -0.3091 -0.4121  0.1183
  293MOL0     C39430   2.241   9.695   1.885 -0.0780 -0.5388  0.5892
  293MOL0     C39431   2.152   9.790   1.962  0.0999 -0.0190 -0.6349
  293MOL0     C39432   2.063   9.719   2.071  0.1519  0.6103 -0.2441
  293MOL0     C39433   1.984   9.834   2.136 -0.6304  0.3751  0.1984
  293MOL0     C39434   1.915   9.779   2.266  0.4168 -0.2512 -0.3932
  293MOL0     C39435   1.786   9.867   2.302  0.5006 -0.2930 -0.0850
  293MOL0     C39436   1.702   9.823   2.418  0.1630 -0.0719 -0.5516
  293MOL0     N39437   1.772   9.835   2.549 -0.0040  0.7490 -0.5990
  293MOL0     C39438   1.900   9.877   2.579  0.1079 -0.6544  0.5589
  293MOL0     C39439   1.949   9.820   2.684 -0.3876  0.1803 -0.1153
  293MOL0     C39440   2.087   9.839   2.735  0.9990  0.1243  0.3671
  293MOL0     C39441   2.129   9.983   2.790  0.5788  0.3720 -0.5696
  293MOL0     C39442   2.023  10.072   2.843  1.0340  0.8614  0.5131
  293MOL0     C39443   1.954  10.015   2.969 -0.4976 -0.6372 -0.5294
  293MOL0     O39444   2.038  10.019   3.082  0.2242  0.1757  0.0182
  293MOL0     C39445   1.977   9.999   3.208 -1.0277 -0.0555  0.0192
  293MOL0     C39446   2.061  10.012   3.320  0.2604  0.4515  0.2275
  293MOL0     C39447   2.001  10.004   3.449 -0.0818  0.2171 -0.8722
  293MOL0     C39448   2.102  10.018   3.560 -0.7700  0.0902 -1.2770
  293MOL0     C39449   1.859   9.981   3.471 -0.0116  0.0398 -0.3458
  293MOL0     C39450   1.769   9.991   3.596  0.2375 -0.2246  0.3458
  293MOL0     O39451   1.636   9.973   3.580  0.2115  0.3052  0.2067
  293MOL0     C39452   1.558  10.004   3.685  0.0845  0.2824  0.6360
  293MOL0     C39453   1.485  10.121   3.685 -0.0862 -0.2896 -0.6866
  293MOL0     C39454   1.418  10.168   3.798  0.5724 -0.6881  0.4031
  293MOL0     C39455   1.405  10.084   3.904  0.4436  0.6783  0.2588
  293MOL0     O39456   1.320  10.126   4.006 -0.4127 -0.3152 -0.0616
  293MOL0     C39457   1.270  10.031   4.102 -0.3884 -0.1595 -0.2883
  293MOL0     C39458   1.148  10.086   4.172 -0.3196  0.2566 -1.0513
  293MOL0     C39459   1.031  10.102   4.081  0.1133 -0.3861  0.9234
  293MOL0     C39460   0.923  10.198   4.148  0.5452  0.4470  0.3026
  293MOL0     C39461   0.814  10.256   4.057 -0.8308  0.0684  0.5370
  293MOL0     C39462   0.748  10.379   4.122 -0.3361  0.1477 -0.2979
  293MOL0     C39463   0.645  10.439   4.036  0.7917 -0.2073 -0.5784
  293MOL0     C39464   0.561  10.549   4.107  0.0235  0.3553 -0.3676
  293MOL0    Cl39465   0.643  10.708   4.114 -0.0269  0.4280 -0.0164
  293MOL0     C39466   1.459   9.955   3.901 -0.6964  0.3325 -0.3060
  293MOL0     C39467   1.539   9.922   3.791  0.4945  0.1812 -0.2904
  293MOL0     O39468   1.827   9.999   3.709 -0.2239 -0.6876  0.6092
  293MOL0     C39469   1.791   9.950   3.352  0.3695 -0.4337 -0.0607
  293MOL0     C39470   1.843   9.962   3.228 -0.4440  0.7012 -0.4460
  293MOL0     N39471   1.849   9.734   2.735 -0.0239 -0.5201 -0.5855
  293MOL0     N39472   1.741   9.753   2.658 -0.0384 -0.5826 -0.4300
  293MOL0     C39473   2.580   9.863   1.675  0.1799  0.5109 -0.5425
  293MOL0     C39474   2.685   9.910   1.600 -0.1912  0.0006 -0.0192
  293MOL0     C39475   2.929  10.211   1.333  0.0602 -0.5921 -0.0251
  293MOL0     C39476   2.949  10.304   1.223  0.0768  0.8199 -0.6706
  293MOL0     C39477   3.079  10.346   1.190 -0.1799 -0.4159 -0.3782
  293MOL0     C39478   3.192  10.297   1.266 -0.5679  0.9906 -0.3022
  293MOL0     O39479   3.317  10.346   1.236  0.2491 -0.3902 -0.6332
  293MOL0     C39480   3.435  10.302   1.298 -0.3708  0.4364  0.3208
  293MOL0     C39481   3.534  10.290   1.181  0.0504  0.0336 -0.5974
  293MOL0     C39482   3.587  10.425   1.134  0.9408  0.1544  0.3864
  293MOL0     C39483   3.593  10.409   0.983  0.1174 -0.7015 -0.2728
  293MOL0     C39484   3.628  10.537   0.916 -0.1318  0.8982 -0.4022
  293MOL0     C39485   3.686  10.627   0.856 -0.4477  0.0726 -0.1824
  293MOL0     C39486   3.168  10.200   1.366 -0.2338 -0.7922  0.6296
  293MOL0     C39487   3.040  10.162   1.402 -0.3828  0.7486 -0.0036
  293MOL0     H39488   2.504  10.116   1.401  0.2146 -2.6144 -2.8702
  293MOL0     H39489   2.320  10.033   1.541 -0.2093  1.0506  1.7284
  293MOL0     H39490   2.446   9.684   1.799  0.7685  1.2955 -1.4176
  293MOL0     H39491   2.431   9.800   1.921 -0.4640 -2.3426  1.2346
  293MOL0     H39492   2.186   9.661   1.797 -0.0885 -4.1966  1.8215
  293MOL0     H39493   2.270   9.609   1.946 -1.0158 -1.7776 -0.6616
  293MOL0     H39494   2.212   9.869   2.008  2.4784 -0.6847 -2.3717
  293MOL0     H39495   2.076   9.831   1.895  1.4593  3.1809 -0.3809
  293MOL0     H39496   1.997   9.638   2.041  1.9833 -1.1599  0.2872
  293MOL0     H39497   2.131   9.680   2.147 -1.9856  1.8198  2.4597
  293MOL0     H39498   2.047   9.915   2.175 -0.4435  1.0580 -1.4342
  293MOL0     H39499   1.923   9.877   2.056 -0.6821  0.1165  0.0977
  293MOL0     H39500   1.887   9.674   2.255 -1.8677  0.3852 -1.2678
  293MOL0     H39501   1.973   9.779   2.358 -2.3020  3.3405  1.6069
  293MOL0     H39502   1.817   9.970   2.323 -1.7494  0.0174  2.2023
  293MOL0     H39503   1.718   9.877   2.217 -0.3988 -0.6244  0.5858
  293MOL0     H39504   1.658   9.723   2.407  1.1448 -0.4208 -1.4777
  293MOL0     H39505   1.620   9.895   2.426 -1.6281 -1.9820 -0.9355
  293MOL0     H39506   1.957   9.945   2.516 -0.3484 -0.9882 -0.2282
  293MOL0     H39507   2.100   9.769   2.818 -1.5504 -0.8202  0.0539
  293MOL0     H39508   2.169   9.811   2.667  1.2644 -0.0125  0.7400
  293MOL0     H39509   2.166  10.031   2.699  2.2200  2.2749  1.0113
  293MOL0     H39510   2.205   9.969   2.867 -1.2324 -0.9896  1.0911
  293MOL0     H39511   1.948  10.093   2.766  0.7050 -1.6798  0.0339
  293MOL0     H39512   2.074  10.164   2.871 -0.9994  1.5643  2.1993
  293MOL0     H39513   1.922   9.913   2.950  0.7353 -0.7933 -1.9962
  293MOL0     H39514   1.863  10.075   2.982 -2.1903 -2.6927 -2.2284
  293MOL0     H39515   2.164  10.043   3.306  0.7459  0.0633  2.5197
  293MOL0     H39516   2.080  10.099   3.631  1.4227  0.1443 -0.5835
  293MOL0     H39517   2.102   9.919   3.606 -1.7853  1.6382  2.4567
  293MOL0     H39518   2.210  10.027   3.544  0.1102 -0.7678  2.8683
  293MOL0     H39519   1.497  10.197   3.608  1.9154 -0.0911 -0.2360
  293MOL0     H39520   1.368  10.264   3.807 -0.9776 -1.3518 -0.8508
  293MOL0     H39521   1.243   9.941   4.046 -0.6203  0.0406 -0.5011
  293MOL0     H39522   1.348  10.004   4.174 -1.4760 -1.2378  0.5329
  293MOL0     H39523   1.118  10.014   4.249  1.7854 -0.4534 -0.8469
  293MOL0     H39524   1.170  10.178   4.228  1.2239  0.1413 -1.4412
  293MOL0     H39525   0.986  10.005   4.060 -0.2638  0.3149 -1.9026
  293MOL0     H39526   1.065  10.143   3.986  2.5147 -1.7657  1.1204
  293MOL0     H39527   0.886  10.139   4.232  1.9399  2.8071  2.7557
  293MOL0     H39528   0.982  10.279   4.194 -1.1419  1.4204  0.8434
  293MOL0     H39529   0.746  10.174   4.033  1.7985 -1.4436 -2.5518
  293MOL0     H39530   0.854  10.297   3.964  0.1689 -1.0135  0.4685
  293MOL0     H39531   0.711  10.343   4.218 -0.2177 -0.9785 -0.6641
  293MOL0     H39532   0.825  10.455   4.138  3.6630 -3.1030 -2.3047
  293MOL0     H39533   0.574  10.360   4.010 -1.8357  2.7592 -3.2743
  293MOL0     H39534   0.684  10.485   3.945  2.4173  1.8766  1.0507
  293MOL0     H39535   0.556  10.523   4.213 -1.0867  2.6810  0.2282
  293MOL0     H39536   0.456  10.563   4.078 -1.3165 -0.8158  3.3346
  293MOL0     H39537   1.448   9.898   3.993 -3.1821 -0.1381 -0.8203
  293MOL0     H39538   1.596   9.830   3.791  1.9080  0.9953  1.4897
  293MOL0     H39539   1.684   9.933   3.347  0.3391 -0.2393 -0.0930
  293MOL0     H39540   1.768   9.944   3.151 -1.8733 -1.5101  1.3323
  293MOL0     H39541   2.622   9.796   1.749 -0.6126  0.0267 -0.5179
  293MOL0     H39542   2.791   9.895   1.621  0.5405  3.8353 -0.1580
  293MOL0     H39543   2.875  10.350   1.158 -0.8876 -2.9734 -2.5607
  293MOL0     H39544   3.101  10.424   1.117  2.6533  0.2944  1.0839
  293MOL0     H39545   3.465  10.375   1.375 -4.2762  4.2208 -1.3407
  293MOL0     H39546   3.428  10.202   1.342  2.2008 -0.4356 -1.0271
  293MOL0     H39547   3.491  10.236   1.096 -0.4622  0.3124 -0.5208
  293MOL0     H39548   3.623  10.239   1.218  1.0262  0.5533 -2.1630
  293MOL0     H39549   3.688  10.433   1.177  1.6022 -0.1860 -1.0340
  293MOL0     H39550   3.534  10.519   1.150  0.6486  0.1821 -0.6794
  293MOL0     H39551   3.500  10.378   0.935 -0.4456  2.5816 -1.5322
  293MOL0     H39552   3.675  10.341   0.959  1.5518  0.3240  1.4550
  293MOL0     H39553   3.739  10.701   0.799 -0.7165 -0.0717 -0.6220
  293MOL0     H39554   3.254  10.166   1.422 -0.4295 -0.1962  1.3142
  293MOL0     H39555   3.027  10.082   1.474  0.4071 -0.9298 -1.6175
  294MOL0     O39556   0.928   6.051   9.483 -0.8447  0.4886  0.7399
  294MOL0     C39557   0.817   5.994   9.506 -0.0712  0.6256 -0.3381
  294MOL0     O39558   0.696   6.035   9.466 -0.2830  0.3748 -0.1491
  294MOL0     C39559   0.679   6.143   9.391 -0.4131  0.0644 -0.2662
  294MOL0     C39560   0.597   6.252   9.434  0.9849  0.8032  0.0248
  294MOL0     C39561   0.569   6.351   9.348  0.0521 -0.7909  0.5716
  294MOL0     C39562   0.632   6.358   9.225  0.0723 -0.5121  0.4469
  294MOL0     O39563   0.620   6.459   9.134  0.6196 -0.5576 -0.1173
  294MOL0     C39564   0.569   6.582   9.183 -1.0976 -1.4254  0.0581
  294MOL0     C39565   0.593   6.693   9.084  0.5580 -0.0452  0.0671
  294MOL0     C39566   0.495   6.679   8.959  0.1686  0.8888 -0.4775
  294MOL0     C39567   0.522   6.790   8.853 -0.2882 -0.7562 -0.2517
  294MOL0     C39568   0.503   6.725   8.712  0.2946  0.4182  0.0102
  294MOL0     C39569   0.580   6.805   8.609  0.0668  0.0702 -0.5205
  294MOL0     C39570   0.497   6.916   8.547  1.3180  0.1538  0.0530
  294MOL0     C39571   0.576   7.026   8.464 -0.0936 -0.6785 -0.5668
  294MOL0     N39572   0.637   6.975   8.347 -0.5791  0.5826  0.4029
  294MOL0     C39573   0.575   6.941   8.229 -0.5709 -0.4851  0.6141
  294MOL0     C39574   0.639   6.838   8.163 -0.4310 -0.4693 -0.6242
  294MOL0     C39575   0.568   6.761   8.053  0.8581 -0.2223 -1.0821
  294MOL0     C39576   0.438   6.705   8.113  0.2725 -0.6023  0.5164
  294MOL0     C39577   0.358   6.619   8.012  0.1032 -0.4138 -0.6017
  294MOL0     C39578   0.243   6.706   7.947  0.6996 -0.2264 -1.1525
  294MOL0     O39579   0.293   6.796   7.848  0.7217 -0.8973 -0.1774
  294MOL0     C39580   0.311   6.759   7.716 -0.0072 -0.7304 -0.7467
  294MOL0     C39581   0.322   6.866   7.627 -0.3174  0.1116 -0.2954
  294MOL0     C39582   0.319   6.835   7.491 -0.6383 -0.3403  0.3958
  294MOL0     C39583   0.329   6.948   7.405 -2.1817 -0.5990  0.2084
  294MOL0     C39584   0.302   6.701   7.442  0.4059 -0.0342  0.0157
  294MOL0     C39585   0.274   6.664   7.297 -0.7867 -0.5006  0.0486
  294MOL0     O39586   0.279   6.531   7.271 -0.5614 -0.6436  0.0400
  294MOL0     C39587   0.281   6.494   7.133 -0.5509 -0.1397 -0.5893
  294MOL0     C39588   0.402   6.472   7.065  0.6992  0.5866 -0.5365
  294MOL0     C39589   0.395   6.417   6.937  0.0916  0.2365 -0.0201
  294MOL0     C39590   0.278   6.369   6.886  0.5948  0.8749  0.0999
  294MOL0     O39591   0.261   6.303   6.764  0.0001 -0.2583  0.3863
  294MOL0     C39592   0.329   6.364   6.656  0.4923  0.4037 -0.5012
  294MOL0     C39593   0.340   6.266   6.537  0.1066  0.5531 -0.0300
  294MOL0     C39594   0.208   6.237   6.464 -0.0626 -0.2726 -0.5026
  294MOL0     C39595   0.163   6.368   6.386 -0.5337  0.2933  0.6124
  294MOL0     C39596   0.036   6.337   6.302  0.4495 -0.8099 -0.1877
  294MOL0     C39597  -0.005   6.470   6.221 -0.5794 -0.1883 -0.6800
  294MOL0     C39598  -0.107   6.453   6.119 -0.3038 -0.0068 -1.1337
  294MOL0     C39599  -0.141   6.589   6.061  0.9574 -0.7801  0.0582
  294MOL0    Cl39600  -0.274   6.571   5.950  0.1832  0.2285 -0.3105
  294MOL0     C39601   0.161   6.363   6.966 -0.1405 -0.2194 -1.2602
  294MOL0     C39602   0.166   6.442   7.081 -0.4247 -0.2943 -0.5910
  294MOL0     O39603   0.235   6.745   7.213  0.0858 -0.3212  0.3587
  294MOL0     C39604   0.306   6.597   7.540  0.6815 -0.4818  1.2785
  294MOL0     C39605   0.300   6.630   7.675 -0.0538 -0.1473  0.6201
  294MOL0     N39606   0.754   6.812   8.244  0.2489 -0.1027 -0.0063
  294MOL0     N39607   0.749   6.889   8.350  0.1386 -0.2221 -0.3661
  294MOL0     C39608   0.712   6.257   9.185  0.8027 -0.1248 -0.8321
  294MOL0     C39609   0.737   6.149   9.264 -0.0285  0.8299 -0.0730
  294MOL0     C39610   0.829   5.879   9.606  0.6937  0.7723  0.3965
  294MOL0     C39611   0.950   5.838   9.675 -0.2077 -0.3887  1.1701
  294MOL0     C39612   0.963   5.725   9.756  0.3053 -0.5113  0.6192
  294MOL0     C39613   0.853   5.641   9.773 -0.6745  0.7552  0.0297
  294MOL0     O39614   0.857   5.531   9.861 -0.0165  0.1215 -0.0262
  294MOL0     C39615   0.975   5.453   9.846 -0.3704  0.3640  0.3484
  294MOL0     C39616   0.954   5.314   9.883 -0.9055 -0.9178  0.0580
  294MOL0     C39617   0.892   5.298  10.028 -0.2956  0.1473 -0.0232
  294MOL0     C39618   0.975   5.223  10.135 -0.8018 -0.0994 -0.8667
  294MOL0     C39619   1.037   5.104  10.085 -0.0333 -0.0377  0.6682
  294MOL0     C39620   1.097   5.011  10.032 -0.7000 -0.0526  0.5156
  294MOL0     C39621   0.723   5.683   9.712 -0.3030  0.0008 -0.3790
  294MOL0     C39622   0.720   5.799   9.635  0.1553 -0.3347 -0.9070
  294MOL0     H39623   0.559   6.252   9.536 -0.9993 -0.0589 -0.6648
  294MOL0     H39624   0.499   6.426   9.384  1.5345  0.5751  0.7365
  294MOL0     H39625   0.461   6.572   9.192 -1.0109 -1.3625  1.3415
  294MOL0     H39626   0.613   6.607   9.280  1.7688 -1.3659 -1.1481
  294MOL0     H39627   0.571   6.788   9.134 -0.2294 -1.0643  1.7815
  294MOL0     H39628   0.693   6.688   9.042  0.1671  2.1351 -1.2409
  294MOL0     H39629   0.495   6.576   8.922  0.2158  0.8045 -0.2462
  294MOL0     H39630   0.394   6.688   9.001  0.7656 -1.1858  1.6691
  294MOL0     H39631   0.448   6.870   8.847 -0.8693 -1.3909 -2.0539
  294MOL0     H39632   0.620   6.836   8.872 -1.3706  0.2344  3.6976
  294MOL0     H39633   0.547   6.625   8.707  0.9607  0.7600 -1.1851
  294MOL0     H39634   0.399   6.718   8.679 -0.1201 -1.6434  1.5254
  294MOL0     H39635   0.668   6.837   8.666  0.6292 -0.0293 -1.3200
  294MOL0     H39636   0.618   6.738   8.531  2.1178  2.4117 -1.6931
  294MOL0     H39637   0.424   6.871   8.479  1.6803  2.7374 -2.2479
  294MOL0     H39638   0.454   6.969   8.632  1.6478 -4.3706  3.3681
  294MOL0     H39639   0.648   7.070   8.533 -0.5211 -1.9741  0.7420
  294MOL0     H39640   0.502   7.103   8.437 -1.1402 -2.1396 -2.0847
  294MOL0     H39641   0.486   6.993   8.197 -0.9678 -0.1183  2.2085
  294MOL0     H39642   0.547   6.834   7.974 -1.5223 -1.3509 -1.5677
  294MOL0     H39643   0.637   6.682   8.022 -2.4338 -2.9102 -2.1386
  294MOL0     H39644   0.387   6.792   8.154  2.3877  1.5931 -1.1845
  294MOL0     H39645   0.469   6.644   8.199  0.1838  1.2121  1.9079
  294MOL0     H39646   0.340   6.524   8.063  0.0082 -0.1490 -0.1438
  294MOL0     H39647   0.411   6.598   7.918 -0.4208 -0.6335 -0.8537
  294MOL0     H39648   0.179   6.753   8.023  1.1059 -2.4517  0.6617
  294MOL0     H39649   0.176   6.633   7.901 -1.4350  1.4349 -0.8760
  294MOL0     H39650   0.343   6.968   7.657 -1.5204  1.1161 -2.6017
  294MOL0     H39651   0.231   6.989   7.378 -1.4541 -0.2032 -2.0550
  294MOL0     H39652   0.388   7.030   7.448 -2.2729 -0.5132  0.1698
  294MOL0     H39653   0.372   6.921   7.308 -1.0663 -0.2051  0.5693
  294MOL0     H39654   0.487   6.505   7.125  0.4113 -1.8093  1.3396
  294MOL0     H39655   0.480   6.422   6.870 -1.6931 -1.7992 -2.6605
  294MOL0     H39656   0.267   6.449   6.624 -1.6663 -1.0390 -0.3440
  294MOL0     H39657   0.432   6.392   6.679 -0.5469  2.9762  1.5622
  294MOL0     H39658   0.404   6.308   6.460  0.3224 -0.5866 -0.4985
  294MOL0     H39659   0.387   6.173   6.572  1.4288  0.8287 -1.0274
  294MOL0     H39660   0.142   6.199   6.543  4.1449 -1.4496  2.8398
  294MOL0     H39661   0.210   6.151   6.397 -0.2981 -0.6892  0.0149
  294MOL0     H39662   0.132   6.449   6.452 -1.4826 -0.5023  1.1710
  294MOL0     H39663   0.248   6.406   6.329 -0.5152  2.0983  1.7485
  294MOL0     H39664  -0.051   6.295   6.353  0.0298 -2.6006 -2.2051
  294MOL0     H39665   0.069   6.255   6.238 -1.0926 -0.8333 -1.0094
  294MOL0     H39666  -0.041   6.541   6.295  0.8751  1.2228 -1.2692
  294MOL0     H39667   0.085   6.502   6.168 -0.4332 -0.7942 -0.8068
  294MOL0     H39668  -0.201   6.415   6.160 -0.2321  0.7063 -0.2706
  294MOL0     H39669  -0.061   6.388   6.044  1.3903  1.7609 -1.6869
  294MOL0     H39670  -0.062   6.647   6.012  0.2966  1.7600  1.8232
  294MOL0     H39671  -0.182   6.655   6.138  1.0681 -1.1732  0.4663
  294MOL0     H39672   0.074   6.320   6.919 -2.2755 -1.0526  2.9577
  294MOL0     H39673   0.081   6.448   7.148  2.9221 -1.1580  4.2661
  294MOL0     H39674   0.283   6.495   7.512 -0.9150  0.0467  0.5204
  294MOL0     H39675   0.293   6.550   7.748 -0.1465  1.4517  2.4534
  294MOL0     H39676   0.761   6.258   9.088  0.6967 -0.9961 -0.9021
  294MOL0     H39677   0.798   6.067   9.227 -2.3297 -2.0253  2.0111
  294MOL0     H39678   1.040   5.898   9.667  0.4672 -1.0578  3.1209
  294MOL0     H39679   1.065   5.718   9.793  1.7068 -0.7981 -2.9464
  294MOL0     H39680   1.018   5.454   9.745 -0.5654  1.3174  0.2612
  294MOL0     H39681   1.058   5.495   9.905 -1.2981 -0.4835  2.3417
  294MOL0     H39682   1.045   5.255   9.872  1.3179  2.1159  0.6328
  294MOL0     H39683   0.876   5.275   9.818 -0.3961 -3.2873  0.7718
  294MOL0     H39684   0.799   5.240  10.023  0.6556 -1.5071  0.5022
  294MOL0     H39685   0.862   5.390  10.078  0.3706 -0.7703  2.1513
  294MOL0     H39686   0.914   5.203  10.224  0.4093  0.0772  0.0326
  294MOL0     H39687   1.058   5.278  10.179 -1.3335 -0.7563  1.0529
  294MOL0     H39688   1.153   4.931   9.987  1.5136  1.2038  0.8612
  294MOL0     H39689   0.631   5.627   9.721  0.5797 -1.7531 -1.5497
  294MOL0     H39690   0.620   5.826   9.604 -0.6666  1.9709  3.1048
  295MOL0     O39691   2.480   3.010   5.166  0.2472  0.0454 -0.7343
  295MOL0     C39692   2.600   3.014   5.130  0.0943  0.3655  0.4005
  295MOL0     O39693   2.693   2.905   5.145 -0.1585  0.0546 -0.1856
  295MOL0     C39694   2.659   2.788   5.214  0.0040 -0.8111  0.3840
  295MOL0     C39695   2.702   2.758   5.341 -0.0300  0.6265 -0.2463
  295MOL0     C39696   2.658   2.632   5.399 -0.6781  0.8838  0.9818
  295MOL0     C39697   2.588   2.535   5.328 -0.0299  0.0559  0.0032
  295MOL0     O39698   2.539   2.430   5.391  0.1514  0.1313 -0.4537
  295MOL0     C39699   2.451   2.457   5.509 -1.0157 -0.3520 -0.6771
  295MOL0     C39700   2.456   2.328   5.593 -0.9164 -0.0581 -0.4198
  295MOL0     C39701   2.379   2.347   5.731 -0.5481 -0.3344  0.1245
  295MOL0     C39702   2.438   2.257   5.835 -1.1799  0.5721  0.2891
  295MOL0     C39703   2.339   2.278   5.951 -0.0859  0.6955  0.0468
  295MOL0     C39704   2.367   2.158   6.050  1.0915  0.7207 -0.3732
  295MOL0     C39705   2.285   2.039   6.001 -0.1418  0.5880 -0.6532
  295MOL0     C39706   2.135   2.053   6.054  0.2589  0.1412  0.5505
  295MOL0     N39707   2.043   1.934   6.032 -0.9069 -0.5059 -1.4082
  295MOL0     C39708   2.031   1.823   6.118  0.2427 -0.8109  0.3032
  295MOL0     C39709   1.911   1.787   6.077 -0.5653  0.3324 -0.6142
  295MOL0     C39710   1.837   1.687   6.155  0.0521 -0.2420 -0.0475
  295MOL0     C39711   1.927   1.568   6.183  0.2178  0.8277  1.5299
  295MOL0     C39712   1.975   1.488   6.054 -0.1040  0.3860  0.0863
  295MOL0     C39713   2.010   1.345   6.087 -0.3293 -0.0190 -0.0766
  295MOL0     O39714   1.915   1.258   6.158  0.2230 -0.1289  0.0472
  295MOL0     C39715   1.807   1.198   6.095  0.4855  0.7675  0.7778
  295MOL0     C39716   1.724   1.122   6.175  0.3375  0.1977 -0.1868
  295MOL0     C39717   1.613   1.063   6.117  0.0682  1.1373 -1.5317
  295MOL0     C39718   1.536   0.988   6.215  0.0833  0.4534 -0.5912
  295MOL0     C39719   1.568   1.079   5.986 -0.2317  0.5174 -0.1542
  295MOL0     C39720   1.440   1.012   5.928 -0.5396 -0.9792 -0.7423
  295MOL0     O39721   1.428   1.040   5.796  0.3427 -0.0829 -0.6309
  295MOL0     C39722   1.300   1.010   5.756 -0.9531  0.3371 -0.9384
  295MOL0     C39723   1.245   0.881   5.753  0.6553 -0.2522 -0.5477
  295MOL0     C39724   1.100   0.869   5.736  0.3544  0.4078  0.0702
  295MOL0     C39725   1.024   0.988   5.736  0.0003 -0.0700  1.0609
  295MOL0     O39726   0.885   0.995   5.720 -0.3996 -0.0420 -0.0557
  295MOL0     C39727   0.814   0.887   5.783  0.2538  0.2620 -0.7963
  295MOL0     C39728   0.661   0.912   5.772 -0.0441 -0.2422 -0.0424
  295MOL0     C39729   0.590   0.860   5.892 -0.6310  0.0831  0.3861
  295MOL0     C39730   0.437   0.873   5.880  0.6293  0.5345  0.1174
  295MOL0     C39731   0.374   0.801   6.001 -0.2664  0.3697  0.3066
  295MOL0     C39732   0.230   0.835   6.024 -0.0292 -0.9874  0.1582
  295MOL0     C39733   0.142   0.769   6.130 -0.1863 -0.0169 -0.0471
  295MOL0     C39734   0.007   0.842   6.126  0.7331  1.1851 -0.6787
  295MOL0    Cl39735  -0.083   0.815   5.981 -0.3408  0.0380 -0.3666
  295MOL0     C39736   1.091   1.118   5.730 -0.4962  0.1009  1.1032
  295MOL0     C39737   1.229   1.122   5.740  0.0685  0.5757  0.5472
  295MOL0     O39738   1.360   0.962   6.005  0.3947  0.2691  0.1121
  295MOL0     C39739   1.651   1.163   5.904 -1.4391 -0.5264 -0.0816
  295MOL0     C39740   1.775   1.217   5.957 -0.2724  0.7105 -0.5008
  295MOL0     N39741   1.866   1.854   5.968 -0.3081  0.4184 -0.4545
  295MOL0     N39742   1.946   1.941   5.941  0.4172 -0.0413  0.3209
  295MOL0     C39743   2.553   2.561   5.199 -0.4262  0.1796  0.0782
  295MOL0     C39744   2.584   2.691   5.141 -0.9535  0.6314 -1.4121
  295MOL0     C39745   2.643   3.129   5.046 -0.3039 -0.2105  0.2131
  295MOL0     C39746   2.748   3.105   4.961 -0.1625 -0.5417 -0.0881
  295MOL0     C39747   2.789   3.211   4.885 -0.4423 -0.5613  0.0595
  295MOL0     C39748   2.729   3.342   4.894  0.2104 -0.3885  0.0968
  295MOL0     O39749   2.763   3.441   4.806  0.0349 -0.4446 -0.1175
  295MOL0     C39750   2.865   3.533   4.844 -0.0022 -0.8967 -0.4046
  295MOL0     C39751   2.906   3.634   4.737  0.0081 -0.5205  0.7201
  295MOL0     C39752   2.795   3.679   4.640  0.1250  0.2373 -0.2364
  295MOL0     C39753   2.853   3.752   4.519 -0.1276 -0.9200  0.2864
  295MOL0     C39754   2.913   3.885   4.546  0.5955  0.2342 -0.0205
  295MOL0     C39755   2.966   3.992   4.577 -0.4513 -0.4079  0.1095
  295MOL0     C39756   2.621   3.361   4.976 -0.5026  0.8285 -0.5273
  295MOL0     C39757   2.588   3.251   5.063  0.0644  0.1812  0.4870
  295MOL0     H39758   2.764   2.829   5.395 -0.9860  0.6838  0.8141
  295MOL0     H39759   2.690   2.612   5.501  3.8467 -2.4362 -0.7834
  295MOL0     H39760   2.483   2.538   5.575 -0.8288 -0.1017 -1.0702
  295MOL0     H39761   2.346   2.468   5.482 -1.0907  0.6426 -0.0170
  295MOL0     H39762   2.407   2.245   5.542  0.5263 -0.1417 -1.7299
  295MOL0     H39763   2.563   2.307   5.601 -1.4277 -2.4118  1.4886
  295MOL0     H39764   2.383   2.452   5.761  0.5046 -0.2163 -0.3777
  295MOL0     H39765   2.277   2.320   5.700  0.2624 -1.5863 -1.6621
  295MOL0     H39766   2.442   2.156   5.793 -2.7362  0.9990 -0.9646
  295MOL0     H39767   2.539   2.290   5.863 -0.9625 -0.8551  1.3511
  295MOL0     H39768   2.351   2.377   5.995 -0.1676  0.9282 -0.4467
  295MOL0     H39769   2.236   2.279   5.915  0.3213  0.4550 -1.2010
  295MOL0     H39770   2.472   2.129   6.062  0.4252 -1.4522  0.8058
  295MOL0     H39771   2.344   2.196   6.151  1.6191 -0.1100  0.0688
  295MOL0     H39772   2.292   2.027   5.893 -2.6945  2.5676 -1.1304
  295MOL0     H39773   2.320   1.949   6.053 -1.1213 -0.2835 -1.4443
  295MOL0     H39774   2.094   2.147   6.016  3.5420  1.2545 -0.5346
  295MOL0     H39775   2.129   2.076   6.161  1.0917  0.8679  0.4476
  295MOL0     H39776   2.095   1.798   6.202 -1.9087 -2.4664  1.5748
  295MOL0     H39777   1.820   1.727   6.255  1.9387  0.4468  0.0509
  295MOL0     H39778   1.754   1.641   6.101 -0.1388 -0.1189  0.1441
  295MOL0     H39779   1.876   1.497   6.249  0.5064 -1.0583 -0.1726
  295MOL0     H39780   2.015   1.595   6.243  1.2325 -0.9789  0.9273
  295MOL0     H39781   2.058   1.545   6.011  1.6776 -2.8072 -1.0211
  295MOL0     H39782   1.891   1.482   5.984 -1.9458 -3.4240  2.3104
  295MOL0     H39783   2.098   1.352   6.151 -0.0684  2.5682 -0.6005
  295MOL0     H39784   2.039   1.303   5.990 -2.5955  0.9884 -1.2631
  295MOL0     H39785   1.751   1.119   6.280 -0.2541  2.2897  0.0789
  295MOL0     H39786   1.440   1.036   6.238  1.4606  1.7929  3.1366
  295MOL0     H39787   1.529   0.887   6.175  0.0647  1.0410 -2.1324
  295MOL0     H39788   1.575   0.970   6.315 -2.5673 -0.4413  0.3921
  295MOL0     H39789   1.310   0.795   5.768  1.2585  0.1160 -0.9786
  295MOL0     H39790   1.046   0.775   5.742 -1.3179  1.4381  3.0988
  295MOL0     H39791   0.827   0.796   5.724 -4.3769 -1.8105  0.8952
  295MOL0     H39792   0.855   0.859   5.880  2.0855 -1.0030 -1.8868
  295MOL0     H39793   0.640   1.018   5.755 -0.1155  0.2463  2.6585
  295MOL0     H39794   0.629   0.861   5.681  0.7403 -1.4135  0.3099
  295MOL0     H39795   0.625   0.925   5.973  0.3650 -0.1111  0.1247
  295MOL0     H39796   0.640   0.766   5.920  1.6019  1.1734  0.3272
  295MOL0     H39797   0.417   0.980   5.888  0.6060  0.4547  1.2819
  295MOL0     H39798   0.400   0.846   5.781 -0.3079  0.2439  0.5406
  295MOL0     H39799   0.435   0.831   6.087 -0.6651  2.5848 -0.1179
  295MOL0     H39800   0.372   0.692   5.993 -2.9356  0.4144 -0.6945
  295MOL0     H39801   0.234   0.943   6.042 -0.4453 -1.1193  1.1080
  295MOL0     H39802   0.176   0.831   5.929 -2.0050 -2.1292  1.2501
  295MOL0     H39803   0.196   0.783   6.223  0.2198  1.3209 -0.4733
  295MOL0     H39804   0.125   0.664   6.101  1.0110  0.8120 -4.6010
  295MOL0     H39805   0.012   0.951   6.134 -1.5321  1.2532  0.7096
  295MOL0     H39806  -0.057   0.810   6.209 -0.1065 -0.5031 -1.9059
  295MOL0     H39807   1.039   1.213   5.724 -0.6615 -0.0185  0.5786
  295MOL0     H39808   1.286   1.214   5.740  2.4499 -0.3198  7.2483
  295MOL0     H39809   1.639   1.183   5.798  0.7508 -0.9656 -0.4492
  295MOL0     H39810   1.840   1.273   5.890  0.1590 -0.1097 -0.7866
  295MOL0     H39811   2.490   2.495   5.141 -4.0540  3.0911  0.3266
  295MOL0     H39812   2.561   2.711   5.037 -2.0284  1.3076 -1.0594
  295MOL0     H39813   2.821   3.025   4.950  0.7024 -0.3915  3.3466
  295MOL0     H39814   2.873   3.197   4.818  0.6738 -1.2593  1.5485
  295MOL0     H39815   2.828   3.582   4.935  0.2898 -0.2308 -0.6392
  295MOL0     H39816   2.958   3.483   4.871  1.5268  0.7892 -2.2187
  295MOL0     H39817   2.974   3.575   4.675  0.3416 -0.4379  1.0056
  295MOL0     H39818   2.970   3.715   4.774  1.7607 -0.8242 -1.4157
  295MOL0     H39819   2.718   3.735   4.695 -0.5352 -2.2490  1.5249
  295MOL0     H39820   2.748   3.590   4.600  1.6388 -0.6460 -0.1295
  295MOL0     H39821   2.783   3.760   4.436  2.8066  1.9061 -2.1882
  295MOL0     H39822   2.934   3.690   4.479  1.4497  0.1855  1.6331
  295MOL0     H39823   3.010   4.087   4.596 -0.4381 -0.2135 -0.8587
  295MOL0     H39824   2.562   3.451   4.986 -0.5353  1.3053 -3.8733
  295MOL0     H39825   2.519   3.266   5.145  0.2106  0.2935  0.5906
  296MOL0     O39826  10.990   9.108   9.747  0.0724  0.5049  0.1387
  296MOL0     C39827  10.993   9.186   9.659  0.5203  0.5898 -0.1287
  296MOL0     O39828  11.103   9.210   9.588 -0.6518 -0.3351  0.4743
  296MOL0     C39829  11.218   9.132   9.592  1.1160 -0.0075  0.4372
  296MOL0     C39830  11.289   9.105   9.472  0.0069 -0.3057  0.0365
  296MOL0     C39831  11.411   9.033   9.472 -0.6761  0.3715  0.0078
  296MOL0     C39832  11.471   8.998   9.598 -0.2646 -0.9036 -0.0903
  296MOL0     O39833  11.586   8.920   9.589  0.0261 -0.5258 -0.3616
  296MOL0     C39834  11.628   8.873   9.718 -0.0017 -0.9094  0.6320
  296MOL0     C39835  11.743   8.782   9.683  0.0468 -0.4891  0.0914
  296MOL0     C39836  11.853   8.764   9.794 -0.2235 -0.0272 -1.3799
  296MOL0     C39837  11.962   8.673   9.737 -1.1386  0.9118  0.2126
  296MOL0     C39838  12.091   8.671   9.818  0.0704  0.3993 -0.5667
  296MOL0     C39839  12.186   8.565   9.750 -0.5486 -0.9705  0.4959
  296MOL0     C39840  12.279   8.500   9.851 -0.1640 -0.2271  0.1788
  296MOL0     C39841  12.412   8.492   9.778 -0.5359 -0.0171 -0.1718
  296MOL0     N39842  12.509   8.592   9.821 -1.0224 -0.3589 -0.5133
  296MOL0     C39843  12.476   8.729   9.832 -0.7037 -0.2941  0.1341
  296MOL0     C39844  12.579   8.787   9.890  0.3742  0.5573  0.1102
  296MOL0     C39845  12.592   8.933   9.907 -0.6566 -0.7940  0.0491
  296MOL0     C39846  12.714   9.001   9.837  0.0831 -0.4616  0.7928
  296MOL0     C39847  12.845   9.000   9.929  1.1120  1.7007  0.1436
  296MOL0     C39848  12.964   9.075   9.864 -0.7035 -0.4291 -0.1908
  296MOL0     O39849  12.988   9.040   9.724 -0.3916  0.7443 -1.0007
  296MOL0     C39850  13.050   8.915   9.720 -0.2126 -0.5224  0.6610
  296MOL0     C39851  12.987   8.800   9.680  0.5030  0.7918  0.1973
  296MOL0     C39852  13.040   8.670   9.663  0.8526  0.2890 -0.2407
  296MOL0     C39853  12.949   8.552   9.638 -0.1438  0.1298  0.0281
  296MOL0     C39854  13.177   8.658   9.689  0.1785  0.5165 -0.1793
  296MOL0     C39855  13.252   8.533   9.683  0.6284  0.9609  0.1883
  296MOL0     O39856  13.365   8.527   9.760 -0.3318 -0.6923  0.1076
  296MOL0     C39857  13.451   8.419   9.755  0.0267  0.3792 -0.3411
  296MOL0     C39858  13.524   8.385   9.636  0.6704  0.0770  0.0863
  296MOL0     C39859  13.624   8.287   9.635 -0.8678  0.1551 -0.1717
  296MOL0     C39860  13.643   8.207   9.748 -0.8037  0.0719  0.1521
  296MOL0     O39861  13.739   8.115   9.746  0.0181  0.1270  0.0631
  296MOL0     C39862  13.716   7.994   9.678  0.2713 -0.4012  1.0594
  296MOL0     C39863  13.810   7.980   9.561  0.8993  0.1907 -0.4315
  296MOL0     C39864  13.956   7.978   9.594  0.1660 -0.4017  0.8136
  296MOL0     C39865  14.040   7.887   9.501  0.1424 -0.1132 -0.1213
  296MOL0     C39866  14.192   7.871   9.540 -0.4896 -0.8327 -1.0093
  296MOL0     C39867  14.211   7.765   9.640  1.0828 -0.4621  0.6650
  296MOL0     C39868  14.349   7.727   9.679 -0.4065  0.2427 -0.0056
  296MOL0     C39869  14.351   7.605   9.771  0.5276  0.2738  0.0318
  296MOL0    Cl39870  14.524   7.565   9.801  0.0265 -0.2079  0.0889
  296MOL0     C39871  13.566   8.224   9.861  0.0686  0.1697 -0.8105
  296MOL0     C39872  13.478   8.335   9.864 -0.1235  0.7332  0.0828
  296MOL0     O39873  13.230   8.469   9.587 -0.4360  0.6759 -0.8900
  296MOL0     C39874  13.248   8.777   9.724  0.0646 -0.2751  0.2820
  296MOL0     C39875  13.190   8.905   9.731  0.0092  0.0590  0.1746
  296MOL0     N39876  12.678   8.688   9.917  0.1784 -0.0522 -0.6976
  296MOL0     N39877  12.639   8.572   9.874  1.1635  0.3529 -0.5393
  296MOL0     C39878  11.413   9.039   9.717  0.2057 -0.0866 -0.9234
  296MOL0     C39879  11.286   9.102   9.711 -0.3163  0.2673 -0.1439
  296MOL0     C39880  10.861   9.245   9.622  0.1598  1.1752  0.1581
  296MOL0     C39881  10.856   9.343   9.531 -0.0228 -0.9348 -0.1700
  296MOL0     C39882  10.736   9.407   9.500 -0.2806 -1.3596  0.7496
  296MOL0     C39883  10.610   9.363   9.550  0.0766  0.1513  0.0577
  296MOL0     O39884  10.494   9.426   9.501  0.3383 -0.2383 -0.1019
  296MOL0     C39885  10.371   9.400   9.562  0.4721  0.6421 -0.8049
  296MOL0     C39886  10.307   9.265   9.536  0.1973  0.3747 -2.1361
  296MOL0     C39887  10.310   9.237   9.383  0.9980  0.4887 -0.5276
  296MOL0     C39888  10.215   9.130   9.332 -0.4649 -0.5966  0.8789
  296MOL0     C39889  10.223   9.111   9.182  1.2475  0.1437  0.4702
  296MOL0     C39890  10.233   9.084   9.067 -0.1750  0.3442 -0.2900
  296MOL0     C39891  10.618   9.268   9.652 -0.0889 -0.2202  0.1540
  296MOL0     C39892  10.734   9.204   9.681 -0.2218  0.3094 -0.7264
  296MOL0     H39893  11.236   9.139   9.383 -1.1636  0.4713  0.9907
  296MOL0     H39894  11.458   8.997   9.381 -0.2123 -1.7386  1.0153
  296MOL0     H39895  11.654   8.954   9.786  0.9641 -2.1807  1.8324
  296MOL0     H39896  11.559   8.808   9.773  0.7814  1.5222  4.9431
  296MOL0     H39897  11.701   8.684   9.659 -0.6312  0.2283 -1.7757
  296MOL0     H39898  11.798   8.820   9.597 -0.5682  1.1354  0.3871
  296MOL0     H39899  11.904   8.857   9.819  0.1235 -0.6569  0.4250
  296MOL0     H39900  11.801   8.722   9.881  0.0233 -1.5288 -1.9308
  296MOL0     H39901  11.915   8.574   9.730 -3.0691  1.8772 -1.7365
  296MOL0     H39902  11.987   8.705   9.635  0.9960 -0.2539  0.3161
  296MOL0     H39903  12.125   8.775   9.816 -0.5275  0.6145 -0.0013
  296MOL0     H39904  12.068   8.636   9.919 -1.0012  0.1994 -0.8656
  296MOL0     H39905  12.132   8.494   9.688  0.5265 -0.1387 -1.4760
  296MOL0     H39906  12.245   8.626   9.680  1.9508 -1.6846  1.8358
  296MOL0     H39907  12.282   8.560   9.943 -2.3727 -1.5219  1.1856
  296MOL0     H39908  12.234   8.405   9.883 -1.1375  0.7489  1.8609
  296MOL0     H39909  12.407   8.475   9.670  1.4295  0.5196 -0.3854
  296MOL0     H39910  12.461   8.399   9.809  0.1729  0.2025 -0.6077
  296MOL0     H39911  12.397   8.779   9.777  0.4310  0.8215 -0.5057
  296MOL0     H39912  12.501   8.982   9.873 -0.2042  0.7065  0.9237
  296MOL0     H39913  12.579   8.954  10.013  2.3973  0.0321  0.3688
  296MOL0     H39914  12.669   9.098   9.813 -1.5870 -0.4987  3.3418
  296MOL0     H39915  12.748   8.955   9.744 -0.5338 -1.0761  0.8600
  296MOL0     H39916  12.877   8.897   9.945 -1.3266  0.7650 -0.5831
  296MOL0     H39917  12.819   9.037  10.029 -2.7924 -3.1520  1.3195
  296MOL0     H39918  13.056   9.071   9.922 -0.3891  2.1005 -0.4347
  296MOL0     H39919  12.938   9.181   9.863 -0.0950 -0.2736 -1.7144
  296MOL0     H39920  12.881   8.822   9.672  0.2117 -0.3109  0.8635
  296MOL0     H39921  12.979   8.503   9.545  1.2190 -0.0671  0.5408
  296MOL0     H39922  12.966   8.483   9.722  0.9586 -0.6239 -0.7818
  296MOL0     H39923  12.840   8.560   9.642 -0.2127 -1.0487  2.2357
  296MOL0     H39924  13.515   8.449   9.549 -2.8885  0.8609  0.8465
  296MOL0     H39925  13.682   8.266   9.546  1.3656  1.1026  0.9726
  296MOL0     H39926  13.733   7.899   9.730 -2.3528 -2.5270 -1.6075
  296MOL0     H39927  13.611   7.984   9.648  0.9361  1.9941 -2.6721
  296MOL0     H39928  13.792   7.875   9.534  4.2288 -0.9511  1.2025
  296MOL0     H39929  13.792   8.061   9.490 -0.2493  4.0082  3.7828
  296MOL0     H39930  13.964   7.926   9.690 -1.6446 -0.3396  1.0170
  296MOL0     H39931  13.995   8.080   9.598  0.4793 -0.5257  0.9982
  296MOL0     H39932  13.990   7.790   9.490 -0.2926 -0.0416  1.0479
  296MOL0     H39933  14.043   7.944   9.408  2.1713  1.8338  1.0355
  296MOL0     H39934  14.233   7.963   9.581 -1.7763 -1.0935  0.9622
  296MOL0     H39935  14.255   7.840   9.455  2.9506 -0.1235  1.0944
  296MOL0     H39936  14.158   7.789   9.733  0.8875  0.0337  0.4316
  296MOL0     H39937  14.167   7.674   9.598  0.2172  0.3368 -0.2340
  296MOL0     H39938  14.400   7.816   9.717  1.5530  0.0703 -2.0190
  296MOL0     H39939  14.413   7.701   9.595 -0.5175  2.8334 -0.9704
  296MOL0     H39940  14.292   7.532   9.716 -3.4655  2.5674  0.8893
  296MOL0     H39941  14.300   7.642   9.860 -3.6096 -0.1708 -1.9441
  296MOL0     H39942  13.586   8.165   9.950 -0.1179  0.1008 -0.8157
  296MOL0     H39943  13.427   8.349   9.959 -1.4887  2.0330 -0.7985
  296MOL0     H39944  13.351   8.765   9.756 -0.9074 -1.5759  3.3177
  296MOL0     H39945  13.243   8.995   9.762  0.0487  0.5679 -1.2577
  296MOL0     H39946  11.455   9.020   9.815  0.2993 -4.3487 -1.6028
  296MOL0     H39947  11.244   9.145   9.801  1.4000  0.4104  0.6251
  296MOL0     H39948  10.949   9.373   9.483  0.7770 -0.3748  1.6289
  296MOL0     H39949  10.727   9.479   9.419 -3.5157  0.0722  2.2102
  296MOL0     H39950  10.362   9.418   9.670  0.0907 -1.8706 -0.3561
  296MOL0     H39951  10.312   9.473   9.506 -0.5817  0.6607  0.2963
  296MOL0     H39952  10.205   9.269   9.573  0.7828 -1.3746 -0.1263
  296MOL0     H39953  10.362   9.185   9.588  2.4895  4.1810  1.9501
  296MOL0     H39954  10.410   9.203   9.354  1.2391 -1.4878  2.2126
  296MOL0     H39955  10.290   9.326   9.323 -2.3218  0.3421  0.1546
  296MOL0     H39956  10.116   9.172   9.352 -1.4563 -1.5236 -1.6927
  296MOL0     H39957  10.228   9.030   9.376 -0.5227  0.1685  2.7258
  296MOL0     H39958  10.243   9.082   8.961 -0.0068 -2.9842 -0.3265
  296MOL0     H39959  10.535   9.230   9.711 -0.3509 -2.6019 -1.5644
  296MOL0     H39960  10.731   9.131   9.762 -2.4434  0.9260 -0.1853
  297MOL0     O39961   7.305   3.603  10.702 -0.1148 -0.1669  0.1979
  297MOL0     C39962   7.339   3.700  10.639 -0.7817 -0.0549 -0.5308
  297MOL0     O39963   7.262   3.768  10.552  0.4189  0.6376  0.2453
  297MOL0     C39964   7.124   3.765  10.556 -1.0040  0.5226 -0.6109
  297MOL0     C39965   7.045   3.716  10.658  0.0875  0.2078 -0.9694
  297MOL0     C39966   6.910   3.717  10.668  0.6769 -0.2899  0.4736
  297MOL0     C39967   6.839   3.794  10.570 -0.3500  0.0062  0.6278
  297MOL0     O39968   6.701   3.800  10.590  1.3605 -0.1746 -0.6289
  297MOL0     C39969   6.616   3.822  10.470 -0.5065  0.1260 -0.0704
  297MOL0     C39970   6.479   3.837  10.538  0.2170 -0.2013  0.6314
  297MOL0     C39971   6.366   3.838  10.441 -0.1506  0.2411 -0.2309
  297MOL0     C39972   6.322   3.702  10.408  0.2174  1.1044 -0.1132
  297MOL0     C39973   6.202   3.706  10.314 -0.5175 -0.2714 -0.1384
  297MOL0     C39974   6.175   3.569  10.260 -0.0340 -0.3572 -0.1438
  297MOL0     C39975   6.080   3.562  10.143 -0.6213  0.2011  0.6947
  297MOL0     C39976   6.074   3.411  10.088 -0.5453  0.0216  0.6668
  297MOL0     N39977   5.989   3.406   9.966  0.0077  0.3461 -0.1121
  297MOL0     C39978   5.854   3.391   9.943 -0.0883  0.7660 -0.5319
  297MOL0     C39979   5.838   3.394   9.809 -0.6259  0.1833 -0.4864
  297MOL0     C39980   5.708   3.373   9.732 -0.3242  0.0680 -0.8413
  297MOL0     C39981   5.653   3.234   9.767 -1.6304  0.0384 -0.7747
  297MOL0     C39982   5.737   3.123   9.704  0.3644 -0.6853 -0.3922
  297MOL0     C39983   5.718   2.981   9.761  0.5122  0.0619  0.2480
  297MOL0     O39984   5.818   2.885   9.725 -0.8086  0.1163 -0.4835
  297MOL0     C39985   5.813   2.827   9.599 -0.4965  0.3205  0.6284
  297MOL0     C39986   5.691   2.787   9.539  0.2826  0.4842  0.3214
  297MOL0     C39987   5.689   2.724   9.419 -0.4736  0.6863 -0.0594
  297MOL0     C39988   5.555   2.663   9.385  0.8676 -0.0226 -0.2873
  297MOL0     C39989   5.811   2.707   9.339  0.3779 -0.2801 -0.6361
  297MOL0     C39990   5.808   2.649   9.202 -0.2605 -0.9458  0.1600
  297MOL0     O39991   5.922   2.631   9.145 -0.0145  0.4958  0.4385
  297MOL0     C39992   5.952   2.603   9.010 -0.5625  0.5209 -1.1106
  297MOL0     C39993   6.088   2.581   8.986 -0.1647  0.6920  0.7329
  297MOL0     C39994   6.130   2.539   8.858  0.4903 -0.4510 -0.0475
  297MOL0     C39995   6.045   2.533   8.746  0.1021  0.5392 -0.6434
  297MOL0     O39996   6.096   2.497   8.625 -0.4123  0.3304  0.6778
  297MOL0     C39997   6.077   2.361   8.583  0.3872  0.2568  0.5100
  297MOL0     C39998   6.068   2.356   8.422  0.1064 -0.1670  0.7329
  297MOL0     C39999   6.204   2.392   8.355  0.3455  0.3713 -0.6943
  297MOL0     C40000   6.181   2.403   8.206 -0.0991 -0.5506 -0.0490
  297MOL0     C40001   6.313   2.423   8.126 -0.8972  0.7209  1.0139
  297MOL0     C40002   6.406   2.302   8.142 -0.0175  0.2112  0.5708
  297MOL0     C40003   6.509   2.301   8.029  0.4432  0.5470 -0.2055
  297MOL0     C40004   6.615   2.190   8.057 -0.3182  0.1076  0.1438
  297MOL0    Cl40005   6.555   2.015   8.040  0.5880  0.2083  0.0728
  297MOL0     C40006   5.910   2.562   8.770  1.2764  0.1069 -0.1300
  297MOL0     C40007   5.865   2.601   8.898  0.2573 -0.3909  0.3075
  297MOL0     O40008   5.703   2.640   9.137 -0.1506  0.3728  0.1300
  297MOL0     C40009   5.930   2.744   9.407 -0.1927 -0.5172  0.4571
  297MOL0     C40010   5.936   2.806   9.538  0.2730 -0.1577 -0.4436
  297MOL0     N40011   5.955   3.433   9.746  0.0360  0.1224 -0.7695
  297MOL0     N40012   6.043   3.432   9.843  0.0083 -0.0643  0.9415
  297MOL0     C40013   6.910   3.843  10.454 -1.4497  0.3023 -0.5262
  297MOL0     C40014   7.056   3.825  10.452  0.7381 -0.5117  1.7171
  297MOL0     C40015   7.482   3.739  10.647  0.2978  0.0754  0.4209
  297MOL0     C40016   7.523   3.852  10.576  0.5055 -0.4457 -0.1063
  297MOL0     C40017   7.657   3.895  10.583 -0.3416 -0.3792  0.4382
  297MOL0     C40018   7.750   3.832  10.668  0.1110 -0.7688  0.5993
  297MOL0     O40019   7.878   3.885  10.681 -0.3538 -0.0308 -0.3702
  297MOL0     C40020   7.949   3.913  10.565 -0.2528  0.5199  0.0955
  297MOL0     C40021   8.086   3.854  10.563 -0.1190  0.8287 -0.3396
  297MOL0     C40022   8.171   3.873  10.692  0.5866 -0.3172  0.5301
  297MOL0     C40023   8.305   3.810  10.678 -0.3169  0.6711 -1.1252
  297MOL0     C40024   8.382   3.854  10.798 -0.7399  0.9079  0.9134
  297MOL0     C40025   8.445   3.905  10.893  0.6714  0.3487 -0.3207
  297MOL0     C40026   7.710   3.728  10.739  0.6024  0.0535 -0.2718
  297MOL0     C40027   7.573   3.684  10.739  0.8329  0.6436 -0.0433
  297MOL0     H40028   7.085   3.658  10.740  0.0650  3.1013  1.2325
  297MOL0     H40029   6.852   3.653  10.734  0.3852 -0.8624 -0.3249
  297MOL0     H40030   6.629   3.909  10.406 -3.3680  0.1281 -0.7815
  297MOL0     H40031   6.626   3.729  10.413  0.0476 -0.5067  1.0242
  297MOL0     H40032   6.472   3.775  10.627  6.9012  1.4150  2.8368
  297MOL0     H40033   6.480   3.943  10.567 -1.0680  0.4880 -1.5864
  297MOL0     H40034   6.289   3.900  10.488 -1.0731  1.4693 -3.1871
  297MOL0     H40035   6.401   3.884  10.349  0.2554 -2.0049 -1.2747
  297MOL0     H40036   6.405   3.658  10.351  0.2787  0.2752  0.6083
  297MOL0     H40037   6.306   3.644  10.499  0.7033 -0.9900 -1.3090
  297MOL0     H40038   6.120   3.746  10.374 -0.8723 -0.2268 -0.6512
  297MOL0     H40039   6.222   3.772  10.230  1.5400 -1.3425 -0.5763
  297MOL0     H40040   6.266   3.530  10.215  0.4202  1.6771 -1.1239
  297MOL0     H40041   6.145   3.496  10.336  1.3387 -1.2534 -0.4370
  297MOL0     H40042   5.985   3.591  10.189 -0.8712 -0.1640  0.4199
  297MOL0     H40043   6.110   3.638  10.069 -0.4300  2.2482  2.7790
  297MOL0     H40044   6.036   3.349  10.170 -1.9347  1.8596  1.4935
  297MOL0     H40045   6.174   3.372  10.068 -0.7464 -0.6108  0.8760
  297MOL0     H40046   5.780   3.374  10.020  1.0554 -0.9205  0.2774
  297MOL0     H40047   5.642   3.452   9.769 -0.2697  1.6447 -3.7832
  297MOL0     H40048   5.717   3.394   9.625 -0.5140  1.4301 -0.6183
  297MOL0     H40049   5.553   3.231   9.722 -0.4275  0.4518 -3.7548
  297MOL0     H40050   5.644   3.220   9.875  4.2107 -1.5525 -0.1614
  297MOL0     H40051   5.839   3.160   9.715 -0.5909  2.5042 -1.1370
  297MOL0     H40052   5.727   3.118   9.595 -0.8835 -0.7841 -0.2847
  297MOL0     H40053   5.613   2.953   9.748 -0.2533  1.2910  2.9672
  297MOL0     H40054   5.712   2.989   9.870 -0.3164 -1.4925  0.3434
  297MOL0     H40055   5.596   2.804   9.589 -0.8119  0.6999 -1.7180
  297MOL0     H40056   5.564   2.554   9.372 -1.4502 -0.3211  0.2603
  297MOL0     H40057   5.482   2.676   9.465  0.2590 -0.5647 -0.7454
  297MOL0     H40058   5.521   2.710   9.293 -1.3151  0.6700  0.8134
  297MOL0     H40059   6.149   2.572   9.075  1.8901  1.0048 -0.5781
  297MOL0     H40060   6.238   2.533   8.846  0.2701 -0.9093 -2.2126
  297MOL0     H40061   6.166   2.305   8.613  0.4640  0.8467  1.4240
  297MOL0     H40062   5.988   2.322   8.633  1.8998 -1.0511  2.3163
  297MOL0     H40063   6.053   2.250   8.401  2.5116 -0.7765  1.7655
  297MOL0     H40064   5.986   2.426   8.404 -1.0447 -1.6846 -0.1348
  297MOL0     H40065   6.278   2.315   8.380 -0.2692  1.2687  5.1403
  297MOL0     H40066   6.248   2.483   8.396  2.3779 -1.4611  1.5052
  297MOL0     H40067   6.129   2.314   8.168 -3.3187  0.5308  1.4354
  297MOL0     H40068   6.116   2.488   8.186  1.7542  0.1515 -4.0000
  297MOL0     H40069   6.368   2.515   8.148  2.0946 -0.2175 -1.7060
  297MOL0     H40070   6.279   2.420   8.022 -0.7784  1.4193  0.9465
  297MOL0     H40071   6.453   2.312   8.240  0.1476 -2.1983  0.8157
  297MOL0     H40072   6.349   2.209   8.132 -0.4948  0.5789 -0.1779
  297MOL0     H40073   6.568   2.393   8.031 -0.8141  1.4116 -0.9570
  297MOL0     H40074   6.464   2.291   7.929  0.4100  2.2102 -0.3791
  297MOL0     H40075   6.659   2.187   8.157  0.3779  0.5396 -0.1503
  297MOL0     H40076   6.708   2.209   8.004  0.4732  1.1317  1.8154
  297MOL0     H40077   5.835   2.568   8.691  1.2863  2.3921 -0.0358
  297MOL0     H40078   5.757   2.616   8.901 -0.1710 -3.1644  0.9463
  297MOL0     H40079   6.023   2.758   9.354  0.4167 -1.4940  1.2392
  297MOL0     H40080   6.032   2.830   9.582  0.3426 -1.1249 -0.0291
  297MOL0     H40081   6.867   3.892  10.367 -1.4332 -0.7593 -1.1584
  297MOL0     H40082   7.107   3.857  10.362 -1.5695 -0.6986  0.2403
  297MOL0     H40083   7.459   3.912  10.512 -0.9488 -1.4360  0.3486
  297MOL0     H40084   7.700   3.971  10.519  0.2944 -1.2704 -0.2220
  297MOL0     H40085   7.903   3.863  10.479  0.8739 -0.4225  0.0103
  297MOL0     H40086   7.952   4.021  10.552 -0.1164  0.8537  2.4537
  297MOL0     H40087   8.144   3.883  10.475  0.7570  2.1826  0.6330
  297MOL0     H40088   8.068   3.748  10.542 -2.2943  1.5399 -2.5448
  297MOL0     H40089   8.131   3.827  10.783  2.0604 -3.2669 -0.1775
  297MOL0     H40090   8.195   3.978  10.707  0.3926 -0.7253  4.9552
  297MOL0     H40091   8.361   3.847  10.591  0.2621 -1.0043 -1.4924
  297MOL0     H40092   8.284   3.704  10.667 -2.7881  1.2508 -2.9992
  297MOL0     H40093   8.498   3.953  10.972  2.0914 -1.1219 -0.3291
  297MOL0     H40094   7.784   3.677  10.799  0.4799  2.4005  2.0833
  297MOL0     H40095   7.532   3.606  10.803  0.3820  1.1814  0.3238
  298MOL0     O40096   7.052   8.857   9.805 -0.0068 -0.1262 -0.4376
  298MOL0     C40097   6.983   8.955   9.822  1.1206 -0.2747 -0.9209
  298MOL0     O40098   6.887   8.956   9.923 -0.1758  0.7286 -0.7524
  298MOL0     C40099   6.875   8.861  10.025  0.6849 -0.8844 -0.1655
  298MOL0     C40100   6.983   8.771  10.075  0.7147 -0.3831 -0.0533
  298MOL0     C40101   6.950   8.690  10.182 -0.1370  0.4791 -1.2659
  298MOL0     C40102   6.826   8.701  10.243 -0.0669 -0.7510  0.2392
  298MOL0     O40103   6.791   8.605  10.337  1.1670  0.6630  0.4463
  298MOL0     C40104   6.775   8.664  10.466 -0.6511 -0.3532  0.2162
  298MOL0     C40105   6.685   8.578  10.556  0.5269 -0.2368 -0.6036
  298MOL0     C40106   6.687   8.615  10.709 -0.4431  0.0918  0.5142
  298MOL0     C40107   6.634   8.506  10.795  0.6526  0.7679  0.8992
  298MOL0     C40108   6.483   8.512  10.799  0.5268  0.2345  0.4217
  298MOL0     C40109   6.430   8.409  10.910 -0.9747  0.0730  0.2544
  298MOL0     C40110   6.289   8.374  10.913 -0.5104  0.4462  0.0302
  298MOL0     C40111   6.219   8.499  10.964 -0.4344 -0.0850  0.7724
  298MOL0     N40112   6.075   8.493  10.962 -0.1080  0.2622 -0.2254
  298MOL0     C40113   5.987   8.530  11.067 -0.0105 -0.1104  0.0639
  298MOL0     C40114   5.861   8.530  11.019 -0.3107 -0.1187 -0.1283
  298MOL0     C40115   5.746   8.582  11.092 -0.3628  0.2328  0.8617
  298MOL0     C40116   5.609   8.538  11.028  0.8017 -0.1697 -1.3124
  298MOL0     C40117   5.570   8.603  10.894 -0.1357  0.6862  0.9261
  298MOL0     C40118   5.607   8.753  10.888  0.3576  0.7330 -0.1792
  298MOL0     O40119   5.538   8.835  10.979  0.5715 -0.5914 -0.6682
  298MOL0     C40120   5.450   8.923  10.923 -0.6328  0.2936  0.5984
  298MOL0     C40121   5.314   8.891  10.908 -0.3402 -0.7016  1.1169
  298MOL0     C40122   5.226   8.993  10.862  0.3422  0.7606 -0.1049
  298MOL0     C40123   5.079   8.962  10.823 -0.1765  1.0426  0.2741
  298MOL0     C40124   5.265   9.129  10.839 -0.1236  0.0993 -0.9036
  298MOL0     C40125   5.180   9.250  10.841  0.3944  0.1900  0.2790
  298MOL0     O40126   5.229   9.362  10.882  0.7914 -0.3912  0.4455
  298MOL0     C40127   5.157   9.479  10.892 -0.0987  0.2128 -0.3434
  298MOL0     C40128   5.231   9.587  10.859  0.4415 -0.1146 -0.1748
  298MOL0     C40129   5.175   9.714  10.845 -0.8768  0.6186 -0.2507
  298MOL0     C40130   5.036   9.728  10.879 -0.7986 -0.5435  0.7071
  298MOL0     O40131   4.969   9.850  10.872 -0.1274 -0.2370 -1.3546
  298MOL0     C40132   5.043   9.967  10.839 -0.5448  0.0526  0.3465
  298MOL0     C40133   4.958  10.087  10.868 -0.9775  0.0176 -0.1853
  298MOL0     C40134   5.019  10.215  10.812 -0.0832 -0.3926  0.2124
  298MOL0     C40135   5.157  10.261  10.873  0.4738 -0.1729  0.4198
  298MOL0     C40136   5.192  10.396  10.830 -0.0183 -0.0193  0.7711
  298MOL0     C40137   5.324  10.443  10.901 -0.2624  0.2424  0.3090
  298MOL0     C40138   5.359  10.598  10.881  1.0341 -0.5958 -0.4058
  298MOL0     C40139   5.507  10.624  10.873  0.1502  0.0851  0.0802
  298MOL0    Cl40140   5.548  10.538  10.719  0.1345  0.1830  0.2818
  298MOL0     C40141   4.967   9.617  10.917  0.2348  0.2029 -0.0296
  298MOL0     C40142   5.012   9.493  10.926 -0.2545  0.3590  0.1606
  298MOL0     O40143   5.063   9.239  10.801 -0.2170 -0.0706 -0.4573
  298MOL0     C40144   5.409   9.143  10.848  0.3605 -0.3510  0.1324
  298MOL0     C40145   5.493   9.041  10.883  0.8141  0.3855  0.4742
  298MOL0     N40146   5.871   8.485  10.885  1.1984  0.0480 -0.7857
  298MOL0     N40147   5.997   8.471  10.853 -0.1337  0.1165 -0.8056
  298MOL0     C40148   6.731   8.792  10.202  0.3766  0.1474 -0.3214
  298MOL0     C40149   6.747   8.859  10.082  0.0791  0.1661 -0.3372
  298MOL0     C40150   6.980   9.068   9.734  0.4392 -0.3381  0.9025
  298MOL0     C40151   7.034   9.059   9.607 -0.5531 -0.4214  0.2896
  298MOL0     C40152   7.049   9.180   9.530 -0.4792 -0.2395 -0.3075
  298MOL0     C40153   6.983   9.293   9.562  0.8491 -0.2858  0.3217
  298MOL0     O40154   6.997   9.392   9.481 -0.0530  0.0675 -0.4261
  298MOL0     C40155   6.914   9.505   9.512  0.0744  0.1551  0.6485
  298MOL0     C40156   6.921   9.594   9.390 -0.7678 -0.4788 -1.0022
  298MOL0     C40157   6.871   9.537   9.256  0.2818 -0.1141 -0.8989
  298MOL0     C40158   6.732   9.467   9.243  0.8804 -0.5294 -1.0930
  298MOL0     C40159   6.720   9.426   9.109  0.2891 -0.2037 -0.0276
  298MOL0     C40160   6.706   9.386   8.995 -0.0585 -0.1544 -0.8355
  298MOL0     C40161   6.932   9.300   9.692 -0.5001  0.1536  0.8662
  298MOL0     C40162   6.935   9.192   9.778  0.4616 -0.2267  0.3183
  298MOL0     H40163   7.081   8.761  10.029  1.5681 -0.0356  1.6328
  298MOL0     H40164   7.027   8.626  10.223 -1.2309 -0.6019 -0.8339
  298MOL0     H40165   6.875   8.686  10.504  0.1828  0.0321 -2.0850
  298MOL0     H40166   6.724   8.761  10.469  1.5773  0.9091 -0.2573
  298MOL0     H40167   6.586   8.550  10.519 -0.3670  0.8372  0.8593
  298MOL0     H40168   6.740   8.483  10.546 -0.1125 -0.7804  0.7809
  298MOL0     H40169   6.792   8.627  10.736 -0.3901  0.0692  0.3232
  298MOL0     H40170   6.630   8.708  10.717 -1.7906 -0.8088  2.0803
  298MOL0     H40171   6.674   8.408  10.768  3.5468  1.7132  1.3668
  298MOL0     H40172   6.672   8.517  10.897  1.0422 -0.6955  0.9337
  298MOL0     H40173   6.454   8.610  10.838 -1.0020  0.1394 -0.4319
  298MOL0     H40174   6.445   8.490  10.699  0.3660  1.3003  0.2383
  298MOL0     H40175   6.474   8.314  10.880  1.1557  0.2875  2.3982
  298MOL0     H40176   6.462   8.435  11.011  0.4442 -0.1915 -0.1160
  298MOL0     H40177   6.262   8.337  10.813  2.4248 -0.4576 -0.5208
  298MOL0     H40178   6.273   8.289  10.979  0.4750  0.0080 -0.2750
  298MOL0     H40179   6.248   8.587  10.906 -0.1280 -0.7368 -0.0889
  298MOL0     H40180   6.252   8.533  11.063  2.1022  2.4305 -0.7727
  298MOL0     H40181   6.031   8.558  11.163 -0.5835 -1.2479  0.6774
  298MOL0     H40182   5.767   8.528  11.185  2.7789  0.8577  0.6104
  298MOL0     H40183   5.743   8.690  11.109  0.6529  0.8195 -2.2398
  298MOL0     H40184   5.537   8.556  11.109  2.9170 -1.6187  1.0724
  298MOL0     H40185   5.601   8.430  11.015 -0.2764  0.1915 -4.2755
  298MOL0     H40186   5.463   8.588  10.874  0.0100  0.6482  0.1475
  298MOL0     H40187   5.626   8.561  10.810 -2.4422  0.4373 -0.6090
  298MOL0     H40188   5.606   8.794  10.787 -0.5665  0.6911 -0.1943
  298MOL0     H40189   5.713   8.762  10.915  0.7757 -0.2342 -1.3871
  298MOL0     H40190   5.287   8.786  10.921 -0.5255 -1.1139 -1.9531
  298MOL0     H40191   5.051   9.024  10.737 -4.4026  3.9304  3.2651
  298MOL0     H40192   5.080   8.856  10.796  0.5677  0.9656  0.5947
  298MOL0     H40193   4.994   8.986  10.888 -0.9149  1.5355 -0.8336
  298MOL0     H40194   5.338   9.575  10.845  0.8940  2.9162 -0.1686
  298MOL0     H40195   5.237   9.803  10.836 -2.7712  1.9520 -0.6019
  298MOL0     H40196   5.127   9.975  10.908  0.5347  0.9171 -1.0183
  298MOL0     H40197   5.073   9.966  10.733  0.4338 -0.4466  0.6173
  298MOL0     H40198   4.860  10.064  10.825  0.0313 -0.8853 -2.1170
  298MOL0     H40199   4.935  10.102  10.974 -1.8190  3.4289 -0.7393
  298MOL0     H40200   4.954  10.297  10.842  0.2683  0.2294 -0.6798
  298MOL0     H40201   5.013  10.208  10.703 -1.8131  0.8482  0.1951
  298MOL0     H40202   5.139  10.270  10.980 -0.0118  0.8890  0.2695
  298MOL0     H40203   5.230  10.184  10.849  3.2455  2.5006 -0.4396
  298MOL0     H40204   5.110  10.462  10.859 -0.4029 -1.7667  4.0954
  298MOL0     H40205   5.212  10.397  10.722  2.2588  0.1490  1.1489
  298MOL0     H40206   5.321  10.416  11.007 -0.6443 -4.3919 -0.6572
  298MOL0     H40207   5.407  10.373  10.887 -1.4800 -2.1748  3.7801
  298MOL0     H40208   5.311  10.661  10.956 -1.4011 -1.4372 -1.1409
  298MOL0     H40209   5.313  10.631  10.787 -0.2846 -0.9688  0.0781
  298MOL0     H40210   5.555  10.575  10.959  0.8702  0.2954 -0.1988
  298MOL0     H40211   5.532  10.730  10.873  1.3432 -0.1261  2.3133
  298MOL0     H40212   4.864   9.618  10.953  0.8273 -1.3756  1.9233
  298MOL0     H40213   4.961   9.404  10.961  0.7735 -0.4536 -0.3149
  298MOL0     H40214   5.454   9.242  10.842 -1.9573  0.6969 -1.5158
  298MOL0     H40215   5.599   9.059  10.895  1.2264 -1.6443  0.2118
  298MOL0     H40216   6.632   8.777  10.244 -0.1022 -0.6031 -1.6606
  298MOL0     H40217   6.666   8.911  10.032 -0.2600 -0.4073 -0.3788
  298MOL0     H40218   7.082   8.965   9.582 -1.8466 -1.3626  1.2375
  298MOL0     H40219   7.108   9.179   9.439  1.7328  0.6929  1.0348
  298MOL0     H40220   6.811   9.469   9.520  1.1191 -3.4971 -0.3469
  298MOL0     H40221   6.948   9.554   9.603  2.3472 -0.5789  0.2560
  298MOL0     H40222   7.021   9.636   9.376 -1.5649  1.3521 -1.5194
  298MOL0     H40223   6.861   9.681   9.419 -1.0580 -0.5868 -1.2664
  298MOL0     H40224   6.949   9.468   9.225  1.0285 -0.2526  1.1589
  298MOL0     H40225   6.872   9.623   9.188 -2.2435  1.9509  1.4188
  298MOL0     H40226   6.651   9.536   9.267 -0.8214 -2.2653 -1.5751
  298MOL0     H40227   6.736   9.383   9.313 -3.2778  0.1216  0.1774
  298MOL0     H40228   6.707   9.356   8.892  0.0201 -4.3026  0.2128
  298MOL0     H40229   6.886   9.388   9.737 -2.9306 -1.3148  1.4066
  298MOL0     H40230   6.892   9.203   9.877 -0.7155  0.6128 -0.2587
  299MOL0     O40231   9.940   1.233   8.561 -0.4364 -0.0624 -0.0022
  299MOL0     C40232   9.883   1.126   8.576  0.0309 -0.2825 -0.8141
  299MOL0     O40233   9.950   1.011   8.573  0.0110 -0.2788 -0.2560
  299MOL0     C40234  10.070   1.016   8.526 -0.7517 -0.6737  0.3525
  299MOL0     C40235  10.174   1.063   8.597 -1.0892 -0.7012 -0.0864
  299MOL0     C40236  10.301   1.052   8.542 -0.6945  0.0940  0.1876
  299MOL0     C40237  10.327   0.975   8.428  0.6467 -0.1186  0.0271
  299MOL0     O40238  10.446   0.975   8.371  0.2622 -0.4398 -0.3573
  299MOL0     C40239  10.532   0.866   8.422  0.9215 -0.0306  0.3292
  299MOL0     C40240  10.616   0.924   8.543 -0.4462 -0.1278  0.5903
  299MOL0     C40241  10.746   1.010   8.498 -0.1481 -0.1214 -0.5794
  299MOL0     C40242  10.836   1.020   8.623  0.6236 -0.3974  0.2061
  299MOL0     C40243  10.917   1.152   8.650 -0.1050  0.1160  0.0314
  299MOL0     C40244  11.025   1.180   8.549  0.7021 -0.1557  0.6123
  299MOL0     C40245  11.148   1.098   8.571  0.5095 -0.3864  0.1503
  299MOL0     C40246  11.220   1.067   8.440  0.4684  0.4551  0.4222
  299MOL0     N40247  11.139   0.958   8.370 -0.4041  0.2147  0.2238
  299MOL0     C40248  11.127   0.830   8.413  0.0427 -0.0020  0.2884
  299MOL0     C40249  11.044   0.771   8.322 -0.1866 -0.0565  0.3298
  299MOL0     C40250  10.998   0.620   8.323  0.2711  0.5378 -0.2338
  299MOL0     C40251  10.849   0.610   8.368  0.7826 -0.4823  0.5924
  299MOL0     C40252  10.793   0.471   8.394 -0.3964  0.1201 -0.5452
  299MOL0     C40253  10.643   0.460   8.432 -0.4947  0.0149  0.1464
  299MOL0     O40254  10.557   0.513   8.331 -1.2087 -0.4494 -0.1980
  299MOL0     C40255  10.418   0.506   8.341 -0.3381  0.1256 -0.6652
  299MOL0     C40256  10.348   0.445   8.446  0.2793 -0.3754 -0.4113
  299MOL0     C40257  10.208   0.446   8.450 -0.0947 -0.4390 -0.7424
  299MOL0     C40258  10.140   0.373   8.550  0.0529 -0.5627 -0.1738
  299MOL0     C40259  10.134   0.517   8.351 -0.2500 -0.0226 -0.1834
  299MOL0     C40260   9.983   0.513   8.342  0.1550 -0.0706  0.5176
  299MOL0     O40261   9.922   0.631   8.292  0.0452 -0.3943  0.0944
  299MOL0     C40262   9.786   0.628   8.297 -0.7793  0.3080  0.4031
  299MOL0     C40263   9.706   0.549   8.210 -0.6226 -0.5542  0.1084
  299MOL0     C40264   9.560   0.562   8.227 -0.7382  0.4408  0.2796
  299MOL0     C40265   9.501   0.652   8.317  0.6474  0.4203 -0.7029
  299MOL0     O40266   9.363   0.662   8.311 -0.5699  0.3489 -0.2187
  299MOL0     C40267   9.290   0.771   8.374  0.8623 -1.2503 -0.6570
  299MOL0     C40268   9.247   0.733   8.520 -0.6373  0.3218  0.6130
  299MOL0     C40269   9.200   0.586   8.528  1.4496 -0.1419 -0.0650
  299MOL0     C40270   9.153   0.530   8.668  0.7419 -0.3387  0.5492
  299MOL0     C40271   9.096   0.383   8.681 -0.1319  0.1960 -0.2928
  299MOL0     C40272   9.115   0.331   8.828 -0.4219 -0.1067  0.6376
  299MOL0     C40273   9.025   0.207   8.837  0.7791  0.5400 -1.0548
  299MOL0     C40274   9.060   0.113   8.957 -0.5846 -0.0278 -0.2924
  299MOL0    Cl40275   9.209   0.038   8.912  0.4699  0.5064  0.0055
  299MOL0     C40276   9.588   0.722   8.403  0.1606  0.2343  0.0109
  299MOL0     C40277   9.726   0.713   8.386  0.0057  0.1670  0.9940
  299MOL0     O40278   9.919   0.414   8.380 -0.7883  0.4882  0.4778
  299MOL0     C40279  10.206   0.581   8.248  0.7078  0.2467 -0.1052
  299MOL0     C40280  10.348   0.568   8.236  0.7615  0.1510 -0.5976
  299MOL0     N40281  11.001   0.869   8.235 -0.1148 -0.2795 -0.5487
  299MOL0     N40282  11.059   0.984   8.269 -0.3915 -0.4068 -0.4300
  299MOL0     C40283  10.223   0.935   8.350 -0.5575 -0.7772 -0.5822
  299MOL0     C40284  10.088   0.957   8.400  0.6353 -0.2790 -0.0885
  299MOL0     C40285   9.739   1.112   8.595 -0.6747  0.3238 -0.9765
  299MOL0     C40286   9.656   1.220   8.573  0.3460  0.1460 -0.9553
  299MOL0     C40287   9.517   1.203   8.602 -0.2497 -0.2002  0.8322
  299MOL0     C40288   9.462   1.080   8.655  0.4164 -0.7367 -0.3414
  299MOL0     O40289   9.333   1.058   8.667 -0.2849 -0.2133  0.6191
  299MOL0     C40290   9.253   1.178   8.669 -0.6570  0.3473 -0.7874
  299MOL0     C40291   9.110   1.131   8.709 -0.9913  0.6312  0.5514
  299MOL0     C40292   9.017   1.249   8.688  0.1676  0.2590  0.0045
  299MOL0     C40293   8.912   1.263   8.799 -0.0819  0.0865  0.0929
  299MOL0     C40294   8.966   1.303   8.927 -0.3167  0.4216 -0.4678
  299MOL0     C40295   9.015   1.345   9.028  0.3969 -0.5807  1.4682
  299MOL0     C40296   9.546   0.974   8.685  0.8782  0.2327 -1.0297
  299MOL0     C40297   9.690   0.995   8.662  0.2106 -0.5807  0.2899
  299MOL0     H40298  10.160   1.102   8.697 -1.4122 -1.6890  0.2668
  299MOL0     H40299  10.384   1.094   8.598  0.1194  1.1317 -1.7269
  299MOL0     H40300  10.471   0.781   8.454 -2.3437  2.4516  1.2288
  299MOL0     H40301  10.588   0.826   8.337  0.5478  0.0567  0.0415
  299MOL0     H40302  10.547   0.977   8.610  0.9852  1.5527  0.8140
  299MOL0     H40303  10.652   0.839   8.603  0.9377  0.9892  1.4229
  299MOL0     H40304  10.797   0.969   8.410  0.4918  0.4965 -0.5114
  299MOL0     H40305  10.719   1.111   8.468 -1.6540 -0.7823 -1.5693
  299MOL0     H40306  10.769   0.996   8.705  0.7012 -0.2803  0.3040
  299MOL0     H40307  10.903   0.936   8.604 -0.1974 -0.7265 -1.4243
  299MOL0     H40308  10.833   1.222   8.656 -0.9457 -0.8661  0.1188
  299MOL0     H40309  10.966   1.151   8.748 -0.6602  0.5188  0.3166
  299MOL0     H40310  10.987   1.168   8.447  2.7132  0.3811 -0.2521
  299MOL0     H40311  11.058   1.283   8.563 -1.6483  0.9925 -1.5010
  299MOL0     H40312  11.225   1.153   8.625  0.2627  0.2065 -0.0923
  299MOL0     H40313  11.109   1.010   8.624  1.5909 -1.0514 -0.1362
  299MOL0     H40314  11.322   1.030   8.449  0.3407  0.5029  2.5587
  299MOL0     H40315  11.239   1.156   8.378  0.0001 -0.8890 -1.7544
  299MOL0     H40316  11.176   0.780   8.495 -0.3784 -0.9845 -0.0536
  299MOL0     H40317  11.011   0.581   8.221  4.3648  0.1158  0.2852
  299MOL0     H40318  11.059   0.561   8.391  1.3363 -0.3442 -1.8770
  299MOL0     H40319  10.786   0.662   8.295  0.5343  0.6216  1.5400
  299MOL0     H40320  10.852   0.668   8.462  0.2872 -0.1996  0.4390
  299MOL0     H40321  10.858   0.431   8.472  1.7444  0.9912 -1.8031
  299MOL0     H40322  10.812   0.419   8.300 -2.4828 -1.8740  0.0500
  299MOL0     H40323  10.626   0.512   8.527  0.5314  1.4679 -0.4177
  299MOL0     H40324  10.622   0.353   8.436 -0.5869  0.0566  0.7784
  299MOL0     H40325  10.406   0.390   8.519 -1.0414 -2.4700 -0.8541
  299MOL0     H40326  10.102   0.282   8.503 -0.9462  0.0125 -0.5172
  299MOL0     H40327  10.221   0.347   8.619  0.1748  1.9255  0.7198
  299MOL0     H40328  10.055   0.428   8.593 -0.2941  1.7370 -3.4436
  299MOL0     H40329   9.752   0.483   8.137  1.2316 -1.5847  2.0932
  299MOL0     H40330   9.481   0.513   8.171 -1.7346  3.6469 -1.4280
  299MOL0     H40331   9.347   0.864   8.383 -0.3786 -0.5394  0.2308
  299MOL0     H40332   9.195   0.786   8.322  0.8249 -0.4797 -0.3837
  299MOL0     H40333   9.337   0.740   8.582 -0.7458  0.4373  0.7544
  299MOL0     H40334   9.166   0.803   8.540 -1.8469  0.4142 -3.6806
  299MOL0     H40335   9.285   0.526   8.494  3.0192  1.5193  0.7545
  299MOL0     H40336   9.122   0.563   8.455 -0.5380 -0.0472  1.9241
  299MOL0     H40337   9.236   0.541   8.738  0.6055  2.4900  0.3712
  299MOL0     H40338   9.076   0.599   8.705 -1.5595 -2.5187  0.1382
  299MOL0     H40339   9.154   0.307   8.628  0.0811 -0.4728  0.8680
  299MOL0     H40340   8.994   0.378   8.641 -0.7288 -0.8949  1.2762
  299MOL0     H40341   9.219   0.322   8.859 -0.2219  0.3157  0.1181
  299MOL0     H40342   9.061   0.413   8.877 -0.6408  0.4508 -0.4924
  299MOL0     H40343   9.030   0.134   8.756  2.4886 -1.1216  0.4219
  299MOL0     H40344   8.919   0.234   8.843  0.4965 -0.7299  0.4943
  299MOL0     H40345   8.981   0.038   8.971  1.4183 -2.1102  0.4557
  299MOL0     H40346   9.074   0.150   9.059  4.0466  0.0079 -0.7708
  299MOL0     H40347   9.550   0.784   8.483  0.6228 -0.0482  0.4550
  299MOL0     H40348   9.793   0.771   8.449  0.7418  1.2040 -0.6723
  299MOL0     H40349  10.150   0.639   8.176 -2.8467 -0.0909  2.1380
  299MOL0     H40350  10.407   0.611   8.155  1.6193 -2.1249 -1.2816
  299MOL0     H40351  10.247   0.900   8.250 -1.9490  2.5486 -2.2430
  299MOL0     H40352   9.999   0.944   8.340 -1.2554  2.2096  1.9242
  299MOL0     H40353   9.698   1.305   8.520  3.0174 -1.6415 -1.8779
  299MOL0     H40354   9.457   1.277   8.551  0.2383  0.5188  1.2893
  299MOL0     H40355   9.300   1.254   8.733  0.7805 -1.7691  0.7758
  299MOL0     H40356   9.251   1.223   8.569  0.2849  2.7778  0.1964
  299MOL0     H40357   9.117   1.095   8.813  0.1302 -3.7804 -0.8239
  299MOL0     H40358   9.076   1.043   8.655 -5.8513  2.6629 -0.2304
  299MOL0     H40359   8.986   1.226   8.586  2.4053 -0.4456 -0.5839
  299MOL0     H40360   9.066   1.347   8.699 -0.2151  0.3414  1.0897
  299MOL0     H40361   8.864   1.166   8.815 -0.8356  0.6075  1.0959
  299MOL0     H40362   8.829   1.331   8.775  0.4774  0.6233 -0.3596
  299MOL0     H40363   9.050   1.372   9.126 -0.2163  2.5125  0.9542
  299MOL0     H40364   9.517   0.886   8.742 -1.5629  1.7930  0.2909
  299MOL0     H40365   9.763   0.924   8.700 -0.7755 -0.9551  1.5513
  300MOL0     O40366   0.886   1.715  10.074  0.1134 -0.9036 -0.0575
  300MOL0     C40367   0.809   1.676  10.163 -0.9788 -0.3437  0.0759
  300MOL0     O40368   0.670   1.656  10.151  0.1155 -0.5319  0.6022
  300MOL0     C40369   0.623   1.704  10.033  0.6597 -0.6905 -0.0627
  300MOL0     C40370   0.549   1.821  10.057 -1.3689 -0.9717  0.0809
  300MOL0     C40371   0.500   1.884   9.945  0.1592  0.1826  0.7377
  300MOL0     C40372   0.526   1.843   9.810 -0.0835  0.9049  0.0794
  300MOL0     O40373   0.491   1.915   9.701 -0.0842 -0.2164  0.2688
  300MOL0     C40374   0.464   2.059   9.705 -0.3650 -0.1880  0.4883
  300MOL0     C40375   0.450   2.108   9.562 -0.4281  0.1163 -0.2258
  300MOL0     C40376   0.429   2.260   9.559 -0.3521 -0.1754  1.0168
  300MOL0     C40377   0.453   2.330   9.422 -0.1855 -0.0328  0.2551
  300MOL0     C40378   0.598   2.370   9.401  0.7135 -0.3119 -0.6743
  300MOL0     C40379   0.612   2.484   9.311  0.4481 -0.1285  0.7561
  300MOL0     C40380   0.755   2.498   9.259  0.2737  0.0444 -0.1625
  300MOL0     C40381   0.775   2.633   9.188 -0.7241  0.7085  0.2060
  300MOL0     N40382   0.711   2.642   9.058 -0.0774  0.1510  0.0853
  300MOL0     C40383   0.756   2.591   8.944 -0.0092  0.4365  0.4310
  300MOL0     C40384   0.671   2.637   8.849 -0.9368 -0.6914 -0.3914
  300MOL0     C40385   0.673   2.596   8.702  1.0016 -0.7803 -0.6949
  300MOL0     C40386   0.806   2.603   8.624  0.0398  0.1922  0.6131
  300MOL0     C40387   0.787   2.541   8.490 -0.3926 -0.4889 -0.7086
  300MOL0     C40388   0.920   2.520   8.414  0.5112  0.2532 -0.4383
  300MOL0     O40389   0.951   2.617   8.318 -0.1233 -0.1222 -0.5440
  300MOL0     C40390   1.072   2.690   8.320 -0.3196 -0.2684 -0.8643
  300MOL0     C40391   1.147   2.718   8.441  0.0765 -0.6993  0.0314
  300MOL0     C40392   1.268   2.797   8.421  0.8207 -0.3522 -0.7372
  300MOL0     C40393   1.339   2.823   8.551 -0.7054  0.1258  0.6851
  300MOL0     C40394   1.322   2.837   8.300 -0.9954 -0.8549  0.3604
  300MOL0     C40395   1.463   2.880   8.293 -0.6006  0.0240  0.4749
  300MOL0     O40396   1.486   2.999   8.347 -0.0845 -0.0861 -0.1016
  300MOL0     C40397   1.615   3.032   8.369 -0.3830  0.4382 -0.7482
  300MOL0     C40398   1.673   3.003   8.492  0.1653 -0.0008  0.4153
  300MOL0     C40399   1.814   3.029   8.513  1.0688 -0.3078  0.0241
  300MOL0     C40400   1.881   3.091   8.405 -0.1322  0.0802 -1.7535
  300MOL0     O40401   2.023   3.115   8.421 -0.2922 -0.4945 -0.0230
  300MOL0     C40402   2.086   3.210   8.334 -0.0456 -0.2287 -0.3100
  300MOL0     C40403   2.230   3.243   8.395  0.1771 -0.8826 -0.1556
  300MOL0     C40404   2.312   3.114   8.377 -0.2787  0.2917 -0.6023
  300MOL0     C40405   2.454   3.146   8.419  0.2581 -0.3904  0.4219
  300MOL0     C40406   2.540   3.032   8.429 -0.0664 -0.0480  0.3398
  300MOL0     C40407   2.679   3.069   8.492 -0.2318  0.0852  0.1114
  300MOL0     C40408   2.756   2.935   8.517 -0.0952  0.6848  0.4733
  300MOL0     C40409   2.895   2.957   8.575  0.1122  0.1177  0.0533
  300MOL0    Cl40410   2.992   2.808   8.532 -0.3160 -0.5209  0.3912
  300MOL0     C40411   1.818   3.140   8.293  0.0941 -0.0553  0.0212
  300MOL0     C40412   1.684   3.116   8.282 -0.4518 -0.8101  0.0485
  300MOL0     O40413   1.548   2.802   8.246 -0.6780 -0.1682 -0.3884
  300MOL0     C40414   1.243   2.817   8.186  0.7155  0.1804  0.2886
  300MOL0     C40415   1.119   2.743   8.197  0.0597  1.1695  0.2229
  300MOL0     N40416   0.583   2.726   8.905  0.2492  0.4265  0.6547
  300MOL0     N40417   0.615   2.728   9.037  0.8967 -1.0339  0.7685
  300MOL0     C40418   0.597   1.724   9.790  0.1475 -0.0107  0.1155
  300MOL0     C40419   0.652   1.658   9.903 -1.2083 -1.0263  0.6057
  300MOL0     C40420   0.866   1.653  10.293 -0.0522 -0.1539 -0.3994
  300MOL0     C40421   0.796   1.578  10.387  1.2243  0.1483  0.2588
  300MOL0     C40422   0.846   1.563  10.512  0.7481  0.0040  0.2365
  300MOL0     C40423   0.967   1.607  10.547 -0.7858 -0.2399 -0.6517
  300MOL0     O40424   1.000   1.579  10.671 -0.1292  0.5750  0.1573
  300MOL0     C40425   1.115   1.638  10.730  0.2455  0.2171  0.1953
  300MOL0     C40426   1.118   1.576  10.870  0.5094 -0.6095  0.4881
  300MOL0     C40427   1.240   1.603  10.958 -0.6074 -0.4970  0.5648
  300MOL0     C40428   1.227   1.522  11.088 -0.2219 -0.1305 -0.6262
  300MOL0     C40429   1.120   1.569  11.182  0.5469 -0.2819  0.1185
  300MOL0     C40430   1.019   1.597  11.255 -0.7008  0.1754 -0.7504
  300MOL0     C40431   1.040   1.689  10.463 -0.1958 -0.2984  0.1452
  300MOL0     C40432   0.996   1.708  10.339 -0.0592  0.0978 -0.1882
  300MOL0     H40433   0.538   1.856  10.160  1.5554 -2.9601  1.2225
  300MOL0     H40434   0.450   1.979   9.960 -0.6861 -0.1075 -0.1077
  300MOL0     H40435   0.380   2.083   9.770 -0.4011  1.9621 -0.2800
  300MOL0     H40436   0.559   2.104   9.738  0.1918  0.5590 -1.9470
  300MOL0     H40437   0.538   2.081   9.503  0.5210  3.8982 -0.7877
  300MOL0     H40438   0.372   2.045   9.519  0.4227 -1.8800  0.9762
  300MOL0     H40439   0.327   2.287   9.590 -1.2993  1.6495 -2.9826
  300MOL0     H40440   0.497   2.317   9.624  1.0380  2.1250 -2.1949
  300MOL0     H40441   0.425   2.255   9.348  0.9783  0.0450 -0.2827
  300MOL0     H40442   0.395   2.423   9.417  0.5040  0.5216  1.9323
  300MOL0     H40443   0.633   2.403   9.499  1.5505 -2.0982 -0.3424
  300MOL0     H40444   0.644   2.283   9.352 -1.0241 -2.6725  1.6194
  300MOL0     H40445   0.554   2.480   9.218  2.7574  1.3638 -0.8774
  300MOL0     H40446   0.586   2.577   9.363  2.6950 -0.7673  3.2473
  300MOL0     H40447   0.824   2.503   9.344  3.7944  1.7558 -2.8735
  300MOL0     H40448   0.789   2.424   9.186 -1.1172 -2.5598  1.6563
  300MOL0     H40449   0.884   2.636   9.176 -0.6710  0.1433  0.5326
  300MOL0     H40450   0.749   2.719   9.251  0.0963  0.3202  1.0831
  300MOL0     H40451   0.838   2.527   8.917  0.5870  0.7660  1.4191
  300MOL0     H40452   0.649   2.490   8.688  1.5942 -0.9479 -0.4431
  300MOL0     H40453   0.599   2.656   8.647 -0.6414  0.8339  2.9378
  300MOL0     H40454   0.890   2.549   8.667  0.4470 -1.0937 -1.6557
  300MOL0     H40455   0.837   2.706   8.605  0.9941 -0.2280 -0.1566
  300MOL0     H40456   0.725   2.604   8.426 -1.6757  0.3285  1.2521
  300MOL0     H40457   0.743   2.441   8.494  1.1016 -1.1535  0.0233
  300MOL0     H40458   0.929   2.423   8.365 -0.6852 -1.0930  1.8278
  300MOL0     H40459   1.003   2.521   8.486  0.3752  1.3400 -0.2770
  300MOL0     H40460   1.133   2.676   8.540  2.1299 -0.9272  0.2749
  300MOL0     H40461   1.365   2.928   8.562  1.9748 -0.0989 -2.1940
  300MOL0     H40462   1.286   2.781   8.638  0.1024 -1.7830  0.3201
  300MOL0     H40463   1.433   2.768   8.540 -1.6218 -1.4652  0.4331
  300MOL0     H40464   1.607   2.952   8.562 -3.9620 -0.8041 -3.5999
  300MOL0     H40465   1.866   2.998   8.603 -0.4523 -2.1849  0.3056
  300MOL0     H40466   2.089   3.168   8.233 -0.6947 -0.0781 -0.3969
  300MOL0     H40467   2.022   3.299   8.335  1.0084  0.6267 -2.3648
  300MOL0     H40468   2.275   3.323   8.336 -1.5374 -0.2685 -0.6831
  300MOL0     H40469   2.233   3.285   8.495 -0.2002  0.0309 -0.5183
  300MOL0     H40470   2.313   3.072   8.276 -3.2100  2.6634 -1.7947
  300MOL0     H40471   2.273   3.049   8.456  1.0368  0.6814  0.3980
  300MOL0     H40472   2.496   3.223   8.353 -1.4751 -0.3422 -0.6683
  300MOL0     H40473   2.450   3.176   8.524 -0.4509 -2.0783  0.9054
  300MOL0     H40474   2.554   2.970   8.339 -1.6077 -2.3077  1.5644
  300MOL0     H40475   2.499   2.958   8.499  2.5416  0.1353  2.2195
  300MOL0     H40476   2.745   3.135   8.436  1.2794  0.3513  2.0921
  300MOL0     H40477   2.668   3.114   8.592  4.8954  1.0129  0.5400
  300MOL0     H40478   2.780   2.881   8.426  0.1614 -2.8738  2.4596
  300MOL0     H40479   2.702   2.867   8.584  1.8377  1.6095  3.1742
  300MOL0     H40480   2.886   2.968   8.683 -1.5099  0.7216 -0.1174
  300MOL0     H40481   2.945   3.040   8.524  1.5584  0.7141  2.3123
  300MOL0     H40482   1.877   3.195   8.220 -0.3852 -0.1641 -0.4498
  300MOL0     H40483   1.642   3.162   8.194  2.3928  0.4439 -0.7893
  300MOL0     H40484   1.296   2.850   8.097  3.0561 -3.6390  0.0365
  300MOL0     H40485   1.055   2.716   8.113 -4.5857  1.3799  3.3008
  300MOL0     H40486   0.624   1.703   9.687 -2.8296 -1.9059 -0.3919
  300MOL0     H40487   0.720   1.575   9.885 -0.5607  0.1611 -3.5068
  300MOL0     H40488   0.706   1.531  10.349  2.0826 -1.3208 -0.0306
  300MOL0     H40489   0.788   1.526  10.596 -0.5456  0.5603 -0.3846
  300MOL0     H40490   1.212   1.616  10.684  0.3630  0.0624  0.5092
  300MOL0     H40491   1.101   1.747  10.732 -1.0408  0.0633 -0.1457
  300MOL0     H40492   1.100   1.468  10.868 -1.6481 -0.2991  0.9637
  300MOL0     H40493   1.032   1.610  10.928  0.6300  0.5399  0.0119
  300MOL0     H40494   1.251   1.710  10.979  1.6717 -0.9595  2.1544
  300MOL0     H40495   1.330   1.568  10.906 -0.7968  1.1593 -0.9684
  300MOL0     H40496   1.328   1.519  11.132  0.7964 -0.6821 -2.8577
  300MOL0     H40497   1.198   1.422  11.056  1.9201 -0.4090 -1.8959
  300MOL0     H40498   0.942   1.609  11.328 -0.8629  0.2293 -0.9296
  300MOL0     H40499   1.135   1.726  10.502 -0.0305 -1.4007  0.8487
  300MOL0     H40500   1.052   1.771  10.270 -0.4093  1.3036  0.6040
  301MOL0     O40501  10.551   2.155   6.064  0.2521 -0.6627 -0.1442
  301MOL0     C40502  10.472   2.254   6.074 -1.3065 -0.5708  0.3649
  301MOL0     O40503  10.516   2.377   6.096 -1.0362 -0.3861 -0.2980
  301MOL0     C40504  10.652   2.405   6.076 -0.3449 -0.3138  0.4827
  301MOL0     C40505  10.720   2.359   5.965 -0.0228  0.1712  0.4655
  301MOL0     C40506  10.856   2.392   5.951  0.2014 -0.3439 -0.2516
  301MOL0     C40507  10.912   2.491   6.029 -0.3521  0.4041 -0.3393
  301MOL0     O40508  11.043   2.534   6.012  0.6626 -0.3912 -0.3253
  301MOL0     C40509  11.103   2.500   5.888  0.3830 -0.0194  0.9783
  301MOL0     C40510  11.228   2.597   5.866  0.9274 -0.1655 -0.1712
  301MOL0     C40511  11.364   2.521   5.896  1.1247 -0.5421  0.2927
  301MOL0     C40512  11.439   2.598   6.002 -0.1066 -0.2406 -0.5376
  301MOL0     C40513  11.593   2.550   5.994  0.2078 -0.1088  0.0217
  301MOL0     C40514  11.676   2.620   6.104  0.4926 -0.1798 -0.0971
  301MOL0     C40515  11.808   2.552   6.151  0.3233 -0.8158  1.0688
  301MOL0     C40516  11.784   2.429   6.236 -1.1585 -0.2077 -0.4612
  301MOL0     N40517  11.696   2.436   6.343 -0.3184  0.0431  0.5675
  301MOL0     C40518  11.594   2.349   6.360  0.2189  0.0338 -0.2330
  301MOL0     C40519  11.551   2.357   6.483 -0.3590  0.4553 -0.0808
  301MOL0     C40520  11.443   2.285   6.548  0.0730  0.2284  0.1172
  301MOL0     C40521  11.478   2.150   6.615 -0.0056  1.1757 -0.3588
  301MOL0     C40522  11.357   2.058   6.643  0.0374 -0.2285  0.7161
  301MOL0     C40523  11.389   1.941   6.741 -0.3988 -0.2661 -0.1209
  301MOL0     O40524  11.425   1.987   6.870 -0.2488  0.5198 -0.0275
  301MOL0     C40525  11.479   1.897   6.963  0.1220 -0.0971  0.3059
  301MOL0     C40526  11.518   1.948   7.089 -0.9904  0.2588 -0.3811
  301MOL0     C40527  11.592   1.867   7.183 -0.8040  0.1414  0.0607
  301MOL0     C40528  11.625   1.931   7.325  0.6419 -0.7882  0.3565
  301MOL0     C40529  11.632   1.735   7.142  0.2128  0.6290 -0.1845
  301MOL0     C40530  11.739   1.655   7.215  0.5546 -0.9271 -0.3443
  301MOL0     O40531  11.820   1.706   7.320  0.0745 -0.0374  0.4518
  301MOL0     C40532  11.887   1.607   7.383 -0.3282  0.1563 -0.3160
  301MOL0     C40533  11.824   1.547   7.493 -0.4393 -0.4579  0.8738
  301MOL0     C40534  11.893   1.453   7.571 -0.0612  0.0234 -0.7007
  301MOL0     C40535  12.021   1.427   7.533 -0.3387  0.4427  0.0547
  301MOL0     O40536  12.077   1.340   7.615 -0.0143  0.9501 -0.4395
  301MOL0     C40537  12.150   1.240   7.552 -0.9055  0.5539 -0.1661
  301MOL0     C40538  12.144   1.112   7.635 -0.0918 -0.0730  0.0379
  301MOL0     C40539  11.993   1.056   7.622 -0.6539 -0.4967  0.2796
  301MOL0     C40540  11.978   0.932   7.704 -0.2602 -0.7858  0.4812
  301MOL0     C40541  11.958   0.959   7.854 -0.7560 -0.1420 -0.2530
  301MOL0     C40542  12.005   0.839   7.939  0.3156  1.3878 -0.2590
  301MOL0     C40543  12.012   0.863   8.088 -0.0036  0.2597  0.0419
  301MOL0     C40544  12.047   0.739   8.167 -0.2020 -0.5062  0.5718
  301MOL0    Cl40545  12.220   0.687   8.164  0.2036 -0.1914  0.1467
  301MOL0     C40546  12.088   1.483   7.420  0.6690  0.1479 -0.0305
  301MOL0     C40547  12.019   1.582   7.353  0.6011  0.5786  1.0143
  301MOL0     O40548  11.729   1.531   7.201  0.0449  0.0407 -0.6387
  301MOL0     C40549  11.580   1.683   7.021  0.1294  0.3993  0.5355
  301MOL0     C40550  11.510   1.763   6.929 -0.2389 -0.4526  0.0140
  301MOL0     N40551  11.638   2.448   6.545  0.4474  0.6929  0.0763
  301MOL0     N40552  11.718   2.497   6.459  0.3592  0.9029 -0.7281
  301MOL0     C40553  10.839   2.543   6.130 -0.5795 -0.1744 -0.1121
  301MOL0     C40554  10.709   2.500   6.157 -0.0546 -0.6948 -0.7924
  301MOL0     C40555  10.333   2.235   6.095  0.2802 -0.7181  0.1574
  301MOL0     C40556  10.280   2.109   6.106 -1.1405  0.1997  0.1302
  301MOL0     C40557  10.144   2.098   6.132 -0.0852 -0.0872  0.4571
  301MOL0     C40558  10.055   2.199   6.162 -0.3213 -0.1608  0.3030
  301MOL0     O40559   9.918   2.181   6.189  0.4682  0.2682  0.3449
  301MOL0     C40560   9.835   2.284   6.240  0.2044 -0.0599  0.1422
  301MOL0     C40561   9.722   2.217   6.321 -0.0154  1.0663  0.0998
  301MOL0     C40562   9.601   2.210   6.230  0.7750 -0.8402 -0.6796
  301MOL0     C40563   9.527   2.089   6.249  0.2394 -0.3155 -0.7317
  301MOL0     C40564   9.430   2.060   6.149  0.2255 -0.1243 -0.2943
  301MOL0     C40565   9.343   2.041   6.065 -0.2185  0.3829 -0.2211
  301MOL0     C40566  10.108   2.327   6.152  0.0078 -0.5108 -0.3521
  301MOL0     C40567  10.242   2.347   6.115  0.4261 -0.1801  0.5025
  301MOL0     H40568  10.673   2.293   5.893 -0.2978  1.5928 -0.7156
  301MOL0     H40569  10.910   2.353   5.865  3.8179  1.5746  0.9388
  301MOL0     H40570  11.134   2.396   5.878 -1.8627 -0.4738 -3.4593
  301MOL0     H40571  11.038   2.528   5.805  0.6438 -0.3815  0.6477
  301MOL0     H40572  11.223   2.622   5.759 -2.0454  0.5249  0.0523
  301MOL0     H40573  11.217   2.683   5.933  2.1603 -2.2337  2.8800
  301MOL0     H40574  11.354   2.418   5.932 -0.6653 -0.2075  0.8651
  301MOL0     H40575  11.416   2.513   5.800  0.2583  1.1456 -0.3620
  301MOL0     H40576  11.428   2.704   5.979  4.0039  1.2397  2.8926
  301MOL0     H40577  11.396   2.574   6.100 -1.3068 -1.9264 -1.4207
  301MOL0     H40578  11.605   2.441   6.000 -2.0785 -0.5703 -1.9408
  301MOL0     H40579  11.645   2.573   5.900  2.4734 -1.9349  0.7243
  301MOL0     H40580  11.685   2.716   6.053  1.3315 -0.3742 -0.3327
  301MOL0     H40581  11.615   2.629   6.194  0.4168  2.7292 -0.3364
  301MOL0     H40582  11.858   2.526   6.057 -2.1634  0.5765 -0.7556
  301MOL0     H40583  11.864   2.634   6.198  2.2001 -1.8595  0.7508
  301MOL0     H40584  11.878   2.402   6.285 -1.9883 -2.4575 -0.0085
  301MOL0     H40585  11.764   2.339   6.178  0.9920 -0.4737 -0.8659
  301MOL0     H40586  11.553   2.283   6.283  0.8479  1.3708 -1.7815
  301MOL0     H40587  11.396   2.346   6.626  1.2443  0.1880  0.8915
  301MOL0     H40588  11.367   2.259   6.474 -0.1360 -0.6027  0.6010
  301MOL0     H40589  11.540   2.170   6.703  0.4305  0.4718 -0.4975
  301MOL0     H40590  11.551   2.101   6.549  1.3779  0.3626  1.6822
  301MOL0     H40591  11.326   2.018   6.546  1.0146  0.6122  0.0387
  301MOL0     H40592  11.275   2.118   6.684 -0.0440 -0.1492  0.4393
  301MOL0     H40593  11.479   1.891   6.705 -1.7923 -2.0485 -1.2731
  301MOL0     H40594  11.303   1.874   6.740 -0.6872  0.0892  0.2388
  301MOL0     H40595  11.500   2.052   7.113  1.7917  0.6990  0.1952
  301MOL0     H40596  11.548   2.004   7.349  1.2881 -0.0058  0.1206
  301MOL0     H40597  11.639   1.855   7.402  0.3928 -2.5048 -1.2028
  301MOL0     H40598  11.715   1.992   7.316 -0.0209  0.1487 -0.1201
  301MOL0     H40599  11.718   1.568   7.505 -0.4723  0.9298 -1.2998
  301MOL0     H40600  11.845   1.403   7.655 -2.0517  0.4052 -1.5369
  301MOL0     H40601  12.135   1.227   7.444  2.7417  0.3910 -0.7842
  301MOL0     H40602  12.253   1.271   7.571 -0.0080 -2.3465  0.2391
  301MOL0     H40603  12.219   1.046   7.591 -1.3797 -1.2087 -0.5337
  301MOL0     H40604  12.176   1.135   7.737  1.1491  1.1411 -0.5950
  301MOL0     H40605  11.963   1.025   7.521  0.8440  0.1589 -0.4000
  301MOL0     H40606  11.938   1.139   7.667  1.6885 -0.6598  3.7981
  301MOL0     H40607  11.890   0.880   7.665 -0.9816 -1.1330  2.4739
  301MOL0     H40608  12.071   0.877   7.684  0.8278  1.0201  0.2444
  301MOL0     H40609  11.855   0.987   7.879 -1.8206 -1.4657 -2.7839
  301MOL0     H40610  12.004   1.055   7.881 -3.2978  0.4591  2.6194
  301MOL0     H40611  11.921   0.771   7.922 -1.8594  3.6078  1.0136
  301MOL0     H40612  12.101   0.806   7.899  1.0193  1.4527  1.3381
  301MOL0     H40613  11.912   0.900   8.111 -0.2017 -1.3209  2.0206
  301MOL0     H40614  12.085   0.940   8.115 -0.4713  0.7323 -0.0119
  301MOL0     H40615  11.996   0.652   8.124  1.9384 -1.1968 -0.7115
  301MOL0     H40616  12.021   0.759   8.272  1.5324  0.2842  0.8783
  301MOL0     H40617  12.190   1.451   7.401  1.5940  1.3948  2.3913
  301MOL0     H40618  12.070   1.640   7.277 -0.6927  0.1849 -0.1927
  301MOL0     H40619  11.606   1.582   6.990  1.6579  0.1185  2.5519
  301MOL0     H40620  11.469   1.726   6.835 -4.3222  1.4860  0.8175
  301MOL0     H40621  10.878   2.618   6.198 -0.4159 -1.1964  0.9755
  301MOL0     H40622  10.649   2.550   6.232  1.6082  1.9053 -1.0606
  301MOL0     H40623  10.347   2.025   6.092  0.0784  0.9257  1.3548
  301MOL0     H40624  10.091   2.005   6.145 -3.4571  1.9266  2.5060
  301MOL0     H40625   9.892   2.341   6.314  0.5273 -1.0809  0.6966
  301MOL0     H40626   9.809   2.355   6.161  1.9885 -0.0074 -0.4330
  301MOL0     H40627   9.693   2.279   6.407 -0.1704  0.9649  0.1200
  301MOL0     H40628   9.754   2.118   6.355  1.3963  1.2805 -0.5712
  301MOL0     H40629   9.630   2.191   6.126  1.5240  0.5308 -0.7458
  301MOL0     H40630   9.550   2.307   6.231  0.6047 -0.9344  0.5276
  301MOL0     H40631   9.471   2.087   6.343 -1.1490  0.6225 -1.5104
  301MOL0     H40632   9.601   2.008   6.252 -0.2642 -0.7643  0.1250
  301MOL0     H40633   9.273   2.019   5.987  0.5835 -1.5544 -0.4787
  301MOL0     H40634  10.043   2.413   6.162  0.9487  0.4079 -1.7293
  301MOL0     H40635  10.283   2.446   6.098 -1.2249  0.5789  0.7959
  302MOL0     O40636   8.934   3.784  10.412 -0.7196  0.3729 -0.5931
  302MOL0     C40637   8.875   3.837  10.508  0.6032 -0.6586  0.8524
  302MOL0     O40638   8.901   3.825  10.640  0.1804  0.0383 -0.8825
  302MOL0     C40639   9.035   3.834  10.666  0.6942  0.6923 -0.1709
  302MOL0     C40640   9.114   3.722  10.705 -0.3443  0.1430  0.1767
  302MOL0     C40641   9.240   3.732  10.760  0.5699 -0.3694  0.0808
  302MOL0     C40642   9.313   3.858  10.764 -0.1022  0.2478  0.6608
  302MOL0     O40643   9.432   3.857  10.827 -0.7605 -0.0325 -0.3233
  302MOL0     C40644   9.449   3.961  10.920 -0.6791 -1.1813 -0.6813
  302MOL0     C40645   9.370   3.925  11.049  0.5095 -1.1605 -0.0442
  302MOL0     C40646   9.426   3.792  11.107  0.1927 -0.5953  0.1280
  302MOL0     C40647   9.312   3.725  11.196  0.1022  1.3408 -0.5624
  302MOL0     C40648   9.363   3.591  11.245 -0.4155  0.3233  0.2315
  302MOL0     C40649   9.252   3.505  11.315 -0.7557 -0.3800 -0.3163
  302MOL0     C40650   9.165   3.425  11.211 -0.0263  0.3684  0.8263
  302MOL0     C40651   9.098   3.319  11.304 -0.0123  0.0464  0.8159
  302MOL0     N40652   8.996   3.252  11.225  0.0561  0.2255  0.6805
  302MOL0     C40653   9.017   3.162  11.123  0.0574  0.5116 -0.4493
  302MOL0     C40654   8.890   3.120  11.094  0.1319 -1.0760  0.4375
  302MOL0     C40655   8.857   3.033  10.974  0.1971 -0.4103  0.0568
  302MOL0     C40656   8.770   3.103  10.869 -0.7438 -0.5697 -0.5374
  302MOL0     C40657   8.821   3.232  10.794  0.7730 -0.3291  0.8595
  302MOL0     C40658   8.868   3.201  10.651 -0.3167 -0.0797 -0.5891
  302MOL0     O40659   8.766   3.158  10.558  0.8380  0.2439 -0.2189
  302MOL0     C40660   8.661   3.234  10.520 -0.2773  0.0194 -0.0277
  302MOL0     C40661   8.654   3.372  10.533 -1.2329 -0.6385 -0.7069
  302MOL0     C40662   8.543   3.445  10.495  0.0760  0.1060  0.3747
  302MOL0     C40663   8.556   3.599  10.495  0.8123  0.3358 -0.2356
  302MOL0     C40664   8.427   3.378  10.450 -0.6353 -0.2402  0.8842
  302MOL0     C40665   8.295   3.443  10.411 -1.0143  1.0527 -0.1269
  302MOL0     O40666   8.191   3.377  10.369  0.5183 -0.5982 -0.2971
  302MOL0     C40667   8.079   3.441  10.330 -0.1984 -0.1383 -0.4143
  302MOL0     C40668   8.062   3.473  10.199 -0.6263  0.1374  0.7561
  302MOL0     C40669   7.957   3.553  10.150 -0.2223  0.6158  0.1798
  302MOL0     C40670   7.873   3.619  10.247 -0.2417  0.2622  0.5216
  302MOL0     O40671   7.760   3.686  10.207  0.4304  0.5494  0.4487
  302MOL0     C40672   7.628   3.645  10.266  0.1162  0.1714  1.1048
  302MOL0     C40673   7.529   3.703  10.166 -0.0206 -0.4090 -0.0633
  302MOL0     C40674   7.518   3.617  10.041  0.4565  0.9325 -0.0618
  302MOL0     C40675   7.403   3.645   9.951  0.3145  0.4668  0.0308
  302MOL0     C40676   7.372   3.532   9.856 -0.4520  1.1306  0.1553
  302MOL0     C40677   7.241   3.555   9.784 -0.1761  1.7462 -0.2277
  302MOL0     C40678   7.174   3.427   9.753  1.3605  0.0118 -0.0081
  302MOL0     C40679   7.053   3.431   9.648  0.0260 -0.0324 -0.2418
  302MOL0    Cl40680   7.006   3.272   9.592  0.2244  0.2118  0.0189
  302MOL0     C40681   7.894   3.601  10.385  0.4694  0.7800 -0.1228
  302MOL0     C40682   7.991   3.497  10.425 -0.3946 -0.5373 -0.1596
  302MOL0     O40683   8.294   3.565  10.436  0.7319 -0.2158 -0.7947
  302MOL0     C40684   8.431   3.239  10.442  0.3302 -0.6129 -0.5644
  302MOL0     C40685   8.548   3.166  10.471 -0.3388 -0.5830  0.3104
  302MOL0     N40686   8.800   3.171  11.181 -0.4398 -0.0841 -1.0301
  302MOL0     N40687   8.865   3.250  11.256 -0.3400  0.3024  0.0207
  302MOL0     C40688   9.236   3.972  10.711  0.1293  1.2202  0.3060
  302MOL0     C40689   9.108   3.956  10.666  0.1833  0.3526 -0.8412
  302MOL0     C40690   8.750   3.904  10.475  0.1461 -0.3137 -0.1022
  302MOL0     C40691   8.712   3.907  10.336  0.6646  0.6609  0.4469
  302MOL0     C40692   8.594   3.969  10.290 -0.0675  0.3353 -0.2908
  302MOL0     C40693   8.516   4.031  10.388  0.1236 -0.1817 -0.1013
  302MOL0     O40694   8.396   4.091  10.367 -0.4602  0.3932  0.1910
  302MOL0     C40695   8.396   4.170  10.245  0.4405  0.8333 -0.9128
  302MOL0     C40696   8.296   4.287  10.272  0.4039 -0.7984 -0.6537
  302MOL0     C40697   8.155   4.254  10.234 -0.4114 -0.0586 -0.9165
  302MOL0     C40698   8.100   4.130  10.307 -0.4621 -0.4840  0.0745
  302MOL0     C40699   7.961   4.095  10.272  0.5193  0.2946 -0.7126
  302MOL0     C40700   7.855   4.052  10.235  1.1130  0.0662  0.3399
  302MOL0     C40701   8.559   4.037  10.528  0.7406  0.0676 -0.2219
  302MOL0     C40702   8.673   3.967  10.570 -0.3652  0.0388  0.0639
  302MOL0     H40703   9.080   3.619  10.706  1.7360 -0.7412  4.9318
  302MOL0     H40704   9.295   3.648  10.801  0.2343 -0.9872 -0.7115
  302MOL0     H40705   9.551   3.972  10.957 -1.6752  1.7085  1.6471
  302MOL0     H40706   9.425   4.056  10.871  3.8371  1.2890  1.2703
  302MOL0     H40707   9.377   4.006  11.122  0.1024 -1.2553  0.1029
  302MOL0     H40708   9.266   3.921  11.015  0.7786 -2.0786 -0.8057
  302MOL0     H40709   9.454   3.717  11.032 -1.1238 -1.4163  0.4309
  302MOL0     H40710   9.524   3.811  11.152  0.8540 -0.3319 -1.3345
  302MOL0     H40711   9.287   3.793  11.278 -1.4260 -0.2817  0.3905
  302MOL0     H40712   9.225   3.698  11.135  1.5319 -0.2461 -1.9995
  302MOL0     H40713   9.422   3.538  11.170  1.9471  5.3771 -1.9422
  302MOL0     H40714   9.437   3.619  11.321  0.6503  0.7258 -0.9086
  302MOL0     H40715   9.297   3.453  11.400 -3.3071  0.5944  1.7939
  302MOL0     H40716   9.182   3.574  11.364 -0.4288 -1.1698  1.3316
  302MOL0     H40717   9.100   3.484  11.147 -1.3920 -2.0341 -0.1396
  302MOL0     H40718   9.224   3.371  11.136 -0.3309  0.0495  0.8172
  302MOL0     H40719   9.038   3.366  11.383 -1.9442 -0.1887 -0.4456
  302MOL0     H40720   9.168   3.246  11.345 -0.4436  0.4615  2.3812
  302MOL0     H40721   9.104   3.149  11.060  0.3046  0.4907 -0.1050
  302MOL0     H40722   8.946   2.984  10.932  0.7749  0.2274  0.5043
  302MOL0     H40723   8.794   2.949  11.003 -1.7700  1.3950  1.2818
  302MOL0     H40724   8.688   3.143  10.930  1.2642  0.9844  1.3105
  302MOL0     H40725   8.736   3.028  10.797 -1.7497 -0.1620 -0.5040
  302MOL0     H40726   8.904   3.280  10.847  1.9958 -2.8866  1.4147
  302MOL0     H40727   8.731   3.292  10.779  1.0857 -0.2019 -0.6785
  302MOL0     H40728   8.951   3.131  10.664  0.6696  1.4643  2.0990
  302MOL0     H40729   8.906   3.294  10.608  1.0008 -0.4027 -0.1746
  302MOL0     H40730   8.733   3.425  10.585 -3.4218  0.7864  1.4535
  302MOL0     H40731   8.662   3.627  10.496  0.3446  2.1744  0.3477
  302MOL0     H40732   8.523   3.646  10.402  0.8453 -2.5954 -1.8647
  302MOL0     H40733   8.510   3.646  10.582  1.9379 -1.1531  1.2271
  302MOL0     H40734   8.128   3.426  10.125  0.4955  0.3165  1.6155
  302MOL0     H40735   7.938   3.570  10.044  0.0723 -0.3721 -0.0406
  302MOL0     H40736   7.615   3.537  10.271  1.9812 -0.0728  1.4773
  302MOL0     H40737   7.624   3.687  10.367 -0.3886  4.1383 -0.3922
  302MOL0     H40738   7.428   3.716  10.206 -0.2796 -2.6647  0.1425
  302MOL0     H40739   7.549   3.800  10.120 -1.0476  0.2452  0.8147
  302MOL0     H40740   7.513   3.515  10.080 -0.0986  1.2473  0.7469
  302MOL0     H40741   7.606   3.630   9.978  0.0398  1.4146 -0.5557
  302MOL0     H40742   7.311   3.638  10.010  0.2387 -1.7276 -0.2943
  302MOL0     H40743   7.405   3.745   9.906  0.7390  0.8825  0.9385
  302MOL0     H40744   7.380   3.441   9.915 -0.8075  0.8830 -0.1760
  302MOL0     H40745   7.450   3.507   9.785 -0.3903 -2.2805  1.2582
  302MOL0     H40746   7.175   3.613   9.849  1.0053  0.4330  2.3386
  302MOL0     H40747   7.261   3.606   9.689  1.9892  1.0995 -0.1837
  302MOL0     H40748   7.136   3.400   9.852  0.0510  4.2765  0.8570
  302MOL0     H40749   7.246   3.349   9.725  0.6698 -0.9693  0.8486
  302MOL0     H40750   7.091   3.488   9.562  1.1687 -1.3791 -0.6651
  302MOL0     H40751   6.961   3.476   9.686  0.4570 -0.0354  0.8397
  302MOL0     H40752   7.835   3.656  10.458  0.8505  0.7847  0.1864
  302MOL0     H40753   8.014   3.465  10.526  1.2277  0.6237 -0.1411
  302MOL0     H40754   8.335   3.189  10.431  0.2235 -1.3082  2.6820
  302MOL0     H40755   8.563   3.059  10.479  2.7055 -0.3557 -1.1593
  302MOL0     H40756   9.289   4.066  10.701 -0.7580  1.7949  0.7633
  302MOL0     H40757   9.057   4.048  10.638 -0.0490  1.3764  2.5112
  302MOL0     H40758   8.763   3.871  10.247  1.4935  2.0105  0.3452
  302MOL0     H40759   8.568   3.968  10.185  0.4651 -0.2142 -0.4231
  302MOL0     H40760   8.491   4.221  10.226  1.2749  0.1785  1.1706
  302MOL0     H40761   8.366   4.107  10.161  0.7094  1.2432 -1.3198
  302MOL0     H40762   8.306   4.377  10.210 -2.7870  1.0941  1.2731
  302MOL0     H40763   8.304   4.312  10.378 -0.2783 -1.1034 -0.5238
  302MOL0     H40764   8.147   4.232  10.127 -0.3449 -1.2172 -0.6982
  302MOL0     H40765   8.094   4.342  10.255  3.6671  3.0233 -0.7967
  302MOL0     H40766   8.111   4.137  10.416 -4.7140  0.4610  0.6224
  302MOL0     H40767   8.158   4.045  10.270 -3.5426 -2.4402 -0.6464
  302MOL0     H40768   7.759   4.004  10.232  0.8777  0.3409 -4.1941
  302MOL0     H40769   8.511   4.095  10.606  0.5876 -0.9135  0.4332
  302MOL0     H40770   8.693   3.964  10.676  1.6519 -0.2066 -0.2829
  303MOL0     O40771   1.620   9.442   7.259  0.2804 -0.4477 -0.2148
  303MOL0     C40772   1.727   9.457   7.329  0.0254 -0.7011 -0.7516
  303MOL0     O40773   1.853   9.510   7.288  0.5397  0.3409 -0.4613
  303MOL0     C40774   1.882   9.557   7.161 -0.7621  0.1542  0.4439
  303MOL0     C40775   1.797   9.620   7.069  0.3961 -0.0502  0.3463
  303MOL0     C40776   1.838   9.686   6.944  0.2645 -0.7534  0.1804
  303MOL0     C40777   1.968   9.670   6.908 -0.0134 -0.6595 -0.6533
  303MOL0     O40778   2.006   9.730   6.789 -0.2308  0.1200  0.5262
  303MOL0     C40779   2.128   9.797   6.781 -0.5657 -0.8898  0.1324
  303MOL0     C40780   2.135   9.861   6.650 -0.7891 -0.1317  0.8500
  303MOL0     C40781   2.256   9.951   6.640  0.5689 -0.0473 -1.8389
  303MOL0     C40782   2.295   9.980   6.502  0.2173 -0.3857  0.3202
  303MOL0     C40783   2.362  10.114   6.483  0.2801 -0.7962  0.0948
  303MOL0     C40784   2.485  10.136   6.571  0.2006  0.3113  0.3679
  303MOL0     C40785   2.572  10.224   6.475  0.6827 -0.3886 -1.1141
  303MOL0     C40786   2.671  10.312   6.558  0.0045 -0.0022  0.4084
  303MOL0     N40787   2.764  10.363   6.461 -0.2616 -0.0441 -0.1022
  303MOL0     C40788   2.763  10.493   6.430 -0.5327 -0.0358 -0.1514
  303MOL0     C40789   2.854  10.503   6.334  0.4050 -1.2205  0.4074
  303MOL0     C40790   2.885  10.638   6.267 -0.0675  0.5238 -0.2001
  303MOL0     C40791   3.029  10.657   6.213 -0.2781 -0.3905  0.2901
  303MOL0     C40792   3.064  10.552   6.106  0.0360 -0.8619 -0.1067
  303MOL0     C40793   3.189  10.584   6.024  0.3123  0.0120  0.6000
  303MOL0     O40794   3.314  10.555   6.088 -0.2961 -0.5373  0.0487
  303MOL0     C40795   3.429  10.565   6.016 -0.1973  0.0307 -0.4244
  303MOL0     C40796   3.549  10.552   6.098  0.7491  0.6752 -0.6920
  303MOL0     C40797   3.673  10.595   6.047 -0.1787  1.1745  0.6367
  303MOL0     C40798   3.782  10.587   6.147  0.1251 -0.9858 -0.4059
  303MOL0     C40799   3.687  10.640   5.911 -0.3388  0.2462 -0.6423
  303MOL0     C40800   3.820  10.690   5.850 -0.1038 -0.0511  1.0319
  303MOL0     O40801   3.799  10.794   5.756 -0.1619  0.7333  0.0044
  303MOL0     C40802   3.896  10.871   5.706  0.4187  0.1276 -0.3406
  303MOL0     C40803   3.867  10.937   5.585  0.2736 -0.5844 -0.4869
  303MOL0     C40804   3.960  11.022   5.528  0.4456  0.0295 -0.0318
  303MOL0     C40805   4.073  11.057   5.601  0.2536  0.4984  0.3054
  303MOL0     O40806   4.160  11.135   5.533  0.2364  0.5471  0.9217
  303MOL0     C40807   4.275  11.197   5.597 -0.4530  0.5266  0.5903
  303MOL0     C40808   4.342  11.278   5.496  0.2883 -0.4056 -0.2205
  303MOL0     C40809   4.476  11.344   5.548  0.8669 -0.3273  0.4722
  303MOL0     C40810   4.450  11.451   5.662 -0.0730 -0.2209 -0.2277
  303MOL0     C40811   4.568  11.532   5.671 -0.5765 -0.1461  0.4072
  303MOL0     C40812   4.543  11.636   5.775 -0.2259 -0.7380 -0.4666
  303MOL0     C40813   4.655  11.733   5.785 -0.9070 -0.6054 -0.3564
  303MOL0     C40814   4.612  11.868   5.850 -0.5695  0.4011  0.3543
  303MOL0    Cl40815   4.543  11.850   6.016 -0.0993  0.0617 -0.2894
  303MOL0     C40816   4.100  10.997   5.723 -0.0622 -0.0764  0.3153
  303MOL0     C40817   4.010  10.905   5.778  1.3929 -0.0559  0.2138
  303MOL0     O40818   3.927  10.642   5.885  0.3707  0.0535  0.3886
  303MOL0     C40819   3.568  10.641   5.840 -0.4187 -0.1249  0.5691
  303MOL0     C40820   3.449  10.604   5.888  0.1378  0.0301 -0.1976
  303MOL0     N40821   2.911  10.385   6.310 -0.6705 -0.1609  0.2703
  303MOL0     N40822   2.856  10.292   6.388 -0.1583 -0.5496 -0.6699
  303MOL0     C40823   2.054   9.603   6.993 -0.6880  0.5449 -0.0841
  303MOL0     C40824   2.013   9.549   7.113  0.0278 -0.0107  0.3436
  303MOL0     C40825   1.709   9.439   7.480  0.3020 -0.5054  0.5871
  303MOL0     C40826   1.818   9.464   7.574  0.4249 -0.0826 -0.5085
  303MOL0     C40827   1.799   9.458   7.708 -0.2483  0.7652 -0.1266
  303MOL0     C40828   1.671   9.420   7.762 -0.4186  0.0928  0.3386
  303MOL0     O40829   1.643   9.401   7.890 -0.1369  0.1399 -0.7254
  303MOL0     C40830   1.733   9.446   7.987  0.2860  0.3606  0.0649
  303MOL0     C40831   1.660   9.511   8.106 -0.3941 -0.7737  0.1377
  303MOL0     C40832   1.758   9.566   8.212  0.3351  0.2208 -0.8741
  303MOL0     C40833   1.814   9.438   8.290 -0.7453  0.2499 -0.1776
  303MOL0     C40834   1.918   9.483   8.375  0.3542  0.5488 -0.4121
  303MOL0     C40835   2.002   9.519   8.449  0.5056  0.2459 -0.2513
  303MOL0     C40836   1.563   9.399   7.670 -0.4050 -0.4011  0.0817
  303MOL0     C40837   1.579   9.413   7.536 -0.4057 -0.2153  0.6071
  303MOL0     H40838   1.693   9.633   7.099 -0.4152 -0.0212 -2.2232
  303MOL0     H40839   1.786   9.751   6.874  0.1775 -1.3108 -0.2744
  303MOL0     H40840   2.123   9.874   6.859 -2.0524 -0.7014 -0.1202
  303MOL0     H40841   2.210   9.725   6.795  1.7618  1.6803  0.7530
  303MOL0     H40842   2.137   9.780   6.577  1.2822  0.2984  0.3721
  303MOL0     H40843   2.043   9.917   6.630 -1.3374 -0.8723  1.2434
  303MOL0     H40844   2.222  10.044   6.686 -1.6625  0.9995 -5.2018
  303MOL0     H40845   2.342   9.912   6.695 -1.4351 -0.4140  1.2734
  303MOL0     H40846   2.362   9.902   6.465  0.9379  0.1799  0.4032
  303MOL0     H40847   2.203   9.974   6.443 -0.8445 -1.4229  2.0065
  303MOL0     H40848   2.391  10.125   6.378 -0.8126 -2.7732 -0.4757
  303MOL0     H40849   2.294  10.197   6.505 -2.2847 -3.2282  2.1001
  303MOL0     H40850   2.455  10.207   6.649  0.2200 -0.2660  0.9098
  303MOL0     H40851   2.528  10.045   6.613  1.3950  1.5381  1.9568
  303MOL0     H40852   2.622  10.158   6.403  1.9792 -1.5862  0.8152
  303MOL0     H40853   2.510  10.301   6.426  0.8818  2.6972  2.9250
  303MOL0     H40854   2.733  10.251   6.624  0.0770 -2.7008 -1.9925
  303MOL0     H40855   2.620  10.381   6.627 -1.0853 -1.9971  1.6912
  303MOL0     H40856   2.708  10.576   6.474 -0.3460 -0.0472  0.1018
  303MOL0     H40857   2.826  10.644   6.175  0.9425  0.3009 -0.8821
  303MOL0     H40858   2.853  10.715   6.338  0.6977 -0.0741  0.8019
  303MOL0     H40859   3.098  10.663   6.297  0.3874  2.2172 -0.3758
  303MOL0     H40860   3.032  10.753   6.161 -3.2933 -0.6523 -0.6192
  303MOL0     H40861   2.974  10.538   6.045 -0.2237  1.1586 -0.2617
  303MOL0     H40862   3.080  10.449   6.141  0.6826 -0.9651 -0.6923
  303MOL0     H40863   3.193  10.690   5.997 -0.4589 -0.5056 -1.7876
  303MOL0     H40864   3.181  10.523   5.934  0.7207 -0.2041  0.7065
  303MOL0     H40865   3.538  10.531   6.203  1.9165  0.3774 -0.6218
  303MOL0     H40866   3.843  10.677   6.142 -1.2145  0.1112  1.4782
  303MOL0     H40867   3.748  10.584   6.251 -0.0177 -0.0840 -0.4235
  303MOL0     H40868   3.841  10.497   6.124  2.0874  0.5052 -1.5222
  303MOL0     H40869   3.776  10.911   5.531 -0.5116 -0.1613  0.5935
  303MOL0     H40870   3.938  11.056   5.428 -1.1236 -2.5582 -0.6671
  303MOL0     H40871   4.247  11.254   5.687  0.8555 -0.8954  1.9624
  303MOL0     H40872   4.340  11.115   5.627 -1.9212 -0.2630  1.7640
  303MOL0     H40873   4.361  11.220   5.405 -0.7481 -0.3762 -0.4691
  303MOL0     H40874   4.268  11.355   5.474  0.5641 -0.1273 -0.1844
  303MOL0     H40875   4.527  11.393   5.464 -2.4171  2.2567 -0.2362
  303MOL0     H40876   4.523  11.257   5.594  0.7937  0.5934  2.3817
  303MOL0     H40877   4.367  11.517   5.637  0.1988  1.1151  2.1013
  303MOL0     H40878   4.434  11.408   5.761 -2.1941 -1.2687 -0.9605
  303MOL0     H40879   4.604  11.565   5.573  4.5813 -3.8421  0.6430
  303MOL0     H40880   4.651  11.473   5.710  0.5084 -1.0387 -2.9162
  303MOL0     H40881   4.461  11.698   5.737  1.3546  1.0555 -1.1047
  303MOL0     H40882   4.535  11.598   5.877  0.3664  2.3837  0.8382
  303MOL0     H40883   4.701  11.756   5.688 -0.5012  0.1217 -0.0005
  303MOL0     H40884   4.729  11.689   5.852  2.1353  3.7419 -0.4126
  303MOL0     H40885   4.533  11.906   5.784 -1.6555  0.5314  1.6722
  303MOL0     H40886   4.694  11.940   5.855 -1.5326  1.5895 -0.4847
  303MOL0     H40887   4.193  11.021   5.773 -0.1851 -1.9568  1.5683
  303MOL0     H40888   4.038  10.871   5.877  0.0640  0.2174  0.6978
  303MOL0     H40889   3.570  10.682   5.739 -1.8622 -0.0867  0.5314
  303MOL0     H40890   3.368  10.608   5.816 -3.4083 -1.1248  3.3675
  303MOL0     H40891   2.158   9.590   6.966 -1.1293  0.8176 -2.0801
  303MOL0     H40892   2.084   9.505   7.182 -0.2607 -1.3720 -0.1915
  303MOL0     H40893   1.913   9.482   7.525  0.0445  2.8803 -0.3217
  303MOL0     H40894   1.880   9.475   7.779  0.0826 -0.8799 -0.0661
  303MOL0     H40895   1.782   9.364   8.041  2.0480  2.4159  1.8393
  303MOL0     H40896   1.809   9.518   7.956  0.6364 -0.7537 -1.7735
  303MOL0     H40897   1.587   9.445   8.154  0.4059 -0.9372  1.1562
  303MOL0     H40898   1.605   9.601   8.076 -1.7344 -1.9429 -1.0839
  303MOL0     H40899   1.697   9.626   8.281  0.3107 -1.0249  0.2323
  303MOL0     H40900   1.835   9.632   8.173  0.9387 -0.0013 -0.0836
  303MOL0     H40901   1.862   9.363   8.226 -1.4394  0.0672 -0.5005
  303MOL0     H40902   1.734   9.391   8.348  1.4763 -0.2363  2.7098
  303MOL0     H40903   2.082   9.540   8.516 -1.1772  1.4858  1.4539
  303MOL0     H40904   1.473   9.363   7.719  0.0674 -1.8815 -0.0913
  303MOL0     H40905   1.490   9.402   7.474 -0.5538  2.3976  0.2316
  304MOL0     O40906   6.184   0.154   0.441  0.2507 -0.5023 -0.2058
  304MOL0     C40907   6.273   0.239   0.463  0.1761  0.1489  0.4454
  304MOL0     O40908   6.264   0.357   0.534 -0.2673 -0.0665 -0.0238
  304MOL0     C40909   6.140   0.397   0.574 -0.5611  0.7833  0.6673
  304MOL0     C40910   6.100   0.524   0.534 -1.3473  0.5332 -0.3356
  304MOL0     C40911   5.970   0.556   0.576  0.4740 -0.0751  0.4204
  304MOL0     C40912   5.886   0.477   0.652 -0.1763  0.7027  0.5028
  304MOL0     O40913   5.764   0.506   0.699  0.0378 -0.2075 -0.8602
  304MOL0     C40914   5.729   0.629   0.770 -0.3551  0.5213 -0.0003
  304MOL0     C40915   5.592   0.674   0.749  0.8399 -0.1029  0.2538
  304MOL0     C40916   5.492   0.573   0.806  0.9633 -0.4683 -0.1263
  304MOL0     C40917   5.359   0.644   0.858 -0.1572 -0.2591 -0.4223
  304MOL0     C40918   5.248   0.556   0.907 -0.3497  0.9127 -0.7373
  304MOL0     C40919   5.292   0.490   1.041  0.3507 -1.1760 -0.0013
  304MOL0     C40920   5.169   0.429   1.116  0.2918  0.7560 -0.2924
  304MOL0     C40921   5.120   0.310   1.043 -0.2694  0.6418  0.6486
  304MOL0     N40922   5.034   0.222   1.123  0.5095 -0.1584  0.3503
  304MOL0     C40923   5.077   0.101   1.182 -0.9515 -0.6172  0.4221
  304MOL0     C40924   4.985   0.068   1.274  0.5910 -1.1459 -0.2371
  304MOL0     C40925   4.978  -0.050   1.360  0.4276 -0.1490 -0.0363
  304MOL0     C40926   4.860  -0.144   1.310 -1.0941 -1.0006  0.7716
  304MOL0     C40927   4.872  -0.272   1.402 -0.3978 -0.0620  0.2148
  304MOL0     C40928   4.735  -0.345   1.388  0.3221 -0.6039 -0.1131
  304MOL0     O40929   4.644  -0.278   1.476 -0.4612 -0.5047  0.1929
  304MOL0     C40930   4.511  -0.309   1.462 -0.3471  0.1328 -0.7679
  304MOL0     C40931   4.454  -0.402   1.363  0.4028  0.1747 -1.0028
  304MOL0     C40932   4.322  -0.442   1.364 -0.2301  0.5100  0.0330
  304MOL0     C40933   4.279  -0.543   1.261  0.4116  0.3787  0.1852
  304MOL0     C40934   4.233  -0.383   1.464 -0.1050  0.6434 -0.3068
  304MOL0     C40935   4.090  -0.421   1.460  0.4300  0.5027 -0.6546
  304MOL0     O40936   4.058  -0.543   1.429  0.8041  0.0501  0.2964
  304MOL0     C40937   3.934  -0.603   1.452 -0.0005 -1.2035 -0.5730
  304MOL0     C40938   3.932  -0.740   1.468  0.7856 -0.1862 -0.3576
  304MOL0     C40939   3.813  -0.806   1.473  0.4275 -0.2806 -1.1012
  304MOL0     C40940   3.685  -0.743   1.478 -0.3694  1.0242  0.4265
  304MOL0     O40941   3.579  -0.823   1.496 -0.2474 -0.0190  0.2327
  304MOL0     C40942   3.463  -0.780   1.417 -0.7510 -1.5909 -0.7920
  304MOL0     C40943   3.342  -0.800   1.504  0.4559 -0.5155 -0.0883
  304MOL0     C40944   3.213  -0.781   1.426 -0.0181  0.0926 -0.5499
  304MOL0     C40945   3.094  -0.812   1.518  0.5695 -0.2340 -0.2857
  304MOL0     C40946   2.953  -0.809   1.455  0.3114  0.2514  0.2624
  304MOL0     C40947   2.850  -0.854   1.547  0.8287  0.4124  0.4828
  304MOL0     C40948   2.719  -0.855   1.480  0.2618 -0.5196  0.0657
  304MOL0     C40949   2.616  -0.923   1.576  0.5430 -1.7315  0.1256
  304MOL0    Cl40950   2.662  -1.079   1.637  0.2276  0.0977 -0.0312
  304MOL0     C40951   3.693  -0.607   1.467  0.6368  0.3869 -0.3410
  304MOL0     C40952   3.810  -0.537   1.449 -0.7916  0.5209  0.1630
  304MOL0     O40953   4.018  -0.330   1.498  0.7531  0.3420  0.6043
  304MOL0     C40954   4.285  -0.290   1.558 -0.6995 -0.0097 -0.1920
  304MOL0     C40955   4.420  -0.253   1.562 -0.9739  0.0227 -0.5819
  304MOL0     N40956   4.881   0.159   1.259 -0.8672  0.4253 -0.1162
  304MOL0     N40957   4.912   0.255   1.174  0.2100 -0.0242  0.2917
  304MOL0     C40958   5.934   0.353   0.693 -0.9827 -0.2107  0.1130
  304MOL0     C40959   6.062   0.309   0.652 -0.1249  0.4470 -0.4873
  304MOL0     C40960   6.403   0.204   0.399  0.3358  0.4610  0.1641
  304MOL0     C40961   6.432   0.077   0.344 -1.2098  0.7724  0.2068
  304MOL0     C40962   6.558   0.064   0.276 -0.0187  0.5152 -0.1136
  304MOL0     C40963   6.655   0.165   0.272  0.7794 -0.5335 -0.5601
  304MOL0     O40964   6.780   0.148   0.237 -0.2383  0.4418 -0.2739
  304MOL0     C40965   6.824   0.061   0.135  0.1650  0.0360  0.5194
  304MOL0     C40966   6.982   0.062   0.133  0.2683  0.6637  0.3421
  304MOL0     C40967   7.016   0.025  -0.010  0.2661 -0.9194  0.2269
  304MOL0     C40968   7.168   0.027  -0.043  0.2471 -0.1536 -0.1602
  304MOL0     C40969   7.209  -0.033  -0.163 -0.1727 -0.6851  0.0158
  304MOL0     C40970   7.228  -0.106  -0.257 -0.2595  0.4933  0.8032
  304MOL0     C40971   6.620   0.287   0.329 -0.2517  0.2253  0.0349
  304MOL0     C40972   6.493   0.305   0.376  0.9280  1.2209 -0.4757
  304MOL0     H40973   6.167   0.582   0.472 -1.1845 -1.0120 -1.6738
  304MOL0     H40974   5.930   0.646   0.531  4.3546  1.2903 -0.7104
  304MOL0     H40975   5.754   0.622   0.877  0.8484  4.9517  0.2111
  304MOL0     H40976   5.790   0.710   0.730 -1.2818  0.5712 -1.3566
  304MOL0     H40977   5.581   0.764   0.810 -0.5102 -0.5392  0.6996
  304MOL0     H40978   5.576   0.688   0.641  3.6591 -1.0273 -0.3674
  304MOL0     H40979   5.465   0.495   0.735 -6.4492  2.4065 -1.3953
  304MOL0     H40980   5.536   0.536   0.899  1.4377  2.6134  1.0024
  304MOL0     H40981   5.399   0.712   0.933  3.0627 -0.5770 -1.6830
  304MOL0     H40982   5.322   0.704   0.775 -0.1281 -1.7383 -1.5418
  304MOL0     H40983   5.160   0.620   0.917 -0.3318  0.9939 -1.1011
  304MOL0     H40984   5.225   0.481   0.831 -0.1355 -0.6303  0.6573
  304MOL0     H40985   5.364   0.411   1.018 -2.6662 -4.2285  0.2346
  304MOL0     H40986   5.326   0.563   1.115 -0.5619  0.7175 -1.3760
  304MOL0     H40987   5.219   0.407   1.211  0.7968 -1.7757 -1.0784
  304MOL0     H40988   5.089   0.502   1.131 -0.7989 -0.8196  1.9882
  304MOL0     H40989   5.211   0.253   1.023 -0.9802 -0.0765 -0.7057
  304MOL0     H40990   5.075   0.349   0.951 -0.6815  1.3103  1.1278
  304MOL0     H40991   5.170   0.047   1.174 -1.9358 -2.3337 -0.1040
  304MOL0     H40992   5.076  -0.097   1.366 -0.7739 -2.8133  0.0251
  304MOL0     H40993   4.958  -0.016   1.462  0.4095  2.0732 -0.7223
  304MOL0     H40994   4.886  -0.165   1.206  1.3189  0.9855  0.8816
  304MOL0     H40995   4.769  -0.083   1.320  0.2780  1.3204 -0.0239
  304MOL0     H40996   4.885  -0.243   1.507 -0.6913 -0.2168  0.2937
  304MOL0     H40997   4.956  -0.337   1.373  0.6296  1.3414 -0.0779
  304MOL0     H40998   4.739  -0.451   1.412 -1.7841 -0.8553 -0.6968
  304MOL0     H40999   4.699  -0.340   1.285 -0.0392 -3.4413 -0.1873
  304MOL0     H41000   4.518  -0.453   1.292 -0.8305 -3.4923  0.3195
  304MOL0     H41001   4.250  -0.643   1.294 -0.1537 -0.1966 -1.9226
  304MOL0     H41002   4.203  -0.506   1.192 -2.2964 -0.6895  2.4228
  304MOL0     H41003   4.369  -0.564   1.202 -0.0401  0.2025 -0.4514
  304MOL0     H41004   4.026  -0.793   1.458 -0.5584 -3.1611  1.2962
  304MOL0     H41005   3.807  -0.914   1.470  0.9787 -0.3151 -1.0694
  304MOL0     H41006   3.457  -0.674   1.394 -1.1006 -0.9551  1.8778
  304MOL0     H41007   3.462  -0.839   1.325  2.5356 -1.0786 -1.2774
  304MOL0     H41008   3.352  -0.894   1.558  3.3003 -0.4811 -0.3774
  304MOL0     H41009   3.340  -0.722   1.581 -2.7138 -2.2272  1.7425
  304MOL0     H41010   3.200  -0.850   1.342  0.0544 -0.4742 -0.1061
  304MOL0     H41011   3.199  -0.674   1.408  1.1881  0.8760  2.5140
  304MOL0     H41012   3.103  -0.905   1.575  0.5176  0.8953  1.6740
  304MOL0     H41013   3.090  -0.737   1.598  2.1081 -1.2809  0.8253
  304MOL0     H41014   2.950  -0.872   1.365 -1.0828 -0.1918  0.5937
  304MOL0     H41015   2.928  -0.715   1.406 -1.5688 -0.8357 -0.9856
  304MOL0     H41016   2.876  -0.957   1.577 -0.0018 -0.9270 -2.9305
  304MOL0     H41017   2.855  -0.793   1.638  3.3055 -0.8543  1.3029
  304MOL0     H41018   2.722  -0.900   1.380  1.0140 -1.1764  0.3753
  304MOL0     H41019   2.678  -0.755   1.463  1.8240  0.0699 -0.3178
  304MOL0     H41020   2.516  -0.920   1.530 -1.2043 -2.3325  3.5468
  304MOL0     H41021   2.594  -0.860   1.662  1.9698 -0.8838 -0.1047
  304MOL0     H41022   3.600  -0.553   1.480  1.9605  2.9418 -0.7756
  304MOL0     H41023   3.795  -0.430   1.437  2.9531  1.1776  0.1887
  304MOL0     H41024   4.214  -0.259   1.635 -0.5289 -0.2732  0.0710
  304MOL0     H41025   4.454  -0.176   1.630 -3.6587  2.1038 -1.4456
  304MOL0     H41026   5.872   0.294   0.760 -2.3770  1.7107  0.5888
  304MOL0     H41027   6.090   0.206   0.671 -0.6891  0.4027  0.1398
  304MOL0     H41028   6.364  -0.007   0.345 -1.3112  0.7274 -2.6022
  304MOL0     H41029   6.582  -0.028   0.224 -0.2637  0.2175  0.2913
  304MOL0     H41030   6.785  -0.041   0.137 -2.6754  1.0080 -0.0797
  304MOL0     H41031   6.782   0.096   0.040  0.2508 -1.1130  0.0449
  304MOL0     H41032   7.015  -0.022   0.196  1.1791 -3.0858 -4.5360
  304MOL0     H41033   7.023   0.159   0.161 -0.1795  0.5726  1.3569
  304MOL0     H41034   6.968   0.083  -0.089 -2.1090  0.4328  2.5234
  304MOL0     H41035   6.975  -0.076  -0.024 -0.5843 -0.5663  0.1494
  304MOL0     H41036   7.220  -0.033   0.031 -2.3923 -0.1780  1.7800
  304MOL0     H41037   7.207   0.129  -0.047 -0.5335  0.1294 -1.0970
  304MOL0     H41038   7.262  -0.163  -0.341  0.2520 -0.4765  1.6388
  304MOL0     H41039   6.698   0.362   0.327  0.9742 -1.0335 -0.3432
  304MOL0     H41040   6.451   0.400   0.407 -1.3942  1.2899 -3.3692
  305MOL0     O41041   3.904   5.052   5.191 -1.1689 -0.3401 -0.3116
  305MOL0     C41042   3.971   5.099   5.104  0.1963 -0.2851  0.8530
  305MOL0     O41043   3.921   5.144   4.986  0.5163 -0.2615 -0.3746
  305MOL0     C41044   3.780   5.128   4.959  0.5181  0.2841 -0.0874
  305MOL0     C41045   3.720   5.030   4.880 -0.1657  0.7807 -0.3542
  305MOL0     C41046   3.585   5.032   4.850  0.3531  1.0564  0.2602
  305MOL0     C41047   3.507   5.131   4.895 -0.2958  0.0150 -0.2796
  305MOL0     O41048   3.375   5.110   4.867 -0.0069  0.3001  1.2097
  305MOL0     C41049   3.288   5.215   4.904  0.5675  0.0074 -0.4326
  305MOL0     C41050   3.142   5.169   4.905  0.4263  0.7498 -0.4463
  305MOL0     C41051   3.101   5.148   4.759  0.0098  0.7213  0.5302
  305MOL0     C41052   2.946   5.147   4.749  0.3010  0.4452  1.0002
  305MOL0     C41053   2.903   5.121   4.605  0.0643  0.2938  0.0244
  305MOL0     C41054   2.747   5.135   4.593 -0.9520 -0.5207  0.3780
  305MOL0     C41055   2.696   5.167   4.446 -0.8275  0.5069  0.9741
  305MOL0     C41056   2.545   5.151   4.435  0.1756 -0.7789  0.3437
  305MOL0     N41057   2.495   5.177   4.292 -0.4622 -0.9020 -0.3092
  305MOL0     C41058   2.444   5.079   4.210  0.3602  0.0850 -0.5591
  305MOL0     C41059   2.393   5.143   4.108  0.4215  0.5114 -0.1994
  305MOL0     C41060   2.338   5.085   3.980 -0.2893 -0.1804 -0.3857
  305MOL0     C41061   2.396   5.171   3.859  0.1310  0.0017 -0.8705
  305MOL0     C41062   2.553   5.176   3.862 -1.0345 -0.1849  0.8523
  305MOL0     C41063   2.628   5.044   3.866  0.3564 -0.2145 -0.3681
  305MOL0     O41064   2.761   5.081   3.832  0.8030 -0.2981  0.0476
  305MOL0     C41065   2.832   5.159   3.917  0.0555 -1.0410  0.0274
  305MOL0     C41066   2.960   5.200   3.879 -0.2877 -0.1216  0.5665
  305MOL0     C41067   3.041   5.280   3.965 -0.7351  0.2900  0.4023
  305MOL0     C41068   3.162   5.323   3.888 -0.4675 -0.3873  0.3251
  305MOL0     C41069   2.998   5.324   4.090  0.3393 -0.3664 -1.0502
  305MOL0     C41070   3.075   5.415   4.167 -0.5329  0.7980 -0.2432
  305MOL0     O41071   3.009   5.474   4.269  0.1366 -0.2631 -0.6086
  305MOL0     C41072   3.089   5.542   4.361  0.0021  0.5738  0.4630
  305MOL0     C41073   3.102   5.494   4.494  0.1830 -0.1008  0.0937
  305MOL0     C41074   3.173   5.561   4.589 -0.2562  0.5946  0.0151
  305MOL0     C41075   3.250   5.673   4.559  0.0730 -0.0122  0.2397
  305MOL0     O41076   3.324   5.744   4.649  0.6466  0.4975 -0.7836
  305MOL0     C41077   3.391   5.657   4.747 -1.2038  0.1147  1.0540
  305MOL0     C41078   3.494   5.736   4.833 -0.1425 -0.0525  0.5878
  305MOL0     C41079   3.619   5.797   4.753  0.4422 -0.6364 -0.4017
  305MOL0     C41080   3.684   5.925   4.812 -0.5073 -0.0800 -0.5542
  305MOL0     C41081   3.745   5.903   4.953  0.6744 -0.3263  0.0430
  305MOL0     C41082   3.814   6.033   5.013  0.9571 -0.0313 -0.2913
  305MOL0     C41083   3.783   6.039   5.164 -0.8708 -0.0358  0.8480
  305MOL0     C41084   3.869   6.147   5.227  0.8202  0.3324  0.0500
  305MOL0    Cl41085   4.040   6.099   5.229  0.2636  0.0397  0.3577
  305MOL0     C41086   3.246   5.724   4.423 -0.7027 -0.5021  0.2167
  305MOL0     C41087   3.160   5.665   4.330 -0.6741 -0.0968  0.0796
  305MOL0     O41088   3.199   5.421   4.159  0.3301 -0.1625 -0.4584
  305MOL0     C41089   2.865   5.297   4.122  0.2573  0.0055 -0.0102
  305MOL0     C41090   2.797   5.200   4.045 -0.0085  0.7598 -0.1207
  305MOL0     N41091   2.398   5.278   4.139  0.3487  0.9102  0.4853
  305MOL0     N41092   2.462   5.303   4.250  0.0346 -0.0238  0.0867
  305MOL0     C41093   3.563   5.246   4.963  0.8093  1.1871 -0.3122
  305MOL0     C41094   3.703   5.236   5.004  0.3298 -0.3000 -0.5233
  305MOL0     C41095   4.112   5.136   5.151 -0.0028 -0.1674  0.2177
  305MOL0     C41096   4.212   5.180   5.057 -0.2915  0.3723  1.1513
  305MOL0     C41097   4.339   5.213   5.097 -0.4535 -1.0497 -0.3162
  305MOL0     C41098   4.378   5.200   5.235  0.1080  0.1705 -0.5254
  305MOL0     O41099   4.505   5.241   5.261  0.8602 -0.4679 -0.0914
  305MOL0     C41100   4.537   5.276   5.398 -0.0104 -0.3367 -0.2546
  305MOL0     C41101   4.459   5.393   5.461  0.9091 -0.7576 -0.4006
  305MOL0     C41102   4.516   5.448   5.594  0.1539  0.3939 -0.4475
  305MOL0     C41103   4.530   5.337   5.690  0.3334  0.8883 -0.7173
  305MOL0     C41104   4.393   5.287   5.731  0.3434 -0.7528 -0.0158
  305MOL0     C41105   4.279   5.253   5.762 -1.2427  0.6334  0.1179
  305MOL0     C41106   4.289   5.134   5.321  0.6166  0.2588  1.3812
  305MOL0     C41107   4.152   5.118   5.290 -0.9806 -0.2384 -1.2289
  305MOL0     H41108   3.762   4.939   4.838  0.4245  0.8285  0.1117
  305MOL0     H41109   3.532   4.949   4.806  1.2410  0.9226 -0.5843
  305MOL0     H41110   3.309   5.234   5.009 -1.3426 -1.6933  0.3338
  305MOL0     H41111   3.303   5.302   4.840  0.5258  3.0410  3.3190
  305MOL0     H41112   3.123   5.079   4.964  3.3001 -1.7932 -3.0696
  305MOL0     H41113   3.086   5.244   4.962 -0.6322  0.1712 -0.6961
  305MOL0     H41114   3.149   5.220   4.692  1.4040  2.1005  2.8870
  305MOL0     H41115   3.148   5.051   4.740  0.5900  0.0783  4.4171
  305MOL0     H41116   2.910   5.071   4.818  1.1409 -1.1554 -0.2588
  305MOL0     H41117   2.896   5.237   4.786 -0.6730  0.7913 -1.0451
  305MOL0     H41118   2.953   5.195   4.541  2.7820 -0.9818  0.5328
  305MOL0     H41119   2.927   5.019   4.574 -2.1333 -0.1538 -0.3951
  305MOL0     H41120   2.704   5.039   4.624  1.8281 -3.1679 -3.1261
  305MOL0     H41121   2.715   5.222   4.652 -2.4011 -0.1315 -0.9022
  305MOL0     H41122   2.726   5.271   4.433  1.3056 -0.2950 -1.2699
  305MOL0     H41123   2.744   5.098   4.376 -0.8472 -1.0108  2.3971
  305MOL0     H41124   2.489   5.197   4.518 -0.3775 -0.0626 -0.4099
  305MOL0     H41125   2.531   5.043   4.445  2.1720 -0.9881  1.3975
  305MOL0     H41126   2.444   4.974   4.238  1.6877  0.0301 -0.6834
  305MOL0     H41127   2.347   4.976   3.974 -0.4439 -0.2757  0.9049
  305MOL0     H41128   2.232   5.111   3.979 -0.6894 -1.6296  0.6451
  305MOL0     H41129   2.362   5.275   3.853  0.4102  0.0938 -0.8649
  305MOL0     H41130   2.365   5.121   3.767  1.4199  0.6625 -1.6990
  305MOL0     H41131   2.579   5.238   3.947  1.6040 -3.7361  2.8915
  305MOL0     H41132   2.590   5.220   3.769 -0.8972 -0.6544  0.6792
  305MOL0     H41133   2.577   4.987   3.788  0.1854  2.2514 -2.1989
  305MOL0     H41134   2.623   4.998   3.965 -2.6589  0.0504 -0.3026
  305MOL0     H41135   2.994   5.160   3.783  2.2529 -1.3407  1.8775
  305MOL0     H41136   3.235   5.244   3.873  0.7220  0.8179 -0.4933
  305MOL0     H41137   3.123   5.348   3.789 -1.7872 -3.4491 -0.0281
  305MOL0     H41138   3.210   5.414   3.925 -0.1767  0.2550 -1.5342
  305MOL0     H41139   3.043   5.408   4.524 -1.4627  0.3652 -1.5486
  305MOL0     H41140   3.172   5.530   4.693  3.9080 -1.5815 -0.3540
  305MOL0     H41141   3.323   5.605   4.814  1.4084 -2.1955  2.1048
  305MOL0     H41142   3.448   5.575   4.703  1.1029  1.2209  1.8266
  305MOL0     H41143   3.450   5.806   4.904 -1.2142 -0.7270  0.6130
  305MOL0     H41144   3.540   5.658   4.895  0.9418 -0.6429 -0.8745
  305MOL0     H41145   3.580   5.825   4.655 -2.1116  1.2144  1.0079
  305MOL0     H41146   3.686   5.711   4.743  1.5408  0.2811 -1.0366
  305MOL0     H41147   3.760   5.967   4.745  0.0376  0.7621  0.5591
  305MOL0     H41148   3.608   6.002   4.824 -0.2975 -0.2346  2.7561
  305MOL0     H41149   3.821   5.825   4.961  1.0657  0.0509  0.0499
  305MOL0     H41150   3.657   5.870   5.009  2.2165  1.0939  3.5609
  305MOL0     H41151   3.919   6.029   4.984  1.3469  0.1652  1.0433
  305MOL0     H41152   3.764   6.121   4.971 -1.0489 -0.7288  0.5107
  305MOL0     H41153   3.815   5.944   5.209 -0.3847  0.4207  1.4806
  305MOL0     H41154   3.676   6.055   5.172 -0.8601  2.0269 -1.6514
  305MOL0     H41155   3.831   6.186   5.321 -2.9366 -0.0532 -1.1302
  305MOL0     H41156   3.858   6.228   5.155  0.4888  1.3277  1.1922
  305MOL0     H41157   3.305   5.812   4.397  1.0173 -1.3265  1.1746
  305MOL0     H41158   3.139   5.703   4.231  3.6341 -0.4445 -1.1396
  305MOL0     H41159   2.837   5.335   4.220  2.0809  2.6031 -0.3928
  305MOL0     H41160   2.706   5.169   4.095 -0.3952  0.5625 -0.9350
  305MOL0     H41161   3.495   5.320   5.006 -0.1371 -0.4549  1.1800
  305MOL0     H41162   3.760   5.306   5.063 -2.3176  0.2975  1.4960
  305MOL0     H41163   4.181   5.192   4.953  2.9078  0.9777  0.1616
  305MOL0     H41164   4.409   5.244   5.021 -2.0737  1.8857 -0.7719
  305MOL0     H41165   4.515   5.187   5.458  2.4555 -0.4625  0.5531
  305MOL0     H41166   4.643   5.297   5.412 -0.5820  1.9035  1.2120
  305MOL0     H41167   4.353   5.373   5.477 -0.1026  4.3310  1.3422
  305MOL0     H41168   4.458   5.477   5.391  0.4218 -1.1398 -0.8585
  305MOL0     H41169   4.463   5.529   5.644 -1.1603  0.5926 -2.0891
  305MOL0     H41170   4.615   5.488   5.570  0.5177  0.3450  0.8957
  305MOL0     H41171   4.585   5.373   5.778  1.0542 -3.2388  0.7302
  305MOL0     H41172   4.579   5.248   5.649 -1.7441 -1.3971  1.4762
  305MOL0     H41173   4.190   5.203   5.793 -0.1515 -1.9408 -0.6116
  305MOL0     H41174   4.323   5.112   5.422 -0.9497 -1.4748  1.5961
  305MOL0     H41175   4.085   5.096   5.372 -0.3605 -0.1514 -0.7005
  306MOL0     O41176  11.397  11.196   9.145 -0.0704  0.0496  0.2744
  306MOL0     C41177  11.311  11.286   9.179 -0.3988 -0.2101  0.2112
  306MOL0     O41178  11.343  11.422   9.178  0.5585 -0.3845  0.1439
  306MOL0     C41179  11.448  11.479   9.100  0.3165  0.2248 -0.3930
  306MOL0     C41180  11.493  11.603   9.141 -0.2887  0.5392 -0.3287
  306MOL0     C41181  11.606  11.668   9.083  0.1504 -0.3316  0.9317
  306MOL0     C41182  11.675  11.610   8.986  0.5062 -0.5515 -0.2402
  306MOL0     O41183  11.785  11.662   8.928 -0.5440  0.0717  0.3414
  306MOL0     C41184  11.772  11.723   8.804  0.3856  0.2331  0.8142
  306MOL0     C41185  11.787  11.870   8.826  0.3251 -0.2301 -0.9175
  306MOL0     C41186  11.925  11.912   8.891 -0.1684 -0.2675  1.5270
  306MOL0     C41187  11.896  11.957   9.036 -0.3314 -0.5685  0.5653
  306MOL0     C41188  12.021  11.992   9.130  0.4499  0.4414  0.0606
  306MOL0     C41189  12.075  12.131   9.106  0.4928 -0.7163 -0.0723
  306MOL0     C41190  12.193  12.166   9.205  0.0587  0.3788 -0.4884
  306MOL0     C41191  12.261  12.298   9.179 -0.4718  0.1027 -1.5614
  306MOL0     N41192  12.324  12.329   9.308  0.7378 -0.0714  0.7337
  306MOL0     C41193  12.425  12.262   9.372 -0.9276 -0.4345 -0.4847
  306MOL0     C41194  12.468  12.338   9.475  0.0860 -0.2992  0.0156
  306MOL0     C41195  12.587  12.308   9.566  0.1221 -0.3146 -0.2606
  306MOL0     C41196  12.713  12.320   9.489 -0.1762  0.5865 -0.3287
  306MOL0     C41197  12.734  12.457   9.426 -0.2059  0.2187 -0.0720
  306MOL0     C41198  12.880  12.489   9.430  0.4806  0.9018 -0.2011
  306MOL0     O41199  12.895  12.603   9.336 -0.1065  0.3932 -0.2684
  306MOL0     C41200  13.021  12.648   9.332  0.2845  0.1443 -0.4736
  306MOL0     C41201  13.022  12.779   9.282 -1.0934 -0.2992  0.1645
  306MOL0     C41202  13.159  12.838   9.265  1.3248 -0.5927 -0.2572
  306MOL0     C41203  13.145  12.987   9.253 -0.1664  0.7197 -0.4204
  306MOL0     C41204  13.274  12.769   9.302  0.5193 -0.1363 -0.6004
  306MOL0     C41205  13.405  12.832   9.293  0.0936  0.6995 -0.3063
  306MOL0     O41206  13.503  12.749   9.332  0.4799 -0.7075  0.3417
  306MOL0     C41207  13.642  12.772   9.321 -0.4012  0.4035 -0.3775
  306MOL0     C41208  13.723  12.674   9.377 -0.3478 -0.6163 -0.8827
  306MOL0     C41209  13.863  12.687   9.383  0.4158 -0.0959 -0.0303
  306MOL0     C41210  13.921  12.803   9.335  0.2205 -0.6744 -0.5014
  306MOL0     O41211  14.063  12.811   9.353  0.0001 -0.0459 -0.4552
  306MOL0     C41212  14.132  12.913   9.274  0.8844 -0.1742  0.9197
  306MOL0     C41213  14.131  13.050   9.333 -0.0829  0.3129  0.2171
  306MOL0     C41214  14.228  13.068   9.458  0.1114  0.0847 -0.8232
  306MOL0     C41215  14.173  12.997   9.580  0.3732 -0.6682  0.0597
  306MOL0     C41216  14.233  13.052   9.703 -0.1265 -0.3518 -0.4379
  306MOL0     C41217  14.195  12.979   9.830 -0.0478  0.3919  0.1648
  306MOL0     C41218  14.044  12.985   9.873 -0.6862 -0.3192 -1.1388
  306MOL0     C41219  13.998  13.125   9.910 -0.7551 -0.6384  0.0316
  306MOL0    Cl41220  14.077  13.185  10.065  0.1423 -0.1734  0.7222
  306MOL0     C41221  13.844  12.890   9.269 -0.7734  0.3095  0.4065
  306MOL0     C41222  13.706  12.886   9.267 -0.0029 -0.6493  0.0896
  306MOL0     O41223  13.419  12.949   9.264 -0.2486 -0.1999  0.2999
  306MOL0     C41224  13.260  12.635   9.335 -1.1052 -0.0268 -1.3326
  306MOL0     C41225  13.138  12.573   9.355 -0.4897 -0.1670 -0.8888
  306MOL0     N41226  12.378  12.449   9.469 -0.0169 -0.3062  0.4032
  306MOL0     N41227  12.295  12.444   9.372  0.0634  0.3154 -0.2195
  306MOL0     C41228  11.635  11.485   8.945 -0.3377  0.8985 -0.4948
  306MOL0     C41229  11.524  11.421   8.996  0.1576 -0.2051 -0.7674
  306MOL0     C41230  11.191  11.247   9.232  0.8252  0.5500  1.4546
  306MOL0     C41231  11.076  11.330   9.268 -0.6874 -0.7677  0.7190
  306MOL0     C41232  10.953  11.285   9.308  0.1972  0.0447 -0.1141
  306MOL0     C41233  10.937  11.148   9.321  0.3580  0.0633 -0.2226
  306MOL0     O41234  10.818  11.109   9.386 -0.9103  0.1579  0.7253
  306MOL0     C41235  10.785  10.970   9.400  0.3143 -0.0028 -0.5536
  306MOL0     C41236  10.730  10.897   9.277 -0.0392 -0.4397 -0.1790
  306MOL0     C41237  10.625  10.794   9.297 -0.3200  0.9367 -0.6785
  306MOL0     C41238  10.672  10.653   9.352 -1.5131  0.1564  0.7390
  306MOL0     C41239  10.556  10.561   9.357  0.0531  0.3116 -0.5869
  306MOL0     C41240  10.467  10.482   9.383  0.2645 -0.2336 -0.1450
  306MOL0     C41241  11.044  11.061   9.285 -1.0489 -0.0117  1.0914
  306MOL0     C41242  11.165  11.107   9.230  0.6851  0.3869  0.4251
  306MOL0     H41243  11.436  11.637   9.227 -0.6332 -2.1709  0.6235
  306MOL0     H41244  11.641  11.764   9.120  2.4188 -0.4486 -0.6577
  306MOL0     H41245  11.853  11.693   8.738 -2.1259 -1.6696 -1.6502
  306MOL0     H41246  11.683  11.688   8.752  2.5182 -2.5113 -1.3024
  306MOL0     H41247  11.765  11.918   8.730 -2.9220  1.3919  0.4942
  306MOL0     H41248  11.698  11.896   8.884  0.6001  2.6784 -1.6518
  306MOL0     H41249  11.996  11.829   8.904  0.4458 -0.6628 -2.9526
  306MOL0     H41250  11.961  11.991   8.826 -2.9448 -1.0385 -1.2120
  306MOL0     H41251  11.818  12.034   9.045 -0.6021 -0.7489 -0.1675
  306MOL0     H41252  11.853  11.865   9.077  0.3114 -1.2806 -0.3425
  306MOL0     H41253  11.992  11.998   9.235  0.0041 -0.5151 -0.0019
  306MOL0     H41254  12.093  11.911   9.121 -0.4823 -0.7028  2.2502
  306MOL0     H41255  12.109  12.145   9.003  1.1080  0.3602  0.2628
  306MOL0     H41256  11.989  12.199   9.109 -1.8176 -3.4704  2.1214
  306MOL0     H41257  12.151  12.161   9.305  0.0448 -0.6818 -0.5333
  306MOL0     H41258  12.272  12.091   9.193  2.0238  2.4484 -1.2229
  306MOL0     H41259  12.195  12.382   9.155 -2.6955 -0.5556  1.5834
  306MOL0     H41260  12.330  12.281   9.095  1.2668 -1.6579  0.1121
  306MOL0     H41261  12.469  12.169   9.335 -3.8526 -2.3677  0.4998
  306MOL0     H41262  12.587  12.371   9.656  4.3200 -0.0413 -0.2159
  306MOL0     H41263  12.575  12.206   9.603 -0.4908  0.5081  2.0252
  306MOL0     H41264  12.715  12.245   9.410  0.3176 -0.3662  0.5656
  306MOL0     H41265  12.788  12.295   9.564 -0.8864  0.2495  0.2810
  306MOL0     H41266  12.688  12.531   9.492 -1.0330 -1.5919  1.4857
  306MOL0     H41267  12.684  12.458   9.329 -2.5125  0.4091  1.0458
  306MOL0     H41268  12.922  12.391   9.409 -2.3840 -0.3701 -0.4931
  306MOL0     H41269  12.916  12.512   9.531 -2.2407 -1.2573  1.3972
  306MOL0     H41270  12.933  12.839   9.263 -0.3908  1.1393  1.1819
  306MOL0     H41271  13.227  13.029   9.193  0.6737 -1.8288 -1.1846
  306MOL0     H41272  13.058  13.019   9.195 -2.1917 -2.7407  0.4188
  306MOL0     H41273  13.141  13.028   9.354  4.8699 -1.0362  0.7852
  306MOL0     H41274  13.680  12.586   9.425 -1.4132  0.4588  0.2070
  306MOL0     H41275  13.925  12.604   9.416  0.6860  0.2470  0.3244
  306MOL0     H41276  14.235  12.877   9.275  0.6845 -0.8857  3.8642
  306MOL0     H41277  14.098  12.915   9.170 -0.3491 -1.0172  1.2821
  306MOL0     H41278  14.186  13.108   9.257  0.4963  1.8883  1.7859
  306MOL0     H41279  14.035  13.098   9.351 -0.1523  1.1594 -2.0824
  306MOL0     H41280  14.241  13.173   9.485  2.9303 -0.2846 -0.4304
  306MOL0     H41281  14.327  13.025   9.438  1.3711  1.2014  2.3828
  306MOL0     H41282  14.064  13.012   9.583  0.0923 -2.3712 -0.3270
  306MOL0     H41283  14.201  12.891   9.576 -2.2550 -1.4755  0.6319
  306MOL0     H41284  14.204  13.157   9.708 -3.4156 -1.0860 -1.4433
  306MOL0     H41285  14.341  13.060   9.688 -0.2021 -0.3206 -0.9820
  306MOL0     H41286  14.205  12.870   9.826  0.5754 -0.0031  5.5459
  306MOL0     H41287  14.256  13.008   9.916  1.8470 -0.8880 -0.6777
  306MOL0     H41288  14.036  12.916   9.957 -1.0494 -1.0955 -1.7903
  306MOL0     H41289  13.974  12.941   9.801 -0.7281  0.3413 -1.5067
  306MOL0     H41290  13.890  13.122   9.926 -0.5620  1.5098  2.4391
  306MOL0     H41291  14.007  13.207   9.839 -3.4102  0.2257  0.5859
  306MOL0     H41292  13.890  12.971   9.214  1.1050 -0.2979  1.0025
  306MOL0     H41293  13.662  12.964   9.205  2.3787  1.4913  0.9204
  306MOL0     H41294  13.347  12.572   9.347 -0.5539  0.7203 -1.3225
  306MOL0     H41295  13.127  12.468   9.381  0.1426 -0.4657 -1.7970
  306MOL0     H41296  11.696  11.437   8.868  0.0410 -0.5895  0.6824
  306MOL0     H41297  11.497  11.323   8.957  1.1692 -0.8515  0.0905
  306MOL0     H41298  11.086  11.437   9.255  0.5157 -1.1583 -2.4340
  306MOL0     H41299  10.872  11.354   9.328  1.3337  1.2495  0.4629
  306MOL0     H41300  10.871  10.916   9.441 -0.0152 -1.1317 -1.3018
  306MOL0     H41301  10.703  10.965   9.473  1.1730 -1.0012  0.3722
  306MOL0     H41302  10.811  10.857   9.215  0.0575 -1.6359  0.7072
  306MOL0     H41303  10.673  10.973   9.222  1.8297 -0.6683 -2.6311
  306MOL0     H41304  10.559  10.781   9.210  0.2472 -1.1888 -0.8522
  306MOL0     H41305  10.558  10.838   9.372 -0.7047  2.3456 -1.7962
  306MOL0     H41306  10.715  10.667   9.451  2.3908 -0.6727 -0.6290
  306MOL0     H41307  10.737  10.611   9.274 -2.2310 -1.3142  0.9049
  306MOL0     H41308  10.402  10.406   9.420 -1.6023  0.5399 -1.6486
  306MOL0     H41309  11.035  10.954   9.305  2.1930 -0.4031  0.9725
  306MOL0     H41310  11.245  11.045   9.190  1.2795  1.2744  0.2225
  307MOL0     O41311   7.627   7.714   6.303 -0.2297 -0.7661 -0.1757
  307MOL0     C41312   7.731   7.658   6.281 -0.7249  0.0400 -0.1074
  307MOL0     O41313   7.805   7.677   6.167 -0.1923  0.5197 -0.5516
  307MOL0     C41314   7.785   7.781   6.077  0.5542  0.3708 -0.7509
  307MOL0     C41315   7.690   7.888   6.083 -0.5127 -0.7036 -0.6023
  307MOL0     C41316   7.696   7.989   5.986  0.3873 -0.1179  0.6353
  307MOL0     C41317   7.782   7.975   5.873 -0.1123 -1.0784 -0.3709
  307MOL0     O41318   7.774   8.066   5.773  0.6320  0.0525  0.0612
  307MOL0     C41319   7.647   8.063   5.702 -0.0528 -1.0876 -0.0164
  307MOL0     C41320   7.624   7.941   5.619  0.2468  0.0555 -1.0572
  307MOL0     C41321   7.700   7.950   5.490 -0.1726  0.7613 -0.4715
  307MOL0     C41322   7.846   7.930   5.514 -0.8842  0.7825 -0.2536
  307MOL0     C41323   7.910   7.868   5.375 -0.1255 -0.2831 -0.1695
  307MOL0     C41324   8.055   7.839   5.408  0.4298  0.2407  0.4246
  307MOL0     C41325   8.132   7.786   5.295 -0.8448 -0.2812 -0.5944
  307MOL0     C41326   8.275   7.759   5.308  0.3651  0.0012  0.9189
  307MOL0     N41327   8.300   7.648   5.401 -1.0618 -0.1097 -0.5075
  307MOL0     C41328   8.302   7.660   5.537  0.4104 -0.6141  0.5340
  307MOL0     C41329   8.322   7.533   5.586 -0.4059 -0.8159 -0.0596
  307MOL0     C41330   8.326   7.482   5.730  0.3981 -0.3802 -0.3242
  307MOL0     C41331   8.429   7.554   5.827 -0.3682  0.0691  0.9315
  307MOL0     C41332   8.574   7.520   5.795  0.0228  0.5404 -0.4564
  307MOL0     C41333   8.658   7.545   5.917 -0.5963  0.6565 -0.3715
  307MOL0     O41334   8.627   7.680   5.972  0.0741 -0.4653 -0.2012
  307MOL0     C41335   8.661   7.712   6.104  0.4450  0.2468 -0.2306
  307MOL0     C41336   8.570   7.782   6.173  0.1064 -0.4523 -0.5377
  307MOL0     C41337   8.607   7.807   6.311  1.2908 -0.3045 -0.5936
  307MOL0     C41338   8.504   7.879   6.397 -0.7526  0.1600  1.0687
  307MOL0     C41339   8.737   7.774   6.365  0.4050  0.7358  0.1692
  307MOL0     C41340   8.784   7.815   6.491 -0.6116 -0.0345 -0.4375
  307MOL0     O41341   8.767   7.947   6.517 -0.1142  0.0143 -0.6146
  307MOL0     C41342   8.838   7.996   6.622 -0.7049 -0.1102  0.1397
  307MOL0     C41343   8.970   8.055   6.625 -0.7068  0.0145  0.4091
  307MOL0     C41344   9.031   8.101   6.740 -0.9189  0.3842 -0.0972
  307MOL0     C41345   8.971   8.087   6.862  0.3037  0.2333 -0.5685
  307MOL0     O41346   9.013   8.136   6.977 -0.3758 -0.2238  0.6382
  307MOL0     C41347   9.104   8.249   6.973  0.2970  0.3068  1.5182
  307MOL0     C41348   9.110   8.334   7.100  0.1164  0.9280  0.1293
  307MOL0     C41349   9.167   8.264   7.224  0.6037  0.7397  0.0832
  307MOL0     C41350   9.320   8.252   7.221 -0.1633  0.6362  0.5954
  307MOL0     C41351   9.383   8.186   7.353  0.3394  0.7011  0.1659
  307MOL0     C41352   9.533   8.195   7.356 -0.5507 -0.1960  0.4149
  307MOL0     C41353   9.600   8.093   7.275  0.3951 -0.0406 -0.3831
  307MOL0     C41354   9.745   8.077   7.297 -0.1971 -0.1256 -0.4969
  307MOL0    Cl41355   9.830   8.222   7.228  0.2086 -0.2396  0.1933
  307MOL0     C41356   8.840   8.031   6.865 -0.2664 -0.4103  0.1820
  307MOL0     C41357   8.782   7.985   6.742  0.8666 -0.6814 -0.9099
  307MOL0     O41358   8.861   7.743   6.548 -0.3270 -0.7266  0.0165
  307MOL0     C41359   8.820   7.713   6.278 -0.2634 -0.1889 -0.5047
  307MOL0     C41360   8.790   7.684   6.152 -0.0451 -0.2759  0.3377
  307MOL0     N41361   8.356   7.456   5.474  0.0488 -0.5468 -0.5038
  307MOL0     N41362   8.343   7.521   5.363 -0.4513  0.1097 -0.1950
  307MOL0     C41363   7.868   7.863   5.870  0.2476 -0.0696 -0.6345
  307MOL0     C41364   7.867   7.771   5.969 -0.4603 -0.4525  0.4455
  307MOL0     C41365   7.778   7.572   6.389  0.0269 -0.4240  0.1020
  307MOL0     C41366   7.915   7.530   6.398 -0.4578 -0.1218  0.0639
  307MOL0     C41367   7.962   7.454   6.510 -0.3135  0.0795  0.3377
  307MOL0     C41368   7.867   7.410   6.603 -0.3775 -0.0793  0.9135
  307MOL0     O41369   7.889   7.323   6.708 -0.3362 -1.0354  1.0472
  307MOL0     C41370   8.008   7.344   6.794 -0.2338  0.6393  0.6843
  307MOL0     C41371   7.970   7.425   6.922  0.0853  0.1019  0.0687
  307MOL0     C41372   7.946   7.580   6.901 -0.1157 -0.0822  0.7265
  307MOL0     C41373   8.018   7.652   7.012  0.3219 -0.0212 -0.3147
  307MOL0     C41374   8.009   7.795   6.997 -0.3208  0.2685 -0.3803
  307MOL0     C41375   7.979   7.909   6.977 -0.3968 -0.2674 -0.8227
  307MOL0     C41376   7.734   7.451   6.594  0.3169  0.2066 -0.0610
  307MOL0     C41377   7.690   7.534   6.497  0.3966 -0.4685 -0.0937
  307MOL0     H41378   7.616   7.913   6.158 -0.0804  1.9044 -0.9548
  307MOL0     H41379   7.624   8.070   5.987 -0.4726 -0.7519 -1.9139
  307MOL0     H41380   7.573   8.082   5.780  0.6923 -2.1405  1.0023
  307MOL0     H41381   7.652   8.140   5.625  1.9491  0.8342  1.8996
  307MOL0     H41382   7.645   7.847   5.671  1.1379  0.2750 -1.0118
  307MOL0     H41383   7.518   7.933   5.594 -0.2803  3.0417 -0.1616
  307MOL0     H41384   7.656   7.867   5.435 -0.0491  0.7106 -0.4940
  307MOL0     H41385   7.673   8.034   5.426 -1.7945  0.9433  0.3937
  307MOL0     H41386   7.897   8.025   5.531  0.8266  0.1292 -1.4125
  307MOL0     H41387   7.871   7.861   5.594  2.7899 -0.3043 -2.0885
  307MOL0     H41388   7.856   7.775   5.353  0.1210 -0.9591  1.8884
  307MOL0     H41389   7.890   7.940   5.296  0.1694  0.6395  0.5772
  307MOL0     H41390   8.096   7.932   5.449 -2.5572  0.8078  2.3961
  307MOL0     H41391   8.059   7.754   5.477 -3.3109  0.0031  0.5368
  307MOL0     H41392   8.088   7.692   5.261  3.7885 -2.6752 -0.7372
  307MOL0     H41393   8.129   7.854   5.210  0.7557  1.2643  0.5256
  307MOL0     H41394   8.328   7.849   5.339 -1.1464  1.4319 -0.4748
  307MOL0     H41395   8.310   7.727   5.209  0.2922 -1.6856  1.4003
  307MOL0     H41396   8.269   7.740   5.603 -0.7523 -0.5373 -0.1056
  307MOL0     H41397   8.228   7.510   5.768  0.2718  2.1633 -2.2979
  307MOL0     H41398   8.336   7.373   5.737 -1.9183 -0.5514  1.7347
  307MOL0     H41399   8.405   7.507   5.923  0.9929 -1.7580  0.4321
  307MOL0     H41400   8.414   7.662   5.836 -0.2122  0.1717  0.0915
  307MOL0     H41401   8.608   7.591   5.719  0.1144  3.3891  2.0276
  307MOL0     H41402   8.574   7.415   5.766  0.1153  1.0569 -2.4609
  307MOL0     H41403   8.760   7.557   5.878 -0.3558  1.5504  0.4907
  307MOL0     H41404   8.649   7.459   5.984 -0.9079 -0.7938 -2.1867
  307MOL0     H41405   8.476   7.792   6.120 -0.0993 -1.9448 -0.4772
  307MOL0     H41406   8.402   7.866   6.359 -0.5774  1.4115  0.0991
  307MOL0     H41407   8.502   7.817   6.487 -0.2278 -1.6415 -0.1002
  307MOL0     H41408   8.532   7.984   6.407  2.3104 -0.3305 -1.0702
  307MOL0     H41409   9.037   8.066   6.540  1.1929 -0.8999  1.7168
  307MOL0     H41410   9.126   8.153   6.729 -0.3988 -0.8752 -2.1684
  307MOL0     H41411   9.204   8.208   6.956 -0.5019 -1.8411  1.5829
  307MOL0     H41412   9.069   8.319   6.898  0.8340  0.0808  1.0511
  307MOL0     H41413   9.170   8.424   7.078  0.5994  1.4277  3.0540
  307MOL0     H41414   9.003   8.351   7.112 -0.0383  2.2338 -2.4311
  307MOL0     H41415   9.121   8.167   7.245 -1.2857  0.9495 -2.5728
  307MOL0     H41416   9.137   8.327   7.308  0.7206  3.0508 -1.5272
  307MOL0     H41417   9.362   8.214   7.127 -0.4753  2.5981 -0.4043
  307MOL0     H41418   9.355   8.356   7.222  0.9123  0.3015 -0.0059
  307MOL0     H41419   9.365   8.078   7.357  1.5781  0.4797  0.2479
  307MOL0     H41420   9.341   8.246   7.434  0.9485  3.1580 -1.2377
  307MOL0     H41421   9.577   8.292   7.335 -2.9087  1.0707  0.9519
  307MOL0     H41422   9.560   8.172   7.459 -3.9978  0.0503  1.5115
  307MOL0     H41423   9.578   8.112   7.170 -0.2834 -0.3201 -0.2968
  307MOL0     H41424   9.559   7.997   7.308  2.9532 -1.0624  0.0662
  307MOL0     H41425   9.770   7.984   7.246  0.7667  1.4254 -3.0117
  307MOL0     H41426   9.775   8.070   7.402 -1.9794  0.4752  0.0841
  307MOL0     H41427   8.780   8.032   6.955 -1.9807  0.4554 -0.9194
  307MOL0     H41428   8.683   7.941   6.744  0.7950 -0.5133  1.1698
  307MOL0     H41429   8.919   7.685   6.315 -1.5924 -3.0986  1.1810
  307MOL0     H41430   8.867   7.657   6.081 -2.3593  0.4076 -2.6531
  307MOL0     H41431   7.943   7.850   5.793 -0.9013  0.0514 -1.7952
  307MOL0     H41432   7.937   7.688   5.968  2.4965  1.8735 -0.5738
  307MOL0     H41433   7.983   7.570   6.324 -2.2468 -0.0511 -1.6033
  307MOL0     H41434   8.064   7.419   6.522  0.2246  0.4262 -2.5548
  307MOL0     H41435   8.043   7.246   6.826  0.5790  0.7431  0.1309
  307MOL0     H41436   8.094   7.395   6.748  0.2059 -1.5125 -1.0055
  307MOL0     H41437   8.045   7.397   6.997  0.3541 -1.4064 -0.7110
  307MOL0     H41438   7.878   7.382   6.962 -0.2672  1.3620  0.6623
  307MOL0     H41439   7.839   7.601   6.912 -0.1867  0.4216 -0.7947
  307MOL0     H41440   7.984   7.610   6.803 -2.9106 -0.7410 -0.6646
  307MOL0     H41441   8.124   7.624   7.015  0.3849  0.2899  0.8651
  307MOL0     H41442   7.973   7.626   7.108  1.3732  0.9314  0.4618
  307MOL0     H41443   7.965   8.015   6.974 -0.2767 -0.2409 -0.5221
  307MOL0     H41444   7.669   7.417   6.674 -0.4843 -1.4368 -1.3420
  307MOL0     H41445   7.582   7.545   6.494  0.5324  0.8071 -0.6930
  308MOL0     O41446   6.539   3.016   9.702 -0.4972  0.6027 -0.4629
  308MOL0     C41447   6.455   3.099   9.721  0.0697  0.9041 -0.0215
  308MOL0     O41448   6.457   3.195   9.819  0.2828 -0.8464  0.1793
  308MOL0     C41449   6.566   3.235   9.897  0.0358  0.0098  0.0189
  308MOL0     C41450   6.539   3.292  10.027 -0.3767  0.3935 -0.2479
  308MOL0     C41451   6.641   3.358  10.095  0.6540  0.3414  0.5965
  308MOL0     C41452   6.773   3.356  10.053  0.0536 -0.6114  0.0279
  308MOL0     O41453   6.881   3.423  10.118  0.5605  0.3023  0.3474
  308MOL0     C41454   6.865   3.468  10.251 -0.5554 -0.4723  0.5064
  308MOL0     C41455   7.005   3.508  10.301 -0.5232  0.3765  0.2625
  308MOL0     C41456   7.106   3.396  10.337  1.0966  0.3964 -0.2042
  308MOL0     C41457   7.228   3.435  10.418  0.7195 -0.4604  0.3541
  308MOL0     C41458   7.328   3.323  10.422  0.7183  1.0993 -0.1363
  308MOL0     C41459   7.445   3.361  10.522 -0.3069  0.2599  0.2338
  308MOL0     C41460   7.549   3.250  10.542  0.8452 -0.4157  0.9680
  308MOL0     C41461   7.663   3.289  10.630  0.5714  0.5199 -0.6870
  308MOL0     N41462   7.642   3.254  10.769  0.1925 -0.4740  0.7321
  308MOL0     C41463   7.626   3.137  10.834 -0.0388  0.1058 -0.1166
  308MOL0     C41464   7.642   3.150  10.965  0.9895 -0.1184  0.3717
  308MOL0     C41465   7.660   3.037  11.067 -0.0897 -0.1738  0.8711
  308MOL0     C41466   7.556   3.043  11.170  1.2912 -0.3225 -0.5204
  308MOL0     C41467   7.555   2.930  11.270  0.3492 -0.2631  0.4613
  308MOL0     C41468   7.425   2.903  11.335 -0.1256 -1.1290  0.4551
  308MOL0     O41469   7.341   2.854  11.229 -0.2559 -0.1243 -0.3070
  308MOL0     C41470   7.207   2.853  11.256  0.2603  0.1364  0.1018
  308MOL0     C41471   7.117   2.852  11.146 -0.6856 -0.2764  0.6889
  308MOL0     C41472   6.983   2.828  11.167  0.3697  0.5108  0.8393
  308MOL0     C41473   6.895   2.812  11.040 -0.0530  0.4881  0.2001
  308MOL0     C41474   6.931   2.801  11.296  0.1683  0.6358 -0.4965
  308MOL0     C41475   6.793   2.780  11.332  0.1223  0.1229  0.0812
  308MOL0     O41476   6.763   2.704  11.446  0.6972  0.1485 -0.8247
  308MOL0     C41477   6.622   2.683  11.474 -0.6588 -0.3036  0.0861
  308MOL0     C41478   6.590   2.556  11.494  0.1261 -0.1864 -0.2371
  308MOL0     C41479   6.462   2.507  11.536 -0.2427  0.7268  0.3373
  308MOL0     C41480   6.365   2.611  11.553  0.6272  0.4675  0.3148
  308MOL0     O41481   6.233   2.588  11.565 -0.6339  0.1269 -0.1773
  308MOL0     C41482   6.201   2.499  11.674  0.3845  0.0873 -0.4455
  308MOL0     C41483   6.160   2.575  11.796 -0.6245 -0.6777 -1.1986
  308MOL0     C41484   6.197   2.502  11.920  0.1562 -0.6716 -0.7945
  308MOL0     C41485   6.107   2.382  11.936 -1.4960 -0.0096 -0.1948
  308MOL0     C41486   6.188   2.247  11.973  0.4087  0.1359  0.0103
  308MOL0     C41487   6.240   2.274  12.116 -0.0320  0.3692  1.0679
  308MOL0     C41488   6.304   2.145  12.165  0.3471  0.0336 -1.3080
  308MOL0     C41489   6.214   2.016  12.180 -0.5116 -0.2725 -0.2989
  308MOL0    Cl41490   6.083   2.040  12.294  0.0966 -0.5069 -0.7112
  308MOL0     C41491   6.408   2.742  11.548  0.8555 -0.5939  0.8187
  308MOL0     C41492   6.536   2.787  11.513 -0.5093  0.0844  0.5145
  308MOL0     O41493   6.702   2.807  11.248  0.3574 -0.1383 -0.5501
  308MOL0     C41494   7.019   2.796  11.406 -0.5446  0.0095  0.1407
  308MOL0     C41495   7.155   2.822  11.378  0.7950 -0.4459  0.0747
  308MOL0     N41496   7.673   3.288  10.979 -0.5102  0.0216  0.0962
  308MOL0     N41497   7.665   3.350  10.870  0.3457  0.2964  0.7996
  308MOL0     C41498   6.795   3.300   9.933  0.5020  0.1092 -0.1091
  308MOL0     C41499   6.701   3.237   9.855 -0.0575  0.6497  0.1052
  308MOL0     C41500   6.329   3.094   9.634 -0.7040 -0.3161 -0.3959
  308MOL0     C41501   6.220   3.188   9.647  0.5014  0.0952 -0.5461
  308MOL0     C41502   6.112   3.177   9.555  1.1021 -1.2554 -0.3319
  308MOL0     C41503   6.113   3.099   9.441 -0.2569 -1.1775 -1.0326
  308MOL0     O41504   6.021   3.108   9.344  0.2052  0.5178  0.0132
  308MOL0     C41505   5.890   3.162   9.379 -0.5508  0.0550 -0.9843
  308MOL0     C41506   5.833   3.225   9.250  0.0603 -0.5909 -0.6644
  308MOL0     C41507   5.703   3.307   9.271  0.3857  0.9481  0.7244
  308MOL0     C41508   5.593   3.217   9.325 -0.2622 -0.7373 -0.1350
  308MOL0     C41509   5.460   3.277   9.312 -0.2723  0.5810  0.0070
  308MOL0     C41510   5.357   3.341   9.288 -0.4751  0.1745 -0.0112
  308MOL0     C41511   6.223   3.017   9.426 -0.2610  1.4086 -0.0814
  308MOL0     C41512   6.330   3.016   9.514  1.0200 -0.9058  0.2494
  308MOL0     H41513   6.443   3.297  10.076  0.7798  1.9985  2.0246
  308MOL0     H41514   6.598   3.412  10.179 -1.8329 -0.1945 -0.2621
  308MOL0     H41515   6.792   3.550  10.254  1.3163  1.2692  0.0032
  308MOL0     H41516   6.822   3.398  10.323 -1.4615 -0.6700 -0.2077
  308MOL0     H41517   7.045   3.567  10.219  1.7171 -1.2063  0.1024
  308MOL0     H41518   6.987   3.575  10.385  0.6714  1.1332 -0.0612
  308MOL0     H41519   7.048   3.316  10.384 -0.9405 -0.6793 -4.0503
  308MOL0     H41520   7.127   3.349  10.240 -0.0103  0.8918 -0.7039
  308MOL0     H41521   7.288   3.517  10.380 -0.6476 -0.1855 -1.3153
  308MOL0     H41522   7.193   3.470  10.515 -2.9609  0.3364 -1.0955
  308MOL0     H41523   7.283   3.228  10.455  0.1415  1.3588 -0.1643
  308MOL0     H41524   7.383   3.309  10.329  1.0309 -0.8848  0.2900
  308MOL0     H41525   7.496   3.446  10.474  0.9575 -2.0071 -2.7572
  308MOL0     H41526   7.412   3.387  10.623 -1.7665 -3.5841  0.8878
  308MOL0     H41527   7.496   3.159  10.570  0.4441 -1.5554 -2.8848
  308MOL0     H41528   7.590   3.227  10.443 -0.3310  2.4835 -0.2969
  308MOL0     H41529   7.690   3.395  10.629 -0.2685  0.9867  4.1616
  308MOL0     H41530   7.752   3.236  10.598  1.5826  2.8821 -2.0850
  308MOL0     H41531   7.601   3.043  10.784 -1.9552  1.3690 -1.6960
  308MOL0     H41532   7.652   2.945  11.009 -1.9527  1.1917 -1.1943
  308MOL0     H41533   7.753   3.042  11.124  0.4771 -1.9498  0.1410
  308MOL0     H41534   7.457   3.044  11.122  1.2916 -1.7811 -0.5813
  308MOL0     H41535   7.574   3.141  11.215  0.1814  2.1376 -4.7956
  308MOL0     H41536   7.616   2.957  11.357  0.1952 -1.4436  0.9555
  308MOL0     H41537   7.587   2.834  11.231  4.4820 -0.3121  3.2893
  308MOL0     H41538   7.387   2.990  11.390  0.3991 -0.5416 -0.1002
  308MOL0     H41539   7.443   2.824  11.409  0.1545 -0.1993  1.3914
  308MOL0     H41540   7.152   2.866  11.044 -2.0700  0.1472  0.2492
  308MOL0     H41541   6.962   2.793  10.956  4.7414  0.7071  3.5797
  308MOL0     H41542   6.829   2.725  11.049 -0.3667  0.4127 -2.2583
  308MOL0     H41543   6.831   2.894  11.005  0.0050  0.9687  1.1844
  308MOL0     H41544   6.665   2.483  11.467 -1.5635 -1.7864 -0.8586
  308MOL0     H41545   6.449   2.399  11.541 -0.0345  0.6973  0.2484
  308MOL0     H41546   6.109   2.450  11.643  0.5178  0.2450 -1.1106
  308MOL0     H41547   6.283   2.429  11.690  1.1437  1.0928  0.2131
  308MOL0     H41548   6.209   2.672  11.796 -1.3958 -0.2052  1.8460
  308MOL0     H41549   6.053   2.595  11.798 -0.5451  0.1036  2.4807
  308MOL0     H41550   6.187   2.563  12.010  2.4491 -2.1074  0.5674
  308MOL0     H41551   6.299   2.463  11.908  0.5793  0.2986 -0.4864
  308MOL0     H41552   6.027   2.404  12.007 -2.0333 -1.2667 -0.3851
  308MOL0     H41553   6.044   2.358  11.850 -1.5085 -0.0366 -0.1783
  308MOL0     H41554   6.267   2.228  11.900  1.3551  0.1803  1.0065
  308MOL0     H41555   6.124   2.158  11.970  2.2528 -1.5093  3.2396
  308MOL0     H41556   6.314   2.354  12.112  1.1140 -0.6949  0.5212
  308MOL0     H41557   6.161   2.300  12.187 -1.4876 -0.5411 -0.1466
  308MOL0     H41558   6.344   2.147  12.267 -2.7396 -0.5449  0.0237
  308MOL0     H41559   6.389   2.126  12.100  1.1436 -0.1942 -0.2308
  308MOL0     H41560   6.274   1.930  12.209 -3.8712 -3.9936 -3.2437
  308MOL0     H41561   6.176   1.995  12.079 -0.8260 -1.4578  0.0547
  308MOL0     H41562   6.331   2.814  11.573  0.9919  0.3124 -1.1650
  308MOL0     H41563   6.548   2.895  11.514 -0.5661  0.1095 -0.3648
  308MOL0     H41564   6.986   2.773  11.506  2.7727 -1.1264  1.1056
  308MOL0     H41565   7.220   2.820  11.465  0.5484 -2.7268  0.2718
  308MOL0     H41566   6.895   3.302   9.891  0.4475 -0.0655 -0.2485
  308MOL0     H41567   6.728   3.187   9.762 -3.5992  1.4208 -1.5080
  308MOL0     H41568   6.224   3.248   9.738  2.6052 -1.3533  0.4066
  308MOL0     H41569   6.029   3.244   9.573 -1.1881 -3.7117 -1.0085
  308MOL0     H41570   5.824   3.083   9.417  0.6620 -0.2909  0.5047
  308MOL0     H41571   5.898   3.249   9.445  1.2885  0.2332 -1.3879
  308MOL0     H41572   5.809   3.148   9.175  0.6652  0.3629 -1.8813
  308MOL0     H41573   5.910   3.292   9.211  0.1575 -0.1858  0.1944
  308MOL0     H41574   5.676   3.341   9.170 -0.4321 -0.2466  0.5165
  308MOL0     H41575   5.724   3.393   9.335 -0.5005  1.4896  0.3154
  308MOL0     H41576   5.606   3.214   9.433 -0.2654  1.1722 -0.0370
  308MOL0     H41577   5.594   3.118   9.279 -2.8831 -1.0837  0.3848
  308MOL0     H41578   5.260   3.387   9.286 -1.7199 -2.3189  0.0247
  308MOL0     H41579   6.241   2.943   9.348  2.6152  0.3170  1.4668
  308MOL0     H41580   6.417   2.953   9.498  1.7397 -0.5329  2.3396
  309MOL0     O41581   4.106   0.476   5.068  0.2094  0.2494  1.0347
  309MOL0     C41582   3.986   0.440   5.052 -0.4568 -0.4378 -0.4732
  309MOL0     O41583   3.941   0.376   4.937  0.2724  0.1663  0.0457
  309MOL0     C41584   4.046   0.326   4.852  1.4589 -0.1801 -0.4673
  309MOL0     C41585   4.058   0.381   4.725  0.0845  0.0545  0.7351
  309MOL0     C41586   4.141   0.318   4.630  0.8694  0.0759  0.0724
  309MOL0     C41587   4.223   0.210   4.651  0.2399  0.0171  0.3009
  309MOL0     O41588   4.299   0.141   4.570 -0.7573 -0.6538 -0.3030
  309MOL0     C41589   4.309   0.177   4.437 -0.1000  0.3508 -0.3551
  309MOL0     C41590   4.370   0.058   4.368 -0.3405  0.7067 -0.4138
  309MOL0     C41591   4.380   0.078   4.219  0.2736 -0.6012 -0.9033
  309MOL0     C41592   4.395  -0.056   4.155 -0.5861  0.1520  0.4041
  309MOL0     C41593   4.408  -0.046   3.999 -0.7590  0.0105  0.0133
  309MOL0     C41594   4.540   0.000   3.954  0.5283  0.7018 -0.9731
  309MOL0     C41595   4.661  -0.094   3.969  0.0893 -0.5805  0.1662
  309MOL0     C41596   4.729  -0.140   3.839  0.6240 -0.0598  0.3781
  309MOL0     N41597   4.653  -0.234   3.751  0.2922 -0.3918 -0.1518
  309MOL0     C41598   4.565  -0.186   3.661 -0.6488 -0.4034  0.1606
  309MOL0     C41599   4.514  -0.294   3.604 -0.7859 -0.6006  0.1822
  309MOL0     C41600   4.413  -0.288   3.491  0.2758  0.0714 -0.3180
  309MOL0     C41601   4.283  -0.211   3.526  0.9396  0.3726 -0.1591
  309MOL0     C41602   4.162  -0.280   3.460 -0.3625 -0.4155  0.5084
  309MOL0     C41603   4.033  -0.231   3.520  0.6430  0.6909  0.2380
  309MOL0     O41604   3.919  -0.289   3.446 -0.0474  1.1970  0.0719
  309MOL0     C41605   3.798  -0.229   3.448  0.2087 -0.1765  0.4655
  309MOL0     C41606   3.697  -0.279   3.371  1.1464  0.8826 -0.6241
  309MOL0     C41607   3.561  -0.237   3.368 -0.7667  0.5319  0.7412
  309MOL0     C41608   3.470  -0.308   3.269  0.2126 -0.0198  0.4793
  309MOL0     C41609   3.533  -0.138   3.461  0.5760 -1.4726 -0.3321
  309MOL0     C41610   3.391  -0.084   3.478  0.5993 -0.1702 -0.0978
  309MOL0     O41611   3.284  -0.160   3.431  0.3447 -0.1193  0.0833
  309MOL0     C41612   3.153  -0.131   3.451  0.1577 -0.6697  0.6012
  309MOL0     C41613   3.058  -0.210   3.387  0.8436  0.7509 -0.5544
  309MOL0     C41614   2.919  -0.220   3.414 -0.6791  0.1683  0.1997
  309MOL0     C41615   2.866  -0.120   3.496  0.3877  0.5193  0.1217
  309MOL0     O41616   2.737  -0.089   3.510 -0.3602 -0.5439  0.0933
  309MOL0     C41617   2.656  -0.194   3.544  0.0438 -0.6748  0.5211
  309MOL0     C41618   2.498  -0.156   3.541 -0.0852  0.2351  0.2574
  309MOL0     C41619   2.465  -0.013   3.597  0.0353  0.7472 -0.3344
  309MOL0     C41620   2.318   0.009   3.602 -0.0637 -0.5868  0.6606
  309MOL0     C41621   2.283   0.136   3.674 -0.4673 -0.2295 -0.1382
  309MOL0     C41622   2.138   0.156   3.722 -0.8898 -0.0218 -0.3135
  309MOL0     C41623   2.040   0.209   3.613 -0.8209  0.5565 -0.1559
  309MOL0     C41624   2.092   0.320   3.533 -0.0052 -0.9488 -0.0024
  309MOL0    Cl41625   1.968   0.402   3.426  0.3481  0.1738 -0.6988
  309MOL0     C41626   2.956  -0.023   3.544 -0.1879  0.6078  0.8952
  309MOL0     C41627   3.098  -0.027   3.533  0.8627 -0.8581 -0.4704
  309MOL0     O41628   3.379   0.024   3.539  0.7304  0.2813  0.2161
  309MOL0     C41629   3.639  -0.071   3.540  0.3066 -0.0471 -0.4291
  309MOL0     C41630   3.771  -0.120   3.543  0.7795 -0.3354  0.0757
  309MOL0     N41631   4.578  -0.404   3.656 -0.4584 -0.0989 -0.3273
  309MOL0     N41632   4.669  -0.368   3.741 -0.1631  0.0619  0.1348
  309MOL0     C41633   4.218   0.172   4.790  0.2314 -0.5180  0.0257
  309MOL0     C41634   4.132   0.226   4.887  0.6534  0.0228 -0.1634
  309MOL0     C41635   3.893   0.464   5.155  0.0700  1.1730 -0.0157
  309MOL0     C41636   3.779   0.393   5.165 -0.2893 -0.6008  0.6675
  309MOL0     C41637   3.690   0.420   5.269  0.6167 -0.4092 -0.1120
  309MOL0     C41638   3.708   0.525   5.363 -0.4053 -0.1512  0.1022
  309MOL0     O41639   3.610   0.548   5.461 -0.1120 -0.7862 -0.9444
  309MOL0     C41640   3.598   0.679   5.518 -0.1365  0.2631  0.2279
  309MOL0     C41641   3.481   0.676   5.622 -0.6026  0.7757 -0.2820
  309MOL0     C41642   3.344   0.640   5.568  0.1170  0.6114 -0.3200
  309MOL0     C41643   3.236   0.675   5.676  0.2725  0.7593 -1.0779
  309MOL0     C41644   3.105   0.612   5.641 -0.4951  0.3162  0.9188
  309MOL0     C41645   2.998   0.545   5.626 -0.4653  0.3247  0.2895
  309MOL0     C41646   3.828   0.597   5.354 -0.0959 -0.5551 -0.3270
  309MOL0     C41647   3.924   0.560   5.252 -0.1425  0.8150  0.6233
  309MOL0     H41648   4.007   0.471   4.693 -2.0816 -1.1600  0.5119
  309MOL0     H41649   4.163   0.349   4.528  4.1505 -4.7646 -1.0445
  309MOL0     H41650   4.212   0.208   4.396 -1.3819 -1.3498  1.1765
  309MOL0     H41651   4.385   0.253   4.421 -0.6884  0.4507 -3.2151
  309MOL0     H41652   4.470   0.045   4.409 -1.3775  0.9550  2.4008
  309MOL0     H41653   4.315  -0.033   4.392  2.4324 -0.2488  3.1779
  309MOL0     H41654   4.283   0.121   4.194  0.2045 -0.1323  0.1123
  309MOL0     H41655   4.463   0.147   4.201 -0.6946  2.0458  3.3808
  309MOL0     H41656   4.485  -0.100   4.201  0.3410 -0.6459 -2.0318
  309MOL0     H41657   4.309  -0.121   4.173  0.8157 -1.4806  1.5660
  309MOL0     H41658   4.382  -0.140   3.950  4.9845 -0.9187 -2.0161
  309MOL0     H41659   4.336   0.029   3.965  1.4554  2.3834  0.2069
  309MOL0     H41660   4.534   0.029   3.848  0.6316 -1.5294 -1.6287
  309MOL0     H41661   4.564   0.093   4.006  0.9816 -0.7807  1.6256
  309MOL0     H41662   4.737  -0.055   4.037 -0.3619 -0.0817  0.4016
  309MOL0     H41663   4.635  -0.186   4.023 -3.1948  1.0948  1.7917
  309MOL0     H41664   4.811  -0.209   3.860 -0.1838 -1.8657 -1.9565
  309MOL0     H41665   4.756  -0.057   3.773 -0.6083  2.3292  2.7043
  309MOL0     H41666   4.535  -0.084   3.638 -0.7208 -0.8405 -1.9345
  309MOL0     H41667   4.456  -0.239   3.403  1.6205 -0.3349  0.0804
  309MOL0     H41668   4.384  -0.389   3.461 -0.7819  0.3419 -0.2409
  309MOL0     H41669   4.295  -0.109   3.491  1.3629 -0.3568 -2.2765
  309MOL0     H41670   4.267  -0.203   3.634 -3.0510  1.7004 -0.6636
  309MOL0     H41671   4.161  -0.389   3.467  0.8871 -0.4161  0.8001
  309MOL0     H41672   4.160  -0.257   3.353  1.2529 -0.1389  0.5157
  309MOL0     H41673   4.036  -0.123   3.503 -0.5188  0.9001  1.2382
  309MOL0     H41674   4.026  -0.265   3.623 -0.9205  1.4454  0.4011
  309MOL0     H41675   3.733  -0.360   3.307  0.8036  1.2988 -1.3573
  309MOL0     H41676   3.534  -0.381   3.219  1.7320  3.4372 -3.2249
  309MOL0     H41677   3.397  -0.362   3.330  1.3407 -0.7236  1.2714
  309MOL0     H41678   3.425  -0.243   3.193  3.2873  2.3141  0.4327
  309MOL0     H41679   3.089  -0.290   3.321  1.4044 -0.7297  1.4234
  309MOL0     H41680   2.863  -0.297   3.363 -2.0584  0.9177  0.5375
  309MOL0     H41681   2.668  -0.290   3.492  4.9806 -3.0814  5.1272
  309MOL0     H41682   2.681  -0.207   3.649  0.5594 -1.1840  0.3460
  309MOL0     H41683   2.469  -0.149   3.435  1.2338 -2.3165 -0.3661
  309MOL0     H41684   2.443  -0.232   3.597 -0.7108  0.3701 -0.1701
  309MOL0     H41685   2.518   0.057   3.532 -1.0415  1.6236 -0.2928
  309MOL0     H41686   2.497  -0.013   3.702  1.7450 -0.4729 -0.8172
  309MOL0     H41687   2.300   0.006   3.494  1.5904  1.0501  0.2978
  309MOL0     H41688   2.278  -0.076   3.658 -3.3799  1.3195  1.4742
  309MOL0     H41689   2.320   0.218   3.612 -1.8140  1.7267  1.5159
  309MOL0     H41690   2.335   0.144   3.770  0.3985 -0.4974 -0.5762
  309MOL0     H41691   2.099   0.066   3.769  0.2869 -1.4840 -2.0206
  309MOL0     H41692   2.131   0.224   3.808 -0.3769 -0.1816 -0.1426
  309MOL0     H41693   1.950   0.245   3.663 -0.2022  2.1862 -0.1637
  309MOL0     H41694   2.013   0.128   3.544  0.9014 -0.0212 -0.1956
  309MOL0     H41695   2.176   0.299   3.466 -1.8930  0.7220 -3.1490
  309MOL0     H41696   2.115   0.402   3.602  1.1532  0.6136 -2.1160
  309MOL0     H41697   2.901   0.054   3.596  0.4985 -1.0439  4.3389
  309MOL0     H41698   3.145   0.046   3.599  0.6594 -1.7334  0.6706
  309MOL0     H41699   3.615   0.011   3.607 -3.6547 -0.5970 -0.9644
  309MOL0     H41700   3.839  -0.075   3.615 -0.5634  0.0826  1.1259
  309MOL0     H41701   4.283   0.092   4.823  0.2675  0.0475  1.3499
  309MOL0     H41702   4.143   0.193   4.990  0.2738  0.3930  0.0007
  309MOL0     H41703   3.771   0.320   5.085 -1.0086  0.1973 -0.0053
  309MOL0     H41704   3.592   0.373   5.276 -1.4826  3.6930  2.9746
  309MOL0     H41705   3.687   0.705   5.577 -0.0694  2.4048 -0.7414
  309MOL0     H41706   3.581   0.752   5.439 -2.7700 -0.1297  0.3376
  309MOL0     H41707   3.470   0.773   5.672 -2.1544  0.6178 -0.2622
  309MOL0     H41708   3.525   0.606   5.694  2.5812  0.1570 -2.5818
  309MOL0     H41709   3.357   0.536   5.539  0.1747  0.5044  0.0754
  309MOL0     H41710   3.326   0.695   5.475  0.2501 -0.8163 -1.2051
  309MOL0     H41711   3.236   0.784   5.671 -2.1086  0.9165  0.7276
  309MOL0     H41712   3.275   0.647   5.774  0.7820 -0.6614 -1.6579
  309MOL0     H41713   2.912   0.482   5.617 -0.8650  0.7247  1.2490
  309MOL0     H41714   3.855   0.669   5.430 -0.9262 -0.7087  0.1308
  309MOL0     H41715   4.021   0.610   5.255  0.5755 -0.5663  2.0813
  310MOL0     O41716   4.552   1.054   5.174  0.5898 -0.1130  0.3774
  310MOL0     C41717   4.607   1.161   5.198 -1.1264 -0.3667  1.0607
  310MOL0     O41718   4.735   1.179   5.219 -0.4895 -0.0238 -1.1936
  310MOL0     C41719   4.816   1.077   5.191  0.3378 -0.0792  1.0549
  310MOL0     C41720   4.838   1.041   5.058 -0.8068  0.9025 -0.7088
  310MOL0     C41721   4.934   0.934   5.032  0.2531 -0.7926  0.8242
  310MOL0     C41722   5.005   0.874   5.135  0.5269  0.0285 -0.3617
  310MOL0     O41723   5.092   0.779   5.092 -0.7498  0.5320 -0.0634
  310MOL0     C41724   5.189   0.727   5.185  0.9798 -0.5683  0.7349
  310MOL0     C41725   5.252   0.601   5.122  0.5740  0.7215 -0.3973
  310MOL0     C41726   5.385   0.651   5.058 -0.2963 -1.1656  0.2694
  310MOL0     C41727   5.443   0.535   4.971  0.9219  0.8657  0.4143
  310MOL0     C41728   5.572   0.565   4.898 -0.8414 -0.2534 -0.9638
  310MOL0     C41729   5.701   0.547   4.989  1.1391 -0.5437 -0.3324
  310MOL0     C41730   5.820   0.531   4.901 -0.3024  0.2286 -0.9227
  310MOL0     C41731   5.940   0.553   4.982 -0.9540  0.3956 -0.5064
  310MOL0     N41732   6.059   0.522   4.916 -0.8872 -0.3108  0.3306
  310MOL0     C41733   6.114   0.584   4.806 -0.0442  0.6482  1.0437
  310MOL0     C41734   6.227   0.519   4.768 -0.4602 -0.3715  0.0438
  310MOL0     C41735   6.325   0.568   4.663  0.7391  0.6127 -1.2288
  310MOL0     C41736   6.457   0.605   4.732 -0.5487 -0.6558  0.6495
  310MOL0     C41737   6.537   0.477   4.768  0.2537 -0.6418 -0.2563
  310MOL0     C41738   6.688   0.494   4.791  0.1369  0.2965 -0.5865
  310MOL0     O41739   6.741   0.579   4.684 -1.6404  0.3136 -0.2438
  310MOL0     C41740   6.741   0.533   4.553  0.4841  0.1378  0.1744
  310MOL0     C41741   6.735   0.621   4.448 -0.2287 -0.2781  0.4490
  310MOL0     C41742   6.719   0.587   4.306  0.2771 -0.0143 -0.8999
  310MOL0     C41743   6.733   0.698   4.205  0.0603 -0.7191 -0.6489
  310MOL0     C41744   6.709   0.453   4.274  0.3427 -0.0170 -0.6344
  310MOL0     C41745   6.700   0.396   4.130  0.1308 -0.1023 -0.1000
  310MOL0     O41746   6.758   0.274   4.108  0.6247  0.2405  0.7969
  310MOL0     C41747   6.763   0.222   3.981 -1.8960 -0.5739 -0.3787
  310MOL0     C41748   6.717   0.095   3.960 -0.7745 -0.8440 -0.7454
  310MOL0     C41749   6.700   0.035   3.829  0.3891  0.1255 -0.2090
  310MOL0     C41750   6.746   0.109   3.727 -0.7351  0.2371  0.3704
  310MOL0     O41751   6.723   0.077   3.599 -0.7804  0.2808  0.0264
  310MOL0     C41752   6.820  -0.022   3.548  0.7619  0.5106  0.1508
  310MOL0     C41753   6.769  -0.056   3.408  0.9385 -0.6241 -0.3299
  310MOL0     C41754   6.888  -0.110   3.323 -0.6606  0.9537 -0.2993
  310MOL0     C41755   6.991  -0.014   3.286  0.7741 -0.1463 -0.0578
  310MOL0     C41756   7.130  -0.073   3.249  0.7492  0.3042 -0.5130
  310MOL0     C41757   7.198  -0.117   3.378  0.0047  0.1463  0.0243
  310MOL0     C41758   7.349  -0.120   3.340 -0.3204  0.0763 -0.7019
  310MOL0     C41759   7.413  -0.228   3.430 -0.8298 -1.1581 -0.8113
  310MOL0    Cl41760   7.346  -0.397   3.393 -0.2080 -0.3538 -0.3142
  310MOL0     C41761   6.816   0.232   3.743 -0.1058  0.2055 -0.6151
  310MOL0     C41762   6.816   0.286   3.875 -0.2680 -0.8088 -0.0932
  310MOL0     O41763   6.623   0.446   4.054 -0.2544 -0.2079  0.2355
  310MOL0     C41764   6.712   0.363   4.386  0.9699  0.1568  1.0528
  310MOL0     C41765   6.731   0.399   4.517  0.2492  0.1706  0.3949
  310MOL0     N41766   6.241   0.405   4.852  0.0680 -0.3873 -0.6519
  310MOL0     N41767   6.137   0.410   4.939 -0.6826 -0.1942  0.0731
  310MOL0     C41768   4.973   0.915   5.265 -0.9685  0.5815  0.0363
  310MOL0     C41769   4.884   1.014   5.294  0.4094  0.4201  0.0954
  310MOL0     C41770   4.522   1.283   5.196 -0.2263 -1.0829 -1.3375
  310MOL0     C41771   4.569   1.408   5.245  0.2627  0.3093  0.1016
  310MOL0     C41772   4.491   1.520   5.247  0.1026  0.2939  0.5984
  310MOL0     C41773   4.361   1.516   5.191 -0.0703  0.6068 -0.0966
  310MOL0     O41774   4.275   1.623   5.175 -0.3069 -0.6472 -0.0490
  310MOL0     C41775   4.319   1.752   5.233  0.6180 -0.0212 -0.2384
  310MOL0     C41776   4.213   1.859   5.216 -0.3082  0.3750  0.4562
  310MOL0     C41777   4.162   1.879   5.077 -0.4498 -0.8830  0.5864
  310MOL0     C41778   4.042   1.976   5.082 -0.6729  0.2423 -0.3155
  310MOL0     C41779   3.978   1.987   4.953  1.2426 -0.8583 -0.0962
  310MOL0     C41780   3.908   1.986   4.846 -0.4818  0.0915  0.0400
  310MOL0     C41781   4.307   1.389   5.158  0.0735 -0.1052 -0.1779
  310MOL0     C41782   4.389   1.278   5.156 -0.5280 -0.7465  0.1348
  310MOL0     H41783   4.775   1.083   4.980 -1.6464  0.4211 -0.3052
  310MOL0     H41784   4.929   0.893   4.932  0.1650  0.1984  0.4097
  310MOL0     H41785   5.255   0.814   5.189  0.5613 -0.2445  0.6101
  310MOL0     H41786   5.144   0.704   5.283 -0.7957  2.1147  0.6691
  310MOL0     H41787   5.252   0.532   5.206 -0.5233 -0.5642 -1.4114
  310MOL0     H41788   5.182   0.567   5.045  1.2403  1.1545 -1.2135
  310MOL0     H41789   5.384   0.737   4.990 -0.8284 -1.3243  0.0786
  310MOL0     H41790   5.454   0.670   5.141 -0.5537 -0.4805  0.3381
  310MOL0     H41791   5.462   0.440   5.023  2.0667  0.6655 -0.3399
  310MOL0     H41792   5.368   0.511   4.896  3.1566  1.7107 -2.2662
  310MOL0     H41793   5.576   0.484   4.824  1.6654  0.2355 -1.4465
  310MOL0     H41794   5.562   0.661   4.847 -0.5209  0.8055  0.8672
  310MOL0     H41795   5.722   0.629   5.058 -0.5478  0.2567 -0.7181
  310MOL0     H41796   5.695   0.457   5.051  0.6571  0.8639  1.7883
  310MOL0     H41797   5.822   0.434   4.850 -1.7848  0.5837 -1.7091
  310MOL0     H41798   5.819   0.609   4.825  2.2949  0.3931 -0.8850
  310MOL0     H41799   5.942   0.493   5.073  4.1862 -0.6268 -1.0099
  310MOL0     H41800   5.950   0.659   5.004  1.1765  0.2446 -0.5672
  310MOL0     H41801   6.070   0.673   4.764 -2.4015 -0.8820  0.0543
  310MOL0     H41802   6.335   0.503   4.575 -1.3424  0.3708 -1.3350
  310MOL0     H41803   6.283   0.660   4.621  0.5968  1.3742  0.5224
  310MOL0     H41804   6.433   0.665   4.820 -3.1890  0.4162 -0.7035
  310MOL0     H41805   6.511   0.670   4.662 -3.0426 -0.7110 -1.4711
  310MOL0     H41806   6.529   0.399   4.691  1.5582 -0.6494 -0.4040
  310MOL0     H41807   6.490   0.440   4.859  1.3997 -0.3840  0.4555
  310MOL0     H41808   6.742   0.399   4.786  0.4506  0.5384 -2.5084
  310MOL0     H41809   6.698   0.535   4.891  0.6547  0.1293 -0.5696
  310MOL0     H41810   6.748   0.727   4.468 -2.1621  0.2936 -1.0284
  310MOL0     H41811   6.679   0.784   4.243  1.2708  0.0464 -0.5941
  310MOL0     H41812   6.839   0.726   4.209  0.5378 -2.5177  0.8653
  310MOL0     H41813   6.698   0.670   4.105  0.5039  1.0511 -1.3336
  310MOL0     H41814   6.694   0.046   4.054  1.1983  0.0789  0.2713
  310MOL0     H41815   6.645  -0.057   3.815 -0.0913  0.5992 -1.6645
  310MOL0     H41816   6.917   0.027   3.557 -0.5848  3.1268  1.5479
  310MOL0     H41817   6.820  -0.106   3.617 -3.2370  1.6207  1.7759
  310MOL0     H41818   6.698  -0.138   3.419  0.8333 -0.6203 -0.9473
  310MOL0     H41819   6.721   0.033   3.366 -1.4506 -1.4379  0.4925
  310MOL0     H41820   6.846  -0.157   3.233 -0.1159  1.0447 -0.6071
  310MOL0     H41821   6.934  -0.200   3.364 -0.3140  0.2518 -2.1084
  310MOL0     H41822   6.950   0.035   3.197  0.5105 -0.1108  0.0818
  310MOL0     H41823   7.006   0.064   3.361 -2.5575  0.0111  0.5637
  310MOL0     H41824   7.189   0.009   3.207 -1.4517  0.8390 -2.7828
  310MOL0     H41825   7.121  -0.147   3.170 -2.9719  0.1663 -0.1536
  310MOL0     H41826   7.183  -0.044   3.459  0.3597 -2.8423  2.9726
  310MOL0     H41827   7.162  -0.216   3.407 -2.1460  0.1757 -2.1922
  310MOL0     H41828   7.408  -0.030   3.356  0.7284 -0.8273  0.8810
  310MOL0     H41829   7.364  -0.141   3.234  2.5861 -1.5060 -0.0829
  310MOL0     H41830   7.391  -0.196   3.532  0.0557 -0.1894 -0.9042
  310MOL0     H41831   7.521  -0.238   3.416 -0.3545  1.2754  0.5683
  310MOL0     H41832   6.843   0.286   3.653  2.6043 -0.7000 -0.4283
  310MOL0     H41833   6.850   0.389   3.880 -1.5721 -0.1767 -2.5587
  310MOL0     H41834   6.717   0.256   4.368  1.1082  0.6566 -2.8754
  310MOL0     H41835   6.739   0.316   4.587 -0.0885 -0.4790 -0.3236
  310MOL0     H41836   5.018   0.869   5.353 -0.9834  1.0523  0.2920
  310MOL0     H41837   4.865   1.034   5.400 -1.9595  2.3283 -0.5952
  310MOL0     H41838   4.671   1.410   5.282  1.3926 -4.9735 -1.8346
  310MOL0     H41839   4.533   1.615   5.276  1.9590 -0.2996  0.0017
  310MOL0     H41840   4.331   1.737   5.341  0.4290 -0.8977 -0.3388
  310MOL0     H41841   4.417   1.779   5.191  0.6809 -1.9913 -1.4464
  310MOL0     H41842   4.237   1.961   5.249 -0.6840  0.2339  1.2053
  310MOL0     H41843   4.125   1.832   5.276  0.3510  1.7464  2.1172
  310MOL0     H41844   4.139   1.785   5.026  3.2184 -2.0003  0.7128
  310MOL0     H41845   4.242   1.925   5.019  0.6515 -0.7402  2.1611
  310MOL0     H41846   4.064   2.072   5.130 -0.4689 -1.5067  3.4799
  310MOL0     H41847   3.977   1.918   5.148  0.0985 -1.5715 -1.0793
  310MOL0     H41848   3.850   2.005   4.758 -0.9917  2.2635  0.7937
  310MOL0     H41849   4.202   1.388   5.135 -0.4460 -0.5412  1.9514
  310MOL0     H41850   4.345   1.191   5.108 -0.3548 -0.8359  0.1368
  311MOL0     O41851  11.058   3.321   8.693  0.0183 -0.4321  0.7070
  311MOL0     C41852  11.061   3.415   8.771  0.8771 -0.8107  1.0577
  311MOL0     O41853  11.173   3.479   8.810  0.1478  0.0503  0.4420
  311MOL0     C41854  11.280   3.457   8.733 -0.4503  1.1164 -0.9059
  311MOL0     C41855  11.316   3.524   8.615  0.2113 -0.2529 -0.6880
  311MOL0     C41856  11.431   3.494   8.539 -0.3604  0.6445  0.0426
  311MOL0     C41857  11.521   3.395   8.576 -1.0744  1.4079  0.8763
  311MOL0     O41858  11.648   3.360   8.525  0.5465  0.0248 -0.6812
  311MOL0     C41859  11.698   3.432   8.411  0.2104 -0.1081  0.9491
  311MOL0     C41860  11.830   3.366   8.364 -0.2766  0.2298  0.3688
  311MOL0     C41861  11.949   3.407   8.465  0.6699 -0.2673 -0.2721
  311MOL0     C41862  12.070   3.458   8.386 -0.5918  0.0185  0.3227
  311MOL0     C41863  12.172   3.535   8.476 -0.5471  1.1909 -0.0998
  311MOL0     C41864  12.243   3.431   8.561  0.3830 -0.0068 -0.3038
  311MOL0     C41865  12.379   3.482   8.598 -0.3416 -0.2581  0.0281
  311MOL0     C41866  12.372   3.582   8.711 -0.0742 -0.3677  0.3049
  311MOL0     N41867  12.508   3.622   8.757  0.0243  0.5153  1.0133
  311MOL0     C41868  12.607   3.707   8.690  0.3690  1.1024  0.4116
  311MOL0     C41869  12.703   3.721   8.780 -0.3521  0.4239 -0.1125
  311MOL0     C41870  12.847   3.772   8.764 -0.0178 -0.0154  0.1759
  311MOL0     C41871  12.854   3.923   8.715  0.1235 -0.0248 -1.2059
  311MOL0     C41872  12.829   4.022   8.829 -1.0147 -0.3805  0.8196
  311MOL0     C41873  12.684   4.039   8.871  0.6210 -0.1576 -0.1103
  311MOL0     O41874  12.613   4.090   8.756 -1.1787 -0.0880  0.1791
  311MOL0     C41875  12.491   4.045   8.727 -0.2914 -0.2986 -0.3903
  311MOL0     C41876  12.438   4.055   8.596  0.6174  0.1262  1.1916
  311MOL0     C41877  12.304   4.028   8.568  0.6875  0.4731 -0.1823
  311MOL0     C41878  12.252   4.046   8.433 -0.3212 -0.2553  0.8302
  311MOL0     C41879  12.220   3.983   8.683 -1.2737 -0.0542  0.3364
  311MOL0     C41880  12.078   3.953   8.664 -0.3793  0.3127  0.4828
  311MOL0     O41881  12.032   3.853   8.751  0.1559 -0.4154  0.4776
  311MOL0     C41882  11.901   3.831   8.769  1.5175 -0.2031 -0.0861
  311MOL0     C41883  11.836   3.902   8.869  0.2304 -0.6535  0.9294
  311MOL0     C41884  11.700   3.894   8.868 -0.0309  0.1035 -0.5512
  311MOL0     C41885  11.623   3.812   8.791 -0.0711  0.3735  1.2497
  311MOL0     O41886  11.490   3.792   8.801 -0.3110  0.5534 -0.0211
  311MOL0     C41887  11.410   3.850   8.910  0.1210  0.3495  0.5058
  311MOL0     C41888  11.276   3.770   8.909  0.1205  0.6072  0.5770
  311MOL0     C41889  11.172   3.821   9.013 -0.3503  0.5973  0.0153
  311MOL0     C41890  11.096   3.936   8.963 -0.2346 -0.2143 -0.4615
  311MOL0     C41891  11.008   3.987   9.076  0.4938  0.1378  1.1376
  311MOL0     C41892  10.877   4.058   9.017 -0.0491  0.1730  0.6828
  311MOL0     C41893  10.916   4.178   8.923  0.6069  0.5295 -1.0185
  311MOL0     C41894  10.791   4.248   8.897 -1.6070  0.0504 -0.7124
  311MOL0    Cl41895  10.844   4.376   8.790 -0.4643 -0.0623  0.2413
  311MOL0     C41896  11.697   3.726   8.703  0.0175  0.2568 -0.9352
  311MOL0     C41897  11.831   3.750   8.681  0.3183  0.1759 -0.3839
  311MOL0     O41898  12.000   4.029   8.601 -0.3241 -0.2695  0.6515
  311MOL0     C41899  12.281   3.953   8.813  0.9392 -0.1884  1.2030
  311MOL0     C41900  12.412   3.985   8.831  0.7944 -0.8682 -0.1653
  311MOL0     N41901  12.671   3.659   8.903  0.4203 -0.4196  1.0930
  311MOL0     N41902  12.561   3.600   8.882  0.2911 -0.1731 -0.6257
  311MOL0     C41903  11.487   3.329   8.697 -0.2755  0.4903 -0.3904
  311MOL0     C41904  11.374   3.356   8.775  0.1017 -0.5029  0.4875
  311MOL0     C41905  10.935   3.459   8.839  0.1208  0.2322 -0.2453
  311MOL0     C41906  10.890   3.583   8.871  0.0175  0.3865  0.2006
  311MOL0     C41907  10.755   3.607   8.910  0.5898 -0.7820 -0.5306
  311MOL0     C41908  10.668   3.506   8.936 -0.1032 -0.1973 -0.1703
  311MOL0     O41909  10.545   3.539   8.991 -0.1460 -0.2054  0.0892
  311MOL0     C41910  10.466   3.436   9.048  0.9779  0.0361  0.7214
  311MOL0     C41911  10.352   3.397   8.957 -0.0610 -0.1917  0.2322
  311MOL0     C41912  10.268   3.516   8.906  0.3591 -0.1550  0.0514
  311MOL0     C41913  10.155   3.557   9.012 -0.7452  0.4942  0.3945
  311MOL0     C41914  10.206   3.620   9.143  0.4187 -0.1871  0.2705
  311MOL0     C41915  10.240   3.709   9.221  0.6457  0.0056  0.1432
  311MOL0     C41916  10.709   3.375   8.904 -0.3413  0.4570 -0.0665
  311MOL0     C41917  10.838   3.355   8.854 -0.0326 -1.0677 -1.2220
  311MOL0     H41918  11.250   3.602   8.576 -0.3849 -0.1613  0.4694
  311MOL0     H41919  11.458   3.561   8.459  2.2978  0.8693  1.0360
  311MOL0     H41920  11.625   3.437   8.330 -0.2105 -3.1080  1.0103
  311MOL0     H41921  11.726   3.535   8.433  0.6468  0.1303 -0.6147
  311MOL0     H41922  11.823   3.260   8.340 -2.3642  0.6061 -1.0075
  311MOL0     H41923  11.860   3.411   8.269 -0.4510  2.2588  1.2292
  311MOL0     H41924  11.909   3.472   8.543  0.3187 -3.8023  2.7768
  311MOL0     H41925  11.969   3.314   8.520  0.5589 -0.0970  0.0586
  311MOL0     H41926  12.115   3.375   8.331 -0.2196 -0.6745  1.6284
  311MOL0     H41927  12.023   3.524   8.312 -1.5503 -2.2325 -1.1997
  311MOL0     H41928  12.239   3.588   8.407 -1.6467  2.0479 -0.5384
  311MOL0     H41929  12.114   3.605   8.537  0.0595  0.5543  1.2553
  311MOL0     H41930  12.168   3.420   8.640  1.6985 -0.4051  0.9226
  311MOL0     H41931  12.271   3.342   8.504  6.0861  0.9320  0.4760
  311MOL0     H41932  12.448   3.407   8.638  0.5124  1.3564  1.7425
  311MOL0     H41933  12.427   3.534   8.514  0.6391  1.1608  1.4122
  311MOL0     H41934  12.317   3.533   8.793 -1.4515 -0.8093 -0.8337
  311MOL0     H41935  12.325   3.675   8.677 -0.6020 -1.1405 -1.1524
  311MOL0     H41936  12.588   3.751   8.593 -1.4377 -3.4405 -1.6053
  311MOL0     H41937  12.878   3.761   8.868 -2.4641 -0.1462  0.9581
  311MOL0     H41938  12.884   3.688   8.704 -0.1328 -1.4637  2.0580
  311MOL0     H41939  12.795   3.944   8.625  1.1465  0.1504 -1.8462
  311MOL0     H41940  12.958   3.932   8.683  1.2410 -1.5337  1.6741
  311MOL0     H41941  12.863   4.119   8.790  1.1371 -1.1132  0.7168
  311MOL0     H41942  12.906   3.994   8.901  0.1730  3.8482  1.4970
  311MOL0     H41943  12.673   4.089   8.967 -2.0628 -1.7712  0.5362
  311MOL0     H41944  12.647   3.941   8.902 -3.8944  0.1200 -3.5522
  311MOL0     H41945  12.509   4.096   8.525  2.7768 -1.2260  2.4588
  311MOL0     H41946  12.280   3.954   8.381  1.5212  1.3413 -1.1648
  311MOL0     H41947  12.145   4.070   8.421 -0.4646 -0.5298  1.5670
  311MOL0     H41948  12.313   4.123   8.384  0.3923 -1.2952  0.0286
  311MOL0     H41949  11.880   3.965   8.946 -1.0176 -0.2795  1.3518
  311MOL0     H41950  11.654   3.944   8.952 -2.5799 -0.7265 -1.3521
  311MOL0     H41951  11.459   3.854   9.008 -0.0671 -3.5686  0.9263
  311MOL0     H41952  11.379   3.952   8.887 -3.1569 -1.2304 -3.3442
  311MOL0     H41953  11.234   3.766   8.808 -1.9042  0.9247  1.3573
  311MOL0     H41954  11.304   3.669   8.942 -0.8667 -0.1743 -0.8793
  311MOL0     H41955  11.217   3.845   9.110 -0.2750 -0.8609  0.3569
  311MOL0     H41956  11.098   3.747   9.046 -0.3924  1.0976  1.0880
  311MOL0     H41957  11.169   4.016   8.945  0.1084 -0.4705 -0.2066
  311MOL0     H41958  11.032   3.909   8.879  1.3968 -0.1728 -1.7764
  311MOL0     H41959  11.061   4.049   9.149  0.3924  0.3387  1.0419
  311MOL0     H41960  10.977   3.896   9.130 -1.0281 -1.3132 -1.9533
  311MOL0     H41961  10.824   3.977   8.965  0.0722  0.7955 -0.4339
  311MOL0     H41962  10.824   4.094   9.106  0.4397  1.7500  0.3686
  311MOL0     H41963  10.956   4.139   8.830  0.4512 -2.7095  0.1448
  311MOL0     H41964  10.980   4.243   8.984 -1.3957  1.1726  0.5324
  311MOL0     H41965  10.748   4.285   8.990  0.5347  2.2658 -0.4775
  311MOL0     H41966  10.720   4.178   8.853 -3.6686  1.0057  0.9626
  311MOL0     H41967  11.643   3.648   8.651 -0.8023 -2.2850  3.2445
  311MOL0     H41968  11.879   3.700   8.598 -1.4418 -0.6259 -0.9630
  311MOL0     H41969  12.221   3.923   8.898  1.1427  0.9847  1.7710
  311MOL0     H41970  12.454   3.966   8.929 -3.5832  0.1108  2.1743
  311MOL0     H41971  11.560   3.256   8.730 -0.9621 -0.1830 -0.3225
  311MOL0     H41972  11.348   3.308   8.868 -1.8763  2.5069  1.6543
  311MOL0     H41973  10.971   3.656   8.865 -0.4569  0.9350  0.3705
  311MOL0     H41974  10.727   3.705   8.948  2.0180 -1.0136  1.2896
  311MOL0     H41975  10.526   3.347   9.071 -1.2366 -1.7155  0.0549
  311MOL0     H41976  10.430   3.477   9.143  0.1697  0.3175  0.3017
  311MOL0     H41977  10.279   3.331   9.005 -0.3190  0.0527  0.1760
  311MOL0     H41978  10.391   3.348   8.867 -0.6489 -3.4198  1.5689
  311MOL0     H41979  10.224   3.490   8.809 -0.7056 -1.2191  0.7890
  311MOL0     H41980  10.328   3.604   8.882  2.0379 -0.5203  2.5624
  311MOL0     H41981  10.077   3.482   9.024  1.2401 -2.5184 -3.1515
  311MOL0     H41982  10.111   3.640   8.957  1.6401  0.1947 -2.2416
  311MOL0     H41983  10.273   3.795   9.276  3.3947 -0.6043 -0.4127
  311MOL0     H41984  10.649   3.287   8.924 -0.3713  0.8503  1.6796
  311MOL0     H41985  10.859   3.250   8.835  1.1569 -0.6241 -2.4615
  312MOL0     O41986   8.735   9.578   7.222  0.9309 -0.1362  0.5225
  312MOL0     C41987   8.817   9.581   7.130  0.5350  0.2584 -0.1925
  312MOL0     O41988   8.782   9.587   6.997 -0.5928  0.0567  0.6843
  312MOL0     C41989   8.652   9.596   6.949  0.2860  0.4202 -0.5969
  312MOL0     C41990   8.626   9.552   6.822  0.5610 -0.1034  0.6173
  312MOL0     C41991   8.498   9.559   6.759 -0.3213 -0.3673  0.3304
  312MOL0     C41992   8.393   9.613   6.831  0.8925 -0.3276  0.0669
  312MOL0     O41993   8.274   9.634   6.780  0.1703  0.1522 -0.2770
  312MOL0     C41994   8.237   9.532   6.690  0.2055 -0.0860  0.2414
  312MOL0     C41995   8.096   9.550   6.644 -0.5293 -0.0693  0.6690
  312MOL0     C41996   8.049   9.455   6.537  0.0013  0.6361  0.3187
  312MOL0     C41997   7.905   9.491   6.519 -0.1709  0.8628  0.3370
  312MOL0     C41998   7.845   9.410   6.412  0.8803 -0.0112 -0.0063
  312MOL0     C41999   7.885   9.453   6.263 -0.1549  0.1364  0.1432
  312MOL0     C42000   7.798   9.381   6.157 -1.2445  0.0695 -0.1467
  312MOL0     C42001   7.827   9.436   6.017  0.0414  0.1722 -0.0661
  312MOL0     N42002   7.756   9.561   5.985 -0.1900 -0.6686  0.4449
  312MOL0     C42003   7.651   9.629   6.044 -0.7816  0.2400  0.0176
  312MOL0     C42004   7.627   9.739   5.974 -0.4510  0.8381 -0.7114
  312MOL0     C42005   7.512   9.837   5.997  0.2141 -0.3623 -0.3743
  312MOL0     C42006   7.572   9.970   6.045 -0.2661  0.0414 -0.2903
  312MOL0     C42007   7.453  10.061   6.102 -0.6045 -0.4509 -0.2996
  312MOL0     C42008   7.431  10.034   6.251 -1.1317  0.6283 -0.5937
  312MOL0     O42009   7.325  10.108   6.297 -0.0847  0.2877 -0.0702
  312MOL0     C42010   7.317  10.130   6.435 -0.2739  0.4196  0.3240
  312MOL0     C42011   7.214  10.088   6.514  0.3477 -0.1209 -0.4514
  312MOL0     C42012   7.199  10.128   6.650 -0.7031 -0.3468  0.0365
  312MOL0     C42013   7.071  10.105   6.723  0.1914 -0.3934  0.6194
  312MOL0     C42014   7.291  10.221   6.700  0.1200  0.2723 -0.2964
  312MOL0     C42015   7.286  10.266   6.839 -0.7938 -1.0709  0.4297
  312MOL0     O42016   7.361  10.380   6.878 -0.7121 -0.3047  0.0614
  312MOL0     C42017   7.344  10.439   7.009 -0.1800 -0.1458 -0.2482
  312MOL0     C42018   7.220  10.432   7.079 -0.0544 -0.4817  0.5727
  312MOL0     C42019   7.198  10.504   7.201  0.1564  0.7003 -0.5754
  312MOL0     C42020   7.310  10.566   7.249 -0.1484 -0.2967 -0.1727
  312MOL0     O42021   7.296  10.624   7.373 -0.7207  0.1537  0.0755
  312MOL0     C42022   7.326  10.538   7.479  0.2955  0.5447  0.1634
  312MOL0     C42023   7.287  10.608   7.608 -0.1086 -0.1486  0.2073
  312MOL0     C42024   7.298  10.529   7.743 -0.2663 -0.0374  0.3782
  312MOL0     C42025   7.197  10.584   7.845  0.5890 -0.5471 -0.4112
  312MOL0     C42026   7.239  10.540   7.985  0.2548  0.0667 -0.1924
  312MOL0     C42027   7.136  10.571   8.092 -0.5478  0.3145 -0.6880
  312MOL0     C42028   7.094  10.726   8.108 -0.9009  1.1106 -0.2471
  312MOL0     C42029   7.210  10.823   8.115 -0.2882 -0.0982  0.5278
  312MOL0    Cl42030   7.144  10.989   8.122  0.2405  0.0006 -0.1826
  312MOL0     C42031   7.433  10.581   7.184  0.0325  0.9139 -0.1109
  312MOL0     C42032   7.454  10.512   7.064  1.2259 -0.5126  0.6041
  312MOL0     O42033   7.228  10.195   6.920 -0.1570 -0.5147  0.2621
  312MOL0     C42034   7.405  10.251   6.624 -0.1575 -0.5910 -0.4322
  312MOL0     C42035   7.418  10.210   6.495  0.7290  0.6384  1.1335
  312MOL0     N42036   7.719   9.733   5.869  0.1649  0.6579  0.2220
  312MOL0     N42037   7.793   9.628   5.876  0.1762 -0.1362  0.3826
  312MOL0     C42038   8.411   9.671   6.962 -0.7479  0.5580 -0.1948
  312MOL0     C42039   8.545   9.664   7.015  0.0117  0.2016 -0.2485
  312MOL0     C42040   8.962   9.587   7.162 -0.4602 -0.9430 -0.1195
  312MOL0     C42041   9.002   9.622   7.288  0.2021 -0.5009 -0.1451
  312MOL0     C42042   9.138   9.619   7.325  0.0055  1.3880  0.7234
  312MOL0     C42043   9.241   9.584   7.235 -0.1999  0.8816 -0.3520
  312MOL0     O42044   9.380   9.577   7.256  0.8385 -0.9737 -0.3748
  312MOL0     C42045   9.420   9.517   7.381  0.5573  0.1440  0.6809
  312MOL0     C42046   9.531   9.603   7.448 -0.0324  0.6211 -0.7398
  312MOL0     C42047   9.599   9.524   7.564 -0.5972 -0.0009  0.2717
  312MOL0     C42048   9.512   9.455   7.673  0.8879  0.0758  0.3533
  312MOL0     C42049   9.452   9.557   7.763 -0.2219  0.3879  0.2069
  312MOL0     C42050   9.395   9.633   7.836  0.3856 -1.5079  0.5757
  312MOL0     C42051   9.195   9.551   7.103 -0.0663  0.1894  0.8739
  312MOL0     C42052   9.064   9.558   7.061 -0.1056  0.2960 -0.2767
  312MOL0     H42053   8.699   9.494   6.765 -0.6322  1.7567 -3.1589
  312MOL0     H42054   8.491   9.515   6.660  0.0058 -1.0608  0.6063
  312MOL0     H42055   8.300   9.526   6.601 -1.3674  1.7880 -1.0886
  312MOL0     H42056   8.242   9.434   6.738  0.1848 -0.7883 -1.1538
  312MOL0     H42057   8.032   9.542   6.733 -1.2679 -1.1682  0.0639
  312MOL0     H42058   8.088   9.649   6.599  0.6708 -0.8906 -1.4984
  312MOL0     H42059   8.098   9.465   6.439  2.7459 -0.6074  1.4542
  312MOL0     H42060   8.058   9.358   6.586 -1.2467  1.2066  1.7377
  312MOL0     H42061   7.843   9.461   6.603 -0.8269 -1.8931 -1.0032
  312MOL0     H42062   7.899   9.596   6.487  0.0540  0.5278 -0.8683
  312MOL0     H42063   7.878   9.306   6.417 -0.1952 -0.3929 -0.4678
  312MOL0     H42064   7.737   9.410   6.428  0.5384 -0.3156 -1.9882
  312MOL0     H42065   7.877   9.561   6.246  1.1328  0.4127  1.1316
  312MOL0     H42066   7.989   9.420   6.261  0.0784  0.8902 -0.4511
  312MOL0     H42067   7.821   9.274   6.155 -0.4167  0.2420 -0.2339
  312MOL0     H42068   7.693   9.404   6.172 -0.5345  1.4875  3.7220
  312MOL0     H42069   7.798   9.364   5.940  0.9456  1.7185 -1.9364
  312MOL0     H42070   7.935   9.451   6.010  0.2460 -0.7325  0.8066
  312MOL0     H42071   7.595   9.595   6.130 -0.3890  0.2656  0.2847
  312MOL0     H42072   7.453   9.860   5.908 -0.1818  2.2966  0.4729
  312MOL0     H42073   7.439   9.800   6.069 -0.0815  1.8516  0.5673
  312MOL0     H42074   7.624  10.020   5.962  0.2003  1.2047  0.6658
  312MOL0     H42075   7.646   9.952   6.124 -0.5373 -4.4199 -0.7991
  312MOL0     H42076   7.367  10.040   6.039 -0.5003  2.9053 -1.7909
  312MOL0     H42077   7.481  10.165   6.083  0.2932 -0.9700 -2.0738
  312MOL0     H42078   7.518  10.054   6.314 -1.3359 -3.6208  1.3556
  312MOL0     H42079   7.413   9.929   6.275  3.0384  0.0962  1.0767
  312MOL0     H42080   7.129  10.028   6.482 -1.3830  0.8204  2.1181
  312MOL0     H42081   7.077  10.025   6.798  0.1829  0.3852  1.4654
  312MOL0     H42082   7.018  10.195   6.756  1.0072  0.2981  0.0774
  312MOL0     H42083   7.005  10.055   6.651  1.8069 -2.3917  0.4151
  312MOL0     H42084   7.132  10.391   7.030 -0.0487 -0.8374  0.8602
  312MOL0     H42085   7.099  10.521   7.243  0.5460  4.1314 -0.7811
  312MOL0     H42086   7.265  10.447   7.480  0.2864  0.5418  1.3194
  312MOL0     H42087   7.434  10.526   7.482  0.3954  0.5761 -1.9508
  312MOL0     H42088   7.338  10.705   7.608 -0.8825  0.2780 -0.6928
  312MOL0     H42089   7.180  10.622   7.590  0.0248 -0.8376 -1.2861
  312MOL0     H42090   7.403  10.544   7.769  0.4762  2.0127 -3.1722
  312MOL0     H42091   7.299  10.420   7.729  3.3317 -0.2330  1.1031
  312MOL0     H42092   7.198  10.694   7.849  1.2042 -0.4516 -2.1692
  312MOL0     H42093   7.094  10.549   7.833 -0.6087  0.9284  3.7836
  312MOL0     H42094   7.334  10.591   8.002  2.1523 -1.6854 -4.2612
  312MOL0     H42095   7.263  10.433   7.982 -3.3546 -0.8598 -2.7414
  312MOL0     H42096   7.043  10.520   8.062 -0.2245  0.1843 -1.4992
  312MOL0     H42097   7.168  10.529   8.188 -0.9995  1.7843  0.1325
  312MOL0     H42098   7.034  10.738   8.199  0.6514  0.3949  0.9260
  312MOL0     H42099   7.038  10.750   8.017  3.1513  4.0620 -2.2751
  312MOL0     H42100   7.283  10.809   8.035 -3.0550  1.1761 -2.4222
  312MOL0     H42101   7.257  10.804   8.212 -0.0089 -0.3187  0.3506
  312MOL0     H42102   7.504  10.645   7.236  2.1704 -3.1011  2.4424
  312MOL0     H42103   7.548  10.512   7.010  0.9531 -1.4164  0.0918
  312MOL0     H42104   7.496  10.303   6.655 -0.1078 -0.1722 -1.2635
  312MOL0     H42105   7.511  10.241   6.447  1.0626  0.9314  1.9485
  312MOL0     H42106   8.335   9.725   7.017 -0.5213 -0.9746  1.7240
  312MOL0     H42107   8.563   9.702   7.115  3.0311 -0.0821 -0.5959
  312MOL0     H42108   8.922   9.643   7.359 -1.6380  0.2128 -2.3193
  312MOL0     H42109   9.158   9.649   7.427  0.1512  2.3518  0.4292
  312MOL0     H42110   9.342   9.503   7.456 -2.0045 -0.7852 -1.9601
  312MOL0     H42111   9.476   9.426   7.361  0.1012  0.3428 -1.8862
  312MOL0     H42112   9.496   9.702   7.476  0.4136 -0.0980  2.8669
  312MOL0     H42113   9.608   9.621   7.372 -0.0397 -4.2834 -2.3203
  312MOL0     H42114   9.662   9.589   7.627 -0.5518 -0.8469  1.1198
  312MOL0     H42115   9.659   9.441   7.527 -1.6846 -0.4784 -0.4492
  312MOL0     H42116   9.579   9.382   7.719 -0.5470 -2.0402 -0.7593
  312MOL0     H42117   9.433   9.397   7.625 -0.2139  3.4736 -2.3348
  312MOL0     H42118   9.353   9.707   7.901  0.5984  0.1311 -1.0751
  312MOL0     H42119   9.253   9.507   7.023 -4.7103 -0.1489 -2.7799
  312MOL0     H42120   9.040   9.537   6.957  4.7009  1.6141 -1.9339
  313MOL0     O42121  10.894   6.498   8.935 -0.5414  0.4008 -0.0606
  313MOL0     C42122  10.927   6.388   8.972  0.7847  0.6333  0.7015
  313MOL0     O42123  11.036   6.348   9.042 -0.0157 -0.0611  0.2624
  313MOL0     C42124  11.131   6.446   9.077  0.9942 -0.3252  0.3171
  313MOL0     C42125  11.110   6.574   9.139  0.4276 -0.0919 -0.1883
  313MOL0     C42126  11.200   6.677   9.179  0.2557 -0.0274  0.2895
  313MOL0     C42127  11.335   6.652   9.146  0.3072  0.4964 -0.1178
  313MOL0     O42128  11.425   6.749   9.177  0.3313  0.2671  0.0889
  313MOL0     C42129  11.556   6.726   9.130 -0.5650 -0.3461  0.9843
  313MOL0     C42130  11.644   6.843   9.163 -0.5264 -0.8060 -0.1888
  313MOL0     C42131  11.587   6.975   9.106  0.1272  0.7191  0.3488
  313MOL0     C42132  11.707   7.070   9.062 -0.5674 -0.2348 -0.4099
  313MOL0     C42133  11.663   7.220   9.060  0.1210 -0.2485 -0.3147
  313MOL0     C42134  11.771   7.316   9.008  0.0072  0.3640 -0.0147
  313MOL0     C42135  11.880   7.352   9.107 -0.2157  0.2238  0.8531
  313MOL0     C42136  12.019   7.369   9.030  0.2400 -0.2852  0.0895
  313MOL0     N42137  12.070   7.247   8.961  0.9113  0.2158 -0.0245
  313MOL0     C42138  12.155   7.152   9.010 -0.2947 -0.8174  0.0023
  313MOL0     C42139  12.194   7.073   8.909 -0.1978 -0.0287  0.8652
  313MOL0     C42140  12.311   6.963   8.914  0.8272  0.7336 -0.0579
  313MOL0     C42141  12.444   7.006   8.845 -0.2551 -0.5083 -1.0040
  313MOL0     C42142  12.440   7.044   8.697  0.3990  1.6391  0.4142
  313MOL0     C42143  12.459   7.197   8.672 -0.3816 -0.9271 -0.3460
  313MOL0     O42144  12.450   7.232   8.534  0.1914  0.4262  0.1744
  313MOL0     C42145  12.335   7.257   8.457 -0.2335  1.0105  0.1893
  313MOL0     C42146  12.342   7.235   8.320  0.0298 -0.0799 -0.7380
  313MOL0     C42147  12.229   7.264   8.248  0.2795  0.0365 -0.3682
  313MOL0     C42148  12.227   7.200   8.116 -1.0891 -0.5950  0.0056
  313MOL0     C42149  12.115   7.331   8.301  0.9293 -0.5360 -0.1218
  313MOL0     C42150  11.994   7.362   8.225  0.1344 -0.9271 -0.0588
  313MOL0     O42151  11.875   7.370   8.302 -0.6999 -0.3870 -0.0217
  313MOL0     C42152  11.788   7.464   8.249 -0.9302 -0.5259  0.0557
  313MOL0     C42153  11.667   7.416   8.198 -0.5710 -0.8862 -0.5027
  313MOL0     C42154  11.563   7.510   8.156 -0.0710  0.2861 -0.1659
  313MOL0     C42155  11.594   7.646   8.163  0.5856 -0.1220 -0.0568
  313MOL0     O42156  11.497   7.722   8.114  0.7554 -0.6196 -0.3155
  313MOL0     C42157  11.444   7.824   8.209 -0.3574 -0.7397  0.2052
  313MOL0     C42158  11.291   7.807   8.217  0.1420 -0.7183 -0.6978
  313MOL0     C42159  11.219   7.676   8.261 -0.0186 -0.5263 -0.2693
  313MOL0     C42160  11.070   7.689   8.230 -0.1795  0.2135 -0.3904
  313MOL0     C42161  10.987   7.568   8.269  0.5696  0.6696  0.1483
  313MOL0     C42162  10.842   7.569   8.255  0.6783  0.7649  0.8306
  313MOL0     C42163  10.775   7.434   8.273  0.2602  0.4176  0.2825
  313MOL0     C42164  10.622   7.439   8.277  0.0147 -0.1214  0.7691
  313MOL0    Cl42165  10.559   7.268   8.330 -0.1975 -0.0189 -0.0938
  313MOL0     C42166  11.724   7.692   8.209  1.3727 -0.7737  0.5094
  313MOL0     C42167  11.822   7.599   8.261 -0.3321 -0.6962  0.1299
  313MOL0     O42168  12.005   7.398   8.106  0.0891  0.0012 -0.0562
  313MOL0     C42169  12.115   7.363   8.440 -0.0380 -0.5003  0.1869
  313MOL0     C42170  12.219   7.316   8.516  0.0474  0.3291  0.2772
  313MOL0     N42171  12.122   7.123   8.797  0.0757  0.3807 -0.7357
  313MOL0     N42172  12.051   7.231   8.825 -0.2962  0.4162  0.2376
  313MOL0     C42173  11.364   6.525   9.087  0.2171  0.5445  0.1635
  313MOL0     C42174  11.266   6.426   9.055 -1.3016  0.1742 -0.0866
  313MOL0     C42175  10.839   6.272   8.943  0.3299  0.4934 -0.5857
  313MOL0     C42176  10.880   6.139   8.963  0.1446  0.8101  0.0312
  313MOL0     C42177  10.795   6.030   8.932  0.1239  0.2499  0.6240
  313MOL0     C42178  10.665   6.049   8.875 -1.1011  0.4498 -0.0709
  313MOL0     O42179  10.566   5.954   8.850 -0.0974  1.0746  0.0742
  313MOL0     C42180  10.610   5.815   8.859 -1.3921  0.7973 -0.3205
  313MOL0     C42181  10.705   5.770   8.743  0.6728  0.0901  0.0676
  313MOL0     C42182  10.635   5.763   8.601 -0.8586  0.0948  0.1750
  313MOL0     C42183  10.555   5.630   8.601 -0.0948  0.6501  0.5382
  313MOL0     C42184  10.419   5.643   8.654 -0.0102  0.7027  0.1930
  313MOL0     C42185  10.307   5.631   8.694  0.2543  0.2797  0.4029
  313MOL0     C42186  10.634   6.184   8.847 -0.2904 -0.3789  0.7099
  313MOL0     C42187  10.709   6.295   8.891 -0.6939  0.6585  0.4317
  313MOL0     H42188  11.002   6.582   9.134  0.3235 -1.9122 -2.1920
  313MOL0     H42189  11.170   6.778   9.202 -2.4623 -0.0527 -2.4793
  313MOL0     H42190  11.597   6.636   9.175  1.7910  1.1908  2.1080
  313MOL0     H42191  11.560   6.701   9.024  2.4331 -1.3852  1.2636
  313MOL0     H42192  11.655   6.850   9.272  0.3182 -0.0288 -0.3121
  313MOL0     H42193  11.746   6.829   9.126 -0.2029  1.8457 -0.5335
  313MOL0     H42194  11.537   6.948   9.013  2.4757  2.2789 -1.4859
  313MOL0     H42195  11.523   7.020   9.183 -0.9601 -1.4901  0.8189
  313MOL0     H42196  11.796   7.063   9.126  0.3993 -1.7292 -1.8519
  313MOL0     H42197  11.743   7.032   8.966 -0.6924  0.1145 -0.5976
  313MOL0     H42198  11.579   7.227   8.990 -0.2359 -0.4617  0.0866
  313MOL0     H42199  11.639   7.255   9.161  0.0724 -0.9832 -0.0699
  313MOL0     H42200  11.807   7.279   8.911 -0.6589  1.1285 -0.5704
  313MOL0     H42201  11.718   7.411   9.001 -2.1443 -0.5917  1.8702
  313MOL0     H42202  11.863   7.450   9.152  1.8534  0.8477  0.3721
  313MOL0     H42203  11.899   7.279   9.187  2.5807 -0.8387 -0.6205
  313MOL0     H42204  12.099   7.378   9.105  0.0582 -2.4075  0.6158
  313MOL0     H42205  12.023   7.455   8.963  2.1260  1.2223  1.9805
  313MOL0     H42206  12.199   7.143   9.110 -1.1887  2.3671  0.8077
  313MOL0     H42207  12.333   6.938   9.018 -1.6599 -2.8104 -0.1989
  313MOL0     H42208  12.275   6.868   8.874  0.8344  0.9951 -0.6870
  313MOL0     H42209  12.509   6.918   8.851 -0.4862 -0.6262 -0.1784
  313MOL0     H42210  12.491   7.085   8.904 -1.8735  1.0222 -1.6530
  313MOL0     H42211  12.346   7.002   8.660  2.1107  0.6594 -3.2113
  313MOL0     H42212  12.514   6.982   8.646  1.0663  1.0727  1.9856
  313MOL0     H42213  12.563   7.220   8.696 -0.8046  0.8659 -0.1000
  313MOL0     H42214  12.386   7.260   8.723  0.5791  0.8284 -1.0163
  313MOL0     H42215  12.430   7.195   8.271 -1.5401  0.9608 -4.8330
  313MOL0     H42216  12.308   7.244   8.056 -0.0342 -1.9788  0.3636
  313MOL0     H42217  12.267   7.099   8.125 -0.2263 -0.1001  3.0486
  313MOL0     H42218  12.131   7.186   8.065 -1.5867 -3.5370  1.5336
  313MOL0     H42219  11.644   7.310   8.196  1.2427 -1.3287  0.0633
  313MOL0     H42220  11.472   7.476   8.107 -0.2093 -0.4433  0.5847
  313MOL0     H42221  11.491   7.821   8.307 -0.7893 -1.4323  0.4013
  313MOL0     H42222  11.467   7.920   8.162  0.2054 -0.7061  0.5487
  313MOL0     H42223  11.264   7.870   8.302  1.6289 -1.8760  0.7138
  313MOL0     H42224  11.241   7.837   8.125 -2.3704  0.2951  0.9113
  313MOL0     H42225  11.235   7.662   8.369 -1.6924 -0.4318  0.0096
  313MOL0     H42226  11.258   7.588   8.209  3.4978  0.5900  0.1712
  313MOL0     H42227  11.039   7.776   8.289  0.6295  0.2234  0.0279
  313MOL0     H42228  11.062   7.711   8.123 -1.0347 -2.0927 -0.8558
  313MOL0     H42229  11.009   7.549   8.375  0.1670  2.5427  0.5991
  313MOL0     H42230  11.024   7.479   8.218 -2.5859 -1.3772  1.1095
  313MOL0     H42231  10.794   7.631   8.330 -3.5791 -1.2947  0.1237
  313MOL0     H42232  10.831   7.614   8.156  2.0310  0.0942  0.3575
  313MOL0     H42233  10.816   7.396   8.368  2.1212  0.8387 -0.3095
  313MOL0     H42234  10.792   7.357   8.197 -3.4902 -2.0308  1.6053
  313MOL0     H42235  10.591   7.462   8.175  3.4591 -1.5020 -0.7640
  313MOL0     H42236  10.594   7.510   8.355 -1.1900 -1.8025  1.9471
  313MOL0     H42237  11.745   7.798   8.222  0.5032 -0.2542 -1.8285
  313MOL0     H42238  11.923   7.630   8.288 -0.0534  0.5825 -2.1660
  313MOL0     H42239  12.043   7.429   8.487  2.1780  0.9270  1.7537
  313MOL0     H42240  12.242   7.347   8.618  2.5491  2.2579 -0.7480
  313MOL0     H42241  11.466   6.497   9.063  0.7251  1.8431  0.6670
  313MOL0     H42242  11.298   6.329   9.017  0.8495  0.8530 -0.1299
  313MOL0     H42243  10.979   6.100   8.987 -0.8906 -0.5839  2.3971
  313MOL0     H42244  10.836   5.931   8.950 -0.6642 -0.0404  0.8941
  313MOL0     H42245  10.669   5.799   8.950  0.7648  1.3483 -1.5625
  313MOL0     H42246  10.531   5.739   8.862  0.6158 -1.4541 -1.6711
  313MOL0     H42247  10.744   5.671   8.769 -2.8807 -1.5891 -0.4184
  313MOL0     H42248  10.791   5.835   8.723  0.1456  0.0237 -2.7357
  313MOL0     H42249  10.700   5.762   8.513 -2.5291 -1.0215 -1.1149
  313MOL0     H42250  10.565   5.847   8.600 -0.6586  0.3074  1.8115
  313MOL0     H42251  10.618   5.558   8.653 -0.4546 -0.6211 -0.7029
  313MOL0     H42252  10.556   5.616   8.492  0.5677  1.8452  0.3744
  313MOL0     H42253  10.209   5.633   8.738 -0.4899  0.1475 -1.1825
  313MOL0     H42254  10.544   6.204   8.789  1.4804  2.0534 -1.4267
  313MOL0     H42255  10.680   6.397   8.867  3.8105  2.1692  0.4104
  314MOL0     O42256   2.633   8.822  10.243 -0.2180 -0.0159 -1.2635
  314MOL0     C42257   2.632   8.846  10.127  0.8478 -0.2852 -0.8158
  314MOL0     O42258   2.520   8.832  10.048  0.1686 -0.4023  0.1716
  314MOL0     C42259   2.415   8.784  10.116  0.8984 -0.0393 -0.4038
  314MOL0     C42260   2.359   8.840  10.232 -1.6965 -0.3167  0.8330
  314MOL0     C42261   2.243   8.784  10.288 -0.4327  0.1169  0.2919
  314MOL0     C42262   2.176   8.679  10.230 -0.0552  0.5574 -0.1640
  314MOL0     O42263   2.080   8.615  10.300 -0.4014  0.0970 -0.5662
  314MOL0     C42264   2.050   8.476  10.280  0.4743  0.2150  0.5004
  314MOL0     C42265   1.959   8.431  10.395 -0.5677  0.9312  0.2836
  314MOL0     C42266   1.912   8.294  10.351 -0.3466  0.3952  0.0859
  314MOL0     C42267   1.812   8.250  10.454  0.0778 -0.0050 -0.6249
  314MOL0     C42268   1.753   8.112  10.410  0.5877  0.0222 -0.3741
  314MOL0     C42269   1.677   8.039  10.526 -0.0579  0.7884  0.7367
  314MOL0     C42270   1.783   7.974  10.626  0.0166 -0.2565  1.0976
  314MOL0     C42271   1.721   7.909  10.743 -0.1070 -0.0404  0.3329
  314MOL0     N42272   1.669   7.770  10.730 -0.7165  0.1302 -0.4745
  314MOL0     C42273   1.546   7.743  10.675  0.3268 -0.0491  0.1795
  314MOL0     C42274   1.514   7.625  10.722  0.4201  0.0008 -0.0679
  314MOL0     C42275   1.397   7.533  10.680  0.2331 -1.1432  0.3434
  314MOL0     C42276   1.274   7.596  10.745 -0.2068  0.2410 -1.1693
  314MOL0     C42277   1.297   7.616  10.899  0.3559  0.5438 -1.0188
  314MOL0     C42278   1.168   7.659  10.972 -0.0192 -0.0869 -0.0867
  314MOL0     O42279   1.147   7.801  10.955 -0.0837 -0.3579 -0.2172
  314MOL0     C42280   1.026   7.859  10.986 -0.4908  0.0939  0.0349
  314MOL0     C42281   0.914   7.796  11.041 -0.2298 -0.2103 -0.8622
  314MOL0     C42282   0.801   7.875  11.083  0.0394 -0.7385 -0.9989
  314MOL0     C42283   0.687   7.801  11.155  0.0032  0.2111 -1.1808
  314MOL0     C42284   0.798   8.012  11.046  0.2475 -0.3363  0.4876
  314MOL0     C42285   0.683   8.096  11.083 -0.8103  0.6310 -1.0332
  314MOL0     O42286   0.629   8.184  11.001  0.0953 -0.1253  0.2081
  314MOL0     C42287   0.551   8.288  11.051  1.0448 -0.0668 -0.1956
  314MOL0     C42288   0.599   8.410  11.098 -0.1499  0.3844 -0.8671
  314MOL0     C42289   0.510   8.505  11.143 -0.1902 -0.8564 -0.6083
  314MOL0     C42290   0.369   8.487  11.120  0.0823  0.1337 -0.2165
  314MOL0     O42291   0.271   8.583  11.150  0.5268  0.4484 -0.2735
  314MOL0     C42292   0.293   8.698  11.239  0.3552  0.5972 -0.8220
  314MOL0     C42293   0.165   8.749  11.290 -0.0206 -0.8189  0.0049
  314MOL0     C42294   0.166   8.875  11.380 -0.2300 -0.3940 -1.1232
  314MOL0     C42295   0.029   8.933  11.396 -0.2164 -0.6911  0.3347
  314MOL0     C42296   0.034   9.075  11.428  0.0265 -0.5079 -0.5473
  314MOL0     C42297  -0.105   9.142  11.468  0.3954  0.1807 -0.3544
  314MOL0     C42298  -0.192   9.181  11.347 -0.6354  0.6831 -0.8621
  314MOL0     C42299  -0.316   9.253  11.396 -0.0690 -0.2948  0.0621
  314MOL0    Cl42300  -0.385   9.358  11.276 -0.5740 -0.1537  0.4592
  314MOL0     C42301   0.317   8.371  11.064 -0.6986  0.3063  0.6488
  314MOL0     C42302   0.418   8.272  11.042 -0.3311  0.7689  0.5860
  314MOL0     O42303   0.659   8.087  11.204  0.8555 -0.2347 -0.3232
  314MOL0     C42304   0.910   8.068  10.980 -0.0629  0.8017  0.9159
  314MOL0     C42305   1.014   7.993  10.948 -0.8358 -0.2302 -0.4065
  314MOL0     N42306   1.607   7.582  10.809  0.4166 -0.3830 -0.9130
  314MOL0     N42307   1.703   7.664  10.809 -0.1599 -0.2885  1.2874
  314MOL0     C42308   2.229   8.633  10.105  0.7157 -0.4736 -0.2652
  314MOL0     C42309   2.344   8.685  10.054  0.1738  0.4598 -0.6574
  314MOL0     C42310   2.752   8.894  10.069  0.7739  1.3069 -0.3650
  314MOL0     C42311   2.869   8.904  10.156 -0.4016 -0.4663  0.3637
  314MOL0     C42312   2.979   8.965  10.105  0.1416  0.2704 -0.2326
  314MOL0     C42313   2.982   8.996   9.977  0.5352 -0.7160  1.5150
  314MOL0     O42314   3.107   9.056   9.957  1.3947 -0.1565  0.2319
  314MOL0     C42315   3.137   9.090   9.816 -0.4299 -0.3341 -0.0202
  314MOL0     C42316   3.283   9.089   9.800  0.1577  0.7089 -0.0368
  314MOL0     C42317   3.329   9.143   9.664 -1.1186  0.1310  0.6398
  314MOL0     C42318   3.253   9.260   9.593 -0.3963 -0.5282  0.1390
  314MOL0     C42319   3.327   9.277   9.471 -0.9120 -0.8072  1.0107
  314MOL0     C42320   3.371   9.316   9.369  1.2107 -0.8874  0.2397
  314MOL0     C42321   2.879   8.983   9.882  0.0884 -0.4899  1.1063
  314MOL0     C42322   2.764   8.921   9.929 -0.0873  0.1486 -0.7519
  314MOL0     H42323   2.413   8.929  10.264 -0.5534 -0.3083 -0.9950
  314MOL0     H42324   2.193   8.822  10.377 -1.9853 -3.0793  0.9042
  314MOL0     H42325   2.003   8.462  10.183  0.5626  0.5869  0.4026
  314MOL0     H42326   2.132   8.405  10.279 -1.2611 -1.8732  0.4964
  314MOL0     H42327   2.006   8.434  10.494 -0.5046 -0.1191  0.2904
  314MOL0     H42328   1.872   8.497  10.397 -2.3523 -1.3519  0.8734
  314MOL0     H42329   1.864   8.306  10.254  1.7204  1.5551 -0.8626
  314MOL0     H42330   1.988   8.216  10.338  0.4137  1.0949  0.2189
  314MOL0     H42331   1.859   8.233  10.551  1.2246  0.4972 -1.0744
  314MOL0     H42332   1.727   8.318  10.464  2.2127  2.8518 -0.5356
  314MOL0     H42333   1.683   8.138  10.330  0.7477  0.0698 -0.4984
  314MOL0     H42334   1.827   8.039  10.376  1.7892 -0.0203  2.1463
  314MOL0     H42335   1.610   8.107  10.580 -1.0940  0.9381 -0.6884
  314MOL0     H42336   1.616   7.960  10.481  0.1167  1.2485 -0.3421
  314MOL0     H42337   1.838   7.902  10.564 -0.6220  0.6321 -0.5656
  314MOL0     H42338   1.848   8.055  10.661  1.5561 -1.4838  1.1519
  314MOL0     H42339   1.630   7.963  10.771 -2.1127 -2.7963 -0.4059
  314MOL0     H42340   1.800   7.924  10.817  1.9120 -0.1332 -1.6908
  314MOL0     H42341   1.492   7.807  10.605 -1.0589 -0.5458  0.7425
  314MOL0     H42342   1.385   7.542  10.572 -0.7032  1.0441  0.5689
  314MOL0     H42343   1.415   7.430  10.712  3.1781  0.2000  3.8166
  314MOL0     H42344   1.185   7.537  10.723 -0.9204  1.2822 -1.1775
  314MOL0     H42345   1.242   7.696  10.715  1.5159  1.2253  0.0596
  314MOL0     H42346   1.379   7.686  10.920  1.6029 -0.7045 -1.5511
  314MOL0     H42347   1.343   7.523  10.932  4.0791  2.6679  0.4478
  314MOL0     H42348   1.179   7.638  11.078 -1.1668  3.7971  0.9564
  314MOL0     H42349   1.089   7.596  10.930  2.0848 -0.6687 -3.6332
  314MOL0     H42350   0.909   7.692  11.073  1.8754 -1.0500 -2.9311
  314MOL0     H42351   0.592   7.854  11.148  1.8154  4.0647  0.3040
  314MOL0     H42352   0.670   7.709  11.098 -2.8900  1.7286 -3.0364
  314MOL0     H42353   0.714   7.795  11.261 -0.0160  2.9854 -0.9551
  314MOL0     H42354   0.702   8.444  11.104 -0.6480  1.7512  0.8972
  314MOL0     H42355   0.551   8.596  11.186  2.8435 -0.5329 -3.7542
  314MOL0     H42356   0.358   8.676  11.324 -0.6729  1.6207  0.2714
  314MOL0     H42357   0.338   8.775  11.176  1.5010 -0.4450 -1.3227
  314MOL0     H42358   0.107   8.768  11.199 -1.5707 -1.3830  0.8404
  314MOL0     H42359   0.104   8.671  11.337 -0.5274 -1.1259 -1.1525
  314MOL0     H42360   0.232   8.952  11.339 -1.5475 -0.0546 -2.7439
  314MOL0     H42361   0.210   8.858  11.479  0.2753 -0.3943 -1.3472
  314MOL0     H42362  -0.027   8.917  11.304 -0.9961 -0.4752  0.7568
  314MOL0     H42363  -0.023   8.879  11.476 -0.7594 -4.3250 -2.2370
  314MOL0     H42364   0.082   9.121  11.342 -0.4127 -0.6635 -0.8795
  314MOL0     H42365   0.101   9.088  11.514  0.5970  0.2730 -1.0962
  314MOL0     H42366  -0.157   9.069  11.532  2.0264 -0.5446  0.2014
  314MOL0     H42367  -0.090   9.233  11.527 -1.5521  1.0756 -1.1752
  314MOL0     H42368  -0.220   9.091  11.291 -1.0324  0.0560  0.3099
  314MOL0     H42369  -0.134   9.242  11.277 -1.9738  1.0146 -1.7101
  314MOL0     H42370  -0.282   9.312  11.482  3.8457  0.2762 -1.6457
  314MOL0     H42371  -0.387   9.181  11.439  1.8326 -0.2104  3.7233
  314MOL0     H42372   0.211   8.357  11.045 -0.9178 -1.0566  2.6076
  314MOL0     H42373   0.384   8.179  10.997 -0.4931  1.0281  0.1706
  314MOL0     H42374   0.911   8.176  10.962 -1.8617  0.9167  1.3125
  314MOL0     H42375   1.095   8.040  10.894  1.3293 -1.4685  1.5759
  314MOL0     H42376   2.184   8.542  10.070  2.0525 -0.7125 -1.4503
  314MOL0     H42377   2.386   8.639   9.965  1.5643  0.9799 -0.3054
  314MOL0     H42378   2.862   8.875  10.260 -1.4822 -0.6445  0.2554
  314MOL0     H42379   3.061   8.987  10.172 -0.7881 -0.5740  1.2153
  314MOL0     H42380   3.107   9.021   9.736 -0.1593 -0.9451  0.3997
  314MOL0     H42381   3.104   9.192   9.793 -0.0495  0.0567  1.1161
  314MOL0     H42382   3.308   8.983   9.802  0.3978  0.7752  1.0351
  314MOL0     H42383   3.335   9.148   9.876 -0.5718  3.0815 -1.2567
  314MOL0     H42384   3.316   9.058   9.597 -2.3511  1.5611 -1.0663
  314MOL0     H42385   3.436   9.158   9.680 -1.3075  3.2156 -0.2938
  314MOL0     H42386   3.256   9.354   9.648 -1.8431  0.8100 -1.9633
  314MOL0     H42387   3.148   9.236   9.577 -0.5042 -0.9844  1.3496
  314MOL0     H42388   3.418   9.368   9.288  0.2283  0.8107  0.7037
  314MOL0     H42389   2.888   9.024   9.781 -1.0710  3.6978  2.4921
  314MOL0     H42390   2.689   8.905   9.853 -0.0619 -2.0389 -0.3736
  315MOL0     O42391   7.628   9.511   5.321 -0.1736  0.0071  0.4700
  315MOL0     C42392   7.694   9.426   5.258 -0.3575  0.1383 -0.7139
  315MOL0     O42393   7.758   9.449   5.137  0.2530 -0.8889 -0.8473
  315MOL0     C42394   7.723   9.563   5.061  0.4204  0.3762 -0.2638
  315MOL0     C42395   7.593   9.625   5.063  0.6136 -0.7516 -0.1580
  315MOL0     C42396   7.564   9.721   4.976 -0.8289 -0.4084 -0.6210
  315MOL0     C42397   7.664   9.769   4.887  0.5557  0.0646 -0.1446
  315MOL0     O42398   7.657   9.869   4.791  0.1812  0.5709 -0.9370
  315MOL0     C42399   7.548   9.873   4.702  0.1235  0.3513  0.5139
  315MOL0     C42400   7.562  10.012   4.634 -0.1855  0.5400  0.6696
  315MOL0     C42401   7.508  10.125   4.718  0.3470  0.0836  0.3083
  315MOL0     C42402   7.518  10.261   4.637  0.3734 -0.1707  0.4499
  315MOL0     C42403   7.547  10.391   4.723  0.4024  0.1713 -0.5915
  315MOL0     C42404   7.417  10.438   4.788  0.4837  0.5816  0.1456
  315MOL0     C42405   7.431  10.583   4.844  0.7540 -0.1926  0.2389
  315MOL0     C42406   7.468  10.696   4.745 -0.3381 -0.3661  0.0877
  315MOL0     N42407   7.465  10.829   4.803 -0.0395 -0.7466  0.1981
  315MOL0     C42408   7.350  10.904   4.846 -0.5420  0.1007  0.0567
  315MOL0     C42409   7.405  10.999   4.940 -0.3574 -0.1360 -0.0230
  315MOL0     C42410   7.338  11.100   5.023  0.1108  0.8770 -0.0612
  315MOL0     C42411   7.245  11.198   4.947 -0.0555  0.0890  0.6192
  315MOL0     C42412   7.099  11.161   4.913 -0.5855 -0.9089 -0.4326
  315MOL0     C42413   7.005  11.149   5.031 -0.2050  0.1492  0.0429
  315MOL0     O42414   7.002  11.248   5.128  0.2861  0.5515 -0.6772
  315MOL0     C42415   6.907  11.203   5.218  0.3843 -0.3090  0.0951
  315MOL0     C42416   6.777  11.251   5.196  0.0632  0.7732  0.1199
  315MOL0     C42417   6.668  11.229   5.281 -0.3447 -0.3171  0.2186
  315MOL0     C42418   6.537  11.282   5.234  0.8420  0.2409  0.4840
  315MOL0     C42419   6.703  11.162   5.404  0.9109  0.3730 -0.0191
  315MOL0     C42420   6.604  11.131   5.503  0.8223  0.7338 -0.0595
  315MOL0     O42421   6.648  11.118   5.630 -0.7310 -0.7292 -0.0428
  315MOL0     C42422   6.564  11.064   5.721  0.2835  0.5147  0.2894
  315MOL0     C42423   6.465  11.144   5.778  0.1007 -0.2624 -0.6318
  315MOL0     C42424   6.381  11.101   5.885 -0.7728 -0.3133  0.8314
  315MOL0     C42425   6.407  10.971   5.945 -0.9518  0.1505  0.2302
  315MOL0     O42426   6.324  10.928   6.039  0.5620  1.1453 -0.0970
  315MOL0     C42427   6.357  10.810   6.107 -0.0490 -0.0710  0.2014
  315MOL0     C42428   6.242  10.783   6.209  0.2355 -0.0613 -0.4990
  315MOL0     C42429   6.264  10.860   6.343  0.0043  0.5603 -0.1487
  315MOL0     C42430   6.364  10.789   6.437 -0.0734  0.7032 -0.4528
  315MOL0     C42431   6.294  10.664   6.496 -0.6047 -0.2078  1.0311
  315MOL0     C42432   6.359  10.637   6.631  0.3182  0.7990  0.3529
  315MOL0     C42433   6.320  10.502   6.696  0.3939 -0.3090 -0.1528
  315MOL0     C42434   6.389  10.489   6.838  0.1403 -0.9661 -0.9174
  315MOL0    Cl42435   6.363  10.627   6.948 -0.1730 -0.4706 -0.1381
  315MOL0     C42436   6.519  10.888   5.887  0.4107 -0.0804  0.8141
  315MOL0     C42437   6.599  10.946   5.779 -0.8315  0.0101  0.0262
  315MOL0     O42438   6.482  11.144   5.467  0.0712  0.0158  0.4364
  315MOL0     C42439   6.837  11.121   5.430  0.3584  0.5496  0.4611
  315MOL0     C42440   6.933  11.144   5.336  0.5843 -0.1065 -0.5369
  315MOL0     N42441   7.534  10.971   4.954 -0.0833  0.0876  0.4552
  315MOL0     N42442   7.568  10.875   4.874 -0.6369 -0.1415  0.1299
  315MOL0     C42443   7.795   9.718   4.895  0.0815 -0.5200  0.0055
  315MOL0     C42444   7.825   9.611   4.975  0.4608  0.2062 -0.2147
  315MOL0     C42445   7.710   9.294   5.327  0.3054 -0.0484 -0.2876
  315MOL0     C42446   7.632   9.256   5.438 -0.1816  0.9458  0.3186
  315MOL0     C42447   7.652   9.125   5.503 -0.3177  0.0820 -0.1571
  315MOL0     C42448   7.752   9.043   5.456  0.0873  0.3240  0.3250
  315MOL0     O42449   7.758   8.914   5.512 -0.5379 -1.2881 -0.1325
  315MOL0     C42450   7.856   8.815   5.470 -0.1969 -0.3000  0.0684
  315MOL0     C42451   7.840   8.699   5.556  0.2444  0.1095 -0.2698
  315MOL0     C42452   7.692   8.670   5.603  0.8972 -0.3464  0.8754
  315MOL0     C42453   7.655   8.519   5.634  0.0639 -0.1140  0.3636
  315MOL0     C42454   7.727   8.470   5.744  0.1044 -0.2559  0.1597
  315MOL0     C42455   7.797   8.429   5.826  0.8700 -0.0355  0.7172
  315MOL0     C42456   7.835   9.097   5.363  0.0194 -0.3683  0.8566
  315MOL0     C42457   7.815   9.219   5.295 -0.2715  0.4999 -0.2370
  315MOL0     H42458   7.515   9.587   5.129  0.4709  0.2071  0.2382
  315MOL0     H42459   7.469   9.774   4.980 -1.9483 -2.3649  0.8288
  315MOL0     H42460   7.546   9.788   4.633 -1.2037  1.7362 -1.2667
  315MOL0     H42461   7.449   9.865   4.749 -0.1151  0.0989 -0.0184
  315MOL0     H42462   7.667  10.031   4.609 -0.5168  1.0615 -0.4242
  315MOL0     H42463   7.503   9.991   4.545 -0.4374  0.0960  0.9425
  315MOL0     H42464   7.404  10.103   4.745 -0.2153 -1.0465 -2.4160
  315MOL0     H42465   7.571  10.128   4.807 -0.0073  1.1993  0.5396
  315MOL0     H42466   7.599  10.260   4.563  1.6929 -1.1620  1.8375
  315MOL0     H42467   7.421  10.270   4.587 -2.5893 -1.0455  5.4199
  315MOL0     H42468   7.612  10.372   4.809 -1.6053 -0.2629  0.8967
  315MOL0     H42469   7.582  10.462   4.648 -2.0319  1.0291 -0.9666
  315MOL0     H42470   7.336  10.437   4.714  0.3047 -1.8412  0.2835
  315MOL0     H42471   7.381  10.363   4.859 -0.9278  2.7695  1.8456
  315MOL0     H42472   7.328  10.601   4.875  0.3474 -1.3198 -0.4092
  315MOL0     H42473   7.501  10.595   4.927  0.4404  1.6027  0.2886
  315MOL0     H42474   7.405  10.689   4.655  0.9567 -0.7301 -0.8195
  315MOL0     H42475   7.567  10.682   4.700  0.3732  1.2273  1.0960
  315MOL0     H42476   7.250  10.885   4.809  1.2770 -2.8254 -4.2089
  315MOL0     H42477   7.292  11.056   5.112 -2.2381 -1.2041 -2.1545
  315MOL0     H42478   7.415  11.168   5.061 -0.5081  0.9975  1.0160
  315MOL0     H42479   7.296  11.220   4.853  0.4799 -1.1459  0.6000
  315MOL0     H42480   7.229  11.292   5.000  1.0755  0.4813  0.2884
  315MOL0     H42481   7.103  11.068   4.856 -1.5076 -1.7347  0.8024
  315MOL0     H42482   7.058  11.239   4.848 -1.8925 -2.3503 -1.4075
  315MOL0     H42483   7.025  11.055   5.085 -1.8299 -0.1062  0.2678
  315MOL0     H42484   6.907  11.132   4.986 -0.1029  1.2546 -0.6057
  315MOL0     H42485   6.772  11.302   5.100 -1.0091  0.9431  0.2619
  315MOL0     H42486   6.559  11.351   5.152 -1.2806 -0.3956 -0.6917
  315MOL0     H42487   6.483  11.197   5.191  1.0449 -0.7506  2.1120
  315MOL0     H42488   6.471  11.337   5.301  0.2844  1.2098 -0.8155
  315MOL0     H42489   6.454  11.241   5.731 -1.9192 -1.0857 -1.9980
  315MOL0     H42490   6.303  11.166   5.923 -0.8395 -0.3367  0.7348
  315MOL0     H42491   6.361  10.714   6.055  0.0795 -0.0941  0.2545
  315MOL0     H42492   6.449  10.827   6.165  0.4654 -3.4101  0.5528
  315MOL0     H42493   6.151  10.812   6.156 -1.8518 -2.7113  1.3805
  315MOL0     H42494   6.231  10.677   6.233  3.0242 -0.6546 -1.4679
  315MOL0     H42495   6.163  10.872   6.384 -0.2845 -1.0467 -0.3164
  315MOL0     H42496   6.302  10.959   6.317  0.9985  0.1620 -0.2644
  315MOL0     H42497   6.461  10.766   6.392  0.8987  2.5007  0.6210
  315MOL0     H42498   6.389  10.852   6.523  0.9516 -2.8153  2.0405
  315MOL0     H42499   6.325  10.580   6.434  0.5731 -0.6490  2.1552
  315MOL0     H42500   6.186  10.674   6.514 -0.7875 -1.3252  0.5844
  315MOL0     H42501   6.466  10.619   6.614  0.3416  0.1526  1.1090
  315MOL0     H42502   6.339  10.720   6.699 -4.9146 -1.0025  1.4130
  315MOL0     H42503   6.367  10.427   6.632 -0.1880 -0.8889  0.0845
  315MOL0     H42504   6.212  10.486   6.707 -0.2541  3.3545 -0.1254
  315MOL0     H42505   6.496  10.475   6.820  0.2442 -1.6520  0.1663
  315MOL0     H42506   6.362  10.397   6.890 -2.4710  0.4269  0.3909
  315MOL0     H42507   6.543  10.789   5.924  0.6554  0.3155  1.7406
  315MOL0     H42508   6.686  10.902   5.729 -0.2909  0.2311  0.7610
  315MOL0     H42509   6.870  11.085   5.527  1.4358  2.1590  0.7393
  315MOL0     H42510   7.029  11.106   5.369  0.1781 -2.0412 -1.4939
  315MOL0     H42511   7.871   9.754   4.826 -0.3880 -3.0380 -1.9377
  315MOL0     H42512   7.923   9.565   4.971  0.0191 -0.7135 -0.9267
  315MOL0     H42513   7.557   9.321   5.480 -1.4915 -0.8371  0.8488
  315MOL0     H42514   7.582   9.097   5.582 -0.2749  1.7974  0.5231
  315MOL0     H42515   7.837   8.796   5.364  3.2632 -0.8953 -0.5455
  315MOL0     H42516   7.957   8.854   5.484  1.5200 -4.5984  1.2692
  315MOL0     H42517   7.900   8.698   5.648  0.7654 -3.3240 -0.5199
  315MOL0     H42518   7.873   8.612   5.500 -2.8641 -2.7106  1.8505
  315MOL0     H42519   7.637   8.704   5.515  2.4933  2.8635  0.9493
  315MOL0     H42520   7.665   8.732   5.689 -1.3492 -1.0560  0.7437
  315MOL0     H42521   7.688   8.457   5.551 -0.0238  0.0629  0.1957
  315MOL0     H42522   7.547   8.522   5.646  0.1049  0.9332  0.5487
  315MOL0     H42523   7.857   8.388   5.905  2.2007 -0.9397 -0.6965
  315MOL0     H42524   7.918   9.039   5.325 -1.3461 -3.0150  1.7067
  315MOL0     H42525   7.892   9.246   5.223 -0.8215  0.9991 -0.6520
  316MOL0     O42526   4.883   3.958   2.103  0.1800 -0.5764  0.2646
  316MOL0     C42527   4.917   4.077   2.100 -0.3999  0.3833 -0.0180
  316MOL0     O42528   4.989   4.137   1.992  0.4985 -0.0519  0.0051
  316MOL0     C42529   5.020   4.064   1.886 -0.0653  0.1015  0.4354
  316MOL0     C42530   4.924   4.041   1.788 -0.1931  1.1985 -0.2678
  316MOL0     C42531   4.954   3.962   1.675 -0.3975 -1.0362  0.3947
  316MOL0     C42532   5.084   3.925   1.646  0.8666  0.2764  0.7209
  316MOL0     O42533   5.113   3.837   1.540  0.8274 -0.6462 -0.5462
  316MOL0     C42534   5.013   3.740   1.493 -1.2108  0.3738  0.5287
  316MOL0     C42535   5.099   3.647   1.404  0.8264 -0.6487  0.0462
  316MOL0     C42536   5.191   3.701   1.288 -0.6946 -0.4407 -1.2291
  316MOL0     C42537   5.286   3.595   1.239  0.1004  0.0880  0.3851
  316MOL0     C42538   5.405   3.664   1.173 -0.8281 -1.2322 -0.0367
  316MOL0     C42539   5.508   3.577   1.089 -0.0427 -0.4970  0.0289
  316MOL0     C42540   5.558   3.463   1.170  0.3783 -0.9605  0.8017
  316MOL0     C42541   5.672   3.400   1.106 -0.3408 -0.1569 -0.8600
  316MOL0     N42542   5.621   3.333   0.978 -0.0302 -1.0394  0.3501
  316MOL0     C42543   5.494   3.287   0.950  0.9858 -0.4218  0.4007
  316MOL0     C42544   5.497   3.254   0.818 -0.9275  0.1154 -0.9261
  316MOL0     C42545   5.393   3.168   0.751 -0.2751 -0.8259  0.7243
  316MOL0     C42546   5.245   3.208   0.780 -0.9297 -0.8845 -0.7820
  316MOL0     C42547   5.208   3.347   0.723 -0.9004 -0.6536  0.5602
  316MOL0     C42548   5.060   3.375   0.729  0.3680 -0.4378  0.1740
  316MOL0     O42549   5.026   3.432   0.861  0.0517 -0.0085 -0.1632
  316MOL0     C42550   4.908   3.496   0.879  0.6067 -0.3782  0.7086
  316MOL0     C42551   4.903   3.600   0.970 -0.2817 -0.2601 -0.5209
  316MOL0     C42552   4.791   3.673   0.998 -0.7303 -0.6491 -0.1309
  316MOL0     C42553   4.820   3.792   1.082 -0.1065 -0.3178 -0.3589
  316MOL0     C42554   4.665   3.634   0.941 -0.5226 -0.9177  0.0997
  316MOL0     C42555   4.533   3.710   0.959  0.1170  0.1251 -0.3366
  316MOL0     O42556   4.429   3.703   0.864 -0.5663  0.6938  0.7749
  316MOL0     C42557   4.301   3.722   0.898  0.5785 -0.3464  1.3890
  316MOL0     C42558   4.246   3.678   1.015  0.3063  0.6261 -0.4018
  316MOL0     C42559   4.109   3.684   1.041  0.0633  0.0710  0.0008
  316MOL0     C42560   4.026   3.745   0.941 -0.5533 -0.8999 -0.3673
  316MOL0     O42561   3.889   3.744   0.940 -0.8410 -0.2323 -0.0799
  316MOL0     C42562   3.829   3.743   1.068  0.5125 -0.0908  0.1012
  316MOL0     C42563   3.696   3.814   1.042 -0.5431  0.6709  0.3458
  316MOL0     C42564   3.605   3.724   0.968 -0.0366 -0.3618 -0.2410
  316MOL0     C42565   3.461   3.758   0.997  0.0639  0.9089  0.2851
  316MOL0     C42566   3.386   3.634   0.960 -0.0676  0.0562  0.1202
  316MOL0     C42567   3.236   3.663   0.993  0.5926  0.1931 -0.0981
  316MOL0     C42568   3.151   3.570   0.895  0.2219 -0.3486 -0.1207
  316MOL0     C42569   3.032   3.500   0.965 -0.4260 -0.4736  0.1742
  316MOL0    Cl42570   2.935   3.398   0.863  0.2417 -0.1040  0.3893
  316MOL0     C42571   4.083   3.798   0.826 -0.5846  0.2800 -0.1502
  316MOL0     C42572   4.220   3.784   0.793 -0.0084 -0.0480 -0.3128
  316MOL0     O42573   4.519   3.776   1.064  0.0530 -0.0646 -0.2418
  316MOL0     C42574   4.672   3.531   0.853  0.5256 -0.4808  0.8594
  316MOL0     C42575   4.786   3.463   0.815  0.7882  0.8887 -0.8047
  316MOL0     N42576   5.624   3.285   0.776  0.4357 -0.6453 -0.1284
  316MOL0     N42577   5.689   3.347   0.863 -0.2712  0.0331 -0.1682
  316MOL0     C42578   5.181   3.961   1.736  0.1310 -0.0638 -0.6568
  316MOL0     C42579   5.152   4.030   1.859 -0.0194  0.4662 -0.2748
  316MOL0     C42580   4.897   4.172   2.214 -0.1353  0.5354  0.2204
  316MOL0     C42581   4.858   4.130   2.345 -1.0349  0.0876 -0.1109
  316MOL0     C42582   4.860   4.216   2.457 -1.1382  0.5449 -0.0914
  316MOL0     C42583   4.905   4.345   2.449  0.1046  0.3787  0.2076
  316MOL0     O42584   4.920   4.421   2.562  0.1738 -0.2960 -0.5860
  316MOL0     C42585   4.907   4.562   2.549  1.3499 -0.0359 -0.2663
  316MOL0     C42586   4.832   4.607   2.681 -0.3295 -0.4975 -0.0014
  316MOL0     C42587   4.692   4.550   2.688 -1.0109 -0.1831  0.6863
  316MOL0     C42588   4.598   4.619   2.785  0.4300 -0.3122  0.6688
  316MOL0     C42589   4.553   4.754   2.737 -0.1315  0.5980  0.0972
  316MOL0     C42590   4.529   4.853   2.683  0.0497  0.6803 -0.1611
  316MOL0     C42591   4.931   4.387   2.317  0.1681 -0.1022  0.7430
  316MOL0     C42592   4.932   4.305   2.204 -0.4520 -0.2075  0.1863
  316MOL0     H42593   4.818   4.057   1.801  0.2080  2.3777  2.0732
  316MOL0     H42594   4.874   3.955   1.602 -0.7505  0.0685  0.6474
  316MOL0     H42595   4.967   3.681   1.573 -0.9848  1.2966  1.3618
  316MOL0     H42596   4.949   3.795   1.423  3.0968  2.5111 -2.1376
  316MOL0     H42597   5.157   3.584   1.472  1.6017 -0.3079 -0.2775
  316MOL0     H42598   5.030   3.578   1.355  1.5881 -1.2591 -0.1943
  316MOL0     H42599   5.125   3.733   1.207 -0.2190  0.5630 -1.2334
  316MOL0     H42600   5.246   3.788   1.324  0.2600 -1.8004  0.8169
  316MOL0     H42601   5.319   3.533   1.323 -1.2261 -2.0083 -0.5695
  316MOL0     H42602   5.236   3.524   1.172  0.7604  0.3803 -0.4245
  316MOL0     H42603   5.379   3.749   1.109  0.8365 -1.0311 -0.4892
  316MOL0     H42604   5.453   3.696   1.266 -0.6013 -1.4639 -0.0747
  316MOL0     H42605   5.451   3.541   1.002 -3.9779  1.1224  1.6801
  316MOL0     H42606   5.591   3.640   1.056  3.3793 -2.5749  3.7783
  316MOL0     H42607   5.596   3.512   1.260 -0.9833  1.1509  0.3003
  316MOL0     H42608   5.481   3.391   1.201  0.6394 -1.3323  0.5932
  316MOL0     H42609   5.712   3.323   1.172 -2.1077  0.6231  1.2341
  316MOL0     H42610   5.760   3.465   1.102  0.6536 -1.0786  2.4499
  316MOL0     H42611   5.417   3.265   1.023  0.0154  0.0676 -0.4447
  316MOL0     H42612   5.417   3.182   0.645 -2.1630 -0.0637  0.3469
  316MOL0     H42613   5.412   3.063   0.777 -1.9525 -0.5959  3.2548
  316MOL0     H42614   5.237   3.202   0.889  5.1614 -3.7056 -0.0854
  316MOL0     H42615   5.175   3.130   0.745 -1.4299 -1.7900  1.9784
  316MOL0     H42616   5.226   3.344   0.615  0.0925 -2.0475  0.7527
  316MOL0     H42617   5.262   3.432   0.766 -3.1246  1.8900 -1.3338
  316MOL0     H42618   5.010   3.279   0.709 -1.6468  0.0234  2.5514
  316MOL0     H42619   5.042   3.455   0.657 -4.1757  0.1747  1.6537
  316MOL0     H42620   5.001   3.619   1.014 -2.0341  2.0795  2.8205
  316MOL0     H42621   4.739   3.809   1.154  0.0544 -2.6317  0.4670
  316MOL0     H42622   4.899   3.770   1.155 -0.2601  1.6595  0.4727
  316MOL0     H42623   4.842   3.883   1.026 -0.1679  1.0637  1.7436
  316MOL0     H42624   4.308   3.631   1.090 -0.0768 -0.9507 -1.0310
  316MOL0     H42625   4.071   3.654   1.138  1.5131  0.6805  0.7773
  316MOL0     H42626   3.827   3.643   1.112  3.5135  1.0502  3.4064
  316MOL0     H42627   3.880   3.806   1.142  0.5150  2.8947 -2.2452
  316MOL0     H42628   3.641   3.822   1.136 -0.2700 -0.5642  0.6257
  316MOL0     H42629   3.706   3.898   0.973 -3.5735 -1.3861 -2.9248
  316MOL0     H42630   3.626   3.619   0.990  0.7998 -0.0505  0.4819
  316MOL0     H42631   3.619   3.733   0.860  0.9902  1.3355  0.0097
  316MOL0     H42632   3.435   3.778   1.102 -0.9693  1.8096 -0.1202
  316MOL0     H42633   3.423   3.840   0.935  0.6588  0.7456 -0.2983
  316MOL0     H42634   3.408   3.551   1.027  2.0612  1.3569  1.1460
  316MOL0     H42635   3.404   3.611   0.855 -0.1048 -0.8638  0.3063
  316MOL0     H42636   3.218   3.648   1.100  1.7150 -2.9762 -0.2514
  316MOL0     H42637   3.190   3.758   0.962 -2.4281 -0.1791  2.6699
  316MOL0     H42638   3.209   3.497   0.837 -0.4215 -2.2424  1.4873
  316MOL0     H42639   3.114   3.642   0.822  2.4356  2.4569  1.3277
  316MOL0     H42640   2.963   3.570   1.012  0.0469  0.2966 -0.2736
  316MOL0     H42641   3.090   3.447   1.041  2.4076 -0.5136 -1.8477
  316MOL0     H42642   4.019   3.829   0.745 -1.3011  1.2062  0.7414
  316MOL0     H42643   4.273   3.812   0.702 -1.5830  4.0146 -0.1945
  316MOL0     H42644   4.580   3.497   0.807  0.1957 -1.1027  1.9375
  316MOL0     H42645   4.785   3.387   0.737 -1.3544 -1.2860  1.1592
  316MOL0     H42646   5.277   3.917   1.709  0.1117  0.4335 -1.5463
  316MOL0     H42647   5.233   4.050   1.929  0.3961  1.4488 -1.0110
  316MOL0     H42648   4.831   4.028   2.370  0.8679 -1.0162 -2.1548
  316MOL0     H42649   4.837   4.166   2.550 -0.7639 -1.2684 -0.9343
  316MOL0     H42650   5.008   4.605   2.551  0.1617  3.0981  2.8027
  316MOL0     H42651   4.852   4.605   2.464  0.4447  2.7862  1.5946
  316MOL0     H42652   4.830   4.712   2.710  0.9594 -0.9465  1.8968
  316MOL0     H42653   4.878   4.570   2.772 -1.9919  1.7457  1.8619
  316MOL0     H42654   4.695   4.442   2.708 -1.1811 -0.4828 -0.8115
  316MOL0     H42655   4.642   4.557   2.591  0.7889  2.8654 -0.1526
  316MOL0     H42656   4.636   4.630   2.887 -1.0867 -0.8917  1.3163
  316MOL0     H42657   4.510   4.556   2.793 -0.7030  1.4434  3.2203
  316MOL0     H42658   4.496   4.934   2.621  0.0787  1.1225  0.3934
  316MOL0     H42659   4.974   4.487   2.310  2.9991 -1.1785  1.3478
  316MOL0     H42660   4.986   4.349   2.121 -0.4189  2.7689  1.6517
  317MOL0     O42661   0.980  11.030   9.594 -0.2704  0.7810 -0.5381
  317MOL0     C42662   0.923  10.958   9.671  1.0257  0.7637 -0.5782
  317MOL0     O42663   0.943  10.953   9.809  0.7776  0.7360 -0.5888
  317MOL0     C42664   1.040  11.016   9.870 -0.5455  0.1787 -0.4439
  317MOL0     C42665   1.176  10.978   9.849  1.0490  0.3417 -0.5535
  317MOL0     C42666   1.285  11.030   9.928 -0.4382 -0.1953  0.6338
  317MOL0     C42667   1.256  11.134  10.014 -0.3186  0.0060  0.0544
  317MOL0     O42668   1.353  11.187  10.101  0.4185  0.4576  0.0067
  317MOL0     C42669   1.494  11.190  10.051  0.7666 -0.2253  0.5771
  317MOL0     C42670   1.573  11.276  10.152  0.8316  0.2931  0.0169
  317MOL0     C42671   1.708  11.324  10.104 -0.0824  0.5859  0.5482
  317MOL0     C42672   1.808  11.380  10.201  0.9340  0.4005 -0.5783
  317MOL0     C42673   1.851  11.279  10.309 -0.3861 -0.6566 -0.3677
  317MOL0     C42674   1.945  11.353  10.416 -0.1966  0.5472 -0.3464
  317MOL0     C42675   2.083  11.395  10.347 -0.0515 -0.4778 -0.9409
  317MOL0     C42676   2.185  11.437  10.459 -0.4867  0.1697  0.0343
  317MOL0     N42677   2.287  11.520  10.394 -0.4350 -0.0112 -0.0387
  317MOL0     C42678   2.354  11.611  10.465 -0.5091  0.3724 -0.6461
  317MOL0     C42679   2.454  11.637  10.386  0.4625  0.0645  0.4756
  317MOL0     C42680   2.561  11.738  10.413 -1.9225 -0.5693 -0.3907
  317MOL0     C42681   2.695  11.678  10.467 -0.3528  0.1590  0.4288
  317MOL0     C42682   2.742  11.769  10.582  0.3475 -0.2760  0.3592
  317MOL0     C42683   2.865  11.708  10.649  0.3199 -0.2767  0.1794
  317MOL0     O42684   2.897  11.785  10.765 -0.6196  0.6011  0.4042
  317MOL0     C42685   3.022  11.852  10.770  0.8349  0.1989  0.0378
  317MOL0     C42686   3.090  11.902  10.662  0.6789  0.1502 -0.2628
  317MOL0     C42687   3.208  11.977  10.677 -0.9121 -0.4650  0.0189
  317MOL0     C42688   3.285  12.028  10.544  0.8802  0.9581  0.7741
  317MOL0     C42689   3.268  11.999  10.804 -0.4569 -0.0241  0.0095
  317MOL0     C42690   3.397  12.052  10.836 -0.2024 -1.0496  1.1457
  317MOL0     O42691   3.470  12.104  10.735  0.6961 -0.1564  0.0511
  317MOL0     C42692   3.591  12.159  10.761 -0.2677  0.7144  0.1199
  317MOL0     C42693   3.604  12.266  10.849  0.7899 -0.3676  0.6462
  317MOL0     C42694   3.721  12.339  10.864  0.0628 -0.9806  1.0034
  317MOL0     C42695   3.836  12.294  10.802 -0.2502 -0.1314 -0.5044
  317MOL0     O42696   3.953  12.368  10.801 -0.0778  0.6428 -0.0612
  317MOL0     C42697   4.065  12.296  10.845  0.3410 -0.1924 -0.0868
  317MOL0     C42698   4.181  12.386  10.816  0.2817 -0.6907  0.7937
  317MOL0     C42699   4.176  12.519  10.891  0.8185 -0.8856  0.0542
  317MOL0     C42700   4.318  12.585  10.902 -0.9971 -0.1829  0.6282
  317MOL0     C42701   4.308  12.719  10.976  0.0014  0.8363 -0.5337
  317MOL0     C42702   4.209  12.821  10.929  0.0396 -0.6443  0.3949
  317MOL0     C42703   4.221  12.938  11.025  0.1325 -0.6866 -0.6336
  317MOL0     C42704   4.098  13.027  11.026 -0.4716  0.3435  0.6162
  317MOL0    Cl42705   4.092  13.125  10.871 -0.1204 -0.1845  0.4252
  317MOL0     C42706   3.833  12.181  10.718  0.1886 -0.3331  0.5055
  317MOL0     C42707   3.709  12.115  10.692  0.3059  0.4809  0.0135
  317MOL0     O42708   3.436  12.054  10.951  0.3581  0.5656  0.0000
  317MOL0     C42709   3.195  11.936  10.909  0.2253 -0.1581  0.1683
  317MOL0     C42710   3.078  11.866  10.894 -0.1807 -0.4873 -0.8911
  317MOL0     N42711   2.440  11.574  10.266 -0.2986  0.3907 -0.2564
  317MOL0     N42712   2.351  11.479  10.278 -0.4187  0.0894  0.0568
  317MOL0     C42713   1.126  11.180  10.032  1.1295  0.2198 -0.9269
  317MOL0     C42714   1.022  11.122   9.962 -0.4410  0.0812 -0.0636
  317MOL0     C42715   0.794  10.899   9.626 -0.4777  0.3965  0.5449
  317MOL0     C42716   0.733  10.940   9.503 -0.0993  0.5374 -0.3220
  317MOL0     C42717   0.619  10.875   9.454 -1.2665 -0.4223 -0.1118
  317MOL0     C42718   0.560  10.758   9.521  0.4038 -0.5049 -0.2196
  317MOL0     O42719   0.449  10.696   9.466 -0.4129 -0.3126 -0.7352
  317MOL0     C42720   0.420  10.561   9.508  0.6491  0.3527  0.0122
  317MOL0     C42721   0.374  10.498   9.375  0.0612 -0.5914 -0.4762
  317MOL0     C42722   0.486  10.494   9.263  0.0699  0.3457 -0.7152
  317MOL0     C42723   0.453  10.400   9.144 -0.4391 -1.2719  0.3854
  317MOL0     C42724   0.461  10.258   9.177  0.6678 -0.1354 -0.5298
  317MOL0     C42725   0.460  10.143   9.214 -0.2543 -0.6266  0.1073
  317MOL0     C42726   0.620  10.731   9.648 -0.2977  0.0638  0.9559
  317MOL0     C42727   0.738  10.789   9.702  0.7738  0.0888 -0.7211
  317MOL0     H42728   1.197  10.898   9.779 -0.0677 -0.9897  0.5719
  317MOL0     H42729   1.387  10.994   9.921  0.2346  1.8046 -0.5918
  317MOL0     H42730   1.540  11.092  10.066 -0.9980 -1.1672  0.1514
  317MOL0     H42731   1.497  11.227   9.948  1.7329 -2.1780 -0.1573
  317MOL0     H42732   1.521  11.369  10.177  1.1598  0.3484  0.5272
  317MOL0     H42733   1.588  11.212  10.239 -0.9786  2.4873  2.1053
  317MOL0     H42734   1.759  11.234  10.069 -1.7274  0.9196 -3.2750
  317MOL0     H42735   1.684  11.385  10.016  0.4338 -3.6202 -2.8439
  317MOL0     H42736   1.887  11.425  10.141  0.6368  2.5708  0.5621
  317MOL0     H42737   1.762  11.463  10.255  0.4825 -0.8637  1.0516
  317MOL0     H42738   1.762  11.243  10.361 -0.9859  0.5583 -0.5101
  317MOL0     H42739   1.908  11.207  10.250  2.5355  1.5639 -0.4549
  317MOL0     H42740   1.902  11.441  10.463  1.1024  2.0954 -1.9377
  317MOL0     H42741   1.965  11.287  10.501  0.1381  0.2950 -0.6149
  317MOL0     H42742   2.125  11.314  10.288  2.2752  1.5556 -2.2557
  317MOL0     H42743   2.077  11.480  10.278 -1.7301 -1.3914 -1.9844
  317MOL0     H42744   2.234  11.359  10.517  3.3208  1.7765 -0.7462
  317MOL0     H42745   2.125  11.481  10.539 -1.9109  3.5834 -2.6557
  317MOL0     H42746   2.347  11.641  10.569 -1.9957  0.5864 -0.7934
  317MOL0     H42747   2.592  11.794  10.324  1.1366 -0.9027  0.3517
  317MOL0     H42748   2.519  11.804  10.490 -1.3576  0.3822 -0.8901
  317MOL0     H42749   2.774  11.665  10.392  0.8580  1.3779  1.4539
  317MOL0     H42750   2.680  11.580  10.515  0.7512 -0.6813 -0.8516
  317MOL0     H42751   2.667  11.793  10.657  3.1383 -0.1765  3.3565
  317MOL0     H42752   2.763  11.862  10.528  0.0972 -0.3352  0.1603
  317MOL0     H42753   2.947  11.703  10.576 -0.8864 -0.2966 -1.2038
  317MOL0     H42754   2.848  11.604  10.678 -1.2615 -0.3423 -0.8897
  317MOL0     H42755   3.059  11.891  10.558  1.3911 -0.6722 -0.3997
  317MOL0     H42756   3.314  12.133  10.532  1.6471  0.3990 -4.7125
  317MOL0     H42757   3.373  11.964  10.537 -0.8831 -1.4374 -2.3226
  317MOL0     H42758   3.220  12.012  10.457  1.9116  0.9859 -0.0132
  317MOL0     H42759   3.519  12.307  10.901  0.7507  0.1133  0.2163
  317MOL0     H42760   3.732  12.415  10.942  2.9146 -3.2041  2.9870
  317MOL0     H42761   4.059  12.265  10.950 -2.2650 -2.1436 -0.7042
  317MOL0     H42762   4.084  12.208  10.783  0.3086  0.0667 -0.4670
  317MOL0     H42763   4.272  12.341  10.856  0.6351  0.2787  1.1137
  317MOL0     H42764   4.189  12.407  10.709  0.3078 -0.1567  0.8956
  317MOL0     H42765   4.132  12.491  10.988 -1.4115  0.7705 -0.3824
  317MOL0     H42766   4.105  12.586  10.842  0.4432 -1.7903 -0.6670
  317MOL0     H42767   4.380  12.515  10.957 -1.1716 -0.9692 -0.1553
  317MOL0     H42768   4.352  12.602  10.799  2.2865 -3.1111  1.0765
  317MOL0     H42769   4.410  12.759  10.978  1.2023 -1.8739  2.8100
  317MOL0     H42770   4.286  12.698  11.081 -1.7220  0.3171 -0.9733
  317MOL0     H42771   4.214  12.858  10.826 -0.0522 -2.3478 -0.2599
  317MOL0     H42772   4.111  12.772  10.937 -0.6083  0.4471 -0.6060
  317MOL0     H42773   4.315  12.987  10.999 -0.2271 -0.3390 -1.2973
  317MOL0     H42774   4.244  12.910  11.128  1.9744  1.0217 -0.5281
  317MOL0     H42775   4.078  13.087  11.115  0.7005  3.5704 -1.1465
  317MOL0     H42776   4.011  12.961  11.021 -0.8198  0.9175 -2.2074
  317MOL0     H42777   3.922  12.146  10.666 -0.2179 -0.7215  0.0745
  317MOL0     H42778   3.697  12.038  10.617 -2.1712  1.3889 -0.6242
  317MOL0     H42779   3.234  11.932  11.009  2.3792  1.8876 -0.5055
  317MOL0     H42780   3.026  11.817  10.975  0.4096  0.2303 -0.0573
  317MOL0     H42781   1.110  11.255  10.108  0.5459 -3.9190  3.5567
  317MOL0     H42782   0.924  11.163   9.981 -0.5740 -1.0864  2.1899
  317MOL0     H42783   0.786  11.017   9.449  2.7919 -1.1453 -0.0849
  317MOL0     H42784   0.579  10.901   9.357 -0.1575  3.8542  0.3873
  317MOL0     H42785   0.505  10.505   9.549 -0.8336 -1.0339  1.3707
  317MOL0     H42786   0.332  10.552   9.573  0.5988  1.0143  0.0402
  317MOL0     H42787   0.283  10.546   9.339  0.5913  0.8342  0.0130
  317MOL0     H42788   0.350  10.393   9.395 -1.4586 -0.2990 -0.6486
  317MOL0     H42789   0.581  10.467   9.309 -0.4751  3.1312  2.4103
  317MOL0     H42790   0.495  10.596   9.225  1.3196  1.3039  1.8930
  317MOL0     H42791   0.525  10.428   9.066 -1.8449  2.3922  0.2188
  317MOL0     H42792   0.356  10.421   9.098  1.1348 -0.7609 -2.9988
  317MOL0     H42793   0.475  10.043   9.250  0.9710  0.2021  2.1113
  317MOL0     H42794   0.579  10.642   9.694 -1.8800  0.4423  0.3376
  317MOL0     H42795   0.786  10.736   9.783  1.4495 -0.3391 -1.3865
  318MOL0     O42796   2.308  10.655   4.756  0.5926  0.3285  0.4875
  318MOL0     C42797   2.271  10.615   4.647 -0.1919 -0.2828 -0.1557
  318MOL0     O42798   2.327  10.505   4.575 -0.2629  0.1431 -0.0044
  318MOL0     C42799   2.429  10.433   4.635 -0.1261 -0.4276  0.3491
  318MOL0     C42800   2.558  10.435   4.583  0.2034 -0.3474 -0.9560
  318MOL0     C42801   2.661  10.364   4.663 -0.1223 -0.1655  1.0333
  318MOL0     C42802   2.633  10.277   4.767 -0.0852 -0.0545  0.1580
  318MOL0     O42803   2.720  10.212   4.839  0.0909  0.6297  0.0400
  318MOL0     C42804   2.862  10.229   4.836 -0.7060 -0.6895 -0.8809
  318MOL0     C42805   2.920  10.186   4.970  0.6253  0.7649  0.1366
  318MOL0     C42806   2.867  10.046   5.016 -0.3697  0.3459  0.2226
  318MOL0     C42807   2.951  10.004   5.143 -0.3430 -0.2378 -0.3771
  318MOL0     C42808   2.901   9.878   5.202 -0.2126  0.8598  0.3476
  318MOL0     C42809   2.756   9.857   5.243 -0.2657 -0.0736 -0.5805
  318MOL0     C42810   2.724   9.724   5.310 -0.2210  0.3780  0.8384
  318MOL0     C42811   2.711   9.752   5.461  0.4710 -0.4384 -0.2473
  318MOL0     N42812   2.734   9.635   5.546 -0.3860  0.1271  0.7817
  318MOL0     C42813   2.658   9.527   5.549  0.3588 -0.6168 -0.1525
  318MOL0     C42814   2.723   9.440   5.628  0.2201 -0.5850  1.1429
  318MOL0     C42815   2.681   9.295   5.645 -0.8299  1.1097 -0.1256
  318MOL0     C42816   2.637   9.280   5.786 -0.6862 -0.1366  0.2357
  318MOL0     C42817   2.570   9.153   5.831  0.6014 -0.4093 -0.2768
  318MOL0     C42818   2.592   9.105   5.977  0.5521  0.5822 -0.2507
  318MOL0     O42819   2.572   8.963   5.975  0.1463  0.0594 -0.5196
  318MOL0     C42820   2.448   8.922   5.992 -0.1720  0.5595 -0.3681
  318MOL0     C42821   2.421   8.781   5.996 -0.9399 -0.3776  0.3583
  318MOL0     C42822   2.304   8.721   5.997  0.4457 -0.3686 -0.0884
  318MOL0     C42823   2.300   8.568   6.003 -0.1429  0.2539  0.3826
  318MOL0     C42824   2.184   8.799   6.010 -0.0250  0.0737  0.1344
  318MOL0     C42825   2.048   8.754   6.035  0.3398  0.5065  0.7881
  318MOL0     O42826   1.945   8.828   5.987 -0.2456 -0.2304  1.1262
  318MOL0     C42827   1.821   8.778   5.971  0.8940  0.0286 -0.2075
  318MOL0     C42828   1.726   8.880   5.934 -0.5746 -0.5308  0.3679
  318MOL0     C42829   1.591   8.847   5.920 -0.6081  0.7216  0.1785
  318MOL0     C42830   1.546   8.711   5.933  0.2690  0.2939  0.4604
  318MOL0     O42831   1.423   8.655   5.916 -0.0485  0.2244  0.2200
  318MOL0     C42832   1.325   8.729   5.845  0.1067  0.4109 -0.0446
  318MOL0     C42833   1.225   8.641   5.774  0.3323  0.1517 -0.3067
  318MOL0     C42834   1.114   8.725   5.706 -0.5046 -0.5012  0.5461
  318MOL0     C42835   1.039   8.645   5.592 -0.8432  0.9881 -0.3046
  318MOL0     C42836   0.995   8.721   5.471 -0.1755 -0.7723 -0.4398
  318MOL0     C42837   0.885   8.822   5.487  0.1790 -0.5652 -0.6026
  318MOL0     C42838   0.737   8.780   5.466 -0.2189  1.0610  0.9826
  318MOL0     C42839   0.696   8.696   5.339  0.6182 -0.6979 -0.2187
  318MOL0    Cl42840   0.762   8.763   5.187 -0.7636 -0.4553 -0.3632
  318MOL0     C42841   1.643   8.613   5.970  0.5539 -0.7871  0.4212
  318MOL0     C42842   1.779   8.639   5.981 -0.6111 -0.1814 -0.3945
  318MOL0     O42843   2.036   8.653   6.108  0.2590  0.3267  0.6153
  318MOL0     C42844   2.198   8.935   5.993 -0.4664 -0.1973 -0.0610
  318MOL0     C42845   2.327   8.994   5.987 -0.1179  0.4569 -0.7705
  318MOL0     N42846   2.837   9.493   5.673 -0.5216 -0.0121  0.1632
  318MOL0     N42847   2.853   9.606   5.607  0.0238 -0.5401  0.0523
  318MOL0     C42848   2.494  10.264   4.801 -0.1476  0.0789  0.5632
  318MOL0     C42849   2.396  10.346   4.736 -0.2919 -0.6900  0.5070
  318MOL0     C42850   2.149  10.682   4.597  0.5126  0.4952  0.0627
  318MOL0     C42851   2.092  10.790   4.668  0.3521 -0.7252  0.3050
  318MOL0     C42852   1.980  10.857   4.628  0.4452 -0.3073  0.3586
  318MOL0     C42853   1.908  10.817   4.504 -1.8906  0.3888 -0.2398
  318MOL0     O42854   1.809  10.889   4.447 -0.0807 -0.2944  0.5164
  318MOL0     C42855   1.736  10.982   4.533 -0.6265  0.2031  0.5757
  318MOL0     C42856   1.619  11.038   4.456 -0.2789  0.3985 -0.0309
  318MOL0     C42857   1.528  11.132   4.531 -1.1526  0.2415  0.0667
  318MOL0     C42858   1.602  11.257   4.590  0.0617 -0.5394 -0.5541
  318MOL0     C42859   1.486  11.356   4.629 -0.2498 -0.1733 -0.8232
  318MOL0     C42860   1.409  11.443   4.655  0.5855  0.3846  0.2702
  318MOL0     C42861   1.967  10.700   4.439 -0.6370 -0.7648 -0.5298
  318MOL0     C42862   2.087  10.638   4.484 -0.5617 -0.6968 -0.1953
  318MOL0     H42863   2.585  10.496   4.497 -0.1793 -1.0450 -1.5875
  318MOL0     H42864   2.764  10.375   4.630 -1.0926 -2.9453 -4.1792
  318MOL0     H42865   2.905  10.167   4.757 -0.6569 -0.7613 -0.7984
  318MOL0     H42866   2.894  10.329   4.805  0.0098  0.1558  2.3043
  318MOL0     H42867   3.029  10.184   4.956  0.5509  0.5017 -0.4257
  318MOL0     H42868   2.896  10.263   5.044  1.2595  3.4006 -2.2288
  318MOL0     H42869   2.764  10.055   5.050  0.4953 -1.7979  4.0006
  318MOL0     H42870   2.883   9.983   4.928 -1.2339  1.1735 -0.5374
  318MOL0     H42871   3.055   9.992   5.113  0.8534  1.3892  2.7212
  318MOL0     H42872   2.960  10.080   5.221  3.4693  0.8544 -1.6431
  318MOL0     H42873   2.909   9.795   5.131  0.1235 -0.2605  1.6489
  318MOL0     H42874   2.964   9.854   5.289  0.2669  0.6785 -0.0447
  318MOL0     H42875   2.739   9.939   5.313  1.6068 -1.7819  2.0641
  318MOL0     H42876   2.693   9.867   5.154  0.4897 -2.0037 -1.4003
  318MOL0     H42877   2.628   9.687   5.272 -1.1897  0.6950  2.8529
  318MOL0     H42878   2.804   9.652   5.286 -1.5098 -1.9175  2.9953
  318MOL0     H42879   2.613   9.790   5.493  0.1941 -2.4932  1.6134
  318MOL0     H42880   2.791   9.818   5.495  1.8488 -1.3960 -1.5233
  318MOL0     H42881   2.563   9.499   5.505 -0.5671  1.5009  0.3800
  318MOL0     H42882   2.604   9.263   5.574 -0.1161  0.5814 -0.6759
  318MOL0     H42883   2.768   9.230   5.630 -2.9342 -2.0023  0.2432
  318MOL0     H42884   2.574   9.366   5.811 -0.1833  0.4200 -0.3786
  318MOL0     H42885   2.728   9.292   5.847 -0.2054  1.5332 -0.7548
  318MOL0     H42886   2.601   9.073   5.763 -0.6894 -0.9042 -0.3012
  318MOL0     H42887   2.461   9.160   5.819  0.4594  0.4009  1.2406
  318MOL0     H42888   2.530   9.160   6.047  0.1589  0.4689 -0.5051
  318MOL0     H42889   2.696   9.129   6.002  0.3151  1.3066  0.0556
  318MOL0     H42890   2.512   8.724   5.980  0.3384  1.7035 -0.2064
  318MOL0     H42891   2.286   8.545   6.109 -2.3956  1.1923  0.3381
  318MOL0     H42892   2.220   8.514   5.951  0.8682 -0.8895 -0.0532
  318MOL0     H42893   2.398   8.539   5.963 -0.8655 -2.2636  0.2792
  318MOL0     H42894   1.761   8.981   5.917  5.0320 -1.7658  2.2667
  318MOL0     H42895   1.521   8.924   5.888 -1.5144 -1.0805 -2.5379
  318MOL0     H42896   1.266   8.777   5.923  0.1544 -2.1263  1.6586
  318MOL0     H42897   1.383   8.787   5.772  0.2798 -0.2439 -0.4348
  318MOL0     H42898   1.284   8.574   5.711  1.7152  0.7758  0.2926
  318MOL0     H42899   1.168   8.577   5.843 -3.0329 -1.8164 -4.4449
  318MOL0     H42900   1.165   8.802   5.647 -0.2376 -2.5844 -2.1409
  318MOL0     H42901   1.040   8.756   5.780 -0.5512  1.0286 -0.1115
  318MOL0     H42902   1.103   8.574   5.539 -1.2878 -0.1807  0.6807
  318MOL0     H42903   0.964   8.588   5.647  2.0283 -0.8510  2.0553
  318MOL0     H42904   0.970   8.650   5.391  1.2164 -0.4238 -1.2179
  318MOL0     H42905   1.083   8.777   5.438  0.5267 -0.2045  2.2373
  318MOL0     H42906   0.895   8.880   5.579 -0.8744 -0.1657 -0.7243
  318MOL0     H42907   0.906   8.889   5.403  0.3214  0.5571  0.3019
  318MOL0     H42908   0.667   8.864   5.470 -1.9149 -0.1911 -0.7017
  318MOL0     H42909   0.704   8.703   5.535  2.6358 -3.0120 -1.7507
  318MOL0     H42910   0.587   8.704   5.338  0.5704 -1.1684  0.6287
  318MOL0     H42911   0.718   8.589   5.347 -2.2318 -1.3138  0.6713
  318MOL0     H42912   1.620   8.507   5.963  3.3261 -1.4078 -0.3654
  318MOL0     H42913   1.860   8.567   5.983  0.9900  1.5549  0.0259
  318MOL0     H42914   2.112   9.001   5.998 -0.2585 -0.0074  1.9548
  318MOL0     H42915   2.323   9.099   5.962 -1.5476  0.4322 -0.7138
  318MOL0     H42916   2.461  10.201   4.883 -0.7331 -0.9217 -0.4074
  318MOL0     H42917   2.292  10.348   4.768  0.0631 -1.7324  1.7987
  318MOL0     H42918   2.154  10.829   4.749 -1.3758  1.5496  0.6328
  318MOL0     H42919   1.947  10.952   4.669  1.5288  1.1400 -1.9038
  318MOL0     H42920   1.703  10.935   4.627  3.1283  0.9140  2.4411
  318MOL0     H42921   1.803  11.063   4.565 -2.6617  1.0689  3.0360
  318MOL0     H42922   1.555  10.953   4.431  0.4309 -0.7268  1.7711
  318MOL0     H42923   1.661  11.080   4.364  0.6164 -3.5574 -1.6289
  318MOL0     H42924   1.484  11.072   4.611 -0.7765 -3.4151 -2.2332
  318MOL0     H42925   1.446  11.165   4.467 -2.2739 -0.8379  0.9116
  318MOL0     H42926   1.673  11.312   4.528 -1.5756  1.2569 -0.9568
  318MOL0     H42927   1.651  11.235   4.685  0.8625  0.9772 -0.5928
  318MOL0     H42928   1.329  11.514   4.658  0.1958  0.1414 -2.3969
  318MOL0     H42929   1.918  10.661   4.351 -1.3833 -0.4988 -0.2389
  318MOL0     H42930   2.145  10.567   4.426  4.9688  2.1314  1.1561
  319MOL0     O42931   2.595   4.807   0.069  0.0095  0.8408 -0.1474
  319MOL0     C42932   2.643   4.782  -0.041 -0.0319 -0.3211  0.8615
  319MOL0     O42933   2.611   4.678  -0.114  0.2765  0.0816  0.1062
  319MOL0     C42934   2.534   4.580  -0.056 -0.1123 -1.1909 -0.6983
  319MOL0     C42935   2.600   4.473   0.003  1.2078 -0.1369 -0.4977
  319MOL0     C42936   2.516   4.367   0.053 -0.9848 -0.1500 -0.7051
  319MOL0     C42937   2.381   4.366   0.039  1.4079 -0.2836 -0.5079
  319MOL0     O42938   2.303   4.262   0.098 -0.5309 -0.6706 -0.9715
  319MOL0     C42939   2.164   4.267   0.079  0.4377 -0.3434 -0.3188
  319MOL0     C42940   2.089   4.136   0.126  0.0713 -0.0235  0.1315
  319MOL0     C42941   1.945   4.160   0.169  0.3085 -0.2367  0.2474
  319MOL0     C42942   1.920   4.247   0.295 -0.6200  0.0731 -0.3141
  319MOL0     C42943   1.784   4.219   0.343 -0.0628  0.1714  0.7060
  319MOL0     C42944   1.788   4.270   0.492 -0.1162 -0.9925 -0.5336
  319MOL0     C42945   1.822   4.413   0.529 -0.0732 -0.0527  0.4699
  319MOL0     C42946   1.711   4.517   0.490  0.7791 -1.0261  0.3788
  319MOL0     N42947   1.734   4.659   0.512  0.7253  0.3974  0.1299
  319MOL0     C42948   1.817   4.718   0.610 -0.5844 -0.1043  0.7381
  319MOL0     C42949   1.814   4.855   0.585 -0.5226 -0.0942 -0.8970
  319MOL0     C42950   1.912   4.953   0.646 -0.5168  0.6219  0.0021
  319MOL0     C42951   1.917   4.938   0.804 -0.0223  0.5404 -0.1046
  319MOL0     C42952   1.809   5.032   0.862  0.2581 -0.0126 -0.2473
  319MOL0     C42953   1.670   4.975   0.839  1.5392  1.3636 -0.2990
  319MOL0     O42954   1.580   5.048   0.930  0.0063  0.6350  0.4467
  319MOL0     C42955   1.452   5.077   0.875 -0.3560  0.7151  0.4831
  319MOL0     C42956   1.429   5.203   0.819 -0.3809  0.1710 -0.5545
  319MOL0     C42957   1.314   5.224   0.740 -0.9027 -0.2349  0.4394
  319MOL0     C42958   1.288   5.376   0.697 -0.2482  1.1328 -0.7151
  319MOL0     C42959   1.224   5.126   0.720 -0.3871 -0.3533  0.2252
  319MOL0     C42960   1.098   5.147   0.636 -0.6402 -0.2706 -0.8701
  319MOL0     O42961   0.989   5.060   0.655  0.7886 -0.5077  0.4106
  319MOL0     C42962   0.873   5.087   0.591  0.3761 -0.3276 -0.1253
  319MOL0     C42963   0.750   5.096   0.659  0.1941  0.1516  0.0641
  319MOL0     C42964   0.626   5.112   0.591  0.0644  0.1700  0.4308
  319MOL0     C42965   0.628   5.129   0.454  0.3743  1.6124  0.1412
  319MOL0     O42966   0.514   5.142   0.382 -0.2973  0.5198  0.0701
  319MOL0     C42967   0.426   5.250   0.431  0.2917 -0.3416  0.1629
  319MOL0     C42968   0.287   5.238   0.357 -1.0344 -0.7417 -0.3030
  319MOL0     C42969   0.312   5.252   0.212  0.5667 -0.0248  0.7221
  319MOL0     C42970   0.189   5.251   0.120 -0.3052  0.2564  0.6715
  319MOL0     C42971   0.228   5.199  -0.022 -0.4573 -1.0437 -0.1830
  319MOL0     C42972   0.235   5.046  -0.028  0.6127 -0.0818  1.0351
  319MOL0     C42973   0.255   5.028  -0.185 -0.0306 -0.3957  0.1651
  319MOL0     C42974   0.265   4.877  -0.226 -0.6382 -0.5229  0.0726
  319MOL0    Cl42975   0.244   4.853  -0.398  0.0234  0.5002  0.3021
  319MOL0     C42976   0.744   5.118   0.382 -1.3419  0.4528  0.7525
  319MOL0     C42977   0.870   5.104   0.446  0.7208  0.3016 -0.7837
  319MOL0     O42978   1.102   5.236   0.553 -0.1328 -1.1969 -0.1496
  319MOL0     C42979   1.247   5.001   0.772 -0.6457  1.1934  0.0383
  319MOL0     C42980   1.364   4.970   0.848 -0.0656 -0.3869  0.4035
  319MOL0     N42981   1.716   4.884   0.499 -0.9875  0.3529  0.2256
  319MOL0     N42982   1.667   4.772   0.455  0.4003  0.1972 -0.0093
  319MOL0     C42983   2.321   4.472  -0.038  0.1457 -1.6858 -0.7324
  319MOL0     C42984   2.398   4.585  -0.077  0.5151 -1.2989 -0.0856
  319MOL0     C42985   2.737   4.886  -0.105 -0.7662  0.3681 -0.8752
  319MOL0     C42986   2.775   4.876  -0.243 -0.0077  0.3733 -0.7618
  319MOL0     C42987   2.880   4.955  -0.286  0.2230 -0.3061 -1.7048
  319MOL0     C42988   2.945   5.059  -0.208 -0.5558  0.9808  0.1220
  319MOL0     O42989   3.045   5.145  -0.244  0.0700  0.3951 -0.1623
  319MOL0     C42990   3.111   5.128  -0.373  0.4272  0.0504  0.3330
  319MOL0     C42991   3.219   5.228  -0.390  0.2931 -0.4602  0.3817
  319MOL0     C42992   3.241   5.289  -0.530 -0.0394 -0.8356 -0.3585
  319MOL0     C42993   3.384   5.361  -0.550  0.2695  0.5543  0.2177
  319MOL0     C42994   3.485   5.257  -0.554 -0.9965 -0.0875  0.2698
  319MOL0     C42995   3.575   5.183  -0.564 -0.2092 -0.5592  0.3005
  319MOL0     C42996   2.899   5.067  -0.076 -0.8126 -0.6437  0.6019
  319MOL0     C42997   2.797   4.990  -0.028 -0.0350 -0.3328 -0.5051
  319MOL0     H42998   2.708   4.477   0.012  1.0838  2.5038  0.7982
  319MOL0     H42999   2.567   4.297   0.118  0.8056  1.4508 -0.3160
  319MOL0     H43000   2.121   4.354   0.130 -1.8189 -0.9058 -1.1527
  319MOL0     H43001   2.131   4.272  -0.025 -0.6869 -2.1781 -0.1073
  319MOL0     H43002   2.095   4.052   0.056 -0.0829 -0.1547  0.2761
  319MOL0     H43003   2.149   4.108   0.213  3.1301 -0.5050 -1.9630
  319MOL0     H43004   1.892   4.192   0.078  2.1390 -1.2288 -1.2320
  319MOL0     H43005   1.911   4.058   0.192 -3.4544  0.6793 -0.5842
  319MOL0     H43006   2.000   4.202   0.355  0.9021 -0.8916 -2.8774
  319MOL0     H43007   1.942   4.352   0.277 -0.7876  0.3888  1.1986
  319MOL0     H43008   1.714   4.278   0.282 -1.8086 -2.5953 -0.1919
  319MOL0     H43009   1.747   4.116   0.337 -3.7064  1.3367  0.3847
  319MOL0     H43010   1.690   4.268   0.540 -0.0699 -0.4196 -0.4058
  319MOL0     H43011   1.858   4.205   0.545  2.2343 -0.3994 -2.6939
  319MOL0     H43012   1.835   4.408   0.637 -1.0431  0.2951  0.6083
  319MOL0     H43013   1.913   4.443   0.475 -0.6230 -0.7079 -0.8784
  319MOL0     H43014   1.610   4.488   0.522 -0.9832 -0.0546 -3.5924
  319MOL0     H43015   1.689   4.514   0.383 -1.2292  0.1813  0.6881
  319MOL0     H43016   1.890   4.663   0.669 -0.9662  0.2607  1.5764
  319MOL0     H43017   2.018   4.936   0.625 -0.1850  0.4815  1.6785
  319MOL0     H43018   1.882   5.053   0.610 -0.1514  0.3590 -1.0794
  319MOL0     H43019   2.014   4.968   0.845 -0.7481 -0.1605  2.2687
  319MOL0     H43020   1.899   4.837   0.840  0.8476  0.5666  0.4288
  319MOL0     H43021   1.817   5.131   0.816  2.7706  0.3972  0.8605
  319MOL0     H43022   1.830   5.048   0.968  2.0437 -0.3136 -0.5226
  319MOL0     H43023   1.666   4.867   0.859 -0.5108  1.2098 -1.2642
  319MOL0     H43024   1.633   4.991   0.737 -0.4673  1.0656  0.3426
  319MOL0     H43025   1.501   5.281   0.837 -1.4966  0.7845  1.6051
  319MOL0     H43026   1.195   5.419   0.733 -0.1053  0.2333  0.7984
  319MOL0     H43027   1.363   5.425   0.760  2.3020 -1.4472 -1.4848
  319MOL0     H43028   1.293   5.388   0.588  3.3591  2.3888 -0.5589
  319MOL0     H43029   0.750   5.092   0.768 -2.0519 -0.0251  0.1003
  319MOL0     H43030   0.533   5.103   0.645 -0.1324  2.4550  0.5424
  319MOL0     H43031   0.408   5.244   0.539 -1.8120  0.3719 -0.0897
  319MOL0     H43032   0.452   5.353   0.405 -3.5012  1.0946  1.3497
  319MOL0     H43033   0.240   5.141   0.373  0.8022 -1.4403  1.1852
  319MOL0     H43034   0.221   5.315   0.399 -1.4341 -1.6217  0.7201
  319MOL0     H43035   0.385   5.178   0.181 -1.2459 -1.7853  0.4454
  319MOL0     H43036   0.348   5.353   0.189 -1.1148  0.6309  0.7438
  319MOL0     H43037   0.108   5.197   0.169 -1.8578  0.1521 -1.8481
  319MOL0     H43038   0.155   5.355   0.125 -2.5057 -0.4551  4.5424
  319MOL0     H43039   0.334   5.222  -0.041 -0.3808  0.9712  2.2193
  319MOL0     H43040   0.178   5.245  -0.108  1.3465 -3.2453 -2.6136
  319MOL0     H43041   0.319   4.994   0.019  1.8956 -0.3951 -1.4297
  319MOL0     H43042   0.148   4.991   0.008  1.7257 -2.5790  0.1879
  319MOL0     H43043   0.338   5.085  -0.227 -2.4834  0.4127 -4.1663
  319MOL0     H43044   0.163   5.058  -0.236  2.4160  2.4078 -2.9800
  319MOL0     H43045   0.181   4.822  -0.182  0.4663 -1.5717  0.9592
  319MOL0     H43046   0.363   4.844  -0.192  0.6555  2.4640 -0.5087
  319MOL0     H43047   0.735   5.142   0.277  1.9198  2.0350  0.7016
  319MOL0     H43048   0.962   5.100   0.389  2.0642  0.2379  1.2878
  319MOL0     H43049   1.170   4.930   0.743  1.3834 -1.1254 -0.0650
  319MOL0     H43050   1.389   4.873   0.890 -1.3516 -1.3254 -0.8721
  319MOL0     H43051   2.216   4.493  -0.054 -0.3568  2.0229  4.6680
  319MOL0     H43052   2.355   4.669  -0.130 -1.5102 -1.6076  0.9772
  319MOL0     H43053   2.744   4.789  -0.299 -2.1543 -0.0883  1.0074
  319MOL0     H43054   2.911   4.951  -0.390 -0.7792  1.3530 -2.1178
  319MOL0     H43055   3.150   5.027  -0.386  3.1152  1.2960 -2.7229
  319MOL0     H43056   3.034   5.138  -0.451 -1.2881 -2.6812  1.5223
  319MOL0     H43057   3.308   5.176  -0.351  0.4937 -1.0144 -0.7566
  319MOL0     H43058   3.197   5.317  -0.331 -1.3517  2.5613 -4.2293
  319MOL0     H43059   3.159   5.361  -0.535  0.8585  0.3441  1.0625
  319MOL0     H43060   3.222   5.211  -0.604 -2.2410  0.4140 -1.1853
  319MOL0     H43061   3.423   5.430  -0.475 -0.8479  1.3131  0.1324
  319MOL0     H43062   3.370   5.422  -0.640 -2.2418 -0.9980 -0.5533
  319MOL0     H43063   3.656   5.114  -0.551  0.3804  0.4253  2.2504
  319MOL0     H43064   2.940   5.146  -0.014  2.0307 -0.3572 -1.4732
  319MOL0     H43065   2.794   4.994   0.081  0.8988 -2.0718 -0.3816
  320MOL0     O43066  11.225   9.195   6.961 -0.2099 -0.3183  0.4600
  320MOL0     C43067  11.260   9.087   6.917  0.0476  0.9680 -0.6856
  320MOL0     O43068  11.175   8.988   6.873 -0.7469  0.2767  0.4169
  320MOL0     C43069  11.037   8.988   6.871  0.0385 -0.3632 -0.4532
  320MOL0     C43070  10.977   8.891   6.802 -0.5469 -0.9593 -0.2591
  320MOL0     C43071  10.835   8.877   6.797  0.6524 -0.2801  0.2432
  320MOL0     C43072  10.750   8.975   6.846  0.1640 -0.2243 -0.1975
  320MOL0     O43073  10.612   8.966   6.827  0.5818 -0.0772  0.0544
  320MOL0     C43074  10.539   8.911   6.940  1.0720 -0.3236 -0.2013
  320MOL0     C43075  10.406   8.979   6.951  0.5564  0.1434 -0.4469
  320MOL0     C43076  10.327   8.924   7.070 -0.9362 -0.1438  0.0110
  320MOL0     C43077  10.211   9.008   7.081 -0.2718  0.1278 -0.7951
  320MOL0     C43078  10.119   9.000   7.204  0.5324 -0.3095 -0.1532
  320MOL0     C43079  10.061   9.140   7.239 -0.0512  0.2283  0.3084
  320MOL0     C43080   9.953   9.118   7.349  0.3089  0.0316  1.2927
  320MOL0     C43081   9.820   9.043   7.298 -0.9669  0.5082 -0.1405
  320MOL0     N43082   9.705   9.086   7.381  0.0022 -0.3990 -1.0709
  320MOL0     C43083   9.584   9.015   7.370  0.2418  0.5335  0.3827
  320MOL0     C43084   9.519   9.058   7.475  0.3570  0.0174 -0.1946
  320MOL0     C43085   9.387   9.006   7.519  1.2166  0.3250  0.6997
  320MOL0     C43086   9.277   8.984   7.415  0.4860  0.1265  0.8057
  320MOL0     C43087   9.158   9.074   7.450 -0.3927 -0.2866  0.1779
  320MOL0     C43088   9.193   9.219   7.434 -0.5619  0.7877  0.5391
  320MOL0     O43089   9.087   9.308   7.475  0.2383 -0.0988  0.4782
  320MOL0     C43090   9.089   9.368   7.596  0.4329  0.5023 -0.0410
  320MOL0     C43091   9.158   9.297   7.701  0.6684  0.1309 -0.4450
  320MOL0     C43092   9.159   9.349   7.830 -0.6793  0.1805 -0.8018
  320MOL0     C43093   9.258   9.267   7.918 -0.0124  0.5877  0.3810
  320MOL0     C43094   9.087   9.459   7.859  0.4355 -0.7420 -0.9072
  320MOL0     C43095   9.070   9.521   8.000 -0.0615  0.3195  0.1122
  320MOL0     O43096   9.138   9.458   8.104 -0.7312 -0.1147  0.0649
  320MOL0     C43097   9.203   9.540   8.200 -0.4671  0.0084  0.1638
  320MOL0     C43098   9.346   9.567   8.194 -0.4449  0.1261  0.2427
  320MOL0     C43099   9.402   9.659   8.285 -0.6460 -0.1514 -0.1245
  320MOL0     C43100   9.322   9.722   8.386  0.0818  0.0839  0.4314
  320MOL0     O43101   9.366   9.797   8.491  0.1251 -0.6865 -0.1759
  320MOL0     C43102   9.493   9.772   8.545 -0.4136  0.3149  0.7538
  320MOL0     C43103   9.561   9.909   8.573  0.3184 -0.6026  0.2972
  320MOL0     C43104   9.601   9.988   8.445 -0.0469  0.8058 -0.5304
  320MOL0     C43105   9.674  10.125   8.474  0.1374  0.9766  0.2143
  320MOL0     C43106   9.722  10.172   8.344  0.2302  0.3191 -0.8507
  320MOL0     C43107   9.771  10.317   8.334 -0.2527  0.2005 -0.4465
  320MOL0     C43108   9.892  10.359   8.413 -0.5279  0.1782 -0.1619
  320MOL0     C43109   9.916  10.507   8.413 -0.1456  0.8376  0.6338
  320MOL0    Cl43110   9.965  10.561   8.250 -0.2420  0.5223 -0.0038
  320MOL0     C43111   9.186   9.697   8.387 -0.7780  1.3238  0.9590
  320MOL0     C43112   9.132   9.598   8.294 -0.4790 -0.2690 -0.4456
  320MOL0     O43113   9.023   9.637   8.007  1.0913 -0.3268  0.1473
  320MOL0     C43114   9.005   9.520   7.758 -0.5531  0.5683  0.4243
  320MOL0     C43115   9.005   9.473   7.627  0.1856  0.6132 -0.9568
  320MOL0     N43116   9.589   9.158   7.543  0.8559  0.0633 -0.4077
  320MOL0     N43117   9.700   9.172   7.490 -0.1824 -0.0853 -0.4523
  320MOL0     C43118  10.811   9.079   6.914 -0.2650 -1.1311  0.1632
  320MOL0     C43119  10.954   9.088   6.931  0.3754 -0.4437 -0.4563
  320MOL0     C43120  11.404   9.056   6.912  0.0774 -0.4093  0.1561
  320MOL0     C43121  11.482   9.077   7.031  0.1094 -0.4478 -0.1039
  320MOL0     C43122  11.618   9.058   7.035 -0.7009  0.6698 -0.1058
  320MOL0     C43123  11.695   9.004   6.933  0.1133  0.5939 -0.1134
  320MOL0     O43124  11.833   8.978   6.950 -0.6591 -0.0870 -0.0030
  320MOL0     C43125  11.882   8.990   7.085 -0.2293  0.5941 -0.0305
  320MOL0     C43126  12.032   8.962   7.090  0.1924 -1.3060 -0.6811
  320MOL0     C43127  12.139   9.069   7.036  0.9370  0.2496  0.2157
  320MOL0     C43128  12.281   9.011   7.029 -0.2301  0.3117  0.5274
  320MOL0     C43129  12.367   9.078   6.936 -0.5006 -0.2959  0.5008
  320MOL0     C43130  12.423   9.146   6.853 -0.4895 -0.4124 -0.0285
  320MOL0     C43131  11.618   8.981   6.821  0.4223  0.0747 -0.2375
  320MOL0     C43132  11.476   9.009   6.807  0.5080 -0.7447  0.3371
  320MOL0     H43133  11.039   8.819   6.749  0.4584 -0.2650 -0.0372
  320MOL0     H43134  10.792   8.804   6.730  1.9750  0.1394 -1.1011
  320MOL0     H43135  10.515   8.807   6.916  2.5645 -0.7915  0.2090
  320MOL0     H43136  10.600   8.921   7.030  0.8450 -0.7405 -0.0049
  320MOL0     H43137  10.421   9.087   6.956  0.9565  0.0642  0.2161
  320MOL0     H43138  10.342   8.969   6.863 -0.4525 -1.1754  0.3993
  320MOL0     H43139  10.300   8.821   7.045  0.7924 -0.1909 -1.8716
  320MOL0     H43140  10.384   8.917   7.163 -1.6065 -1.7718  0.3343
  320MOL0     H43141  10.237   9.115   7.077 -0.0154  0.0197 -3.1136
  320MOL0     H43142  10.151   8.992   6.991  2.2381 -1.0661 -2.3435
  320MOL0     H43143  10.046   8.919   7.193  2.0892 -2.0134  1.3404
  320MOL0     H43144  10.178   8.982   7.294 -1.6557  0.9830  1.6432
  320MOL0     H43145  10.144   9.203   7.273  0.2041 -0.8023  1.6785
  320MOL0     H43146  10.016   9.178   7.146  1.8077 -2.3418 -1.8155
  320MOL0     H43147   9.988   9.060   7.435  1.7742  1.4952  1.7367
  320MOL0     H43148   9.916   9.217   7.379  3.1906  2.2655 -1.8293
  320MOL0     H43149   9.830   8.934   7.289 -1.6068  0.6553 -3.7151
  320MOL0     H43150   9.795   9.078   7.198 -4.2385  0.7883  0.6702
  320MOL0     H43151   9.548   8.931   7.312 -0.2630 -1.2622  3.0973
  320MOL0     H43152   9.407   8.906   7.559  0.1606  0.2719  1.1443
  320MOL0     H43153   9.345   9.068   7.599 -5.3593  0.8042 -2.4407
  320MOL0     H43154   9.251   8.878   7.415  2.6701 -0.4561  1.9251
  320MOL0     H43155   9.319   9.006   7.316  2.4782 -1.5570  1.2109
  320MOL0     H43156   9.123   9.052   7.552 -2.3145 -0.1375 -0.4121
  320MOL0     H43157   9.072   9.048   7.388 -0.3424 -1.3444  0.5349
  320MOL0     H43158   9.196   9.238   7.326 -2.2727 -0.8324  0.1337
  320MOL0     H43159   9.291   9.244   7.475  0.5211 -1.2037 -0.6754
  320MOL0     H43160   9.207   9.203   7.676 -2.1385 -1.4982 -0.2693
  320MOL0     H43161   9.269   9.165   7.878  2.2906  1.1059 -0.4579
  320MOL0     H43162   9.361   9.304   7.910 -0.3490  1.6143  0.6828
  320MOL0     H43163   9.229   9.250   8.022 -1.0352 -1.4261 -0.1732
  320MOL0     H43164   9.412   9.539   8.112 -1.0771 -0.8522  0.0441
  320MOL0     H43165   9.508   9.683   8.280 -0.4945 -0.1446  1.9489
  320MOL0     H43166   9.482   9.715   8.638 -2.6765  1.0716  1.0239
  320MOL0     H43167   9.561   9.717   8.480  0.3490 -0.7624  2.3854
  320MOL0     H43168   9.493   9.977   8.625  0.3369 -0.0623 -0.3580
  320MOL0     H43169   9.656   9.896   8.626  0.6039 -3.8351 -0.7626
  320MOL0     H43170   9.517   9.996   8.376  0.7698  1.5619 -1.4686
  320MOL0     H43171   9.675   9.928   8.390  0.4075  1.4232 -0.5944
  320MOL0     H43172   9.602  10.198   8.512 -0.1726  0.1211  1.3209
  320MOL0     H43173   9.752  10.103   8.548  0.5703  2.2355  0.1485
  320MOL0     H43174   9.644  10.150   8.271 -1.0884  1.9188 -0.0076
  320MOL0     H43175   9.809  10.108   8.328 -1.0439 -1.3951 -1.1992
  320MOL0     H43176   9.798  10.342   8.231 -0.8930  1.4635 -0.3324
  320MOL0     H43177   9.692  10.387   8.361  0.5768  0.8709  0.2901
  320MOL0     H43178   9.982  10.307   8.379 -1.5479 -1.0249 -1.1051
  320MOL0     H43179   9.883  10.343   8.521 -3.8822 -1.4413 -0.5723
  320MOL0     H43180   9.997  10.532   8.482 -0.8661  0.3490  1.6856
  320MOL0     H43181   9.828  10.564   8.447 -3.0421 -2.6897 -0.2547
  320MOL0     H43182   9.113   9.736   8.457 -3.8630  1.1476 -1.9345
  320MOL0     H43183   9.027   9.574   8.301  0.0586 -2.3378  2.3304
  320MOL0     H43184   8.926   9.591   7.779 -1.7011 -0.5960  0.2029
  320MOL0     H43185   8.954   9.531   7.551 -0.5502  1.4841  0.1695
  320MOL0     H43186  10.750   9.159   6.954  1.3342  0.5070 -0.5134
  320MOL0     H43187  10.978   9.176   6.990 -0.9045 -0.3534 -0.0346
  320MOL0     H43188  11.429   9.112   7.119  2.8059  0.2243  1.3489
  320MOL0     H43189  11.662   9.085   7.131  0.9501 -0.4001 -0.5181
  320MOL0     H43190  11.867   9.093   7.120 -1.7643  0.5284 -0.4285
  320MOL0     H43191  11.822   8.925   7.149 -2.6087  0.7525 -1.9695
  320MOL0     H43192  12.055   8.862   7.051 -0.4156 -2.7192  2.2590
  320MOL0     H43193  12.053   8.955   7.198 -4.2147 -1.3586  0.3659
  320MOL0     H43194  12.137   9.162   7.094  0.6246  0.8624 -0.7461
  320MOL0     H43195  12.100   9.087   6.935 -2.5116 -0.4492  1.2765
  320MOL0     H43196  12.293   8.904   7.012 -0.2418  0.2387  0.9609
  320MOL0     H43197  12.310   9.031   7.133 -0.9222 -1.8906  1.2031
  320MOL0     H43198  12.451   9.205   6.768  0.1274  1.2857  1.2850
  320MOL0     H43199  11.659   8.920   6.740  0.2030 -0.4161  0.0186
  320MOL0     H43200  11.409   8.993   6.723  1.2455  0.7865 -0.6000
  321MOL0     O43201   0.346  10.144   8.389  0.4652  0.6781  0.5247
  321MOL0     C43202   0.311  10.197   8.283  0.4773  0.7829  0.5053
  321MOL0     O43203   0.386  10.205   8.178 -0.0698 -0.0957  0.5260
  321MOL0     C43204   0.518  10.167   8.181 -0.1083 -0.3425  0.2972
  321MOL0     C43205   0.550  10.064   8.089  0.7668  0.1253 -0.6524
  321MOL0     C43206   0.684  10.024   8.080  0.9141  0.3954 -0.9308
  321MOL0     C43207   0.778  10.087   8.165  0.5852 -0.9406  0.1081
  321MOL0     O43208   0.907  10.060   8.117  0.1702  0.2651  0.8218
  321MOL0     C43209   1.007  10.054   8.214 -0.2417 -0.3638  0.1006
  321MOL0     C43210   1.136   9.978   8.176 -0.0954  0.2228  0.3472
  321MOL0     C43211   1.247  10.003   8.284 -0.0672  0.4773  0.2896
  321MOL0     C43212   1.333  10.123   8.262 -0.0288 -0.0354  0.0796
  321MOL0     C43213   1.429  10.142   8.370 -0.2542 -0.2549 -0.6483
  321MOL0     C43214   1.519  10.264   8.358  0.5031  0.8921 -0.4815
  321MOL0     C43215   1.625  10.244   8.242  1.0353 -0.4046 -0.0045
  321MOL0     C43216   1.698  10.371   8.219 -0.1396  0.8230  0.0098
  321MOL0     N43217   1.776  10.407   8.336 -0.6776 -0.1656 -0.5552
  321MOL0     C43218   1.741  10.499   8.432  0.4686 -1.3100 -0.2237
  321MOL0     C43219   1.852  10.518   8.506 -1.0082  0.1295  0.3311
  321MOL0     C43220   1.866  10.611   8.624 -0.4767 -1.5190 -0.4569
  321MOL0     C43221   1.838  10.541   8.768  0.1304  0.0477  1.3441
  321MOL0     C43222   1.964  10.452   8.799 -0.1308  0.3167  0.8737
  321MOL0     C43223   1.934  10.334   8.887 -1.0176  0.4433  0.2076
  321MOL0     O43224   2.043  10.239   8.892  0.6474 -0.3214 -0.4515
  321MOL0     C43225   2.038  10.166   9.008 -0.4284 -0.6699 -0.2845
  321MOL0     C43226   2.161  10.128   9.070 -0.7600 -0.1327 -1.1883
  321MOL0     C43227   2.162  10.054   9.190 -0.0183  1.0135  0.5407
  321MOL0     C43228   2.301  10.040   9.256 -0.3668  0.1875 -0.8016
  321MOL0     C43229   2.039  10.002   9.234  0.3462  0.0540  0.4403
  321MOL0     C43230   2.020   9.928   9.361 -0.5747 -0.2347 -0.1541
  321MOL0     O43231   1.903   9.938   9.432 -0.1315 -0.6412  0.6730
  321MOL0     C43232   1.890   9.886   9.560  0.3308  0.4850  0.2280
  321MOL0     C43233   1.764   9.833   9.594 -0.9399  0.1380 -0.2869
  321MOL0     C43234   1.731   9.797   9.730 -0.9168 -0.9190  0.2909
  321MOL0     C43235   1.830   9.808   9.827 -0.4816  0.9069  0.7046
  321MOL0     O43236   1.789   9.769   9.955  0.3444 -0.5186  0.0641
  321MOL0     C43237   1.852   9.855  10.053  0.5934  0.5938  0.0009
  321MOL0     C43238   1.782   9.853  10.187 -0.1139  0.5499 -1.1871
  321MOL0     C43239   1.648   9.921  10.176  0.0428 -0.3504 -0.8500
  321MOL0     C43240   1.549   9.875  10.288 -0.3582 -0.9724 -0.6731
  321MOL0     C43241   1.413   9.956  10.281  0.3115 -0.3281  1.1876
  321MOL0     C43242   1.311   9.927  10.382  0.5519 -0.1016 -0.3937
  321MOL0     C43243   1.243   9.797  10.341  0.7793 -0.0312 -0.7776
  321MOL0     C43244   1.103   9.784  10.409  0.5711 -0.4153  0.5242
  321MOL0    Cl43245   1.002   9.923  10.376  0.1701 -0.0415  0.0426
  321MOL0     C43246   1.959   9.849   9.790  0.1162 -0.0725  0.0100
  321MOL0     C43247   1.994   9.889   9.660  0.9096 -0.5159  0.4758
  321MOL0     O43248   2.114   9.858   9.396  0.5436 -0.9760 -0.7667
  321MOL0     C43249   1.921  10.033   9.168  0.5383 -0.1576  0.6583
  321MOL0     C43250   1.923  10.117   9.053  0.2191  0.5698 -0.3230
  321MOL0     N43251   1.958  10.443   8.453  0.7499 -0.5585 -0.3089
  321MOL0     N43252   1.908  10.372   8.349 -0.1206  0.1960 -0.3723
  321MOL0     C43253   0.742  10.182   8.260 -0.4529 -0.1980 -0.6368
  321MOL0     C43254   0.608  10.216   8.273  0.7363  0.7921  0.7390
  321MOL0     C43255   0.185  10.280   8.274  0.5263  0.1341 -0.7454
  321MOL0     C43256   0.096  10.297   8.381  0.8949  0.2131 -0.0894
  321MOL0     C43257  -0.020  10.377   8.373  0.8394 -0.3350  0.7832
  321MOL0     C43258  -0.058  10.426   8.241 -0.7503 -0.1340 -0.3560
  321MOL0     O43259  -0.160  10.512   8.218 -0.5256  0.6541  0.1367
  321MOL0     C43260  -0.254  10.536   8.323  1.2268 -0.3704 -0.1285
  321MOL0     C43261  -0.346  10.422   8.341 -0.6047  0.6024 -0.1569
  321MOL0     C43262  -0.450  10.390   8.227 -0.3422  0.3603  1.0775
  321MOL0     C43263  -0.527  10.524   8.184 -0.0944  0.0289  0.2134
  321MOL0     C43264  -0.599  10.584   8.307 -0.0812  0.9378  1.3613
  321MOL0     C43265  -0.649  10.638   8.400  0.4518  1.3556  0.4317
  321MOL0     C43266   0.039  10.421   8.135  0.4318 -1.0043 -0.5746
  321MOL0     C43267   0.155  10.353   8.156  0.3472  0.1885  0.1763
  321MOL0     H43268   0.476  10.031   8.016 -1.3908 -1.0644  1.9352
  321MOL0     H43269   0.712   9.949   8.006  3.0210 -0.3215  0.5062
  321MOL0     H43270   1.049  10.154   8.228  1.3444 -0.9473 -0.3609
  321MOL0     H43271   0.970  10.003   8.303  2.7133  0.0581  1.6543
  321MOL0     H43272   1.118   9.872   8.156 -2.3386  0.5722  0.2832
  321MOL0     H43273   1.175  10.009   8.079 -0.5734 -0.5847 -0.1202
  321MOL0     H43274   1.196  10.002   8.380 -0.3226  0.4031  0.1547
  321MOL0     H43275   1.309   9.913   8.287 -0.9407 -0.1249  0.2937
  321MOL0     H43276   1.391  10.121   8.169 -0.0968 -0.2555  0.0400
  321MOL0     H43277   1.274  10.215   8.261  0.3920  0.2437  0.7257
  321MOL0     H43278   1.392  10.159   8.472  2.5470 -1.5603  0.6886
  321MOL0     H43279   1.486  10.050   8.380  0.1441 -0.3365 -3.0757
  321MOL0     H43280   1.453  10.349   8.337 -1.6953 -0.7392 -0.4867
  321MOL0     H43281   1.574  10.270   8.453 -1.1112  2.5746  0.4110
  321MOL0     H43282   1.680  10.157   8.278 -2.1519 -3.2020 -1.3895
  321MOL0     H43283   1.573  10.233   8.146 -0.2712  0.7427  0.5362
  321MOL0     H43284   1.628  10.452   8.193 -2.2030 -0.6353  0.7673
  321MOL0     H43285   1.762  10.354   8.132 -2.9438 -0.6867 -1.9436
  321MOL0     H43286   1.641  10.540   8.447  0.3728 -2.1671  1.8570
  321MOL0     H43287   1.968  10.648   8.629 -0.7845 -0.6946 -0.2547
  321MOL0     H43288   1.794  10.693   8.616 -0.4291 -1.3366  0.7762
  321MOL0     H43289   1.747  10.481   8.765 -0.2792  0.6839  0.5869
  321MOL0     H43290   1.821  10.616   8.846 -0.2923 -0.5072  1.7958
  321MOL0     H43291   2.027  10.522   8.856  1.3282  0.5156 -0.8737
  321MOL0     H43292   2.020  10.412   8.715 -1.9721  0.5999 -0.5452
  321MOL0     H43293   1.843  10.290   8.844 -1.8818  1.1718  1.2523
  321MOL0     H43294   1.911  10.370   8.987  1.4637  3.4322 -0.1832
  321MOL0     H43295   2.256  10.151   9.023  0.9333  2.2771  2.8711
  321MOL0     H43296   2.324  10.114   9.334 -4.1717  2.1704 -1.3012
  321MOL0     H43297   2.315   9.938   9.291 -0.8876  0.6793  0.9712
  321MOL0     H43298   2.377  10.053   9.178 -1.0278  1.3740 -1.2793
  321MOL0     H43299   1.694   9.836   9.511  0.8701  1.7646 -1.8452
  321MOL0     H43300   1.632   9.758   9.753 -0.7440 -1.2968  0.3941
  321MOL0     H43301   1.954   9.818  10.070  0.4050 -0.0690 -0.2713
  321MOL0     H43302   1.869   9.954  10.012  1.2935  0.0245 -1.1364
  321MOL0     H43303   1.775   9.749  10.220  1.4542  0.6378 -0.4663
  321MOL0     H43304   1.844   9.904  10.261  1.5446 -0.2129 -1.9925
  321MOL0     H43305   1.595   9.894  10.084 -0.0647 -1.6550 -0.4239
  321MOL0     H43306   1.665  10.029  10.176  0.0741 -0.3525 -1.1977
  321MOL0     H43307   1.536   9.767  10.275 -2.0628 -0.9242  0.3136
  321MOL0     H43308   1.593   9.890  10.387  0.6428 -0.2558 -1.2100
  321MOL0     H43309   1.377   9.946  10.179 -0.7300 -2.2362  1.6860
  321MOL0     H43310   1.436  10.063  10.276 -1.2496 -0.0476 -2.5268
  321MOL0     H43311   1.359   9.910  10.479  1.3975  0.0621 -0.7694
  321MOL0     H43312   1.238  10.008  10.390 -0.5494 -1.0514 -0.7010
  321MOL0     H43313   1.302   9.711  10.371 -2.7538 -2.4396 -0.1074
  321MOL0     H43314   1.229   9.802  10.233  0.4816  3.5887 -0.7239
  321MOL0     H43315   1.114   9.773  10.518  2.3074  0.6248  0.4957
  321MOL0     H43316   1.062   9.691  10.369 -1.2866  1.1513 -1.4505
  321MOL0     H43317   2.036   9.844   9.867 -1.0967 -1.6174  1.1885
  321MOL0     H43318   2.092   9.935   9.645 -0.3319  2.6447  1.2881
  321MOL0     H43319   1.828  10.000   9.212  1.1889  0.4562  2.5710
  321MOL0     H43320   1.827  10.129   9.004  0.7354  0.1886 -1.4911
  321MOL0     H43321   0.811  10.223   8.333  0.2632 -2.2498 -0.0920
  321MOL0     H43322   0.573  10.297   8.335 -1.0459  0.0294  0.7999
  321MOL0     H43323   0.116  10.231   8.465  1.1800 -1.8947 -1.7156
  321MOL0     H43324  -0.083  10.395   8.459  1.4155 -0.0456  1.1507
  321MOL0     H43325  -0.199  10.561   8.415  3.7476  2.2615 -2.1751
  321MOL0     H43326  -0.308  10.624   8.285  2.5091  0.3539 -0.3416
  321MOL0     H43327  -0.399  10.434   8.435  3.1472  2.6542  1.9143
  321MOL0     H43328  -0.282  10.333   8.348 -0.9663  0.3211 -0.4032
  321MOL0     H43329  -0.515  10.313   8.268  1.1330 -1.3829  0.2681
  321MOL0     H43330  -0.393  10.355   8.141 -2.2683 -0.7705  0.1930
  321MOL0     H43331  -0.594  10.495   8.102 -2.4000 -0.4431  2.1631
  321MOL0     H43332  -0.461  10.598   8.139  0.8932 -0.9527 -0.0049
  321MOL0     H43333  -0.696  10.687   8.483 -1.8621 -0.4581  0.2859
  321MOL0     H43334   0.025  10.487   8.050 -1.8224  0.0105  0.5267
  321MOL0     H43335   0.237  10.361   8.086  1.6614 -0.1476  1.6180
  322MOL0     O43336   0.581   0.747   7.307  0.3665 -0.1759 -0.0914
  322MOL0     C43337   0.640   0.851   7.329 -0.4864  1.1818 -0.1646
  322MOL0     O43338   0.602   0.974   7.292 -0.0295  0.2016  0.0338
  322MOL0     C43339   0.490   0.993   7.214 -0.0642  0.1446 -0.4374
  322MOL0     C43340   0.449   0.902   7.118 -1.1711  0.1618  0.0238
  322MOL0     C43341   0.359   0.937   7.031 -0.1573  0.5305  0.6599
  322MOL0     C43342   0.300   1.065   7.024  0.1000 -0.3444 -0.7864
  322MOL0     O43343   0.228   1.098   6.907  0.4760  0.5071  0.2307
  322MOL0     C43344   0.195   1.240   6.890  0.6808 -0.2658  0.1104
  322MOL0     C43345   0.122   1.249   6.759 -0.0142  0.6718 -0.5071
  322MOL0     C43346   0.090   1.400   6.725  1.1049 -1.0797 -0.1976
  322MOL0     C43347   0.022   1.396   6.591  0.5672  0.1989  0.2723
  322MOL0     C43348  -0.039   1.529   6.567  0.3811 -1.2241  0.6311
  322MOL0     C43349  -0.145   1.521   6.445 -0.4407 -0.3033 -0.1421
  322MOL0     C43350  -0.204   1.658   6.403  0.4706  0.3254  1.0154
  322MOL0     C43351  -0.303   1.638   6.281 -0.5346 -0.7511 -0.3502
  322MOL0     N43352  -0.298   1.751   6.187  0.3775 -0.8740 -0.4450
  322MOL0     C43353  -0.321   1.885   6.207 -0.0124  0.4268  0.5317
  322MOL0     C43354  -0.309   1.944   6.081 -0.0187 -0.8943  0.9093
  322MOL0     C43355  -0.337   2.094   6.061 -0.1944  0.0414  0.2019
  322MOL0     C43356  -0.416   2.175   6.169 -0.2649  0.4396  0.3888
  322MOL0     C43357  -0.567   2.160   6.190  0.9297  0.2480  1.3454
  322MOL0     C43358  -0.617   2.048   6.280  0.1300 -0.2615 -0.0373
  322MOL0     O43359  -0.576   2.084   6.415  0.4815 -0.2572  0.2575
  322MOL0     C43360  -0.532   1.991   6.500 -0.3637  0.8187 -0.1962
  322MOL0     C43361  -0.490   2.027   6.628  0.5113  0.0010 -0.4991
  322MOL0     C43362  -0.446   1.937   6.717  0.1120  1.0847  0.1534
  322MOL0     C43363  -0.417   1.982   6.861  0.1465 -0.4290  0.3156
  322MOL0     C43364  -0.443   1.791   6.688 -0.2085  0.7914 -1.1212
  322MOL0     C43365  -0.393   1.674   6.781  0.6893  0.8582  0.2976
  322MOL0     O43366  -0.329   1.571   6.709 -1.1108 -0.5311 -0.2492
  322MOL0     C43367  -0.299   1.457   6.782 -1.3998  0.1843  0.0831
  322MOL0     C43368  -0.233   1.452   6.903 -1.2895  0.3013  0.1634
  322MOL0     C43369  -0.192   1.328   6.969  0.6400 -0.6466 -0.3403
  322MOL0     C43370  -0.229   1.207   6.905  0.4543  0.7546 -0.0608
  322MOL0     O43371  -0.186   1.094   6.967 -0.3853  0.0251  0.1594
  322MOL0     C43372  -0.180   0.984   6.875  0.2253  0.3755 -0.6303
  322MOL0     C43373  -0.125   0.860   6.945  0.0318  0.1891  0.0770
  322MOL0     C43374  -0.210   0.828   7.077  0.2425 -0.4114  0.9027
  322MOL0     C43375  -0.148   0.732   7.171  0.6095  0.3566 -0.3362
  322MOL0     C43376  -0.228   0.721   7.302 -0.4115 -0.0254  0.9351
  322MOL0     C43377  -0.174   0.612   7.399  0.3367 -0.3844 -0.6091
  322MOL0     C43378  -0.206   0.655   7.548 -0.2985 -0.5711 -0.2235
  322MOL0     C43379  -0.346   0.623   7.590 -0.3175 -0.3760 -0.6774
  322MOL0    Cl43380  -0.351   0.660   7.768 -0.0492 -0.0482 -0.2474
  322MOL0     C43381  -0.301   1.209   6.787 -0.0921 -1.0831  0.3298
  322MOL0     C43382  -0.328   1.333   6.723  0.0434  0.2865  0.1762
  322MOL0     O43383  -0.422   1.669   6.895  0.1028  0.7691 -0.9116
  322MOL0     C43384  -0.496   1.749   6.564  0.3436  1.3086 -0.5949
  322MOL0     C43385  -0.534   1.852   6.481  0.1358  0.3335 -0.1113
  322MOL0     N43386  -0.281   1.843   5.992  0.1391  0.2453  0.0180
  322MOL0     N43387  -0.271   1.733   6.053 -0.3867 -0.2193 -0.0204
  322MOL0     C43388   0.336   1.157   7.124  0.5272 -0.2115  0.5451
  322MOL0     C43389   0.419   1.119   7.220 -0.0605 -0.2662 -0.0089
  322MOL0     C43390   0.763   0.845   7.404  0.1059  0.1699 -0.0897
  322MOL0     C43391   0.872   0.919   7.367 -0.5401  0.2596  0.1316
  322MOL0     C43392   0.991   0.924   7.452  0.5021  0.3610 -0.2677
  322MOL0     C43393   0.982   0.858   7.577  0.0844 -0.0846 -0.7871
  322MOL0     O43394   1.091   0.873   7.661  0.2950 -0.4727 -0.0470
  322MOL0     C43395   1.069   0.883   7.801  0.7612 -0.3985 -0.2958
  322MOL0     C43396   0.978   1.000   7.843 -0.6056  0.3402  0.6747
  322MOL0     C43397   0.957   1.015   7.993 -0.0658 -0.2691  0.0076
  322MOL0     C43398   1.076   1.082   8.075 -0.3480  0.0789 -0.5615
  322MOL0     C43399   1.171   0.974   8.117  0.1677 -0.3972 -0.4730
  322MOL0     C43400   1.254   0.888   8.152  0.9649  0.1709 -0.1584
  322MOL0     C43401   0.883   0.769   7.606  0.5096 -0.3883  0.2141
  322MOL0     C43402   0.773   0.758   7.519  0.6642 -0.0219 -0.9183
  322MOL0     H43403   0.486   0.801   7.102  1.6260  0.9640  0.9140
  322MOL0     H43404   0.331   0.871   6.949 -1.2589  0.3678  1.1422
  322MOL0     H43405   0.123   1.278   6.963 -1.3099 -0.6461 -1.5640
  322MOL0     H43406   0.287   1.300   6.884  0.6178 -0.2281 -0.6287
  322MOL0     H43407   0.176   1.197   6.679  1.8766  2.5025 -0.5033
  322MOL0     H43408   0.029   1.194   6.778  1.5562 -1.6791  0.9275
  322MOL0     H43409   0.035   1.456   6.801  0.9034 -0.6156 -0.6718
  322MOL0     H43410   0.174   1.470   6.721  0.3795 -0.1041  0.9169
  322MOL0     H43411   0.080   1.371   6.502 -1.7147 -0.2180 -1.2071
  322MOL0     H43412  -0.064   1.330   6.605  2.5902 -3.1126 -1.5124
  322MOL0     H43413  -0.094   1.566   6.654 -1.4031 -0.9012 -0.5672
  322MOL0     H43414   0.045   1.591   6.534 -0.9162 -1.6961 -4.3847
  322MOL0     H43415  -0.083   1.484   6.363  0.7688  0.9889  0.1496
  322MOL0     H43416  -0.234   1.459   6.460 -0.6194 -0.9580 -3.2074
  322MOL0     H43417  -0.266   1.709   6.478  2.6227  2.7937  1.2234
  322MOL0     H43418  -0.122   1.726   6.380 -1.1506  2.4590  1.1744
  322MOL0     H43419  -0.406   1.616   6.309 -0.2186 -3.8350 -1.2795
  322MOL0     H43420  -0.268   1.550   6.227  1.1649 -0.1746 -0.2530
  322MOL0     H43421  -0.347   1.920   6.306 -1.8938 -0.6934  0.4730
  322MOL0     H43422  -0.247   2.152   6.040 -1.7432  1.6610 -2.6186
  322MOL0     H43423  -0.402   2.100   5.972 -1.4849  1.0027  1.1616
  322MOL0     H43424  -0.399   2.279   6.140  1.1301  0.9735  2.8309
  322MOL0     H43425  -0.367   2.161   6.266 -3.0558 -4.1523  1.4254
  322MOL0     H43426  -0.606   2.159   6.088  0.1802  1.2810  1.6121
  322MOL0     H43427  -0.595   2.254   6.238  2.7146  0.9416  1.0973
  322MOL0     H43428  -0.572   1.959   6.234  1.7794  1.2144 -1.4274
  322MOL0     H43429  -0.725   2.038   6.265  0.3448 -5.1348 -0.0699
  322MOL0     H43430  -0.491   2.129   6.664 -2.4215  0.7476 -2.3626
  322MOL0     H43431  -0.355   1.916   6.922  1.8330 -0.2385 -1.1397
  322MOL0     H43432  -0.381   2.085   6.855 -0.5865 -0.1412  0.7111
  322MOL0     H43433  -0.511   1.977   6.917  0.9516 -1.1508  1.6645
  322MOL0     H43434  -0.203   1.541   6.958  2.5700 -0.6486 -0.1121
  322MOL0     H43435  -0.122   1.309   7.050 -1.9105 -1.1065  1.8647
  322MOL0     H43436  -0.274   0.946   6.835 -1.3068 -0.0314  2.9880
  322MOL0     H43437  -0.100   1.009   6.805  2.5992 -1.7246  1.1303
  322MOL0     H43438  -0.126   0.771   6.881  0.1153 -0.1673  0.5695
  322MOL0     H43439  -0.025   0.882   6.983  0.3433  0.2597 -0.7609
  322MOL0     H43440  -0.298   0.774   7.041  1.9058 -0.5497 -3.6032
  322MOL0     H43441  -0.241   0.920   7.127 -0.1057 -0.8774  1.5651
  322MOL0     H43442  -0.131   0.631   7.132  1.5709  0.3706  0.0047
  322MOL0     H43443  -0.051   0.775   7.200  1.5302 -2.9501  2.1656
  322MOL0     H43444  -0.331   0.698   7.271 -1.9998  3.5132  2.9187
  322MOL0     H43445  -0.235   0.818   7.352 -1.2521  0.2266  0.3591
  322MOL0     H43446  -0.202   0.510   7.373  0.1265 -0.1744 -1.2260
  322MOL0     H43447  -0.065   0.612   7.387  0.3175  0.2717 -0.8136
  322MOL0     H43448  -0.195   0.763   7.557  4.3679 -0.7920 -0.6101
  322MOL0     H43449  -0.128   0.603   7.605  3.5139  2.5456 -2.0665
  322MOL0     H43450  -0.374   0.519   7.573 -0.9746 -0.0851 -1.4687
  322MOL0     H43451  -0.407   0.693   7.531 -1.8903 -0.8785  0.2969
  322MOL0     H43452  -0.333   1.114   6.745 -0.4354 -0.2235 -1.4291
  322MOL0     H43453  -0.380   1.330   6.628  0.2806  1.5784 -0.0101
  322MOL0     H43454  -0.495   1.650   6.519  3.1034  0.2390  1.4880
  322MOL0     H43455  -0.568   1.827   6.381  0.1648  0.1289 -0.0693
  322MOL0     H43456   0.310   1.262   7.121  2.6241  0.3616  0.6392
  322MOL0     H43457   0.456   1.185   7.298 -1.7627 -0.8605  1.3296
  322MOL0     H43458   0.869   0.990   7.285  1.9140  0.7346  0.3886
  322MOL0     H43459   1.079   0.982   7.429 -1.3526  2.2989 -3.0930
  322MOL0     H43460   1.031   0.789   7.843 -0.8852  0.9936  1.5118
  322MOL0     H43461   1.165   0.899   7.851  1.0607 -1.1570 -0.6064
  322MOL0     H43462   0.879   0.973   7.804 -1.0731  2.7814 -0.0256
  322MOL0     H43463   1.014   1.090   7.792 -2.8237  0.5348 -0.7074
  322MOL0     H43464   0.941   0.930   8.060  2.1702 -0.9492 -0.2190
  322MOL0     H43465   0.872   1.083   8.003 -0.6613 -0.8390 -0.9960
  322MOL0     H43466   1.037   1.130   8.164  2.8338 -2.3032  2.3804
  322MOL0     H43467   1.134   1.145   8.006  0.8582  2.2670  2.2878
  322MOL0     H43468   1.315   0.815   8.200 -2.9815 -3.0802  0.5126
  322MOL0     H43469   0.883   0.711   7.698  2.5890 -1.7119 -0.5394
  322MOL0     H43470   0.691   0.692   7.545 -0.1493  0.2028 -2.7636
  323MOL0     O43471   3.633  10.635   2.699  0.2295 -0.5472  0.0641
  323MOL0     C43472   3.542  10.691   2.766 -0.1943 -0.6421  0.3753
  323MOL0     O43473   3.550  10.757   2.889  0.1466 -0.6479  0.7004
  323MOL0     C43474   3.677  10.779   2.936 -0.3566  0.2191  1.3531
  323MOL0     C43475   3.760  10.663   2.956 -0.4819 -0.1001  0.5531
  323MOL0     C43476   3.885  10.671   3.012  0.1231 -0.2968  0.8566
  323MOL0     C43477   3.937  10.793   3.052 -0.1763 -0.6301 -0.2314
  323MOL0     O43478   4.054  10.815   3.124 -0.0971  0.2133 -0.4863
  323MOL0     C43479   4.148  10.701   3.120 -0.0527 -0.1479 -0.8351
  323MOL0     C43480   4.274  10.753   3.190 -0.8927  0.1125 -0.4054
  323MOL0     C43481   4.392  10.656   3.179  0.2902 -0.0405 -0.1566
  323MOL0     C43482   4.502  10.687   3.274  0.4019 -0.1737 -0.2843
  323MOL0     C43483   4.600  10.794   3.221 -0.5563  0.0211 -0.4333
  323MOL0     C43484   4.740  10.783   3.287  0.6529  0.7245 -0.0550
  323MOL0     C43485   4.835  10.895   3.251  0.1003 -0.6139 -0.4881
  323MOL0     C43486   4.900  10.875   3.111  0.1313  0.6115  0.5212
  323MOL0     N43487   4.984  10.972   3.049  0.4326  0.4957  0.2456
  323MOL0     C43488   4.977  11.109   3.057 -0.2196 -0.1031  0.5678
  323MOL0     C43489   5.076  11.155   2.986 -0.1223 -0.2601 -0.2612
  323MOL0     C43490   5.095  11.304   2.959  0.1619 -0.8555  0.0131
  323MOL0     C43491   5.245  11.327   2.933 -1.2816 -0.3438  0.2471
  323MOL0     C43492   5.331  11.329   3.062 -0.3852 -0.9252  0.2749
  323MOL0     C43493   5.482  11.347   3.048 -0.8271 -0.0490 -0.2888
  323MOL0     O43494   5.546  11.312   3.179 -0.5336 -0.1879  0.7139
  323MOL0     C43495   5.684  11.290   3.185  0.2556 -0.6830  1.1556
  323MOL0     C43496   5.733  11.175   3.235  0.1831  1.0757  1.1434
  323MOL0     C43497   5.873  11.147   3.226 -0.0320 -0.5031 -0.7087
  323MOL0     C43498   5.919  11.014   3.285 -0.4819  0.2502  0.0073
  323MOL0     C43499   5.955  11.250   3.177  0.5049 -0.5001 -0.0014
  323MOL0     C43500   6.102  11.241   3.178  0.2163  0.3979 -1.1748
  323MOL0     O43501   6.182  11.357   3.172 -0.2724 -0.1882  0.1632
  323MOL0     C43502   6.311  11.349   3.121  0.3853 -0.7492 -0.0701
  323MOL0     C43503   6.388  11.243   3.079  0.6863  0.7974  0.9197
  323MOL0     C43504   6.522  11.266   3.026 -0.2784  0.1635  1.1120
  323MOL0     C43505   6.571  11.397   3.005  0.3979 -1.2224 -0.4807
  323MOL0     O43506   6.705  11.405   2.962  0.7968 -0.0886 -0.1187
  323MOL0     C43507   6.775  11.537   2.949  0.1081  0.3557  0.1241
  323MOL0     C43508   6.861  11.552   2.824  0.6389  0.0117  0.1724
  323MOL0     C43509   6.962  11.431   2.811 -0.5588  0.4163  0.1742
  323MOL0     C43510   7.065  11.434   2.694  0.2958 -0.1610 -0.6797
  323MOL0     C43511   7.144  11.301   2.690 -0.1034  0.6196 -0.2767
  323MOL0     C43512   7.255  11.281   2.794 -1.2181 -0.7516 -0.1661
  323MOL0     C43513   7.372  11.197   2.754 -0.3203 -0.8658 -0.1751
  323MOL0     C43514   7.506  11.259   2.786 -0.2971  0.0457 -0.0868
  323MOL0    Cl43515   7.522  11.250   2.956 -0.2427  0.3989  0.3662
  323MOL0     C43516   6.482  11.508   3.041  0.9992  0.5543  0.3427
  323MOL0     C43517   6.366  11.480   3.093  0.1233  0.1060 -1.2040
  323MOL0     O43518   6.143  11.126   3.190  0.2133  0.3134 -0.3151
  323MOL0     C43519   5.904  11.357   3.120 -0.2897 -0.4121  0.0175
  323MOL0     C43520   5.770  11.378   3.110  0.1537 -0.4613  1.2817
  323MOL0     N43521   5.153  11.046   2.942 -0.0126 -0.7891  0.3732
  323MOL0     N43522   5.099  10.941   2.978 -0.0046  0.0429  0.0209
  323MOL0     C43523   3.857  10.905   3.039  0.3228  0.3403  0.0415
  323MOL0     C43524   3.734  10.902   2.972 -0.0702  0.6174  0.1884
  323MOL0     C43525   3.405  10.676   2.708 -0.8662 -0.6869  0.4570
  323MOL0     C43526   3.386  10.622   2.579 -0.4008  0.0113  0.3860
  323MOL0     C43527   3.259  10.572   2.534 -0.5574  0.2953 -0.4592
  323MOL0     C43528   3.143  10.585   2.615  0.2983 -0.2461 -0.3308
  323MOL0     O43529   3.014  10.546   2.575  0.4624  0.1766  0.4264
  323MOL0     C43530   2.956  10.642   2.480 -0.1298 -0.4700 -0.6539
  323MOL0     C43531   2.859  10.717   2.575  0.5678 -0.3152  0.6147
  323MOL0     C43532   2.754  10.631   2.653 -0.0137 -0.0004 -1.2452
  323MOL0     C43533   2.626  10.705   2.689 -0.2025 -0.3354  1.0595
  323MOL0     C43534   2.535  10.619   2.768  0.1674 -0.2066 -0.0543
  323MOL0     C43535   2.459  10.557   2.832  0.7597  0.5087  0.0197
  323MOL0     C43536   3.157  10.649   2.738 -0.4312 -0.0403  0.2424
  323MOL0     C43537   3.289  10.691   2.782  0.3620  0.5650 -0.5237
  323MOL0     H43538   3.709  10.568   2.942 -0.9693  0.2836 -0.3499
  323MOL0     H43539   3.944  10.583   3.035  0.7394 -0.5862 -1.4882
  323MOL0     H43540   4.108  10.612   3.170 -0.3690  0.7626  0.5965
  323MOL0     H43541   4.171  10.673   3.017 -0.8762 -0.1772 -1.0115
  323MOL0     H43542   4.298  10.851   3.147 -0.3033  0.8496  1.4950
  323MOL0     H43543   4.252  10.765   3.297 -1.6509  1.6345 -0.6909
  323MOL0     H43544   4.352  10.556   3.201 -0.6816  0.0478 -1.3649
  323MOL0     H43545   4.438  10.667   3.080 -0.2358  4.3049 -0.0907
  323MOL0     H43546   4.455  10.713   3.370 -1.2178 -1.1765 -0.7753
  323MOL0     H43547   4.566  10.598   3.281  0.3238 -1.1195 -6.4328
  323MOL0     H43548   4.613  10.780   3.113 -2.2968  0.7492 -0.7631
  323MOL0     H43549   4.551  10.886   3.254 -0.0300 -0.9246  3.4596
  323MOL0     H43550   4.729  10.792   3.396  2.6163 -0.7590  0.3227
  323MOL0     H43551   4.792  10.689   3.263  2.0911  1.3273  0.5763
  323MOL0     H43552   4.773  10.983   3.269  1.2768 -0.1431  1.7102
  323MOL0     H43553   4.915  10.891   3.325 -0.3831  3.5488  0.5472
  323MOL0     H43554   4.822  10.861   3.035  1.1077  0.5616 -0.4922
  323MOL0     H43555   4.963  10.786   3.122 -2.4747 -1.1673  2.3247
  323MOL0     H43556   4.905  11.167   3.114 -0.1902  1.8537 -1.2536
  323MOL0     H43557   5.034  11.340   2.875  1.0315 -3.2502 -1.7416
  323MOL0     H43558   5.065  11.358   3.049  1.3487  0.6760 -0.4578
  323MOL0     H43559   5.255  11.425   2.884  1.4647 -0.2485  0.7994
  323MOL0     H43560   5.290  11.257   2.862 -0.6093  0.0359  0.2881
  323MOL0     H43561   5.304  11.237   3.114 -0.7188  0.2894  2.3717
  323MOL0     H43562   5.294  11.401   3.135 -2.7329 -1.2624 -0.5051
  323MOL0     H43563   5.498  11.452   3.019 -0.1823 -0.0038  0.2158
  323MOL0     H43564   5.520  11.296   2.959 -1.3489 -2.2833  0.7217
  323MOL0     H43565   5.673  11.094   3.274 -1.0361  0.5605 -1.6252
  323MOL0     H43566   5.835  10.963   3.333 -1.0790 -1.1458 -2.3599
  323MOL0     H43567   5.957  10.953   3.202  2.5472  2.8351 -0.7262
  323MOL0     H43568   5.990  11.026   3.367 -0.1737  0.2766 -0.2630
  323MOL0     H43569   6.357  11.140   3.096  0.8638  0.2149 -1.8850
  323MOL0     H43570   6.583  11.177   3.019 -1.8006 -1.1735  3.3432
  323MOL0     H43571   6.706  11.622   2.950  2.0497  2.0367  1.9619
  323MOL0     H43572   6.837  11.567   3.034 -0.2038  2.1886 -0.2603
  323MOL0     H43573   6.804  11.568   2.732  0.9016  0.2065  0.0422
  323MOL0     H43574   6.920  11.644   2.822  0.4756  0.1031 -1.0008
  323MOL0     H43575   6.901  11.340   2.806 -0.6741  0.5245 -0.4056
  323MOL0     H43576   7.017  11.416   2.904 -1.2967  1.1954  0.7559
  323MOL0     H43577   7.022  11.450   2.595  2.0079  2.5987 -1.0935
  323MOL0     H43578   7.125  11.525   2.703  1.9095 -1.0274 -2.0513
  323MOL0     H43579   7.196  11.304   2.595  0.1950  1.7846 -0.0952
  323MOL0     H43580   7.083  11.210   2.692  0.2550  0.3708 -0.7339
  323MOL0     H43581   7.300  11.380   2.810  2.3526 -2.0813 -0.8592
  323MOL0     H43582   7.214  11.243   2.888  0.2122 -2.0836 -0.0311
  323MOL0     H43583   7.377  11.174   2.648  1.9256 -0.8822 -0.1040
  323MOL0     H43584   7.354  11.108   2.816 -0.0200 -0.2444  0.8378
  323MOL0     H43585   7.514  11.362   2.749 -0.4570  0.8903  2.0745
  323MOL0     H43586   7.592  11.208   2.742  0.7231  2.0614 -0.5629
  323MOL0     H43587   6.517  11.609   3.021  2.6220 -0.3999 -2.1903
  323MOL0     H43588   6.321  11.572   3.129  0.1240 -1.6487  4.1648
  323MOL0     H43589   5.972  11.434   3.087 -1.7099  1.7460  1.8366
  323MOL0     H43590   5.740  11.466   3.054 -2.3266 -1.5193  0.8077
  323MOL0     H43591   3.885  10.998   3.088 -1.1689  0.3923  0.8755
  323MOL0     H43592   3.674  10.989   2.946 -1.2088  0.2270  1.3910
  323MOL0     H43593   3.474  10.591   2.524 -0.1266  0.5341  0.5192
  323MOL0     H43594   3.245  10.537   2.432  0.1346 -0.5741 -0.2692
  323MOL0     H43595   3.021  10.719   2.438 -1.8782  1.0462 -0.7033
  323MOL0     H43596   2.903  10.604   2.392 -0.2038  2.6905 -2.1072
  323MOL0     H43597   2.790  10.768   2.508  2.8368  0.6631 -1.1177
  323MOL0     H43598   2.910  10.782   2.647  0.2255 -0.2636  0.8128
  323MOL0     H43599   2.790  10.583   2.744 -1.7149  2.3197  0.8036
  323MOL0     H43600   2.724  10.541   2.599 -0.5895 -0.7518  0.2718
  323MOL0     H43601   2.570  10.708   2.595 -1.1363 -0.0879  1.6177
  323MOL0     H43602   2.653  10.802   2.733  0.2162 -0.5541  1.2989
  323MOL0     H43603   2.406  10.489   2.895  1.7063  0.4121  0.7351
  323MOL0     H43604   3.069  10.678   2.796 -1.9605 -2.3717 -0.7644
  323MOL0     H43605   3.294  10.731   2.882 -0.4424  1.6022 -0.8789
  324MOL0     O43606   7.861   3.700   9.316 -0.1549  0.0493  0.1333
  324MOL0     C43607   7.756   3.714   9.247 -0.3507 -0.5137  0.3755
  324MOL0     O43608   7.738   3.800   9.141 -0.8466 -0.5030  0.0878
  324MOL0     C43609   7.855   3.870   9.090 -1.6331  0.2087  0.1396
  324MOL0     C43610   7.941   3.934   9.169 -0.5858 -0.8866 -0.6654
  324MOL0     C43611   8.037   4.016   9.108 -0.9616  0.0335  0.0633
  324MOL0     C43612   8.053   4.017   8.967 -0.5543 -0.7347  0.2169
  324MOL0     O43613   8.148   4.096   8.909 -0.1327 -0.5778  0.1196
  324MOL0     C43614   8.144   4.236   8.925  0.5338 -0.6360 -0.3621
  324MOL0     C43615   8.282   4.309   8.919  0.7346  0.2420  0.6886
  324MOL0     C43616   8.358   4.298   8.788 -0.1861 -0.8702  0.1688
  324MOL0     C43617   8.269   4.338   8.660 -0.0515 -0.3191 -0.3826
  324MOL0     C43618   8.361   4.351   8.534  0.2664 -0.0433  0.1832
  324MOL0     C43619   8.421   4.207   8.514  0.1527  0.1831  1.0404
  324MOL0     C43620   8.450   4.171   8.368  0.6117 -0.2196 -0.1539
  324MOL0     C43621   8.341   4.199   8.270  0.2214 -0.0652 -0.2413
  324MOL0     N43622   8.211   4.146   8.317 -0.4362  0.3443 -0.6136
  324MOL0     C43623   8.188   4.012   8.346  0.6835  0.2179  0.6181
  324MOL0     C43624   8.052   4.000   8.340  0.7702  0.6769  0.6320
  324MOL0     C43625   7.969   3.877   8.334 -0.0866 -0.2137 -0.4296
  324MOL0     C43626   8.009   3.786   8.217  0.6291  0.4108  0.3524
  324MOL0     C43627   7.886   3.713   8.157  0.4237  0.3387 -0.0606
  324MOL0     C43628   7.927   3.648   8.023 -0.7397  0.3301 -0.5356
  324MOL0     O43629   7.818   3.641   7.937  0.6435 -0.2952  0.1449
  324MOL0     C43630   7.714   3.553   7.967 -0.0258 -0.7854  1.6894
  324MOL0     C43631   7.709   3.449   8.058  0.6684 -0.0214 -1.1895
  324MOL0     C43632   7.599   3.367   8.074 -0.6298  0.6689  0.2889
  324MOL0     C43633   7.597   3.262   8.182  0.0695 -0.1963 -0.0579
  324MOL0     C43634   7.492   3.377   7.982  0.0528  0.3399 -0.0656
  324MOL0     C43635   7.370   3.291   7.977 -0.4291 -0.4350  0.3214
  324MOL0     O43636   7.275   3.348   7.909 -0.5580  0.6170 -0.7480
  324MOL0     C43637   7.139   3.326   7.942  0.1351  0.6145 -0.2296
  324MOL0     C43638   7.056   3.320   7.827  0.3180  0.9678 -0.5567
  324MOL0     C43639   6.923   3.287   7.843 -0.2513  0.1001 -0.4849
  324MOL0     C43640   6.867   3.265   7.976 -0.3690 -0.7937  0.8579
  324MOL0     O43641   6.738   3.241   7.977 -0.5049 -0.6486  0.0232
  324MOL0     C43642   6.692   3.236   8.103 -0.1990  0.3363 -0.3971
  324MOL0     C43643   6.532   3.218   8.098 -0.9141 -0.4271  0.0987
  324MOL0     C43644   6.476   3.239   8.240 -0.3914  0.5100  0.2146
  324MOL0     C43645   6.491   3.107   8.313 -0.8635  0.3827  0.1458
  324MOL0     C43646   6.394   3.090   8.428 -0.2217 -0.1299  0.3991
  324MOL0     C43647   6.376   2.946   8.470 -0.0825 -0.3596  0.1450
  324MOL0     C43648   6.269   2.934   8.571  0.5314  0.9735 -0.2989
  324MOL0     C43649   6.244   2.797   8.624  0.2244  0.0450 -0.0767
  324MOL0    Cl43650   6.380   2.743   8.715  0.0789 -0.4221  0.0291
  324MOL0     C43651   6.952   3.265   8.086 -0.1508 -0.6715 -0.5925
  324MOL0     C43652   7.086   3.292   8.070 -0.6160 -1.0060 -0.9052
  324MOL0     O43653   7.373   3.183   8.027  0.5174 -0.2158 -1.3797
  324MOL0     C43654   7.503   3.482   7.885  0.5693 -0.0668 -0.4691
  324MOL0     C43655   7.609   3.570   7.876  0.2964  0.2646 -1.2806
  324MOL0     N43656   8.001   4.129   8.318 -0.1554 -0.4175 -0.1434
  324MOL0     N43657   8.096   4.222   8.330  0.1594  0.5230  0.0866
  324MOL0     C43658   7.964   3.943   8.885 -0.8001  0.8916  0.2470
  324MOL0     C43659   7.861   3.868   8.946 -0.0938  0.2859  0.3049
  324MOL0     C43660   7.650   3.617   9.278  0.2947  1.1295  0.7628
  324MOL0     C43661   7.666   3.530   9.378  0.3845 -0.3756  0.1933
  324MOL0     C43662   7.563   3.443   9.405 -0.4571  0.5215  0.3521
  324MOL0     C43663   7.441   3.438   9.331 -1.0844  0.3206 -1.2928
  324MOL0     O43664   7.342   3.342   9.368 -0.6809  0.0511  0.5754
  324MOL0     C43665   7.209   3.325   9.301  0.1464 -0.2996 -0.4140
  324MOL0     C43666   7.232   3.266   9.161  0.1188  0.1430 -0.0113
  324MOL0     C43667   7.099   3.258   9.089 -0.6869  0.0570  0.1643
  324MOL0     C43668   7.114   3.151   8.979 -0.1476  0.2310 -0.4044
  324MOL0     C43669   7.207   3.200   8.870  0.4520  1.0512  0.1739
  324MOL0     C43670   7.265   3.222   8.766  0.1158  0.3703 -0.6549
  324MOL0     C43671   7.433   3.531   9.230  0.0039  0.6607  0.5454
  324MOL0     C43672   7.533   3.629   9.203  0.3031 -0.1871  0.0950
  324MOL0     H43673   7.929   3.947   9.276 -2.4117 -2.2851 -0.6543
  324MOL0     H43674   8.094   4.083   9.170  0.5514 -1.5820  0.4956
  324MOL0     H43675   8.083   4.274   8.842  1.5004  1.4228 -0.1901
  324MOL0     H43676   8.099   4.258   9.022 -0.7329 -1.2379 -0.7927
  324MOL0     H43677   8.269   4.414   8.949 -0.1273 -0.8470  4.7667
  324MOL0     H43678   8.342   4.264   8.999  0.5743  3.3237  2.7438
  324MOL0     H43679   8.451   4.354   8.793 -1.3985  1.3791 -0.8762
  324MOL0     H43680   8.384   4.192   8.783 -0.3675 -1.0952  2.6414
  324MOL0     H43681   8.187   4.266   8.654  0.2914 -0.8367  0.7643
  324MOL0     H43682   8.224   4.437   8.669 -4.4793 -2.1103 -0.1338
  324MOL0     H43683   8.306   4.392   8.449  0.0255  2.4002  1.4402
  324MOL0     H43684   8.434   4.424   8.569 -1.0372  0.7764  1.2946
  324MOL0     H43685   8.509   4.183   8.574 -0.0303 -1.8062  0.6017
  324MOL0     H43686   8.350   4.128   8.540  1.6822 -1.3441  0.7350
  324MOL0     H43687   8.539   4.222   8.330  0.4176  1.4939  1.5544
  324MOL0     H43688   8.465   4.062   8.365 -2.6187 -0.7665 -0.4387
  324MOL0     H43689   8.376   4.141   8.184  2.6201 -0.9380  1.2183
  324MOL0     H43690   8.332   4.306   8.252  0.3545 -0.0264 -0.0817
  324MOL0     H43691   8.248   3.922   8.359 -0.8333 -1.3091 -1.9862
  324MOL0     H43692   7.974   3.819   8.427 -3.8449 -1.9114 -1.1216
  324MOL0     H43693   7.866   3.913   8.328 -0.3167 -0.4073  1.5438
  324MOL0     H43694   8.089   3.715   8.237 -0.0091 -1.4348 -2.9930
  324MOL0     H43695   8.051   3.854   8.142  1.1944  0.7234  0.9449
  324MOL0     H43696   7.811   3.790   8.140  0.0963 -0.1600 -0.9114
  324MOL0     H43697   7.845   3.639   8.227 -2.3820 -0.6607 -2.5987
  324MOL0     H43698   7.965   3.547   8.041  1.8689  1.4937  1.0683
  324MOL0     H43699   8.012   3.697   7.976  0.9479 -1.7385  0.1831
  324MOL0     H43700   7.792   3.420   8.121 -1.2198 -0.4395  1.2629
  324MOL0     H43701   7.505   3.264   8.241  1.1226 -0.1386  1.6678
  324MOL0     H43702   7.599   3.161   8.141 -1.5925  0.3979 -1.7287
  324MOL0     H43703   7.681   3.270   8.252 -0.0840  3.2658 -0.0823
  324MOL0     H43704   7.110   3.335   7.733  2.7380  2.0531  0.9057
  324MOL0     H43705   6.855   3.267   7.761 -2.4282 -0.9578  1.4579
  324MOL0     H43706   6.741   3.154   8.157  0.9771  0.7955 -0.7425
  324MOL0     H43707   6.711   3.332   8.151  2.7428 -0.9207  1.1826
  324MOL0     H43708   6.485   3.294   8.035 -0.9856 -0.9096 -0.4420
  324MOL0     H43709   6.499   3.123   8.054  0.3612 -2.1896  2.6842
  324MOL0     H43710   6.373   3.272   8.225 -0.1553  2.2915  2.0626
  324MOL0     H43711   6.517   3.328   8.289 -0.6932  0.0537  1.3079
  324MOL0     H43712   6.472   3.028   8.240  0.9660  0.0131  0.0134
  324MOL0     H43713   6.594   3.100   8.349  0.1281 -0.0447 -2.5570
  324MOL0     H43714   6.297   3.120   8.387 -0.3608  0.0379  0.8446
  324MOL0     H43715   6.413   3.161   8.509  0.6622  0.9026 -0.6659
  324MOL0     H43716   6.351   2.874   8.392  0.9649 -1.3213  0.6711
  324MOL0     H43717   6.473   2.920   8.513  0.2168 -0.3621 -0.5188
  324MOL0     H43718   6.177   2.959   8.518 -0.0474 -1.1621 -0.3771
  324MOL0     H43719   6.283   2.999   8.659 -2.4816 -0.7557  1.6061
  324MOL0     H43720   6.226   2.723   8.546 -4.0761  1.7090 -0.9608
  324MOL0     H43721   6.159   2.805   8.693  0.3447  0.5023  0.0224
  324MOL0     H43722   6.928   3.235   8.187  0.1595 -2.3931 -0.9936
  324MOL0     H43723   7.151   3.270   8.155  1.1671 -4.0636 -2.8576
  324MOL0     H43724   7.429   3.508   7.810  1.6308  1.7415 -0.9650
  324MOL0     H43725   7.609   3.647   7.800 -1.6877 -0.2684 -1.8806
  324MOL0     H43726   7.978   3.931   8.778 -0.0663 -1.5954  0.5506
  324MOL0     H43727   7.783   3.806   8.902  0.0412 -1.7268  2.6780
  324MOL0     H43728   7.751   3.535   9.446  0.5099  0.2111 -0.0044
  324MOL0     H43729   7.589   3.373   9.484  1.1083  1.5019  0.7444
  324MOL0     H43730   7.143   3.266   9.365 -0.5054  1.1803  0.3346
  324MOL0     H43731   7.170   3.427   9.294 -0.3750 -0.4731 -0.0898
  324MOL0     H43732   7.260   3.162   9.180 -3.0052 -0.7558  0.2064
  324MOL0     H43733   7.304   3.315   9.095  1.1102 -0.6860  0.4224
  324MOL0     H43734   7.073   3.350   9.037  0.3337  0.2802  0.0208
  324MOL0     H43735   7.025   3.230   9.164  0.4832  0.8320  1.6664
  324MOL0     H43736   7.015   3.132   8.935  0.3002 -1.4721 -0.7580
  324MOL0     H43737   7.141   3.055   9.025 -1.3728  0.3926  0.7335
  324MOL0     H43738   7.306   3.249   8.671 -0.9406 -4.6164 -2.8418
  324MOL0     H43739   7.346   3.530   9.164 -0.5057 -0.0337  1.1995
  324MOL0     H43740   7.530   3.697   9.118  3.8844 -0.3057 -0.2774
  325MOL0     O43741  11.035   1.984   7.255 -0.6689  0.8116  0.9971
  325MOL0     C43742  10.987   1.885   7.309  0.1671  0.1935 -0.6188
  325MOL0     O43743  10.861   1.879   7.370  0.6170  0.0649  0.4547
  325MOL0     C43744  10.772   1.989   7.358 -0.3200  0.4975 -0.3650
  325MOL0     C43745  10.645   1.959   7.411  0.0433 -0.1470  0.6345
  325MOL0     C43746  10.542   2.057   7.398 -0.5964 -0.3279  0.4789
  325MOL0     C43747  10.577   2.185   7.365  0.1140 -0.1655  0.4443
  325MOL0     O43748  10.492   2.293   7.354 -0.1171 -0.5195  0.1860
  325MOL0     C43749  10.353   2.276   7.341  0.5579 -0.2767  0.5908
  325MOL0     C43750  10.293   2.410   7.296 -0.6964  0.1085  0.1151
  325MOL0     C43751  10.344   2.469   7.170 -0.0081 -0.4230  0.4460
  325MOL0     C43752  10.294   2.614   7.153  0.4086  0.5754  0.0532
  325MOL0     C43753  10.393   2.721   7.210  0.1047 -0.7673 -0.4338
  325MOL0     C43754  10.350   2.866   7.191 -0.0465  0.3715 -0.2895
  325MOL0     C43755  10.413   2.969   7.271 -0.4363 -0.5302  0.0157
  325MOL0     C43756  10.374   3.109   7.228  0.6273  1.1671  0.9106
  325MOL0     N43757  10.238   3.137   7.254  0.2786  0.3083 -0.0015
  325MOL0     C43758  10.199   3.180   7.380 -0.6291  0.4676  0.0927
  325MOL0     C43759  10.064   3.170   7.381 -0.5295 -0.3909 -0.2458
  325MOL0     C43760   9.966   3.194   7.490 -0.8260 -0.6312  0.5614
  325MOL0     C43761   9.878   3.317   7.458 -0.7885  0.9840  0.3657
  325MOL0     C43762   9.763   3.299   7.558 -0.7369 -0.3110  0.5265
  325MOL0     C43763   9.687   3.431   7.580  0.2779  1.2343 -0.0459
  325MOL0     O43764   9.540   3.421   7.612 -0.1710 -0.7771 -0.1434
  325MOL0     C43765   9.454   3.388   7.507 -0.7130 -0.1637  0.5341
  325MOL0     C43766   9.320   3.405   7.530 -0.6619  0.3738 -0.0331
  325MOL0     C43767   9.220   3.394   7.434  0.6151  0.0554 -0.4335
  325MOL0     C43768   9.076   3.426   7.464 -0.3293  0.3157  0.0815
  325MOL0     C43769   9.248   3.341   7.314 -0.9550 -0.4225  0.0413
  325MOL0     C43770   9.162   3.329   7.199  0.4755 -0.6701 -0.1592
  325MOL0     O43771   9.158   3.207   7.142  0.2105 -0.2100 -0.6713
  325MOL0     C43772   9.090   3.205   7.023  0.6678 -0.0520 -0.3132
  325MOL0     C43773   8.946   3.183   7.031  0.0150  0.0380  0.6507
  325MOL0     C43774   8.875   3.166   6.915  0.1566  0.3688 -1.4206
  325MOL0     C43775   8.939   3.151   6.789 -0.1163 -0.2995 -0.0986
  325MOL0     O43776   8.891   3.110   6.669  0.1247  0.1943  0.3903
  325MOL0     C43777   8.756   3.059   6.666 -0.6067  0.6282 -0.6314
  325MOL0     C43778   8.753   2.918   6.728  0.1701  0.0684 -0.1636
  325MOL0     C43779   8.609   2.859   6.715 -0.3894 -1.0347  0.4639
  325MOL0     C43780   8.605   2.705   6.729  0.2635  0.3752  0.0937
  325MOL0     C43781   8.485   2.633   6.658 -0.0555  0.0673 -0.4028
  325MOL0     C43782   8.501   2.618   6.507 -0.0890 -0.1090 -0.8164
  325MOL0     C43783   8.368   2.603   6.432 -0.1852 -0.5866 -0.7322
  325MOL0     C43784   8.397   2.549   6.299 -0.6862  0.0829 -0.0927
  325MOL0    Cl43785   8.548   2.628   6.221  0.1732  0.1192  0.0126
  325MOL0     C43786   9.080   3.172   6.789  0.7580 -0.0600 -0.5972
  325MOL0     C43787   9.151   3.207   6.898 -0.4403  0.5852 -0.0271
  325MOL0     O43788   9.132   3.443   7.153 -0.5869 -0.7124  0.2263
  325MOL0     C43789   9.386   3.312   7.285  0.0710 -0.4532 -0.4793
  325MOL0     C43790   9.485   3.345   7.378  0.5174  0.6407 -0.1742
  325MOL0     N43791  10.018   3.105   7.271  0.0854 -0.0070 -0.0334
  325MOL0     N43792  10.119   3.103   7.193  0.3644  0.5143  0.9747
  325MOL0     C43793  10.711   2.215   7.340  1.0110  0.3824 -0.4273
  325MOL0     C43794  10.818   2.124   7.343 -0.1186 -0.9377  0.0764
  325MOL0     C43795  11.079   1.774   7.352  0.6569  0.2726 -0.1276
  325MOL0     C43796  11.038   1.666   7.439  0.5335 -0.1015  1.1051
  325MOL0     C43797  11.137   1.573   7.487 -0.1460  0.5697  0.3641
  325MOL0     C43798  11.256   1.565   7.422  0.1938  0.1099  0.0094
  325MOL0     O43799  11.338   1.468   7.470  0.0083  0.3168 -0.8997
  325MOL0     C43800  11.452   1.439   7.397  0.5308 -0.3236  0.1824
  325MOL0     C43801  11.526   1.310   7.436  0.8540  0.3997 -0.1453
  325MOL0     C43802  11.429   1.204   7.485 -0.2040 -1.1451  0.0222
  325MOL0     C43803  11.487   1.078   7.556  0.7420 -1.0116  0.8011
  325MOL0     C43804  11.545   0.969   7.469  0.4040 -0.3284  0.2009
  325MOL0     C43805  11.593   0.882   7.387 -0.0214 -0.6720  0.6090
  325MOL0     C43806  11.286   1.658   7.321 -0.0982 -0.4363 -0.1485
  325MOL0     C43807  11.198   1.765   7.281 -0.1464  0.3597 -0.6325
  325MOL0     H43808  10.622   1.856   7.438 -5.3033 -0.0224 -2.2245
  325MOL0     H43809  10.442   2.043   7.441 -1.3716  2.6342 -0.1361
  325MOL0     H43810  10.331   2.197   7.268 -0.7977 -2.6546  3.3386
  325MOL0     H43811  10.318   2.245   7.440  0.8300  0.5490  0.9551
  325MOL0     H43812  10.185   2.390   7.296 -1.0436  1.6364  2.0449
  325MOL0     H43813  10.298   2.480   7.380 -0.0745 -0.4556  0.5609
  325MOL0     H43814  10.453   2.469   7.162 -0.0673 -1.1670 -0.6430
  325MOL0     H43815  10.307   2.425   7.076  2.5957 -0.5692 -0.6050
  325MOL0     H43816  10.287   2.637   7.046 -3.5688  1.8615  0.4352
  325MOL0     H43817  10.196   2.632   7.198  0.1930  0.1110 -0.2334
  325MOL0     H43818  10.377   2.696   7.315  1.0847 -0.7303 -0.2614
  325MOL0     H43819  10.495   2.699   7.177  1.6135  1.6321  2.1805
  325MOL0     H43820  10.373   2.899   7.089 -3.1756  0.1675 -1.1912
  325MOL0     H43821  10.240   2.865   7.198  0.0404  1.4246  2.3222
  325MOL0     H43822  10.384   2.952   7.375 -2.9942 -0.7112 -0.6518
  325MOL0     H43823  10.521   2.968   7.281 -0.4255  1.1996  0.3199
  325MOL0     H43824  10.389   3.121   7.120  0.8669 -0.4585  0.7319
  325MOL0     H43825  10.448   3.174   7.277 -0.7830  1.8170  2.2360
  325MOL0     H43826  10.259   3.226   7.458  0.4099  0.6293 -0.7945
  325MOL0     H43827   9.909   3.102   7.506  0.5108 -1.6107 -0.1218
  325MOL0     H43828  10.021   3.206   7.583 -1.7118 -0.4227  1.0633
  325MOL0     H43829   9.843   3.315   7.354  0.6230 -2.2007 -0.1545
  325MOL0     H43830   9.926   3.411   7.486  0.3730 -0.0842  2.1559
  325MOL0     H43831   9.798   3.272   7.658 -1.3845  0.5956  1.0067
  325MOL0     H43832   9.690   3.220   7.535 -1.3396  0.8090 -1.6221
  325MOL0     H43833   9.673   3.483   7.485 -1.8543 -1.1892 -1.1462
  325MOL0     H43834   9.732   3.484   7.665 -1.1044  2.4973 -0.0521
  325MOL0     H43835   9.310   3.436   7.633  3.3384  3.8967 -0.4278
  325MOL0     H43836   9.063   3.515   7.527  1.1003 -0.1878  1.1301
  325MOL0     H43837   9.019   3.452   7.374  1.1214 -2.3843 -1.7544
  325MOL0     H43838   9.035   3.333   7.504  1.8531 -1.7570 -2.1603
  325MOL0     H43839   8.888   3.180   7.123 -0.6423  1.3922  0.3152
  325MOL0     H43840   8.767   3.153   6.920  0.1421  0.9571  1.1134
  325MOL0     H43841   8.705   3.136   6.724 -1.7516  0.7326 -1.7459
  325MOL0     H43842   8.712   3.072   6.567  1.4694  0.9854 -1.5665
  325MOL0     H43843   8.834   2.857   6.688  1.4481 -0.3772  2.7967
  325MOL0     H43844   8.778   2.927   6.834 -1.3248 -2.2854  0.4657
  325MOL0     H43845   8.567   2.890   6.618  0.0289 -0.2457  0.5216
  325MOL0     H43846   8.549   2.907   6.793  2.0016  0.4534  1.5083
  325MOL0     H43847   8.690   2.655   6.683 -1.1196 -4.4654  2.1982
  325MOL0     H43848   8.607   2.682   6.836 -0.5501  1.1781  0.2936
  325MOL0     H43849   8.394   2.689   6.683 -0.4127 -0.0406 -1.4040
  325MOL0     H43850   8.461   2.537   6.705 -0.7321 -1.3574 -3.3699
  325MOL0     H43851   8.545   2.710   6.467  0.1015 -0.3111 -1.0797
  325MOL0     H43852   8.568   2.535   6.483 -2.0907 -1.7829 -0.9152
  325MOL0     H43853   8.315   2.699   6.426 -1.4979 -1.1305  1.0809
  325MOL0     H43854   8.307   2.529   6.485  1.8138 -0.2091  2.3705
  325MOL0     H43855   8.309   2.560   6.235 -1.2244  1.2158  0.7904
  325MOL0     H43856   8.424   2.444   6.314  2.4658  0.9815  1.4013
  325MOL0     H43857   9.126   3.175   6.691  0.1801  0.5349 -0.8571
  325MOL0     H43858   9.256   3.227   6.877 -0.0598 -0.6578  0.6040
  325MOL0     H43859   9.417   3.263   7.194  3.4185 -0.0879  0.3045
  325MOL0     H43860   9.588   3.320   7.354  0.7214  1.3150  0.0031
  325MOL0     H43861  10.727   2.321   7.323 -0.7751  0.7702  0.1052
  325MOL0     H43862  10.920   2.158   7.333 -0.4171  0.8305  2.4065
  325MOL0     H43863  10.935   1.649   7.469  1.0568 -4.2378  1.1637
  325MOL0     H43864  11.111   1.500   7.563 -4.2578  0.6521 -0.7231
  325MOL0     H43865  11.418   1.425   7.293 -0.0393  1.6646  0.0639
  325MOL0     H43866  11.532   1.513   7.390  0.7040 -0.5859 -0.7779
  325MOL0     H43867  11.589   1.337   7.521 -0.2635 -1.6774  1.4181
  325MOL0     H43868  11.587   1.270   7.354  0.9811 -1.3262  0.7532
  325MOL0     H43869  11.365   1.181   7.399  1.2910  1.1487 -1.8166
  325MOL0     H43870  11.365   1.258   7.556  0.4477 -1.8660  1.1840
  325MOL0     H43871  11.394   1.043   7.601  1.3741 -1.1938  2.0163
  325MOL0     H43872  11.563   1.108   7.628  0.1312  1.7688  0.3972
  325MOL0     H43873  11.641   0.799   7.338 -0.7437  0.1448 -1.6177
  325MOL0     H43874  11.387   1.653   7.279  0.1109  2.1066 -0.1090
  325MOL0     H43875  11.234   1.831   7.203 -1.4045  1.3442 -0.4181
  326MOL0     O43876   0.020   2.279  11.341  0.4548  0.1832  0.1631
  326MOL0     C43877   0.075   2.200  11.414 -0.6834 -0.1094 -1.0242
  326MOL0     O43878   0.016   2.123  11.510 -0.3085  1.1746  0.1717
  326MOL0     C43879  -0.102   2.166  11.553 -0.1156  0.0128 -0.2808
  326MOL0     C43880  -0.111   2.293  11.616  0.8637 -0.2573 -0.7887
  326MOL0     C43881  -0.228   2.330  11.674  0.2720 -0.0402  0.3641
  326MOL0     C43882  -0.342   2.248  11.667 -0.7525 -0.7160  0.5388
  326MOL0     O43883  -0.451   2.305  11.734 -0.1883 -0.3423  0.0539
  326MOL0     C43884  -0.522   2.219  11.830 -0.0735 -0.3080 -0.1903
  326MOL0     C43885  -0.650   2.170  11.759  0.2206 -0.6780  0.1055
  326MOL0     C43886  -0.747   2.112  11.867  0.5545  0.2198  0.5711
  326MOL0     C43887  -0.890   2.086  11.815  0.7447 -0.6500 -0.0177
  326MOL0     C43888  -0.980   2.016  11.915 -0.2344  0.0554 -0.0489
  326MOL0     C43889  -1.074   1.918  11.843  1.2957 -0.1372  0.2341
  326MOL0     C43890  -1.171   1.859  11.951  0.4387 -0.0822  0.0142
  326MOL0     C43891  -1.259   1.745  11.893 -0.1489 -0.0444  0.6448
  326MOL0     N43892  -1.357   1.716  11.991  0.3841  0.7377  0.0485
  326MOL0     C43893  -1.341   1.642  12.106  0.0055 -0.6294 -0.4896
  326MOL0     C43894  -1.468   1.613  12.153  0.6401  0.5749  0.1419
  326MOL0     C43895  -1.487   1.556  12.289  0.3399 -0.3761  0.2458
  326MOL0     C43896  -1.621   1.479  12.307  0.0920  0.3258  0.5274
  326MOL0     C43897  -1.677   1.513  12.444 -0.1869  0.4423 -0.0565
  326MOL0     C43898  -1.820   1.478  12.468  0.9256 -0.8678  0.1864
  326MOL0     O43899  -1.839   1.458  12.603 -0.5899  0.4309  0.4053
  326MOL0     C43900  -1.968   1.417  12.623  0.6769  0.1613 -0.4398
  326MOL0     C43901  -2.070   1.506  12.629 -0.2779  0.1756 -0.4897
  326MOL0     C43902  -2.203   1.468  12.627  0.5518 -0.5449  0.2245
  326MOL0     C43903  -2.306   1.581  12.628  0.4063  0.0131  0.0489
  326MOL0     C43904  -2.237   1.332  12.615 -0.2780 -0.0449 -1.0333
  326MOL0     C43905  -2.374   1.274  12.613  1.2478 -0.6794 -0.5300
  326MOL0     O43906  -2.383   1.150  12.557 -0.4155 -0.0636  0.6540
  326MOL0     C43907  -2.495   1.073  12.573 -0.2952 -0.8883 -0.1572
  326MOL0     C43908  -2.493   0.945  12.625 -0.7188 -0.0730  0.2534
  326MOL0     C43909  -2.601   0.857  12.617 -0.1623 -0.1146 -0.7538
  326MOL0     C43910  -2.718   0.901  12.559 -0.7411 -0.2027 -1.1429
  326MOL0     O43911  -2.832   0.826  12.541 -0.4041  0.5736  0.8877
  326MOL0     C43912  -2.845   0.708  12.623 -0.6008  0.1044  0.4769
  326MOL0     C43913  -2.973   0.624  12.587  0.2124 -0.6332 -0.5800
  326MOL0     C43914  -3.097   0.696  12.628  0.5280 -0.2259 -0.0283
  326MOL0     C43915  -3.171   0.607  12.730 -0.2156 -0.1744  1.3815
  326MOL0     C43916  -3.313   0.669  12.756  0.3402  0.2603  0.3435
  326MOL0     C43917  -3.391   0.576  12.854  0.6862  0.0592  0.3675
  326MOL0     C43918  -3.538   0.630  12.879 -0.6875 -1.4595 -0.1601
  326MOL0     C43919  -3.595   0.603  13.021  0.0437  0.1977  1.0318
  326MOL0    Cl43920  -3.491   0.686  13.138 -0.1328  0.1164  0.0052
  326MOL0     C43921  -2.717   1.034  12.509 -0.4521  0.2837  0.5831
  326MOL0     C43922  -2.608   1.122  12.516  0.4315  0.2343  0.0166
  326MOL0     O43923  -2.473   1.341  12.649  0.4506  0.1305 -0.6758
  326MOL0     C43924  -2.131   1.236  12.600 -0.0134  0.6327  0.7263
  326MOL0     C43925  -2.001   1.285  12.596  0.0486 -0.5155  0.9424
  326MOL0     N43926  -1.565   1.666  12.063 -0.5157  0.6655 -0.6715
  326MOL0     N43927  -1.494   1.729  11.975  0.0041  0.3820  0.5831
  326MOL0     C43928  -0.326   2.123  11.600  0.5259 -0.1416 -0.2064
  326MOL0     C43929  -0.211   2.084  11.545 -0.2201  0.1102 -0.0292
  326MOL0     C43930   0.217   2.175  11.391  0.7009 -0.8397 -0.3123
  326MOL0     C43931   0.284   2.253  11.290 -0.5865  0.4774 -0.3309
  326MOL0     C43932   0.416   2.222  11.253 -1.1345 -0.0313  0.1686
  326MOL0     C43933   0.477   2.118  11.313 -0.1925 -0.0318 -0.9781
  326MOL0     O43934   0.603   2.089  11.265 -0.1866 -0.4763  0.1284
  326MOL0     C43935   0.644   1.955  11.255  0.7153  0.1887  0.4295
  326MOL0     C43936   0.599   1.890  11.121  0.5328 -0.3750 -0.2352
  326MOL0     C43937   0.672   1.753  11.115  0.3651 -0.6974 -0.7027
  326MOL0     C43938   0.644   1.671  10.981 -0.1511  0.8326  0.1305
  326MOL0     C43939   0.701   1.733  10.861 -0.2266 -0.0630 -0.2681
  326MOL0     C43940   0.730   1.797  10.766 -1.4242  0.2959 -0.6605
  326MOL0     C43941   0.412   2.049  11.420 -0.2153 -0.4857 -0.3285
  326MOL0     C43942   0.289   2.085  11.464 -0.5038 -0.0348 -0.5329
  326MOL0     H43943  -0.034   2.369  11.610 -0.3340  1.1116  0.4839
  326MOL0     H43944  -0.237   2.430  11.716 -1.7110 -0.8083  1.9288
  326MOL0     H43945  -0.466   2.130  11.863  2.4386  1.1279 -0.3212
  326MOL0     H43946  -0.556   2.275  11.918  1.6474 -1.6116  1.3874
  326MOL0     H43947  -0.702   2.237  11.690  0.5626 -0.8777 -0.3581
  326MOL0     H43948  -0.616   2.094  11.687  0.6073 -0.2337 -0.1863
  326MOL0     H43949  -0.708   2.019  11.911  0.0708  0.0437  0.6332
  326MOL0     H43950  -0.760   2.181  11.951 -4.3600 -2.3836  2.3513
  326MOL0     H43951  -0.932   2.186  11.803  1.3868  0.0219  2.7925
  326MOL0     H43952  -0.872   2.040  11.717  1.5549  2.5656 -1.5345
  326MOL0     H43953  -0.909   1.968  11.983  1.7898 -0.6355 -2.5135
  326MOL0     H43954  -1.046   2.079  11.975 -0.4353  1.0149 -1.2339
  326MOL0     H43955  -1.136   1.965  11.767 -1.0243 -0.1332  2.0201
  326MOL0     H43956  -1.015   1.840  11.793  2.8172  1.3561 -0.3959
  326MOL0     H43957  -1.118   1.817  12.037 -0.1670 -1.1675 -0.1268
  326MOL0     H43958  -1.237   1.937  11.989  1.1063 -0.2424  1.5706
  326MOL0     H43959  -1.198   1.662  11.856  1.4958  1.6155 -0.5684
  326MOL0     H43960  -1.304   1.780  11.800  2.6948  0.4077 -0.6905
  326MOL0     H43961  -1.249   1.615  12.157  0.0171  0.3438  0.0244
  326MOL0     H43962  -1.406   1.485  12.307 -0.6936 -1.3632  1.1476
  326MOL0     H43963  -1.480   1.640  12.359  0.2674  0.0427 -0.2412
  326MOL0     H43964  -1.598   1.372  12.305 -0.9236  0.1039 -1.1512
  326MOL0     H43965  -1.701   1.505  12.236 -1.1384 -0.8046  1.4409
  326MOL0     H43966  -1.668   1.622  12.451  0.8246  0.4291 -0.8436
  326MOL0     H43967  -1.611   1.486  12.526 -0.0880 -1.1640 -0.6419
  326MOL0     H43968  -1.855   1.389  12.416 -1.8653 -1.2168  2.3901
  326MOL0     H43969  -1.886   1.552  12.422 -0.6953 -3.7631 -2.5420
  326MOL0     H43970  -2.040   1.610  12.641  0.6903 -0.2003  0.4892
  326MOL0     H43971  -2.378   1.574  12.545  0.2635  1.0653  0.0677
  326MOL0     H43972  -2.364   1.585  12.720  3.2589 -1.4305  2.0654
  326MOL0     H43973  -2.261   1.680  12.626 -2.6496  1.5114 -1.9933
  326MOL0     H43974  -2.402   0.899  12.663 -1.8552 -0.9849  1.9846
  326MOL0     H43975  -2.595   0.755  12.655  0.0801  1.1846  3.1047
  326MOL0     H43976  -2.764   0.646  12.583 -0.4818  0.0233  0.8384
  326MOL0     H43977  -2.837   0.717  12.731 -1.1073  0.1676  0.5118
  326MOL0     H43978  -2.983   0.603  12.480  0.5561 -0.4850 -0.6430
  326MOL0     H43979  -2.979   0.523  12.629 -4.7546 -0.7942 -1.0390
  326MOL0     H43980  -3.151   0.724  12.538  3.1752  3.0108 -0.8167
  326MOL0     H43981  -3.082   0.797  12.668 -2.5269 -0.9032  3.3746
  326MOL0     H43982  -3.182   0.503  12.697  1.3114 -0.2311  0.9917
  326MOL0     H43983  -3.117   0.594  12.824  5.6656  2.6451 -1.1272
  326MOL0     H43984  -3.377   0.669  12.667 -0.2800  0.9468  0.7712
  326MOL0     H43985  -3.310   0.771  12.796  0.4150 -0.6079  2.6854
  326MOL0     H43986  -3.400   0.472  12.819 -1.7999  0.9080 -1.8119
  326MOL0     H43987  -3.337   0.571  12.949  1.2638 -0.8321  0.0135
  326MOL0     H43988  -3.594   0.578  12.801 -1.2519  0.1073 -0.8351
  326MOL0     H43989  -3.536   0.738  12.857  2.4171 -1.4448 -0.2031
  326MOL0     H43990  -3.610   0.494  13.021 -2.7577  0.4430 -1.6475
  326MOL0     H43991  -3.695   0.646  13.025 -0.1174 -0.1382  0.7286
  326MOL0     H43992  -2.808   1.070  12.462  0.8499  2.5969 -0.3429
  326MOL0     H43993  -2.615   1.224  12.481 -0.6536 -0.0390 -0.6159
  326MOL0     H43994  -2.150   1.133  12.572 -1.5801  1.1737 -0.3843
  326MOL0     H43995  -1.927   1.214  12.560  0.1075 -0.3011  0.6339
  326MOL0     H43996  -0.410   2.056  11.589 -0.3311  1.0640 -1.3982
  326MOL0     H43997  -0.204   1.984  11.505  0.2203  0.6809 -1.4449
  326MOL0     H43998   0.236   2.324  11.223 -2.6495 -4.0709 -4.2572
  326MOL0     H43999   0.466   2.275  11.173 -0.4666  0.2264  0.7525
  326MOL0     H44000   0.753   1.958  11.249  1.0233 -4.4443 -5.1816
  326MOL0     H44001   0.629   1.893  11.343  0.2200  1.3042  1.1536
  326MOL0     H44002   0.618   1.958  11.037 -0.6339 -0.4764 -0.6121
  326MOL0     H44003   0.491   1.875  11.109  0.7223 -0.0604 -3.2746
  326MOL0     H44004   0.635   1.688  11.195 -0.5181  1.4088  0.7001
  326MOL0     H44005   0.780   1.772  11.124  0.5757 -1.8344 -0.7074
  326MOL0     H44006   0.536   1.657  10.986 -0.0091 -0.1208  4.3189
  326MOL0     H44007   0.695   1.575  10.993 -3.1347 -0.7731  0.9762
  326MOL0     H44008   0.749   1.850  10.675 -3.6315  2.2452 -0.0640
  326MOL0     H44009   0.454   1.954  11.453  0.4449 -0.1737 -0.2491
  326MOL0     H44010   0.243   2.010  11.528 -0.8826  0.6170 -0.0216
  327MOL0     O44011   7.404   4.634   2.701 -0.2536 -0.0271  0.2469
  327MOL0     C44012   7.376   4.516   2.718  0.2415  0.5514  0.4979
  327MOL0     O44013   7.392   4.420   2.627 -0.7032 -0.0653 -0.8384
  327MOL0     C44014   7.426   4.449   2.497 -0.0603 -0.0388  0.2308
  327MOL0     C44015   7.329   4.431   2.395 -0.4999 -0.1478 -0.5052
  327MOL0     C44016   7.361   4.465   2.265 -0.2149  0.7365  0.3884
  327MOL0     C44017   7.481   4.521   2.232 -0.3151  0.5176  0.1595
  327MOL0     O44018   7.500   4.568   2.104 -0.0949  0.3855 -0.2034
  327MOL0     C44019   7.635   4.589   2.061  0.0444 -0.4185  0.4403
  327MOL0     C44020   7.633   4.667   1.929 -0.5644 -0.6176  0.7050
  327MOL0     C44021   7.767   4.714   1.869 -0.6077  0.2908 -0.2717
  327MOL0     C44022   7.849   4.594   1.825  0.1750  0.2848  0.7985
  327MOL0     C44023   7.974   4.632   1.733 -0.3866  0.3425 -0.0371
  327MOL0     C44024   8.089   4.528   1.723  0.2693  0.2304 -0.6863
  327MOL0     C44025   8.152   4.510   1.579  0.1203  0.7076 -0.1895
  327MOL0     C44026   8.206   4.636   1.530 -0.3904 -0.7488  0.2330
  327MOL0     N44027   8.282   4.620   1.402  0.1603 -0.2720  0.0408
  327MOL0     C44028   8.234   4.582   1.276 -0.8288 -0.1224 -0.4472
  327MOL0     C44029   8.340   4.594   1.186 -0.0391 -0.1088  0.2070
  327MOL0     C44030   8.329   4.579   1.039 -0.9670  1.1121  0.2952
  327MOL0     C44031   8.470   4.608   0.975  0.8346 -0.5743  0.5725
  327MOL0     C44032   8.465   4.557   0.833 -0.4753  0.1488 -0.3253
  327MOL0     C44033   8.578   4.612   0.755  0.1573 -0.7118 -0.6467
  327MOL0     O44034   8.704   4.592   0.814  0.3146  0.0709  0.2382
  327MOL0     C44035   8.813   4.616   0.737  0.2878 -0.4008 -0.7031
  327MOL0     C44036   8.933   4.596   0.788 -0.9566 -0.1424 -0.2223
  327MOL0     C44037   9.063   4.622   0.727  0.4874  0.0069 -0.0200
  327MOL0     C44038   9.186   4.581   0.804 -0.2605  0.1672 -0.0840
  327MOL0     C44039   9.064   4.695   0.606 -0.5838 -0.0217  0.9961
  327MOL0     C44040   9.187   4.754   0.532 -0.0925  0.3125  0.1146
  327MOL0     O44041   9.162   4.838   0.431 -0.5872  0.7123  1.1755
  327MOL0     C44042   9.267   4.916   0.386  0.1161  0.2223  0.2794
  327MOL0     C44043   9.375   4.864   0.305  1.0892 -0.6696 -0.0136
  327MOL0     C44044   9.473   4.949   0.257  0.6295 -0.0309  0.4560
  327MOL0     C44045   9.476   5.082   0.294 -0.0219  0.5865 -0.5515
  327MOL0     O44046   9.586   5.147   0.259 -0.3402  0.0395 -0.2801
  327MOL0     C44047   9.603   5.265   0.337 -0.1967 -0.1673 -0.0763
  327MOL0     C44048   9.756   5.297   0.335 -0.0600 -0.2742 -0.0591
  327MOL0     C44049   9.769   5.438   0.390 -0.1537  0.2959 -0.1378
  327MOL0     C44050   9.908   5.503   0.361  0.0058  1.1688 -0.3578
  327MOL0     C44051   9.929   5.641   0.408 -0.2404  0.4470  0.3963
  327MOL0     C44052  10.074   5.685   0.387  0.4821 -0.7203 -0.4106
  327MOL0     C44053  10.105   5.829   0.449  0.0708 -0.1474  0.0889
  327MOL0     C44054  10.157   5.825   0.596 -0.6545 -0.2432 -0.4876
  327MOL0    Cl44055  10.333   5.793   0.613 -0.0005  0.0495  0.3134
  327MOL0     C44056   9.369   5.137   0.367 -0.3861 -0.4175 -0.8915
  327MOL0     C44057   9.267   5.055   0.420  0.8601 -0.9872 -0.3044
  327MOL0     O44058   9.300   4.714   0.558  0.2441  0.5134 -0.4157
  327MOL0     C44059   8.941   4.718   0.549 -0.2556  0.2676  0.7372
  327MOL0     C44060   8.816   4.675   0.607  0.1127  0.0039 -0.2364
  327MOL0     N44061   8.451   4.631   1.266  0.6410  0.0001 -0.5627
  327MOL0     N44062   8.415   4.649   1.391  0.2532  0.2754  0.3662
  327MOL0     C44063   7.580   4.520   2.327  0.3296 -0.5145  0.3682
  327MOL0     C44064   7.554   4.496   2.460 -0.1997  0.1210 -0.1694
  327MOL0     C44065   7.326   4.471   2.848 -0.9685 -0.5882  0.2993
  327MOL0     C44066   7.316   4.572   2.955  0.2364  0.0329  0.8272
  327MOL0     C44067   7.272   4.545   3.078  0.4305 -1.2079 -0.0050
  327MOL0     C44068   7.227   4.412   3.098  1.4088 -0.3598 -0.0573
  327MOL0     O44069   7.166   4.365   3.212 -0.3403 -0.0371  0.2463
  327MOL0     C44070   7.134   4.453   3.311 -0.2492 -0.5752  0.4277
  327MOL0     C44071   6.997   4.512   3.295 -0.4309  0.6950 -0.1109
  327MOL0     C44072   6.876   4.415   3.308 -0.5405  0.7189  0.4883
  327MOL0     C44073   6.871   4.327   3.183  0.0053 -0.2022  0.5227
  327MOL0     C44074   6.735   4.279   3.151 -0.0206 -0.4527  0.7431
  327MOL0     C44075   6.624   4.239   3.130  0.5503  0.5931 -0.0103
  327MOL0     C44076   7.234   4.308   3.005  0.0637 -0.2479 -0.0604
  327MOL0     C44077   7.280   4.335   2.873 -0.7519 -0.1823  0.0375
  327MOL0     H44078   7.239   4.385   2.435  0.1753  0.7114  2.2042
  327MOL0     H44079   7.288   4.458   2.185 -1.7564 -0.3973  1.8140
  327MOL0     H44080   7.698   4.654   2.124  0.4849 -1.1698  0.7863
  327MOL0     H44081   7.690   4.496   2.048 -0.4851 -0.6367 -0.3249
  327MOL0     H44082   7.591   4.609   1.846 -1.8840  0.8685  0.2809
  327MOL0     H44083   7.567   4.753   1.930  0.6998  0.3950  0.0856
  327MOL0     H44084   7.752   4.786   1.788  1.4489  0.4498 -0.5529
  327MOL0     H44085   7.820   4.756   1.955 -1.6794 -2.2331  1.7335
  327MOL0     H44086   7.887   4.535   1.909  0.3486 -2.3066 -0.9724
  327MOL0     H44087   7.784   4.527   1.767 -0.0386  1.2982 -0.1835
  327MOL0     H44088   7.931   4.636   1.633 -1.2263  2.9427  0.3508
  327MOL0     H44089   8.016   4.732   1.750  2.9583 -0.5093 -2.2646
  327MOL0     H44090   8.167   4.559   1.793 -0.4701 -0.9379  0.7150
  327MOL0     H44091   8.042   4.434   1.754  1.4290 -0.4293 -0.8824
  327MOL0     H44092   8.233   4.437   1.582  0.3360  0.8597 -1.5202
  327MOL0     H44093   8.074   4.466   1.517 -0.4353  2.4926 -0.8220
  327MOL0     H44094   8.268   4.678   1.610  0.5320 -1.3278 -0.1669
  327MOL0     H44095   8.126   4.708   1.511 -2.5018 -2.5977  1.5780
  327MOL0     H44096   8.128   4.566   1.257 -0.9499 -2.4716  1.6642
  327MOL0     H44097   8.300   4.477   1.010 -0.6833  1.9058 -3.2537
  327MOL0     H44098   8.254   4.650   1.006  0.0667  2.4764  0.7885
  327MOL0     H44099   8.545   4.545   1.023  0.3308 -2.9807 -1.5975
  327MOL0     H44100   8.488   4.715   0.991 -1.8447  0.2985 -1.4890
  327MOL0     H44101   8.378   4.578   0.771  0.1486 -0.3655 -1.3907
  327MOL0     H44102   8.470   4.448   0.838  1.0742 -0.0424 -3.6918
  327MOL0     H44103   8.560   4.719   0.751  1.1045 -0.4738  0.7875
  327MOL0     H44104   8.563   4.568   0.656 -2.8901 -0.2113 -0.5053
  327MOL0     H44105   8.933   4.544   0.883  1.7961 -1.1278 -0.6635
  327MOL0     H44106   9.244   4.507   0.749 -1.2533  0.1359 -1.1173
  327MOL0     H44107   9.248   4.666   0.835  2.1080 -1.8649  1.1429
  327MOL0     H44108   9.165   4.537   0.902  2.6704  1.6786  1.3544
  327MOL0     H44109   9.382   4.763   0.265 -0.2356 -0.4039 -0.9803
  327MOL0     H44110   9.556   4.905   0.202 -0.6302  0.0908 -1.6436
  327MOL0     H44111   9.537   5.342   0.295  1.2813  0.5133 -1.2660
  327MOL0     H44112   9.570   5.257   0.442 -1.2034 -0.3105 -0.3926
  327MOL0     H44113   9.820   5.244   0.406  1.1391  2.5110  1.1027
  327MOL0     H44114   9.794   5.289   0.233 -3.8689  3.4360 -2.1043
  327MOL0     H44115   9.757   5.432   0.499  0.5296  1.5376  0.0152
  327MOL0     H44116   9.691   5.498   0.344  0.1112  2.8693  2.4577
  327MOL0     H44117   9.981   5.431   0.398 -2.1390 -1.4893 -0.9251
  327MOL0     H44118   9.915   5.513   0.252 -1.5611 -0.8450 -0.7041
  327MOL0     H44119   9.895   5.655   0.511 -1.2368 -1.5251  0.3716
  327MOL0     H44120   9.872   5.711   0.345  2.5205  0.4506 -2.3293
  327MOL0     H44121  10.141   5.615   0.438  1.9234  1.3872  0.7370
  327MOL0     H44122  10.104   5.688   0.282  1.7200 -0.0306 -0.0631
  327MOL0     H44123  10.008   5.880   0.447  0.3247  0.3561  0.5004
  327MOL0     H44124  10.189   5.872   0.394  1.5690 -0.1533  2.2304
  327MOL0     H44125  10.105   5.742   0.645  2.0348 -3.1309 -2.1572
  327MOL0     H44126  10.141   5.925   0.637  1.4555  0.6355 -1.6540
  327MOL0     H44127   9.370   5.241   0.400 -1.3873  0.3032 -3.0053
  327MOL0     H44128   9.185   5.097   0.477 -0.4266 -2.8351 -0.7018
  327MOL0     H44129   8.945   4.769   0.453  0.2678  0.9638  1.1177
  327MOL0     H44130   8.723   4.709   0.563 -0.5226 -2.4500 -0.9646
  327MOL0     H44131   7.679   4.554   2.297 -0.2137  0.0853 -0.8143
  327MOL0     H44132   7.620   4.506   2.545  1.3719 -1.6062 -1.1234
  327MOL0     H44133   7.328   4.674   2.919 -3.1668  0.3843  0.3985
  327MOL0     H44134   7.278   4.621   3.155  3.2954  0.0732 -1.3236
  327MOL0     H44135   7.140   4.402   3.407 -2.1315 -1.2405  0.2356
  327MOL0     H44136   7.207   4.535   3.318 -1.9757  1.0887 -0.1073
  327MOL0     H44137   6.996   4.551   3.192 -1.1534 -1.4553 -0.9730
  327MOL0     H44138   6.990   4.600   3.360  0.3380  1.7067 -1.3441
  327MOL0     H44139   6.787   4.477   3.322 -0.2168  0.8131  2.3857
  327MOL0     H44140   6.902   4.353   3.394 -1.3102  0.0198  0.2264
  327MOL0     H44141   6.929   4.235   3.192 -1.1868 -1.0718 -0.2785
  327MOL0     H44142   6.902   4.382   3.093  1.1977 -0.2186  0.9058
  327MOL0     H44143   6.522   4.207   3.132  0.9165 -0.6014  0.2768
  327MOL0     H44144   7.194   4.211   3.032 -1.5050  0.0262 -1.2129
  327MOL0     H44145   7.289   4.259   2.795  0.1390  1.5918 -1.6786
  328MOL0     O44146   0.165   3.744   5.736  0.3185  0.1154 -0.9013
  328MOL0     C44147   0.067   3.693   5.787  0.1552  0.0893 -0.5739
  328MOL0     O44148   0.008   3.573   5.748 -0.0821  0.3434 -0.2675
  328MOL0     C44149   0.041   3.502   5.633  0.0837 -0.1152  0.0144
  328MOL0     C44150   0.118   3.549   5.528 -0.2519  0.4627 -0.0290
  328MOL0     C44151   0.104   3.479   5.400  0.5426 -0.6609 -0.0951
  328MOL0     C44152   0.009   3.382   5.383  0.0377  0.3688 -0.7772
  328MOL0     O44153  -0.011   3.333   5.258 -0.0963  1.0951 -0.4269
  328MOL0     C44154   0.061   3.211   5.241  0.8861  0.3109  0.0128
  328MOL0     C44155  -0.005   3.132   5.138 -0.6996  1.1869 -0.4785
  328MOL0     C44156  -0.120   3.044   5.186 -0.4951  0.6621 -0.5666
  328MOL0     C44157  -0.081   2.920   5.261 -0.2826 -0.5851 -0.2522
  328MOL0     C44158  -0.210   2.839   5.298  0.5552  0.0804 -0.6518
  328MOL0     C44159  -0.186   2.719   5.381  0.0013  0.3710 -0.4154
  328MOL0     C44160  -0.299   2.623   5.374  0.6506  0.3049 -0.5713
  328MOL0     C44161  -0.288   2.508   5.472 -0.2452 -0.7093  0.7391
  328MOL0     N44162  -0.388   2.406   5.466  0.6004  0.0955  1.6670
  328MOL0     C44163  -0.496   2.399   5.555  0.1979 -0.3603 -0.7201
  328MOL0     C44164  -0.564   2.291   5.519  0.1155  0.4499  0.0727
  328MOL0     C44165  -0.680   2.228   5.599  0.0137  0.2698  0.5689
  328MOL0     C44166  -0.621   2.123   5.682 -0.5835  0.5192  0.1951
  328MOL0     C44167  -0.716   2.032   5.746  0.7312  0.2976  0.1980
  328MOL0     C44168  -0.649   1.928   5.832  0.8186  0.4890 -0.6666
  328MOL0     O44169  -0.747   1.837   5.871  0.0129  0.2602  0.1166
  328MOL0     C44170  -0.724   1.759   5.975  0.6616 -0.0437  0.1152
  328MOL0     C44171  -0.628   1.655   5.990  0.5119 -0.0100  0.3556
  328MOL0     C44172  -0.626   1.576   6.105  0.0257  0.2626 -0.4235
  328MOL0     C44173  -0.540   1.448   6.109  1.2604  0.2229  0.5769
  328MOL0     C44174  -0.701   1.608   6.215 -0.1871 -0.1892  0.3011
  328MOL0     C44175  -0.714   1.524   6.332 -0.9634 -0.2368  0.0564
  328MOL0     O44176  -0.603   1.483   6.394 -0.0346 -0.6787  0.0226
  328MOL0     C44177  -0.626   1.401   6.497  0.6174 -1.0828  0.1219
  328MOL0     C44178  -0.615   1.262   6.485 -0.0565  0.1170 -0.5732
  328MOL0     C44179  -0.638   1.171   6.594  0.2209 -0.4035  1.1211
  328MOL0     C44180  -0.659   1.220   6.722 -0.4209 -0.5602  0.1316
  328MOL0     O44181  -0.666   1.140   6.829  0.3201 -0.0831  0.0819
  328MOL0     C44182  -0.600   1.192   6.945 -0.5385 -0.5761 -0.2580
  328MOL0     C44183  -0.548   1.091   7.041  0.5908  0.6806  0.1485
  328MOL0     C44184  -0.658   1.007   7.103  0.2329 -0.3401  0.6614
  328MOL0     C44185  -0.591   0.897   7.181  0.2280 -0.5542  0.4792
  328MOL0     C44186  -0.682   0.785   7.230  0.2344 -0.0300 -0.3470
  328MOL0     C44187  -0.629   0.711   7.347  0.6616  0.3733  0.2179
  328MOL0     C44188  -0.726   0.593   7.384  0.5891  0.1202 -0.1695
  328MOL0     C44189  -0.727   0.579   7.536  0.1545 -0.4511  0.0739
  328MOL0    Cl44190  -0.863   0.487   7.570 -0.1254 -0.1924 -0.4619
  328MOL0     C44191  -0.681   1.362   6.737  1.1931  0.2970  0.2163
  328MOL0     C44192  -0.665   1.454   6.627 -0.0549  0.0422 -1.1785
  328MOL0     O44193  -0.826   1.484   6.360 -0.1584 -0.2463 -0.0497
  328MOL0     C44194  -0.786   1.715   6.202  0.0321  0.7067  0.2660
  328MOL0     C44195  -0.795   1.794   6.089  0.2315  0.9656  0.0193
  328MOL0     N44196  -0.498   2.228   5.407 -0.0905 -0.3136 -0.1453
  328MOL0     N44197  -0.394   2.298   5.373 -0.4623  0.8270 -0.1381
  328MOL0     C44198  -0.061   3.333   5.493  0.0990 -0.0786 -0.4871
  328MOL0     C44199  -0.042   3.387   5.616 -0.0500 -0.7165  0.4682
  328MOL0     C44200   0.017   3.759   5.913 -0.3039  0.0033 -0.2187
  328MOL0     C44201   0.035   3.899   5.939 -0.6811 -0.3268 -1.4025
  328MOL0     C44202  -0.012   3.953   6.060  0.4089 -0.2954  0.5714
  328MOL0     C44203  -0.078   3.872   6.155  0.1460 -0.0612 -0.2651
  328MOL0     O44204  -0.107   3.917   6.281 -0.3462  0.7257 -1.0854
  328MOL0     C44205  -0.028   4.022   6.351  1.2268 -0.0323  0.9151
  328MOL0     C44206   0.085   3.957   6.432  0.5870  0.2765  0.9111
  328MOL0     C44207   0.217   3.910   6.365 -0.6195  0.5444 -0.2837
  328MOL0     C44208   0.285   4.030   6.304  0.1882  0.0052 -0.0653
  328MOL0     C44209   0.332   4.007   6.167  0.6127  0.2780  0.3038
  328MOL0     C44210   0.365   3.990   6.050 -0.3813 -0.0273  0.3380
  328MOL0     C44211  -0.097   3.739   6.124  0.4830 -0.2051 -0.6984
  328MOL0     C44212  -0.060   3.680   6.001 -0.1999 -0.3211  0.1078
  328MOL0     H44213   0.183   3.635   5.541  1.9452 -1.2269  0.5954
  328MOL0     H44214   0.162   3.512   5.314  1.1495 -2.0570 -0.2515
  328MOL0     H44215   0.167   3.231   5.219  1.2418  0.7995  2.0184
  328MOL0     H44216   0.068   3.151   5.332  3.1729 -0.6729 -0.7251
  328MOL0     H44217  -0.028   3.193   5.050  1.5235 -0.0657 -2.0374
  328MOL0     H44218   0.072   3.068   5.093 -0.2414  0.0146  1.8158
  328MOL0     H44219  -0.175   3.115   5.248  1.4474  2.1323 -0.4176
  328MOL0     H44220  -0.167   3.003   5.096  0.4972 -3.7783  0.7006
  328MOL0     H44221  -0.012   2.858   5.204  1.2722 -0.6162  1.5510
  328MOL0     H44222  -0.030   2.947   5.354 -0.5994  1.7058 -0.7051
  328MOL0     H44223  -0.273   2.908   5.354  0.0269 -1.8009  1.1820
  328MOL0     H44224  -0.254   2.805   5.204 -5.0908 -1.3091  2.1090
  328MOL0     H44225  -0.091   2.668   5.360 -0.4586  0.4715 -2.9352
  328MOL0     H44226  -0.171   2.748   5.486 -0.5655 -0.9793  0.0624
  328MOL0     H44227  -0.392   2.677   5.396 -1.0848 -2.1869 -1.3737
  328MOL0     H44228  -0.321   2.590   5.272  0.3217  3.6715 -1.7089
  328MOL0     H44229  -0.306   2.561   5.566 -0.2459 -1.7309  1.3277
  328MOL0     H44230  -0.185   2.475   5.461  0.8771  2.3871  1.0660
  328MOL0     H44231  -0.527   2.466   5.634 -1.0362 -3.2627  1.4174
  328MOL0     H44232  -0.744   2.301   5.649  1.1983  1.0450  1.0000
  328MOL0     H44233  -0.746   2.190   5.520  0.2259  0.5722  0.2418
  328MOL0     H44234  -0.565   2.168   5.764 -1.8956 -0.8562  1.9264
  328MOL0     H44235  -0.556   2.065   5.614  0.1370  2.3414 -0.7326
  328MOL0     H44236  -0.779   1.973   5.678  0.4929 -0.0670  0.7229
  328MOL0     H44237  -0.790   2.083   5.809 -0.8434 -1.7427  0.1100
  328MOL0     H44238  -0.605   1.972   5.922 -1.8174  2.3958 -0.2013
  328MOL0     H44239  -0.575   1.873   5.773  0.8041 -1.8490  1.3588
  328MOL0     H44240  -0.565   1.637   5.904  2.3612 -2.9346  2.1311
  328MOL0     H44241  -0.525   1.412   6.007 -2.0960 -0.6989  0.3083
  328MOL0     H44242  -0.446   1.465   6.162  0.7630  1.7072  1.0191
  328MOL0     H44243  -0.589   1.361   6.155 -0.1800 -0.3240 -1.8279
  328MOL0     H44244  -0.578   1.218   6.392  0.8135  1.0423 -0.6835
  328MOL0     H44245  -0.619   1.065   6.587  0.5152 -0.2472 -1.4095
  328MOL0     H44246  -0.518   1.253   6.906 -1.1765 -1.7441 -3.7525
  328MOL0     H44247  -0.661   1.263   7.002  1.1723  0.7205  0.0478
  328MOL0     H44248  -0.475   1.029   6.988  2.0519  4.2914 -2.5272
  328MOL0     H44249  -0.490   1.146   7.115 -0.5932  2.3792 -0.1053
  328MOL0     H44250  -0.723   0.956   7.031 -2.8889 -1.3835  3.9591
  328MOL0     H44251  -0.727   1.052   7.175 -0.0564  2.4601 -1.2172
  328MOL0     H44252  -0.528   0.834   7.118 -0.6042 -1.5095  0.5808
  328MOL0     H44253  -0.531   0.951   7.255  1.0594  2.9382 -2.4813
  328MOL0     H44254  -0.675   0.712   7.149  0.3605 -0.6215  0.1951
  328MOL0     H44255  -0.786   0.821   7.226 -0.9130 -3.1092 -3.0326
  328MOL0     H44256  -0.535   0.661   7.323 -0.8401 -1.8556 -1.3788
  328MOL0     H44257  -0.618   0.774   7.436 -0.0236 -0.5082  0.9513
  328MOL0     H44258  -0.704   0.502   7.328 -0.0554  1.3166 -2.4675
  328MOL0     H44259  -0.826   0.619   7.348  1.6165  0.5556 -2.9300
  328MOL0     H44260  -0.750   0.675   7.583 -0.5114 -0.0436 -1.0590
  328MOL0     H44261  -0.637   0.543   7.587  0.4503  1.5820  1.0689
  328MOL0     H44262  -0.712   1.406   6.831  0.1816  0.0379  0.0137
  328MOL0     H44263  -0.683   1.561   6.638  3.9343  0.8142 -0.6431
  328MOL0     H44264  -0.838   1.752   6.290  2.4490  2.0489  1.2191
  328MOL0     H44265  -0.855   1.882   6.064 -2.1828 -0.4417  0.4762
  328MOL0     H44266  -0.135   3.254   5.487  1.5515 -1.4111 -1.6794
  328MOL0     H44267  -0.107   3.352   5.696 -1.5876  0.5602 -0.1597
  328MOL0     H44268   0.081   3.958   5.861  1.9052 -1.1141 -0.5776
  328MOL0     H44269  -0.002   4.061   6.069 -2.1421 -0.0684  1.5441
  328MOL0     H44270   0.007   4.085   6.268 -2.3464 -1.4801 -2.0112
  328MOL0     H44271  -0.091   4.085   6.415  2.2456  1.5795  0.4032
  328MOL0     H44272   0.037   3.870   6.478 -0.8088  0.1692 -0.6415
  328MOL0     H44273   0.121   4.026   6.508  2.6874  0.7889 -0.4596
  328MOL0     H44274   0.200   3.844   6.280  3.4333  1.0864 -1.7051
  328MOL0     H44275   0.279   3.863   6.442  1.1668  0.2683 -1.8337
  328MOL0     H44276   0.369   4.068   6.363  1.5068 -1.7830 -0.7039
  328MOL0     H44277   0.215   4.114   6.316 -0.5833 -0.1378 -2.8340
  328MOL0     H44278   0.393   3.971   5.948  1.6909  0.7690  0.7268
  328MOL0     H44279  -0.148   3.671   6.192 -1.9638  2.5373  0.4247
  328MOL0     H44280  -0.090   3.577   5.985 -0.8091 -0.0048 -0.8606
  329MOL0     O44281   4.525   3.218   4.809 -0.1599  0.4310  0.0072
  329MOL0     C44282   4.467   3.111   4.832 -0.4719 -0.2498 -0.9403
  329MOL0     O44283   4.470   3.057   4.957 -0.6469  0.0483  0.4187
  329MOL0     C44284   4.596   3.018   5.005  0.5046  0.0400  0.2948
  329MOL0     C44285   4.603   2.973   5.137 -0.2380 -0.6747 -0.2962
  329MOL0     C44286   4.712   2.932   5.198  0.1258  0.5465 -0.3727
  329MOL0     C44287   4.834   2.939   5.127  1.0314 -0.3388  1.0609
  329MOL0     O44288   4.947   2.888   5.178  0.3335 -0.7802 -0.0751
  329MOL0     C44289   5.029   2.994   5.209 -0.2413 -0.2704  0.3184
  329MOL0     C44290   5.017   3.028   5.351  0.7484  1.4724 -0.5774
  329MOL0     C44291   5.097   3.147   5.393  0.9033  0.2937 -0.2826
  329MOL0     C44292   5.249   3.148   5.359 -0.3403  0.0345  0.5034
  329MOL0     C44293   5.322   3.253   5.427 -0.4143 -0.0857  0.2787
  329MOL0     C44294   5.480   3.216   5.414  0.1515 -0.0735 -0.6153
  329MOL0     C44295   5.569   3.318   5.485 -0.0297  0.1606 -0.5059
  329MOL0     C44296   5.602   3.437   5.389  0.3783  0.4415  0.3083
  329MOL0     N44297   5.509   3.550   5.395 -1.1240 -0.2808 -0.6280
  329MOL0     C44298   5.485   3.642   5.293  0.0391 -0.2471  0.4585
  329MOL0     C44299   5.381   3.712   5.341 -0.0538  0.5073 -0.3158
  329MOL0     C44300   5.306   3.818   5.268 -0.5541  0.1507 -0.9000
  329MOL0     C44301   5.380   3.945   5.270 -0.9591  0.3004 -0.3003
  329MOL0     C44302   5.391   4.001   5.410 -0.2238 -0.3005 -0.7423
  329MOL0     C44303   5.266   4.073   5.466 -0.4374  0.3782 -0.6473
  329MOL0     O44304   5.322   4.144   5.579  0.4856  0.6721  0.1546
  329MOL0     C44305   5.248   4.208   5.667  0.3913  0.2406  0.3798
  329MOL0     C44306   5.117   4.253   5.639  0.0579  0.3680  0.8567
  329MOL0     C44307   5.059   4.352   5.715  1.2487  0.1746 -0.5400
  329MOL0     C44308   4.928   4.397   5.678  0.3573  0.6335  0.3802
  329MOL0     C44309   5.122   4.381   5.840 -0.4632 -0.5930 -0.1251
  329MOL0     C44310   5.057   4.459   5.948  0.5460 -0.6261 -0.0465
  329MOL0     O44311   5.116   4.464   6.073  0.7560  0.1160  0.2833
  329MOL0     C44312   5.072   4.536   6.176 -0.5189  0.0637  0.7607
  329MOL0     C44313   5.160   4.604   6.253  0.1712 -0.2610 -0.2920
  329MOL0     C44314   5.114   4.675   6.363 -0.5187 -0.5783 -0.4505
  329MOL0     C44315   4.979   4.713   6.383 -0.9216  0.2970  0.0845
  329MOL0     O44316   4.939   4.785   6.488 -0.2567  0.0222 -0.4808
  329MOL0     C44317   4.868   4.902   6.459  0.2429  0.8168 -0.1068
  329MOL0     C44318   4.842   5.002   6.571  0.4072 -0.2246 -0.2701
  329MOL0     C44319   4.731   5.103   6.523 -0.9015  0.6694 -0.7264
  329MOL0     C44320   4.659   5.161   6.645 -0.0387  0.0409 -0.5767
  329MOL0     C44321   4.571   5.288   6.615 -0.0432 -0.1192 -0.9929
  329MOL0     C44322   4.638   5.402   6.537  0.1394 -0.3781 -0.4755
  329MOL0     C44323   4.541   5.523   6.527 -0.4914 -0.0182 -0.7953
  329MOL0     C44324   4.592   5.621   6.421  0.5090 -0.7628  0.6630
  329MOL0    Cl44325   4.464   5.736   6.407  0.1947 -0.4002 -0.1653
  329MOL0     C44326   4.892   4.646   6.303  0.4126  0.7734  1.0503
  329MOL0     C44327   4.931   4.558   6.202 -0.5400 -1.0789 -0.7393
  329MOL0     O44328   4.968   4.539   5.922 -0.3324  0.4417  0.3823
  329MOL0     C44329   5.244   4.318   5.875  0.6347 -0.2855 -0.6353
  329MOL0     C44330   5.312   4.242   5.785  0.2668 -0.0648 -0.3322
  329MOL0     N44331   5.347   3.661   5.467 -0.7806  0.6251 -0.4709
  329MOL0     N44332   5.436   3.575   5.505  0.1369 -0.1760  1.2164
  329MOL0     C44333   4.841   2.975   4.986 -0.7181  0.2330 -0.6184
  329MOL0     C44334   4.720   3.009   4.928 -0.6504 -0.0861  0.3411
  329MOL0     C44335   4.381   3.057   4.731 -0.7328  0.0164 -0.4344
  329MOL0     C44336   4.314   2.939   4.752 -0.2618  0.7414  0.3270
  329MOL0     C44337   4.234   2.881   4.653 -0.1314  0.0869 -0.4401
  329MOL0     C44338   4.223   2.942   4.525  0.0744  0.6144  0.0412
  329MOL0     O44339   4.138   2.897   4.426 -0.1640  0.0298 -0.1450
  329MOL0     C44340   4.039   2.792   4.447 -0.5262 -0.4348  0.4782
  329MOL0     C44341   3.915   2.846   4.507 -0.4146  0.0747 -0.5638
  329MOL0     C44342   3.789   2.765   4.497 -0.6451  0.1439 -0.7609
  329MOL0     C44343   3.807   2.649   4.601 -0.3438 -0.3599  0.6656
  329MOL0     C44344   3.687   2.569   4.600 -0.1743 -0.5573  0.3759
  329MOL0     C44345   3.587   2.500   4.611 -0.0950 -0.3376  0.4138
  329MOL0     C44346   4.281   3.067   4.506  0.2415 -0.0371  0.8898
  329MOL0     C44347   4.360   3.125   4.607  0.7842 -0.0288 -0.7114
  329MOL0     H44348   4.511   2.978   5.195  0.1529  3.8195  0.2817
  329MOL0     H44349   4.721   2.894   5.299  2.3375  2.1305  0.0924
  329MOL0     H44350   5.134   2.977   5.183 -0.2945 -0.0444 -0.0495
  329MOL0     H44351   5.003   3.082   5.149  0.9331 -1.3873 -1.9777
  329MOL0     H44352   4.910   3.037   5.368  0.5976  0.3523 -0.9122
  329MOL0     H44353   5.064   2.942   5.400 -0.8939  0.0406 -1.4234
  329MOL0     H44354   5.041   3.225   5.341 -1.6468 -0.9237  0.4776
  329MOL0     H44355   5.078   3.153   5.500  2.1370 -1.9985  0.1226
  329MOL0     H44356   5.278   3.048   5.393 -2.8404  0.1110  3.2903
  329MOL0     H44357   5.257   3.163   5.251 -1.9813 -0.2292  0.3067
  329MOL0     H44358   5.297   3.353   5.389  0.6884 -0.2505 -0.9213
  329MOL0     H44359   5.297   3.248   5.534  0.7612 -2.2792  0.4979
  329MOL0     H44360   5.486   3.114   5.453 -1.1079 -0.7124 -2.0063
  329MOL0     H44361   5.506   3.208   5.308  2.4782 -0.1875 -0.0947
  329MOL0     H44362   5.515   3.356   5.572 -1.5998 -0.4369 -1.1711
  329MOL0     H44363   5.665   3.272   5.510 -0.8841 -2.7079 -2.0509
  329MOL0     H44364   5.604   3.406   5.284  0.5375 -0.7779  0.6475
  329MOL0     H44365   5.701   3.460   5.429  0.6820 -2.7721  1.7583
  329MOL0     H44366   5.530   3.650   5.195 -3.5790  0.2833 -1.3346
  329MOL0     H44367   5.281   3.795   5.165 -0.1960 -0.7461 -0.7971
  329MOL0     H44368   5.204   3.831   5.305 -0.8879 -0.0663 -1.7294
  329MOL0     H44369   5.330   4.023   5.213  2.5826  1.1228 -2.6580
  329MOL0     H44370   5.481   3.936   5.228 -0.4577 -2.8816  1.2390
  329MOL0     H44371   5.465   4.081   5.403  1.2822 -1.6941 -1.2670
  329MOL0     H44372   5.427   3.924   5.478  0.3783  0.3101 -0.3570
  329MOL0     H44373   5.183   4.004   5.479  2.4316 -3.8187 -2.3643
  329MOL0     H44374   5.226   4.154   5.404 -1.6520 -1.5720 -2.5802
  329MOL0     H44375   5.074   4.228   5.542 -0.5357  1.1814  0.9066
  329MOL0     H44376   4.857   4.365   5.755 -1.3054 -0.3568 -1.4534
  329MOL0     H44377   4.912   4.505   5.670  0.6802  0.5496 -2.0717
  329MOL0     H44378   4.905   4.345   5.584  0.2067 -0.7230  1.1388
  329MOL0     H44379   5.262   4.608   6.214  0.8677 -1.2424  1.3300
  329MOL0     H44380   5.186   4.722   6.430 -1.6187  1.8788 -0.8913
  329MOL0     H44381   4.925   4.954   6.382  0.4366 -2.4659 -2.3895
  329MOL0     H44382   4.772   4.867   6.420 -0.0782  1.7651 -0.2073
  329MOL0     H44383   4.823   4.949   6.665 -0.9850  0.6228 -0.0458
  329MOL0     H44384   4.932   5.063   6.583  0.8173 -1.0772  1.4702
  329MOL0     H44385   4.663   5.040   6.464  1.5436 -0.9003 -2.0264
  329MOL0     H44386   4.768   5.177   6.452 -2.1714  1.2626 -0.7939
  329MOL0     H44387   4.586   5.092   6.689  1.8683 -0.6944  1.6024
  329MOL0     H44388   4.734   5.175   6.723 -0.3314 -0.4653 -0.2022
  329MOL0     H44389   4.554   5.340   6.710 -0.8884 -0.7352 -0.7956
  329MOL0     H44390   4.475   5.267   6.567 -0.5460 -0.8215  0.2631
  329MOL0     H44391   4.738   5.419   6.578 -0.2562 -0.4294  0.5274
  329MOL0     H44392   4.657   5.365   6.436  0.9151 -0.1934 -0.4009
  329MOL0     H44393   4.543   5.578   6.621 -0.8028 -2.3119  0.6222
  329MOL0     H44394   4.440   5.489   6.506 -1.5932  0.8327  2.5975
  329MOL0     H44395   4.593   5.566   6.327 -0.4207  0.4077 -0.0621
  329MOL0     H44396   4.692   5.662   6.439  1.3009 -2.5079  0.4104
  329MOL0     H44397   4.785   4.660   6.320  0.1658  1.5586 -0.8614
  329MOL0     H44398   4.869   4.495   6.140 -0.6468 -0.1924 -1.5568
  329MOL0     H44399   5.297   4.356   5.961 -0.9239  2.8287 -0.8978
  329MOL0     H44400   5.401   4.187   5.812 -0.4086 -2.2542 -2.2593
  329MOL0     H44401   4.935   2.991   4.934 -0.4140  0.2013 -0.0821
  329MOL0     H44402   4.731   3.039   4.824 -0.0061 -0.6995  0.2206
  329MOL0     H44403   4.341   2.882   4.841  1.2634  0.5054 -0.2596
  329MOL0     H44404   4.206   2.779   4.676 -1.8212 -0.4683 -4.2868
  329MOL0     H44405   4.014   2.761   4.345  2.1630  2.0517 -1.0755
  329MOL0     H44406   4.073   2.706   4.506  1.8005  0.5633  0.7226
  329MOL0     H44407   3.899   2.932   4.441  0.6093  2.0529  1.6473
  329MOL0     H44408   3.935   2.885   4.607 -0.1656  0.5073 -0.7812
  329MOL0     H44409   3.781   2.738   4.392 -0.1203  2.0606 -1.3173
  329MOL0     H44410   3.704   2.828   4.526 -1.4956 -0.9251 -0.8398
  329MOL0     H44411   3.837   2.684   4.700 -0.1222  1.5685 -0.0350
  329MOL0     H44412   3.887   2.586   4.562  0.0827  0.4182  0.2526
  329MOL0     H44413   3.509   2.432   4.638  0.7383 -1.3239  0.3952
  329MOL0     H44414   4.266   3.118   4.412 -0.7096 -1.1707  0.4004
  329MOL0     H44415   4.409   3.222   4.598 -0.7385  0.8911  0.5319
  330MOL0     O44416   7.821  10.628  10.866  0.6172 -0.6477 -0.3626
  330MOL0     C44417   7.836  10.520  10.820  0.2783  0.3573 -0.6589
  330MOL0     O44418   7.747  10.431  10.775  0.6944 -0.5165 -0.2810
  330MOL0     C44419   7.610  10.453  10.788  0.1756 -0.4306 -1.0472
  330MOL0     C44420   7.538  10.504  10.678  0.9291  0.6201  1.0384
  330MOL0     C44421   7.405  10.545  10.696 -0.4251  0.6073 -0.2142
  330MOL0     C44422   7.334  10.522  10.813  0.0510  0.4312 -0.2494
  330MOL0     O44423   7.205  10.568  10.818  0.4976 -0.9135  0.2342
  330MOL0     C44424   7.124  10.531  10.929  0.0612  0.4641 -0.1663
  330MOL0     C44425   6.975  10.574  10.905 -0.3655  0.4171  0.7607
  330MOL0     C44426   6.949  10.719  10.916  0.2402 -0.5385  0.5081
  330MOL0     C44427   6.796  10.751  10.912 -0.8840 -0.3102  0.0148
  330MOL0     C44428   6.773  10.907  10.909  0.2190 -0.0337  0.3025
  330MOL0     C44429   6.750  10.937  11.054  0.4814 -0.1577  0.0457
  330MOL0     C44430   6.717  11.083  11.075  0.2147  0.1674 -0.1745
  330MOL0     C44431   6.654  11.102  11.216 -0.5419  0.4918 -0.3583
  330MOL0     N44432   6.613  11.242  11.236 -0.3554  0.3723 -0.1006
  330MOL0     C44433   6.494  11.294  11.211 -0.0897  0.5340  0.5617
  330MOL0     C44434   6.504  11.418  11.250  0.8182  0.1438  0.1256
  330MOL0     C44435   6.402  11.520  11.250 -0.7313 -0.2672  0.2156
  330MOL0     C44436   6.292  11.502  11.369  0.2250 -0.4136  0.4503
  330MOL0     C44437   6.278  11.640  11.440 -0.0779 -0.2320  0.9157
  330MOL0     C44438   6.165  11.628  11.542 -0.8501 -0.4125  0.2354
  330MOL0     O44439   6.046  11.649  11.450 -0.2221  0.4220 -0.3149
  330MOL0     C44440   5.931  11.684  11.507 -0.6041 -1.3083 -0.2685
  330MOL0     C44441   5.822  11.704  11.426 -0.3270 -0.0711 -1.2747
  330MOL0     C44442   5.698  11.740  11.481  0.3990  0.2721  0.1485
  330MOL0     C44443   5.577  11.738  11.384 -0.1565  0.3852  0.2626
  330MOL0     C44444   5.675  11.755  11.615 -0.4110 -0.6721 -0.0538
  330MOL0     C44445   5.545  11.797  11.673 -0.6291 -0.2243  0.2020
  330MOL0     O44446   5.525  11.777  11.805 -0.5943 -0.5587 -0.2483
  330MOL0     C44447   5.400  11.797  11.857 -0.0173  0.8326  0.0616
  330MOL0     C44448   5.333  11.688  11.905  1.4843 -1.0836  0.0298
  330MOL0     C44449   5.196  11.704  11.954  0.4442  0.8254 -0.5293
  330MOL0     C44450   5.135  11.834  11.957  0.1328  0.3870  0.0716
  330MOL0     O44451   5.011  11.839  12.008  0.0662  0.4970  0.1058
  330MOL0     C44452   4.936  11.954  11.986  0.1315 -1.1069  1.1190
  330MOL0     C44453   4.800  11.937  12.017  0.3116  0.3282 -0.4068
  330MOL0     C44454   4.710  12.048  11.956  0.2079 -0.7955  0.0460
  330MOL0     C44455   4.566  11.994  11.950 -0.8175  0.3544  0.3879
  330MOL0     C44456   4.468  12.104  11.890 -1.1728  0.3447 -0.4253
  330MOL0     C44457   4.333  12.031  11.875 -0.0075 -0.6938 -0.2521
  330MOL0     C44458   4.213  12.123  11.828 -0.4380 -0.9744 -0.1528
  330MOL0     C44459   4.227  12.174  11.676  0.3365 -0.0355  0.0847
  330MOL0    Cl44460   4.247  12.022  11.584 -0.1529 -0.2575  0.0596
  330MOL0     C44461   5.211  11.947  11.917 -0.1189 -0.4248  0.4541
  330MOL0     C44462   5.342  11.928  11.874 -0.1597  0.4636 -0.1281
  330MOL0     O44463   5.452  11.839  11.599 -0.6011  0.0349 -0.3282
  330MOL0     C44464   5.785  11.735  11.696 -0.0525 -0.2882 -0.5766
  330MOL0     C44465   5.910  11.695  11.643 -0.3599 -0.9792  0.2338
  330MOL0     N44466   6.631  11.458  11.273 -0.2278  0.7948  0.1709
  330MOL0     N44467   6.701  11.347  11.264  0.3411  0.5964  0.4127
  330MOL0     C44468   7.402  10.453  10.915  0.7667 -0.9137 -0.2611
  330MOL0     C44469   7.541  10.420  10.912 -0.0023  0.4847 -0.7383
  330MOL0     C44470   7.979  10.483  10.784  0.3011  0.1651  0.0584
  330MOL0     C44471   8.088  10.567  10.808  0.0983  0.4067 -0.0152
  330MOL0     C44472   8.219  10.524  10.796  0.3987  0.7980  1.0967
  330MOL0     C44473   8.243  10.396  10.759  0.8544  0.3211  0.7601
  330MOL0     O44474   8.369  10.337  10.743 -0.7303  0.2362  0.1116
  330MOL0     C44475   8.484  10.421  10.704  0.8562 -0.5720 -1.0994
  330MOL0     C44476   8.608  10.333  10.684 -0.3570  0.7651  0.3287
  330MOL0     C44477   8.584  10.210  10.588  0.2749 -0.5579  0.0595
  330MOL0     C44478   8.706  10.119  10.576  0.1749 -1.2337 -0.4160
  330MOL0     C44479   8.655   9.989  10.538  0.4531 -0.1697  1.1571
  330MOL0     C44480   8.604   9.886  10.502  0.1878 -0.3796  1.3501
  330MOL0     C44481   8.137  10.309  10.734  1.1357  0.6735  0.0481
  330MOL0     C44482   8.004  10.344  10.746 -0.2885 -1.0757 -0.1019
  330MOL0     H44483   7.590  10.523  10.585 -0.1956  2.4754  0.7454
  330MOL0     H44484   7.351  10.589  10.612  0.7496 -2.5875 -2.8713
  330MOL0     H44485   7.132  10.423  10.947 -1.6194  0.2436 -0.5896
  330MOL0     H44486   7.151  10.576  11.024 -1.6028 -1.0578  1.0935
  330MOL0     H44487   6.943  10.543  10.805 -1.0242 -0.3781  1.2076
  330MOL0     H44488   6.914  10.522  10.979 -1.6010 -1.2315 -1.2902
  330MOL0     H44489   6.999  10.749  11.008  1.6319 -0.7219 -0.1729
  330MOL0     H44490   6.999  10.762  10.829 -0.0337 -0.2241  0.4999
  330MOL0     H44491   6.745  10.721  10.820 -1.1700  2.9256 -1.0146
  330MOL0     H44492   6.758  10.695  10.999  2.3428 -1.1477  1.0165
  330MOL0     H44493   6.858  10.966  10.874 -0.5482 -0.1173 -1.8625
  330MOL0     H44494   6.683  10.925  10.849 -0.7095 -2.3474  0.9103
  330MOL0     H44495   6.667  10.881  11.097 -0.7309  1.5459  0.0238
  330MOL0     H44496   6.841  10.902  11.105 -0.2082 -2.5509 -0.2455
  330MOL0     H44497   6.807  11.146  11.076  0.4084 -0.0672  1.8686
  330MOL0     H44498   6.653  11.115  10.993  0.3252 -0.6937 -0.5984
  330MOL0     H44499   6.736  11.074  11.282  1.3752  4.8369 -0.5597
  330MOL0     H44500   6.560  11.047  11.216 -0.8920  1.0525 -1.5455
  330MOL0     H44501   6.401  11.253  11.173  0.6400  0.7549 -1.5833
  330MOL0     H44502   6.461  11.612  11.260  0.3599 -0.6297 -2.3204
  330MOL0     H44503   6.351  11.527  11.154 -1.4784  1.4686  0.6889
  330MOL0     H44504   6.320  11.423  11.439  0.3953  0.1615  1.0417
  330MOL0     H44505   6.190  11.472  11.342  1.0054 -4.2839  1.1914
  330MOL0     H44506   6.263  11.721  11.369 -0.0222 -1.3775 -0.4524
  330MOL0     H44507   6.368  11.664  11.497 -1.3546  1.6519  2.2782
  330MOL0     H44508   6.170  11.721  11.599  1.6121  0.6196 -1.4658
  330MOL0     H44509   6.172  11.531  11.592 -1.9919 -1.1918 -1.0373
  330MOL0     H44510   5.852  11.697  11.322  1.8601 -1.0069 -0.6287
  330MOL0     H44511   5.502  11.668  11.421 -1.1046  1.6019  0.6948
  330MOL0     H44512   5.542  11.840  11.370  0.2868  0.5659  0.4499
  330MOL0     H44513   5.603  11.698  11.286  0.8999 -0.3002  0.7911
  330MOL0     H44514   5.380  11.591  11.895  0.7017 -1.5599  0.8356
  330MOL0     H44515   5.155  11.614  11.998  2.6920 -0.1149 -0.2598
  330MOL0     H44516   4.975  12.037  12.046 -0.6802 -0.5093  0.8331
  330MOL0     H44517   4.939  11.986  11.882 -0.2139 -1.3565  1.0301
  330MOL0     H44518   4.767  11.839  11.981  0.6359 -0.4016  1.1956
  330MOL0     H44519   4.770  11.929  12.122  0.7790 -2.9463 -0.4137
  330MOL0     H44520   4.734  12.090  11.858 -3.4160 -0.2496 -0.7630
  330MOL0     H44521   4.714  12.130  12.028  0.9066 -0.0149 -0.8569
  330MOL0     H44522   4.554  11.901  11.895 -0.9431  0.6410 -0.0774
  330MOL0     H44523   4.534  11.968  12.051  3.0071 -4.1397  0.7823
  330MOL0     H44524   4.501  12.137  11.791 -0.7635  0.4615 -0.2528
  330MOL0     H44525   4.469  12.193  11.954  0.1450 -0.5899  0.9111
  330MOL0     H44526   4.347  11.946  11.808 -1.1390  1.5379 -3.5832
  330MOL0     H44527   4.310  11.980  11.969  1.8289 -1.0749  0.0329
  330MOL0     H44528   4.217  12.218  11.882 -0.2380 -0.1254 -1.5899
  330MOL0     H44529   4.125  12.066  11.858 -0.3041 -0.0436  2.1750
  330MOL0     H44530   4.308  12.244  11.654  2.3832 -1.5294  2.3586
  330MOL0     H44531   4.142  12.230  11.635  1.3144  2.8736  1.8051
  330MOL0     H44532   5.179  12.051  11.917 -1.2921 -0.7743  0.8071
  330MOL0     H44533   5.398  12.015  11.839  1.4818 -1.1646 -1.8269
  330MOL0     H44534   5.754  11.729  11.800 -1.8346  1.1274 -0.9816
  330MOL0     H44535   5.986  11.697  11.719 -0.1521  0.0256  0.0145
  330MOL0     H44536   7.351  10.439  11.009  0.8153 -0.7135 -0.2060
  330MOL0     H44537   7.594  10.384  11.000  1.0576  0.6136 -1.3086
  330MOL0     H44538   8.059  10.667  10.839  2.1766  1.2504 -0.6353
  330MOL0     H44539   8.311  10.583  10.803  2.8952 -2.1388 -2.8465
  330MOL0     H44540   8.470  10.472  10.609  0.3737 -0.2342 -0.8459
  330MOL0     H44541   8.506  10.498  10.778 -3.3615  1.4472 -1.6446
  330MOL0     H44542   8.643  10.293  10.779 -0.2289  1.2051  0.4680
  330MOL0     H44543   8.696  10.391  10.654  0.6861  0.4837  2.6774
  330MOL0     H44544   8.558  10.249  10.489 -2.9732 -0.5053  0.8148
  330MOL0     H44545   8.500  10.157  10.633  0.5564  0.9081  2.4934
  330MOL0     H44546   8.756  10.125  10.673 -2.3992  0.3725  0.9053
  330MOL0     H44547   8.762  10.169  10.496  3.0048  0.2151  2.2463
  330MOL0     H44548   8.556   9.797  10.468 -2.0205  1.9258 -2.2594
  330MOL0     H44549   8.151  10.204  10.711 -1.1927  0.4100 -0.4388
  330MOL0     H44550   7.931  10.264  10.744 -1.5368  0.0063  0.3434
  331MOL0     O44551   1.723   0.494   1.962 -0.2841 -0.1990 -1.0302
  331MOL0     C44552   1.837   0.445   1.984 -0.6667 -0.4075 -0.8074
  331MOL0     O44553   1.861   0.341   2.068 -0.0014  0.4212  0.5305
  331MOL0     C44554   1.751   0.262   2.100 -0.2194 -0.0898  1.0906
  331MOL0     C44555   1.661   0.220   1.998 -1.2589  0.6376  0.0709
  331MOL0     C44556   1.540   0.152   2.034  0.0421  0.2090  0.2586
  331MOL0     C44557   1.514   0.117   2.165  0.0429 -0.6714 -0.7022
  331MOL0     O44558   1.410   0.046   2.204 -0.1254 -0.7218 -0.2042
  331MOL0     C44559   1.294   0.042   2.123  0.1075 -0.2126  0.5574
  331MOL0     C44560   1.215   0.172   2.151  0.0647  0.3542  0.3659
  331MOL0     C44561   1.082   0.177   2.057  0.2362  0.7472 -0.6412
  331MOL0     C44562   0.982   0.280   2.106 -0.6507  0.2727  0.7017
  331MOL0     C44563   0.856   0.278   2.024  0.6747 -0.1376  0.2338
  331MOL0     C44564   0.755   0.392   2.074 -0.0212  0.1509  0.0788
  331MOL0     C44565   0.617   0.360   2.021  0.6326 -0.1679 -0.2447
  331MOL0     C44566   0.515   0.455   2.076 -0.1758 -0.0284 -1.0115
  331MOL0     N44567   0.550   0.597   2.050  0.0144 -0.5359  0.2623
  331MOL0     C44568   0.499   0.665   1.938 -0.2611  0.0800 -0.0147
  331MOL0     C44569   0.533   0.793   1.963 -0.1550 -0.8029  0.0422
  331MOL0     C44570   0.518   0.920   1.886 -0.7335  0.0446  0.3209
  331MOL0     C44571   0.635   1.019   1.891 -0.0188 -0.3297 -0.1265
  331MOL0     C44572   0.614   1.128   1.789 -0.0453 -0.5728 -0.0882
  331MOL0     C44573   0.729   1.235   1.803  0.3394 -0.3114  0.7232
  331MOL0     O44574   0.680   1.355   1.734  0.1486 -0.1393  0.4821
  331MOL0     C44575   0.755   1.418   1.629  0.1174 -0.5740 -0.6370
  331MOL0     C44576   0.671   1.497   1.538  0.2615 -0.3595 -0.1639
  331MOL0     C44577   0.728   1.562   1.428 -0.5958 -0.3678  0.0494
  331MOL0     C44578   0.623   1.647   1.350 -0.9824 -0.4580  0.5372
  331MOL0     C44579   0.864   1.553   1.401 -0.4325  0.2670 -0.2149
  331MOL0     C44580   0.942   1.626   1.295  0.3031 -0.3727  0.0855
  331MOL0     O44581   1.071   1.675   1.330  0.8743 -0.4461 -0.3738
  331MOL0     C44582   1.163   1.696   1.225  0.2881 -0.4371  0.0017
  331MOL0     C44583   1.276   1.781   1.266 -0.0222  0.1632 -0.1485
  331MOL0     C44584   1.383   1.806   1.170 -0.2543 -0.3784 -0.6496
  331MOL0     C44585   1.363   1.761   1.037  0.2641 -0.3935 -0.9757
  331MOL0     O44586   1.458   1.786   0.942 -0.2954  0.2965  0.5420
  331MOL0     C44587   1.596   1.802   0.978 -0.5085  0.2665  0.5725
  331MOL0     C44588   1.665   1.663   1.018 -0.1299 -0.4036 -0.5252
  331MOL0     C44589   1.818   1.686   1.028  0.7198  0.4925 -0.3717
  331MOL0     C44590   1.860   1.586   1.139 -0.5790  0.1601 -0.3252
  331MOL0     C44591   2.009   1.589   1.169 -0.0104 -0.2081  0.1842
  331MOL0     C44592   2.095   1.530   1.051 -0.7095 -0.1742  0.1602
  331MOL0     C44593   2.188   1.630   0.988  0.5622 -0.9193  0.0730
  331MOL0     C44594   2.252   1.585   0.860 -0.3963  0.5419  0.1145
  331MOL0    Cl44595   2.354   1.440   0.896 -0.0597 -0.0674  0.2910
  331MOL0     C44596   1.252   1.693   0.997  0.2287  0.3166  0.0789
  331MOL0     C44597   1.152   1.655   1.088 -0.9436  0.2754 -0.2147
  331MOL0     O44598   0.887   1.628   1.186 -0.1038  0.5378 -0.3653
  331MOL0     C44599   0.944   1.467   1.493 -0.5216 -0.6532  0.9010
  331MOL0     C44600   0.894   1.406   1.605  0.2189 -0.6024  0.8648
  331MOL0     N44601   0.615   0.795   2.073 -0.1753  0.8643  0.3318
  331MOL0     N44602   0.626   0.678   2.124  0.3427  0.2327  0.7856
  331MOL0     C44603   1.608   0.144   2.266  0.4919  0.8441  1.8444
  331MOL0     C44604   1.724   0.216   2.228 -0.3217 -0.2645  0.0987
  331MOL0     C44605   1.958   0.520   1.945 -0.0900  0.1505  0.3703
  331MOL0     C44606   2.077   0.503   2.012 -0.0722  0.9360 -0.7478
  331MOL0     C44607   2.190   0.559   1.961 -0.0381  0.8284  0.5820
  331MOL0     C44608   2.191   0.639   1.846 -0.0153 -0.1914  0.2261
  331MOL0     O44609   2.316   0.689   1.805 -0.0420  0.3838 -0.0645
  331MOL0     C44610   2.314   0.740   1.672 -0.0281  0.2555 -0.2000
  331MOL0     C44611   2.461   0.775   1.621  0.4948 -0.1935 -0.3787
  331MOL0     C44612   2.552   0.650   1.627 -1.5822  0.4882  1.1537
  331MOL0     C44613   2.692   0.691   1.604  0.2338  0.1486  1.1632
  331MOL0     C44614   2.763   0.562   1.588  0.8302 -0.9696 -0.4559
  331MOL0     C44615   2.812   0.455   1.586  0.0073  0.0397  0.9671
  331MOL0     C44616   2.069   0.661   1.780 -0.6954  0.6936  0.5523
  331MOL0     C44617   1.953   0.607   1.833 -0.2553  0.7672 -0.2826
  331MOL0     H44618   1.670   0.245   1.893 -1.1932 -0.4658 -0.1994
  331MOL0     H44619   1.469   0.135   1.953 -2.8755 -3.6131  3.2136
  331MOL0     H44620   1.316   0.038   2.016 -0.1815  1.5284  0.3961
  331MOL0     H44621   1.235  -0.047   2.147 -0.8700  0.0704 -0.6914
  331MOL0     H44622   1.170   0.168   2.250 -1.9864 -1.7694 -0.5564
  331MOL0     H44623   1.283   0.254   2.128 -0.9303  0.4178 -2.8163
  331MOL0     H44624   1.121   0.203   1.958  2.8162  1.5090  0.4918
  331MOL0     H44625   1.024   0.084   2.056  2.0121 -0.4623  0.7937
  331MOL0     H44626   0.963   0.268   2.213 -0.8538 -1.4939  0.4883
  331MOL0     H44627   1.023   0.381   2.119 -3.5915  1.3837  2.1604
  331MOL0     H44628   0.883   0.276   1.918  2.4852  0.1773  0.6550
  331MOL0     H44629   0.798   0.186   2.041  0.5102 -0.0992 -0.1101
  331MOL0     H44630   0.752   0.400   2.183  0.2137 -1.1332  0.1867
  331MOL0     H44631   0.775   0.495   2.040 -0.5849  1.4727  3.3896
  331MOL0     H44632   0.614   0.375   1.912 -5.1454 -0.2879 -0.3824
  331MOL0     H44633   0.599   0.253   2.039  3.0499 -1.1088 -2.6495
  331MOL0     H44634   0.503   0.441   2.184 -1.3842  0.9729 -0.9854
  331MOL0     H44635   0.415   0.433   2.038 -0.2918 -3.0554  0.6991
  331MOL0     H44636   0.444   0.619   1.857 -0.3862 -1.8279  1.0813
  331MOL0     H44637   0.487   0.892   1.784  2.2267 -0.2716 -0.5778
  331MOL0     H44638   0.433   0.971   1.933 -0.9931  0.0873 -0.1840
  331MOL0     H44639   0.721   0.952   1.879  0.3629 -0.0667  1.0102
  331MOL0     H44640   0.647   1.066   1.989  2.4848  0.4344 -0.7381
  331MOL0     H44641   0.519   1.179   1.806 -1.0745 -1.4471 -2.7174
  331MOL0     H44642   0.616   1.086   1.688  1.6135 -2.0815  0.5191
  331MOL0     H44643   0.823   1.188   1.772  1.7219  1.0685  2.5141
  331MOL0     H44644   0.741   1.257   1.910  0.7208 -1.9685  1.0448
  331MOL0     H44645   0.569   1.499   1.575  1.4087 -0.8277  3.3113
  331MOL0     H44646   0.525   1.600   1.343 -1.0993 -0.0892 -0.5118
  331MOL0     H44647   0.615   1.745   1.399 -0.6040  0.1131 -0.5136
  331MOL0     H44648   0.645   1.670   1.245 -1.2932 -0.7961  0.3992
  331MOL0     H44649   1.274   1.819   1.368  0.1727 -1.3562  0.4364
  331MOL0     H44650   1.459   1.877   1.200 -0.4900 -0.1298 -0.6325
  331MOL0     H44651   1.655   1.823   0.889 -2.6125  3.5469 -0.2067
  331MOL0     H44652   1.621   1.882   1.048  1.0910  1.3230 -1.1197
  331MOL0     H44653   1.609   1.633   1.107 -1.6099  0.3284 -1.1584
  331MOL0     H44654   1.647   1.589   0.939  1.4213  0.2425 -1.5293
  331MOL0     H44655   1.848   1.790   1.040 -1.9777  1.4779 -1.3927
  331MOL0     H44656   1.859   1.663   0.929  0.3537  3.5243 -1.3164
  331MOL0     H44657   1.814   1.617   1.234 -0.6745 -0.9005 -0.0103
  331MOL0     H44658   1.818   1.487   1.122 -2.7509  1.3843 -2.9491
  331MOL0     H44659   2.011   1.514   1.249  2.1125 -0.2508  0.1297
  331MOL0     H44660   2.038   1.688   1.206 -1.5577  0.2806  0.1786
  331MOL0     H44661   2.151   1.440   1.079  0.7038 -0.3336 -2.7868
  331MOL0     H44662   2.026   1.489   0.977 -1.5761 -0.1515  0.9436
  331MOL0     H44663   2.262   1.663   1.061  0.7420 -2.1222  0.4584
  331MOL0     H44664   2.133   1.723   0.973  2.3112  0.3499  1.1880
  331MOL0     H44665   2.318   1.661   0.819  0.1600 -0.5647 -1.1059
  331MOL0     H44666   2.179   1.557   0.783  1.3351 -0.7920 -1.1097
  331MOL0     H44667   1.243   1.656   0.895 -2.8657 -2.4818  1.1750
  331MOL0     H44668   1.063   1.604   1.054 -0.7080  0.1184 -0.6010
  331MOL0     H44669   1.047   1.444   1.469  0.2215  0.8998  2.4490
  331MOL0     H44670   0.961   1.353   1.671  0.4997  1.4588  2.3223
  331MOL0     H44671   1.595   0.110   2.368  0.6032 -1.9331  1.0264
  331MOL0     H44672   1.805   0.251   2.292  0.4738  2.5806 -2.2612
  331MOL0     H44673   2.075   0.441   2.101 -1.0876  0.8580 -0.8060
  331MOL0     H44674   2.286   0.545   2.009 -0.4440  1.7679  1.7045
  331MOL0     H44675   2.266   0.668   1.604 -3.1622 -0.6413  2.6733
  331MOL0     H44676   2.254   0.831   1.663  1.4754  1.2127 -0.9534
  331MOL0     H44677   2.508   0.852   1.683  0.4400 -0.2405 -0.2785
  331MOL0     H44678   2.456   0.805   1.515 -1.0314 -1.2450 -0.6288
  331MOL0     H44679   2.519   0.575   1.555 -1.1973  2.3504 -1.0566
  331MOL0     H44680   2.555   0.602   1.726 -0.0403  2.7071  2.2745
  331MOL0     H44681   2.726   0.748   1.692 -0.2777  2.4190 -0.0402
  331MOL0     H44682   2.707   0.757   1.518  2.7419 -2.9117 -0.9594
  331MOL0     H44683   2.842   0.352   1.596  1.3880  0.1570 -1.2447
  331MOL0     H44684   2.069   0.704   1.680  4.8267 -1.3394 -0.6784
  331MOL0     H44685   1.859   0.615   1.780 -0.9292  3.6783  1.1178
  332MOL0     O44686   4.812  10.142   2.145  0.6289 -0.1778  0.2069
  332MOL0     C44687   4.790  10.023   2.122 -0.0203  0.0311  0.1191
  332MOL0     O44688   4.729   9.973   2.008  0.1140  0.2230 -0.1860
  332MOL0     C44689   4.671  10.074   1.924 -0.9283  0.1572 -0.3573
  332MOL0     C44690   4.555  10.138   1.961 -0.8326 -1.5439  0.0673
  332MOL0     C44691   4.493  10.239   1.888 -0.7578  0.2946 -0.1263
  332MOL0     C44692   4.534  10.262   1.753  0.5774  0.6237  0.2091
  332MOL0     O44693   4.471  10.354   1.673 -0.2794  0.1691  0.1787
  332MOL0     C44694   4.553  10.439   1.588  0.1986  1.2639 -0.1575
  332MOL0     C44695   4.468  10.528   1.496  1.1575 -0.0647 -0.2994
  332MOL0     C44696   4.402  10.649   1.574  0.6629  0.1465 -0.6926
  332MOL0     C44697   4.269  10.605   1.639  0.5404 -0.4630 -1.8562
  332MOL0     C44698   4.231  10.723   1.732  0.7917 -0.1559  1.4917
  332MOL0     C44699   4.103  10.692   1.826 -0.4311  0.6121  0.6395
  332MOL0     C44700   4.062  10.809   1.914  0.4036  0.2505 -0.0606
  332MOL0     C44701   3.948  10.769   2.009 -0.1607 -0.2168  0.3949
  332MOL0     N44702   3.825  10.768   1.930  0.2082  1.0637  0.9276
  332MOL0     C44703   3.765  10.889   1.911 -0.1643  0.2305  0.0391
  332MOL0     C44704   3.648  10.865   1.864  0.1032 -0.4643  0.6952
  332MOL0     C44705   3.561  10.972   1.813 -0.1331 -0.4878  0.8297
  332MOL0     C44706   3.432  10.924   1.760  0.4125  0.3642 -0.2459
  332MOL0     C44707   3.307  10.963   1.834  0.1628  1.1095 -0.4268
  332MOL0     C44708   3.188  10.878   1.779 -0.0215 -0.0869  0.3553
  332MOL0     O44709   3.072  10.919   1.850  0.5314  0.5100 -0.1903
  332MOL0     C44710   2.989  11.004   1.787 -0.1634 -0.3939  0.7835
  332MOL0     C44711   2.934  10.986   1.660 -0.3716  0.2859  0.2061
  332MOL0     C44712   2.830  11.075   1.606 -0.6150  0.1126  0.5183
  332MOL0     C44713   2.788  11.043   1.463 -1.4009 -0.1881  0.4346
  332MOL0     C44714   2.793  11.185   1.688 -0.7047 -0.0203  0.2566
  332MOL0     C44715   2.677  11.264   1.643  0.4386  0.1608  0.2695
  332MOL0     O44716   2.658  11.302   1.515 -0.4710  0.2845  0.1534
  332MOL0     C44717   2.538  11.319   1.454  0.6616 -0.5497 -0.3565
  332MOL0     C44718   2.417  11.278   1.510  0.4864  0.3012  0.3374
  332MOL0     C44719   2.296  11.312   1.447 -0.4516 -0.5522 -0.4530
  332MOL0     C44720   2.297  11.366   1.321  0.5323 -0.3706 -0.4636
  332MOL0     O44721   2.176  11.375   1.259 -0.0904  0.1719  0.3937
  332MOL0     C44722   2.166  11.363   1.120  0.5615  0.1393  0.9594
  332MOL0     C44723   2.137  11.216   1.068 -0.2339 -0.1589  1.4686
  332MOL0     C44724   2.113  11.117   1.172 -0.6889  0.0041  0.3417
  332MOL0     C44725   2.137  10.964   1.133  0.4283 -0.3145  0.1387
  332MOL0     C44726   2.038  10.899   1.051  0.9986  0.9545 -0.1465
  332MOL0     C44727   1.901  10.874   1.126 -0.2763  0.0905 -0.1138
  332MOL0     C44728   1.805  10.799   1.036 -0.5504  0.2074  0.0326
  332MOL0     C44729   1.669  10.809   1.097  0.6965 -0.1194  0.1337
  332MOL0    Cl44730   1.566  10.677   1.022 -0.0478  0.3732 -0.1619
  332MOL0     C44731   2.412  11.423   1.277 -1.1039 -1.0591 -0.0141
  332MOL0     C44732   2.531  11.388   1.337 -0.3973 -0.8561  0.6743
  332MOL0     O44733   2.607  11.291   1.743 -0.8701 -1.0247  0.0766
  332MOL0     C44734   2.848  11.208   1.815 -0.4450 -0.0119  0.3700
  332MOL0     C44735   2.951  11.121   1.861  0.0650  0.1187 -0.1608
  332MOL0     N44736   3.638  10.727   1.847 -0.2225 -0.8192  0.1785
  332MOL0     N44737   3.742  10.666   1.893 -0.8306  0.5652  0.2102
  332MOL0     C44738   4.662  10.197   1.716  1.1779 -1.1706  0.5596
  332MOL0     C44739   4.728  10.114   1.802  0.0163  0.4815 -0.1549
  332MOL0     C44740   4.848   9.929   2.220  0.5240 -0.4530  0.0134
  332MOL0     C44741   4.846   9.793   2.201 -0.6732 -0.0831 -0.0150
  332MOL0     C44742   4.871   9.700   2.299 -1.0829 -0.0301 -0.0967
  332MOL0     C44743   4.912   9.734   2.431  0.1910  0.2121  0.3737
  332MOL0     O44744   4.928   9.648   2.538 -0.8623  0.4666 -0.2129
  332MOL0     C44745   5.019   9.538   2.528  0.1794 -0.5185  0.4169
  332MOL0     C44746   5.164   9.556   2.580 -0.7670  0.4113 -1.1490
  332MOL0     C44747   5.252   9.620   2.480 -0.3425  0.8688 -0.0543
  332MOL0     C44748   5.308   9.517   2.389  0.1522  0.2406 -0.0826
  332MOL0     C44749   5.407   9.416   2.449 -0.6633  0.9457 -0.3458
  332MOL0     C44750   5.495   9.336   2.491  0.7550  0.4030  0.0840
  332MOL0     C44751   4.922   9.870   2.444 -0.2308 -0.4143 -0.4421
  332MOL0     C44752   4.888   9.968   2.346  0.3345 -0.0377  0.2925
  332MOL0     H44753   4.519  10.107   2.059 -1.0607 -0.5712  0.3075
  332MOL0     H44754   4.404  10.289   1.924 -0.9909 -1.2062  1.5352
  332MOL0     H44755   4.622  10.502   1.645 -1.2076  0.9249  2.0155
  332MOL0     H44756   4.631  10.383   1.535  3.2333  1.1825  3.9094
  332MOL0     H44757   4.535  10.565   1.418  0.2475  3.1957  0.2994
  332MOL0     H44758   4.392  10.466   1.449  0.0779 -0.0164  1.2897
  332MOL0     H44759   4.472  10.695   1.644 -0.6804  1.0119  0.1085
  332MOL0     H44760   4.385  10.734   1.507  4.1728  0.9400 -0.8013
  332MOL0     H44761   4.193  10.575   1.566  0.1798 -2.8139 -0.6039
  332MOL0     H44762   4.288  10.516   1.699  1.7338  1.4468  0.7671
  332MOL0     H44763   4.321  10.753   1.786  0.4114  1.2378  1.3882
  332MOL0     H44764   4.201  10.801   1.661 -0.1459 -1.3677  0.5027
  332MOL0     H44765   4.023  10.651   1.764  2.1824  0.1201 -2.6966
  332MOL0     H44766   4.132  10.603   1.884 -1.7112 -0.5571 -0.4538
  332MOL0     H44767   4.154  10.832   1.969 -0.5027  1.0383  1.1717
  332MOL0     H44768   4.041  10.892   1.846  1.9723 -0.4027 -1.3987
  332MOL0     H44769   3.939  10.841   2.091 -2.1108 -0.3143  0.3101
  332MOL0     H44770   3.964  10.670   2.053 -0.1996  0.2627  1.5289
  332MOL0     H44771   3.817  10.979   1.942  0.2548 -0.4582  1.4155
  332MOL0     H44772   3.544  11.060   1.876  0.3985 -0.1075  0.4532
  332MOL0     H44773   3.616  10.999   1.722  0.2615 -1.8084  0.6585
  332MOL0     H44774   3.431  10.815   1.750 -0.8889  0.2684  0.7203
  332MOL0     H44775   3.423  10.974   1.663 -0.0509 -2.8348 -1.9793
  332MOL0     H44776   3.277  11.067   1.820 -5.1078 -0.2105 -1.1208
  332MOL0     H44777   3.327  10.944   1.940 -3.0158  2.7786  0.5696
  332MOL0     H44778   3.215  10.777   1.813  3.9466  1.2854  1.7908
  332MOL0     H44779   3.177  10.873   1.670  0.1342 -0.5475  0.3570
  332MOL0     H44780   2.962  10.896   1.607 -3.6149 -1.3342  1.0112
  332MOL0     H44781   2.684  11.014   1.444 -1.2240  0.9681 -3.2172
  332MOL0     H44782   2.805  11.130   1.399 -0.8229  0.3655  1.3184
  332MOL0     H44783   2.859  10.968   1.426 -1.9067  1.0930 -3.6864
  332MOL0     H44784   2.407  11.222   1.602 -0.1663 -2.4186 -1.3049
  332MOL0     H44785   2.203  11.285   1.497 -1.9374  0.1293 -2.6905
  332MOL0     H44786   2.086  11.425   1.078  2.1841  1.5842 -0.1457
  332MOL0     H44787   2.257  11.394   1.067 -1.5323  1.4850 -2.1977
  332MOL0     H44788   2.056  11.212   0.995  2.3875 -1.9632 -1.6495
  332MOL0     H44789   2.227  11.192   1.010 -0.2274  0.4795  1.2137
  332MOL0     H44790   2.011  11.128   1.211 -1.3231  0.8513 -1.4255
  332MOL0     H44791   2.190  11.130   1.249 -3.1509  1.9695  2.6789
  332MOL0     H44792   2.236  10.943   1.093  1.0486  0.4841  1.1996
  332MOL0     H44793   2.135  10.902   1.224  0.0140 -2.8846 -1.5194
  332MOL0     H44794   2.075  10.803   1.011 -2.3475 -0.7587  0.5060
  332MOL0     H44795   2.002  10.970   0.976 -0.5410 -0.4601 -0.8111
  332MOL0     H44796   1.917  10.824   1.222  1.6211  1.9851  0.6339
  332MOL0     H44797   1.863  10.976   1.142 -0.3474  0.0491 -0.0179
  332MOL0     H44798   1.837  10.695   1.027 -0.3074  0.1182  1.6934
  332MOL0     H44799   1.811  10.853   0.941 -2.4423  0.7297  0.1565
  332MOL0     H44800   1.612  10.900   1.079 -0.3692 -0.0972  3.0393
  332MOL0     H44801   1.685  10.799   1.205 -2.2774 -0.8291  0.6137
  332MOL0     H44802   2.412  11.484   1.187 -0.0047 -0.8090  0.1381
  332MOL0     H44803   2.625  11.419   1.294 -0.6261 -0.0827  0.7247
  332MOL0     H44804   2.828  11.294   1.878  0.3229  0.5529 -0.1360
  332MOL0     H44805   2.981  11.141   1.963 -2.2227  1.2412  0.3729
  332MOL0     H44806   4.701  10.231   1.621  1.0940 -0.7729  0.6682
  332MOL0     H44807   4.819  10.070   1.761 -0.9875 -0.5241 -1.4201
  332MOL0     H44808   4.818   9.752   2.105  1.3810 -1.6879 -0.0045
  332MOL0     H44809   4.869   9.593   2.282 -0.0540  0.3505 -3.4021
  332MOL0     H44810   4.968   9.453   2.575  0.7032 -0.9925  0.1488
  332MOL0     H44811   5.041   9.511   2.424  2.0931 -3.5553  1.4672
  332MOL0     H44812   5.213   9.466   2.619 -0.8999  1.3093  1.3130
  332MOL0     H44813   5.159   9.630   2.661  1.5043  0.7239 -1.2034
  332MOL0     H44814   5.337   9.672   2.524 -0.6073  0.0283  1.4967
  332MOL0     H44815   5.196   9.694   2.422  0.2861  0.1913 -1.5780
  332MOL0     H44816   5.358   9.565   2.304 -1.8286  1.0492 -0.8710
  332MOL0     H44817   5.234   9.465   2.327 -0.1804  2.8567 -2.0539
  332MOL0     H44818   5.576   9.278   2.531 -2.8715 -3.4655  2.7667
  332MOL0     H44819   4.935   9.918   2.540  2.6107 -0.4164 -0.7521
  332MOL0     H44820   4.900  10.075   2.361  3.1940  0.0992 -2.0495
  333MOL0     O44821   0.440  10.458   8.598  0.7223  0.1437  0.6132
  333MOL0     C44822   0.318  10.484   8.599  0.1951 -0.7453 -0.0853
  333MOL0     O44823   0.222  10.420   8.668  0.2055 -0.4768  0.4165
  333MOL0     C44824   0.253  10.314   8.749  0.2438 -0.1562 -0.1793
  333MOL0     C44825   0.350  10.212   8.737 -0.6625 -0.9321  0.5564
  333MOL0     C44826   0.360  10.095   8.814  0.0062 -1.1074  1.1268
  333MOL0     C44827   0.263  10.071   8.908  0.5712  0.3616 -0.9464
  333MOL0     O44828   0.258   9.962   8.993  0.2406 -0.1531 -0.2707
  333MOL0     C44829   0.337   9.843   8.960 -0.3032  0.7623  0.0362
  333MOL0     C44830   0.483   9.858   8.998  0.7763  0.5509  0.0999
  333MOL0     C44831   0.554   9.719   8.990 -0.2961 -0.7194  0.2706
  333MOL0     C44832   0.583   9.668   8.846 -0.0346 -0.4028  0.0221
  333MOL0     C44833   0.691   9.561   8.829 -0.0376  0.1507  0.2667
  333MOL0     C44834   0.688   9.447   8.934  0.4598 -0.6071 -0.5011
  333MOL0     C44835   0.804   9.352   8.918  0.4027 -0.0582  0.7727
  333MOL0     C44836   0.774   9.258   8.804 -0.4206  0.8560  0.0449
  333MOL0     N44837   0.707   9.143   8.858  0.0154 -0.8516 -0.1202
  333MOL0     C44838   0.767   9.027   8.881 -0.5625  0.8765  0.1400
  333MOL0     C44839   0.668   8.942   8.892  0.2784 -0.5763 -0.4649
  333MOL0     C44840   0.675   8.797   8.888  0.2564  0.2594  0.1236
  333MOL0     C44841   0.650   8.720   9.020  0.0192  0.7272  0.7589
  333MOL0     C44842   0.505   8.729   9.077  0.0596 -1.0755  0.1422
  333MOL0     C44843   0.406   8.631   9.023 -0.9381 -0.0634  1.1227
  333MOL0     O44844   0.283   8.664   9.076  0.4973  0.3407 -0.4334
  333MOL0     C44845   0.195   8.756   9.026 -0.3809 -0.1283  0.5937
  333MOL0     C44846   0.090   8.783   9.117  1.6446 -0.1761  0.2227
  333MOL0     C44847  -0.022   8.868   9.080 -0.5056 -1.0701 -0.2645
  333MOL0     C44848  -0.140   8.878   9.167 -0.3436  0.0443  0.5448
  333MOL0     C44849  -0.000   8.949   8.963  0.4159 -0.2676 -0.2987
  333MOL0     C44850  -0.108   9.040   8.904 -0.2055  1.2947  0.2489
  333MOL0     O44851  -0.191   9.111   8.989  0.1136  0.3055  0.3937
  333MOL0     C44852  -0.285   9.189   8.933  0.1445 -0.4251 -0.4049
  333MOL0     C44853  -0.396   9.129   8.877  0.0222  0.4173  0.0877
  333MOL0     C44854  -0.502   9.206   8.826 -0.2340  0.3388 -0.2263
  333MOL0     C44855  -0.497   9.344   8.837  0.2519  0.4343  0.0082
  333MOL0     O44856  -0.614   9.405   8.796 -0.5828 -0.7060  0.9200
  333MOL0     C44857  -0.626   9.540   8.836 -0.1602  0.3037 -0.5692
  333MOL0     C44858  -0.761   9.593   8.792  0.1998 -0.2749 -0.3643
  333MOL0     C44859  -0.754   9.749   8.767 -0.7034  1.3801  0.3299
  333MOL0     C44860  -0.699   9.781   8.620  0.3101  0.2565 -0.4338
  333MOL0     C44861  -0.616   9.906   8.604 -0.2804  0.1417 -0.6504
  333MOL0     C44862  -0.571   9.924   8.458  0.9549 -0.2054  0.1479
  333MOL0     C44863  -0.483   9.820   8.390  0.2265  0.6326 -1.4053
  333MOL0     C44864  -0.331   9.797   8.445  0.0400 -0.5732 -0.1665
  333MOL0    Cl44865  -0.329   9.715   8.617 -0.7305  0.7577 -0.1441
  333MOL0     C44866  -0.395   9.404   8.913 -0.6561 -0.4164 -0.4427
  333MOL0     C44867  -0.279   9.326   8.957 -0.1596  0.3353  1.5603
  333MOL0     O44868  -0.093   9.058   8.779 -0.3295  0.0649  0.3224
  333MOL0     C44869   0.120   8.932   8.878  1.4068 -0.7176 -0.0156
  333MOL0     C44870   0.216   8.840   8.915 -0.7184 -1.0334 -0.4493
  333MOL0     N44871   0.546   9.013   8.897 -0.2087 -0.6458  0.1169
  333MOL0     N44872   0.577   9.140   8.881  0.3870 -0.4218 -0.5016
  333MOL0     C44873   0.164  10.167   8.931  0.7013  0.0246 -0.2157
  333MOL0     C44874   0.158  10.282   8.848 -0.2854 -0.7887 -0.2184
  333MOL0     C44875   0.275  10.596   8.512 -0.5124  0.0437  0.2415
  333MOL0     C44876   0.139  10.644   8.509 -0.8872 -0.0466 -0.5243
  333MOL0     C44877   0.099  10.756   8.434  0.2648 -0.0729 -0.2597
  333MOL0     C44878   0.192  10.806   8.344 -0.9194  0.2301 -0.1260
  333MOL0     O44879   0.178  10.923   8.268  0.2597  0.4370 -0.4308
  333MOL0     C44880   0.053  10.984   8.252  0.5962  0.4569  0.0574
  333MOL0     C44881  -0.062  10.888   8.190  0.2083 -0.6580  0.4142
  333MOL0     C44882  -0.163  10.973   8.109  0.2162 -0.5137 -0.0200
  333MOL0     C44883  -0.278  10.879   8.063  0.4764 -0.8074  0.3716
  333MOL0     C44884  -0.372  10.969   7.986  0.4236 -0.4496 -0.4458
  333MOL0     C44885  -0.468  11.033   7.948  0.1499  0.1127 -0.1169
  333MOL0     C44886   0.321  10.759   8.348  0.3312 -0.6375  0.8577
  333MOL0     C44887   0.364  10.657   8.426  0.0586  0.2788  0.1818
  333MOL0     H44888   0.427  10.238   8.665 -3.1726  2.3974 -1.2102
  333MOL0     H44889   0.444  10.029   8.800  0.3115 -0.6702  0.8697
  333MOL0     H44890   0.297   9.753   9.006 -1.5447  0.9935 -0.5319
  333MOL0     H44891   0.338   9.821   8.852 -0.2575  0.1554  0.1584
  333MOL0     H44892   0.534   9.930   8.933  1.0026 -0.6655 -1.1210
  333MOL0     H44893   0.484   9.899   9.099 -0.3849  1.8389 -0.3869
  333MOL0     H44894   0.655   9.735   9.028  0.0281  1.4051 -1.3287
  333MOL0     H44895   0.497   9.646   9.050 -0.4070 -0.0701  0.9681
  333MOL0     H44896   0.491   9.640   8.794 -0.6259  1.2159  0.1289
  333MOL0     H44897   0.620   9.754   8.788 -1.1526  2.8151  3.6281
  333MOL0     H44898   0.682   9.525   8.726 -1.4837 -0.3508  0.5472
  333MOL0     H44899   0.793   9.601   8.827  1.7492 -3.9562 -1.6851
  333MOL0     H44900   0.682   9.491   9.035 -0.2285  1.8606 -1.5339
  333MOL0     H44901   0.600   9.382   8.932  1.6691 -2.3507 -3.8215
  333MOL0     H44902   0.896   9.408   8.899 -1.3362  3.7589  2.5024
  333MOL0     H44903   0.811   9.290   9.008  0.3147 -0.8270  0.2613
  333MOL0     H44904   0.869   9.248   8.749 -1.7273  1.4846 -2.4952
  333MOL0     H44905   0.705   9.301   8.731  0.0760  0.5063 -0.6459
  333MOL0     H44906   0.870   8.993   8.877 -1.5957 -2.8557  1.1270
  333MOL0     H44907   0.605   8.766   8.811 -0.5018  2.0712  0.0414
  333MOL0     H44908   0.771   8.759   8.852 -0.2129 -0.9705  0.1221
  333MOL0     H44909   0.733   8.748   9.085  2.5392 -0.5063 -1.7223
  333MOL0     H44910   0.667   8.616   8.991  1.9197  1.0264  0.6544
  333MOL0     H44911   0.471   8.832   9.063  0.2771 -1.2592 -2.0333
  333MOL0     H44912   0.515   8.703   9.183  0.4442 -2.2569 -0.1657
  333MOL0     H44913   0.442   8.529   9.037 -0.1906 -0.1223 -0.8981
  333MOL0     H44914   0.399   8.638   8.914 -1.0452 -1.7909  0.9851
  333MOL0     H44915   0.101   8.732   9.212  1.4921 -1.6021 -0.5071
  333MOL0     H44916  -0.128   8.826   9.262  1.9195  1.7052  1.2465
  333MOL0     H44917  -0.162   8.979   9.202  0.7004  0.1211  1.0094
  333MOL0     H44918  -0.230   8.842   9.116 -0.8161  0.3170  1.1842
  333MOL0     H44919  -0.416   9.023   8.869  2.3274 -0.0227 -0.7133
  333MOL0     H44920  -0.571   9.154   8.761  0.1671  1.3069 -1.4550
  333MOL0     H44921  -0.622   9.555   8.944  1.4171  0.8847 -0.6908
  333MOL0     H44922  -0.541   9.588   8.787  0.3352 -1.1970 -1.2514
  333MOL0     H44923  -0.787   9.548   8.696 -0.7556  1.5008 -0.9647
  333MOL0     H44924  -0.834   9.574   8.871  1.3809 -0.4476  0.7285
  333MOL0     H44925  -0.692   9.798   8.842  2.5620 -2.3947  0.4857
  333MOL0     H44926  -0.857   9.783   8.781 -0.5612  1.4572  1.2796
  333MOL0     H44927  -0.648   9.693   8.581  1.7650  0.1367  1.5809
  333MOL0     H44928  -0.793   9.788   8.563 -0.9473  1.1220  1.6217
  333MOL0     H44929  -0.522   9.912   8.660 -0.4601  0.4634 -0.3799
  333MOL0     H44930  -0.670   9.992   8.645  1.4487  1.5521 -1.1832
  333MOL0     H44931  -0.664   9.947   8.404  2.2477  0.0865 -2.0832
  333MOL0     H44932  -0.516  10.018   8.450  0.2288  0.3135  1.0673
  333MOL0     H44933  -0.472   9.842   8.284  0.6575 -0.5496 -1.6268
  333MOL0     H44934  -0.537   9.724   8.389 -0.8712  1.2239 -0.9489
  333MOL0     H44935  -0.269   9.887   8.440 -1.2791  0.3130 -2.1489
  333MOL0     H44936  -0.297   9.728   8.367 -1.6502  0.0045 -1.4897
  333MOL0     H44937  -0.397   9.508   8.945 -0.9624 -0.0046 -1.7524
  333MOL0     H44938  -0.204   9.376   9.017 -2.3786  3.8306  1.6918
  333MOL0     H44939   0.148   9.001   8.800  1.3867 -0.3473  0.2992
  333MOL0     H44940   0.308   8.831   8.858 -1.2646 -1.6678 -1.2420
  333MOL0     H44941   0.094  10.150   9.012  0.1827 -1.8382 -0.9948
  333MOL0     H44942   0.077  10.354   8.850  2.3420  2.3526  1.1668
  333MOL0     H44943   0.074  10.602   8.585 -1.5289  1.8490  0.0424
  333MOL0     H44944  -0.003  10.790   8.451 -0.7864 -1.9177 -2.4441
  333MOL0     H44945   0.014  11.017   8.349 -1.5174  2.4269 -1.3760
  333MOL0     H44946   0.070  11.071   8.188 -0.6725 -0.3960 -1.5008
  333MOL0     H44947  -0.115  10.834   8.268 -1.5625  0.8655  0.3229
  333MOL0     H44948  -0.010  10.816   8.126  1.3337  1.6660 -1.4519
  333MOL0     H44949  -0.115  11.015   8.020 -0.8657  0.0297 -0.3668
  333MOL0     H44950  -0.200  11.054   8.173  1.5475  1.2610 -1.3947
  333MOL0     H44951  -0.315  10.825   8.150  1.6787  2.3793  3.0960
  333MOL0     H44952  -0.248  10.806   7.987 -0.5879  0.8135 -1.7127
  333MOL0     H44953  -0.553  11.076   7.900 -0.3112 -0.8449 -0.1828
  333MOL0     H44954   0.395  10.806   8.283 -0.1723  0.8169  1.3072
  333MOL0     H44955   0.468  10.635   8.400 -0.5422 -0.0352 -2.1497
  334MOL0     O44956   1.850   3.981   8.086  0.0468  0.0313  0.6614
  334MOL0     C44957   1.764   4.036   8.157 -0.0268 -0.5718  0.9289
  334MOL0     O44958   1.630   4.069   8.127 -0.2303 -0.0894 -0.1505
  334MOL0     C44959   1.582   4.014   8.012  0.3588  0.0925 -0.6165
  334MOL0     C44960   1.558   4.095   7.897  0.3677 -0.1790 -1.3017
  334MOL0     C44961   1.498   4.047   7.788  0.5112  0.0332 -0.5325
  334MOL0     C44962   1.455   3.911   7.782  0.3062 -1.1045 -0.2011
  334MOL0     O44963   1.391   3.854   7.681  0.4302 -1.1522  0.1771
  334MOL0     C44964   1.339   3.940   7.572  0.8787 -0.6683  0.8259
  334MOL0     C44965   1.266   3.839   7.487 -0.3870  0.0590  0.1354
  334MOL0     C44966   1.183   3.916   7.389 -0.3505  0.7111  0.1981
  334MOL0     C44967   1.107   3.816   7.297 -0.1387 -0.4463  0.1532
  334MOL0     C44968   1.038   3.904   7.192  0.3661  0.5616  0.3145
  334MOL0     C44969   0.946   3.805   7.125 -0.2311  0.4623 -0.7939
  334MOL0     C44970   0.872   3.892   7.019 -0.7541 -0.8824 -0.1081
  334MOL0     C44971   0.765   3.817   6.942  0.0598  0.3858  0.1062
  334MOL0     N44972   0.716   3.895   6.834 -0.0137  1.3514  0.4084
  334MOL0     C44973   0.785   3.946   6.723 -1.4017  0.0894 -0.4815
  334MOL0     C44974   0.696   3.979   6.625  1.0642  0.3492  0.0752
  334MOL0     C44975   0.735   4.041   6.490  0.2704 -0.1524 -0.5830
  334MOL0     C44976   0.671   3.959   6.376  0.4426 -0.1903 -0.0818
  334MOL0     C44977   0.713   3.815   6.369 -0.7129  0.5264 -0.5920
  334MOL0     C44978   0.670   3.740   6.245  0.6255 -0.1649  0.0011
  334MOL0     O44979   0.712   3.604   6.252 -0.7343 -0.7134 -0.5331
  334MOL0     C44980   0.687   3.523   6.138  0.9184 -0.7981  0.0809
  334MOL0     C44981   0.630   3.577   6.017  0.1523 -0.3390 -0.3176
  334MOL0     C44982   0.581   3.494   5.915  0.6742 -0.7383  0.2659
  334MOL0     C44983   0.495   3.557   5.805 -0.2594  0.6040  0.0919
  334MOL0     C44984   0.611   3.358   5.917 -0.2428  0.1860 -0.8274
  334MOL0     C44985   0.564   3.247   5.820 -0.3403  0.7052 -0.0378
  334MOL0     O44986   0.610   3.121   5.828  0.4100 -0.0688 -0.9565
  334MOL0     C44987   0.674   3.074   5.714  0.3618  0.3278  0.7947
  334MOL0     C44988   0.603   2.987   5.629  0.2943 -0.2528  0.3387
  334MOL0     C44989   0.671   2.926   5.524 -0.1749 -0.1256 -0.2693
  334MOL0     C44990   0.809   2.950   5.491  0.5729 -0.0037  0.1742
  334MOL0     O44991   0.871   2.883   5.386  1.0053  0.1118  0.4535
  334MOL0     C44992   0.816   2.905   5.252 -0.3906  1.3249 -0.3578
  334MOL0     C44993   0.892   2.863   5.131 -0.1275  0.2579 -0.5513
  334MOL0     C44994   0.912   2.717   5.137 -0.3976  0.4459  0.3414
  334MOL0     C44995   0.792   2.648   5.068 -0.0617 -1.0868 -1.1607
  334MOL0     C44996   0.787   2.497   5.080 -0.9651  0.1456 -0.4365
  334MOL0     C44997   0.918   2.424   5.053 -0.0551  0.1276 -0.5037
  334MOL0     C44998   0.898   2.261   5.046 -0.1614 -0.1921  0.7145
  334MOL0     C44999   0.906   2.202   5.190  0.0991 -0.2384  0.6353
  334MOL0    Cl45000   0.853   2.040   5.202 -0.0880 -0.0465  0.2311
  334MOL0     C45001   0.873   3.049   5.562  0.0592 -0.2834  0.1905
  334MOL0     C45002   0.807   3.106   5.677  0.2336 -0.2081 -0.7307
  334MOL0     O45003   0.476   3.274   5.746 -0.8080  0.5378  0.9098
  334MOL0     C45004   0.685   3.308   6.025 -0.6438  0.1601  0.2778
  334MOL0     C45005   0.710   3.384   6.138 -0.3164 -0.0505  0.1924
  334MOL0     N45006   0.569   3.952   6.679  0.3826 -0.6487 -0.4812
  334MOL0     N45007   0.587   3.907   6.793  0.5305 -0.8091 -0.4995
  334MOL0     C45008   1.495   3.832   7.889  0.2764  0.8405  0.4866
  334MOL0     C45009   1.552   3.877   7.997 -0.1889 -0.4455  0.4513
  334MOL0     C45010   1.813   4.070   8.292  1.1652 -0.2113 -0.0375
  334MOL0     C45011   1.732   4.103   8.397  0.6766 -0.1570 -1.3183
  334MOL0     C45012   1.770   4.182   8.505 -0.7988 -0.0273  0.1515
  334MOL0     C45013   1.902   4.209   8.519 -0.4817  0.6241 -0.2089
  334MOL0     O45014   1.964   4.273   8.616 -0.6151 -0.3808  0.2410
  334MOL0     C45015   1.905   4.295   8.748 -1.5732  1.6842 -0.0818
  334MOL0     C45016   2.002   4.344   8.860  0.9577 -0.3272  0.5205
  334MOL0     C45017   2.108   4.249   8.906 -0.1841  0.3828  0.0853
  334MOL0     C45018   2.212   4.328   8.975 -0.2966 -0.8830 -0.1090
  334MOL0     C45019   2.324   4.240   9.007 -1.2492  0.3510 -0.3363
  334MOL0     C45020   2.414   4.163   9.034 -0.6817  0.2487 -0.0295
  334MOL0     C45021   1.990   4.164   8.422  1.0616  0.1804  0.3726
  334MOL0     C45022   1.948   4.087   8.309  0.4429 -0.0949 -0.9278
  334MOL0     H45023   1.589   4.198   7.885  0.8501 -0.5586 -4.1625
  334MOL0     H45024   1.493   4.112   7.701 -1.0148  0.8565  0.1404
  334MOL0     H45025   1.261   4.002   7.619 -1.0575 -0.3613 -2.5110
  334MOL0     H45026   1.416   3.993   7.516  0.4636 -1.1579 -0.2350
  334MOL0     H45027   1.333   3.776   7.428 -2.4302 -1.2210 -0.9036
  334MOL0     H45028   1.221   3.758   7.544  0.9525 -0.7754  0.0571
  334MOL0     H45029   1.103   3.973   7.438 -0.3733  1.6974 -0.9448
  334MOL0     H45030   1.245   3.987   7.334 -1.4148 -0.2143 -2.3563
  334MOL0     H45031   1.174   3.741   7.254 -0.2227 -1.5024  1.7530
  334MOL0     H45032   1.033   3.755   7.350  1.7935 -1.1976  2.1719
  334MOL0     H45033   0.977   3.988   7.227  0.4879  0.9097 -0.2889
  334MOL0     H45034   1.111   3.943   7.120 -0.5103 -1.8627 -2.0683
  334MOL0     H45035   1.002   3.722   7.081  3.1103 -0.0980  3.7676
  334MOL0     H45036   0.874   3.754   7.190  2.0526 -1.8810  0.0752
  334MOL0     H45037   0.830   3.986   7.056  0.6979  0.5217 -1.8149
  334MOL0     H45038   0.947   3.934   6.951 -0.8892 -1.6329 -0.7344
  334MOL0     H45039   0.682   3.795   7.009  0.4235 -0.9615  0.1424
  334MOL0     H45040   0.806   3.724   6.903 -1.7201 -0.3736 -0.0508
  334MOL0     H45041   0.893   3.954   6.711 -1.4199 -0.5155 -1.1178
  334MOL0     H45042   0.703   4.146   6.484  0.0522 -0.2914 -2.6746
  334MOL0     H45043   0.843   4.040   6.472  0.3870 -0.5116  0.0890
  334MOL0     H45044   0.704   4.001   6.280  1.0962  0.7072  0.5112
  334MOL0     H45045   0.563   3.970   6.383  0.1813 -0.6129 -2.4823
  334MOL0     H45046   0.661   3.775   6.456 -0.7322 -0.4030 -1.0222
  334MOL0     H45047   0.820   3.802   6.390 -0.8075  1.5003  0.6182
  334MOL0     H45048   0.721   3.786   6.160  0.5361 -0.3559 -0.1586
  334MOL0     H45049   0.561   3.736   6.236  0.6219  0.7499 -0.4829
  334MOL0     H45050   0.599   3.680   5.999 -1.9391 -1.0542 -1.0742
  334MOL0     H45051   0.511   3.513   5.706 -1.5228  2.9970 -1.2612
  334MOL0     H45052   0.388   3.561   5.827 -0.7352 -0.3672 -1.8220
  334MOL0     H45053   0.517   3.663   5.787 -1.0319  1.0437  1.5664
  334MOL0     H45054   0.504   2.954   5.658  0.0226  1.0508  0.9474
  334MOL0     H45055   0.615   2.847   5.476 -1.9577 -0.7270  2.5448
  334MOL0     H45056   0.719   2.854   5.248 -1.2942  2.8738  0.6577
  334MOL0     H45057   0.802   3.013   5.242 -0.7918  1.1754 -1.5869
  334MOL0     H45058   0.838   2.900   5.042 -0.2551 -1.9591 -1.4470
  334MOL0     H45059   0.993   2.905   5.123  0.0468  0.2543  1.2449
  334MOL0     H45060   0.923   2.687   5.242  2.4251  2.8450  0.8508
  334MOL0     H45061   1.009   2.690   5.095 -1.2563 -2.7572  0.1951
  334MOL0     H45062   0.699   2.675   5.120 -0.4113  0.5924 -2.5667
  334MOL0     H45063   0.798   2.680   4.964  0.1883  2.3671 -0.2005
  334MOL0     H45064   0.719   2.461   5.001  0.1484  1.1346 -1.8954
  334MOL0     H45065   0.734   2.457   5.167 -0.5395 -3.4236 -1.6361
  334MOL0     H45066   0.970   2.457   4.963  1.9316 -0.7378  0.2764
  334MOL0     H45067   0.981   2.443   5.141  1.5122  0.9261 -1.7620
  334MOL0     H45068   0.979   2.224   4.984 -1.7777  1.4220 -2.6000
  334MOL0     H45069   0.806   2.229   4.996  0.4298 -2.8800  1.2021
  334MOL0     H45070   0.827   2.261   5.238 -0.9448  0.3222 -1.6341
  334MOL0     H45071   1.007   2.203   5.231 -0.1857  0.0399  1.3508
  334MOL0     H45072   0.975   3.073   5.533  0.4614 -2.4658 -0.3683
  334MOL0     H45073   0.866   3.174   5.738 -0.2997  0.5543 -1.0614
  334MOL0     H45074   0.705   3.202   6.042 -0.0721 -0.0702 -1.5864
  334MOL0     H45075   0.756   3.355   6.232  1.7837  2.1217 -0.0703
  334MOL0     H45076   1.463   3.728   7.895 -1.0042  1.3174  2.8791
  334MOL0     H45077   1.565   3.810   8.082 -1.3050 -3.6883 -1.7377
  334MOL0     H45078   1.628   4.073   8.395  0.2902  1.1069 -3.2816
  334MOL0     H45079   1.701   4.222   8.578  2.6124  2.5271  2.3216
  334MOL0     H45080   1.822   4.366   8.737 -1.7421  1.3152 -1.4237
  334MOL0     H45081   1.861   4.200   8.778  1.8344  0.5173  1.8392
  334MOL0     H45082   1.958   4.399   8.944  2.0848  2.0575 -0.3266
  334MOL0     H45083   2.054   4.425   8.808  3.0567 -1.6873  0.3580
  334MOL0     H45084   2.155   4.202   8.819 -1.8182 -0.2462 -0.4996
  334MOL0     H45085   2.072   4.161   8.961  1.4660  0.9393  2.1858
  334MOL0     H45086   2.164   4.357   9.069 -1.3881 -0.6505 -0.7070
  334MOL0     H45087   2.228   4.423   8.924  1.9199 -0.7189  0.8086
  334MOL0     H45088   2.490   4.091   9.056  0.4783  1.2663 -0.6240
  334MOL0     H45089   2.094   4.186   8.441  1.0371  1.3892 -0.7300
  334MOL0     H45090   2.021   4.047   8.239 -1.6727 -3.8793 -1.2653
  335MOL0     O45091  11.371   6.747  11.259  0.7375  0.3970 -0.4709
  335MOL0     C45092  11.316   6.858  11.241  0.9740  0.4870  0.2121
  335MOL0     O45093  11.347   6.972  11.299 -0.3813  0.2196  0.1844
  335MOL0     C45094  11.440   6.976  11.398 -0.2306 -0.0556  0.1206
  335MOL0     C45095  11.544   7.079  11.400  0.0890  0.0890  0.0258
  335MOL0     C45096  11.634   7.086  11.512  0.8731 -0.2032 -0.3328
  335MOL0     C45097  11.615   6.998  11.619  0.3855 -0.9275 -0.6267
  335MOL0     O45098  11.673   7.029  11.738 -0.3647  0.2383 -0.2798
  335MOL0     C45099  11.753   6.920  11.796 -0.0250 -0.8969 -0.5078
  335MOL0     C45100  11.888   6.877  11.734 -0.4340  1.2797  0.1547
  335MOL0     C45101  11.872   6.793  11.598  0.1156  0.6318 -0.5220
  335MOL0     C45102  11.818   6.647  11.633 -0.4655  0.3755  0.7239
  335MOL0     C45103  11.841   6.553  11.516 -0.5674 -0.1670 -0.3807
  335MOL0     C45104  11.727   6.561  11.414  0.7992 -0.2414  1.1864
  335MOL0     C45105  11.753   6.466  11.292 -0.3342 -0.3953  1.1051
  335MOL0     C45106  11.640   6.454  11.179 -0.7474 -0.2284  0.2014
  335MOL0     N45107  11.705   6.505  11.064 -0.4994 -0.0989 -0.0955
  335MOL0     C45108  11.691   6.635  11.026 -0.4166  0.7309 -0.9645
  335MOL0     C45109  11.784   6.645  10.925 -1.2960  0.5921 -0.4480
  335MOL0     C45110  11.790   6.767  10.848 -0.1477 -0.5010 -0.8316
  335MOL0     C45111  11.876   6.750  10.718  0.1753 -0.1349 -1.0996
  335MOL0     C45112  11.850   6.863  10.614  0.5557 -0.6448 -1.4701
  335MOL0     C45113  11.907   6.836  10.472 -0.2696 -0.7402 -0.0254
  335MOL0     O45114  11.835   6.732  10.396  0.3519  0.1121  0.1967
  335MOL0     C45115  11.701   6.751  10.364  0.1238  0.0879  0.5943
  335MOL0     C45116  11.641   6.878  10.343 -0.1059  0.3235  1.2596
  335MOL0     C45117  11.512   6.898  10.292 -0.1133  0.0175 -0.1562
  335MOL0     C45118  11.480   7.041  10.268 -0.1319 -0.5627  0.5124
  335MOL0     C45119  11.432   6.789  10.267  0.1164  0.5322 -0.1522
  335MOL0     C45120  11.296   6.787  10.224 -0.8042  0.4155  0.2939
  335MOL0     O45121  11.235   6.664  10.224  0.6737  1.0763 -0.1043
  335MOL0     C45122  11.108   6.642  10.174 -0.1275 -0.4730 -0.0265
  335MOL0     C45123  11.014   6.592  10.260 -0.3533 -0.2048  0.6990
  335MOL0     C45124  10.884   6.572  10.208 -0.3280  0.2801 -0.4587
  335MOL0     C45125  10.852   6.604  10.075  0.9284 -0.7053 -0.1446
  335MOL0     O45126  10.725   6.608  10.025 -0.0310  0.0056  0.5482
  335MOL0     C45127  10.617   6.666  10.102 -0.3021  0.2236  0.2253
  335MOL0     C45128  10.530   6.546  10.153  0.3974 -0.4041 -0.2496
  335MOL0     C45129  10.475   6.444  10.054  0.1617 -1.3662 -0.0969
  335MOL0     C45130  10.322   6.461  10.040 -0.0068 -0.8167 -0.2902
  335MOL0     C45131  10.270   6.588   9.968  0.3330 -0.7497 -0.5656
  335MOL0     C45132  10.313   6.579   9.819  0.5774 -0.5158 -0.9264
  335MOL0     C45133  10.229   6.483   9.744  0.2058 -0.1159 -0.3304
  335MOL0     C45134  10.267   6.489   9.592 -0.8204 -0.8927 -0.5549
  335MOL0    Cl45135  10.118   6.411   9.512  0.2836  0.1073  0.3265
  335MOL0     C45136  10.960   6.644   9.990  0.5916  0.6414  0.0281
  335MOL0     C45137  11.092   6.652  10.044 -0.0998 -0.6771 -0.2326
  335MOL0     O45138  11.246   6.896  10.187 -0.1345  0.0471 -0.3474
  335MOL0     C45139  11.502   6.667  10.281  0.7453  0.2947 -0.2447
  335MOL0     C45140  11.635   6.644  10.312 -0.5864 -1.3644 -0.1048
  335MOL0     N45141  11.829   6.518  10.897 -0.2566  0.1592  0.3750
  335MOL0     N45142  11.793   6.436  10.986 -0.0840 -1.0546  0.6354
  335MOL0     C45143  11.504   6.911  11.619  0.5234  0.5635  0.1830
  335MOL0     C45144  11.414   6.902  11.510  0.1004  1.1058 -0.3562
  335MOL0     C45145  11.194   6.871  11.156  0.4593  0.9683  0.3005
  335MOL0     C45146  11.122   6.758  11.125 -0.7976  0.1626  0.0911
  335MOL0     C45147  11.002   6.774  11.063  0.2873 -0.0286 -0.2955
  335MOL0     C45148  10.940   6.898  11.030 -0.2942 -0.0896  0.0882
  335MOL0     O45149  10.820   6.893  10.963 -0.2835 -0.2765  0.1441
  335MOL0     C45150  10.800   6.996  10.859 -0.5504  0.3997 -0.9281
  335MOL0     C45151  10.676   6.959  10.777 -0.5681  1.0100  0.3927
  335MOL0     C45152  10.541   6.953  10.853 -0.4247  0.2686  1.2737
  335MOL0     C45153  10.422   6.930  10.768  0.3035  1.1004 -0.0617
  335MOL0     C45154  10.417   6.786  10.738 -1.0499 -0.6503  0.8986
  335MOL0     C45155  10.425   6.666  10.728 -0.0114 -0.5435  1.1270
  335MOL0     C45156  11.020   7.008  11.073 -0.6552  1.0389  0.2197
  335MOL0     C45157  11.151   6.995  11.124  0.6640 -0.7704  0.5029
  335MOL0     H45158  11.543   7.149  11.317 -0.7120  0.2427  0.1612
  335MOL0     H45159  11.705   7.168  11.517 -2.6183  3.0807 -0.1726
  335MOL0     H45160  11.782   6.955  11.895 -3.4484  0.5825  0.1238
  335MOL0     H45161  11.686   6.835  11.811 -2.2211  1.0541  1.4057
  335MOL0     H45162  11.959   6.957  11.715  1.0238 -0.2329 -1.1401
  335MOL0     H45163  11.944   6.816  11.806 -1.5558 -1.8641 -1.4171
  335MOL0     H45164  11.807   6.847  11.528  0.2864  1.2582 -0.2063
  335MOL0     H45165  11.968   6.788  11.545 -0.2144 -0.1575 -1.0511
  335MOL0     H45166  11.887   6.609  11.708  0.3419  0.1740 -0.1114
  335MOL0     H45167  11.713   6.649  11.666 -1.0439  0.4847 -0.9842
  335MOL0     H45168  11.932   6.578  11.461  0.7910 -0.4855  1.6186
  335MOL0     H45169  11.845   6.453  11.561  0.3444  0.0653  0.0632
  335MOL0     H45170  11.629   6.549  11.461  0.8400 -1.3341  1.0296
  335MOL0     H45171  11.730   6.661  11.369  0.7779 -1.2194 -1.1342
  335MOL0     H45172  11.850   6.499  11.252  0.2136  0.5402  3.0621
  335MOL0     H45173  11.771   6.366  11.333  2.7115 -0.4305 -0.0092
  335MOL0     H45174  11.554   6.514  11.212 -0.2001  0.5279  0.2712
  335MOL0     H45175  11.612   6.348  11.174 -2.6127  0.1711 -5.9371
  335MOL0     H45176  11.617   6.704  11.065 -0.9757 -0.9712  1.2125
  335MOL0     H45177  11.685   6.785  10.822 -0.1866  0.8037  0.1626
  335MOL0     H45178  11.815   6.852  10.912 -4.5033 -0.0332  0.5852
  335MOL0     H45179  11.846   6.652  10.678 -0.7486 -0.8377  1.1439
  335MOL0     H45180  11.976   6.741  10.762 -0.1815  2.0856  0.3420
  335MOL0     H45181  11.895   6.948  10.666  0.2516 -2.7333  2.6938
  335MOL0     H45182  11.743   6.878  10.599  0.4840 -0.2684 -0.6640
  335MOL0     H45183  12.015   6.816  10.473 -0.2496 -0.9311 -1.9091
  335MOL0     H45184  11.899   6.930  10.416  1.4704 -2.0506 -2.7223
  335MOL0     H45185  11.701   6.968  10.353 -0.1459  0.8394 -2.1067
  335MOL0     H45186  11.551   7.111  10.312  1.0987 -1.3350 -0.1668
  335MOL0     H45187  11.473   7.062  10.161  1.8793  1.4497  0.7028
  335MOL0     H45188  11.384   7.067  10.313 -1.1360 -0.1544 -1.7461
  335MOL0     H45189  11.043   6.586  10.364 -0.6767 -0.0916  0.7988
  335MOL0     H45190  10.811   6.542  10.282  2.7102  2.1430  3.7524
  335MOL0     H45191  10.657   6.722  10.187 -2.1863  0.5199  0.9556
  335MOL0     H45192  10.563   6.738  10.040 -1.8969 -1.8781 -0.9434
  335MOL0     H45193  10.597   6.494  10.221  0.2585 -2.8701 -1.8698
  335MOL0     H45194  10.444   6.587  10.207  2.1702  1.8951  1.0176
  335MOL0     H45195  10.496   6.343  10.090 -0.2496 -0.9483  1.3888
  335MOL0     H45196  10.529   6.458   9.960  1.2765  0.0881  0.7211
  335MOL0     H45197  10.270   6.381   9.985 -3.2347  1.0408 -0.1658
  335MOL0     H45198  10.276   6.456  10.139  1.3705 -1.7525  0.3426
  335MOL0     H45199  10.317   6.680  10.004  0.0807  0.1135 -2.3202
  335MOL0     H45200  10.162   6.600   9.976  0.5827  3.0598 -1.1828
  335MOL0     H45201  10.295   6.680   9.782 -0.9861 -0.1551  0.6732
  335MOL0     H45202  10.416   6.551   9.799  0.2185 -1.1237 -1.9861
  335MOL0     H45203  10.124   6.509   9.761  0.0698 -1.7307  1.5137
  335MOL0     H45204  10.238   6.379   9.775  1.2630 -0.1907 -0.8222
  335MOL0     H45205  10.364   6.439   9.584 -1.0891 -1.8898  1.5402
  335MOL0     H45206  10.280   6.590   9.551 -2.1452 -0.9746 -1.2023
  335MOL0     H45207  10.963   6.672   9.885  1.4399  0.8896  0.1150
  335MOL0     H45208  11.179   6.687   9.990  0.0201 -2.1455 -1.0465
  335MOL0     H45209  11.450   6.574  10.258  0.6087 -0.1521  1.7374
  335MOL0     H45210  11.679   6.545  10.319 -1.2473 -1.5600  1.7588
  335MOL0     H45211  11.473   6.854  11.706 -0.7994  1.5494  0.3893
  335MOL0     H45212  11.340   6.822  11.512  0.2669  0.9557 -0.2364
  335MOL0     H45213  11.157   6.661  11.159  0.1129  0.8354  1.1349
  335MOL0     H45214  10.940   6.690  11.033 -0.3331  0.7432 -1.2470
  335MOL0     H45215  10.786   7.095  10.902  0.3660  0.4501 -0.7213
  335MOL0     H45216  10.891   6.996  10.798  0.0849 -1.8347 -0.0764
  335MOL0     H45217  10.694   6.859  10.737 -1.0860 -0.2747  3.1901
  335MOL0     H45218  10.671   7.023  10.688 -2.1975 -2.1489 -2.0275
  335MOL0     H45219  10.540   7.048  10.907  1.9152  0.7129  0.6260
  335MOL0     H45220  10.552   6.878  10.932  1.1264 -2.4322 -1.2930
  335MOL0     H45221  10.416   7.001  10.685  1.2408  1.5258  0.2232
  335MOL0     H45222  10.338   6.952  10.834 -1.8317 -1.1407 -1.8332
  335MOL0     H45223  10.427   6.562  10.705 -0.5986 -0.6098  1.3567
  335MOL0     H45224  10.974   7.107  11.068  0.0414  1.3439 -0.4601
  335MOL0     H45225  11.198   7.091  11.141  5.8400 -2.2879 -3.0033
  336MOL0     O45226  10.079   8.151  11.051  0.2307  0.7240 -0.2605
  336MOL0     C45227  10.144   8.249  11.032  0.6132  0.4088  0.2766
  336MOL0     O45228  10.121   8.371  11.093  0.5680  0.5938  0.0491
  336MOL0     C45229  10.005   8.386  11.165  0.0660 -0.5423 -0.2007
  336MOL0     C45230   9.888   8.309  11.157  0.9062 -1.0078  0.0017
  336MOL0     C45231   9.784   8.339  11.250 -0.1841  0.3030  1.0052
  336MOL0     C45232   9.786   8.455  11.331  0.7875 -0.9204  0.1498
  336MOL0     O45233   9.685   8.505  11.414  0.1504 -0.0004  0.8736
  336MOL0     C45234   9.554   8.447  11.391 -0.0105 -0.0099 -0.8092
  336MOL0     C45235   9.469   8.502  11.507  0.2895  0.1370 -0.0072
  336MOL0     C45236   9.415   8.642  11.483 -0.2248  0.4346  0.6751
  336MOL0     C45237   9.282   8.672  11.559 -0.7434  0.3595  0.4802
  336MOL0     C45238   9.166   8.584  11.517 -0.2590  0.6058  0.5905
  336MOL0     C45239   9.031   8.634  11.555  1.1507 -0.1862  0.0451
  336MOL0     C45240   8.914   8.566  11.484 -0.8483  0.1800 -0.0580
  336MOL0     C45241   8.850   8.447  11.556 -0.1720  0.9669  0.3427
  336MOL0     N45242   8.944   8.343  11.594  0.3602 -0.3664 -0.0129
  336MOL0     C45243   9.007   8.309  11.716  0.5632 -0.0288  0.2217
  336MOL0     C45244   9.098   8.216  11.677  1.0778  0.3928  0.3899
  336MOL0     C45245   9.176   8.124  11.765  0.3747  0.2102  0.1236
  336MOL0     C45246   9.304   8.179  11.803 -1.1470  0.8926  1.1372
  336MOL0     C45247   9.400   8.144  11.686 -0.7972 -0.0058  0.0250
  336MOL0     C45248   9.541   8.179  11.719 -0.4960  1.3515  0.0487
  336MOL0     O45249   9.624   8.150  11.603  0.1724 -0.3186 -0.2078
  336MOL0     C45250   9.754   8.131  11.646  0.8345  0.0473  0.0026
  336MOL0     C45251   9.787   8.020  11.712 -0.2941 -0.0798  0.1487
  336MOL0     C45252   9.923   8.007  11.756  0.4230  1.1328 -0.6740
  336MOL0     C45253   9.952   7.880  11.839 -0.4779 -0.5313 -0.0449
  336MOL0     C45254  10.009   8.112  11.739 -0.5293 -1.3640  0.0168
  336MOL0     C45255  10.152   8.114  11.776  0.1281 -0.9979  0.1503
  336MOL0     O45256  10.222   8.234  11.779  0.0859 -0.1498 -0.0088
  336MOL0     C45257  10.331   8.257  11.854 -0.7887  0.2568  0.2572
  336MOL0     C45258  10.451   8.237  11.792  0.6229 -0.6754  0.4015
  336MOL0     C45259  10.572   8.251  11.860 -0.1790 -0.5175 -0.1593
  336MOL0     C45260  10.569   8.295  11.988 -0.4370 -0.8075  0.4677
  336MOL0     O45261  10.700   8.308  12.027 -0.2693 -1.3528 -0.1950
  336MOL0     C45262  10.722   8.384  12.144 -0.1375  0.0336 -1.6733
  336MOL0     C45263  10.871   8.419  12.147  0.4916  1.1348  0.0550
  336MOL0     C45264  10.899   8.523  12.251  0.3478  0.5484  0.3787
  336MOL0     C45265  11.051   8.532  12.283 -0.7700 -0.0391 -0.0654
  336MOL0     C45266  11.128   8.625  12.185 -0.4190  0.1695 -0.5291
  336MOL0     C45267  11.278   8.595  12.198 -0.6172 -0.3157  0.6805
  336MOL0     C45268  11.357   8.710  12.156 -1.1411  0.0396 -0.3724
  336MOL0     C45269  11.505   8.692  12.152 -0.0171 -1.1595 -0.7168
  336MOL0    Cl45270  11.560   8.679  12.316 -0.0598 -0.0275  0.0973
  336MOL0     C45271  10.449   8.318  12.053  0.0162 -0.7184  0.0522
  336MOL0     C45272  10.330   8.302  11.985 -0.3698  0.4240  0.6423
  336MOL0     O45273  10.203   8.010  11.806  0.0634  0.4983  0.0179
  336MOL0     C45274   9.972   8.220  11.668 -0.1750 -0.5324  0.1373
  336MOL0     C45275   9.840   8.228  11.616  1.0392 -0.3316  0.0998
  336MOL0     N45276   9.082   8.191  11.545  0.6266 -0.6728  1.2267
  336MOL0     N45277   9.005   8.276  11.497 -0.8133 -0.2519  2.0111
  336MOL0     C45278   9.913   8.523  11.343 -1.0575  0.4224  0.0953
  336MOL0     C45279  10.019   8.492  11.257 -0.0660 -0.3643 -0.2284
  336MOL0     C45280  10.270   8.242  10.948  0.2011  0.0701 -0.3777
  336MOL0     C45281  10.272   8.168  10.828 -0.1029  0.0203 -0.2101
  336MOL0     C45282  10.389   8.164  10.757 -0.6388 -0.3440  0.8562
  336MOL0     C45283  10.503   8.233  10.801  0.1106 -0.2472 -0.4462
  336MOL0     O45284  10.624   8.218  10.738 -0.0948 -0.2020 -0.9038
  336MOL0     C45285  10.647   8.123  10.629  0.1273 -0.3107  0.4099
  336MOL0     C45286  10.693   7.976  10.664 -0.4188 -0.1825  0.8193
  336MOL0     C45287  10.764   7.903  10.550 -0.6925  0.1962  1.1885
  336MOL0     C45288  10.782   7.757  10.567 -0.1075  0.3761  0.9398
  336MOL0     C45289  10.882   7.730  10.674  0.4215  0.7674  0.1911
  336MOL0     C45290  10.959   7.720  10.764  0.3633  0.1460 -0.6541
  336MOL0     C45291  10.499   8.313  10.916 -0.5915 -0.5841 -0.4413
  336MOL0     C45292  10.382   8.325  10.987  0.4645  0.0615  0.3273
  336MOL0     H45293   9.883   8.226  11.087  5.0379 -0.9569 -0.5876
  336MOL0     H45294   9.689   8.291  11.225 -2.0436  4.0780  0.1043
  336MOL0     H45295   9.515   8.469  11.292 -1.5175 -1.3640 -0.5536
  336MOL0     H45296   9.566   8.338  11.395 -2.0219 -0.2220  1.6971
  336MOL0     H45297   9.381   8.437  11.514 -0.3178  0.6855 -1.8383
  336MOL0     H45298   9.513   8.494  11.607 -1.5303 -2.7464  0.6970
  336MOL0     H45299   9.489   8.715  11.518 -0.5740  1.1106  0.0398
  336MOL0     H45300   9.407   8.655  11.375  2.3095  0.9491  0.4849
  336MOL0     H45301   9.280   8.676  11.668 -0.4773  5.8398  0.5519
  336MOL0     H45302   9.271   8.780  11.547  3.3450  1.2529  3.0543
  336MOL0     H45303   9.181   8.578  11.409  0.5297  0.3820  0.7039
  336MOL0     H45304   9.173   8.484  11.562  2.0161  1.6732  2.8470
  336MOL0     H45305   9.012   8.634  11.662 -1.6520  3.8547 -0.2594
  336MOL0     H45306   9.031   8.742  11.539  1.4257 -0.0810  0.7142
  336MOL0     H45307   8.835   8.639  11.466 -0.6498  0.3811 -0.1297
  336MOL0     H45308   8.937   8.533  11.382 -1.7215  3.2399 -1.3718
  336MOL0     H45309   8.781   8.416  11.476 -0.8100  2.3957  0.3139
  336MOL0     H45310   8.783   8.467  11.640  1.3791  0.8620  1.6467
  336MOL0     H45311   8.987   8.347  11.816 -1.3806 -1.8309  0.5910
  336MOL0     H45312   9.115   8.094  11.850 -4.0728 -1.2577 -3.2095
  336MOL0     H45313   9.175   8.027  11.716 -0.1269  0.0438  0.4596
  336MOL0     H45314   9.351   8.135  11.892  2.6803  2.4574  0.0677
  336MOL0     H45315   9.304   8.285  11.831 -0.7627  0.2904  3.6895
  336MOL0     H45316   9.371   8.195  11.594 -2.6858  1.6250  1.4377
  336MOL0     H45317   9.392   8.037  11.665 -0.0377  0.1010 -0.8572
  336MOL0     H45318   9.572   8.115  11.802  1.0553 -2.3552 -3.1152
  336MOL0     H45319   9.550   8.286  11.744  5.7858  0.9803  1.2698
  336MOL0     H45320   9.707   7.950  11.735 -1.0051  0.4219 -0.7170
  336MOL0     H45321  10.026   7.908  11.915  0.5233 -1.5836 -0.5835
  336MOL0     H45322   9.864   7.837  11.888 -2.3952  1.8595 -1.2172
  336MOL0     H45323   9.996   7.796  11.783  1.6807  0.2083  0.4516
  336MOL0     H45324  10.455   8.199  11.690 -1.5408 -0.9614  0.3670
  336MOL0     H45325  10.664   8.227  11.808  1.5556  1.3721  1.8613
  336MOL0     H45326  10.661   8.476  12.145  1.1681  0.9603  0.4155
  336MOL0     H45327  10.690   8.318  12.226  1.9083  1.0488  0.0450
  336MOL0     H45328  10.918   8.324  12.175  3.4602  3.1145  2.5233
  336MOL0     H45329  10.911   8.441  12.048 -1.2338 -1.7383 -1.4413
  336MOL0     H45330  10.852   8.497  12.346  2.5796 -0.3967  1.2950
  336MOL0     H45331  10.869   8.623  12.217  0.9118 -0.5578 -4.0119
  336MOL0     H45332  11.083   8.546  12.386 -1.2644 -0.5542  0.1562
  336MOL0     H45333  11.089   8.432  12.261 -0.4549 -0.1666  1.0004
  336MOL0     H45334  11.107   8.729  12.211  0.4185  1.0382 -3.0659
  336MOL0     H45335  11.099   8.611  12.081 -1.6016  3.7260 -0.7990
  336MOL0     H45336  11.302   8.557  12.298  0.4576 -1.1766  0.1122
  336MOL0     H45337  11.302   8.517  12.125  1.1096  0.8739 -0.0816
  336MOL0     H45338  11.323   8.795  12.215 -1.3866  1.0591 -1.9080
  336MOL0     H45339  11.334   8.732  12.051 -0.9121  0.2772 -0.3737
  336MOL0     H45340  11.554   8.782  12.114  0.8066 -1.3237 -0.0785
  336MOL0     H45341  11.534   8.605  12.092 -0.0109  1.0248 -4.1801
  336MOL0     H45342  10.448   8.345  12.158 -1.6264  1.8836 -0.5228
  336MOL0     H45343  10.233   8.317  12.032 -0.2369  1.1282  0.6926
  336MOL0     H45344  10.041   8.301  11.650  1.1036 -1.0641  2.2382
  336MOL0     H45345   9.820   8.307  11.544  1.9258  0.8938  1.1710
  336MOL0     H45346   9.919   8.604  11.414 -0.2474  0.8687 -0.4722
  336MOL0     H45347  10.114   8.542  11.243  0.0136 -1.4679 -5.6198
  336MOL0     H45348  10.188   8.109  10.792 -0.9790  1.5815 -0.7872
  336MOL0     H45349  10.388   8.100  10.670 -0.1887  0.9077 -0.0848
  336MOL0     H45350  10.559   8.122  10.563  0.2120  2.2828  0.1579
  336MOL0     H45351  10.721   8.172  10.564 -0.9752 -0.0790 -0.7156
  336MOL0     H45352  10.610   7.914  10.697  0.0354 -1.4331 -0.2824
  336MOL0     H45353  10.766   7.981  10.745  0.1821  1.8569  0.2375
  336MOL0     H45354  10.858   7.955  10.532 -1.4329  0.8852 -0.9214
  336MOL0     H45355  10.714   7.917  10.454  0.1099  1.2205  0.9043
  336MOL0     H45356  10.821   7.722  10.471  0.9558  1.7256  0.8534
  336MOL0     H45357  10.687   7.710  10.593 -0.9081  0.8525 -1.0005
  336MOL0     H45358  11.029   7.699  10.842  1.0282 -1.9791 -1.7593
  336MOL0     H45359  10.592   8.356  10.952  0.4278 -2.6922 -0.3611
  336MOL0     H45360  10.370   8.387  11.076  1.4149 -0.3386  0.7474
  337MOL0     O45361   7.962   5.591   0.139 -0.5112 -0.6054 -0.0736
  337MOL0     C45362   8.010   5.504   0.061 -0.2282  0.1861  0.2267
  337MOL0     O45363   7.945   5.386   0.036  0.6270 -0.2256  0.3354
  337MOL0     C45364   7.830   5.342   0.101 -0.1914 -0.6336 -0.1058
  337MOL0     C45365   7.806   5.360   0.235 -0.2842 -0.2860  0.0459
  337MOL0     C45366   7.674   5.322   0.287 -1.0936  0.3994 -0.0249
  337MOL0     C45367   7.576   5.276   0.205 -0.7434  0.3729 -0.2247
  337MOL0     O45368   7.485   5.210   0.273  0.6188 -0.2112 -0.4190
  337MOL0     C45369   7.421   5.095   0.217  0.4708  0.1514  0.3676
  337MOL0     C45370   7.301   5.057   0.307 -0.4581  0.1505  0.1133
  337MOL0     C45371   7.210   4.942   0.247  0.3243  0.7982  0.5483
  337MOL0     C45372   7.126   4.877   0.358  0.6405  0.0310 -0.4542
  337MOL0     C45373   7.049   4.756   0.311 -0.1987 -0.7809  0.3584
  337MOL0     C45374   6.933   4.786   0.209 -0.3008 -0.3533 -0.3050
  337MOL0     C45375   6.843   4.665   0.199 -0.0611 -0.0895  0.0306
  337MOL0     C45376   6.710   4.685   0.139 -0.0308  0.1950  0.3723
  337MOL0     N45377   6.639   4.808   0.177  0.2785  0.3038  0.0756
  337MOL0     C45378   6.644   4.928   0.105  0.2493  0.2889  0.4446
  337MOL0     C45379   6.594   5.012   0.198  0.6761  0.4402 -0.1924
  337MOL0     C45380   6.592   5.158   0.188  0.0758 -0.5560  0.5386
  337MOL0     C45381   6.489   5.216   0.082 -0.1145 -0.9548 -1.3321
  337MOL0     C45382   6.344   5.180   0.097 -0.9841 -0.7145 -0.6787
  337MOL0     C45383   6.280   5.261   0.197 -0.2678 -0.5829  0.5227
  337MOL0     O45384   6.146   5.219   0.223 -0.1847  0.7021  0.8940
  337MOL0     C45385   6.081   5.305   0.302  0.5179 -1.3837  0.6147
  337MOL0     C45386   5.940   5.273   0.329 -0.5273 -0.4396  0.4728
  337MOL0     C45387   5.842   5.369   0.373 -0.4325 -0.1749  0.2639
  337MOL0     C45388   5.698   5.328   0.366  0.0738  0.6766  0.7110
  337MOL0     C45389   5.894   5.487   0.430  0.3215  0.6423  0.2851
  337MOL0     C45390   5.808   5.590   0.494 -0.0833 -0.4065 -0.2408
  337MOL0     O45391   5.673   5.600   0.451  0.1521 -0.0170  0.0586
  337MOL0     C45392   5.582   5.656   0.541  0.0474  0.4870  0.1461
  337MOL0     C45393   5.537   5.567   0.642 -0.2426 -0.3553 -0.8306
  337MOL0     C45394   5.451   5.615   0.733  0.0551 -0.0085 -0.3650
  337MOL0     C45395   5.405   5.743   0.722 -1.3177 -0.1571  1.3269
  337MOL0     O45396   5.321   5.791   0.819  0.1352 -0.3426 -0.0426
  337MOL0     C45397   5.200   5.861   0.764 -0.5262  0.2955 -0.4556
  337MOL0     C45398   5.092   5.852   0.863 -0.3146  0.8113  0.3925
  337MOL0     C45399   4.980   5.933   0.812  0.5325  0.3522 -0.4103
  337MOL0     C45400   4.991   6.084   0.804 -0.1270  0.2303  0.7173
  337MOL0     C45401   4.844   6.136   0.798  0.0087  0.2855  0.4342
  337MOL0     C45402   4.836   6.287   0.793 -0.0289 -0.7179 -0.2047
  337MOL0     C45403   4.696   6.343   0.759 -0.1848 -0.6796  0.5915
  337MOL0     C45404   4.715   6.479   0.704 -0.0525 -0.1591  0.5099
  337MOL0    Cl45405   4.548   6.533   0.644 -0.0546  0.1430  0.1289
  337MOL0     C45406   5.451   5.827   0.615  0.7269 -0.1220 -0.4919
  337MOL0     C45407   5.538   5.789   0.521 -0.6073 -0.8974  1.2217
  337MOL0     O45408   5.856   5.665   0.573  0.4509  0.6275 -0.0779
  337MOL0     C45409   6.032   5.514   0.423  0.2214 -0.2043 -0.3769
  337MOL0     C45410   6.126   5.433   0.352  0.4797  0.1824 -0.6213
  337MOL0     N45411   6.543   4.943   0.309 -0.3413 -0.0836 -0.3615
  337MOL0     N45412   6.579   4.819   0.296  0.3180 -0.0727 -0.2674
  337MOL0     C45413   7.598   5.257   0.064  0.0642 -0.2979 -0.0198
  337MOL0     C45414   7.734   5.282   0.022 -0.7423  0.5148  0.0998
  337MOL0     C45415   8.141   5.529  -0.003  0.9695 -0.8328  0.0667
  337MOL0     C45416   8.184   5.439  -0.097  0.0422 -0.1672  0.6079
  337MOL0     C45417   8.294   5.462  -0.170  0.1887  0.1005  0.5423
  337MOL0     C45418   8.377   5.568  -0.138 -1.1691 -0.3395  0.4719
  337MOL0     O45419   8.488   5.571  -0.220 -0.0090 -0.1284 -0.1916
  337MOL0     C45420   8.558   5.688  -0.222 -0.8921 -0.2738 -0.7850
  337MOL0     C45421   8.643   5.705  -0.347 -0.9292  0.4506 -1.0355
  337MOL0     C45422   8.739   5.596  -0.356  0.0355 -0.1652  0.4980
  337MOL0     C45423   8.847   5.628  -0.463  0.4400  0.1638 -0.3990
  337MOL0     C45424   8.805   5.668  -0.602  0.2862  0.1523 -0.3696
  337MOL0     C45425   8.767   5.675  -0.714  0.0438  0.0919  0.8947
  337MOL0     C45426   8.333   5.667  -0.046 -0.7536  0.3065 -0.3628
  337MOL0     C45427   8.214   5.646   0.013  0.1408  0.4963 -1.0763
  337MOL0     H45428   7.879   5.412   0.295 -1.5756 -0.5217  1.9208
  337MOL0     H45429   7.649   5.347   0.389  2.6133  2.8648  0.4668
  337MOL0     H45430   7.391   5.113   0.114 -0.6290 -0.2034  0.6122
  337MOL0     H45431   7.479   5.004   0.200 -0.3100 -0.3357  0.2727
  337MOL0     H45432   7.347   5.036   0.404 -1.7369  4.2768  1.8511
  337MOL0     H45433   7.236   5.142   0.330 -2.4199 -1.3170  0.2994
  337MOL0     H45434   7.142   4.970   0.165  2.2081 -0.3806 -1.5452
  337MOL0     H45435   7.276   4.866   0.205 -1.0990 -0.8064  1.1077
  337MOL0     H45436   7.191   4.850   0.441 -1.3175  0.7480  1.4276
  337MOL0     H45437   7.055   4.951   0.398 -0.7328 -2.8842  3.0714
  337MOL0     H45438   7.113   4.673   0.279  1.4908  0.6437 -0.1027
  337MOL0     H45439   7.001   4.705   0.395 -1.7349  0.1922  0.1102
  337MOL0     H45440   6.882   4.881   0.228  2.1544  0.8391  0.7605
  337MOL0     H45441   6.984   4.802   0.114  1.1507 -1.1561  0.3053
  337MOL0     H45442   6.889   4.584   0.141 -2.5472 -2.0608  0.6299
  337MOL0     H45443   6.835   4.640   0.306  1.2855 -1.0219 -0.0547
  337MOL0     H45444   6.645   4.600   0.164 -0.3544 -0.9041 -3.5141
  337MOL0     H45445   6.717   4.683   0.030 -0.2207  1.8078  0.3108
  337MOL0     H45446   6.692   4.960   0.014 -1.2606  0.2515 -0.4023
  337MOL0     H45447   6.562   5.189   0.289 -1.0970  2.0282 -0.5259
  337MOL0     H45448   6.688   5.206   0.167 -1.0137  1.0449 -1.0857
  337MOL0     H45449   6.533   5.187  -0.014  1.8450  0.9475 -1.1169
  337MOL0     H45450   6.498   5.325   0.094 -3.2298 -0.7689  0.1379
  337MOL0     H45451   6.331   5.075   0.128 -2.7441 -0.0037  1.2673
  337MOL0     H45452   6.303   5.206  -0.001  0.0325  0.2983 -0.8491
  337MOL0     H45453   6.271   5.367   0.172  1.3331 -0.4355  0.4888
  337MOL0     H45454   6.330   5.252   0.294 -1.2656 -1.6519  0.9616
  337MOL0     H45455   5.909   5.177   0.289  0.5920 -0.5651 -0.1495
  337MOL0     H45456   5.698   5.220   0.384  1.3831  0.2860 -1.4132
  337MOL0     H45457   5.640   5.371   0.449  0.8350 -0.2742  1.7731
  337MOL0     H45458   5.646   5.355   0.274  0.2569 -0.8598  0.1174
  337MOL0     H45459   5.563   5.461   0.642  0.5599 -0.1599 -1.7691
  337MOL0     H45460   5.422   5.542   0.807  0.6942 -2.0473 -2.0379
  337MOL0     H45461   5.222   5.963   0.730  1.1010  0.2127  0.2712
  337MOL0     H45462   5.171   5.806   0.675  0.5499 -1.8981  0.4821
  337MOL0     H45463   5.061   5.748   0.855  5.3934 -1.1152 -0.8117
  337MOL0     H45464   5.122   5.873   0.966  0.2927 -0.2832  0.4444
  337MOL0     H45465   4.894   5.913   0.877 -0.3391 -0.5242 -1.7715
  337MOL0     H45466   4.940   5.887   0.721 -0.7767 -2.6035  1.5141
  337MOL0     H45467   5.040   6.122   0.895 -1.6724  2.6923  0.6331
  337MOL0     H45468   5.050   6.124   0.721  0.1733 -1.0841  0.2869
  337MOL0     H45469   4.798   6.107   0.893 -0.6396  4.6547  1.6760
  337MOL0     H45470   4.785   6.094   0.715  2.1951  0.2495 -1.1965
  337MOL0     H45471   4.865   6.325   0.892 -2.0340  1.9425 -0.5155
  337MOL0     H45472   4.913   6.317   0.722  2.0122 -0.1538  2.1285
  337MOL0     H45473   4.633   6.343   0.848  0.0855 -0.0521  0.7863
  337MOL0     H45474   4.644   6.284   0.683 -2.1709  0.3271  1.0896
  337MOL0     H45475   4.784   6.483   0.619 -0.9662  1.0404 -0.2010
  337MOL0     H45476   4.729   6.541   0.793 -3.3621 -1.0201  1.7909
  337MOL0     H45477   5.432   5.934   0.617  1.2193 -0.0378 -0.2068
  337MOL0     H45478   5.579   5.857   0.446  1.2621 -0.9017  2.1930
  337MOL0     H45479   6.062   5.609   0.466  1.8763 -0.3005 -1.2661
  337MOL0     H45480   6.230   5.465   0.353  0.5487 -0.0368 -0.7260
  337MOL0     H45481   7.530   5.223  -0.014  0.9699  1.1713 -1.5136
  337MOL0     H45482   7.768   5.260  -0.079 -1.4624 -2.0112  0.3284
  337MOL0     H45483   8.132   5.346  -0.117  2.3381 -1.4239  0.0052
  337MOL0     H45484   8.317   5.382  -0.239  0.4287 -2.2472  3.1446
  337MOL0     H45485   8.493   5.774  -0.203  1.3330  1.1615  0.9018
  337MOL0     H45486   8.619   5.684  -0.131 -1.1880 -1.5610 -0.6243
  337MOL0     H45487   8.691   5.803  -0.349  2.4427 -1.0370 -0.5385
  337MOL0     H45488   8.568   5.711  -0.426 -1.6022 -1.7596 -0.6306
  337MOL0     H45489   8.680   5.508  -0.385 -0.4058 -0.3046  1.7893
  337MOL0     H45490   8.787   5.564  -0.263  0.3476 -2.1493 -0.2855
  337MOL0     H45491   8.919   5.546  -0.470  2.2330  1.6896 -0.8342
  337MOL0     H45492   8.901   5.714  -0.423 -1.7278  2.2314 -1.6260
  337MOL0     H45493   8.725   5.690  -0.811  1.1719 -1.8401  0.0355
  337MOL0     H45494   8.387   5.758  -0.024  0.6659 -0.8638  1.2549
  337MOL0     H45495   8.166   5.713   0.085  2.1786 -0.0008  0.8419
  338MOL0     O45496   0.809   3.776  10.943 -0.1832  0.5439  0.6606
  338MOL0     C45497   0.897   3.780  10.856 -1.1386 -0.4326 -0.6110
  338MOL0     O45498   0.872   3.792  10.723 -0.6520 -0.3358 -0.7013
  338MOL0     C45499   0.748   3.835  10.689  0.7330  0.6658 -0.2274
  338MOL0     C45500   0.630   3.753  10.714  0.2327 -0.4958 -0.7664
  338MOL0     C45501   0.506   3.797  10.696  0.5941 -0.4579 -0.8077
  338MOL0     C45502   0.492   3.925  10.640  1.1552  0.2268  0.5545
  338MOL0     O45503   0.360   3.971  10.618  0.1668 -0.5703 -0.6185
  338MOL0     C45504   0.253   3.920  10.704 -0.3997  0.2623 -0.0126
  338MOL0     C45505   0.149   4.028  10.728  0.4684 -0.1621 -0.6457
  338MOL0     C45506   0.038   3.969  10.819 -0.1135 -0.7811 -0.4856
  338MOL0     C45507   0.077   3.949  10.965  1.0699  0.1253 -1.1109
  338MOL0     C45508  -0.044   3.928  11.061 -0.1218  0.4706 -0.1485
  338MOL0     C45509  -0.120   3.794  11.031 -0.5062 -0.0180  0.7918
  338MOL0     C45510  -0.248   3.787  11.116 -0.7360  0.0739  0.4440
  338MOL0     C45511  -0.359   3.881  11.069 -0.3150  0.4111  0.7744
  338MOL0     N45512  -0.493   3.852  11.115 -0.3635  0.6856 -0.7619
  338MOL0     C45513  -0.609   3.896  11.046  0.0120  0.0814 -0.1925
  338MOL0     C45514  -0.717   3.858  11.131 -0.0273 -1.0015 -0.2905
  338MOL0     C45515  -0.862   3.910  11.097 -0.4001  0.8626  0.4465
  338MOL0     C45516  -0.882   4.052  11.145 -0.4666 -0.3193  0.3603
  338MOL0     C45517  -0.884   4.086  11.301 -0.3966 -0.8568  0.1638
  338MOL0     C45518  -1.010   4.010  11.367 -0.5943 -0.0453 -0.0873
  338MOL0     O45519  -1.131   4.031  11.296  0.0125  0.0265  0.1307
  338MOL0     C45520  -1.232   3.940  11.313 -0.1583 -0.3607 -0.9393
  338MOL0     C45521  -1.334   3.948  11.222  0.3755  1.4011 -0.1422
  338MOL0     C45522  -1.454   3.870  11.224  0.1527 -0.4581  0.4473
  338MOL0     C45523  -1.545   3.881  11.099  0.1441 -0.8742 -0.1743
  338MOL0     C45524  -1.456   3.775  11.331 -0.5276 -0.0610 -1.1662
  338MOL0     C45525  -1.565   3.666  11.351  0.1329 -0.4130 -0.2119
  338MOL0     O45526  -1.537   3.558  11.424 -0.2971  0.2026 -0.4502
  338MOL0     C45527  -1.641   3.471  11.466  0.1920  0.7767  0.5919
  338MOL0     C45528  -1.744   3.412  11.390 -0.1233 -0.4544 -0.5440
  338MOL0     C45529  -1.828   3.328  11.456  0.3382 -0.7491  0.7266
  338MOL0     C45530  -1.818   3.288  11.590 -0.6768 -0.0484 -0.4180
  338MOL0     O45531  -1.913   3.203  11.626  0.0116  0.2913  0.1406
  338MOL0     C45532  -1.899   3.159  11.761 -0.1662 -0.9805  0.4457
  338MOL0     C45533  -2.023   3.076  11.803  0.4272  1.2183  1.2343
  338MOL0     C45534  -2.026   2.938  11.726  0.3100  0.1904  0.2204
  338MOL0     C45535  -2.138   2.846  11.766 -0.4835  0.7338  0.0087
  338MOL0     C45536  -2.135   2.720  11.685  1.0707  0.0493 -0.6063
  338MOL0     C45537  -2.173   2.592  11.755  0.5526  0.3742 -1.1815
  338MOL0     C45538  -2.057   2.529  11.840  0.6812 -0.7128  0.6007
  338MOL0     C45539  -2.078   2.391  11.888  0.3791 -0.6152 -0.1983
  338MOL0    Cl45540  -1.934   2.336  11.980 -0.5138  0.0471 -0.2327
  338MOL0     C45541  -1.717   3.345  11.661  0.2770  0.4081  0.1279
  338MOL0     C45542  -1.632   3.436  11.599 -0.3659 -0.2925  0.8865
  338MOL0     O45543  -1.675   3.703  11.314  0.4143 -0.1486  0.2262
  338MOL0     C45544  -1.358   3.772  11.432  0.3223  0.7970  0.6989
  338MOL0     C45545  -1.244   3.857  11.419  0.1486  0.0817  0.2460
  338MOL0     N45546  -0.672   3.806  11.250 -0.8897 -0.2018  0.0280
  338MOL0     N45547  -0.540   3.797  11.233  1.2416  0.7183 -0.7195
  338MOL0     C45548   0.600   4.002  10.593  0.7706 -0.2631 -0.2127
  338MOL0     C45549   0.728   3.959  10.623 -0.6464  0.3135 -0.4853
  338MOL0     C45550   1.037   3.752  10.901 -0.4433 -0.0243 -0.1907
  338MOL0     C45551   1.149   3.781  10.819  0.2418  0.2936 -0.3072
  338MOL0     C45552   1.279   3.772  10.869  0.6432  0.3359 -0.2017
  338MOL0     C45553   1.302   3.719  10.999  0.5022  0.1616  0.1647
  338MOL0     O45554   1.425   3.699  11.065  0.1789 -0.6964  0.2171
  338MOL0     C45555   1.539   3.776  11.027 -0.1522 -0.5504 -0.4067
  338MOL0     C45556   1.657   3.781  11.135 -0.7520 -0.3491  0.8937
  338MOL0     C45557   1.741   3.653  11.142  0.5484 -0.5522 -0.3047
  338MOL0     C45558   1.858   3.684  11.230  0.3886 -0.1368  0.2298
  338MOL0     C45559   1.979   3.603  11.191 -0.0636 -0.0694  0.4010
  338MOL0     C45560   2.083   3.544  11.165 -0.2162 -0.7273  0.8483
  338MOL0     C45561   1.185   3.689  11.079  1.0871  0.1062  0.5708
  338MOL0     C45562   1.049   3.711  11.034  0.2455 -0.0796 -0.2854
  338MOL0     H45563   0.634   3.652  10.755 -0.8092 -0.3893 -0.3725
  338MOL0     H45564   0.426   3.729  10.720 -0.0672  0.4780 -0.3014
  338MOL0     H45565   0.206   3.829  10.667  0.3236 -0.5528  1.0298
  338MOL0     H45566   0.282   3.888  10.804  0.2396  0.4495 -0.1323
  338MOL0     H45567   0.196   4.115  10.775  0.4123 -0.4313 -0.0788
  338MOL0     H45568   0.116   4.055  10.627  2.2233  2.2343 -0.6674
  338MOL0     H45569  -0.049   4.035  10.810  0.5988 -0.1568 -3.8121
  338MOL0     H45570  -0.004   3.876  10.779 -2.5825  0.2528 -0.4871
  338MOL0     H45571   0.132   3.855  10.977 -0.7970 -0.8434  0.3186
  338MOL0     H45572   0.131   4.035  11.006 -2.0245  1.4298  0.5564
  338MOL0     H45573  -0.013   3.938  11.165 -0.2974  1.5521 -0.1888
  338MOL0     H45574  -0.117   4.004  11.033  1.3599  1.6924 -0.8277
  338MOL0     H45575  -0.141   3.793  10.924  0.0057  1.2886  0.6558
  338MOL0     H45576  -0.041   3.720  11.046 -0.1801  0.4850  1.6749
  338MOL0     H45577  -0.296   3.689  11.110  1.1850 -0.8620 -0.4701
  338MOL0     H45578  -0.218   3.800  11.220  1.0378  2.6402 -0.2869
  338MOL0     H45579  -0.364   3.863  10.961  0.0542 -3.3658  1.2527
  338MOL0     H45580  -0.331   3.982  11.100  0.3366  0.2193  0.8255
  338MOL0     H45581  -0.620   3.931  10.944 -0.5727 -0.8569 -0.4627
  338MOL0     H45582  -0.855   3.913  10.988  3.1366 -2.0403  0.4033
  338MOL0     H45583  -0.939   3.845  11.140  0.8457 -1.3893 -0.5854
  338MOL0     H45584  -0.965   4.102  11.094  1.5871 -1.2515 -4.3480
  338MOL0     H45585  -0.795   4.111  11.114  0.2447 -1.2108  0.6102
  338MOL0     H45586  -0.885   4.194  11.317 -1.8682 -0.4651 -2.1282
  338MOL0     H45587  -0.792   4.046  11.344 -1.1036  0.4428  3.1844
  338MOL0     H45588  -1.025   4.046  11.470  0.8120 -0.7913  0.4066
  338MOL0     H45589  -0.998   3.902  11.362  2.0299  0.1654  0.2104
  338MOL0     H45590  -1.324   4.031  11.152 -1.7380  1.2253 -0.7097
  338MOL0     H45591  -1.623   3.957  11.106 -2.9144 -3.6572 -1.7001
  338MOL0     H45592  -1.494   3.904  11.005  2.4063  1.3564  1.4582
  338MOL0     H45593  -1.598   3.787  11.084 -0.2598 -1.0839  2.2091
  338MOL0     H45594  -1.761   3.443  11.288 -1.0688  2.2306  0.3488
  338MOL0     H45595  -1.912   3.294  11.396  1.7305 -1.1269 -1.0836
  338MOL0     H45596  -1.811   3.102  11.791  0.1212 -0.2227  1.0888
  338MOL0     H45597  -1.911   3.245  11.828  2.1565 -0.5394  0.3660
  338MOL0     H45598  -2.024   3.051  11.910  2.1835 -1.9465  0.6467
  338MOL0     H45599  -2.116   3.123  11.770  0.4862  1.0198  0.7844
  338MOL0     H45600  -1.927   2.889  11.726 -1.2726 -3.3273  0.4664
  338MOL0     H45601  -2.045   2.981  11.627  0.8034  0.9967  0.4739
  338MOL0     H45602  -2.130   2.820  11.872 -4.1634 -1.4458 -0.0935
  338MOL0     H45603  -2.227   2.904  11.739 -0.3186  1.9881  1.9611
  338MOL0     H45604  -2.043   2.716  11.625  0.0089  1.7895 -2.4992
  338MOL0     H45605  -2.203   2.745  11.603 -1.0335 -0.7908  0.8150
  338MOL0     H45606  -2.261   2.617  11.815 -0.8989 -1.7269 -2.3060
  338MOL0     H45607  -2.203   2.520  11.679  0.8652 -0.2431 -0.7322
  338MOL0     H45608  -2.046   2.596  11.925  2.2580  0.9826 -0.8476
  338MOL0     H45609  -1.965   2.528  11.781  0.5199 -2.2209  0.3218
  338MOL0     H45610  -2.094   2.338  11.793  1.3087 -1.1785 -0.0561
  338MOL0     H45611  -2.171   2.383  11.945 -1.3377  1.3898 -2.4906
  338MOL0     H45612  -1.704   3.317  11.765  2.2774 -3.2348 -0.9553
  338MOL0     H45613  -1.546   3.463  11.661  1.0206 -0.8497 -0.7126
  338MOL0     H45614  -1.358   3.687  11.499  2.2586  0.5283  0.4178
  338MOL0     H45615  -1.162   3.848  11.490 -1.7178 -0.5322  2.4517
  338MOL0     H45616   0.586   4.095  10.538 -0.1594 -0.1887  0.1256
  338MOL0     H45617   0.811   4.026  10.608 -1.7851  2.1373  0.9176
  338MOL0     H45618   1.128   3.818  10.719 -0.8379  1.3271  0.2608
  338MOL0     H45619   1.360   3.816  10.812  1.9444  0.2837  1.5395
  338MOL0     H45620   1.581   3.734  10.936  1.6058  3.6630 -1.8292
  338MOL0     H45621   1.515   3.879  10.997 -0.7972 -0.2920  0.9278
  338MOL0     H45622   1.607   3.818  11.225 -0.7391  1.7884  0.0819
  338MOL0     H45623   1.729   3.860  11.114 -0.0224 -1.5408 -1.4330
  338MOL0     H45624   1.770   3.624  11.041  1.1186 -2.5778  0.3934
  338MOL0     H45625   1.682   3.575  11.191 -0.4014  1.7454  2.4946
  338MOL0     H45626   1.831   3.643  11.328 -1.0123 -1.3398 -0.6165
  338MOL0     H45627   1.879   3.791  11.234  1.5941 -0.2983 -0.9701
  338MOL0     H45628   2.164   3.492  11.120  0.4652  1.8987 -1.2533
  338MOL0     H45629   1.199   3.659  11.182 -1.7356 -2.4333  0.3560
  338MOL0     H45630   0.963   3.704  11.100  1.2426 -0.8532  0.9814
  339MOL0     O45631   9.504  10.198  10.619  0.1787 -0.2601 -0.1082
  339MOL0     C45632   9.618  10.238  10.656  0.5059 -0.0984 -0.9133
  339MOL0     O45633   9.711  10.293  10.573  0.2693 -0.1836 -0.0041
  339MOL0     C45634   9.682  10.322  10.447 -0.1305 -0.3665 -0.0698
  339MOL0     C45635   9.694  10.455  10.413  0.1322  0.6209 -0.0182
  339MOL0     C45636   9.655  10.502  10.293 -0.0181  0.1945 -0.2939
  339MOL0     C45637   9.609  10.425  10.186 -0.2133  0.6203  0.5074
  339MOL0     O45638   9.564  10.486  10.075 -0.1284  0.9002  0.2869
  339MOL0     C45639   9.458  10.414  10.008 -0.0170 -0.0920 -0.4616
  339MOL0     C45640   9.388  10.502   9.903  0.3700 -0.1206 -0.8116
  339MOL0     C45641   9.295  10.424   9.814  0.1113 -1.5777  0.1051
  339MOL0     C45642   9.218  10.523   9.726  0.4673 -0.0984 -0.4003
  339MOL0     C45643   9.105  10.449   9.657 -0.9576 -0.2468  0.3413
  339MOL0     C45644   9.000  10.545   9.597  0.1903  0.0408 -0.3545
  339MOL0     C45645   8.891  10.484   9.508 -0.1765  0.1647  0.8558
  339MOL0     C45646   8.887  10.551   9.367  0.4707 -0.7045 -0.2631
  339MOL0     N45647   8.776  10.503   9.284 -0.2984 -0.1004  0.8280
  339MOL0     C45648   8.758  10.372   9.247  0.2755  0.1597 -0.6044
  339MOL0     C45649   8.664  10.363   9.145 -0.2409 -0.2833  0.3823
  339MOL0     C45650   8.616  10.246   9.068 -0.3580  0.3163  0.0184
  339MOL0     C45651   8.499  10.172   9.136 -0.1656 -0.5828 -0.6288
  339MOL0     C45652   8.466  10.041   9.063  0.1891  0.1674  1.2432
  339MOL0     C45653   8.429  10.036   8.913 -0.4580  0.2039  0.0628
  339MOL0     O45654   8.414   9.905   8.860 -0.2207  0.2323 -0.2202
  339MOL0     C45655   8.300   9.831   8.871 -0.9212 -0.7947  0.0976
  339MOL0     C45656   8.188   9.882   8.923  0.4501 -0.7169  0.4860
  339MOL0     C45657   8.069   9.814   8.929 -0.0251  0.2146  0.0243
  339MOL0     C45658   7.947   9.889   8.994 -0.0644 -0.2545  0.3904
  339MOL0     C45659   8.065   9.680   8.884 -0.8490 -0.1092 -0.1118
  339MOL0     C45660   7.946   9.599   8.899 -0.1450 -0.2067  0.7650
  339MOL0     O45661   7.889   9.546   8.784 -0.5441 -0.3739 -0.1061
  339MOL0     C45662   7.782   9.468   8.811 -0.5079  0.1134  0.2592
  339MOL0     C45663   7.796   9.334   8.833 -0.8111  0.5715  0.1776
  339MOL0     C45664   7.683   9.243   8.831 -0.7099 -0.3843  0.0097
  339MOL0     C45665   7.559   9.296   8.797  0.2286 -0.2948  0.6884
  339MOL0     O45666   7.448   9.205   8.793 -0.4462  0.3216 -0.9261
  339MOL0     C45667   7.319   9.247   8.751  0.2293 -0.4734  0.2427
  339MOL0     C45668   7.216   9.133   8.764 -0.0094 -0.5339  0.9976
  339MOL0     C45669   7.070   9.167   8.728 -0.4054 -1.1531  0.6017
  339MOL0     C45670   6.989   9.039   8.733  0.1214  0.1047 -0.0511
  339MOL0     C45671   6.843   9.057   8.702  0.6600 -0.4009 -0.3257
  339MOL0     C45672   6.766   8.923   8.726 -0.4678 -0.3408 -0.0234
  339MOL0     C45673   6.793   8.826   8.606  0.8488 -0.4514  0.5249
  339MOL0     C45674   6.679   8.802   8.510  0.1174 -0.0320  0.0121
  339MOL0    Cl45675   6.596   8.937   8.438  0.2717 -0.0660  0.2477
  339MOL0     C45676   7.542   9.436   8.773  0.6219  0.2645  1.1679
  339MOL0     C45677   7.657   9.516   8.772 -0.2072  0.7514 -0.1012
  339MOL0     O45678   7.918   9.573   9.009  0.4538  0.9905 -0.3478
  339MOL0     C45679   8.170   9.626   8.807 -0.1649  0.0584 -0.9510
  339MOL0     C45680   8.278   9.717   8.789  0.3859  0.5817  0.8835
  339MOL0     N45681   8.626  10.494   9.124  0.3576 -0.4907  1.2250
  339MOL0     N45682   8.696  10.579   9.197 -0.2840 -0.5999  0.8066
  339MOL0     C45683   9.602  10.284  10.216  0.3849 -0.0623  0.7955
  339MOL0     C45684   9.640  10.233  10.344  0.1718  0.1867  0.1127
  339MOL0     C45685   9.663  10.211  10.797  0.1131 -1.2434  0.0808
  339MOL0     C45686   9.801  10.210  10.830 -0.6313 -0.1600  0.3428
  339MOL0     C45687   9.846  10.179  10.962  0.4720  0.1584  0.0722
  339MOL0     C45688   9.753  10.154  11.062 -0.3223  0.2498  0.5453
  339MOL0     O45689   9.789  10.108  11.189  0.4399 -0.5243  0.3623
  339MOL0     C45690   9.924  10.064  11.202 -0.4567  0.6216 -0.0219
  339MOL0     C45691   9.970  10.030  11.339  0.5402 -0.3417 -0.4504
  339MOL0     C45692   9.867   9.936  11.414  0.9216  0.8534  1.4439
  339MOL0     C45693   9.919   9.859  11.533  0.1107  0.4974 -0.1895
  339MOL0     C45694   9.954   9.952  11.643 -0.2670  0.7738 -0.0449
  339MOL0     C45695   9.997  10.032  11.722 -0.0019 -0.1593 -0.0124
  339MOL0     C45696   9.620  10.158  11.027 -0.1286  0.5950 -0.6284
  339MOL0     C45697   9.575  10.165  10.897  0.6384 -1.2835  0.4900
  339MOL0     H45698   9.741  10.524  10.482 -1.3713 -1.3011  3.1838
  339MOL0     H45699   9.662  10.609  10.274 -0.2745 -0.0095 -1.6115
  339MOL0     H45700   9.504  10.338   9.945 -0.9317 -1.6731  0.7086
  339MOL0     H45701   9.392  10.355  10.072  0.2247 -0.8660 -0.9115
  339MOL0     H45702   9.328  10.566   9.970 -1.1246  0.3132 -2.4673
  339MOL0     H45703   9.460  10.561   9.845 -1.2275  0.0840 -2.7262
  339MOL0     H45704   9.349  10.346   9.760  1.6206 -0.5842  0.1099
  339MOL0     H45705   9.226  10.381   9.887 -0.6547  1.3789  1.3071
  339MOL0     H45706   9.182  10.611   9.780 -0.0394  1.2441 -2.7901
  339MOL0     H45707   9.276  10.573   9.647 -0.0194  1.6804  0.3108
  339MOL0     H45708   9.153  10.399   9.572 -1.7402 -0.3065 -0.0716
  339MOL0     H45709   9.057  10.374   9.720 -3.8004 -0.7939 -2.2291
  339MOL0     H45710   8.949  10.601   9.676 -0.3824 -1.4513  0.3711
  339MOL0     H45711   9.061  10.602   9.526  0.4687 -0.3966 -0.4691
  339MOL0     H45712   8.919  10.379   9.492 -1.3521 -0.1045  0.4627
  339MOL0     H45713   8.793  10.481   9.557 -1.6061 -1.8277 -1.8261
  339MOL0     H45714   8.977  10.518   9.314  1.8131 -1.2762  2.2063
  339MOL0     H45715   8.877  10.660   9.358  0.6465 -0.6688 -0.0411
  339MOL0     H45716   8.817  10.287   9.282  1.1575  1.2139  0.5346
  339MOL0     H45717   8.599  10.271   8.962  0.4915  0.4269 -0.0998
  339MOL0     H45718   8.692  10.169   9.079 -0.0271  0.7568  0.8678
  339MOL0     H45719   8.406  10.227   9.150 -1.7213 -2.6627 -2.2021
  339MOL0     H45720   8.543  10.136   9.230  1.7267  1.1938 -0.7576
  339MOL0     H45721   8.392   9.975   9.110 -2.2761 -0.4371 -2.9773
  339MOL0     H45722   8.557   9.983   9.080  2.1735  2.5093 -0.7919
  339MOL0     H45723   8.517  10.077   8.862  1.3585 -1.4383  1.6693
  339MOL0     H45724   8.342  10.094   8.881 -1.2513 -1.9743 -2.0015
  339MOL0     H45725   8.185   9.983   8.962 -0.0968 -0.2139 -0.8064
  339MOL0     H45726   7.910   9.836   9.082 -0.2014 -0.2270  0.3487
  339MOL0     H45727   7.977   9.986   9.035 -2.5693 -0.0059  1.8300
  339MOL0     H45728   7.875   9.894   8.912  2.1769  0.4415 -1.6771
  339MOL0     H45729   7.891   9.291   8.861 -1.1557  1.0176  2.1768
  339MOL0     H45730   7.688   9.136   8.851 -3.5110 -0.4907  0.4870
  339MOL0     H45731   7.278   9.325   8.816  2.2031 -1.3617  2.7090
  339MOL0     H45732   7.330   9.295   8.653  2.2247  3.3519  2.0873
  339MOL0     H45733   7.251   9.052   8.699  0.6034  0.7284 -0.2875
  339MOL0     H45734   7.236   9.103   8.868  0.7002  1.1695  1.3838
  339MOL0     H45735   7.058   9.203   8.626 -2.1774 -1.2814  0.7368
  339MOL0     H45736   7.038   9.249   8.793  2.6610  0.2071  0.5977
  339MOL0     H45737   7.041   8.969   8.667 -0.7022  0.0734 -0.6830
  339MOL0     H45738   6.997   9.000   8.835  0.1166  1.0085  0.3022
  339MOL0     H45739   6.815   9.091   8.602 -0.6700 -0.8719 -0.1395
  339MOL0     H45740   6.799   9.134   8.767 -1.5494 -0.6901 -1.3980
  339MOL0     H45741   6.789   8.877   8.823 -0.2601  0.9765  0.5777
  339MOL0     H45742   6.662   8.956   8.732  0.1582  1.4866  2.2752
  339MOL0     H45743   6.819   8.727   8.644 -0.0439 -1.5163 -1.4745
  339MOL0     H45744   6.870   8.875   8.546  2.8631 -0.9823  2.5741
  339MOL0     H45745   6.601   8.747   8.563  1.4944 -0.2398  1.9317
  339MOL0     H45746   6.719   8.737   8.432 -1.1661  0.7056 -1.3152
  339MOL0     H45747   7.447   9.472   8.735  2.2003  1.3231 -2.2242
  339MOL0     H45748   7.643   9.623   8.758 -0.6411  0.4828 -1.9916
  339MOL0     H45749   8.164   9.529   8.758 -3.9639 -0.5769  0.4719
  339MOL0     H45750   8.349   9.675   8.719  1.0584 -0.4169  2.1288
  339MOL0     H45751   9.557  10.214  10.146 -0.6956  0.9729  0.4142
  339MOL0     H45752   9.639  10.126  10.360  0.6275  0.0157 -0.8747
  339MOL0     H45753   9.871  10.232  10.750 -1.0720  0.1127  0.0275
  339MOL0     H45754   9.953  10.167  10.971  0.2605 -1.9374  0.1143
  339MOL0     H45755   9.936   9.971  11.146 -0.4437  0.2685  0.5569
  339MOL0     H45756  10.000  10.137  11.173  0.4152  0.8563  2.5702
  339MOL0     H45757   9.985  10.120  11.399  0.1358 -0.8298  0.3875
  339MOL0     H45758  10.073   9.992  11.332  0.6171  0.1719 -3.5696
  339MOL0     H45759   9.852   9.858  11.338  1.2061  2.1622  0.0004
  339MOL0     H45760   9.772   9.985  11.436  0.5795 -1.0499  4.8489
  339MOL0     H45761  10.009   9.800  11.512  0.5698  1.2812 -0.4637
  339MOL0     H45762   9.844   9.788  11.571 -0.1554  1.4084  1.0592
  339MOL0     H45763  10.033  10.106  11.790 -1.9394 -2.0763  3.3586
  339MOL0     H45764   9.539  10.127  11.093  1.0447 -1.8405 -0.2424
  339MOL0     H45765   9.474  10.139  10.866 -0.5055  2.2215  0.8585
  340MOL0     O45766   4.560   1.926   4.121 -0.3860  0.0293 -0.0245
  340MOL0     C45767   4.570   1.803   4.109 -0.5878  0.6686 -0.7128
  340MOL0     O45768   4.498   1.728   4.023  0.2983  0.3570  0.7127
  340MOL0     C45769   4.402   1.790   3.940  0.6102 -0.3786  0.5511
  340MOL0     C45770   4.299   1.707   3.886 -0.3668 -0.9985 -0.6735
  340MOL0     C45771   4.203   1.760   3.796 -0.0932  1.0235 -0.6339
  340MOL0     C45772   4.209   1.893   3.754  0.6013 -0.0597  0.9603
  340MOL0     O45773   4.113   1.941   3.667  0.3595 -0.1272  0.2195
  340MOL0     C45774   4.008   2.028   3.708  0.0869 -0.2666  0.0254
  340MOL0     C45775   3.949   2.003   3.851  0.5806  0.1767  1.1014
  340MOL0     C45776   3.861   1.876   3.837 -0.6774 -0.1890  0.0899
  340MOL0     C45777   3.835   1.797   3.965 -0.3613 -0.2795  0.2495
  340MOL0     C45778   3.801   1.648   3.935  0.3300 -1.1907  0.9309
  340MOL0     C45779   3.830   1.561   4.054  1.6610  0.8254 -1.3194
  340MOL0     C45780   3.985   1.524   4.057  0.8364 -0.3449 -0.4397
  340MOL0     C45781   4.014   1.442   4.183  0.0229  0.3701  0.0853
  340MOL0     N45782   4.153   1.384   4.174 -0.1489  0.2646  0.8447
  340MOL0     C45783   4.186   1.278   4.096  0.5283  0.6277 -0.0609
  340MOL0     C45784   4.326   1.283   4.083  0.2456  0.0295 -0.0725
  340MOL0     C45785   4.418   1.208   3.989  0.2300  0.4748  0.3102
  340MOL0     C45786   4.489   1.084   4.048 -0.0569 -0.7727  0.6910
  340MOL0     C45787   4.386   0.968   4.055  0.8620  0.4740  1.0179
  340MOL0     C45788   4.435   0.863   4.154 -0.6810  0.0369 -0.5500
  340MOL0     O45789   4.451   0.900   4.290  0.1962 -1.6389 -0.2637
  340MOL0     C45790   4.330   0.898   4.354 -0.2873 -0.1156  0.3007
  340MOL0     C45791   4.266   1.021   4.380  0.1742 -0.4841  0.0966
  340MOL0     C45792   4.138   1.015   4.443 -1.0059  0.3361  0.4355
  340MOL0     C45793   4.086   1.158   4.468  0.0182 -0.5985  0.7360
  340MOL0     C45794   4.081   0.900   4.492 -0.7860 -0.7018  0.2830
  340MOL0     C45795   3.963   0.897   4.570  0.1658  0.2211 -0.1920
  340MOL0     O45796   3.939   1.010   4.646 -0.2495 -0.4093 -0.4952
  340MOL0     C45797   3.811   1.029   4.699  0.1765  0.3568 -0.7807
  340MOL0     C45798   3.689   0.958   4.685 -0.9500 -0.0215  0.1631
  340MOL0     C45799   3.573   0.994   4.740 -0.0883  0.4204  0.0454
  340MOL0     C45800   3.572   1.097   4.823 -0.1705 -0.1135 -0.7102
  340MOL0     O45801   3.452   1.144   4.879  0.3449 -0.1247  0.3905
  340MOL0     C45802   3.327   1.071   4.858 -0.2809 -0.3091  0.0560
  340MOL0     C45803   3.226   1.116   4.964  0.1873 -0.1562  0.5093
  340MOL0     C45804   3.096   1.041   4.956  0.8033 -0.9959 -0.7505
  340MOL0     C45805   2.975   1.118   5.024 -0.9193  0.5766  0.2653
  340MOL0     C45806   2.931   1.255   4.947  0.2984  0.3069 -0.2768
  340MOL0     C45807   2.790   1.245   4.894 -0.3006 -0.3368  1.0776
  340MOL0     C45808   2.687   1.246   5.005  0.2155 -0.9921 -0.3590
  340MOL0     C45809   2.542   1.234   4.965  1.4000  0.3339  0.5467
  340MOL0    Cl45810   2.512   1.300   4.803  0.0590  0.1966 -0.2353
  340MOL0     C45811   3.685   1.177   4.837 -1.1761  0.6946 -0.0158
  340MOL0     C45812   3.809   1.133   4.786 -0.7448 -0.7112  0.8062
  340MOL0     O45813   3.898   0.788   4.576 -0.0425  0.5175  0.0077
  340MOL0     C45814   4.145   0.779   4.453  0.5017  0.8952  0.2282
  340MOL0     C45815   4.267   0.782   4.377 -0.1739  0.3077  0.1567
  340MOL0     N45816   4.364   1.380   4.171  0.3304 -0.4750 -0.0772
  340MOL0     N45817   4.265   1.429   4.224 -0.9131 -0.5606 -0.0403
  340MOL0     C45818   4.307   1.970   3.805 -0.3214 -0.2347  0.7111
  340MOL0     C45819   4.406   1.920   3.894 -0.1984  0.4291  0.8041
  340MOL0     C45820   4.665   1.728   4.203  0.2214 -0.1777  0.1201
  340MOL0     C45821   4.694   1.599   4.190  0.3816  2.2417  0.5336
  340MOL0     C45822   4.769   1.528   4.284 -0.8585 -0.0773 -0.0577
  340MOL0     C45823   4.837   1.595   4.392  0.7144 -0.3254 -0.3236
  340MOL0     O45824   4.944   1.555   4.475 -0.6789 -0.7325  0.3301
  340MOL0     C45825   4.975   1.417   4.479 -0.3830  0.5568 -0.4974
  340MOL0     C45826   5.061   1.382   4.359  0.2958 -0.2537  0.2862
  340MOL0     C45827   5.186   1.468   4.356 -0.0402  0.3921 -0.2762
  340MOL0     C45828   5.285   1.415   4.459 -1.0122 -0.2943 -0.5472
  340MOL0     C45829   5.335   1.276   4.423 -0.1496 -0.3321 -0.7817
  340MOL0     C45830   5.374   1.167   4.396 -0.4270 -0.4535  0.2952
  340MOL0     C45831   4.811   1.732   4.399  0.2384  0.4877  0.5439
  340MOL0     C45832   4.724   1.795   4.311 -0.2001  0.3654 -0.1010
  340MOL0     H45833   4.287   1.603   3.915 -1.3004 -0.3699  1.3887
  340MOL0     H45834   4.113   1.699   3.785  1.0116 -0.6928 -0.5246
  340MOL0     H45835   4.043   2.132   3.702  0.9572 -0.4349  1.7696
  340MOL0     H45836   3.933   2.004   3.632  1.8835 -2.2132 -1.2295
  340MOL0     H45837   4.028   1.993   3.925  2.1961 -1.2150 -0.7184
  340MOL0     H45838   3.892   2.094   3.874  0.7896  0.1247  1.8263
  340MOL0     H45839   3.763   1.902   3.797 -0.9163 -1.2882 -0.0549
  340MOL0     H45840   3.917   1.811   3.769  0.6185 -1.9040  2.6593
  340MOL0     H45841   3.922   1.805   4.031  0.6346  0.4190 -1.0957
  340MOL0     H45842   3.755   1.846   4.021 -0.8140 -2.0421  1.2255
  340MOL0     H45843   3.692   1.645   3.921 -0.0366 -0.7684  3.3454
  340MOL0     H45844   3.848   1.605   3.846  1.9890  0.6145  0.8598
  340MOL0     H45845   3.790   1.601   4.147 -0.2315 -1.0155 -1.2569
  340MOL0     H45846   3.766   1.474   4.034 -1.0129  2.6045 -0.9542
  340MOL0     H45847   4.004   1.466   3.966 -0.4684 -0.9784 -0.3323
  340MOL0     H45848   4.050   1.612   4.051  0.8251 -0.3037  0.0600
  340MOL0     H45849   3.943   1.358   4.186 -0.4900  0.7984  0.0939
  340MOL0     H45850   4.000   1.497   4.276  0.6580 -1.8827  1.5899
  340MOL0     H45851   4.113   1.215   4.045  0.2563  1.5664 -0.8450
  340MOL0     H45852   4.350   1.185   3.906 -0.1718 -0.0011  0.7656
  340MOL0     H45853   4.489   1.282   3.950 -0.4545  0.9833  0.0167
  340MOL0     H45854   4.523   1.104   4.150  0.5665 -1.4325  0.6283
  340MOL0     H45855   4.577   1.055   3.989 -0.2873  0.4919 -0.3138
  340MOL0     H45856   4.386   0.921   3.956 -0.1277 -0.1603  1.2963
  340MOL0     H45857   4.292   1.011   4.090  1.1310 -0.7505  3.4218
  340MOL0     H45858   4.528   0.817   4.120  0.7432  2.9540 -0.8334
  340MOL0     H45859   4.358   0.787   4.136 -3.4728  2.3252  0.9212
  340MOL0     H45860   4.310   1.119   4.366 -1.1785  0.4685  2.0880
  340MOL0     H45861   4.119   1.191   4.568  2.4123 -1.8495  0.4423
  340MOL0     H45862   4.114   1.239   4.400 -0.9264 -1.4937 -0.7482
  340MOL0     H45863   3.980   1.156   4.443  0.8487  1.7632 -4.3270
  340MOL0     H45864   3.693   0.867   4.626  2.0141 -0.5771  1.0269
  340MOL0     H45865   3.491   0.925   4.727  0.5415 -0.2609 -0.3871
  340MOL0     H45866   3.289   1.078   4.755 -0.6469 -2.5816 -0.0207
  340MOL0     H45867   3.341   0.968   4.891 -5.2182 -1.0203  0.7476
  340MOL0     H45868   3.256   1.091   5.067 -0.8942 -0.1267  0.8482
  340MOL0     H45869   3.218   1.222   4.942 -1.7541 -0.4868 -0.6013
  340MOL0     H45870   3.111   0.943   5.001  0.9509 -0.9895 -0.7855
  340MOL0     H45871   3.064   1.023   4.852  3.7561 -0.6298 -1.8099
  340MOL0     H45872   2.888   1.051   5.023  0.1517 -0.8985  1.7473
  340MOL0     H45873   3.006   1.136   5.127 -0.0968  1.5289 -0.1275
  340MOL0     H45874   2.993   1.293   4.865 -0.6590  1.4056 -0.5301
  340MOL0     H45875   2.926   1.339   5.017 -0.8722  1.7984 -2.0353
  340MOL0     H45876   2.762   1.334   4.837 -4.3940 -1.2717  1.3189
  340MOL0     H45877   2.777   1.159   4.828  1.6349  1.1802 -1.4784
  340MOL0     H45878   2.708   1.346   5.044  2.5168 -0.7284 -2.0811
  340MOL0     H45879   2.705   1.176   5.086  0.3685 -0.7660 -0.1945
  340MOL0     H45880   2.470   1.287   5.029 -2.0974 -3.3317  0.0948
  340MOL0     H45881   2.510   1.130   4.959 -3.2661  1.3248  3.2679
  340MOL0     H45882   3.678   1.257   4.910  3.5893  0.8241  0.6051
  340MOL0     H45883   3.895   1.190   4.818 -3.8439  3.8607  2.0579
  340MOL0     H45884   4.123   0.674   4.472  3.5083 -0.0944 -1.1518
  340MOL0     H45885   4.308   0.689   4.339 -1.0302  0.6507 -1.7086
  340MOL0     H45886   4.318   2.074   3.778 -0.8460 -0.4680 -0.4365
  340MOL0     H45887   4.481   1.991   3.929  2.9295 -1.0421 -2.3864
  340MOL0     H45888   4.639   1.546   4.113 -3.5267  0.4675  4.1265
  340MOL0     H45889   4.776   1.420   4.272 -0.4397  0.0382 -0.9674
  340MOL0     H45890   5.029   1.404   4.573 -1.0605  0.4704 -0.1172
  340MOL0     H45891   4.885   1.355   4.478 -1.9986  2.6482 -3.8255
  340MOL0     H45892   5.004   1.414   4.272 -0.2450 -3.8664 -0.8431
  340MOL0     H45893   5.071   1.273   4.352 -1.9986 -0.6545  2.1117
  340MOL0     H45894   5.167   1.576   4.359 -0.5075  0.3031  0.7651
  340MOL0     H45895   5.231   1.450   4.259 -0.7106  1.0166 -0.7150
  340MOL0     H45896   5.251   1.425   4.563  1.7691 -0.5380  0.4803
  340MOL0     H45897   5.369   1.485   4.447 -1.6077  0.3172 -1.1826
  340MOL0     H45898   5.388   1.072   4.350 -2.6950 -1.8782  2.2935
  340MOL0     H45899   4.866   1.777   4.481 -0.7834  1.0052  0.9530
  340MOL0     H45900   4.718   1.903   4.323  1.7658  0.7502 -1.9088
  341MOL0     O45901   6.601   8.343  11.346 -0.5237 -0.5007  0.1107
  341MOL0     C45902   6.681   8.251  11.361 -0.7766  0.0141  0.2340
  341MOL0     O45903   6.786   8.250  11.454  0.3433 -0.2677  0.7627
  341MOL0     C45904   6.805   8.354  11.539 -0.0437 -0.1220 -0.5222
  341MOL0     C45905   6.867   8.472  11.504  0.5597 -0.8807  0.7417
  341MOL0     C45906   6.893   8.576  11.590 -0.0088  0.4182  0.3208
  341MOL0     C45907   6.830   8.576  11.714 -0.2687  0.2524 -0.2814
  341MOL0     O45908   6.836   8.694  11.779 -0.1989  0.0449 -0.0578
  341MOL0     C45909   6.879   8.689  11.915 -0.1978 -0.5685 -0.1218
  341MOL0     C45910   7.008   8.608  11.931  0.0857 -0.8536  0.1371
  341MOL0     C45911   7.008   8.559  12.079 -0.4837 -0.1661  0.0200
  341MOL0     C45912   7.006   8.665  12.192  0.1971 -0.5404  0.0491
  341MOL0     C45913   7.071   8.627  12.326 -0.6683  0.5404 -0.2475
  341MOL0     C45914   7.226   8.585  12.322  0.0917 -0.1236  0.8196
  341MOL0     C45915   7.282   8.554  12.461 -0.1361  0.0411  0.8623
  341MOL0     C45916   7.425   8.490  12.462  0.4924  0.2226 -0.4530
  341MOL0     N45917   7.526   8.582  12.407 -0.8862  0.2850  0.1427
  341MOL0     C45918   7.573   8.584  12.275 -0.3462  0.9991  0.4725
  341MOL0     C45919   7.674   8.673  12.265  0.1076 -0.0393 -0.5798
  341MOL0     C45920   7.746   8.716  12.136  0.8713  0.3491 -0.0779
  341MOL0     C45921   7.797   8.857  12.147 -0.0453 -0.3795  0.2810
  341MOL0     C45922   7.859   8.912  12.013 -0.7594  0.9379 -0.5820
  341MOL0     C45923   7.892   9.059  12.026  0.1070 -0.1449 -0.4653
  341MOL0     O45924   8.024   9.065  12.091 -0.3279 -0.0718 -0.3454
  341MOL0     C45925   8.096   9.175  12.061 -0.9861 -0.1394 -0.9179
  341MOL0     C45926   8.050   9.301  12.023  0.2497 -0.3333  0.7328
  341MOL0     C45927   8.129   9.417  12.009  0.5905  0.1837  0.0557
  341MOL0     C45928   8.063   9.545  11.960 -0.9400  0.4533 -0.1301
  341MOL0     C45929   8.272   9.403  12.015 -0.1641 -0.5142 -0.4027
  341MOL0     C45930   8.380   9.512  11.997  0.1161 -0.4415 -0.8067
  341MOL0     O45931   8.509   9.470  11.999  0.5735  0.1787 -0.3054
  341MOL0     C45932   8.620   9.544  11.946  0.0282 -0.2063  0.2091
  341MOL0     C45933   8.722   9.460  11.898  0.4701 -0.3487  0.9395
  341MOL0     C45934   8.841   9.523  11.838  0.7460  0.4172 -1.2671
  341MOL0     C45935   8.855   9.662  11.839 -0.7309 -1.3911  0.1469
  341MOL0     O45936   8.959   9.735  11.780  0.3975 -0.5630  0.3273
  341MOL0     C45937   9.088   9.682  11.801  0.2249 -0.0322  0.4617
  341MOL0     C45938   9.195   9.797  11.797  0.3908  1.1194 -0.0953
  341MOL0     C45939   9.217   9.864  11.933  1.0829  0.4594  0.2629
  341MOL0     C45940   9.277   9.775  12.037 -0.2587  0.1088  0.3592
  341MOL0     C45941   9.271   9.836  12.177 -0.4476 -0.5351  0.0904
  341MOL0     C45942   9.312   9.743  12.295 -0.0830 -0.3798 -0.6097
  341MOL0     C45943   9.467   9.716  12.300 -0.1850 -1.0792 -0.3047
  341MOL0     C45944   9.511   9.648  12.433 -0.2735 -0.2483  0.3620
  341MOL0    Cl45945   9.424   9.487  12.461  0.2401 -0.0766 -0.2942
  341MOL0     C45946   8.752   9.741  11.893 -0.7262 -0.3423  0.1405
  341MOL0     C45947   8.639   9.677  11.958 -0.2445  0.3504 -1.1533
  341MOL0     O45948   8.351   9.631  11.987  0.9250 -0.3889  0.0988
  341MOL0     C45949   8.319   9.270  12.041 -0.8489 -0.8969 -0.1619
  341MOL0     C45950   8.232   9.164  12.060  0.5788  0.6328 -0.2512
  341MOL0     N45951   7.676   8.742  12.391 -0.0853  1.0543  0.9110
  341MOL0     N45952   7.598   8.683  12.479  0.2415  0.4851 -0.8668
  341MOL0     C45953   6.758   8.455  11.758  0.2222 -0.1298  0.8202
  341MOL0     C45954   6.748   8.347  11.671  0.0429  0.8739  0.5566
  341MOL0     C45955   6.686   8.139  11.262 -0.0110  0.3274 -0.2546
  341MOL0     C45956   6.790   8.051  11.260  0.2421  0.2431 -0.6120
  341MOL0     C45957   6.792   7.942  11.174  0.4204 -0.4117  0.1454
  341MOL0     C45958   6.687   7.908  11.088  0.7270  0.0751 -0.8250
  341MOL0     O45959   6.684   7.802  11.001 -0.6778 -0.1656 -0.1893
  341MOL0     C45960   6.602   7.691  11.034  0.4151  0.8674  0.3158
  341MOL0     C45961   6.618   7.588  10.915 -0.0319 -0.4577 -0.6060
  341MOL0     C45962   6.595   7.635  10.772  0.5045 -0.1313  0.1721
  341MOL0     C45963   6.449   7.643  10.746 -0.3395  0.1578 -0.1560
  341MOL0     C45964   6.422   7.679  10.605 -0.7370 -0.4442  1.2020
  341MOL0     C45965   6.394   7.673  10.489 -0.3083  0.1532 -0.0314
  341MOL0     C45966   6.579   7.992  11.096 -0.5819  0.2528 -0.1740
  341MOL0     C45967   6.577   8.105  11.180  0.3122 -0.5365 -0.9123
  341MOL0     H45968   6.911   8.484  11.405  2.7323  1.7642  1.8769
  341MOL0     H45969   6.954   8.662  11.567  0.5299 -0.2124 -0.6973
  341MOL0     H45970   6.893   8.787  11.962  0.5667 -1.2485  1.1401
  341MOL0     H45971   6.801   8.637  11.972 -0.2725 -0.6471 -0.2956
  341MOL0     H45972   7.023   8.523  11.864 -3.3049 -0.5400 -1.2182
  341MOL0     H45973   7.092   8.677  11.922  1.8479 -2.8354  0.6868
  341MOL0     H45974   6.930   8.483  12.094  0.7411 -1.0540  2.1966
  341MOL0     H45975   7.106   8.511  12.088 -1.0325 -1.0488  1.7741
  341MOL0     H45976   7.054   8.755  12.154  1.6562 -0.8826  0.9965
  341MOL0     H45977   6.899   8.685  12.200 -0.3915 -1.6589 -3.1716
  341MOL0     H45978   7.046   8.708  12.395  0.8680 -1.3190  2.7592
  341MOL0     H45979   7.025   8.535  12.365 -1.5443  0.5661 -1.1845
  341MOL0     H45980   7.241   8.500  12.255  0.7917  0.1267  0.6538
  341MOL0     H45981   7.278   8.664  12.267 -1.1258 -1.7572 -3.0353
  341MOL0     H45982   7.272   8.644  12.523  0.2121 -0.1596  1.2141
  341MOL0     H45983   7.218   8.479  12.508  0.6610 -0.2417  1.5165
  341MOL0     H45984   7.419   8.395  12.408 -0.7189 -1.2520  2.1262
  341MOL0     H45985   7.448   8.474  12.567 -2.5959  0.9573  0.4435
  341MOL0     H45986   7.549   8.515  12.195 -2.3205  0.9619  1.0455
  341MOL0     H45987   7.818   8.639  12.106 -0.0020 -0.0711 -1.1397
  341MOL0     H45988   7.668   8.711  12.059  0.1447  3.6314  0.2714
  341MOL0     H45989   7.869   8.857  12.230  2.6224  0.4894 -1.9061
  341MOL0     H45990   7.719   8.928  12.177 -0.4142 -0.0743 -1.3287
  341MOL0     H45991   7.788   8.893  11.932  0.1726  2.0334 -1.6924
  341MOL0     H45992   7.951   8.861  11.983 -0.0240  1.6507  0.4270
  341MOL0     H45993   7.818   9.107  12.091  0.9839 -1.1474  1.3691
  341MOL0     H45994   7.884   9.112  11.931 -3.1866  2.7834  1.1973
  341MOL0     H45995   7.943   9.307  12.013 -0.1814 -2.2329  3.1632
  341MOL0     H45996   8.101   9.571  11.860  1.2528 -0.2594  0.4527
  341MOL0     H45997   7.957   9.530  11.939 -1.1767 -0.9460  1.7971
  341MOL0     H45998   8.084   9.629  12.027 -3.1708  1.6882 -0.8758
  341MOL0     H45999   8.703   9.354  11.886  0.0189 -0.2737  0.9779
  341MOL0     H46000   8.930   9.471  11.803  1.7678  0.7549  0.6988
  341MOL0     H46001   9.102   9.615  11.886  0.6473  0.1838  0.5635
  341MOL0     H46002   9.101   9.625  11.708 -0.3457 -0.5660  0.7090
  341MOL0     H46003   9.289   9.753  11.764 -0.1693  0.7502 -1.2521
  341MOL0     H46004   9.161   9.869  11.722  0.7426  1.4173  0.0259
  341MOL0     H46005   9.112   9.880  11.960  0.1076 -1.6066 -1.9435
  341MOL0     H46006   9.262   9.964  11.931  3.0706 -0.1619  4.3936
  341MOL0     H46007   9.220   9.681  12.041 -1.2723  0.7298  3.7029
  341MOL0     H46008   9.376   9.742  12.003  1.3813  3.9431  0.9594
  341MOL0     H46009   9.170   9.873  12.199  0.1165  0.3345  1.3401
  341MOL0     H46010   9.329   9.929  12.177 -0.6642 -0.3926 -0.5000
  341MOL0     H46011   9.269   9.759  12.394  1.7647  1.4934 -0.0525
  341MOL0     H46012   9.266   9.649  12.263  1.3150 -1.8373  1.4128
  341MOL0     H46013   9.517   9.814  12.293 -3.3917  0.6205 -1.6606
  341MOL0     H46014   9.490   9.653  12.214 -2.3599 -1.7021 -0.4987
  341MOL0     H46015   9.490   9.715  12.516  1.9113 -0.5994  1.2743
  341MOL0     H46016   9.618   9.626  12.437 -0.0789  0.2618 -1.1882
  341MOL0     H46017   8.776   9.846  11.885  1.0862 -0.6812  0.7982
  341MOL0     H46018   8.562   9.735  12.008 -1.1375  0.6199 -2.8001
  341MOL0     H46019   8.426   9.255  12.031 -0.9801 -0.6113 -2.6426
  341MOL0     H46020   8.271   9.065  12.085 -1.7520  0.1207  1.7553
  341MOL0     H46021   6.722   8.471  11.859  0.5570  1.9464  0.6623
  341MOL0     H46022   6.701   8.255  11.703  0.2925  0.3089 -0.6687
  341MOL0     H46023   6.874   8.060  11.328  0.6474 -0.3113 -1.0298
  341MOL0     H46024   6.878   7.875  11.171  0.8403  0.1338 -0.3987
  341MOL0     H46025   6.626   7.646  11.131  2.2499 -1.8530 -1.2541
  341MOL0     H46026   6.497   7.719  11.045 -0.9357 -2.9738 -0.8650
  341MOL0     H46027   6.553   7.502  10.931  0.1413 -0.3877  0.5071
  341MOL0     H46028   6.724   7.561  10.920 -0.7623 -3.7458 -0.5675
  341MOL0     H46029   6.646   7.562  10.709 -0.7948  0.5188 -1.7285
  341MOL0     H46030   6.643   7.731  10.749  0.3674 -0.3792 -1.2244
  341MOL0     H46031   6.412   7.729  10.802  2.1937  1.1056  0.1897
  341MOL0     H46032   6.401   7.548  10.768  3.0421 -1.4121  1.1820
  341MOL0     H46033   6.356   7.675  10.389 -0.0028  2.0023 -0.1567
  341MOL0     H46034   6.506   7.948  11.030 -0.3719 -1.9767  0.9646
  341MOL0     H46035   6.493   8.173  11.179  0.7311  0.0108 -0.1356
  342MOL0     O46036   0.292   8.142   3.373  0.0477 -0.0088 -0.4118
  342MOL0     C46037   0.401   8.136   3.318  0.5825 -0.5228 -0.2466
  342MOL0     O46038   0.450   8.212   3.212  0.3881 -0.1303  0.2725
  342MOL0     C46039   0.368   8.281   3.132  0.4369 -0.1949 -0.4679
  342MOL0     C46040   0.320   8.209   3.017 -0.9729  0.8913 -0.8116
  342MOL0     C46041   0.232   8.257   2.930 -0.4810  0.5249  0.6002
  342MOL0     C46042   0.178   8.377   2.942  0.9521  0.3134  0.9882
  342MOL0     O46043   0.091   8.422   2.838  0.4698  0.3183 -0.7671
  342MOL0     C46044   0.023   8.540   2.846  1.2956  0.3409 -0.2340
  342MOL0     C46045  -0.073   8.555   2.726 -0.0164 -0.2341  0.4133
  342MOL0     C46046  -0.149   8.685   2.724 -0.3596 -0.2233  0.4521
  342MOL0     C46047  -0.257   8.684   2.610  0.0067  0.9725 -1.0792
  342MOL0     C46048  -0.291   8.823   2.561 -0.6707 -0.2606 -0.2401
  342MOL0     C46049  -0.407   8.814   2.459  0.6275 -0.0342 -0.9312
  342MOL0     C46050  -0.392   8.720   2.344  0.7261  0.2011 -0.2001
  342MOL0     C46051  -0.303   8.769   2.225 -1.3860  0.3074 -0.6414
  342MOL0     N46052  -0.159   8.759   2.266  0.8453 -0.2972 -0.5856
  342MOL0     C46053  -0.070   8.852   2.276  0.2480 -0.6543  0.5664
  342MOL0     C46054   0.042   8.798   2.305  0.1098 -0.2582  0.1745
  342MOL0     C46055   0.169   8.879   2.322  0.0016  0.2133  0.0123
  342MOL0     C46056   0.207   8.877   2.473  1.1353  1.0183  0.3873
  342MOL0     C46057   0.276   8.745   2.509  0.5256 -0.0317  0.4381
  342MOL0     C46058   0.366   8.767   2.629  0.4725  0.4164 -0.8426
  342MOL0     O46059   0.427   8.635   2.657 -0.4956  0.0511 -0.2002
  342MOL0     C46060   0.483   8.619   2.781 -0.2703  0.2136  0.5073
  342MOL0     C46061   0.497   8.718   2.880 -0.2721  0.5682 -0.4189
  342MOL0     C46062   0.546   8.692   3.006 -0.5160  0.3789  0.6425
  342MOL0     C46063   0.566   8.806   3.101  0.9650 -0.0309 -0.3151
  342MOL0     C46064   0.591   8.559   3.030  1.0010 -0.7363  0.1304
  342MOL0     C46065   0.654   8.527   3.159  0.6935  0.1195 -1.7126
  342MOL0     O46066   0.785   8.492   3.154  0.0956 -0.2277 -0.2447
  342MOL0     C46067   0.826   8.433   3.265 -0.0441  0.8302 -0.2286
  342MOL0     C46068   0.908   8.502   3.357 -0.7175 -0.5395 -0.4018
  342MOL0     C46069   0.982   8.429   3.445 -0.6350 -0.0372  0.2513
  342MOL0     C46070   0.978   8.291   3.453  0.2192 -0.3911  0.2281
  342MOL0     O46071   1.041   8.232   3.558 -0.2949  0.2080 -0.4510
  342MOL0     C46072   1.015   8.093   3.596 -0.1330  0.1552 -0.4099
  342MOL0     C46073   1.128   8.010   3.544  0.0456  0.2467  0.5671
  342MOL0     C46074   1.270   8.032   3.597 -0.3256 -0.8125  1.1584
  342MOL0     C46075   1.311   7.967   3.725 -0.0210  0.8092 -1.7397
  342MOL0     C46076   1.277   7.811   3.724  0.4040  0.2533 -0.7993
  342MOL0     C46077   1.314   7.747   3.864  0.4569 -1.2493  0.3849
  342MOL0     C46078   1.243   7.806   3.988 -0.8944 -0.1665 -0.3537
  342MOL0     C46079   1.090   7.794   3.973  1.0700 -0.3448 -0.5582
  342MOL0    Cl46080   1.030   7.623   3.978 -0.3835  0.5520  0.0278
  342MOL0     C46081   0.892   8.225   3.366  0.4967  0.0345  0.2648
  342MOL0     C46082   0.818   8.293   3.269  0.9263 -0.0174 -0.0190
  342MOL0     O46083   0.588   8.542   3.268 -0.5956 -0.2192 -0.0421
  342MOL0     C46084   0.556   8.461   2.935  0.1402  0.0213  1.4161
  342MOL0     C46085   0.522   8.488   2.806 -0.0112  0.5941 -0.2909
  342MOL0     N46086   0.032   8.664   2.303  0.8959  0.3471  0.0443
  342MOL0     N46087  -0.097   8.640   2.289 -0.0788  0.6622 -0.2529
  342MOL0     C46088   0.215   8.454   3.051  0.6351  0.6660  0.5139
  342MOL0     C46089   0.301   8.407   3.149 -0.0586  0.3201 -0.2874
  342MOL0     C46090   0.491   8.024   3.359 -0.7765 -0.1592 -0.5562
  342MOL0     C46091   0.470   7.950   3.480 -0.1829  0.4199 -0.2036
  342MOL0     C46092   0.552   7.827   3.497  0.1995 -0.4788  0.0863
  342MOL0     C46093   0.663   7.798   3.408  0.5976  1.0532  0.4220
  342MOL0     O46094   0.751   7.694   3.416  0.3819 -0.6247  0.3558
  342MOL0     C46095   0.739   7.609   3.534 -1.4066  0.8404  0.1991
  342MOL0     C46096   0.849   7.494   3.536 -0.7215 -0.4032 -0.3846
  342MOL0     C46097   0.845   7.420   3.678  0.1195 -0.3314  0.1178
  342MOL0     C46098   0.951   7.314   3.695 -0.0458  0.1418  0.1852
  342MOL0     C46099   1.086   7.370   3.686  0.2986  0.3191  0.4482
  342MOL0     C46100   1.198   7.398   3.658 -0.6007 -0.3901  0.2867
  342MOL0     C46101   0.679   7.874   3.293  0.6425 -0.7724 -1.1175
  342MOL0     C46102   0.594   7.983   3.271  0.2611  0.0148  0.4312
  342MOL0     H46103   0.361   8.108   3.011  3.5703  2.4128  0.5718
  342MOL0     H46104   0.209   8.183   2.853 -1.5906  1.3374  0.1269
  342MOL0     H46105  -0.049   8.549   2.928  1.8276  0.0324  0.2684
  342MOL0     H46106   0.088   8.628   2.842  0.4987  0.9011 -1.7302
  342MOL0     H46107  -0.017   8.565   2.632 -1.2288  1.4814 -0.1709
  342MOL0     H46108  -0.142   8.471   2.721  1.9023 -1.9425  1.3993
  342MOL0     H46109  -0.197   8.706   2.820  2.9325  1.1318  1.9410
  342MOL0     H46110  -0.077   8.765   2.708 -1.2587  0.8361  1.5176
  342MOL0     H46111  -0.204   8.644   2.524  0.2480  3.1545 -2.0128
  342MOL0     H46112  -0.346   8.623   2.628  0.4109  0.0759 -2.0194
  342MOL0     H46113  -0.317   8.890   2.644 -1.8476  0.2946 -1.0283
  342MOL0     H46114  -0.202   8.866   2.515 -0.8282  1.5232  0.9840
  342MOL0     H46115  -0.491   8.795   2.526 -0.4572  2.2284 -1.5746
  342MOL0     H46116  -0.428   8.916   2.427 -2.9602  0.2096  1.6119
  342MOL0     H46117  -0.363   8.619   2.376 -4.1345 -2.2248 -2.3562
  342MOL0     H46118  -0.491   8.715   2.297 -2.3979  5.5310  4.4794
  342MOL0     H46119  -0.333   8.869   2.192 -1.2593 -0.0295 -1.8163
  342MOL0     H46120  -0.309   8.690   2.150 -0.9351  2.0310 -2.5919
  342MOL0     H46121  -0.086   8.959   2.266  2.6774 -0.4191 -1.9058
  342MOL0     H46122   0.247   8.838   2.258 -1.8920 -1.9106 -1.0492
  342MOL0     H46123   0.155   8.983   2.291  1.6365  1.3921  2.8060
  342MOL0     H46124   0.110   8.876   2.523 -0.1902 -2.1603 -1.9039
  342MOL0     H46125   0.263   8.963   2.511  2.7824  1.1175 -2.0263
  342MOL0     H46126   0.327   8.701   2.423 -2.4493 -1.3141 -0.8058
  342MOL0     H46127   0.204   8.664   2.524  1.7364 -1.6987 -2.0000
  342MOL0     H46128   0.301   8.805   2.708  2.1417 -1.0680  1.3590
  342MOL0     H46129   0.450   8.834   2.608  1.8269 -2.0151 -4.0123
  342MOL0     H46130   0.471   8.822   2.863 -0.1744  1.0550  2.0581
  342MOL0     H46131   0.516   8.794   3.198  2.0515  1.6006  0.5014
  342MOL0     H46132   0.673   8.821   3.115  0.6673  2.3789 -0.1671
  342MOL0     H46133   0.523   8.901   3.068 -2.6220 -0.7804  1.6090
  342MOL0     H46134   0.916   8.610   3.347  1.3862 -0.7830 -1.8735
  342MOL0     H46135   1.054   8.489   3.501  0.6362  0.7057 -2.0579
  342MOL0     H46136   1.014   8.093   3.705 -0.4364 -0.5033 -0.4089
  342MOL0     H46137   0.912   8.072   3.565 -0.8152  1.2575  0.9827
  342MOL0     H46138   1.092   7.908   3.563  0.3814  0.6629  4.1170
  342MOL0     H46139   1.139   8.019   3.436 -3.0746 -3.2368 -0.2551
  342MOL0     H46140   1.286   8.140   3.593 -1.0595 -0.6643  1.9925
  342MOL0     H46141   1.328   7.983   3.518 -0.3974  1.8757 -0.7057
  342MOL0     H46142   1.416   7.979   3.757 -0.5185  0.5130  0.1410
  342MOL0     H46143   1.258   8.020   3.804 -0.4459 -2.4124  0.3059
  342MOL0     H46144   1.335   7.771   3.640  0.7919  2.1339 -1.4883
  342MOL0     H46145   1.170   7.791   3.711  0.1261 -0.4321  1.9503
  342MOL0     H46146   1.292   7.640   3.861  1.5824 -1.4826  0.2209
  342MOL0     H46147   1.422   7.752   3.880  0.5754  1.1376 -0.7402
  342MOL0     H46148   1.276   7.910   3.994  1.2297 -0.7349 -1.1748
  342MOL0     H46149   1.281   7.759   4.079  0.6307  0.9838 -0.3433
  342MOL0     H46150   1.055   7.834   3.878  0.9746  2.0188  0.4196
  342MOL0     H46151   1.051   7.860   4.051  2.6183 -0.2301  0.1483
  342MOL0     H46152   0.875   8.118   3.362  1.9373 -0.1835 -1.3359
  342MOL0     H46153   0.746   8.245   3.204 -2.1595  3.2621  0.7084
  342MOL0     H46154   0.583   8.358   2.957 -0.1703 -0.1016  1.2202
  342MOL0     H46155   0.518   8.410   2.731  0.2242 -1.5298  1.8078
  342MOL0     H46156   0.172   8.552   3.066 -2.5549 -0.1476 -2.1997
  342MOL0     H46157   0.322   8.469   3.236 -3.2428  2.5462 -0.9271
  342MOL0     H46158   0.385   7.966   3.545 -1.8878  0.4825 -2.3493
  342MOL0     H46159   0.524   7.754   3.573 -0.6297  0.3371  0.5760
  342MOL0     H46160   0.730   7.663   3.629 -2.8650  0.1000  0.5219
  342MOL0     H46161   0.650   7.544   3.534 -0.1587 -0.9789  1.6033
  342MOL0     H46162   0.945   7.544   3.520  0.4854 -2.2093  0.8278
  342MOL0     H46163   0.824   7.417   3.463  0.1624 -0.6260 -0.4611
  342MOL0     H46164   0.744   7.381   3.690 -0.6897  1.6075  0.0544
  342MOL0     H46165   0.871   7.489   3.759 -0.4041 -1.4361  1.2493
  342MOL0     H46166   0.935   7.223   3.635 -0.6667  0.9432 -0.9050
  342MOL0     H46167   0.937   7.268   3.793 -2.3887  0.2535 -0.0417
  342MOL0     H46168   1.299   7.422   3.632 -0.6193 -1.0515 -0.4523
  342MOL0     H46169   0.766   7.860   3.230  1.3114  0.3574 -0.5047
  342MOL0     H46170   0.609   8.026   3.172 -1.2328  0.2062  0.2758
  343MOL0     O46171   5.545   1.899   2.074  0.2414 -0.2055 -0.4296
  343MOL0     C46172   5.529   1.914   2.194 -0.9782  0.1448 -0.0734
  343MOL0     O46173   5.411   1.920   2.263 -0.2416  0.2239 -0.0557
  343MOL0     C46174   5.285   1.923   2.199 -0.3483 -0.5243 -0.5176
  343MOL0     C46175   5.179   1.850   2.250  1.0611 -0.5616 -0.3611
  343MOL0     C46176   5.064   1.823   2.182 -0.3964 -0.0751  0.3092
  343MOL0     C46177   5.030   1.883   2.054 -0.2728  0.4476 -0.2866
  343MOL0     O46178   4.906   1.865   1.994  0.2802 -0.6960  0.5977
  343MOL0     C46179   4.899   1.891   1.848  0.9397  1.0500 -1.0120
  343MOL0     C46180   4.759   1.850   1.795 -0.2692  0.4284  0.7391
  343MOL0     C46181   4.766   1.850   1.634 -0.5707 -0.0434  0.0655
  343MOL0     C46182   4.838   1.727   1.572  0.6639  0.3810 -0.0357
  343MOL0     C46183   4.832   1.708   1.418 -0.5098 -0.7860 -0.1073
  343MOL0     C46184   4.717   1.783   1.358 -0.4593 -0.4139  0.6727
  343MOL0     C46185   4.707   1.779   1.203 -0.7765  0.1995 -0.2166
  343MOL0     C46186   4.691   1.642   1.128  0.5317  0.0759  0.2158
  343MOL0     N46187   4.671   1.660   0.982  0.4668 -0.7617  0.6075
  343MOL0     C46188   4.548   1.693   0.927  0.6869  0.4189 -0.0660
  343MOL0     C46189   4.580   1.681   0.796  0.3446 -0.1111  0.8362
  343MOL0     C46190   4.473   1.712   0.698 -0.2249  0.0852  0.8872
  343MOL0     C46191   4.378   1.592   0.673  0.6055  0.3013  0.4292
  343MOL0     C46192   4.273   1.621   0.564 -0.1445  0.4775  0.6358
  343MOL0     C46193   4.238   1.488   0.490 -0.1854 -0.9174 -0.4277
  343MOL0     O46194   4.156   1.403   0.576 -0.1181 -0.0284 -0.4517
  343MOL0     C46195   4.020   1.416   0.591  0.8466 -0.0550  0.2854
  343MOL0     C46196   3.933   1.519   0.544 -0.4957 -0.0568  0.0118
  343MOL0     C46197   3.794   1.519   0.574 -0.0107  0.1653 -0.5715
  343MOL0     C46198   3.716   1.641   0.531 -0.6440  0.0703  0.0396
  343MOL0     C46199   3.747   1.411   0.650  0.6023 -0.0576 -0.4160
  343MOL0     C46200   3.603   1.395   0.678  0.4023  0.0461  0.9546
  343MOL0     O46201   3.553   1.272   0.684  0.0384  0.1008  0.3566
  343MOL0     C46202   3.456   1.258   0.782 -0.0491 -0.9527 -0.2324
  343MOL0     C46203   3.478   1.247   0.923  1.3219  0.1780  0.5047
  343MOL0     C46204   3.378   1.213   1.012  0.3265 -0.1725  0.1258
  343MOL0     C46205   3.248   1.202   0.960  0.2962 -0.1267 -0.6891
  343MOL0     O46206   3.144   1.195   1.059 -0.4274 -0.0901  0.3683
  343MOL0     C46207   3.017   1.131   1.022 -0.6150 -0.7508  0.0389
  343MOL0     C46208   2.950   1.110   1.159 -0.1550 -0.8513  0.4227
  343MOL0     C46209   3.038   1.020   1.247  0.2365 -0.1213 -1.3191
  343MOL0     C46210   3.016   0.877   1.211  1.4086  1.2764  0.0272
  343MOL0     C46211   3.127   0.784   1.270 -0.3531  0.2809 -0.0609
  343MOL0     C46212   3.088   0.632   1.277  0.1702 -0.6402 -0.6709
  343MOL0     C46213   3.193   0.539   1.344  0.4706  0.2886 -0.2872
  343MOL0     C46214   3.125   0.445   1.445 -0.2487 -0.1534  0.2299
  343MOL0    Cl46215   3.258   0.364   1.524 -0.1884  0.1447  0.2943
  343MOL0     C46216   3.217   1.225   0.831  0.3389 -0.9459  0.8927
  343MOL0     C46217   3.321   1.250   0.745 -0.0507  0.1513  0.2515
  343MOL0     O46218   3.538   1.496   0.705  0.2741 -0.0658 -0.3715
  343MOL0     C46219   3.832   1.299   0.676 -0.2241 -0.2340  0.5592
  343MOL0     C46220   3.960   1.306   0.639  0.2515  0.5971  0.7882
  343MOL0     N46221   4.717   1.653   0.775 -0.3894 -0.4167 -0.1143
  343MOL0     N46222   4.768   1.643   0.887  0.4602 -0.1963 -0.3800
  343MOL0     C46223   5.126   1.981   2.010  0.1881 -0.0724 -0.7212
  343MOL0     C46224   5.250   1.992   2.079 -0.3888 -0.4447  0.1969
  343MOL0     C46225   5.648   1.933   2.279 -0.0178  0.1779 -0.0300
  343MOL0     C46226   5.650   1.959   2.419 -1.1102 -0.0363 -0.1303
  343MOL0     C46227   5.772   1.985   2.494  0.1485 -1.0704 -0.9381
  343MOL0     C46228   5.889   1.996   2.425 -1.1823 -0.1499  0.1485
  343MOL0     O46229   6.017   2.024   2.474 -0.1900  0.0568 -0.4681
  343MOL0     C46230   6.040   2.119   2.582  1.4972 -0.0409 -0.1106
  343MOL0     C46231   6.121   2.048   2.689  0.7118 -1.0132  0.5402
  343MOL0     C46232   6.270   2.058   2.641 -0.0275  0.1687 -0.0273
  343MOL0     C46233   6.348   2.194   2.659 -0.4548 -0.4151  0.1221
  343MOL0     C46234   6.357   2.234   2.800  0.3534 -0.8734  0.4018
  343MOL0     C46235   6.375   2.258   2.917  0.1444  0.7056  0.1073
  343MOL0     C46236   5.893   1.968   2.283  0.6649 -0.0647  0.6590
  343MOL0     C46237   5.776   1.928   2.215  0.8919  0.4648  0.0560
  343MOL0     H46238   5.182   1.806   2.348  0.1611 -1.3828 -0.6841
  343MOL0     H46239   5.001   1.746   2.224  0.9187 -1.6401 -0.4683
  343MOL0     H46240   4.922   1.995   1.822  1.9706  0.5946 -2.0361
  343MOL0     H46241   4.967   1.826   1.792 -0.1275 -2.2235  1.1950
  343MOL0     H46242   4.743   1.749   1.835 -0.7257  1.4975  3.4794
  343MOL0     H46243   4.680   1.918   1.827 -0.5928  0.0081  0.8415
  343MOL0     H46244   4.661   1.833   1.608 -1.1247 -2.3008  3.2141
  343MOL0     H46245   4.802   1.949   1.604 -1.6981  1.1294  2.3266
  343MOL0     H46246   4.944   1.729   1.599  1.3993 -1.4321 -2.4323
  343MOL0     H46247   4.794   1.631   1.602 -0.3189  0.8334  0.0307
  343MOL0     H46248   4.923   1.747   1.372 -2.3073  4.5348  0.1334
  343MOL0     H46249   4.825   1.602   1.394 -2.2175 -0.6395 -0.4170
  343MOL0     H46250   4.622   1.747   1.398  0.0846  0.1825  2.6136
  343MOL0     H46251   4.741   1.887   1.382 -1.3444  0.0438 -0.2994
  343MOL0     H46252   4.630   1.850   1.171  0.2558  2.2935  1.6545
  343MOL0     H46253   4.794   1.825   1.157 -0.4667  2.0572  2.0526
  343MOL0     H46254   4.607   1.595   1.179 -1.4962  1.2009 -1.9280
  343MOL0     H46255   4.784   1.585   1.141  0.7090  0.2069 -0.4472
  343MOL0     H46256   4.446   1.699   0.963 -0.6998  1.5620 -3.7706
  343MOL0     H46257   4.417   1.804   0.713  0.0656  0.6373 -1.1269
  343MOL0     H46258   4.513   1.721   0.596  0.0442 -1.4161  0.8276
  343MOL0     H46259   4.333   1.565   0.769  1.7443 -0.8142  0.6723
  343MOL0     H46260   4.438   1.509   0.635  5.0284  3.6608 -0.7454
  343MOL0     H46261   4.304   1.707   0.504 -0.2754  0.1165  0.0342
  343MOL0     H46262   4.185   1.649   0.623 -0.6078 -0.4081  0.3799
  343MOL0     H46263   4.324   1.427   0.461 -0.6222 -1.8433  0.2065
  343MOL0     H46264   4.185   1.522   0.400  0.8695  0.4007 -0.5932
  343MOL0     H46265   3.977   1.608   0.499 -1.5201 -0.0493 -1.0246
  343MOL0     H46266   3.630   1.610   0.472  1.3296 -0.1165 -2.9905
  343MOL0     H46267   3.683   1.712   0.608  0.2863 -0.3520  0.8449
  343MOL0     H46268   3.785   1.707   0.476 -0.8297  1.4076  1.3368
  343MOL0     H46269   3.578   1.244   0.963  2.2825  0.0170 -1.7756
  343MOL0     H46270   3.399   1.195   1.117  2.8898 -2.6537 -0.6874
  343MOL0     H46271   2.965   1.196   0.951  2.1314  0.6786 -0.8025
  343MOL0     H46272   3.035   1.033   0.976 -1.2945  0.5188 -3.2568
  343MOL0     H46273   2.931   1.208   1.202 -2.3143 -0.8577 -0.3979
  343MOL0     H46274   2.853   1.060   1.145  0.2762 -1.9340  1.1217
  343MOL0     H46275   3.012   1.028   1.354  1.6845  2.6969 -1.0865
  343MOL0     H46276   3.143   1.047   1.236 -0.5483  2.3323 -3.7821
  343MOL0     H46277   2.925   0.832   1.252  2.4807 -1.4140 -0.3729
  343MOL0     H46278   3.018   0.874   1.101 -0.0259 -2.8441 -0.0372
  343MOL0     H46279   3.152   0.817   1.371  2.7640  1.5007 -1.1404
  343MOL0     H46280   3.217   0.787   1.209 -0.9885  1.6508 -0.9717
  343MOL0     H46281   2.988   0.614   1.316  1.0824 -2.0306  1.2235
  343MOL0     H46282   3.078   0.601   1.173  1.2505 -5.0230  0.3136
  343MOL0     H46283   3.274   0.591   1.396  0.7779 -1.3969  1.0311
  343MOL0     H46284   3.254   0.487   1.270 -0.7107  1.4948 -2.1853
  343MOL0     H46285   3.061   0.367   1.402 -2.8175  2.2654 -0.6399
  343MOL0     H46286   3.066   0.506   1.514 -2.2350 -3.0757  1.3111
  343MOL0     H46287   3.116   1.214   0.792  1.5859 -2.9484 -2.2080
  343MOL0     H46288   3.280   1.265   0.646 -2.3990  1.0768  1.2935
  343MOL0     H46289   3.796   1.201   0.707  0.6953 -1.2287 -1.3803
  343MOL0     H46290   4.020   1.217   0.655  0.4015  0.1295 -1.8806
  343MOL0     H46291   5.100   2.032   1.918 -1.2399  1.7214  0.6125
  343MOL0     H46292   5.318   2.069   2.042  0.2312 -1.0855 -0.0109
  343MOL0     H46293   5.565   1.944   2.485 -0.4263 -0.2171  0.7420
  343MOL0     H46294   5.759   1.996   2.601  0.3368 -1.2925 -0.8914
  343MOL0     H46295   6.074   2.214   2.540  0.1252  0.7369  0.4582
  343MOL0     H46296   5.942   2.138   2.627  0.1225  0.2315 -2.9529
  343MOL0     H46297   6.087   1.944   2.695  0.1419 -0.8080  0.9748
  343MOL0     H46298   6.096   2.078   2.791 -0.5162 -0.6666  0.1632
  343MOL0     H46299   6.279   2.034   2.535  2.2924  2.0909 -0.3561
  343MOL0     H46300   6.326   1.989   2.705 -2.1833 -0.0594  1.7222
  343MOL0     H46301   6.288   2.265   2.601 -2.6878 -1.2247  1.3074
  343MOL0     H46302   6.447   2.184   2.614 -0.0228 -0.0386  0.9613
  343MOL0     H46303   6.416   2.263   3.015  1.8038 -0.9231 -0.4375
  343MOL0     H46304   5.986   1.967   2.229  0.0018  0.4076 -0.5224
  343MOL0     H46305   5.777   1.903   2.109 -2.8264  1.8678 -0.4518
  344MOL0     O46306   9.927   9.587  11.370 -0.3341 -0.7464 -0.1825
  344MOL0     C46307   9.979   9.480  11.389 -0.5266  0.0825  0.1205
  344MOL0     O46308  10.079   9.430  11.319 -0.5146  0.5966 -0.2320
  344MOL0     C46309  10.114   9.499  11.204  0.7126  0.3923  0.3789
  344MOL0     C46310  10.160   9.628  11.211 -1.3034 -0.1876  0.1221
  344MOL0     C46311  10.189   9.698  11.093  1.0981 -0.8059 -0.0465
  344MOL0     C46312  10.171   9.635  10.972  0.3467  0.0997  0.6501
  344MOL0     O46313  10.206   9.700  10.852 -0.0914  0.7322  0.4393
  344MOL0     C46314  10.182   9.840  10.843  0.3544 -0.8176  0.3330
  344MOL0     C46315  10.199   9.880  10.695  0.2546 -0.6308  0.2696
  344MOL0     C46316  10.160  10.023  10.667 -0.8362  0.2237  0.5442
  344MOL0     C46317  10.099  10.030  10.519 -0.7123 -0.0815 -1.3627
  344MOL0     C46318  10.076  10.176  10.473 -0.3133  0.4078  0.1246
  344MOL0     C46319  10.027  10.169  10.329 -0.4240 -0.1284 -0.3705
  344MOL0     C46320  10.037  10.303  10.255 -0.5446 -0.0177  0.0887
  344MOL0     C46321   9.966  10.286  10.119  0.1256 -0.1050 -0.1429
  344MOL0     N46322   9.976  10.410  10.038 -0.0832  0.0156  0.1067
  344MOL0     C46323   9.945  10.536  10.078 -0.5248 -0.0492 -0.0858
  344MOL0     C46324   9.993  10.615   9.980 -0.3066  0.5274 -0.6011
  344MOL0     C46325   9.969  10.757   9.975 -0.4448 -0.5499  1.1941
  344MOL0     C46326  10.100  10.839   9.940  0.2124  0.4305 -0.3150
  344MOL0     C46327  10.224  10.796  10.023  0.8006 -0.0187 -0.2714
  344MOL0     C46328  10.214  10.786  10.180  0.6759 -0.0694 -0.2306
  344MOL0     O46329  10.339  10.785  10.250  0.0615 -0.3661  0.3112
  344MOL0     C46330  10.414  10.666  10.263 -0.5976 -0.2420  0.2837
  344MOL0     C46331  10.534  10.671  10.336  0.5463 -0.4491 -0.9805
  344MOL0     C46332  10.606  10.558  10.377 -0.2540 -0.2336  0.0688
  344MOL0     C46333  10.727  10.572  10.471  0.1411  0.1078  0.4868
  344MOL0     C46334  10.579  10.433  10.308  0.5946 -0.2438  0.0795
  344MOL0     C46335  10.645  10.311  10.342 -0.4973  1.3025  0.2140
  344MOL0     O46336  10.594  10.209  10.424  0.4962 -0.6741  0.1991
  344MOL0     C46337  10.685  10.117  10.476 -0.5760 -0.5122 -0.0992
  344MOL0     C46338  10.667   9.984  10.444 -0.6063  0.4723 -0.3649
  344MOL0     C46339  10.751   9.885  10.507  0.4120  0.0972 -0.4267
  344MOL0     C46340  10.853   9.924  10.597  0.7621 -0.4656  0.0515
  344MOL0     O46341  10.936   9.841  10.668  1.0751  0.6940 -0.4029
  344MOL0     C46342  10.916   9.700  10.674  0.4645  0.4449  0.1189
  344MOL0     C46343  11.050   9.635  10.705 -0.7107  0.2743 -0.6979
  344MOL0     C46344  11.036   9.485  10.738 -0.2332 -0.5197  0.0382
  344MOL0     C46345  11.161   9.414  10.777 -1.0083 -0.6355  0.0410
  344MOL0     C46346  11.213   9.446  10.918 -0.2847  0.0751 -0.2628
  344MOL0     C46347  11.340   9.360  10.942  0.3612 -0.6374  0.2976
  344MOL0     C46348  11.328   9.215  10.965  0.6278  0.1105  0.5052
  344MOL0     C46349  11.459   9.152  11.024 -0.3949 -0.5634  0.3338
  344MOL0    Cl46350  11.573   9.147  10.887  0.0657  0.0826 -0.1687
  344MOL0     C46351  10.864  10.059  10.622 -0.3261  0.0225  0.0338
  344MOL0     C46352  10.786  10.160  10.563 -0.0352  0.2812 -1.1459
  344MOL0     O46353  10.759  10.308  10.290  0.6391 -0.1693 -0.4440
  344MOL0     C46354  10.462  10.418  10.228 -0.3766 -0.4567  0.4262
  344MOL0     C46355  10.380  10.536  10.200  0.3267  0.6549 -0.1548
  344MOL0     N46356  10.064  10.537   9.899  0.4700  0.4463  1.1954
  344MOL0     N46357  10.059  10.413   9.928  0.3144 -0.3183  0.1254
  344MOL0     C46358  10.119   9.506  10.960  0.4839  0.5025 -0.8548
  344MOL0     C46359  10.086   9.446  11.078 -0.1999  0.1527 -0.3032
  344MOL0     C46360   9.931   9.389  11.491  0.7515 -0.4545  0.2706
  344MOL0     C46361   9.836   9.428  11.589 -0.2863 -0.7584  0.4013
  344MOL0     C46362   9.784   9.322  11.671  0.3306  1.2111  0.0805
  344MOL0     C46363   9.824   9.192  11.669  0.8363 -0.1427  0.0225
  344MOL0     O46364   9.751   9.102  11.750 -0.2086  0.5783  0.2963
  344MOL0     C46365   9.842   9.031  11.845  0.4823  0.2714  0.7710
  344MOL0     C46366   9.776   8.898  11.885  0.2971 -0.5266  0.0636
  344MOL0     C46367   9.650   8.907  11.959  0.3843  0.7829 -0.8703
  344MOL0     C46368   9.667   8.955  12.102 -0.4353 -0.1740 -0.0281
  344MOL0     C46369   9.536   8.930  12.165 -0.1884  1.1693  0.0774
  344MOL0     C46370   9.424   8.920  12.209 -0.5887 -0.2033  1.2466
  344MOL0     C46371   9.928   9.155  11.573  0.8416 -0.1178  0.3336
  344MOL0     C46372   9.967   9.246  11.486  0.3741 -0.3080  0.6144
  344MOL0     H46373  10.169   9.669  11.311  2.2799  3.5415 -1.4734
  344MOL0     H46374  10.216   9.803  11.103  1.9132 -0.8592 -1.3710
  344MOL0     H46375  10.090   9.867  10.895  1.0051  0.0986  1.0268
  344MOL0     H46376  10.261   9.894  10.894 -0.3545 -0.2758  0.8705
  344MOL0     H46377  10.308   9.872  10.687  0.1710 -1.3258 -0.2367
  344MOL0     H46378  10.152   9.813  10.622 -0.9839  0.8015 -0.3100
  344MOL0     H46379  10.106  10.067  10.751  1.9822  1.3827  1.9161
  344MOL0     H46380  10.257  10.074  10.659 -0.3894 -0.3851  1.8296
  344MOL0     H46381  10.175   9.989  10.452  0.5228  2.5226 -1.6731
  344MOL0     H46382  10.008   9.970  10.515 -0.3536 -0.9741  1.5695
  344MOL0     H46383  10.000  10.239  10.518  2.4988  3.3705  1.1121
  344MOL0     H46384  10.170  10.232  10.485 -0.9212  1.4244  0.1925
  344MOL0     H46385  10.081  10.092  10.274 -0.3020 -1.3377  1.3530
  344MOL0     H46386   9.922  10.142  10.347 -0.5533 -1.3332 -2.6512
  344MOL0     H46387   9.980  10.378  10.311 -2.7624 -0.5724 -1.2873
  344MOL0     H46388  10.142  10.329  10.244 -0.8469  0.2069 -3.2130
  344MOL0     H46389   9.859  10.285  10.142  0.1637  3.6869  0.8042
  344MOL0     H46390  10.003  10.196  10.070  3.6455  0.7861  0.6025
  344MOL0     H46391   9.881  10.576  10.156 -1.8418  0.5394 -1.4241
  344MOL0     H46392   9.892  10.775   9.899 -0.8700  0.5333  1.8540
  344MOL0     H46393   9.923  10.787  10.070 -1.0590  0.7782  0.5158
  344MOL0     H46394  10.089  10.948   9.942  0.3753  0.4285  1.3768
  344MOL0     H46395  10.127  10.805   9.839 -1.5155 -0.6864 -0.4318
  344MOL0     H46396  10.312  10.854   9.994  1.5006 -0.6401  0.5491
  344MOL0     H46397  10.244  10.698   9.978 -1.0511  0.8547 -3.2729
  344MOL0     H46398  10.165  10.692  10.207  0.8306  0.5412  2.4480
  344MOL0     H46399  10.149  10.859  10.227 -0.9081 -1.5871  0.0440
  344MOL0     H46400  10.559  10.773  10.362 -0.8867  0.4658 -2.9341
  344MOL0     H46401  10.811  10.622  10.423 -1.6066 -0.7971 -3.9570
  344MOL0     H46402  10.702  10.639  10.554 -0.4025  2.4888 -1.5043
  344MOL0     H46403  10.763  10.475  10.507  2.9503 -0.5976 -3.5820
  344MOL0     H46404  10.579   9.973  10.382  1.0668  2.4160 -3.3195
  344MOL0     H46405  10.719   9.786  10.478  0.1886  0.1557 -0.3854
  344MOL0     H46406  10.849   9.672  10.756 -0.4385 -0.9940 -1.0676
  344MOL0     H46407  10.890   9.652  10.580  4.2565 -0.3310 -0.7087
  344MOL0     H46408  11.115   9.659  10.620  1.3173  2.4018  1.2881
  344MOL0     H46409  11.097   9.678  10.795 -0.8595 -0.9218 -0.0274
  344MOL0     H46410  10.991   9.445  10.646  1.0998  0.7437 -1.2293
  344MOL0     H46411  10.958   9.476  10.814  0.3552  0.3290  0.7553
  344MOL0     H46412  11.146   9.306  10.778 -1.9719 -0.5046  1.3686
  344MOL0     H46413  11.244   9.440  10.711 -0.3835 -0.8576  0.7386
  344MOL0     H46414  11.138   9.416  10.991 -0.5054  0.1376 -0.4647
  344MOL0     H46415  11.242   9.551  10.931 -1.6257  0.3048  0.9881
  344MOL0     H46416  11.402   9.364  10.852 -5.0421 -1.1152 -4.0184
  344MOL0     H46417  11.386   9.401  11.033  0.2200 -1.1367  0.5992
  344MOL0     H46418  11.306   9.166  10.870 -1.5875 -2.2207  2.0999
  344MOL0     H46419  11.247   9.192  11.035 -0.4512 -2.7680 -1.5470
  344MOL0     H46420  11.439   9.057  11.073  1.6176 -0.5855  1.1884
  344MOL0     H46421  11.496   9.221  11.101 -1.6233 -0.7050  1.0693
  344MOL0     H46422  10.937  10.101  10.690  0.8015 -2.7290  0.6834
  344MOL0     H46423  10.800  10.265  10.582 -0.2265  0.0737  0.2214
  344MOL0     H46424  10.446  10.323  10.178 -0.0436  0.0283 -0.6297
  344MOL0     H46425  10.293  10.523  10.136  0.5769 -3.8050  0.1115
  344MOL0     H46426  10.098   9.463  10.862 -1.3901  1.2153 -0.8103
  344MOL0     H46427  10.058   9.342  11.065  1.0011 -0.3547  0.9502
  344MOL0     H46428   9.794   9.528  11.588 -0.9648 -1.0437 -0.4372
  344MOL0     H46429   9.700   9.340  11.738 -0.1503 -0.4798 -0.0082
  344MOL0     H46430   9.939   9.005  11.803 -0.0793 -0.3173 -0.1805
  344MOL0     H46431   9.865   9.101  11.926 -0.0900  0.3596  0.8581
  344MOL0     H46432   9.853   8.848  11.945 -2.8262 -3.0608  2.3149
  344MOL0     H46433   9.745   8.852  11.791 -3.3209 -0.0163  0.8746
  344MOL0     H46434   9.594   8.814  11.961  1.0058  0.4168  0.7927
  344MOL0     H46435   9.587   8.974  11.899  0.2391  1.2847 -0.1714
  344MOL0     H46436   9.702   9.058  12.092  0.5684 -0.4416  0.5645
  344MOL0     H46437   9.748   8.905  12.155 -0.2010 -0.7739 -0.9377
  344MOL0     H46438   9.321   8.920  12.239 -1.1374 -0.7387 -0.5284
  344MOL0     H46439   9.969   9.058  11.548 -0.1246 -0.7068  0.9618
  344MOL0     H46440  10.034   9.219  11.405  0.2459  1.6745 -0.2008
  345MOL0     O46441   6.496   5.537   8.485 -0.6282 -0.1777 -0.3290
  345MOL0     C46442   6.551   5.432   8.521 -0.2448 -1.1235 -0.0714
  345MOL0     O46443   6.618   5.408   8.638 -0.2131 -0.6408 -1.0337
  345MOL0     C46444   6.655   5.509   8.719  0.2806 -0.2085  0.2223
  345MOL0     C46445   6.671   5.474   8.851  0.0571  0.4747  0.1274
  345MOL0     C46446   6.732   5.558   8.948 -0.3233 -0.4068  0.4579
  345MOL0     C46447   6.776   5.684   8.918  0.3685  0.3448  0.3192
  345MOL0     O46448   6.820   5.763   9.023  0.1182  0.6881 -0.1723
  345MOL0     C46449   6.894   5.882   8.990  0.0572  0.2858 -1.1474
  345MOL0     C46450   6.937   5.946   9.122  0.0533 -0.0153 -0.4546
  345MOL0     C46451   7.007   6.083   9.101 -0.2107 -0.2810  0.0573
  345MOL0     C46452   7.080   6.131   9.226  0.1985  0.7197 -1.2752
  345MOL0     C46453   7.104   6.274   9.228  0.6037 -0.3225 -1.0033
  345MOL0     C46454   7.200   6.308   9.349  0.7335  0.3718 -0.3622
  345MOL0     C46455   7.334   6.251   9.346 -0.1469 -0.1098  0.3507
  345MOL0     C46456   7.404   6.294   9.476 -0.3094 -0.4042  1.3431
  345MOL0     N46457   7.517   6.203   9.505 -0.0207 -0.4327 -0.1767
  345MOL0     C46458   7.647   6.222   9.485 -0.6784 -0.5292  0.3399
  345MOL0     C46459   7.711   6.109   9.510 -0.5598 -0.0729 -0.2920
  345MOL0     C46460   7.864   6.090   9.512 -0.0884 -0.1146  0.6736
  345MOL0     C46461   7.918   6.068   9.664 -0.0934  1.0360  0.2074
  345MOL0     C46462   7.862   5.936   9.710  0.0676 -0.5527 -0.0360
  345MOL0     C46463   7.944   5.883   9.837 -0.2978 -0.1113  0.0454
  345MOL0     O46464   7.862   5.785   9.918 -0.2233  0.5504  0.2601
  345MOL0     C46465   7.868   5.654   9.880 -0.0929 -0.2578 -0.3005
  345MOL0     C46466   7.931   5.611   9.765  0.4862 -0.2866 -0.0727
  345MOL0     C46467   7.940   5.472   9.737  0.1276 -0.4972 -0.4275
  345MOL0     C46468   8.029   5.427   9.627 -0.8823  0.1583  0.1777
  345MOL0     C46469   7.863   5.372   9.817 -0.6927  0.4064 -0.8030
  345MOL0     C46470   7.849   5.221   9.790 -0.7571 -0.7853 -0.5153
  345MOL0     O46471   7.834   5.139   9.892  0.7292  0.5475 -0.3849
  345MOL0     C46472   7.818   4.997   9.869 -0.8232 -1.1311  0.2276
  345MOL0     C46473   7.897   4.908   9.948 -0.2471  0.1171  0.1991
  345MOL0     C46474   7.887   4.767   9.928 -0.5800 -0.9724  1.0878
  345MOL0     C46475   7.799   4.716   9.831 -0.0989  0.4586 -0.4875
  345MOL0     O46476   7.798   4.578   9.837 -0.6285  1.0121  0.6621
  345MOL0     C46477   7.760   4.497   9.728  0.2302 -0.0034 -0.1736
  345MOL0     C46478   7.854   4.500   9.608 -0.0703 -0.3186 -1.0685
  345MOL0     C46479   7.828   4.389   9.511  0.7487  0.9351  0.0316
  345MOL0     C46480   7.686   4.378   9.464 -0.2455  0.2254 -0.3531
  345MOL0     C46481   7.664   4.278   9.349  0.4825 -0.4009  0.6380
  345MOL0     C46482   7.522   4.295   9.291  0.1826  0.5572  0.3182
  345MOL0     C46483   7.471   4.183   9.193 -1.1260  0.7135  0.0161
  345MOL0     C46484   7.584   4.153   9.095 -0.5882  0.5623 -0.6498
  345MOL0    Cl46485   7.503   4.062   8.967 -0.2317 -0.0456 -0.0532
  345MOL0     C46486   7.710   4.804   9.760 -0.5819  0.6146 -0.3064
  345MOL0     C46487   7.724   4.943   9.779 -0.6266  0.1514  0.2931
  345MOL0     O46488   7.848   5.188   9.672 -0.1084 -0.0307  0.3647
  345MOL0     C46489   7.797   5.420   9.933 -0.8261  0.6461  0.4956
  345MOL0     C46490   7.809   5.554   9.961 -0.6998 -0.2717 -0.2123
  345MOL0     N46491   7.615   6.021   9.562  0.3440  0.6932 -0.6955
  345MOL0     N46492   7.496   6.080   9.560 -0.0789 -0.4230  0.5538
  345MOL0     C46493   6.738   5.728   8.795  0.0120  0.1773  0.3172
  345MOL0     C46494   6.692   5.636   8.695  0.0233 -0.1132  0.7095
  345MOL0     C46495   6.520   5.319   8.446  0.1028  0.0511 -0.0161
  345MOL0     C46496   6.443   5.331   8.334  0.2349  0.2820  0.3797
  345MOL0     C46497   6.408   5.218   8.249  0.5891  0.2794  0.1958
  345MOL0     C46498   6.425   5.091   8.293 -0.0745  0.1825 -0.3587
  345MOL0     O46499   6.380   4.978   8.231 -0.0343  0.0361  0.2096
  345MOL0     C46500   6.293   4.882   8.300 -0.0334 -0.9828  0.4665
  345MOL0     C46501   6.155   4.962   8.332  0.0576 -0.2753 -0.1655
  345MOL0     C46502   6.079   4.981   8.195 -0.1393  0.0408 -0.5773
  345MOL0     C46503   5.951   5.075   8.221 -0.2116  0.6689  0.5863
  345MOL0     C46504   5.924   5.161   8.105  0.2404 -0.3345 -0.0008
  345MOL0     C46505   5.891   5.233   8.011  0.2709 -0.4793  0.9639
  345MOL0     C46506   6.501   5.082   8.409 -0.8754  0.3939  0.9768
  345MOL0     C46507   6.550   5.193   8.485 -0.9917  0.8638  0.8401
  345MOL0     H46508   6.638   5.375   8.883 -2.0026  0.3898 -2.0201
  345MOL0     H46509   6.749   5.517   9.047  2.9417 -3.6988 -1.2358
  345MOL0     H46510   6.976   5.856   8.922  0.7680 -2.0031  0.4383
  345MOL0     H46511   6.833   5.955   8.936 -1.1512 -1.0367 -1.6236
  345MOL0     H46512   6.849   5.959   9.186 -0.2903 -0.8548 -0.7429
  345MOL0     H46513   7.011   5.885   9.174 -0.9441 -0.3759  0.5677
  345MOL0     H46514   7.078   6.067   9.019  1.9551  0.0735  1.7973
  345MOL0     H46515   6.934   6.157   9.066 -0.6042  0.0231  1.4554
  345MOL0     H46516   7.014   6.111   9.310 -1.0842  1.2231 -2.1283
  345MOL0     H46517   7.169   6.071   9.247 -1.6181 -1.0104  2.2560
  345MOL0     H46518   7.146   6.311   9.134 -0.1996 -0.0973 -1.2820
  345MOL0     H46519   7.014   6.336   9.241  0.0966 -0.4497 -3.5346
  345MOL0     H46520   7.201   6.418   9.344 -1.4480  0.4847  0.7206
  345MOL0     H46521   7.151   6.279   9.442  1.7896 -2.9633 -0.7003
  345MOL0     H46522   7.329   6.142   9.340 -1.3295 -0.0520  0.0960
  345MOL0     H46523   7.386   6.299   9.263  1.3834 -1.6933  0.3299
  345MOL0     H46524   7.336   6.294   9.562  0.1364  0.1433  1.7018
  345MOL0     H46525   7.447   6.391   9.452  1.0059 -1.3190 -0.1551
  345MOL0     H46526   7.710   6.304   9.452  2.2001 -2.7000  0.0322
  345MOL0     H46527   7.887   6.013   9.438 -1.7133  1.5228 -1.6715
  345MOL0     H46528   7.910   6.180   9.471 -2.5437  1.1928  0.5976
  345MOL0     H46529   7.877   6.130   9.745  1.2294  2.7769 -0.3925
  345MOL0     H46530   8.026   6.080   9.657 -0.1204  1.2031  0.0706
  345MOL0     H46531   7.876   5.869   9.624 -2.1429 -0.0220 -0.8910
  345MOL0     H46532   7.755   5.956   9.726  0.6526  4.6061 -0.8280
  345MOL0     H46533   7.957   5.976   9.894 -0.1215 -0.4388  0.5394
  345MOL0     H46534   8.040   5.841   9.806  0.1070  1.2018 -0.5580
  345MOL0     H46535   7.971   5.684   9.696 -2.6201  2.3304  0.6528
  345MOL0     H46536   8.079   5.335   9.659 -2.2695 -0.4067  0.8244
  345MOL0     H46537   7.963   5.394   9.546 -1.0016  1.0632 -0.1025
  345MOL0     H46538   8.114   5.493   9.609  1.6461 -3.0482 -0.6204
  345MOL0     H46539   7.978   4.958   9.999  0.3599 -1.0160  0.3753
  345MOL0     H46540   7.944   4.701   9.991  1.5744 -1.5734 -1.3360
  345MOL0     H46541   7.752   4.393   9.762 -2.3044  0.5725  1.1981
  345MOL0     H46542   7.658   4.512   9.692  1.0306 -0.1373 -2.7587
  345MOL0     H46543   7.830   4.598   9.565  2.2241  0.1751 -1.3514
  345MOL0     H46544   7.954   4.492   9.650 -0.7719 -1.5802  0.4464
  345MOL0     H46545   7.858   4.292   9.554  0.0302  1.3138  1.4517
  345MOL0     H46546   7.889   4.413   9.423  0.1976  3.0574  0.1779
  345MOL0     H46547   7.621   4.351   9.548 -2.7927 -1.0727 -2.5971
  345MOL0     H46548   7.654   4.480   9.443  3.6781  2.0574  1.5273
  345MOL0     H46549   7.674   4.181   9.399 -1.7924 -1.2844 -0.4617
  345MOL0     H46550   7.733   4.286   9.264 -1.6827  1.1394 -1.1056
  345MOL0     H46551   7.444   4.300   9.367 -3.1514 -2.0013 -2.5921
  345MOL0     H46552   7.532   4.390   9.237 -0.0031  0.6899  0.5165
  345MOL0     H46553   7.384   4.226   9.144 -2.9308  0.7219  2.9676
  345MOL0     H46554   7.437   4.098   9.253 -0.7124  0.7892  0.3608
  345MOL0     H46555   7.663   4.091   9.138 -2.3968 -1.4716 -0.0969
  345MOL0     H46556   7.624   4.247   9.056  1.1151  0.4657  0.7602
  345MOL0     H46557   7.630   4.761   9.701 -1.4043  0.1228  1.1006
  345MOL0     H46558   7.666   5.015   9.721  1.7955  2.2964  0.3158
  345MOL0     H46559   7.733   5.355   9.991 -2.4586  1.8823  0.1581
  345MOL0     H46560   7.778   5.593  10.058  1.8661  0.7045  0.2807
  345MOL0     H46561   6.758   5.834   8.782  0.9331  0.3716  2.8162
  345MOL0     H46562   6.669   5.672   8.595  0.3931 -2.3475 -0.2327
  345MOL0     H46563   6.407   5.426   8.297  0.6753  0.1331 -0.4606
  345MOL0     H46564   6.358   5.242   8.156 -2.9145  2.2593  2.3708
  345MOL0     H46565   6.277   4.800   8.229 -0.8990 -1.4179  1.1526
  345MOL0     H46566   6.348   4.843   8.386  1.7028 -2.4911 -1.2509
  345MOL0     H46567   6.168   5.053   8.391 -1.1778  0.5955 -1.1767
  345MOL0     H46568   6.106   4.882   8.389 -1.9819  0.3842 -0.9111
  345MOL0     H46569   6.051   4.879   8.170  1.0780 -1.4288  3.3648
  345MOL0     H46570   6.141   5.028   8.117  1.3174  0.0197  0.5328
  345MOL0     H46571   5.975   5.148   8.300 -0.3066 -0.4232  1.6536
  345MOL0     H46572   5.866   5.013   8.251 -0.2846 -0.1311 -1.1459
  345MOL0     H46573   5.855   5.295   7.931 -2.7163 -1.9392  1.0810
  345MOL0     H46574   6.512   4.978   8.439  1.2920 -0.3030 -1.7787
  345MOL0     H46575   6.609   5.168   8.572 -0.5541 -0.8157  0.1124
  346MOL0     O46576   8.017   6.310   1.639 -0.6882  0.1430  0.0572
  346MOL0     C46577   8.048   6.250   1.743 -0.6020 -0.0796  0.2081
  346MOL0     O46578   8.175   6.203   1.778  0.9870 -0.1332  0.2115
  346MOL0     C46579   8.280   6.189   1.689  0.3434 -0.1326 -0.0272
  346MOL0     C46580   8.381   6.103   1.727  1.1014  0.1961 -1.0569
  346MOL0     C46581   8.503   6.088   1.662 -0.1431 -0.1089  1.4650
  346MOL0     C46582   8.522   6.151   1.537 -0.1704 -0.4392 -0.4877
  346MOL0     O46583   8.646   6.126   1.482 -0.1047 -0.5359 -0.0763
  346MOL0     C46584   8.676   6.168   1.354  0.3578  0.2966  0.8975
  346MOL0     C46585   8.802   6.089   1.317 -0.2718 -0.2639  0.4077
  346MOL0     C46586   8.925   6.129   1.418 -0.1021 -0.2576  0.4361
  346MOL0     C46587   9.061   6.059   1.388  0.0807  0.0663 -0.0492
  346MOL0     C46588   9.187   6.098   1.470  0.0031 -0.7231 -0.1210
  346MOL0     C46589   9.206   6.020   1.604  0.3108 -0.9100  0.0256
  346MOL0     C46590   9.321   6.078   1.679  0.5053 -0.1413 -0.3216
  346MOL0     C46591   9.443   6.017   1.620  0.3564 -0.4988 -0.0643
  346MOL0     N46592   9.568   6.071   1.693  0.3748  0.6974 -0.1407
  346MOL0     C46593   9.596   6.065   1.828 -0.8322  1.6134 -0.5123
  346MOL0     C46594   9.702   6.137   1.869 -0.4767  0.5170  1.1285
  346MOL0     C46595   9.767   6.166   1.998  0.3000  0.3718 -0.4028
  346MOL0     C46596   9.684   6.098   2.115 -0.4440  0.7418  1.3235
  346MOL0     C46597   9.712   6.153   2.252 -0.4596  0.1730  0.3140
  346MOL0     C46598   9.598   6.117   2.354  1.0905  0.0652  0.9157
  346MOL0     O46599   9.574   5.975   2.342  0.5481 -0.9803 -0.0598
  346MOL0     C46600   9.642   5.906   2.439 -0.0938  0.0379  0.5084
  346MOL0     C46601   9.601   5.907   2.576  0.1456 -0.4536  1.6079
  346MOL0     C46602   9.666   5.840   2.671 -0.9207  0.3365 -0.0524
  346MOL0     C46603   9.629   5.840   2.822  0.0728  0.2448  0.1253
  346MOL0     C46604   9.783   5.767   2.636  0.6357  0.5762  0.1589
  346MOL0     C46605   9.871   5.696   2.727 -0.2670 -0.4145  0.1482
  346MOL0     O46606  10.002   5.697   2.695 -0.7414 -0.3183 -0.0034
  346MOL0     C46607  10.114   5.646   2.770  0.0285  1.0339 -0.3243
  346MOL0     C46608  10.107   5.621   2.909 -0.6386 -0.2536 -0.5417
  346MOL0     C46609  10.216   5.566   2.972 -0.6123 -0.8691  0.0493
  346MOL0     C46610  10.347   5.561   2.905  0.1711  0.1486  0.4447
  346MOL0     O46611  10.461   5.512   2.962 -0.0579  0.4941 -0.7479
  346MOL0     C46612  10.429   5.378   3.027  0.1349  0.3541  0.1605
  346MOL0     C46613  10.538   5.293   3.059 -0.0432 -0.0085 -0.0181
  346MOL0     C46614  10.637   5.339   3.160  0.1064  0.1930  0.6683
  346MOL0     C46615  10.738   5.230   3.211 -0.4033  1.2209 -0.1107
  346MOL0     C46616  10.851   5.205   3.095 -0.0329  1.1167 -0.3151
  346MOL0     C46617  10.980   5.137   3.157 -0.2618  0.5512 -0.9710
  346MOL0     C46618  11.088   5.113   3.046  0.1218  0.1287 -0.3057
  346MOL0     C46619  11.198   5.015   3.095 -0.4309  0.6344 -0.1387
  346MOL0    Cl46620  11.281   5.078   3.242  0.1589  0.1065  0.2583
  346MOL0     C46621  10.351   5.590   2.765 -0.0090 -0.9566 -0.0308
  346MOL0     C46622  10.233   5.633   2.700 -0.4206 -0.3853 -0.1876
  346MOL0     O46623   9.828   5.645   2.824 -0.5024  0.0174 -0.1635
  346MOL0     C46624   9.819   5.757   2.506  0.8544 -0.9273  0.3643
  346MOL0     C46625   9.760   5.832   2.414 -0.5371  0.1226  0.6033
  346MOL0     N46626   9.740   6.193   1.746 -0.3757  0.3003 -0.8326
  346MOL0     N46627   9.674   6.143   1.644 -0.2181 -0.2194 -1.1324
  346MOL0     C46628   8.420   6.242   1.492 -0.5786 -0.6319 -0.1559
  346MOL0     C46629   8.294   6.260   1.565 -0.2131  1.0508  0.6740
  346MOL0     C46630   7.948   6.257   1.847  0.6841 -0.4865  0.1655
  346MOL0     C46631   7.810   6.280   1.819 -0.3365  0.3426 -0.4910
  346MOL0     C46632   7.717   6.287   1.929 -1.1821  0.2010  0.3357
  346MOL0     C46633   7.758   6.261   2.058 -0.8124 -0.0355 -0.8542
  346MOL0     O46634   7.661   6.270   2.157  0.2919  0.4982  0.0108
  346MOL0     C46635   7.702   6.252   2.294  0.6982  0.1974 -0.1830
  346MOL0     C46636   7.569   6.259   2.365 -0.1185  0.0821 -0.1907
  346MOL0     C46637   7.586   6.197   2.508  0.2488 -0.4297 -0.4255
  346MOL0     C46638   7.444   6.166   2.562  0.0397 -0.0160  0.6973
  346MOL0     C46639   7.375   6.276   2.634 -0.8148  0.2146  0.1845
  346MOL0     C46640   7.341   6.362   2.710 -0.2963 -0.6844  0.1168
  346MOL0     C46641   7.893   6.227   2.082 -0.4592 -0.2500 -0.3732
  346MOL0     C46642   7.988   6.231   1.980 -0.4898  0.0882  0.2917
  346MOL0     H46643   8.372   6.059   1.826  0.0044  2.7410  0.0809
  346MOL0     H46644   8.590   6.033   1.697  1.8415  0.8498 -1.5628
  346MOL0     H46645   8.592   6.152   1.285  0.3376  2.2957  0.3925
  346MOL0     H46646   8.697   6.275   1.361 -0.9155  0.7439 -1.1532
  346MOL0     H46647   8.788   5.981   1.318 -1.4285 -0.1335 -0.1931
  346MOL0     H46648   8.835   6.132   1.222  0.4455  0.7569  1.0950
  346MOL0     H46649   8.942   6.237   1.423  1.3775 -0.4910  0.9398
  346MOL0     H46650   8.902   6.087   1.517 -0.8406 -0.5000  0.1719
  346MOL0     H46651   9.046   5.952   1.410  2.6433  0.3846  4.6332
  346MOL0     H46652   9.100   6.075   1.287  2.3683 -1.1016  0.5768
  346MOL0     H46653   9.276   6.078   1.410  1.1404 -1.5358  1.7426
  346MOL0     H46654   9.200   6.206   1.483  2.0926 -0.9266 -0.1477
  346MOL0     H46655   9.116   6.013   1.666  0.2298 -1.0933 -0.1085
  346MOL0     H46656   9.218   5.911   1.597 -0.4008 -1.0631  0.9758
  346MOL0     H46657   9.324   6.186   1.662 -1.3298 -0.0638 -0.3891
  346MOL0     H46658   9.301   6.058   1.785 -0.4325 -0.7328 -0.5915
  346MOL0     H46659   9.462   6.046   1.516  1.1119  0.0898  0.2259
  346MOL0     H46660   9.446   5.909   1.634  0.7596 -0.5032 -0.1599
  346MOL0     H46661   9.532   6.004   1.891  0.1934  2.0613  1.0575
  346MOL0     H46662   9.870   6.133   2.006 -0.1692 -0.8750  0.9376
  346MOL0     H46663   9.750   6.273   2.015 -1.1401 -0.1985  2.3840
  346MOL0     H46664   9.716   5.994   2.126 -3.5521 -0.2936  1.5126
  346MOL0     H46665   9.576   6.101   2.099 -0.4715 -0.7248  1.1443
  346MOL0     H46666   9.734   6.261   2.257  0.8942 -0.1120  0.8941
  346MOL0     H46667   9.797   6.099   2.294 -2.1020 -1.3656  1.8272
  346MOL0     H46668   9.508   6.166   2.316  1.4307  1.1113  1.4384
  346MOL0     H46669   9.621   6.161   2.451 -1.1249 -0.6051  1.8056
  346MOL0     H46670   9.512   5.966   2.593 -2.6125 -2.7934 -2.6136
  346MOL0     H46671   9.609   5.738   2.858  1.2602  0.2261  0.7948
  346MOL0     H46672   9.712   5.881   2.880  0.4363  2.6526 -1.9215
  346MOL0     H46673   9.540   5.897   2.847  0.6175  0.3244  2.0837
  346MOL0     H46674  10.022   5.642   2.974 -0.0748  1.4029 -0.2860
  346MOL0     H46675  10.211   5.537   3.077  2.2540  0.3039  0.6146
  346MOL0     H46676  10.367   5.392   3.117  1.3951 -0.2892  1.1628
  346MOL0     H46677  10.376   5.326   2.947 -0.5015 -1.7375  1.8543
  346MOL0     H46678  10.502   5.191   3.068 -0.7537  0.1755 -0.6507
  346MOL0     H46679  10.597   5.275   2.969  1.8586  4.3709  0.0827
  346MOL0     H46680  10.576   5.371   3.245 -3.0802 -1.2284 -0.9224
  346MOL0     H46681  10.703   5.417   3.119 -0.7716 -0.0182 -1.2784
  346MOL0     H46682  10.779   5.254   3.309 -0.8124  0.2400  0.3113
  346MOL0     H46683  10.693   5.133   3.233  2.7064  0.0198  1.6291
  346MOL0     H46684  10.879   5.296   3.041  0.6284 -0.3471 -2.6313
  346MOL0     H46685  10.799   5.142   3.022 -0.4494  2.2252 -1.0079
  346MOL0     H46686  11.022   5.190   3.243  1.0175  0.0758 -1.2792
  346MOL0     H46687  10.938   5.047   3.203 -1.1965  1.4496 -0.0197
  346MOL0     H46688  11.130   5.211   3.024  1.1835  0.2088  1.8037
  346MOL0     H46689  11.043   5.063   2.959 -2.0594  1.1360  0.1682
  346MOL0     H46690  11.270   4.994   3.016 -0.8792 -0.5436 -0.2674
  346MOL0     H46691  11.153   4.916   3.110  2.0566 -0.4420  0.7710
  346MOL0     H46692  10.448   5.580   2.717 -0.1770 -0.4106 -0.4890
  346MOL0     H46693  10.231   5.668   2.597  3.0586  4.1719  1.0016
  346MOL0     H46694   9.909   5.703   2.476  2.8846  0.7289  3.0716
  346MOL0     H46695   9.806   5.830   2.315  0.2587  2.2678  0.8817
  346MOL0     H46696   8.416   6.296   1.398 -1.9196  1.2887  0.9392
  346MOL0     H46697   8.222   6.327   1.520  0.5942  1.2937 -0.2608
  346MOL0     H46698   7.772   6.300   1.720  1.5978 -0.2477 -1.4027
  346MOL0     H46699   7.614   6.302   1.897 -1.1830  2.0369  1.0767
  346MOL0     H46700   7.759   6.159   2.308  3.4363  1.0972 -3.8807
  346MOL0     H46701   7.760   6.338   2.331  0.3917  0.9212 -1.3575
  346MOL0     H46702   7.498   6.200   2.307 -0.0127 -1.3125  1.0465
  346MOL0     H46703   7.530   6.361   2.371 -0.3160 -0.0679  1.4530
  346MOL0     H46704   7.633   6.270   2.575 -4.0786  1.9332  0.3842
  346MOL0     H46705   7.651   6.109   2.510  1.0373  0.1522  0.2657
  346MOL0     H46706   7.450   6.073   2.619  1.0852 -1.5139 -1.6839
  346MOL0     H46707   7.384   6.141   2.474  0.5518  1.7026 -0.1860
  346MOL0     H46708   7.302   6.433   2.779 -0.1998  0.2225 -0.7368
  346MOL0     H46709   7.933   6.215   2.183  0.5060  1.9472 -0.4478
  346MOL0     H46710   8.093   6.219   2.004 -0.0070 -0.2453 -1.8101
  347MOL0     O46711   2.096   7.975   1.699 -0.0084  0.4810 -0.1336
  347MOL0     C46712   2.020   8.064   1.659  0.1533 -0.2231  0.1633
  347MOL0     O46713   2.047   8.200   1.669  0.1694  0.0207  0.0122
  347MOL0     C46714   2.165   8.245   1.720  0.2182  0.9178  0.3004
  347MOL0     C46715   2.165   8.272   1.854  0.5022  0.2840  0.0389
  347MOL0     C46716   2.292   8.324   1.905  0.0955 -0.4306  0.6927
  347MOL0     C46717   2.411   8.336   1.832  0.9718 -0.2331  0.4322
  347MOL0     O46718   2.520   8.391   1.889  0.2359  0.0125 -0.7097
  347MOL0     C46719   2.639   8.409   1.823 -0.2796 -0.3539 -0.3430
  347MOL0     C46720   2.724   8.507   1.907 -0.4423 -0.1076  0.2876
  347MOL0     C46721   2.848   8.582   1.851  0.3356 -0.4846 -0.9551
  347MOL0     C46722   2.970   8.485   1.824  0.6451 -0.1059  0.1106
  347MOL0     C46723   3.091   8.559   1.782  0.1258  0.8559  0.1234
  347MOL0     C46724   3.070   8.662   1.669  0.3477 -0.1009 -0.7018
  347MOL0     C46725   3.186   8.703   1.578  0.5726  0.5052 -0.0172
  347MOL0     C46726   3.300   8.755   1.672 -0.8075  1.0886 -0.2995
  347MOL0     N46727   3.381   8.844   1.594  0.4413  0.3502 -0.7997
  347MOL0     C46728   3.421   8.838   1.463 -0.6000  0.2219  0.6014
  347MOL0     C46729   3.517   8.928   1.446 -0.4754  0.9214  0.4871
  347MOL0     C46730   3.600   8.953   1.315 -0.4151 -0.1741  0.4533
  347MOL0     C46731   3.515   8.988   1.186  0.6000 -0.4697 -0.0823
  347MOL0     C46732   3.456   9.128   1.163 -0.1279  0.0720  0.4611
  347MOL0     C46733   3.545   9.246   1.137  0.9577  0.7910  0.5720
  347MOL0     O46734   3.625   9.220   1.025  0.0801  0.2161  0.3066
  347MOL0     C46735   3.749   9.296   1.019 -0.3965  1.0324  0.4401
  347MOL0     C46736   3.864   9.219   0.957  0.0367 -0.2985 -0.8826
  347MOL0     C46737   3.979   9.284   0.920 -0.3690 -0.0671 -0.6191
  347MOL0     C46738   4.069   9.214   0.820  0.1093 -0.4300  0.4733
  347MOL0     C46739   3.994   9.423   0.952  0.1607 -0.0547 -0.6063
  347MOL0     C46740   4.123   9.503   0.919  0.3294 -0.2020 -0.0815
  347MOL0     O46741   4.114   9.635   0.910  0.0532  0.1758  0.1667
  347MOL0     C46742   4.230   9.699   0.876  0.0519  0.5080  0.9983
  347MOL0     C46743   4.305   9.761   0.971 -0.4036 -0.8295 -0.0196
  347MOL0     C46744   4.416   9.839   0.940 -0.9080  0.1311  0.1262
  347MOL0     C46745   4.462   9.846   0.807 -0.5126 -0.6606  0.3358
  347MOL0     O46746   4.582   9.912   0.798 -0.1781 -0.2961  0.1628
  347MOL0     C46747   4.564  10.038   0.732  0.2030 -0.2823 -0.3257
  347MOL0     C46748   4.696  10.107   0.708  1.1253 -0.6242  0.5240
  347MOL0     C46749   4.813  10.013   0.683 -0.0331  0.6095 -0.1177
  347MOL0     C46750   4.811   9.947   0.542  0.0143 -0.1512 -0.5152
  347MOL0     C46751   4.906   9.830   0.523  0.4159 -0.0817  0.1312
  347MOL0     C46752   4.886   9.777   0.378 -0.8431  0.4814 -0.1670
  347MOL0     C46753   4.984   9.666   0.339  0.2436 -0.2659 -0.0448
  347MOL0     C46754   5.135   9.711   0.329 -0.6299  0.1584 -0.1238
  347MOL0    Cl46755   5.219   9.569   0.272 -0.2658 -0.0843  0.3275
  347MOL0     C46756   4.390   9.792   0.698  0.2375  1.1707 -0.1345
  347MOL0     C46757   4.277   9.712   0.737 -0.4432  0.5052  0.4994
  347MOL0     O46758   4.229   9.441   0.922  0.5031  0.0112 -0.2145
  347MOL0     C46759   3.902   9.489   1.032  0.3577 -0.1938  0.9324
  347MOL0     C46760   3.767   9.433   1.051  0.0999 -0.7973 -0.1405
  347MOL0     N46761   3.506   9.007   1.557 -0.1860 -0.2196  0.1159
  347MOL0     N46762   3.428   8.955   1.648  0.3146  0.5409 -0.1100
  347MOL0     C46763   2.399   8.303   1.700 -0.3246  0.2907  1.0829
  347MOL0     C46764   2.278   8.260   1.648 -0.0757  0.2549 -0.1135
  347MOL0     C46765   1.899   8.040   1.581  1.1830  0.0884 -0.7839
  347MOL0     C46766   1.806   8.142   1.555 -0.7991  0.0325  0.5316
  347MOL0     C46767   1.710   8.120   1.453  0.4990  0.5394  0.7600
  347MOL0     C46768   1.694   7.989   1.390 -0.3923 -0.0401  0.5438
  347MOL0     O46769   1.594   7.946   1.306 -0.3774  0.2093  0.5060
  347MOL0     C46770   1.486   8.032   1.292 -0.6713  0.5671 -0.1620
  347MOL0     C46771   1.373   7.970   1.210 -0.3229  0.0722 -0.1196
  347MOL0     C46772   1.415   7.909   1.085 -0.5611 -0.5943 -0.4167
  347MOL0     C46773   1.296   7.832   1.028  0.3624 -0.4111  0.1161
  347MOL0     C46774   1.307   7.690   1.074  0.1383 -0.1843  1.1614
  347MOL0     C46775   1.330   7.586   1.125 -0.1317  0.3733  0.2208
  347MOL0     C46776   1.786   7.894   1.420 -0.8025  0.6904 -0.0921
  347MOL0     C46777   1.889   7.916   1.515 -0.2944  0.3545  0.0181
  347MOL0     H46778   2.074   8.270   1.914  0.6186  0.9892  0.2427
  347MOL0     H46779   2.317   8.341   2.010 -1.3540 -1.9190  1.3165
  347MOL0     H46780   2.700   8.319   1.809  1.4872  0.0040  3.6557
  347MOL0     H46781   2.625   8.459   1.726 -0.3845 -1.3329 -0.8405
  347MOL0     H46782   2.661   8.589   1.943 -2.1644 -0.5291 -1.6016
  347MOL0     H46783   2.746   8.458   2.002 -2.4224  2.8111  2.4303
  347MOL0     H46784   2.810   8.647   1.772 -0.7889  0.6077  0.4316
  347MOL0     H46785   2.888   8.650   1.926  1.9278  2.7278 -4.4148
  347MOL0     H46786   2.974   8.414   1.907 -2.9642  0.4708  0.9566
  347MOL0     H46787   2.933   8.433   1.735 -0.7155  3.0449 -1.3126
  347MOL0     H46788   3.113   8.612   1.875 -1.9719  4.4390 -1.2352
  347MOL0     H46789   3.163   8.486   1.741 -2.0092 -1.3081  0.0152
  347MOL0     H46790   2.988   8.628   1.606 -1.6933  2.0285  0.6677
  347MOL0     H46791   3.028   8.752   1.715  2.7632  1.1618 -0.8223
  347MOL0     H46792   3.216   8.614   1.521  0.0807 -0.3255  0.9932
  347MOL0     H46793   3.147   8.779   1.509  1.3597 -1.0298 -2.2656
  347MOL0     H46794   3.358   8.671   1.710 -0.9618  1.4587  0.7979
  347MOL0     H46795   3.270   8.813   1.761 -1.6004 -0.6340  0.5981
  347MOL0     H46796   3.400   8.760   1.391 -1.2070  0.5412  0.4261
  347MOL0     H46797   3.658   9.040   1.347 -1.3456 -0.2181  2.3794
  347MOL0     H46798   3.663   8.867   1.287 -1.6535 -1.7649  2.3038
  347MOL0     H46799   3.430   8.920   1.198  0.7506 -0.3004  2.4548
  347MOL0     H46800   3.569   8.962   1.094 -2.7552 -0.2487 -2.2789
  347MOL0     H46801   3.391   9.148   1.249  0.1107 -1.1846  0.9538
  347MOL0     H46802   3.385   9.123   1.081  0.8074  2.4875 -0.6061
  347MOL0     H46803   3.597   9.251   1.234 -0.3218 -1.8794  1.4779
  347MOL0     H46804   3.492   9.341   1.125 -3.3210 -1.4136  0.2949
  347MOL0     H46805   3.835   9.121   0.920 -1.6874  0.9601 -3.1519
  347MOL0     H46806   4.010   9.128   0.788 -0.9210  0.9280 -1.4942
  347MOL0     H46807   4.080   9.267   0.725 -0.1310 -0.4514  0.4316
  347MOL0     H46808   4.171   9.189   0.852 -0.0612  0.3273  1.6661
  347MOL0     H46809   4.272   9.749   1.074 -0.3849 -0.4922  0.0242
  347MOL0     H46810   4.471   9.895   1.014  1.3187 -1.7026 -0.0362
  347MOL0     H46811   4.519  10.033   0.632 -2.0228  3.6337  0.2979
  347MOL0     H46812   4.502  10.102   0.795 -0.0474 -0.8937  0.0523
  347MOL0     H46813   4.689  10.174   0.622  2.0964  0.1221  1.0080
  347MOL0     H46814   4.724  10.166   0.796  0.7632  1.1648 -0.5105
  347MOL0     H46815   4.827   9.936   0.759  2.7300 -1.0800 -2.1504
  347MOL0     H46816   4.905  10.072   0.683  1.3243 -1.3800 -1.8582
  347MOL0     H46817   4.708   9.909   0.543 -0.9589  2.0766  3.2415
  347MOL0     H46818   4.833  10.025   0.468 -1.2365  0.4067 -0.3312
  347MOL0     H46819   4.880   9.745   0.588 -1.3950 -0.8469 -1.4562
  347MOL0     H46820   5.007   9.862   0.547 -0.1123  1.5815  0.2867
  347MOL0     H46821   4.787   9.733   0.371 -1.2234  1.5914 -4.5700
  347MOL0     H46822   4.886   9.861   0.308  2.5318  1.5921  0.9466
  347MOL0     H46823   4.950   9.627   0.243 -2.8268 -0.7370  1.1210
  347MOL0     H46824   4.973   9.587   0.414 -3.7962 -0.1260 -0.2752
  347MOL0     H46825   5.166   9.745   0.428 -0.9901  1.6220 -0.4897
  347MOL0     H46826   5.147   9.796   0.261 -1.2923  1.4961  1.3628
  347MOL0     H46827   4.410   9.797   0.592  2.5594  4.9841  0.2995
  347MOL0     H46828   4.218   9.671   0.656  0.4889  1.6722 -0.8150
  347MOL0     H46829   3.918   9.590   1.066  3.2376 -0.1687 -0.2489
  347MOL0     H46830   3.686   9.493   1.092 -1.6693 -1.0921 -2.9005
  347MOL0     H46831   2.484   8.335   1.641 -1.4912  1.3938 -0.0678
  347MOL0     H46832   2.267   8.252   1.540 -0.3154  0.9870 -0.1483
  347MOL0     H46833   1.803   8.247   1.582 -0.5021  0.3464 -0.5945
  347MOL0     H46834   1.642   8.204   1.442  3.5227  3.2018  1.0698
  347MOL0     H46835   1.434   8.045   1.387 -0.3156 -0.3561  0.1750
  347MOL0     H46836   1.514   8.127   1.246 -0.1588  0.1959 -0.6269
  347MOL0     H46837   1.304   8.051   1.183  0.1008 -0.3358 -2.7805
  347MOL0     H46838   1.312   7.902   1.270  0.1817  0.3537  0.7232
  347MOL0     H46839   1.503   7.843   1.087  1.5252  1.8649 -2.6787
  347MOL0     H46840   1.447   7.986   1.013  1.3097 -0.0619  0.9054
  347MOL0     H46841   1.299   7.820   0.919 -2.5036 -0.0637 -0.0781
  347MOL0     H46842   1.204   7.887   1.052  1.6627  1.2207  1.6597
  347MOL0     H46843   1.353   7.495   1.176 -4.1893 -0.9628  0.0672
  347MOL0     H46844   1.769   7.799   1.371  0.0596 -0.2679  1.3925
  347MOL0     H46845   1.957   7.836   1.541  0.0616  1.1303  1.6137
  348MOL0     O46846  10.175   6.798   2.870  0.2548 -0.9419  0.3350
  348MOL0     C46847  10.221   6.834   2.973  0.3225 -1.3296 -0.2661
  348MOL0     O46848  10.159   6.904   3.072 -0.3744 -0.0945 -0.2756
  348MOL0     C46849  10.022   6.917   3.066 -0.4706 -0.7447 -0.1844
  348MOL0     C46850   9.941   6.807   3.080  0.4918  0.4197 -0.4997
  348MOL0     C46851   9.800   6.827   3.085 -0.1820  1.3224 -0.5862
  348MOL0     C46852   9.740   6.952   3.072  0.1055 -0.4874 -0.5195
  348MOL0     O46853   9.603   6.959   3.089  0.7177 -0.2064 -0.1311
  348MOL0     C46854   9.550   7.075   3.154  0.2137 -1.3067 -0.1549
  348MOL0     C46855   9.448   7.153   3.067 -0.1370 -0.2550  0.0115
  348MOL0     C46856   9.503   7.192   2.935  0.1185 -0.2136  1.0360
  348MOL0     C46857   9.390   7.246   2.845 -0.5596 -0.3623  0.2972
  348MOL0     C46858   9.447   7.292   2.719  1.2896 -0.4880  0.5402
  348MOL0     C46859   9.337   7.326   2.616  0.2412  0.4813 -0.7392
  348MOL0     C46860   9.404   7.367   2.478 -0.6550  0.0602 -0.3345
  348MOL0     C46861   9.284   7.404   2.385 -0.1638 -0.5207  1.0613
  348MOL0     N46862   9.263   7.293   2.290 -1.0631 -0.1384 -0.1624
  348MOL0     C46863   9.204   7.165   2.313 -0.1766  0.4764 -0.0691
  348MOL0     C46864   9.238   7.105   2.191  0.4340 -0.3782  0.2797
  348MOL0     C46865   9.199   6.971   2.145  0.0930 -0.4138  0.1614
  348MOL0     C46866   9.114   6.982   2.019  0.6126  0.4990  0.0251
  348MOL0     C46867   8.967   6.975   2.048 -0.1722  0.0139  0.4373
  348MOL0     C46868   8.924   6.843   2.115 -0.7877  0.7592  0.5603
  348MOL0     O46869   8.959   6.825   2.251  0.1736  0.6217 -0.4761
  348MOL0     C46870   8.904   6.913   2.346 -0.0558 -1.0170 -0.9608
  348MOL0     C46871   8.976   6.956   2.461 -0.4627  0.1621 -0.0662
  348MOL0     C46872   8.908   7.026   2.567  0.5472  0.6242  0.1783
  348MOL0     C46873   8.986   7.051   2.692  0.5110 -0.3052  0.8022
  348MOL0     C46874   8.770   7.068   2.556  0.6748 -0.0427  0.5670
  348MOL0     C46875   8.701   7.137   2.673 -0.0558  0.1242  0.1226
  348MOL0     O46876   8.574   7.107   2.703 -0.2367  0.3475  0.3474
  348MOL0     C46877   8.516   7.177   2.807 -0.4989 -0.8518  0.1658
  348MOL0     C46878   8.565   7.191   2.940 -0.5788 -0.6389 -0.2235
  348MOL0     C46879   8.494   7.258   3.040 -0.3658 -0.2030  0.1951
  348MOL0     C46880   8.366   7.315   3.016 -0.1996  0.9221 -0.0569
  348MOL0     O46881   8.297   7.371   3.129 -0.9291  0.2062 -0.9007
  348MOL0     C46882   8.158   7.374   3.111  0.3960  0.0178  0.2977
  348MOL0     C46883   8.075   7.349   3.239 -0.3835 -0.4154  0.9378
  348MOL0     C46884   8.090   7.454   3.356  0.1703 -0.2182 -0.1047
  348MOL0     C46885   7.969   7.445   3.448  0.3271 -0.1932 -0.6864
  348MOL0     C46886   7.986   7.528   3.581 -0.0053  0.3564  0.4759
  348MOL0     C46887   7.852   7.526   3.643  0.1215  1.1702 -0.7451
  348MOL0     C46888   7.835   7.610   3.773 -0.5511  0.0891  0.4482
  348MOL0     C46889   7.691   7.595   3.820 -0.1762 -0.5399 -0.5504
  348MOL0    Cl46890   7.669   7.422   3.871 -0.3341  0.0376  0.5821
  348MOL0     C46891   8.317   7.310   2.887  0.1733 -0.3005 -0.6007
  348MOL0     C46892   8.391   7.239   2.788  0.3277 -0.8421  0.4396
  348MOL0     O46893   8.762   7.226   2.726  0.6513  0.5733 -0.2076
  348MOL0     C46894   8.710   7.033   2.440  1.1831  1.2740  1.1683
  348MOL0     C46895   8.768   6.951   2.344 -0.2735  0.4717 -0.3002
  348MOL0     N46896   9.306   7.189   2.101 -0.2545  0.7470  0.7242
  348MOL0     N46897   9.312   7.300   2.162 -0.2450 -0.0829 -0.9206
  348MOL0     C46898   9.830   7.062   3.067 -0.0465 -0.1835 -0.0187
  348MOL0     C46899   9.970   7.056   3.067  0.2286 -0.1006 -0.1977
  348MOL0     C46900  10.359   6.801   3.008  0.2505  1.0630  0.2691
  348MOL0     C46901  10.434   6.707   2.931 -0.2517 -0.0625  0.1189
  348MOL0     C46902  10.567   6.674   2.969  0.3848 -0.1900  0.4666
  348MOL0     C46903  10.630   6.729   3.075 -0.5119 -0.0842  0.0180
  348MOL0     O46904  10.764   6.688   3.095  0.2707  0.0178 -0.6104
  348MOL0     C46905  10.835   6.740   3.203  0.5537 -0.7055  0.0258
  348MOL0     C46906  10.991   6.722   3.167 -0.9538 -0.6681  0.0936
  348MOL0     C46907  11.073   6.722   3.299 -0.4914  0.1139  0.2290
  348MOL0     C46908  11.216   6.659   3.290  0.1255  0.0144 -0.2304
  348MOL0     C46909  11.289   6.681   3.416  0.0412  0.5136 -0.4049
  348MOL0     C46910  11.370   6.690   3.506 -0.0496 -1.0935  0.4388
  348MOL0     C46911  10.561   6.825   3.150 -0.2997 -0.6048 -0.4924
  348MOL0     C46912  10.430   6.861   3.119 -0.4010  0.5777  0.1617
  348MOL0     H46913   9.981   6.707   3.075  1.9516  0.7806  2.0065
  348MOL0     H46914   9.733   6.742   3.070 -0.7707  2.2993 -4.6739
  348MOL0     H46915   9.500   7.042   3.245  1.8003  2.2888  2.2528
  348MOL0     H46916   9.625   7.153   3.171 -1.9651  0.6246  1.2223
  348MOL0     H46917   9.362   7.089   3.042  0.7300 -0.1801 -3.7784
  348MOL0     H46918   9.411   7.243   3.117  0.9118  1.4377 -2.0857
  348MOL0     H46919   9.589   7.259   2.941  1.4435 -1.6762 -0.5128
  348MOL0     H46920   9.547   7.104   2.888  1.8275  0.1641  1.8733
  348MOL0     H46921   9.318   7.169   2.819 -1.6718  1.8262 -4.0686
  348MOL0     H46922   9.344   7.322   2.909  1.7706  1.4110  0.0202
  348MOL0     H46923   9.498   7.389   2.721 -1.7440  1.2672 -0.2146
  348MOL0     H46924   9.511   7.218   2.671  1.8653 -0.1619  0.7870
  348MOL0     H46925   9.263   7.247   2.601  2.0001 -1.0028 -2.0841
  348MOL0     H46926   9.279   7.415   2.642  2.6323  2.2904 -1.1686
  348MOL0     H46927   9.456   7.459   2.504  2.5135 -1.6996  0.0538
  348MOL0     H46928   9.472   7.291   2.439  1.4251  0.9228  1.4491
  348MOL0     H46929   9.314   7.494   2.329 -0.4363 -1.1956 -0.2188
  348MOL0     H46930   9.183   7.424   2.420 -0.5561  0.1569 -0.3397
  348MOL0     H46931   9.158   7.115   2.397 -0.6598  0.3350 -0.4145
  348MOL0     H46932   9.299   6.938   2.116  0.5939 -0.4651  1.8271
  348MOL0     H46933   9.170   6.896   2.219 -2.7133  0.0506 -0.3809
  348MOL0     H46934   9.133   6.895   1.956 -0.0298  0.4016 -0.0393
  348MOL0     H46935   9.136   7.072   1.962  2.5750 -0.7853 -1.3654
  348MOL0     H46936   8.913   6.982   1.953  2.0078 -1.6024 -1.0018
  348MOL0     H46937   8.930   7.064   2.100 -2.1519 -1.1093  1.0645
  348MOL0     H46938   8.973   6.757   2.068  0.5343 -0.0564  3.2256
  348MOL0     H46939   8.818   6.833   2.092 -0.2936  1.7496 -2.7492
  348MOL0     H46940   9.076   6.915   2.471 -0.6224 -0.3209 -0.4235
  348MOL0     H46941   9.006   7.157   2.710 -1.1047 -0.1428  1.8291
  348MOL0     H46942   8.929   7.010   2.776 -2.3022  1.9702  0.1598
  348MOL0     H46943   9.083   7.000   2.687  1.4431  1.3920  0.9564
  348MOL0     H46944   8.658   7.148   2.975  0.9595  1.5623 -1.3936
  348MOL0     H46945   8.534   7.262   3.140  0.0562 -0.5874  0.0447
  348MOL0     H46946   8.133   7.475   3.076  0.0504  0.0261  0.5671
  348MOL0     H46947   8.127   7.302   3.035 -2.7308  3.4762 -2.0245
  348MOL0     H46948   7.973   7.334   3.202  0.3977 -0.7169 -1.3000
  348MOL0     H46949   8.104   7.251   3.279  0.1970 -1.4444 -1.7467
  348MOL0     H46950   8.085   7.556   3.317 -2.4402 -0.1367  0.2997
  348MOL0     H46951   8.183   7.444   3.413  0.9007 -0.5886 -1.3012
  348MOL0     H46952   7.878   7.473   3.395  0.1729  0.1962 -0.2240
  348MOL0     H46953   7.944   7.339   3.459 -0.4590  0.0751  0.2834
  348MOL0     H46954   8.011   7.632   3.558 -1.7402  0.7708  0.3688
  348MOL0     H46955   8.069   7.482   3.636  0.6837  0.4135 -0.5014
  348MOL0     H46956   7.785   7.562   3.565  2.6875  3.2499 -2.1256
  348MOL0     H46957   7.830   7.423   3.674  1.4079  1.3821  1.0260
  348MOL0     H46958   7.876   7.710   3.752  2.5189 -1.5754 -2.3963
  348MOL0     H46959   7.902   7.586   3.857  0.6768 -1.5055 -0.9308
  348MOL0     H46960   7.630   7.623   3.734  0.8798 -0.0764 -1.1675
  348MOL0     H46961   7.668   7.656   3.908  0.0654 -2.1867  0.7130
  348MOL0     H46962   8.222   7.345   2.850 -0.5643  0.0541  1.4858
  348MOL0     H46963   8.356   7.227   2.686  2.2892  1.0872 -0.5487
  348MOL0     H46964   8.611   7.075   2.422  0.8568  0.2922  0.5585
  348MOL0     H46965   8.715   6.926   2.252  0.1227 -0.9190 -0.1701
  348MOL0     H46966   9.789   7.163   3.060 -0.1097 -0.2200 -0.1612
  348MOL0     H46967  10.030   7.146   3.067 -0.7581  0.5966 -1.5171
  348MOL0     H46968  10.395   6.658   2.842  0.8572  0.9405 -0.9519
  348MOL0     H46969  10.613   6.600   2.904 -0.9816 -0.8472  0.2013
  348MOL0     H46970  10.828   6.850   3.204 -2.9037 -0.8125  0.4130
  348MOL0     H46971  10.799   6.693   3.295  1.7267 -4.6028 -1.3299
  348MOL0     H46972  11.031   6.798   3.100 -1.7126  1.3627  1.8060
  348MOL0     H46973  10.998   6.626   3.115 -2.0744  0.1108 -1.5940
  348MOL0     H46974  11.020   6.655   3.367 -3.5853  0.8957 -1.2339
  348MOL0     H46975  11.076   6.829   3.317 -0.0253  0.4617 -1.6574
  348MOL0     H46976  11.285   6.700   3.216  1.9843 -3.9937 -1.0161
  348MOL0     H46977  11.197   6.553   3.268 -0.9531  0.3927 -1.1608
  348MOL0     H46978  11.422   6.681   3.599  1.5410 -0.3586 -0.3380
  348MOL0     H46979  10.620   6.875   3.227 -1.5542  1.8232 -1.0131
  348MOL0     H46980  10.390   6.945   3.175 -0.3124  2.2470 -2.1202
  349MOL0     O46981  10.548   3.823   3.669 -0.7712 -0.7884 -0.6125
  349MOL0     C46982  10.507   3.714   3.668 -0.0437  0.4542  0.6863
  349MOL0     O46983  10.512   3.632   3.556 -0.7147  0.1585  0.3813
  349MOL0     C46984  10.602   3.642   3.446 -0.2250  0.8470 -0.0028
  349MOL0     C46985  10.582   3.536   3.356 -0.0861  0.8607  0.4643
  349MOL0     C46986  10.663   3.535   3.237  0.7005 -0.7772 -0.5002
  349MOL0     C46987  10.740   3.636   3.199 -0.0194 -0.5778 -0.4414
  349MOL0     O46988  10.802   3.632   3.077  0.9260 -0.5409 -0.2216
  349MOL0     C46989  10.860   3.753   3.017 -0.5668 -0.9139 -0.3131
  349MOL0     C46990  10.912   3.720   2.876 -0.3972 -0.0988 -0.3594
  349MOL0     C46991  11.027   3.625   2.901  0.1157 -0.1506  0.4814
  349MOL0     C46992  11.040   3.538   2.772  0.2840  0.0566 -0.1980
  349MOL0     C46993  11.178   3.472   2.769 -0.5972 -0.6804 -0.1731
  349MOL0     C46994  11.190   3.344   2.842  0.1122  1.0688 -0.1091
  349MOL0     C46995  11.330   3.288   2.808  0.3644 -0.3190 -0.6257
  349MOL0     C46996  11.346   3.160   2.885 -0.0851 -0.3182 -0.1687
  349MOL0     N46997  11.366   3.175   3.025 -0.2227 -0.3248  0.7729
  349MOL0     C46998  11.502   3.190   3.081  0.2564 -0.8278 -0.6824
  349MOL0     C46999  11.473   3.179   3.219  0.8026 -0.5203 -0.5851
  349MOL0     C47000  11.575   3.173   3.318 -0.5699 -0.0933 -0.4667
  349MOL0     C47001  11.657   3.049   3.316  0.0796  0.6895  0.1280
  349MOL0     C47002  11.747   3.029   3.434 -0.7652 -0.3514  0.6139
  349MOL0     C47003  11.806   2.896   3.429 -0.4750 -0.3498 -0.7074
  349MOL0     O47004  11.898   2.887   3.541 -0.3367 -0.0266  0.1087
  349MOL0     C47005  12.035   2.889   3.519 -0.6148  0.0133  0.2618
  349MOL0     C47006  12.100   2.791   3.592 -0.1288 -0.3110  0.3910
  349MOL0     C47007  12.240   2.776   3.572  0.0942 -0.6446 -0.2139
  349MOL0     C47008  12.303   2.673   3.659 -0.1192 -0.9065  0.3886
  349MOL0     C47009  12.319   2.850   3.480 -0.0055  0.6420  0.1567
  349MOL0     C47010  12.464   2.830   3.454  1.2293 -0.0249  0.0900
  349MOL0     O47011  12.539   2.821   3.564 -0.8717  0.4574  0.3598
  349MOL0     C47012  12.671   2.807   3.565 -0.4371  0.6132  0.5739
  349MOL0     C47013  12.755   2.767   3.456  0.5341 -0.4979 -0.0331
  349MOL0     C47014  12.892   2.730   3.494  0.3053  0.8938  0.4928
  349MOL0     C47015  12.937   2.727   3.622 -0.3823 -0.0153  0.3977
  349MOL0     O47016  13.067   2.683   3.640 -0.1347 -0.4983  0.4279
  349MOL0     C47017  13.127   2.666   3.775  0.6990 -0.9564 -0.4798
  349MOL0     C47018  13.177   2.805   3.827 -0.2040 -0.6836  0.2145
  349MOL0     C47019  13.220   2.801   3.971 -0.1740  0.0118 -0.1207
  349MOL0     C47020  13.371   2.834   3.995  0.0870  0.5406 -0.1603
  349MOL0     C47021  13.406   2.840   4.145 -0.3761 -0.1768  0.1711
  349MOL0     C47022  13.547   2.896   4.158  0.5172 -0.4496  0.0398
  349MOL0     C47023  13.605   2.873   4.304  0.2250 -1.2479  1.1819
  349MOL0     C47024  13.749   2.915   4.313 -0.4963  1.0987 -1.0428
  349MOL0    Cl47025  13.803   2.855   4.477  0.1408  0.0930  0.4610
  349MOL0     C47026  12.857   2.775   3.724  0.1372  0.6793  0.7686
  349MOL0     C47027  12.722   2.807   3.694 -0.4915 -1.1229 -0.9769
  349MOL0     O47028  12.504   2.819   3.342  0.5899  1.2725  0.3149
  349MOL0     C47029  12.244   2.943   3.408  0.4914 -0.6938  0.2304
  349MOL0     C47030  12.109   2.959   3.430  0.8790  0.2218  0.0250
  349MOL0     N47031  11.332   3.180   3.239 -0.8071  0.0748  0.0871
  349MOL0     N47032  11.272   3.180   3.120  0.2395  0.6126 -0.7534
  349MOL0     C47033  10.761   3.748   3.294  0.2465  0.8848  0.2822
  349MOL0     C47034  10.694   3.749   3.419  0.5109  0.5648 -1.1178
  349MOL0     C47035  10.443   3.660   3.797  0.5754  0.5207  0.2170
  349MOL0     C47036  10.496   3.698   3.924  0.2886 -0.2845  0.7468
  349MOL0     C47037  10.431   3.646   4.038  0.1716  0.3896  0.5429
  349MOL0     C47038  10.322   3.562   4.035  0.3293 -0.0022  0.6416
  349MOL0     O47039  10.296   3.504   4.157 -0.1013 -0.6892 -0.0615
  349MOL0     C47040  10.241   3.372   4.168  0.7443 -0.7163 -0.9757
  349MOL0     C47041  10.090   3.383   4.194 -0.6265 -0.1628 -0.0676
  349MOL0     C47042  10.050   3.471   4.314 -0.9746 -0.4628 -0.5191
  349MOL0     C47043  10.023   3.391   4.437  0.2670  0.7248  0.1062
  349MOL0     C47044   9.892   3.324   4.417  0.0063  0.9299 -0.5783
  349MOL0     C47045   9.783   3.261   4.412 -0.0286 -0.4392  1.1472
  349MOL0     C47046  10.277   3.523   3.907 -0.0911  0.4371  0.3024
  349MOL0     C47047  10.334   3.565   3.786  0.6674 -0.5600  0.2301
  349MOL0     H47048  10.517   3.451   3.367 -2.0391  2.2467  0.0986
  349MOL0     H47049  10.657   3.443   3.181 -1.4764 -1.5725  0.9271
  349MOL0     H47050  10.794   3.839   3.025  1.5720  0.7294  0.8550
  349MOL0     H47051  10.951   3.775   3.073  0.1250  0.4281 -1.8804
  349MOL0     H47052  10.830   3.668   2.825 -0.0810  0.2011 -1.1917
  349MOL0     H47053  10.950   3.803   2.816  0.8364 -0.8188 -0.6156
  349MOL0     H47054  11.121   3.680   2.901  1.8424 -2.9183  0.9721
  349MOL0     H47055  11.023   3.563   2.991  0.1179  0.3630  0.8378
  349MOL0     H47056  10.962   3.460   2.774  0.4737 -0.1376 -0.3224
  349MOL0     H47057  11.034   3.595   2.679  1.3185  0.8208  0.1949
  349MOL0     H47058  11.203   3.447   2.665  3.5969  1.3771  0.1110
  349MOL0     H47059  11.259   3.538   2.801  0.1679 -1.9496  0.5903
  349MOL0     H47060  11.159   3.362   2.945 -1.9691  2.0203 -0.8464
  349MOL0     H47061  11.118   3.275   2.800 -0.3124  2.8830 -2.5946
  349MOL0     H47062  11.346   3.269   2.701  1.6074 -0.4031 -0.4411
  349MOL0     H47063  11.406   3.360   2.840  0.9517  0.1970 -2.9858
  349MOL0     H47064  11.437   3.116   2.843  0.3807  1.2846 -0.9436
  349MOL0     H47065  11.265   3.087   2.879 -1.2723  1.0538 -1.6872
  349MOL0     H47066  11.600   3.188   3.034 -0.2395 -0.5796 -1.7433
  349MOL0     H47067  11.633   3.266   3.313  0.8564 -0.8747  0.8990
  349MOL0     H47068  11.529   3.177   3.417  0.7010  1.3873  0.1048
  349MOL0     H47069  11.715   3.048   3.223  1.5284  0.2538  1.0011
  349MOL0     H47070  11.591   2.962   3.314  2.3443 -1.1151 -1.3296
  349MOL0     H47071  11.705   3.051   3.533 -1.5761 -1.4628  0.5356
  349MOL0     H47072  11.831   3.098   3.422 -1.6250  0.4537 -1.0249
  349MOL0     H47073  11.862   2.874   3.337 -0.5370 -2.2979 -0.3140
  349MOL0     H47074  11.726   2.822   3.439  1.8119 -3.0071 -0.9517
  349MOL0     H47075  12.040   2.730   3.658 -2.7239  3.6572  2.1076
  349MOL0     H47076  12.231   2.634   3.732  0.0004 -1.0716  0.4186
  349MOL0     H47077  12.338   2.594   3.591 -0.8002  1.5017 -3.0266
  349MOL0     H47078  12.373   2.726   3.723 -1.3985  1.7739 -0.2767
  349MOL0     H47079  12.728   2.728   3.359 -1.3066 -4.2528  1.7974
  349MOL0     H47080  12.968   2.691   3.427  2.2702  1.0721  2.5115
  349MOL0     H47081  13.048   2.636   3.845 -1.0163  1.4911 -1.2146
  349MOL0     H47082  13.197   2.582   3.772  1.0433 -0.6670 -0.6397
  349MOL0     H47083  13.255   2.840   3.759 -1.4566 -0.4525 -1.1796
  349MOL0     H47084  13.091   2.873   3.823 -0.3957 -0.9478 -0.2988
  349MOL0     H47085  13.200   2.702   4.011  2.0149  0.3962  2.1932
  349MOL0     H47086  13.159   2.869   4.030  1.2674 -0.0081  1.4663
  349MOL0     H47087  13.423   2.749   3.950  0.1840  0.3516  0.3017
  349MOL0     H47088  13.389   2.928   3.943 -3.5713  0.7953 -1.2520
  349MOL0     H47089  13.394   2.752   4.210 -1.3430  0.9683  1.6214
  349MOL0     H47090  13.333   2.909   4.190 -0.6749 -0.1724 -0.3152
  349MOL0     H47091  13.609   2.858   4.076 -0.0352  4.0597 -2.8303
  349MOL0     H47092  13.538   3.004   4.149 -0.9986 -0.6780 -1.9619
  349MOL0     H47093  13.596   2.766   4.324 -1.4383 -2.1159 -3.0221
  349MOL0     H47094  13.542   2.930   4.372 -1.3118 -1.2054 -0.1941
  349MOL0     H47095  13.757   3.023   4.298 -2.0615  1.4183  0.1091
  349MOL0     H47096  13.810   2.854   4.246 -0.3554  1.6094 -1.3832
  349MOL0     H47097  12.895   2.787   3.825 -2.4569  0.5811  1.8327
  349MOL0     H47098  12.663   2.815   3.784  3.6520 -2.9370  2.3061
  349MOL0     H47099  12.299   3.015   3.348  1.8833  0.8040  3.1203
  349MOL0     H47100  12.053   3.037   3.377 -3.0581 -2.0356  0.4647
  349MOL0     H47101  10.817   3.830   3.250 -1.1325 -0.7859 -5.6083
  349MOL0     H47102  10.726   3.827   3.487 -0.0650  0.6730 -0.9641
  349MOL0     H47103  10.570   3.777   3.939  2.2574 -2.2494  2.0171
  349MOL0     H47104  10.461   3.666   4.140 -2.0541 -0.4678  1.4334
  349MOL0     H47105  10.272   3.304   4.088  1.5179 -0.7069 -0.6898
  349MOL0     H47106  10.273   3.333   4.265 -0.3900  1.5436  0.3964
  349MOL0     H47107  10.036   3.289   4.210  0.1080 -0.7437 -0.9102
  349MOL0     H47108  10.058   3.433   4.103  0.2689  1.1278  0.2859
  349MOL0     H47109   9.972   3.539   4.279 -3.4241 -2.0406  1.5018
  349MOL0     H47110  10.135   3.534   4.341  0.2580 -1.5937 -1.6477
  349MOL0     H47111  10.012   3.445   4.532 -1.2838  1.1155 -0.2732
  349MOL0     H47112  10.116   3.334   4.451 -0.6762 -0.9833 -0.3455
  349MOL0     H47113   9.698   3.196   4.406  0.7921 -1.4438 -0.5119
  349MOL0     H47114  10.202   3.446   3.897 -2.3652  2.4512  0.9262
  349MOL0     H47115  10.296   3.531   3.691  0.6106  0.9219 -0.2995
  350MOL0     O47116   2.857   6.418   2.131 -0.1869  0.1467  0.4020
  350MOL0     C47117   2.907   6.424   2.021  0.3280 -0.0137 -0.9714
  350MOL0     O47118   2.879   6.341   1.917  0.3463  0.9995 -0.1311
  350MOL0     C47119   2.807   6.227   1.931 -0.1822  0.7308  0.7292
  350MOL0     C47120   2.680   6.226   1.992 -0.4021 -0.1465  0.8248
  350MOL0     C47121   2.602   6.109   1.998 -0.0916 -1.4286  0.5715
  350MOL0     C47122   2.652   5.988   1.948  0.3563  0.2834  0.2519
  350MOL0     O47123   2.584   5.861   1.946  0.8111 -0.2621 -0.1621
  350MOL0     C47124   2.497   5.835   2.052 -0.3494 -0.0428 -0.5418
  350MOL0     C47125   2.447   5.688   2.037 -0.9581 -0.6577 -0.1829
  350MOL0     C47126   2.558   5.581   2.043 -0.2845  0.6867  0.4259
  350MOL0     C47127   2.519   5.443   1.998 -0.5603  0.2961 -0.5023
  350MOL0     C47128   2.457   5.366   2.113  0.3823 -0.2958  0.3252
  350MOL0     C47129   2.386   5.239   2.059  0.1814  0.2843  0.1016
  350MOL0     C47130   2.306   5.150   2.156  0.7369 -0.2538  0.1705
  350MOL0     C47131   2.263   5.210   2.282  0.3899  0.1524 -0.3064
  350MOL0     N47132   2.170   5.123   2.357 -0.0114 -0.0017  0.1374
  350MOL0     C47133   2.052   5.165   2.409 -0.4854 -0.4356  0.3744
  350MOL0     C47134   2.014   5.059   2.484  0.8822 -0.2969 -0.1273
  350MOL0     C47135   1.885   5.052   2.562 -0.2460  0.5015  0.4776
  350MOL0     C47136   1.864   5.147   2.683 -0.0074  0.0069  0.6245
  350MOL0     C47137   1.975   5.115   2.783  0.0491  0.4926 -0.5498
  350MOL0     C47138   1.905   5.022   2.887 -0.0506  0.1908  0.4275
  350MOL0     O47139   2.014   4.993   2.975 -0.2144  0.4012 -0.2508
  350MOL0     C47140   1.982   4.939   3.098  0.0730 -0.6774  0.0762
  350MOL0     C47141   2.087   4.888   3.174  0.5338  0.4672  0.4726
  350MOL0     C47142   2.052   4.811   3.288 -0.1086 -0.8746  0.7709
  350MOL0     C47143   2.171   4.760   3.356 -0.3878  0.0546 -0.0183
  350MOL0     C47144   1.915   4.802   3.332  0.0498 -1.0729  0.4143
  350MOL0     C47145   1.878   4.743   3.465 -0.0593  0.0065 -0.1226
  350MOL0     O47146   1.744   4.737   3.479 -0.2219 -0.1550 -0.4090
  350MOL0     C47147   1.697   4.654   3.582  0.0696 -1.8428 -0.2008
  350MOL0     C47148   1.737   4.515   3.600 -1.1778 -0.5615 -0.0844
  350MOL0     C47149   1.685   4.445   3.704 -1.2346  0.2683  0.2038
  350MOL0     C47150   1.589   4.490   3.793  0.2765  0.4879 -0.0306
  350MOL0     O47151   1.536   4.414   3.899 -0.3179 -0.3323  1.0701
  350MOL0     C47152   1.460   4.469   4.000  0.0126  0.0756 -0.0586
  350MOL0     C47153   1.309   4.462   3.980 -0.0492 -0.0511 -0.6036
  350MOL0     C47154   1.265   4.336   3.906  0.0940 -0.1205 -0.3301
  350MOL0     C47155   1.110   4.322   3.913  0.7315 -0.3400  0.3961
  350MOL0     C47156   1.049   4.203   3.841 -0.2629  0.7023  0.3598
  350MOL0     C47157   0.911   4.228   3.781 -0.4957  0.6308  0.8186
  350MOL0     C47158   0.909   4.311   3.653  0.2629  0.5476 -0.3672
  350MOL0     C47159   0.761   4.351   3.618  0.2940 -0.1120  0.2520
  350MOL0    Cl47160   0.781   4.480   3.496  0.1263 -0.2733 -0.1893
  350MOL0     C47161   1.548   4.621   3.776  0.1503  0.7019 -0.5798
  350MOL0     C47162   1.608   4.709   3.673  0.5766  0.4613 -0.5329
  350MOL0     O47163   1.968   4.718   3.550  0.6950  0.4109 -0.6373
  350MOL0     C47164   1.814   4.858   3.254  1.0823  0.3782  0.4434
  350MOL0     C47165   1.846   4.923   3.138 -0.4815  0.1069 -0.3637
  350MOL0     N47166   2.115   4.960   2.485 -0.6168 -0.0740 -0.0440
  350MOL0     N47167   2.215   5.009   2.413  0.1546  0.9392 -0.5239
  350MOL0     C47168   2.773   5.997   1.885 -0.4949  1.1747  0.2294
  350MOL0     C47169   2.850   6.114   1.867 -0.0617  0.0016 -1.2556
  350MOL0     C47170   3.002   6.535   1.993 -0.3821 -1.5369  0.4281
  350MOL0     C47171   3.062   6.549   1.868 -0.3049  0.2856  0.1257
  350MOL0     C47172   3.165   6.653   1.851 -0.4190  0.3411  0.7499
  350MOL0     C47173   3.207   6.738   1.950 -0.5136 -0.6416  0.5317
  350MOL0     O47174   3.296   6.845   1.935  0.6260  0.5182  0.1047
  350MOL0     C47175   3.281   6.937   1.830  0.5100  0.0447 -0.3908
  350MOL0     C47176   3.404   7.024   1.823 -0.3410  0.4843  0.3152
  350MOL0     C47177   3.423   7.128   1.936 -0.0779 -0.1153 -0.5418
  350MOL0     C47178   3.544   7.222   1.926 -0.3760  0.2942 -0.0063
  350MOL0     C47179   3.508   7.339   1.855 -0.6554  1.0170  0.0447
  350MOL0     C47180   3.467   7.443   1.810  0.5635  0.8193 -0.0900
  350MOL0     C47181   3.148   6.715   2.074  0.5820  0.5311  1.2870
  350MOL0     C47182   3.038   6.629   2.092  0.9266  0.4989 -0.4913
  350MOL0     H47183   2.655   6.323   2.034  2.2284  2.6506 -3.2569
  350MOL0     H47184   2.508   6.119   2.052 -0.9477 -0.8657 -0.9622
  350MOL0     H47185   2.552   5.847   2.145 -0.0806  0.0983 -0.7169
  350MOL0     H47186   2.409   5.900   2.055 -2.4675 -2.7751  1.5813
  350MOL0     H47187   2.380   5.668   2.121  1.0342 -3.3073  0.9080
  350MOL0     H47188   2.383   5.677   1.948 -1.6297  3.3539 -0.3617
  350MOL0     H47189   2.647   5.613   1.987 -1.4627 -0.5834 -2.3943
  350MOL0     H47190   2.594   5.574   2.146  0.8175  0.9703  0.0784
  350MOL0     H47191   2.465   5.437   1.903 -0.5898 -0.0212 -0.4673
  350MOL0     H47192   2.615   5.394   1.986  0.3829  1.3399  2.1532
  350MOL0     H47193   2.518   5.334   2.198  0.2826  0.1849  0.5829
  350MOL0     H47194   2.379   5.430   2.156  2.3633  1.0470  2.1685
  350MOL0     H47195   2.313   5.262   1.981 -0.5553 -0.0370  0.6964
  350MOL0     H47196   2.462   5.181   2.005 -1.1090 -0.1193 -1.3352
  350MOL0     H47197   2.230   5.097   2.097 -1.3040  2.1808  0.4685
  350MOL0     H47198   2.369   5.065   2.185 -0.9762 -0.6156  3.2312
  350MOL0     H47199   2.218   5.307   2.261  0.5988  0.6297  1.3288
  350MOL0     H47200   2.358   5.228   2.331 -0.4651 -1.4227  2.1048
  350MOL0     H47201   2.003   5.261   2.401  0.4159 -0.1113 -2.1156
  350MOL0     H47202   1.801   5.051   2.491  1.3499 -0.8486 -1.5072
  350MOL0     H47203   1.870   4.950   2.599 -0.3037  0.3606  0.0778
  350MOL0     H47204   1.762   5.141   2.724  0.6179  0.5301  2.3250
  350MOL0     H47205   1.877   5.253   2.660  1.6111 -0.0248  1.2689
  350MOL0     H47206   2.006   5.210   2.828 -0.2492 -0.1509  1.0800
  350MOL0     H47207   2.072   5.072   2.756  0.8136 -0.1536  2.7050
  350MOL0     H47208   1.863   4.926   2.856  1.3903 -1.7277  3.7808
  350MOL0     H47209   1.822   5.079   2.930 -1.4638 -2.1748  1.0021
  350MOL0     H47210   2.191   4.892   3.142  0.8371 -1.9730  0.9451
  350MOL0     H47211   2.212   4.835   3.425  0.5768 -1.5191  1.1708
  350MOL0     H47212   2.151   4.661   3.397 -3.1038 -0.9346 -3.3092
  350MOL0     H47213   2.245   4.745   3.277 -0.5500 -0.5763 -0.0550
  350MOL0     H47214   1.810   4.476   3.531 -1.5431  0.2519 -0.9503
  350MOL0     H47215   1.712   4.340   3.712  1.3267  0.5808 -2.7599
  350MOL0     H47216   1.487   4.425   4.097 -2.8988  3.4700  2.5629
  350MOL0     H47217   1.488   4.574   4.014  1.0586 -0.2167  0.0966
  350MOL0     H47218   1.252   4.453   4.073 -1.4616 -3.7862 -1.6639
  350MOL0     H47219   1.279   4.551   3.924  1.8327  0.6592 -0.5473
  350MOL0     H47220   1.315   4.246   3.940  1.4614  0.7346 -0.0163
  350MOL0     H47221   1.285   4.351   3.799 -3.5171  4.6447 -0.6871
  350MOL0     H47222   1.078   4.302   4.016  0.3618  0.8346  0.5257
  350MOL0     H47223   1.076   4.417   3.871 -1.6598 -1.6182 -0.7172
  350MOL0     H47224   1.041   4.129   3.920 -2.9409  1.7385  1.1944
  350MOL0     H47225   1.114   4.177   3.757 -1.3840  1.9539 -0.9676
  350MOL0     H47226   0.864   4.132   3.757  3.9733 -2.3437  2.7143
  350MOL0     H47227   0.852   4.279   3.858  1.4792  2.3850  1.2718
  350MOL0     H47228   0.961   4.254   3.576  1.2227  2.5797 -1.3204
  350MOL0     H47229   0.967   4.402   3.675  3.2668 -1.4806  0.6922
  350MOL0     H47230   0.698   4.389   3.698  1.8846  3.1583  0.1321
  350MOL0     H47231   0.716   4.262   3.574  3.1430 -0.0323 -3.4043
  350MOL0     H47232   1.473   4.672   3.836  2.9465  3.0061  1.1857
  350MOL0     H47233   1.577   4.811   3.654  0.9135  0.4461 -1.1858
  350MOL0     H47234   1.712   4.838   3.285  0.1518  1.5070 -1.6882
  350MOL0     H47235   1.769   4.971   3.079  0.9694 -2.3243 -4.6998
  350MOL0     H47236   2.812   5.915   1.824 -0.7355  2.0687 -1.1623
  350MOL0     H47237   2.932   6.121   1.796 -2.0726  1.0687 -3.6390
  350MOL0     H47238   3.036   6.491   1.780  1.3683  3.5670 -2.8096
  350MOL0     H47239   3.221   6.672   1.760 -0.9134  1.7188  0.7125
  350MOL0     H47240   3.265   6.878   1.739 -0.0393 -0.9220  0.3104
  350MOL0     H47241   3.190   6.990   1.861 -0.0233 -1.2207  0.2598
  350MOL0     H47242   3.398   7.077   1.728 -2.5487  2.8201  1.6138
  350MOL0     H47243   3.487   6.954   1.818 -3.3152 -3.3658  0.3499
  350MOL0     H47244   3.451   7.072   2.026  3.0412  1.7795 -0.1689
  350MOL0     H47245   3.332   7.183   1.960  1.1477  1.7672  0.0714
  350MOL0     H47246   3.633   7.168   1.891 -1.0855 -0.7126 -0.3162
  350MOL0     H47247   3.576   7.259   2.024  0.8232 -0.3853 -0.1172
  350MOL0     H47248   3.428   7.535   1.769 -0.7008  0.4924  0.3145
  350MOL0     H47249   3.189   6.768   2.160  1.0041 -0.5417  1.7695
  350MOL0     H47250   3.006   6.630   2.196 -0.5394 -1.5260 -0.8518
  351MOL0     O47251   8.467  10.168  11.370  0.0329  0.6903 -0.3763
  351MOL0     C47252   8.566  10.202  11.300 -0.5152  0.1037 -0.6582
  351MOL0     O47253   8.577  10.184  11.165 -0.4368 -0.0421 -0.4141
  351MOL0     C47254   8.503  10.092  11.102  0.7795 -0.3566 -0.0193
  351MOL0     C47255   8.479  10.129  10.976  0.4695  0.1673  1.1508
  351MOL0     C47256   8.399  10.040  10.892  0.5145 -0.9238  0.2569
  351MOL0     C47257   8.358   9.912  10.930 -0.1213 -0.8613  0.7749
  351MOL0     O47258   8.285   9.816  10.859  0.8282  0.1445 -0.2308
  351MOL0     C47259   8.252   9.862  10.731 -0.5338  0.3179  0.9060
  351MOL0     C47260   8.153   9.755  10.680 -0.2129  0.4357 -0.5286
  351MOL0     C47261   8.014   9.740  10.748  0.4761 -1.0234  0.0849
  351MOL0     C47262   7.922   9.835  10.677  0.1906 -0.3470  0.7088
  351MOL0     C47263   7.781   9.829  10.744  0.6535 -0.4854  0.3469
  351MOL0     C47264   7.703   9.938  10.670  0.7405 -0.2175 -0.3231
  351MOL0     C47265   7.562   9.962  10.729 -0.2589 -0.1554  0.3663
  351MOL0     C47266   7.565  10.059  10.842  0.0856  0.2470  0.5082
  351MOL0     N47267   7.443  10.042  10.924  0.7929 -0.1219  0.1056
  351MOL0     C47268   7.412   9.932  10.997 -0.9928 -0.2111 -0.3304
  351MOL0     C47269   7.287   9.958  11.042 -0.0065 -0.4963  0.0437
  351MOL0     C47270   7.231   9.885  11.158  1.1098  0.7841  0.4961
  351MOL0     C47271   7.241   9.733  11.140  1.1467 -0.0416  0.4637
  351MOL0     C47272   7.166   9.645  11.241  0.0669 -0.3189  1.0594
  351MOL0     C47273   7.016   9.671  11.262  0.0967 -0.8006  0.3036
  351MOL0     O47274   6.992   9.791  11.345 -0.7208  0.2744 -0.0159
  351MOL0     C47275   6.865   9.807  11.388 -1.6510  0.0512  0.0447
  351MOL0     C47276   6.760   9.827  11.296 -0.7139  0.7061  1.1083
  351MOL0     C47277   6.633   9.856  11.333 -0.7776  0.5457  0.5825
  351MOL0     C47278   6.530   9.880  11.221 -0.2578 -0.8679  0.4827
  351MOL0     C47279   6.606   9.872  11.464  0.6853  0.5651  0.6390
  351MOL0     C47280   6.468   9.878  11.516  1.5726  0.3694  1.3292
  351MOL0     O47281   6.458   9.882  11.654  0.8036  0.5353  0.5387
  351MOL0     C47282   6.337   9.881  11.721  0.3505 -0.3998  0.3153
  351MOL0     C47283   6.252   9.995  11.744  0.0292 -0.0713 -0.5216
  351MOL0     C47284   6.126   9.977  11.800 -0.2084 -0.0610 -0.4451
  351MOL0     C47285   6.097   9.850  11.851 -0.4705 -0.6610 -0.0368
  351MOL0     O47286   5.979   9.850  11.920  0.0451 -0.2294 -0.4974
  351MOL0     C47287   5.915   9.720  11.932  0.0507 -0.0797 -0.0585
  351MOL0     C47288   5.774   9.724  11.995  1.2147 -0.3402 -0.0149
  351MOL0     C47289   5.752   9.819  12.117  0.6395 -0.5890  0.0770
  351MOL0     C47290   5.608   9.818  12.168 -0.3793 -0.0028  0.2446
  351MOL0     C47291   5.574   9.941  12.247  0.3269  0.2223  0.3229
  351MOL0     C47292   5.573   9.900  12.398  0.2305 -0.2320  0.3985
  351MOL0     C47293   5.550  10.028  12.486  0.3420  0.2832 -0.1039
  351MOL0     C47294   5.506  10.002  12.629  0.1305 -0.3317 -0.6431
  351MOL0    Cl47295   5.636   9.929  12.733  0.1224 -0.1227  0.2633
  351MOL0     C47296   6.183   9.739  11.819  0.3336  0.8865 -0.3876
  351MOL0     C47297   6.301   9.753  11.760  0.7969 -0.5186  0.0378
  351MOL0     O47298   6.365   9.880  11.448  0.2370  0.3056  0.1707
  351MOL0     C47299   6.715   9.856  11.557 -0.0724 -0.0832 -0.8978
  351MOL0     C47300   6.842   9.807  11.519 -0.3382 -1.1500 -0.0515
  351MOL0     N47301   7.250  10.083  11.000  0.8774 -0.2261  0.0303
  351MOL0     N47302   7.343  10.133  10.931 -1.4997  0.0267  0.4699
  351MOL0     C47303   8.394   9.874  11.058 -1.0066 -0.0291 -0.0351
  351MOL0     C47304   8.462   9.965  11.148 -0.6035 -0.1912  0.5729
  351MOL0     C47305   8.676  10.276  11.374  0.0336  0.2145  0.7436
  351MOL0     C47306   8.797  10.300  11.310 -0.1961 -0.6797 -0.2077
  351MOL0     C47307   8.892  10.384  11.362  0.3720  0.7476  0.2176
  351MOL0     C47308   8.871  10.456  11.482  0.7693  0.6009 -0.3208
  351MOL0     O47309   8.970  10.547  11.516 -0.6526  0.0119 -0.6768
  351MOL0     C47310   8.964  10.600  11.643  0.0047  0.4830  0.6679
  351MOL0     C47311   9.005  10.499  11.749 -0.5488 -0.1011  0.0021
  351MOL0     C47312   9.146  10.446  11.708 -0.2100 -0.7303 -0.2869
  351MOL0     C47313   9.196  10.350  11.818 -0.4078  0.1710 -0.1852
  351MOL0     C47314   9.118  10.225  11.811 -0.6305  0.5252  0.0412
  351MOL0     C47315   9.054  10.121  11.820  0.6732 -0.4902 -0.9074
  351MOL0     C47316   8.749  10.434  11.549  1.1387 -0.6610 -0.1505
  351MOL0     C47317   8.651  10.340  11.496  0.0520 -1.5636  0.4883
  351MOL0     H47318   8.502  10.228  10.939 -1.9859  0.2579 -0.4165
  351MOL0     H47319   8.369  10.080  10.796  0.5270  0.3982  0.7815
  351MOL0     H47320   8.205   9.961  10.728  2.3268  1.7627  0.2822
  351MOL0     H47321   8.337   9.876  10.664 -0.7325  1.6348  0.9020
  351MOL0     H47322   8.147   9.757  10.571  0.5412  0.4686 -0.5743
  351MOL0     H47323   8.189   9.655  10.706 -2.8051 -0.2995  0.5866
  351MOL0     H47324   7.994   9.633  10.740  0.7958 -1.1263  0.5823
  351MOL0     H47325   8.030   9.776  10.850  3.0742 -0.5073 -0.4319
  351MOL0     H47326   7.957   9.937  10.698 -0.2526  0.8673 -3.5713
  351MOL0     H47327   7.924   9.834  10.568 -0.3932 -1.4918  0.7008
  351MOL0     H47328   7.737   9.730  10.732 -3.4989  1.2669 -0.7280
  351MOL0     H47329   7.785   9.844  10.852  0.4377 -0.6003  0.3717
  351MOL0     H47330   7.755  10.033  10.674  0.9721 -0.3843  1.0433
  351MOL0     H47331   7.689   9.908  10.566  0.0706 -2.2710  0.3028
  351MOL0     H47332   7.494  10.004  10.654 -0.9824  0.0172  1.0996
  351MOL0     H47333   7.520   9.866  10.761 -2.7766  0.6658 -0.2409
  351MOL0     H47334   7.573  10.155  10.790 -1.0920 -0.8458 -1.7831
  351MOL0     H47335   7.652  10.029  10.902 -0.2060  0.2230  0.9172
  351MOL0     H47336   7.461   9.835  10.995 -0.2094  0.1415  0.6300
  351MOL0     H47337   7.274   9.917  11.253  1.1462 -0.3381  0.8719
  351MOL0     H47338   7.126   9.912  11.174  0.3182 -3.3392  4.3096
  351MOL0     H47339   7.342   9.693  11.128  1.1242 -0.2962  1.0952
  351MOL0     H47340   7.189   9.724  11.045  0.9955  1.9693  0.3115
  351MOL0     H47341   7.215   9.657  11.337 -2.7263 -2.5254  2.9374
  351MOL0     H47342   7.172   9.538  11.217 -2.5180 -0.0753 -1.2059
  351MOL0     H47343   6.964   9.586  11.308  1.0026 -0.6491  1.6540
  351MOL0     H47344   6.976   9.702  11.165 -0.9924  0.9211  1.2630
  351MOL0     H47345   6.768   9.817  11.188 -0.0101 -2.1014  1.3454
  351MOL0     H47346   6.580   9.889  11.125 -1.4916 -2.9308 -0.4020
  351MOL0     H47347   6.458   9.799  11.208 -0.4331 -0.3752 -2.1930
  351MOL0     H47348   6.465   9.968  11.236 -0.3461 -1.1729  2.1032
  351MOL0     H47349   6.281  10.099  11.729 -2.0210  0.6687  0.3829
  351MOL0     H47350   6.069  10.063  11.833  3.7915  1.4960  3.3709
  351MOL0     H47351   5.921   9.679  11.830  2.1773 -2.3973  0.8967
  351MOL0     H47352   5.969   9.653  11.998 -0.1112 -0.0494  0.1056
  351MOL0     H47353   5.709   9.763  11.916  3.3674 -0.5704 -2.0035
  351MOL0     H47354   5.735   9.623  12.010 -1.5780  0.3730 -1.7458
  351MOL0     H47355   5.779   9.925  12.107 -1.1374  0.4179  3.8828
  351MOL0     H47356   5.819   9.779  12.194  0.8883 -0.4798 -0.0806
  351MOL0     H47357   5.551   9.823  12.075  0.1365 -0.4598 -0.1061
  351MOL0     H47358   5.594   9.731  12.232 -1.1314  2.2202  3.3855
  351MOL0     H47359   5.475   9.973  12.215  1.0766  2.6825  0.3098
  351MOL0     H47360   5.634  10.032  12.237 -1.0194  1.4498  2.5337
  351MOL0     H47361   5.498   9.828  12.433  0.8710 -1.3687 -0.4956
  351MOL0     H47362   5.673   9.860  12.416  0.6318  0.8395  0.5875
  351MOL0     H47363   5.467  10.079  12.437  0.2456 -0.6824 -0.9844
  351MOL0     H47364   5.644  10.082  12.477 -0.3769  1.5583 -0.2763
  351MOL0     H47365   5.423   9.931  12.619 -2.2142  1.9544  1.1740
  351MOL0     H47366   5.478  10.101  12.666  3.0421  0.2003  0.3654
  351MOL0     H47367   6.149   9.640  11.846 -6.0768  3.0071  1.2080
  351MOL0     H47368   6.366   9.668  11.742  0.4379 -0.7890 -0.0001
  351MOL0     H47369   6.705   9.845  11.664  1.7214 -1.4177 -0.8167
  351MOL0     H47370   6.929   9.786  11.581  1.9815 -0.0375 -2.7081
  351MOL0     H47371   8.374   9.774  11.096 -1.8778 -0.6563 -2.0046
  351MOL0     H47372   8.474   9.931  11.250  4.1947 -0.4297  0.1725
  351MOL0     H47373   8.811  10.250  11.215  1.6047 -0.1963 -0.2384
  351MOL0     H47374   8.989  10.401  11.316  1.3997 -1.8658  1.2590
  351MOL0     H47375   9.032  10.686  11.645 -1.7911  1.9848  0.1487
  351MOL0     H47376   8.866  10.641  11.667 -0.7014 -2.0770  2.5404
  351MOL0     H47377   8.939  10.412  11.743 -1.2516  0.2751  1.6550
  351MOL0     H47378   9.003  10.546  11.848 -1.7148  1.2555 -0.6238
  351MOL0     H47379   9.214  10.531  11.702  1.1448 -0.5882  7.3314
  351MOL0     H47380   9.143  10.393  11.612 -1.4597 -0.8581 -0.1945
  351MOL0     H47381   9.192  10.404  11.913  0.0058  0.0822 -0.1128
  351MOL0     H47382   9.302  10.329  11.800  0.3202  1.9072  1.6872
  351MOL0     H47383   8.995  10.034  11.839  1.4069 -0.6319  0.8794
  351MOL0     H47384   8.717  10.496  11.632  0.2147  3.6794 -3.3778
  351MOL0     H47385   8.554  10.330  11.543  0.5791 -1.0682  1.7379
  352MOL0     O47386   4.120   6.301   7.427  0.0015 -0.1495  0.0282
  352MOL0     C47387   4.163   6.332   7.314  0.3147  0.2674 -0.1666
  352MOL0     O47388   4.184   6.459   7.269  0.1005  0.1324 -0.1919
  352MOL0     C47389   4.124   6.558   7.332 -0.0525  0.5407 -0.4905
  352MOL0     C47390   4.041   6.636   7.252 -0.1398  0.0715  0.2075
  352MOL0     C47391   4.002   6.766   7.295  0.7503 -0.6603  0.8771
  352MOL0     C47392   4.034   6.809   7.424  0.4505 -0.0689  0.6525
  352MOL0     O47393   3.990   6.930   7.462 -0.7997  0.0415 -0.1399
  352MOL0     C47394   4.089   7.014   7.514 -0.2120 -0.9388 -0.1242
  352MOL0     C47395   4.035   7.153   7.515 -0.0901 -0.7398 -0.2033
  352MOL0     C47396   3.895   7.175   7.594  0.0800  0.1526  0.3446
  352MOL0     C47397   3.860   7.330   7.590 -0.0073  0.3635  0.3284
  352MOL0     C47398   3.742   7.354   7.680  0.1581  0.9857 -0.2481
  352MOL0     C47399   3.687   7.493   7.671 -1.2651 -0.1268  0.0511
  352MOL0     C47400   3.778   7.599   7.733  0.0839 -0.7469  0.0175
  352MOL0     C47401   3.836   7.579   7.869 -0.1863  0.8340 -1.1198
  352MOL0     N47402   3.736   7.576   7.983  0.3630  0.5355  0.2155
  352MOL0     C47403   3.760   7.550   8.114  0.1741  1.5106 -0.0836
  352MOL0     C47404   3.643   7.579   8.176  0.5645 -0.2086 -0.3024
  352MOL0     C47405   3.617   7.568   8.326  0.5676 -0.1114 -0.5103
  352MOL0     C47406   3.525   7.448   8.356  0.1703  0.4819 -0.6734
  352MOL0     C47407   3.378   7.483   8.351  0.8999  0.6170  0.3137
  352MOL0     C47408   3.285   7.369   8.387 -0.3233  0.6818  0.1164
  352MOL0     O47409   3.150   7.418   8.387 -0.7895 -0.6422 -0.4379
  352MOL0     C47410   3.074   7.384   8.279  0.3111  1.2328 -0.8640
  352MOL0     C47411   3.023   7.491   8.207  0.1503 -0.1810  0.1381
  352MOL0     C47412   2.935   7.479   8.095 -0.1311  1.2501  0.3630
  352MOL0     C47413   2.905   7.600   8.007 -0.1747  0.0434 -0.1416
  352MOL0     C47414   2.889   7.341   8.063 -0.4614 -1.0367 -1.3967
  352MOL0     C47415   2.818   7.301   7.937 -0.3442  0.4859 -0.4652
  352MOL0     O47416   2.775   7.168   7.922 -0.1889 -0.0695  0.2445
  352MOL0     C47417   2.685   7.129   7.826  0.0779 -0.1594 -0.7598
  352MOL0     C47418   2.702   7.164   7.696 -0.2652  0.3982  0.5460
  352MOL0     C47419   2.611   7.121   7.601  1.1342 -0.5599 -0.1485
  352MOL0     C47420   2.493   7.049   7.642  0.7096  0.2371 -0.3544
  352MOL0     O47421   2.414   7.021   7.537  0.4115 -0.7352 -0.0962
  352MOL0     C47422   2.278   6.997   7.572 -0.2766  0.7821  0.0210
  352MOL0     C47423   2.245   6.847   7.557  1.0345  0.3321  0.4148
  352MOL0     C47424   2.095   6.816   7.573 -0.4235 -0.2692  0.3200
  352MOL0     C47425   2.064   6.679   7.626 -0.3299 -0.2643  0.3876
  352MOL0     C47426   2.105   6.568   7.530  0.5121 -0.8584  0.4773
  352MOL0     C47427   2.058   6.582   7.383 -0.3820 -0.3986  0.7796
  352MOL0     C47428   1.909   6.556   7.366  0.8353  0.2512 -0.0557
  352MOL0     C47429   1.885   6.474   7.240 -0.3333 -0.0471  0.2680
  352MOL0    Cl47430   1.714   6.479   7.199 -0.0989 -0.1080 -0.5279
  352MOL0     C47431   2.477   7.008   7.773  0.5516  0.2530 -0.1384
  352MOL0     C47432   2.574   7.045   7.862 -0.4805 -0.0652  0.3202
  352MOL0     O47433   2.802   7.383   7.847  0.6055  0.3794 -0.0193
  352MOL0     C47434   2.914   7.241   8.153  0.0309 -0.2005 -0.3505
  352MOL0     C47435   3.012   7.255   8.255  0.1392  0.0360 -0.3907
  352MOL0     N47436   3.550   7.623   8.082 -0.6249  0.7613 -0.1144
  352MOL0     N47437   3.611   7.619   7.968 -0.0669  0.1276 -0.6293
  352MOL0     C47438   4.116   6.725   7.503 -0.3150 -0.8640 -0.6033
  352MOL0     C47439   4.159   6.606   7.465 -0.5226  0.8220 -0.0434
  352MOL0     C47440   4.206   6.237   7.203  0.6489  0.1688 -0.7485
  352MOL0     C47441   4.246   6.266   7.076  0.0127 -0.6036  0.5159
  352MOL0     C47442   4.301   6.174   6.988  0.7877 -0.3014  0.2039
  352MOL0     C47443   4.298   6.035   7.020  0.5741 -0.7125 -0.2097
  352MOL0     O47444   4.353   5.941   6.936 -0.1551  0.3592 -0.2399
  352MOL0     C47445   4.352   5.792   6.959 -0.1996 -1.3785 -0.3602
  352MOL0     C47446   4.225   5.735   6.893  0.7147  0.4092  0.2350
  352MOL0     C47447   4.223   5.747   6.736 -0.0113  1.5497 -0.2162
  352MOL0     C47448   4.124   5.644   6.674  0.5933  0.5553  0.4044
  352MOL0     C47449   4.115   5.678   6.540 -0.4762 -0.3408  0.7783
  352MOL0     C47450   4.109   5.689   6.423  0.2116  0.1484 -0.9538
  352MOL0     C47451   4.243   6.002   7.146 -0.1564 -0.1729 -0.6945
  352MOL0     C47452   4.199   6.104   7.234 -0.0122 -1.2399 -0.5739
  352MOL0     H47453   4.025   6.603   7.150  0.4932 -2.3143  0.8195
  352MOL0     H47454   3.962   6.839   7.226 -0.5357 -0.5975  1.6554
  352MOL0     H47455   4.117   6.993   7.618  0.6332  1.8992  0.2950
  352MOL0     H47456   4.169   7.014   7.440 -1.0940  1.3279 -1.1484
  352MOL0     H47457   4.112   7.225   7.544 -1.9944  1.7291 -0.9311
  352MOL0     H47458   4.019   7.180   7.411 -0.6566 -1.3054 -0.2719
  352MOL0     H47459   3.808   7.123   7.551 -1.4587  1.9735  1.0791
  352MOL0     H47460   3.908   7.133   7.694  1.8341 -1.2053 -0.3963
  352MOL0     H47461   3.940   7.391   7.633  1.5378 -0.7045 -0.9137
  352MOL0     H47462   3.854   7.375   7.490 -0.4926 -0.0658  0.1656
  352MOL0     H47463   3.664   7.285   7.647  3.3847 -2.6518 -1.0316
  352MOL0     H47464   3.748   7.315   7.782  2.6435  1.8618  0.0075
  352MOL0     H47465   3.684   7.519   7.564  0.7959 -0.4052 -0.1063
  352MOL0     H47466   3.583   7.507   7.701 -1.1519 -2.2547  1.6897
  352MOL0     H47467   3.867   7.615   7.671 -0.8078 -0.8297 -1.3544
  352MOL0     H47468   3.721   7.693   7.729 -0.6530 -1.1705  0.3429
  352MOL0     H47469   3.906   7.654   7.907  0.3368 -1.3206  2.7968
  352MOL0     H47470   3.884   7.481   7.863 -2.7196 -0.4140 -2.5581
  352MOL0     H47471   3.854   7.517   8.158 -0.2209  0.5581  0.0734
  352MOL0     H47472   3.712   7.556   8.379  1.5741  4.2465 -0.9458
  352MOL0     H47473   3.583   7.667   8.358  1.9555  0.6050 -1.1487
  352MOL0     H47474   3.544   7.423   8.461  2.3750 -2.4266 -1.6193
  352MOL0     H47475   3.561   7.363   8.296  2.4460  0.2615  0.8606
  352MOL0     H47476   3.358   7.522   8.251  2.1711  1.9448  0.5273
  352MOL0     H47477   3.354   7.570   8.414  2.8974  1.6189 -0.2150
  352MOL0     H47478   3.311   7.325   8.484  1.4612 -1.5334 -1.2888
  352MOL0     H47479   3.300   7.285   8.319 -0.4571  0.2103  0.6603
  352MOL0     H47480   3.069   7.587   8.227  2.6454 -0.6652 -2.6431
  352MOL0     H47481   2.922   7.697   8.055 -2.1807 -0.6910  2.2835
  352MOL0     H47482   2.959   7.598   7.911 -1.0157  0.0430 -0.6234
  352MOL0     H47483   2.800   7.610   7.980 -0.7733  1.4300  2.3934
  352MOL0     H47484   2.787   7.231   7.682 -0.7902  0.9143 -0.2554
  352MOL0     H47485   2.611   7.142   7.494 -1.9362 -2.0732 -0.5594
  352MOL0     H47486   2.247   7.028   7.673  2.4386  2.3198  0.4818
  352MOL0     H47487   2.208   7.060   7.516 -0.5764  1.1696  0.8116
  352MOL0     H47488   2.272   6.813   7.457 -1.5449 -1.4203  0.2056
  352MOL0     H47489   2.308   6.790   7.626  1.7068 -0.2971 -0.6926
  352MOL0     H47490   2.043   6.836   7.478  1.4226  1.3984 -0.4080
  352MOL0     H47491   2.041   6.890   7.633 -0.0784  0.3387 -0.1016
  352MOL0     H47492   2.131   6.660   7.710  1.4543 -0.4076 -1.0040
  352MOL0     H47493   1.961   6.687   7.660  0.2616 -0.4350  2.3480
  352MOL0     H47494   2.074   6.467   7.558  3.2981 -1.0545  3.5584
  352MOL0     H47495   2.214   6.572   7.523  0.6866  3.7916  1.9860
  352MOL0     H47496   2.095   6.671   7.331 -1.7979 -0.9720 -1.3306
  352MOL0     H47497   2.110   6.500   7.334  0.5996  0.4833  0.2906
  352MOL0     H47498   1.857   6.652   7.372  0.8565  0.1837  1.5591
  352MOL0     H47499   1.869   6.497   7.449  1.1324 -1.1504 -0.8699
  352MOL0     H47500   1.920   6.371   7.247 -0.5388 -0.0117  2.9396
  352MOL0     H47501   1.944   6.518   7.159 -1.3348  3.9561  1.4867
  352MOL0     H47502   2.386   6.956   7.799 -0.8722  2.4659 -0.4706
  352MOL0     H47503   2.583   6.997   7.959  2.9836  2.1631  1.3131
  352MOL0     H47504   2.867   7.144   8.135  1.2817 -0.9195  0.2046
  352MOL0     H47505   3.028   7.167   8.317  2.6351  0.7315  0.0683
  352MOL0     H47506   4.134   6.760   7.604 -1.2996 -0.6477 -0.4931
  352MOL0     H47507   4.220   6.550   7.535  0.3931 -0.2817 -1.6476
  352MOL0     H47508   4.241   6.369   7.041 -1.0410 -0.9723 -0.5012
  352MOL0     H47509   4.331   6.216   6.892 -1.9632 -0.5124 -0.8527
  352MOL0     H47510   4.443   5.753   6.914 -0.8611 -3.1451 -0.2459
  352MOL0     H47511   4.350   5.760   7.063  1.7215 -2.3456 -0.5776
  352MOL0     H47512   4.142   5.784   6.945  0.6491  1.7119 -1.0288
  352MOL0     H47513   4.223   5.627   6.912 -0.8009 -0.1372 -2.4643
  352MOL0     H47514   4.323   5.724   6.697 -0.8809  2.5347 -3.3280
  352MOL0     H47515   4.210   5.850   6.703  1.7234  1.1706 -2.3423
  352MOL0     H47516   4.027   5.652   6.724  0.3669  0.7160 -0.0523
  352MOL0     H47517   4.162   5.542   6.683 -0.2139  0.1293 -0.9033
  352MOL0     H47518   4.110   5.703   6.317  1.6322 -1.3099 -1.1643
  352MOL0     H47519   4.214   5.899   7.165 -0.3144 -0.0969 -0.5104
  352MOL0     H47520   4.155   6.077   7.329 -1.0932  1.8857 -0.0514
  353MOL0     O47521   1.228   4.043   2.683 -0.1280  0.1031  0.1474
  353MOL0     C47522   1.113   4.058   2.640 -0.4290  0.1284 -0.0887
  353MOL0     O47523   1.052   4.175   2.607 -0.0946 -0.1107 -0.6088
  353MOL0     C47524   1.121   4.292   2.585  0.2563 -0.0700 -0.5748
  353MOL0     C47525   1.042   4.414   2.575  0.1214 -0.9437  0.1549
  353MOL0     C47526   1.101   4.535   2.553  0.6505  0.3345 -0.5200
  353MOL0     C47527   1.237   4.543   2.536 -1.5748 -0.2526  0.9990
  353MOL0     O47528   1.310   4.656   2.521  0.0167 -0.2371 -0.1321
  353MOL0     C47529   1.260   4.790   2.536  1.5870  0.0928  0.3004
  353MOL0     C47530   1.366   4.892   2.498  0.5800  0.1357 -0.9553
  353MOL0     C47531   1.421   4.866   2.355  0.4854  0.5019  0.6204
  353MOL0     C47532   1.553   4.941   2.349  0.5141 -0.0752  0.6058
  353MOL0     C47533   1.614   4.942   2.210  0.5782 -0.0296  0.3009
  353MOL0     C47534   1.747   5.010   2.204  1.0303  0.0454  0.1723
  353MOL0     C47535   1.797   5.048   2.060  0.0409  0.1166  0.6001
  353MOL0     C47536   1.932   5.108   2.086 -0.3716 -0.5176  0.0127
  353MOL0     N47537   1.974   5.164   1.955 -0.0019 -0.1774 -0.1605
  353MOL0     C47538   1.965   5.094   1.836 -0.3892 -0.0932  0.1057
  353MOL0     C47539   2.025   5.176   1.751  0.2937 -0.3902 -0.3366
  353MOL0     C47540   2.050   5.136   1.606 -0.3231 -0.5471  0.3703
  353MOL0     C47541   1.923   5.147   1.520  0.5569  0.3641  0.8172
  353MOL0     C47542   1.943   5.248   1.397 -0.0712  0.6104  0.2291
  353MOL0     C47543   1.869   5.211   1.272  0.2959  0.0556  0.1288
  353MOL0     O47544   1.907   5.289   1.162 -0.2078  0.1010  0.0836
  353MOL0     C47545   2.008   5.232   1.077  1.0054 -0.6027  0.8767
  353MOL0     C47546   2.042   5.284   0.950 -0.3845 -0.2571 -0.1804
  353MOL0     C47547   2.148   5.243   0.875  0.7005  0.7932  0.8159
  353MOL0     C47548   2.157   5.319   0.745  0.1260  0.0057 -0.0200
  353MOL0     C47549   2.220   5.134   0.917  0.7714  0.6869  0.0911
  353MOL0     C47550   2.310   5.077   0.821  0.2825 -0.0596  0.2863
  353MOL0     O47551   2.430   5.058   0.861 -0.0295  0.6918 -0.0113
  353MOL0     C47552   2.533   5.000   0.780 -0.4622  0.8770 -0.2919
  353MOL0     C47553   2.622   4.905   0.846 -0.4443  0.2209  0.4845
  353MOL0     C47554   2.728   4.848   0.769 -0.4778  0.0650  0.2733
  353MOL0     C47555   2.743   4.879   0.630  0.1544  0.5928 -0.6302
  353MOL0     O47556   2.854   4.835   0.561  0.8678  0.4230 -0.0293
  353MOL0     C47557   2.814   4.771   0.440  1.3647  0.4087  0.7759
  353MOL0     C47558   2.936   4.722   0.367  0.4515 -0.9376 -0.3485
  353MOL0     C47559   2.908   4.621   0.257  0.2708  0.0804 -0.6621
  353MOL0     C47560   3.036   4.596   0.184 -0.9851  0.1375  0.0701
  353MOL0     C47561   3.027   4.461   0.112 -0.3342 -0.2733  0.2248
  353MOL0     C47562   3.157   4.395   0.076 -0.6979  0.8983 -0.4117
  353MOL0     C47563   3.135   4.242   0.039 -0.2926 -0.0291 -0.6689
  353MOL0     C47564   3.269   4.179  -0.022  0.1339 -0.0164  1.1738
  353MOL0    Cl47565   3.333   4.254  -0.172 -0.2402 -0.0106  0.0467
  353MOL0     C47566   2.650   4.970   0.571  0.2844 -0.0807  1.0115
  353MOL0     C47567   2.538   5.021   0.641 -0.4772  0.1945 -0.0632
  353MOL0     O47568   2.261   5.031   0.717  0.5146  0.3580 -0.2407
  353MOL0     C47569   2.201   5.088   1.052 -0.8078  1.0936  0.6609
  353MOL0     C47570   2.095   5.131   1.127  0.0827 -0.8718 -0.5991
  353MOL0     N47571   2.067   5.291   1.819 -0.3049  0.3421 -0.1314
  353MOL0     N47572   2.034   5.279   1.943 -0.3284 -0.0311 -0.4377
  353MOL0     C47573   1.318   4.426   2.533  0.0287 -0.3828  0.1171
  353MOL0     C47574   1.261   4.301   2.562 -0.6091 -0.5724  0.1696
  353MOL0     C47575   1.026   3.941   2.633  0.0353 -0.2240 -0.3241
  353MOL0     C47576   0.896   3.955   2.578 -0.2506  0.1480  0.1129
  353MOL0     C47577   0.817   3.841   2.569 -0.8949 -0.8836  0.0222
  353MOL0     C47578   0.857   3.716   2.618 -0.0493  0.2679  0.6036
  353MOL0     O47579   0.783   3.600   2.620  0.9180  1.3364 -0.1462
  353MOL0     C47580   0.642   3.622   2.623  0.3453 -0.0998 -0.5194
  353MOL0     C47581   0.571   3.484   2.628 -0.2934  0.3342  0.7224
  353MOL0     C47582   0.584   3.426   2.775  0.0966 -0.0134  0.3912
  353MOL0     C47583   0.569   3.278   2.780  0.9858  0.6936 -0.4126
  353MOL0     C47584   0.437   3.231   2.739 -0.5636 -0.0797  0.3256
  353MOL0     C47585   0.332   3.181   2.693  0.2315  1.3277  0.3058
  353MOL0     C47586   0.992   3.699   2.659 -0.6778 -0.2520  0.3824
  353MOL0     C47587   1.075   3.813   2.660 -0.6920 -0.0059  0.1625
  353MOL0     H47588   0.938   4.418   2.607  0.2850  1.5955  0.5442
  353MOL0     H47589   1.058   4.635   2.551  1.5685  0.8329  1.8484
  353MOL0     H47590   1.176   4.814   2.470  2.0485  2.2452  0.4008
  353MOL0     H47591   1.235   4.813   2.641 -2.0497 -0.4776 -0.3105
  353MOL0     H47592   1.321   4.991   2.511  2.0963  0.6673  0.6393
  353MOL0     H47593   1.445   4.887   2.574  0.8662  0.9723 -1.1829
  353MOL0     H47594   1.431   4.758   2.340 -1.6306  0.5442 -1.7122
  353MOL0     H47595   1.355   4.913   2.282  0.1652  2.3150  1.9919
  353MOL0     H47596   1.533   5.046   2.373  0.6022  1.4537 -4.6901
  353MOL0     H47597   1.628   4.904   2.420  0.1671  5.1806  4.2845
  353MOL0     H47598   1.620   4.839   2.175  0.3274 -0.0110  0.2011
  353MOL0     H47599   1.544   4.991   2.142 -0.2520 -0.9078  0.5117
  353MOL0     H47600   1.728   5.103   2.257 -1.2315  0.3556 -1.0583
  353MOL0     H47601   1.809   4.935   2.255 -2.3447 -2.6079  0.7384
  353MOL0     H47602   1.799   4.967   1.986 -0.0473  2.5277 -2.2085
  353MOL0     H47603   1.738   5.128   2.017  1.8624  1.6485  0.8344
  353MOL0     H47604   1.989   5.020   2.119  0.4675 -0.1360 -0.3942
  353MOL0     H47605   1.916   5.178   2.169  0.8844  1.1504 -1.0900
  353MOL0     H47606   1.928   4.995   1.812 -0.8568  0.0362  0.2748
  353MOL0     H47607   2.114   5.210   1.557 -0.0207 -1.1999 -0.2532
  353MOL0     H47608   2.085   5.032   1.602  0.8924 -0.1202 -2.5337
  353MOL0     H47609   1.839   5.172   1.585  2.0800  1.6148  2.4163
  353MOL0     H47610   1.898   5.045   1.489  0.1097  0.2316  1.5719
  353MOL0     H47611   2.050   5.246   1.376 -0.6424  0.5973 -3.3804
  353MOL0     H47612   1.896   5.342   1.427 -0.8768  0.0204  0.8804
  353MOL0     H47613   1.765   5.245   1.282  1.4195  3.0600  3.6499
  353MOL0     H47614   1.867   5.102   1.258 -1.3787  0.1748 -0.8996
  353MOL0     H47615   1.981   5.362   0.904 -0.2589 -1.2130 -2.0772
  353MOL0     H47616   2.256   5.360   0.722 -0.0208  0.5828  0.3713
  353MOL0     H47617   2.117   5.248   0.672 -1.6791  0.4640  0.4599
  353MOL0     H47618   2.084   5.399   0.730 -0.3769 -0.8412 -2.7394
  353MOL0     H47619   2.616   4.881   0.952  0.5285 -4.9129 -0.3335
  353MOL0     H47620   2.804   4.791   0.821  0.0832  0.4312 -0.1302
  353MOL0     H47621   2.754   4.685   0.469  0.3342  1.2269  1.1230
  353MOL0     H47622   2.748   4.839   0.386 -1.2751 -0.7072  2.4005
  353MOL0     H47623   2.982   4.809   0.320 -0.4391 -0.9019 -1.1816
  353MOL0     H47624   3.000   4.689   0.449 -1.8983  2.5126  3.2309
  353MOL0     H47625   2.839   4.664   0.185 -0.2574  0.3805  0.0085
  353MOL0     H47626   2.858   4.536   0.306 -2.1614  1.7001 -0.1531
  353MOL0     H47627   3.048   4.673   0.107 -2.0368  1.6698  1.3723
  353MOL0     H47628   3.128   4.591   0.243  0.1972  2.7756 -1.4003
  353MOL0     H47629   2.969   4.457   0.020 -0.3186  1.4784  0.0943
  353MOL0     H47630   2.973   4.391   0.177 -1.3262  0.0367 -0.2484
  353MOL0     H47631   3.207   4.440  -0.010  1.0633  0.4236  0.3008
  353MOL0     H47632   3.227   4.404   0.160  0.0336  0.3239 -0.9528
  353MOL0     H47633   3.056   4.226  -0.034  1.3298 -1.8096 -2.1415
  353MOL0     H47634   3.109   4.190   0.132 -2.6763  0.3569 -1.0643
  353MOL0     H47635   3.245   4.073  -0.037  0.3363 -0.2026  2.1430
  353MOL0     H47636   3.345   4.187   0.055  1.5135  5.6702 -0.3086
  353MOL0     H47637   2.650   4.999   0.467  2.0464  0.0425  1.0187
  353MOL0     H47638   2.467   5.090   0.596  1.3039  2.6233  0.6269
  353MOL0     H47639   2.251   4.995   1.077 -2.3327  0.1976  0.4988
  353MOL0     H47640   2.094   5.087   1.226  1.6763 -0.2797 -0.2871
  353MOL0     H47641   1.426   4.438   2.524 -0.1174  0.0067 -1.5828
  353MOL0     H47642   1.326   4.216   2.578 -2.5353 -1.6944  2.7767
  353MOL0     H47643   0.856   4.050   2.542  1.8030  1.4628  1.1139
  353MOL0     H47644   0.717   3.848   2.527 -0.7400 -0.1106 -0.2361
  353MOL0     H47645   0.629   3.686   2.710  5.3398  0.0965  0.3899
  353MOL0     H47646   0.604   3.673   2.534 -0.3909  1.2329  0.5261
  353MOL0     H47647   0.617   3.419   2.553 -1.3718  0.5731 -0.1909
  353MOL0     H47648   0.466   3.501   2.601 -0.0042  0.4998 -0.3719
  353MOL0     H47649   0.507   3.470   2.839 -0.9313 -2.3516  0.8948
  353MOL0     H47650   0.671   3.461   2.831  0.2693 -4.0184  3.1014
  353MOL0     H47651   0.597   3.247   2.881 -0.6427  0.0986 -0.1110
  353MOL0     H47652   0.644   3.237   2.711  1.1043  1.9671 -1.0773
  353MOL0     H47653   0.254   3.120   2.651 -1.0254  3.3674 -0.4397
  353MOL0     H47654   1.025   3.606   2.704  2.4300  0.6596  0.1876
  353MOL0     H47655   1.181   3.801   2.681 -1.1984 -2.0992  1.7568
  354MOL0     O47656   8.084   0.355   1.011 -0.5276 -0.5182  0.7537
  354MOL0     C47657   8.009   0.446   0.972  0.6392  0.0470 -0.1281
  354MOL0     O47658   8.040   0.553   0.890 -1.2295 -0.5062  0.2158
  354MOL0     C47659   8.168   0.553   0.820  0.3541 -0.0104  0.0542
  354MOL0     C47660   8.227   0.677   0.787  0.5792  0.6815 -0.2528
  354MOL0     C47661   8.341   0.693   0.709 -0.2238 -0.3808  0.6731
  354MOL0     C47662   8.402   0.584   0.645  1.4653 -0.4705 -0.1586
  354MOL0     O47663   8.510   0.610   0.558 -0.0337 -0.8977 -0.0226
  354MOL0     C47664   8.531   0.511   0.467 -0.0177 -0.8033  1.1774
  354MOL0     C47665   8.644   0.568   0.373  0.0161  0.2016  0.1806
  354MOL0     C47666   8.690   0.483   0.254 -0.1659 -0.4222  0.1618
  354MOL0     C47667   8.812   0.549   0.174  0.1511 -0.8015  0.8027
  354MOL0     C47668   8.826   0.493   0.026  0.8390  0.4211  0.2003
  354MOL0     C47669   8.852   0.341   0.013  0.1805  0.5512 -0.5857
  354MOL0     C47670   8.866   0.296  -0.126 -0.7650  1.1421  0.0604
  354MOL0     C47671   8.731   0.296  -0.201  0.1664  0.1741  0.0548
  354MOL0     N47672   8.632   0.196  -0.151 -0.7732 -0.8633  0.4622
  354MOL0     C47673   8.636   0.070  -0.192 -0.4906  0.0306  0.0968
  354MOL0     C47674   8.510   0.020  -0.163 -0.0262 -0.1119 -0.5913
  354MOL0     C47675   8.456  -0.125  -0.196  0.1053  0.7591  0.0760
  354MOL0     C47676   8.306  -0.149  -0.173  0.0111  0.5267  0.9973
  354MOL0     C47677   8.222  -0.061  -0.267 -0.1936  0.5213  0.1465
  354MOL0     C47678   8.074  -0.094  -0.234 -0.4365 -0.2953 -0.1770
  354MOL0     O47679   8.051  -0.040  -0.100 -0.7709  0.7453  0.5937
  354MOL0     C47680   7.927  -0.028  -0.050  0.8293 -0.0634  0.2347
  354MOL0     C47681   7.804  -0.055  -0.126  0.2181 -0.5968 -0.1629
  354MOL0     C47682   7.680  -0.016  -0.072  0.3436  0.9068  0.3645
  354MOL0     C47683   7.553  -0.055  -0.151 -0.3720  0.0056 -0.0706
  354MOL0     C47684   7.675   0.054   0.049  0.8408  0.1827 -0.3122
  354MOL0     C47685   7.550   0.085   0.114 -0.0812  0.7239 -0.2038
  354MOL0     O47686   7.545   0.063   0.250 -0.2661 -0.0716  0.3606
  354MOL0     C47687   7.451   0.127   0.324  0.8651 -0.3244  0.7878
  354MOL0     C47688   7.451   0.271   0.315  0.2676  0.3865  1.1342
  354MOL0     C47689   7.350   0.335   0.388 -0.8764 -0.0216 -0.8616
  354MOL0     C47690   7.246   0.265   0.459  0.1498 -0.9863  0.1818
  354MOL0     O47691   7.185   0.344   0.556  0.4377 -0.1755  0.4969
  354MOL0     C47692   7.042   0.365   0.552 -0.0023 -0.3804 -0.5819
  354MOL0     C47693   6.988   0.409   0.686  0.0242 -0.8025 -0.4034
  354MOL0     C47694   6.849   0.360   0.734 -0.5033 -0.0351  0.2395
  354MOL0     C47695   6.741   0.477   0.727 -0.1885  0.3487 -0.4126
  354MOL0     C47696   6.622   0.432   0.798  0.4426 -0.0716 -0.8312
  354MOL0     C47697   6.486   0.520   0.791 -0.0464  0.7551 -0.7314
  354MOL0     C47698   6.379   0.473   0.894  0.6251  0.8846 -0.5548
  354MOL0     C47699   6.366   0.320   0.889  0.2534  0.6394  0.7738
  354MOL0    Cl47700   6.263   0.261   1.026 -0.0551 -0.3726 -0.0879
  354MOL0     C47701   7.244   0.125   0.454  0.1257 -0.4398  0.3078
  354MOL0     C47702   7.345   0.053   0.385  0.8914 -0.7963 -0.4470
  354MOL0     O47703   7.462   0.120   0.042  0.7933 -0.6793 -0.3818
  354MOL0     C47704   7.788   0.071   0.133  0.1807 -1.0944  0.3169
  354MOL0     C47705   7.916   0.033   0.073 -0.3126 -1.1906 -0.1557
  354MOL0     N47706   8.438   0.121  -0.102  0.1505 -0.1834  0.5364
  354MOL0     N47707   8.512   0.229  -0.101 -0.3695 -0.3255 -0.5855
  354MOL0     C47708   8.337   0.458   0.669  0.2771 -0.2559 -0.0005
  354MOL0     C47709   8.220   0.442   0.748 -0.0793 -0.0810  0.3558
  354MOL0     C47710   7.878   0.447   1.036 -0.6446  0.5485  0.1772
  354MOL0     C47711   7.780   0.538   0.985 -0.0539  0.4026 -0.1202
  354MOL0     C47712   7.658   0.566   1.054  1.1425  0.5884  0.9807
  354MOL0     C47713   7.637   0.503   1.174 -0.4442 -0.1668 -0.1922
  354MOL0     O47714   7.528   0.538   1.247  0.5984  0.4957 -0.3362
  354MOL0     C47715   7.450   0.659   1.209 -0.5066  0.9797  0.1744
  354MOL0     C47716   7.390   0.699   1.342  0.1736 -0.5022 -0.5674
  354MOL0     C47717   7.298   0.602   1.399 -1.4467  1.0923 -0.8028
  354MOL0     C47718   7.235   0.647   1.536 -0.3146  0.0194 -0.0689
  354MOL0     C47719   7.334   0.652   1.643 -0.2954  0.2112 -0.4866
  354MOL0     C47720   7.408   0.638   1.740  0.2020  0.7681  0.2354
  354MOL0     C47721   7.729   0.406   1.224  0.3265 -0.5865  0.1768
  354MOL0     C47722   7.851   0.384   1.164  0.7667  0.2066 -0.3984
  354MOL0     H47723   8.195   0.760   0.849  4.0696  0.1146  2.6553
  354MOL0     H47724   8.374   0.794   0.689  2.9495 -1.2211  1.0964
  354MOL0     H47725   8.557   0.417   0.516 -3.0918 -1.8612  0.9749
  354MOL0     H47726   8.437   0.513   0.411  0.9097  0.2330 -0.4378
  354MOL0     H47727   8.606   0.665   0.340  0.9790  1.0461  1.4195
  354MOL0     H47728   8.737   0.588   0.429  1.1174  0.2104 -1.5920
  354MOL0     H47729   8.721   0.390   0.303  0.1309 -1.0480 -1.1617
  354MOL0     H47730   8.606   0.468   0.186  0.2427  3.2676 -1.3740
  354MOL0     H47731   8.798   0.657   0.166 -1.2569 -0.9533  0.9264
  354MOL0     H47732   8.907   0.541   0.227  0.9090  1.3658 -0.0936
  354MOL0     H47733   8.735   0.521  -0.028 -1.1159 -0.4469  2.8367
  354MOL0     H47734   8.915   0.536  -0.020  2.5095 -2.3004  0.6792
  354MOL0     H47735   8.948   0.320   0.061  1.6673 -1.0940 -3.9507
  354MOL0     H47736   8.781   0.278   0.067  1.4534  0.3165  0.8609
  354MOL0     H47737   8.946   0.343  -0.183  1.6167 -1.8701  0.6204
  354MOL0     H47738   8.894   0.190  -0.125 -2.4126  0.6737 -0.4100
  354MOL0     H47739   8.741   0.281  -0.309 -2.5515 -1.8069 -0.0029
  354MOL0     H47740   8.688   0.396  -0.185 -0.1817 -0.2253  1.8925
  354MOL0     H47741   8.715   0.023  -0.249  0.7752  0.6455  1.3062
  354MOL0     H47742   8.482  -0.136  -0.302 -0.3829  2.9757 -0.3158
  354MOL0     H47743   8.508  -0.202  -0.139  0.3325 -0.3901 -1.6019
  354MOL0     H47744   8.282  -0.146  -0.067 -1.0547  0.2682  0.7799
  354MOL0     H47745   8.286  -0.249  -0.212  1.2136  1.4338 -2.3351
  354MOL0     H47746   8.246  -0.086  -0.371  2.5346  0.8753  0.6233
  354MOL0     H47747   8.220   0.048  -0.256 -3.3021  0.7086 -1.1152
  354MOL0     H47748   8.049  -0.200  -0.229  0.0647 -0.3910  0.5008
  354MOL0     H47749   8.008  -0.052  -0.310  2.7536  1.9235 -1.9718
  354MOL0     H47750   7.806  -0.103  -0.223 -2.2181 -0.2286 -0.4492
  354MOL0     H47751   7.474  -0.081  -0.080  0.1631 -0.0723  0.5024
  354MOL0     H47752   7.524   0.024  -0.221 -1.3541 -1.3909 -1.2999
  354MOL0     H47753   7.576  -0.141  -0.214 -0.2592  0.7276 -1.0581
  354MOL0     H47754   7.543   0.320   0.283  0.4963 -0.4926  0.4314
  354MOL0     H47755   7.361   0.442   0.399 -1.2372 -0.0306 -0.3919
  354MOL0     H47756   7.019   0.443   0.478 -1.6622 -0.1111  0.1771
  354MOL0     H47757   6.997   0.276   0.508 -1.1981  1.8349 -4.3981
  354MOL0     H47758   7.056   0.358   0.755 -1.7239 -2.9608 -0.1332
  354MOL0     H47759   6.998   0.517   0.697 -0.7780 -0.5024 -2.2935
  354MOL0     H47760   6.858   0.320   0.835 -0.1872 -1.4255 -0.3183
  354MOL0     H47761   6.815   0.275   0.673 -5.1016  3.1238 -2.2116
  354MOL0     H47762   6.785   0.565   0.775 -5.3104  2.6176  0.9223
  354MOL0     H47763   6.714   0.501   0.624 -0.4684 -1.9105 -0.9081
  354MOL0     H47764   6.656   0.410   0.899  0.0441 -2.2279 -1.1098
  354MOL0     H47765   6.600   0.332   0.759  0.1064 -1.1054  1.8281
  354MOL0     H47766   6.506   0.627   0.804  1.6843  0.3169  0.5664
  354MOL0     H47767   6.427   0.515   0.699 -3.3189 -0.5730  1.2772
  354MOL0     H47768   6.283   0.514   0.861  0.9363 -0.5357 -3.5140
  354MOL0     H47769   6.401   0.502   0.998  0.3043 -1.8092  0.3477
  354MOL0     H47770   6.462   0.272   0.909  0.6846  1.7716  1.5242
  354MOL0     H47771   6.333   0.289   0.790  1.4327 -2.2159  1.1515
  354MOL0     H47772   7.176   0.065   0.514 -1.3966 -1.5955 -2.3839
  354MOL0     H47773   7.346  -0.055   0.377  2.1355 -0.9325  1.1452
  354MOL0     H47774   7.784   0.118   0.231  2.7405  1.6882 -0.7415
  354MOL0     H47775   7.998   0.038   0.144 -2.1755 -0.4535  2.0510
  354MOL0     H47776   8.385   0.366   0.636 -0.8793 -0.2734 -1.7551
  354MOL0     H47777   8.180   0.341   0.752 -0.9238  0.1890 -0.8409
  354MOL0     H47778   7.806   0.588   0.891  0.5188 -0.3900 -0.3930
  354MOL0     H47779   7.583   0.625   1.001 -0.2391 -2.2180 -0.4180
  354MOL0     H47780   7.496   0.743   1.156  1.2988 -0.5186 -0.7590
  354MOL0     H47781   7.367   0.646   1.139  0.7084 -0.0747 -1.1258
  354MOL0     H47782   7.337   0.793   1.323 -1.7101 -1.4304 -0.1435
  354MOL0     H47783   7.469   0.702   1.418 -0.1616 -0.0907 -0.2299
  354MOL0     H47784   7.345   0.503   1.403 -1.3485  1.1835  0.5093
  354MOL0     H47785   7.217   0.599   1.325 -1.1230  0.8438 -1.1585
  354MOL0     H47786   7.166   0.573   1.577  1.4350 -0.0643  2.9982
  354MOL0     H47787   7.174   0.737   1.519  0.0957  0.3832  0.3622
  354MOL0     H47788   7.470   0.594   1.816 -0.4975 -2.1760 -0.7359
  354MOL0     H47789   7.714   0.355   1.318  1.8346 -1.4528 -0.0118
  354MOL0     H47790   7.927   0.330   1.219 -0.6177 -0.0339  1.3748
  355MOL0     O47791   1.035  10.516   7.869 -0.1554 -0.1449 -0.4757
  355MOL0     C47792   1.082  10.515   7.758  0.4068  0.7228  0.4234
  355MOL0     O47793   1.029  10.452   7.656  0.1828 -0.6220  0.0568
  355MOL0     C47794   0.905  10.398   7.666  0.0274  0.0661  0.3231
  355MOL0     C47795   0.813  10.431   7.574  0.5637 -0.7817  0.3433
  355MOL0     C47796   0.687  10.371   7.577  0.2831 -0.1285 -1.0529
  355MOL0     C47797   0.651  10.291   7.679  0.4689  0.8499 -0.7152
  355MOL0     O47798   0.522  10.239   7.692 -0.0360 -0.6631  0.3151
  355MOL0     C47799   0.422  10.278   7.605 -0.3500  1.0292 -0.4117
  355MOL0     C47800   0.289  10.225   7.642  0.6328 -0.1840 -0.0849
  355MOL0     C47801   0.270  10.081   7.696 -0.0935 -0.2520  0.6308
  355MOL0     C47802   0.127  10.057   7.750 -0.2450  0.0929  0.0873
  355MOL0     C47803   0.098  10.134   7.880  0.1143  0.6818 -0.8672
  355MOL0     C47804  -0.039  10.139   7.940 -0.0622  0.3625  1.0522
  355MOL0     C47805  -0.085   9.998   7.993 -0.7177 -0.4527  0.0831
  355MOL0     C47806  -0.217   9.997   8.063 -0.3931  0.3380  0.2759
  355MOL0     N47807  -0.332  10.015   7.969 -0.0180 -0.1934 -0.9231
  355MOL0     C47808  -0.361   9.920   7.869  0.1736  0.3797 -0.4022
  355MOL0     C47809  -0.456   9.981   7.784  0.0413  0.0591 -0.3463
  355MOL0     C47810  -0.507   9.920   7.653 -0.1402 -0.0356 -0.2482
  355MOL0     C47811  -0.606   9.807   7.678  0.3309  0.1150 -0.1050
  355MOL0     C47812  -0.638   9.735   7.549  0.3630 -0.4070  0.4026
  355MOL0     C47813  -0.682   9.586   7.566  0.1464  0.9479 -0.1929
  355MOL0     O47814  -0.599   9.489   7.640 -0.0928 -0.1615  0.0122
  355MOL0     C47815  -0.476   9.457   7.589  0.1847 -0.0679  0.8306
  355MOL0     C47816  -0.394   9.365   7.662  0.1196 -0.1782 -0.4677
  355MOL0     C47817  -0.269   9.314   7.627 -0.0877 -0.0099 -0.6533
  355MOL0     C47818  -0.199   9.223   7.721 -0.6291 -1.0349  0.9181
  355MOL0     C47819  -0.220   9.356   7.508 -0.2573  0.4001 -0.3842
  355MOL0     C47820  -0.083   9.311   7.459 -0.2665  1.3407  0.1749
  355MOL0     O47821  -0.004   9.229   7.526 -0.2392  0.0658 -0.5225
  355MOL0     C47822   0.126   9.223   7.483  0.7669  0.5151  0.7567
  355MOL0     C47823   0.179   9.096   7.461  0.4252 -1.3049  0.4121
  355MOL0     C47824   0.312   9.073   7.428 -0.6276  0.3743 -0.1475
  355MOL0     C47825   0.405   9.182   7.431  0.1474 -0.6283  0.4770
  355MOL0     O47826   0.541   9.152   7.408 -0.1064 -0.5311  0.4795
  355MOL0     C47827   0.633   9.261   7.423  0.5496 -0.2588 -0.1193
  355MOL0     C47828   0.776   9.212   7.406  0.5464 -0.0745  0.0408
  355MOL0     C47829   0.872   9.320   7.463 -0.5786  0.4544 -0.6091
  355MOL0     C47830   0.897   9.307   7.622 -0.4233 -0.4855  0.0709
  355MOL0     C47831   1.024   9.378   7.659  0.0310  0.1412 -0.3697
  355MOL0     C47832   1.061   9.387   7.816 -0.5319 -0.0810  0.6802
  355MOL0     C47833   1.158   9.503   7.833  0.0418 -0.2944 -1.1454
  355MOL0     C47834   1.254   9.487   7.950  0.4659  0.2972  0.5845
  355MOL0    Cl47835   1.365   9.631   7.971 -0.1066 -0.5118  0.0631
  355MOL0     C47836   0.351   9.307   7.464 -0.9525 -0.5033  0.5023
  355MOL0     C47837   0.215   9.333   7.488  0.3173 -0.0460  0.7215
  355MOL0     O47838  -0.060   9.345   7.345  0.4313 -0.3502 -0.2644
  355MOL0     C47839  -0.296   9.442   7.429 -0.0102  0.0632 -0.0391
  355MOL0     C47840  -0.417   9.490   7.466  0.6397 -0.2465 -0.4061
  355MOL0     N47841  -0.502  10.081   7.855 -0.0051  0.1504 -0.4676
  355MOL0     N47842  -0.430  10.110   7.960  0.0693  0.2315 -0.0557
  355MOL0     C47843   0.749  10.239   7.762 -0.0073 -0.3138 -0.0826
  355MOL0     C47844   0.877  10.293   7.749 -0.2799  0.0504 -1.4308
  355MOL0     C47845   1.201  10.587   7.719  0.5885  0.1337  0.5183
  355MOL0     C47846   1.286  10.563   7.604  0.1792 -0.2673 -0.1922
  355MOL0     C47847   1.403  10.629   7.584 -0.2723  0.2578 -0.3602
  355MOL0     C47848   1.451  10.723   7.686 -0.2298  0.5086 -0.0187
  355MOL0     O47849   1.567  10.787   7.674 -0.0464 -0.5493  0.0802
  355MOL0     C47850   1.623  10.851   7.785  0.7999 -1.0617  0.0216
  355MOL0     C47851   1.760  10.908   7.754 -1.4547 -0.1112  0.7067
  355MOL0     C47852   1.744  11.025   7.661 -0.4801 -0.2678  0.0540
  355MOL0     C47853   1.881  11.072   7.611  0.2047 -0.0930  0.2270
  355MOL0     C47854   1.971  11.124   7.714  0.4919 -0.2556 -0.0719
  355MOL0     C47855   2.040  11.168   7.800 -0.1275  0.5903 -0.0071
  355MOL0     C47856   1.367  10.745   7.795  0.6389 -0.4984 -0.9302
  355MOL0     C47857   1.248  10.679   7.811 -0.4008  0.9187 -0.0363
  355MOL0     H47858   0.823  10.512   7.502 -1.0176  0.0236  0.9659
  355MOL0     H47859   0.628  10.391   7.488  2.0286 -1.4637 -2.6004
  355MOL0     H47860   0.409  10.387   7.605 -0.3214  1.0338  0.0071
  355MOL0     H47861   0.461  10.240   7.510  4.5083 -0.3798  1.8750
  355MOL0     H47862   0.251  10.295   7.716  2.0965  0.5014  0.0656
  355MOL0     H47863   0.235  10.227   7.547  1.0737 -0.9132 -0.3627
  355MOL0     H47864   0.297  10.005   7.623  0.3288  0.9259 -0.4722
  355MOL0     H47865   0.336  10.068   7.783  3.1110  2.0855 -1.2247
  355MOL0     H47866   0.054  10.082   7.672 -0.1984  2.4118  0.7150
  355MOL0     H47867   0.117   9.954   7.783  0.2292  0.6487  2.0857
  355MOL0     H47868   0.168  10.085   7.948 -0.3430  0.3195 -0.6509
  355MOL0     H47869   0.127  10.239   7.879  0.5911  0.5573 -0.3692
  355MOL0     H47870  -0.043  10.204   8.028 -2.3496 -1.8982  2.7586
  355MOL0     H47871  -0.099  10.176   7.856 -1.0912 -0.7070  1.3051
  355MOL0     H47872  -0.084   9.927   7.909 -1.8285  2.3450 -2.4807
  355MOL0     H47873  -0.009   9.967   8.066  0.9906  0.4660 -1.2365
  355MOL0     H47874  -0.216  10.082   8.131  1.5626 -0.2672  1.0684
  355MOL0     H47875  -0.217   9.908   8.127  2.3758  2.2394  3.2048
  355MOL0     H47876  -0.308   9.831   7.835  0.2424  0.4425 -0.4609
  355MOL0     H47877  -0.545   9.996   7.584 -4.0913 -1.5021  0.0599
  355MOL0     H47878  -0.420   9.881   7.599  0.5087 -1.6482  1.8381
  355MOL0     H47879  -0.703   9.847   7.710  0.7275  2.1570 -1.2776
  355MOL0     H47880  -0.563   9.736   7.749  0.4387  0.2391 -0.0457
  355MOL0     H47881  -0.556   9.730   7.477 -1.6960 -0.0837 -2.0992
  355MOL0     H47882  -0.721   9.785   7.499  1.8101  0.1023 -1.6033
  355MOL0     H47883  -0.696   9.548   7.464 -0.3926 -1.1330  0.6057
  355MOL0     H47884  -0.781   9.587   7.613  0.3736 -0.5851  0.3777
  355MOL0     H47885  -0.442   9.323   7.750 -0.4193 -0.1952 -0.7629
  355MOL0     H47886  -0.268   9.192   7.800 -0.8245  0.9682  1.5951
  355MOL0     H47887  -0.177   9.125   7.677  2.3158 -0.5796  1.2217
  355MOL0     H47888  -0.108   9.276   7.748  0.3234 -0.3003 -3.0798
  355MOL0     H47889   0.127   9.001   7.466  0.3778 -1.2445  1.3696
  355MOL0     H47890   0.346   8.975   7.399 -1.4387 -0.3846  1.3749
  355MOL0     H47891   0.618   9.342   7.351 -0.7728 -1.5054 -1.3150
  355MOL0     H47892   0.622   9.307   7.522  0.5067 -0.5253 -0.0009
  355MOL0     H47893   0.789   9.129   7.476 -2.2897 -0.3070  0.4028
  355MOL0     H47894   0.793   9.169   7.307  1.1822 -3.2264  1.4057
  355MOL0     H47895   0.845   9.422   7.434 -0.9768  0.3232 -0.6947
  355MOL0     H47896   0.967   9.305   7.410  0.6342  2.3049  0.9055
  355MOL0     H47897   0.813   9.350   7.677 -0.5508 -1.3368  0.5650
  355MOL0     H47898   0.916   9.206   7.660  0.8773 -0.7605 -1.2525
  355MOL0     H47899   1.013   9.478   7.617  1.8098  0.0732 -1.0857
  355MOL0     H47900   1.111   9.336   7.607  1.2048 -1.2596  2.5412
  355MOL0     H47901   0.973   9.408   7.878  0.9919  2.0038  2.2587
  355MOL0     H47902   1.108   9.295   7.851 -3.8313 -2.3801 -0.4525
  355MOL0     H47903   1.102   9.595   7.853  0.0547 -0.7252  1.1370
  355MOL0     H47904   1.224   9.510   7.746  1.6830 -4.7241 -0.5123
  355MOL0     H47905   1.324   9.405   7.927 -1.1719 -0.7949 -0.7756
  355MOL0     H47906   1.195   9.461   8.039 -0.6066  1.8610  0.3612
  355MOL0     H47907   0.416   9.394   7.460 -1.8355  0.1631  0.1691
  355MOL0     H47908   0.171   9.431   7.503 -1.5061 -0.0995 -3.1080
  355MOL0     H47909  -0.259   9.471   7.332 -0.9944 -0.1349 -0.4942
  355MOL0     H47910  -0.486   9.542   7.401 -1.0817 -1.4057  0.4160
  355MOL0     H47911   0.729  10.171   7.844  0.6440 -3.2014 -2.1579
  355MOL0     H47912   0.955  10.262   7.817 -1.0517  1.0067 -0.0784
  355MOL0     H47913   1.255  10.475   7.547 -0.9347 -1.6753  2.4152
  355MOL0     H47914   1.469  10.603   7.502 -0.5318  0.7516 -0.7281
  355MOL0     H47915   1.560  10.935   7.813  1.1246 -1.2500  1.3707
  355MOL0     H47916   1.627  10.789   7.875  3.5602  2.7836  2.9014
  355MOL0     H47917   1.828  10.832   7.713 -1.4290  0.1148  0.3261
  355MOL0     H47918   1.810  10.945   7.843 -2.4500  2.7127  0.1840
  355MOL0     H47919   1.691  11.107   7.710 -0.4772  1.4394 -2.5931
  355MOL0     H47920   1.686  10.999   7.572 -0.4676  1.8766 -0.6494
  355MOL0     H47921   1.865  11.150   7.535 -0.9325  0.4735  1.0202
  355MOL0     H47922   1.926  10.989   7.556 -0.0849 -0.5395  0.6602
  355MOL0     H47923   2.089  11.216   7.882  0.3566 -0.6502  0.4409
  355MOL0     H47924   1.395  10.807   7.879 -0.9836 -2.1251  0.8959
  355MOL0     H47925   1.201  10.694   7.907  0.9047  1.7243  0.5046
  356MOL0     O47926   9.003   7.833   4.192 -0.0957  0.6154 -0.6470
  356MOL0     C47927   8.949   7.728   4.162 -0.2731  0.1846  0.7331
  356MOL0     O47928   9.013   7.603   4.160 -0.0202  0.8150 -0.6056
  356MOL0     C47929   9.147   7.575   4.194  0.2608  0.7502  0.0921
  356MOL0     C47930   9.183   7.451   4.241 -0.9141 -0.6301 -0.4101
  356MOL0     C47931   9.320   7.417   4.275  0.0836  0.3474  0.1402
  356MOL0     C47932   9.431   7.501   4.254  0.4502 -0.2156 -0.4383
  356MOL0     O47933   9.557   7.484   4.287  0.6811  0.1551 -0.0370
  356MOL0     C47934   9.612   7.355   4.315 -1.1158  0.1321 -0.0456
  356MOL0     C47935   9.583   7.311   4.459  0.4114  1.1209 -0.0860
  356MOL0     C47936   9.652   7.183   4.496  0.0887  0.9703 -0.1454
  356MOL0     C47937   9.599   7.131   4.639 -0.4247 -0.1937 -0.6794
  356MOL0     C47938   9.661   7.002   4.698  0.2395  0.7484 -0.6187
  356MOL0     C47939   9.610   6.878   4.623  0.0364 -0.0580 -0.1346
  356MOL0     C47940   9.655   6.740   4.685 -0.0932  0.5989  0.8347
  356MOL0     C47941   9.802   6.717   4.651 -0.5323 -0.4376 -1.5990
  356MOL0     N47942   9.835   6.578   4.692 -0.5589  0.0676  0.4639
  356MOL0     C47943   9.887   6.535   4.818 -0.1353  0.0101  0.1616
  356MOL0     C47944   9.916   6.406   4.805  0.4585  0.5056  0.4207
  356MOL0     C47945   9.977   6.312   4.903  0.4094  1.3135  0.1665
  356MOL0     C47946   9.870   6.238   4.976  0.1442  0.2380  0.1660
  356MOL0     C47947   9.745   6.317   5.031 -1.1736 -0.1747  0.5133
  356MOL0     C47948   9.780   6.426   5.122 -0.6061 -1.0210  0.0665
  356MOL0     O47949   9.885   6.391   5.214 -0.1881  0.5027  0.1098
  356MOL0     C47950   9.967   6.496   5.259  0.1849  0.5458  0.2998
  356MOL0     C47951   9.909   6.610   5.305 -0.8187 -0.2777  1.3114
  356MOL0     C47952   9.983   6.705   5.371 -0.0432 -0.8765 -0.7876
  356MOL0     C47953   9.911   6.831   5.420  0.3720 -0.5302 -0.8969
  356MOL0     C47954  10.119   6.689   5.372 -0.0667  0.6131 -0.2241
  356MOL0     C47955  10.200   6.789   5.450 -0.5015  0.2114  0.2528
  356MOL0     O47956  10.302   6.843   5.378  0.7156 -0.8190 -0.2122
  356MOL0     C47957  10.413   6.911   5.432  0.0457  0.4950 -0.0801
  356MOL0     C47958  10.392   7.001   5.531  0.3169  0.0910  0.1237
  356MOL0     C47959  10.491   7.091   5.565 -0.3052 -0.2052  0.1445
  356MOL0     C47960  10.624   7.073   5.512  0.0073  0.0171  0.0990
  356MOL0     O47961  10.734   7.146   5.542  0.0008  0.3503  0.1043
  356MOL0     C47962  10.726   7.205   5.669 -0.0694  0.6168  0.8753
  356MOL0     C47963  10.871   7.265   5.692 -0.5089 -0.1754 -0.0852
  356MOL0     C47964  10.886   7.353   5.822  0.1853  0.3940  0.0754
  356MOL0     C47965  10.883   7.250   5.942  0.3626  0.3051 -0.9516
  356MOL0     C47966  10.944   7.304   6.077  0.0505 -0.5392 -0.0087
  356MOL0     C47967  10.948   7.194   6.195 -0.0120  0.2570  0.6117
  356MOL0     C47968  10.809   7.153   6.237 -0.3642  0.6559 -0.0219
  356MOL0     C47969  10.827   7.060   6.366  0.4170 -0.6319 -0.5279
  356MOL0    Cl47970  10.869   7.171   6.508 -0.3388  0.1270 -0.2546
  356MOL0     C47971  10.651   6.966   5.423 -0.8623  0.7386  0.2884
  356MOL0     C47972  10.544   6.895   5.378  0.5302  0.2013  0.1286
  356MOL0     O47973  10.191   6.791   5.573 -0.2835  0.0362  0.3647
  356MOL0     C47974  10.181   6.581   5.313 -1.1255  1.5261 -0.2848
  356MOL0     C47975  10.099   6.484   5.262 -0.2086  0.6522  0.1995
  356MOL0     N47976   9.871   6.372   4.677  0.6321  0.0868  0.1192
  356MOL0     N47977   9.833   6.472   4.610 -0.7259  0.2827 -0.1220
  356MOL0     C47978   9.392   7.621   4.187  0.9786  0.2037 -0.2168
  356MOL0     C47979   9.256   7.648   4.165  0.6262 -0.3147  0.5260
  356MOL0     C47980   8.804   7.731   4.120 -0.1270 -0.3508  0.9432
  356MOL0     C47981   8.741   7.629   4.055  0.1600  1.0844  0.1680
  356MOL0     C47982   8.605   7.626   4.025  0.5499  0.0172  0.4428
  356MOL0     C47983   8.525   7.735   4.064  0.3199 -0.3815  0.7942
  356MOL0     O47984   8.381   7.748   4.065 -0.5051  0.1213 -0.0081
  356MOL0     C47985   8.315   7.620   4.061  0.2981 -0.5285 -0.0787
  356MOL0     C47986   8.173   7.620   4.111  0.2328 -0.0576 -0.2125
  356MOL0     C47987   8.088   7.719   4.021 -0.8344  0.2363 -1.0278
  356MOL0     C47988   7.951   7.735   4.079  0.3333 -0.6419  0.1414
  356MOL0     C47989   7.954   7.821   4.199  0.1157  0.2693 -0.1233
  356MOL0     C47990   7.960   7.880   4.304 -0.2658 -0.7025  0.0487
  356MOL0     C47991   8.597   7.848   4.119 -0.5465  0.2921  0.5653
  356MOL0     C47992   8.730   7.843   4.160 -0.0131  0.1236 -0.1992
  356MOL0     H47993   9.117   7.369   4.266 -2.3071  0.1495 -1.4223
  356MOL0     H47994   9.324   7.317   4.316  0.2671  0.4651  0.4181
  356MOL0     H47995   9.582   7.280   4.242  0.6938  0.1492 -0.8598
  356MOL0     H47996   9.721   7.367   4.310 -1.2796  1.6078 -0.6506
  356MOL0     H47997   9.615   7.391   4.526  1.4312  0.6014  0.0723
  356MOL0     H47998   9.475   7.294   4.451  0.5533 -0.1105  0.4118
  356MOL0     H47999   9.620   7.107   4.424 -0.8148  2.8166 -1.8171
  356MOL0     H48000   9.761   7.186   4.491  0.1297 -1.2860 -2.0986
  356MOL0     H48001   9.622   7.213   4.707  0.8701 -1.5017  0.5169
  356MOL0     H48002   9.489   7.128   4.640 -0.6630  3.3445  1.3022
  356MOL0     H48003   9.770   7.002   4.685  0.1532 -1.4513 -1.8490
  356MOL0     H48004   9.649   6.999   4.807 -3.0372  1.5269 -0.8588
  356MOL0     H48005   9.501   6.873   4.614  0.1112  0.6249 -1.5581
  356MOL0     H48006   9.661   6.869   4.527  0.3799 -1.8170  0.1677
  356MOL0     H48007   9.632   6.730   4.791  1.8954  1.5479  1.4131
  356MOL0     H48008   9.601   6.655   4.643  0.5672 -0.2541  1.6693
  356MOL0     H48009   9.867   6.783   4.710 -1.5914 -1.6155  1.0487
  356MOL0     H48010   9.835   6.732   4.548  1.1221 -1.8845 -1.3188
  356MOL0     H48011   9.895   6.598   4.906 -4.8354 -0.5254  1.2543
  356MOL0     H48012  10.036   6.229   4.864  1.1403  1.3681  1.1178
  356MOL0     H48013  10.044   6.374   4.963 -0.7533  0.8402  2.0182
  356MOL0     H48014   9.906   6.184   5.064  0.1574  2.2981  1.5035
  356MOL0     H48015   9.827   6.156   4.918 -0.7585  0.7630  0.0831
  356MOL0     H48016   9.683   6.240   5.077  1.3140 -2.4236  0.3794
  356MOL0     H48017   9.689   6.350   4.943  1.0551  0.1966 -0.8616
  356MOL0     H48018   9.695   6.467   5.177 -1.4925 -0.8734 -1.3606
  356MOL0     H48019   9.807   6.513   5.062 -0.7511 -2.0803 -1.5969
  356MOL0     H48020   9.803   6.628   5.294 -0.3709  1.7227 -0.2827
  356MOL0     H48021   9.886   6.894   5.334 -2.8246 -1.0123 -0.4153
  356MOL0     H48022   9.816   6.806   5.468  0.2633 -0.9473 -1.3188
  356MOL0     H48023   9.983   6.896   5.470 -0.0879 -0.3665 -0.4395
  356MOL0     H48024  10.292   7.007   5.574 -0.1011 -2.1088 -0.3723
  356MOL0     H48025  10.455   7.160   5.641  1.1200  0.7543 -0.0169
  356MOL0     H48026  10.645   7.277   5.657 -1.8898 -1.3037  1.1450
  356MOL0     H48027  10.695   7.140   5.751 -1.0424 -0.0078  0.0310
  356MOL0     H48028  10.939   7.179   5.691 -1.7689 -1.2119 -1.8727
  356MOL0     H48029  10.898   7.329   5.608 -0.0347  0.0491  0.2308
  356MOL0     H48030  10.819   7.439   5.821  1.1886  1.2207  1.0818
  356MOL0     H48031  10.988   7.391   5.827  1.7783 -3.1463 -1.5140
  356MOL0     H48032  10.776   7.243   5.965 -0.4109  2.5305 -3.3614
  356MOL0     H48033  10.925   7.153   5.914  0.8427 -0.1903  1.3030
  356MOL0     H48034  10.896   7.399   6.103  2.5372  0.5166  1.1168
  356MOL0     H48035  11.047   7.330   6.049 -1.4895  1.8492 -4.2427
  356MOL0     H48036  11.001   7.107   6.155 -0.6302  0.0531  0.2277
  356MOL0     H48037  11.006   7.236   6.278  1.4378 -0.3674 -0.0510
  356MOL0     H48038  10.760   7.097   6.156  1.7278  1.7816 -2.1839
  356MOL0     H48039  10.751   7.242   6.262 -0.1702  0.9249 -0.5206
  356MOL0     H48040  10.911   6.991   6.356 -1.9490 -3.7187 -0.5934
  356MOL0     H48041  10.738   7.004   6.395  2.9200 -4.4806  0.5086
  356MOL0     H48042  10.753   6.943   5.394 -0.4176 -0.1539  2.3696
  356MOL0     H48043  10.570   6.822   5.303  2.3250  2.2023 -1.3259
  356MOL0     H48044  10.289   6.571   5.310 -1.3317 -2.8275  0.5616
  356MOL0     H48045  10.152   6.393   5.234 -2.8272 -0.9283 -0.0108
  356MOL0     H48046   9.477   7.685   4.166  2.3177 -1.5977 -0.5810
  356MOL0     H48047   9.227   7.743   4.121 -3.3699 -0.7090  1.8986
  356MOL0     H48048   8.812   7.553   4.024  0.7304  0.6804  2.2857
  356MOL0     H48049   8.563   7.539   3.976  2.1857  0.1276 -1.2804
  356MOL0     H48050   8.325   7.582   3.959  0.9618 -1.5345  0.3455
  356MOL0     H48051   8.367   7.550   4.127  0.8198  0.9159  1.1069
  356MOL0     H48052   8.178   7.646   4.217  0.7877 -2.5717  0.4269
  356MOL0     H48053   8.117   7.527   4.099 -4.3062  2.2024  1.1846
  356MOL0     H48054   8.095   7.685   3.917 -0.3768  1.3324 -1.3738
  356MOL0     H48055   8.135   7.817   4.028  0.0255 -0.2249 -0.1022
  356MOL0     H48056   7.902   7.638   4.091  2.0365 -1.6728 -0.7582
  356MOL0     H48057   7.888   7.787   4.007  1.4400 -1.8174 -1.7813
  356MOL0     H48058   7.976   7.945   4.388  1.6560 -0.7438 -0.2360
  356MOL0     H48059   8.551   7.934   4.166  0.6159  1.0542  0.3286
  356MOL0     H48060   8.778   7.928   4.208  2.8029 -2.1314  1.3137
  357MOL0     O48061   3.888   4.409   4.707  0.2914  0.2022 -0.9728
  357MOL0     C48062   3.868   4.503   4.787  1.0388  0.6369  0.8075
  357MOL0     O48063   3.760   4.517   4.857  0.6263 -0.7382  0.1685
  357MOL0     C48064   3.656   4.422   4.849  1.2038 -0.5839  0.5620
  357MOL0     C48065   3.525   4.462   4.810 -0.6743 -0.5843  0.4402
  357MOL0     C48066   3.427   4.365   4.787  0.0309  0.4274  0.3570
  357MOL0     C48067   3.446   4.225   4.806  0.4465  0.2714 -0.7710
  357MOL0     O48068   3.354   4.132   4.780  0.5066  0.7053 -0.0890
  357MOL0     C48069   3.309   4.043   4.885  0.8789 -0.0154 -0.0224
  357MOL0     C48070   3.210   4.114   4.981  1.1758 -0.0834 -0.0517
  357MOL0     C48071   3.066   4.086   4.934 -0.6128 -0.1818 -0.3684
  357MOL0     C48072   2.968   4.152   5.032  0.3065  1.0964 -0.2595
  357MOL0     C48073   2.821   4.095   5.033  0.9260 -0.4041  0.7575
  357MOL0     C48074   2.738   4.136   4.901 -0.8840  0.3126  0.2829
  357MOL0     C48075   2.610   4.059   4.896  0.2849  0.3685 -0.0482
  357MOL0     C48076   2.487   4.130   4.970 -0.2025  0.2909  0.4178
  357MOL0     N48077   2.416   4.216   4.866  0.3559  0.8589 -0.1224
  357MOL0     C48078   2.301   4.174   4.810  0.0689  0.1255 -0.9892
  357MOL0     C48079   2.256   4.285   4.743  0.1557  0.4464  0.2971
  357MOL0     C48080   2.120   4.298   4.687 -0.2846 -0.2017 -0.1635
  357MOL0     C48081   2.072   4.170   4.616  0.5314  0.6294  0.2942
  357MOL0     C48082   2.113   4.130   4.471 -0.5430  0.2309  0.4084
  357MOL0     C48083   2.103   3.985   4.430  0.0798 -0.9052  0.2728
  357MOL0     O48084   2.176   3.957   4.307 -0.0375  0.5887 -0.1003
  357MOL0     C48085   2.119   3.974   4.183  0.1350 -0.0996  1.2874
  357MOL0     C48086   1.995   4.042   4.164 -0.7690 -0.3517  0.1258
  357MOL0     C48087   1.941   4.069   4.033  0.4632 -0.0689  0.3182
  357MOL0     C48088   1.809   4.138   4.033 -0.5122  0.2511 -0.5818
  357MOL0     C48089   2.023   4.040   3.921 -0.2025 -0.7536 -0.0297
  357MOL0     C48090   1.973   4.063   3.775  0.2651  0.3806 -0.2090
  357MOL0     O48091   2.057   3.989   3.681  0.0438 -1.0247  0.0133
  357MOL0     C48092   2.028   3.989   3.544  0.3838 -0.4148  0.0314
  357MOL0     C48093   2.064   3.870   3.468  0.6539  0.0553  0.2001
  357MOL0     C48094   2.060   3.879   3.333  0.1713 -0.0288 -0.0410
  357MOL0     C48095   2.019   3.995   3.261 -0.5103  0.1387  0.8118
  357MOL0     O48096   2.032   3.992   3.124  0.5346 -0.5636 -0.8049
  357MOL0     C48097   2.166   4.025   3.089 -0.2313  0.1115  0.0798
  357MOL0     C48098   2.175   4.066   2.940  0.1880  0.4276  0.8511
  357MOL0     C48099   2.316   4.036   2.880 -0.2463  0.9297  0.2657
  357MOL0     C48100   2.435   4.114   2.929 -1.0280  0.0811  0.5508
  357MOL0     C48101   2.565   4.046   2.896 -0.0058  1.0346  0.3881
  357MOL0     C48102   2.596   4.051   2.749 -0.7167 -1.1242 -0.0394
  357MOL0     C48103   2.721   3.974   2.708  0.1488 -0.2456  0.1841
  357MOL0     C48104   2.805   4.007   2.574 -0.6130 -0.0067  0.0969
  357MOL0    Cl48105   2.699   3.990   2.433  0.2245  0.2968  0.1221
  357MOL0     C48106   1.970   4.105   3.329 -0.4157  0.2110 -1.1016
  357MOL0     C48107   1.981   4.105   3.468 -0.0655 -0.1259 -0.0362
  357MOL0     O48108   1.869   4.126   3.749 -0.6456 -0.9138 -1.2249
  357MOL0     C48109   2.138   3.960   3.943 -1.3489 -0.3369 -0.5409
  357MOL0     C48110   2.187   3.924   4.070 -0.2556 -0.0654  0.9335
  357MOL0     N48111   2.343   4.393   4.769  0.0684  0.4960  0.2534
  357MOL0     N48112   2.446   4.346   4.834 -0.0179  0.1639  0.3535
  357MOL0     C48113   3.579   4.192   4.837  0.7137 -0.1454  0.3885
  357MOL0     C48114   3.679   4.291   4.865  0.2430 -0.5408 -0.3319
  357MOL0     C48115   3.975   4.599   4.821 -1.0353  0.1531 -0.6923
  357MOL0     C48116   4.095   4.598   4.745 -0.1295 -0.4843 -0.3294
  357MOL0     C48117   4.212   4.676   4.776 -0.2647  0.0450  0.4316
  357MOL0     C48118   4.209   4.768   4.881 -0.0921  0.3872 -0.6359
  357MOL0     O48119   4.323   4.838   4.922 -0.1239 -0.5334  0.3356
  357MOL0     C48120   4.406   4.762   5.006  0.2906  0.4370  0.2440
  357MOL0     C48121   4.508   4.853   5.077 -0.2430 -0.0387 -0.0164
  357MOL0     C48122   4.578   4.948   4.976 -0.2824 -0.5629 -1.1190
  357MOL0     C48123   4.699   5.020   5.051  0.4658 -0.2288  1.3805
  357MOL0     C48124   4.770   5.104   4.953  0.4302 -0.2602 -0.5816
  357MOL0     C48125   4.835   5.178   4.873  0.2208  0.3045 -0.4862
  357MOL0     C48126   4.089   4.779   4.951  0.3129 -0.1269 -0.5760
  357MOL0     C48127   3.974   4.699   4.923  1.1037  0.1737 -0.4029
  357MOL0     H48128   3.511   4.568   4.794  3.4208 -0.0910 -1.0302
  357MOL0     H48129   3.326   4.398   4.764 -0.4681 -2.1894 -1.6533
  357MOL0     H48130   3.266   3.952   4.843 -0.7150  1.1844 -1.1259
  357MOL0     H48131   3.390   4.004   4.947 -0.2302 -0.3379  1.2836
  357MOL0     H48132   3.223   4.081   5.084 -1.1389 -0.8595  0.0310
  357MOL0     H48133   3.230   4.222   4.981 -1.5902  0.5149 -0.7721
  357MOL0     H48134   3.050   4.108   4.828 -2.3818  0.3325 -0.0198
  357MOL0     H48135   3.052   3.977   4.937  1.1211 -0.4118  1.3216
  357MOL0     H48136   3.013   4.127   5.129  2.0076 -5.4845 -2.2127
  357MOL0     H48137   2.953   4.258   5.012 -3.5860  0.8215  0.3908
  357MOL0     H48138   2.836   3.987   5.043  1.8336 -0.3216  0.4491
  357MOL0     H48139   2.774   4.114   5.130  1.4085 -0.6422  1.0445
  357MOL0     H48140   2.723   4.244   4.904  1.2587  0.6660 -0.2516
  357MOL0     H48141   2.793   4.111   4.809 -0.4247 -0.7247  0.8305
  357MOL0     H48142   2.579   4.053   4.791  1.5503  3.5450 -0.7380
  357MOL0     H48143   2.613   3.953   4.919 -1.3688 -0.1890 -2.0623
  357MOL0     H48144   2.511   4.193   5.056 -4.1470 -0.7647  2.5457
  357MOL0     H48145   2.418   4.059   5.015  0.3757 -1.5011 -1.3728
  357MOL0     H48146   2.255   4.076   4.823  0.2281  0.0273 -1.1648
  357MOL0     H48147   2.048   4.308   4.768  0.2388 -3.1866  0.7992
  357MOL0     H48148   2.120   4.371   4.605  0.8689 -0.7323 -0.6620
  357MOL0     H48149   1.964   4.180   4.605  0.2959  0.0746  1.8679
  357MOL0     H48150   2.079   4.082   4.681  3.2031  1.7355  1.7014
  357MOL0     H48151   2.216   4.163   4.458 -0.0177 -1.4057  0.1885
  357MOL0     H48152   2.061   4.192   4.398  1.4244  0.6930 -0.6663
  357MOL0     H48153   1.996   3.966   4.420  0.1469 -0.3015 -2.2192
  357MOL0     H48154   2.154   3.919   4.500 -2.5068 -2.8721  0.4663
  357MOL0     H48155   1.936   4.061   4.253  0.7652  3.4145  0.5042
  357MOL0     H48156   1.751   4.083   3.959  1.0549 -2.0213 -0.2245
  357MOL0     H48157   1.746   4.122   4.121 -2.2355 -0.6400 -1.9212
  357MOL0     H48158   1.823   4.244   4.007  1.3703 -0.3381 -2.2215
  357MOL0     H48159   2.090   3.787   3.533 -0.5963 -1.1143 -0.7219
  357MOL0     H48160   2.096   3.788   3.285  2.9437 -0.8675  3.2388
  357MOL0     H48161   2.207   4.103   3.154 -2.5019  2.2107 -0.8246
  357MOL0     H48162   2.222   3.932   3.099  0.6136  0.8982  4.4893
  357MOL0     H48163   2.114   4.000   2.878  1.5828  1.1138 -1.3946
  357MOL0     H48164   2.150   4.172   2.925  2.1909  0.7176 -0.9034
  357MOL0     H48165   2.315   4.029   2.770 -2.2872  1.3626  0.2223
  357MOL0     H48166   2.329   3.934   2.918 -1.4506  0.9849  0.8748
  357MOL0     H48167   2.435   4.211   2.878  0.6970 -0.0624  0.2377
  357MOL0     H48168   2.433   4.141   3.036 -0.6476  2.5171  0.0059
  357MOL0     H48169   2.571   3.941   2.924  1.5297  1.2555  0.9899
  357MOL0     H48170   2.643   4.085   2.963  0.2316 -1.3340  1.5695
  357MOL0     H48171   2.517   4.010   2.686 -0.2563 -1.4019 -0.4433
  357MOL0     H48172   2.606   4.155   2.719 -1.9315 -1.1999 -0.7674
  357MOL0     H48173   2.681   3.873   2.692 -0.5775 -0.0265  0.5312
  357MOL0     H48174   2.793   3.970   2.790  2.9009  1.6922 -1.9656
  357MOL0     H48175   2.890   3.938   2.571 -1.0438 -0.5953 -4.0005
  357MOL0     H48176   2.840   4.110   2.563 -1.0710  0.0249 -1.2524
  357MOL0     H48177   1.934   4.194   3.278 -0.0155  0.9728 -0.0954
  357MOL0     H48178   1.950   4.197   3.516 -0.1810  0.9405 -2.0612
  357MOL0     H48179   2.205   3.925   3.865  1.6858  2.5438  0.4956
  357MOL0     H48180   2.284   3.879   4.090 -0.2696 -0.4070  0.2556
  357MOL0     H48181   3.606   4.090   4.862  0.1005 -0.1544  1.0744
  357MOL0     H48182   3.776   4.248   4.887 -0.5820 -3.8732 -2.5033
  357MOL0     H48183   4.100   4.530   4.660 -1.0748 -0.2976 -0.5466
  357MOL0     H48184   4.307   4.656   4.728 -0.0133  0.0909  0.9032
  357MOL0     H48185   4.350   4.696   5.073 -2.6635 -2.3133 -4.2984
  357MOL0     H48186   4.462   4.702   4.933 -0.8630  0.0613 -0.3522
  357MOL0     H48187   4.579   4.793   5.135  1.2024  1.9257  0.3655
  357MOL0     H48188   4.456   4.915   5.150  0.3600  0.7930 -0.2852
  357MOL0     H48189   4.509   5.026   4.940 -0.3739 -1.8312 -3.9457
  357MOL0     H48190   4.619   4.886   4.896  0.5014  0.2939 -1.3905
  357MOL0     H48191   4.772   4.946   5.085  0.7193 -0.2921  0.7097
  357MOL0     H48192   4.667   5.077   5.138 -1.0733  1.1846 -0.0177
  357MOL0     H48193   4.880   5.261   4.823 -1.1539  1.4096  0.0450
  357MOL0     H48194   4.075   4.856   5.026 -0.1999 -1.1554  0.3978
  357MOL0     H48195   3.892   4.698   4.994  0.0580 -1.5715 -1.5564
  358MOL0     O48196   3.301   2.576   4.044  0.1906 -0.6912 -0.3775
  358MOL0     C48197   3.373   2.558   4.143  0.8655 -0.4775  0.7833
  358MOL0     O48198   3.334   2.531   4.260  0.0119 -0.2903 -0.2714
  358MOL0     C48199   3.200   2.521   4.296  0.5595 -0.4788  0.3985
  358MOL0     C48200   3.142   2.595   4.400 -1.0700 -0.3369 -0.3066
  358MOL0     C48201   3.007   2.581   4.427 -0.2179  0.2069 -0.2453
  358MOL0     C48202   2.920   2.503   4.347  0.7207 -0.4161 -0.4921
  358MOL0     O48203   2.788   2.503   4.376  0.2065 -0.1205 -0.1657
  358MOL0     C48204   2.710   2.569   4.273 -1.2064  0.8442  0.7121
  358MOL0     C48205   2.571   2.624   4.310  0.2154 -0.0963  0.2705
  358MOL0     C48206   2.452   2.529   4.327 -0.8709  0.6592  0.5182
  358MOL0     C48207   2.448   2.455   4.462  0.6369 -0.1936 -0.1629
  358MOL0     C48208   2.322   2.381   4.473 -0.0470  0.1398 -0.2973
  358MOL0     C48209   2.309   2.256   4.381 -0.1027 -0.7740 -0.6799
  358MOL0     C48210   2.169   2.202   4.369 -0.0927  0.8726 -1.3651
  358MOL0     C48211   2.162   2.087   4.478  0.0047  0.1124  0.0560
  358MOL0     N48212   2.046   2.011   4.453  0.0590  0.3941  0.3076
  358MOL0     C48213   2.042   1.922   4.346  0.3076 -0.5708  0.0746
  358MOL0     C48214   1.908   1.893   4.338 -0.2146  0.0380 -0.3338
  358MOL0     C48215   1.826   1.794   4.261 -0.8263  0.2918 -0.5663
  358MOL0     C48216   1.679   1.842   4.213  0.9119 -0.4925 -0.7265
  358MOL0     C48217   1.582   1.743   4.135 -0.2073  0.0877 -0.1768
  358MOL0     C48218   1.612   1.588   4.161  0.0358 -0.4750  0.7833
  358MOL0     O48219   1.508   1.506   4.093 -0.6045 -0.4463 -0.2208
  358MOL0     C48220   1.382   1.492   4.140  0.0467 -0.2828  0.0817
  358MOL0     C48221   1.332   1.556   4.252 -0.8725  0.0635 -0.1235
  358MOL0     C48222   1.204   1.531   4.307  0.5452 -0.0087  1.1891
  358MOL0     C48223   1.182   1.586   4.450  0.0743 -0.1155 -0.6271
  358MOL0     C48224   1.117   1.440   4.242 -0.3273  0.4317  0.2827
  358MOL0     C48225   0.984   1.414   4.291 -0.2742 -0.3984 -1.2254
  358MOL0     O48226   0.886   1.398   4.193  0.0627  0.2987  0.3764
  358MOL0     C48227   0.753   1.411   4.213  1.0651  0.2696  0.9837
  358MOL0     C48228   0.680   1.342   4.313 -0.7900 -0.0951  0.2676
  358MOL0     C48229   0.544   1.338   4.315  0.3873 -0.3084  0.4503
  358MOL0     C48230   0.465   1.414   4.231 -0.6531 -0.5325 -0.3455
  358MOL0     O48231   0.329   1.422   4.222 -0.3753  0.2617 -0.4901
  358MOL0     C48232   0.258   1.313   4.290 -0.9538 -0.9634 -0.3004
  358MOL0     C48233   0.115   1.342   4.320 -0.3927  0.4652 -0.4406
  358MOL0     C48234   0.049   1.210   4.346  0.0941  1.0399  0.9873
  358MOL0     C48235   0.021   1.128   4.214 -0.2432  0.2016  0.1054
  358MOL0     C48236  -0.072   1.010   4.231 -0.2457 -0.1847 -0.0622
  358MOL0     C48237  -0.217   1.043   4.269  0.1149  0.0063  0.2993
  358MOL0     C48238  -0.285   1.155   4.194 -0.7648 -0.6483 -0.2715
  358MOL0     C48239  -0.431   1.161   4.212 -0.1629  0.3774 -0.2916
  358MOL0    Cl48240  -0.513   1.007   4.183 -0.0442 -0.0545  0.1698
  358MOL0     C48241   0.528   1.503   4.141 -0.3204 -0.2923 -0.0828
  358MOL0     C48242   0.673   1.506   4.139 -0.2312 -0.1769 -0.3060
  358MOL0     O48243   0.971   1.376   4.412 -0.2853 -0.4801  0.4911
  358MOL0     C48244   1.166   1.378   4.124  0.5229  0.1693 -0.3161
  358MOL0     C48245   1.292   1.405   4.080 -0.2995  0.5717 -0.6011
  358MOL0     N48246   1.845   1.964   4.426 -0.0398 -0.5693 -0.2905
  358MOL0     N48247   1.921   2.039   4.494  0.2143 -0.4051 -0.4141
  358MOL0     C48248   2.974   2.420   4.252 -0.4365  0.9400 -0.5134
  358MOL0     C48249   3.112   2.436   4.226 -0.5194  1.1574  0.3393
  358MOL0     C48250   3.526   2.557   4.125 -0.1630 -0.0128 -0.8593
  358MOL0     C48251   3.576   2.574   3.991 -0.1177  0.5366  0.8314
  358MOL0     C48252   3.711   2.569   3.959 -0.1387 -0.6810 -0.2256
  358MOL0     C48253   3.810   2.532   4.062  0.8202  0.0718  0.3614
  358MOL0     O48254   3.944   2.522   4.013  0.4492 -0.5121  0.4739
  358MOL0     C48255   4.054   2.500   4.100 -0.8390  0.5626 -0.0417
  358MOL0     C48256   4.105   2.356   4.086 -0.3131 -0.1181 -0.2322
  358MOL0     C48257   4.203   2.307   4.202  0.6711 -0.3079 -0.0769
  358MOL0     C48258   4.276   2.174   4.166 -0.8472 -0.6642 -0.3684
  358MOL0     C48259   4.384   2.165   4.266 -0.2471  0.3118 -0.6588
  358MOL0     C48260   4.460   2.171   4.353 -0.8710  1.0665 -0.5447
  358MOL0     C48261   3.755   2.498   4.189  0.1022  0.2627 -0.2954
  358MOL0     C48262   3.620   2.513   4.222  0.0441  0.0467  0.7871
  358MOL0     H48263   3.196   2.672   4.453 -2.6171 -0.4952  1.6007
  358MOL0     H48264   2.980   2.639   4.514  0.3865 -2.9952  2.2719
  358MOL0     H48265   2.760   2.647   4.215 -4.2024  1.4218 -1.3517
  358MOL0     H48266   2.690   2.491   4.200 -0.3293  2.0221 -0.8399
  358MOL0     H48267   2.570   2.681   4.403 -3.0314 -1.2282  1.0849
  358MOL0     H48268   2.543   2.698   4.235 -1.5750 -2.3298 -1.3902
  358MOL0     H48269   2.356   2.576   4.303 -2.4641 -1.7830  1.7917
  358MOL0     H48270   2.473   2.459   4.245  0.3105  2.8317 -1.1632
  358MOL0     H48271   2.537   2.392   4.467  1.8232  1.3041 -1.3924
  358MOL0     H48272   2.449   2.520   4.550 -0.8891 -2.1564  1.4054
  358MOL0     H48273   2.314   2.351   4.578 -0.0332  0.7537 -0.1131
  358MOL0     H48274   2.239   2.451   4.462 -1.7627 -1.4858  1.4742
  358MOL0     H48275   2.343   2.272   4.278  0.9309  1.1353 -0.0863
  358MOL0     H48276   2.378   2.179   4.414  1.7442  1.2683  0.4635
  358MOL0     H48277   2.093   2.276   4.397 -0.1487  0.2262  0.3336
  358MOL0     H48278   2.140   2.163   4.271  1.1656  0.8034 -1.7254
  358MOL0     H48279   2.155   2.127   4.580 -1.3858  0.1215 -0.0280
  358MOL0     H48280   2.251   2.024   4.475 -1.2129 -1.6405 -1.0414
  358MOL0     H48281   2.117   1.884   4.278  1.0948 -0.0124  0.6147
  358MOL0     H48282   1.881   1.754   4.175 -2.1750 -0.2320 -1.2103
  358MOL0     H48283   1.819   1.709   4.329  3.1094  0.9563  0.9541
  358MOL0     H48284   1.696   1.930   4.149  2.4859 -0.5811 -0.4675
  358MOL0     H48285   1.609   1.856   4.296 -3.2814 -3.9111 -3.2460
  358MOL0     H48286   1.598   1.774   4.032 -2.1750  3.7175  0.4562
  358MOL0     H48287   1.479   1.778   4.150 -0.9476 -1.6744 -0.8897
  358MOL0     H48288   1.625   1.570   4.268  4.5754  1.6769  0.8174
  358MOL0     H48289   1.710   1.567   4.118  0.9894 -0.4854  2.8581
  358MOL0     H48290   1.396   1.623   4.308  1.4056  0.1366 -2.6299
  358MOL0     H48291   1.079   1.598   4.484  1.1983 -0.3499  3.3740
  358MOL0     H48292   1.227   1.510   4.515  1.3072  2.8411  2.2601
  358MOL0     H48293   1.240   1.679   4.455  0.7289 -0.5779  1.9908
  358MOL0     H48294   0.727   1.271   4.381 -0.8864  3.0118  3.9302
  358MOL0     H48295   0.489   1.287   4.393 -2.4930  1.0441 -0.5687
  358MOL0     H48296   0.263   1.227   4.222  2.4145 -0.8934 -0.3231
  358MOL0     H48297   0.293   1.295   4.392  0.3203  0.6538 -0.4112
  358MOL0     H48298   0.105   1.407   4.407  4.3310  0.3296  0.5117
  358MOL0     H48299   0.078   1.389   4.228 -1.8540  0.2023  0.0003
  358MOL0     H48300  -0.054   1.233   4.375 -2.1259 -2.2931 -3.0528
  358MOL0     H48301   0.097   1.155   4.428  1.8679  2.0106  0.6476
  358MOL0     H48302  -0.023   1.192   4.136 -1.4044  1.1502  1.4839
  358MOL0     H48303   0.116   1.091   4.175 -1.2120  0.0564 -2.3194
  358MOL0     H48304  -0.018   0.937   4.292 -2.4846 -0.8912  1.1857
  358MOL0     H48305  -0.077   0.970   4.129 -3.8469 -1.4297  0.4531
  358MOL0     H48306  -0.281   0.955   4.256 -0.1978  0.1595  0.8149
  358MOL0     H48307  -0.219   1.073   4.374 -2.0451 -0.8611  0.5509
  358MOL0     H48308  -0.264   1.138   4.087 -1.9151  2.2016 -1.0255
  358MOL0     H48309  -0.238   1.246   4.230  2.1162 -2.2902  0.4631
  358MOL0     H48310  -0.474   1.235   4.144  0.4687  0.6015 -0.4473
  358MOL0     H48311  -0.458   1.189   4.314 -0.9394  2.6114 -1.0554
  358MOL0     H48312   0.477   1.578   4.082 -0.1810 -0.2568 -0.1587
  358MOL0     H48313   0.718   1.559   4.055  1.0107 -0.6557  0.0365
  358MOL0     H48314   1.106   1.308   4.067  3.6634 -1.2321 -2.1606
  358MOL0     H48315   1.333   1.340   4.003  2.1752  0.7192  0.4894
  358MOL0     H48316   2.913   2.348   4.197 -1.0900  0.4383  0.8378
  358MOL0     H48317   3.160   2.364   4.161  2.3087  0.9533  2.4517
  358MOL0     H48318   3.502   2.583   3.912 -1.7138 -1.3992  1.9843
  358MOL0     H48319   3.753   2.598   3.864 -2.0197  3.3271 -0.0107
  358MOL0     H48320   4.135   2.569   4.076  2.5650 -2.4209  1.8960
  358MOL0     H48321   4.028   2.512   4.206  1.3451  3.1836  0.3047
  358MOL0     H48322   4.143   2.337   3.985 -0.6773 -0.7601 -0.2521
  358MOL0     H48323   4.013   2.298   4.089  0.4454 -1.4091 -0.9940
  358MOL0     H48324   4.142   2.295   4.292 -2.0812  2.2378 -1.4136
  358MOL0     H48325   4.275   2.388   4.219 -0.6169  0.3966  2.4611
  358MOL0     H48326   4.312   2.181   4.063  0.9307 -2.7528  0.0620
  358MOL0     H48327   4.207   2.089   4.168 -0.6804 -0.8231 -1.1552
  358MOL0     H48328   4.526   2.171   4.438 -0.3939 -0.4464 -0.8746
  358MOL0     H48329   3.821   2.457   4.264 -0.4040  0.8456  0.4786
  358MOL0     H48330   3.586   2.490   4.322 -4.2709 -0.0325 -0.5168
  359MOL0     O48331   3.666   7.543   0.150 -0.1568 -0.0273 -0.1040
  359MOL0     C48332   3.627   7.596   0.048 -0.3271 -0.2187 -0.2160
  359MOL0     O48333   3.539   7.544  -0.037  0.2395 -0.1656 -0.1272
  359MOL0     C48334   3.486   7.409  -0.028  0.4268 -0.8983 -0.1863
  359MOL0     C48335   3.347   7.395  -0.066  0.1077  0.3474 -0.5343
  359MOL0     C48336   3.312   7.257  -0.075  0.6134 -1.0789  0.2302
  359MOL0     C48337   3.388   7.148  -0.050  0.3064  0.1431  0.5075
  359MOL0     O48338   3.323   7.030  -0.063 -0.3502  0.4966  0.1616
  359MOL0     C48339   3.376   6.918   0.013 -0.1694  0.8526 -0.4946
  359MOL0     C48340   3.277   6.802   0.015 -0.1849  0.1407 -0.8551
  359MOL0     C48341   3.248   6.740  -0.122  0.6995  0.0269  0.8945
  359MOL0     C48342   3.150   6.619  -0.101 -0.8690  0.0311  0.3866
  359MOL0     C48343   3.010   6.656  -0.072 -1.2261 -0.0435 -0.2373
  359MOL0     C48344   2.922   6.525  -0.054 -0.4452 -0.1739 -0.3784
  359MOL0     C48345   2.776   6.551  -0.015 -0.5010 -0.9567  0.1226
  359MOL0     C48346   2.717   6.456   0.085 -0.4209 -0.0281  0.9715
  359MOL0     N48347   2.675   6.329   0.024  0.5022 -0.3505  0.2187
  359MOL0     C48348   2.756   6.237  -0.018 -0.5282  0.3655  0.0930
  359MOL0     C48349   2.691   6.121  -0.039 -0.5502  0.1973  0.0646
  359MOL0     C48350   2.751   5.991  -0.086  0.5334  0.9622  0.0661
  359MOL0     C48351   2.639   5.917  -0.162 -0.3426 -0.2000  0.0330
  359MOL0     C48352   2.604   5.963  -0.302  0.1346 -0.0384  0.5081
  359MOL0     C48353   2.695   5.914  -0.418  0.0310 -1.2182  0.4919
  359MOL0     O48354   2.709   6.019  -0.523 -0.6825 -0.4157 -0.0495
  359MOL0     C48355   2.589   6.023  -0.598 -0.9201 -0.4501  0.0861
  359MOL0     C48356   2.542   6.146  -0.624 -0.3095  0.7695 -0.5991
  359MOL0     C48357   2.444   6.167  -0.718 -0.8117  0.3308  0.7413
  359MOL0     C48358   2.423   6.315  -0.760  0.4413  1.0306  0.2773
  359MOL0     C48359   2.386   6.056  -0.778  0.1287  0.8347  0.3508
  359MOL0     C48360   2.275   6.062  -0.870  0.0722  0.3242 -0.5688
  359MOL0     O48361   2.273   5.963  -0.969 -0.5883 -0.2858 -0.0200
  359MOL0     C48362   2.158   5.967  -1.038  0.9896  0.0697  0.8139
  359MOL0     C48363   2.039   5.936  -0.970  0.8026 -0.4692 -0.6934
  359MOL0     C48364   1.913   5.931  -1.050 -0.3414  1.0035  0.3072
  359MOL0     C48365   1.912   5.967  -1.188  0.7005 -0.5136 -0.8740
  359MOL0     O48366   1.812   5.950  -1.281  0.8516  0.4426 -0.7998
  359MOL0     C48367   1.689   5.975  -1.215  0.0083 -0.8063 -0.0544
  359MOL0     C48368   1.585   5.950  -1.321  0.9461 -0.2375  0.2423
  359MOL0     C48369   1.589   6.069  -1.428  0.6746  0.3452  0.4664
  359MOL0     C48370   1.508   6.020  -1.544 -0.3847 -0.4015  0.1484
  359MOL0     C48371   1.538   6.116  -1.665 -0.0935 -0.2498  0.1966
  359MOL0     C48372   1.478   6.071  -1.788  0.2352 -0.4234  0.1363
  359MOL0     C48373   1.328   6.042  -1.791  0.3979  0.0555 -0.4785
  359MOL0     C48374   1.292   5.962  -1.920 -0.4141 -0.4953 -0.7098
  359MOL0    Cl48375   1.288   5.787  -1.875 -0.0713  0.0205 -0.0040
  359MOL0     C48376   2.031   6.005  -1.245  0.0368  0.2020  0.3333
  359MOL0     C48377   2.156   5.997  -1.177 -0.8887 -0.4847 -0.6313
  359MOL0     O48378   2.190   6.154  -0.855  0.3250 -0.5053 -0.7004
  359MOL0     C48379   2.440   5.930  -0.758  0.4397 -0.6494  0.1826
  359MOL0     C48380   2.548   5.910  -0.676 -0.5435  0.1685  0.9131
  359MOL0     N48381   2.565   6.156  -0.022 -0.8366 -0.0214 -0.8236
  359MOL0     N48382   2.556   6.277   0.029  0.3174  0.7082  0.9268
  359MOL0     C48383   3.521   7.160  -0.008  0.3102 -0.2952 -0.1733
  359MOL0     C48384   3.563   7.297   0.008 -0.2738  0.6600  1.0197
  359MOL0     C48385   3.700   7.716   0.011 -0.5081  0.2213  0.5204
  359MOL0     C48386   3.717   7.755  -0.121  1.3863  0.1095  0.3074
  359MOL0     C48387   3.775   7.877  -0.154 -0.8910 -0.9422  0.3626
  359MOL0     C48388   3.826   7.960  -0.060 -0.2033  0.0245 -0.6065
  359MOL0     O48389   3.905   8.077  -0.079  0.3674 -0.5135  0.0540
  359MOL0     C48390   3.895   8.162  -0.196  0.4467  0.8678 -0.3100
  359MOL0     C48391   4.012   8.259  -0.206 -0.4958  0.9504  0.1215
  359MOL0     C48392   4.002   8.365  -0.312  0.2016  0.3547 -0.5043
  359MOL0     C48393   3.931   8.491  -0.271  0.1731 -0.4679  0.0035
  359MOL0     C48394   3.927   8.596  -0.365  0.0338 -0.8852 -0.3157
  359MOL0     C48395   3.928   8.666  -0.460  0.3537 -0.4056 -0.0535
  359MOL0     C48396   3.823   7.918   0.069 -0.0457  0.2064 -0.1449
  359MOL0     C48397   3.750   7.804   0.108 -0.8616  0.8830 -0.7116
  359MOL0     H48398   3.266   7.467  -0.072 -0.2094 -0.0238 -0.8629
  359MOL0     H48399   3.207   7.230  -0.083  0.3907 -0.5300  1.2102
  359MOL0     H48400   3.467   6.879  -0.033 -1.6487 -1.7038 -1.4443
  359MOL0     H48401   3.416   6.948   0.110  0.4816 -2.1786  0.2721
  359MOL0     H48402   3.322   6.725   0.079  1.3977 -0.9437 -3.1332
  359MOL0     H48403   3.190   6.839   0.070  0.4154  2.0725 -1.1048
  359MOL0     H48404   3.183   6.809  -0.176 -2.8217 -2.1020  2.0440
  359MOL0     H48405   3.339   6.706  -0.172 -0.4872 -0.7914 -0.8190
  359MOL0     H48406   3.148   6.557  -0.192 -1.5476 -2.5775  2.0839
  359MOL0     H48407   3.200   6.549  -0.033 -0.3816 -0.2324 -0.2213
  359MOL0     H48408   2.997   6.719   0.017  0.1338  1.4791 -1.0793
  359MOL0     H48409   2.969   6.727  -0.144  0.3829  3.0865  1.7019
  359MOL0     H48410   2.932   6.468  -0.147  3.2322  0.2020 -0.3656
  359MOL0     H48411   2.974   6.471   0.025  2.1591  1.9130 -0.4989
  359MOL0     H48412   2.780   6.649   0.033 -3.0383 -0.9087  0.3616
  359MOL0     H48413   2.723   6.562  -0.110  0.7206  1.9293 -0.3222
  359MOL0     H48414   2.628   6.498   0.134 -0.1684  1.4502  0.2242
  359MOL0     H48415   2.790   6.437   0.164 -1.7412  0.6427  2.4180
  359MOL0     H48416   2.857   6.243  -0.057 -1.3637 -2.4136 -3.0532
  359MOL0     H48417   2.832   6.010  -0.157  0.4519 -2.0295 -0.9707
  359MOL0     H48418   2.790   5.944   0.005 -1.2381  0.2194  0.4721
  359MOL0     H48419   2.551   5.906  -0.099 -0.4785  2.4908  0.4316
  359MOL0     H48420   2.672   5.818  -0.197 -1.6065 -0.0926 -1.5876
  359MOL0     H48421   2.598   6.072  -0.304 -1.3476 -0.1095  0.0832
  359MOL0     H48422   2.501   5.939  -0.330 -0.7958 -0.4205  3.8140
  359MOL0     H48423   2.656   5.824  -0.466 -0.9598 -0.2730 -0.5607
  359MOL0     H48424   2.794   5.888  -0.381 -0.3969 -3.0088  0.4631
  359MOL0     H48425   2.585   6.228  -0.568  0.8563 -1.7568  2.5327
  359MOL0     H48426   2.400   6.368  -0.667 -2.6283  2.8335 -1.3239
  359MOL0     H48427   2.509   6.365  -0.806 -0.3091  1.5509 -0.5930
  359MOL0     H48428   2.335   6.323  -0.825 -1.9678 -1.1670  2.9929
  359MOL0     H48429   2.039   5.894  -0.870 -3.0481  1.1078  0.1579
  359MOL0     H48430   1.827   5.887  -1.001 -0.2276  1.2465  0.7369
  359MOL0     H48431   1.671   5.894  -1.143 -1.7914 -2.7138 -2.4671
  359MOL0     H48432   1.685   6.075  -1.170  0.2122 -0.6654 -0.3523
  359MOL0     H48433   1.610   5.856  -1.370 -0.4625  0.0088 -1.0231
  359MOL0     H48434   1.487   5.946  -1.273  0.9677  0.5159  0.3659
  359MOL0     H48435   1.689   6.092  -1.467  0.6360 -0.5597 -0.2002
  359MOL0     H48436   1.542   6.160  -1.389  0.2779  1.4648 -2.3853
  359MOL0     H48437   1.537   5.916  -1.566  0.5227  0.3285 -2.5525
  359MOL0     H48438   1.401   6.027  -1.523 -0.4257  2.7824 -0.6010
  359MOL0     H48439   1.646   6.121  -1.683 -0.3993  1.2335 -1.5402
  359MOL0     H48440   1.504   6.214  -1.632  1.8417  0.1946  0.9705
  359MOL0     H48441   1.493   6.154  -1.857  0.4511 -0.9415 -0.4441
  359MOL0     H48442   1.531   5.979  -1.814 -1.0556 -1.8146  2.1014
  359MOL0     H48443   1.262   6.128  -1.782  0.8174  0.5625 -1.8630
  359MOL0     H48444   1.292   5.989  -1.703 -2.8413  0.2581 -1.5539
  359MOL0     H48445   1.363   6.002  -1.993  3.0942  2.0915  3.6172
  359MOL0     H48446   1.190   5.983  -1.955 -1.3021 -3.3327 -0.0830
  359MOL0     H48447   2.032   6.045  -1.346 -0.5072 -1.9675 -0.5965
  359MOL0     H48448   2.245   6.035  -1.226  1.1552 -1.8380  1.8118
  359MOL0     H48449   2.387   5.845  -0.800  0.2723 -0.1784 -0.5773
  359MOL0     H48450   2.578   5.806  -0.678 -0.1037  0.2784 -1.0976
  359MOL0     H48451   3.577   7.068   0.003  0.0127 -0.2584  2.2348
  359MOL0     H48452   3.668   7.310   0.029 -0.3938  1.6168  1.1107
  359MOL0     H48453   3.676   7.700  -0.206  3.0175  1.3033 -1.3395
  359MOL0     H48454   3.777   7.918  -0.255  3.1691  1.9220  1.3367
  359MOL0     H48455   3.891   8.102  -0.288 -4.7871 -0.6936  0.6413
  359MOL0     H48456   3.799   8.212  -0.202  0.1217  0.6095  1.9355
  359MOL0     H48457   4.102   8.201  -0.230 -0.4439  1.1313 -0.1267
  359MOL0     H48458   4.029   8.313  -0.112 -0.6907  0.3699  0.4963
  359MOL0     H48459   3.940   8.325  -0.393 -0.3566 -1.4062  0.7202
  359MOL0     H48460   4.101   8.395  -0.345  0.6989 -0.6960 -0.0134
  359MOL0     H48461   3.973   8.532  -0.179 -2.0560  3.2719 -0.4129
  359MOL0     H48462   3.833   8.462  -0.232 -0.6819  1.4741 -0.5817
  359MOL0     H48463   3.929   8.737  -0.541 -2.5399  1.2623  1.2025
  359MOL0     H48464   3.852   7.988   0.148 -0.1950 -0.2533  0.3265
  359MOL0     H48465   3.739   7.789   0.215 -1.7156  0.0089 -0.9069
  360MOL0     O48466   6.594   6.123   8.805  0.1162  0.0329 -0.1958
  360MOL0     C48467   6.479   6.114   8.829  1.6597  0.3272  0.3218
  360MOL0     O48468   6.414   6.170   8.934 -0.5008 -0.0886  0.4753
  360MOL0     C48469   6.484   6.235   9.031 -0.4724 -0.1026 -0.0977
  360MOL0     C48470   6.617   6.217   9.068 -0.7584  0.8437  1.1398
  360MOL0     C48471   6.680   6.296   9.170  0.4956  0.3009  0.1833
  360MOL0     C48472   6.599   6.387   9.239 -0.1664 -0.1878 -0.3724
  360MOL0     O48473   6.643   6.469   9.339 -0.7315 -1.0905  0.2977
  360MOL0     C48474   6.595   6.445   9.473  0.1614  0.3442 -0.6650
  360MOL0     C48475   6.669   6.537   9.573  0.5191  0.6308 -0.2801
  360MOL0     C48476   6.635   6.682   9.554 -0.4805  0.6085 -0.4349
  360MOL0     C48477   6.690   6.765   9.669  0.0753  0.4544 -0.2047
  360MOL0     C48478   6.734   6.905   9.626 -0.3258  0.1703 -0.0773
  360MOL0     C48479   6.775   6.991   9.749 -0.0500 -0.7730  0.6210
  360MOL0     C48480   6.761   7.145   9.714 -0.5780  0.5701 -0.4620
  360MOL0     C48481   6.844   7.236   9.802 -0.0750 -0.0576 -1.2608
  360MOL0     N48482   6.854   7.372   9.756 -0.0499  0.0009  0.7162
  360MOL0     C48483   6.768   7.470   9.774  0.0295  0.0892  0.8411
  360MOL0     C48484   6.828   7.577   9.727  0.6345 -0.2120  0.4049
  360MOL0     C48485   6.763   7.706   9.701 -0.3738 -0.0736 -0.2099
  360MOL0     C48486   6.828   7.828   9.765 -0.7784 -0.4467  0.0274
  360MOL0     C48487   6.820   7.828   9.920 -0.0928 -0.5999 -0.2751
  360MOL0     C48488   6.900   7.944   9.982 -0.1726  0.4924 -0.0405
  360MOL0     O48489   6.851   7.964  10.117 -0.2961  0.3252  0.3983
  360MOL0     C48490   6.896   7.885  10.218  0.5359  0.9884 -0.7259
  360MOL0     C48491   7.017   7.811  10.208 -0.6394 -0.5012  0.2529
  360MOL0     C48492   7.052   7.721  10.306 -0.7045  0.1955 -1.0985
  360MOL0     C48493   7.179   7.648  10.294 -0.1205 -0.0826  0.8537
  360MOL0     C48494   6.970   7.717  10.430  0.7934 -0.2070  0.4672
  360MOL0     C48495   7.003   7.651  10.556  0.0424 -0.5265 -0.8354
  360MOL0     O48496   6.946   7.697  10.676 -0.4663 -0.2970  0.2225
  360MOL0     C48497   7.001   7.656  10.798 -0.0599  0.7387  0.7114
  360MOL0     C48498   6.992   7.526  10.838 -0.6605  1.0051 -0.1737
  360MOL0     C48499   7.043   7.484  10.958  0.6230 -0.4976 -0.2680
  360MOL0     C48500   7.102   7.574  11.042 -0.4321  0.2640  0.3514
  360MOL0     O48501   7.142   7.528  11.163  0.1220  0.2692  0.2045
  360MOL0     C48502   7.279   7.548  11.199 -0.3465  0.6200  0.2918
  360MOL0     C48503   7.312   7.600  11.347 -0.0046  0.2117  0.5589
  360MOL0     C48504   7.277   7.747  11.385  0.3671 -0.0109 -0.0457
  360MOL0     C48505   7.128   7.753  11.386 -0.0563 -0.4461 -0.0444
  360MOL0     C48506   7.090   7.897  11.440 -0.0901  1.4700  0.4781
  360MOL0     C48507   7.141   7.923  11.577  0.0190 -0.8452 -0.0567
  360MOL0     C48508   7.074   8.064  11.614 -0.1277 -0.0231 -1.1294
  360MOL0     C48509   6.967   8.049  11.725  0.3951 -0.2676 -0.3200
  360MOL0    Cl48510   7.035   8.002  11.874 -0.2469 -0.3248  0.2059
  360MOL0     C48511   7.108   7.709  11.007 -0.3922 -0.2465 -0.5124
  360MOL0     C48512   7.058   7.744  10.889 -0.2698  0.5264  0.0817
  360MOL0     O48513   7.085   7.560  10.550  0.9617  0.0181 -0.2455
  360MOL0     C48514   6.846   7.794  10.439 -0.4877  0.2423  0.2737
  360MOL0     C48515   6.825   7.883  10.344 -0.2795 -0.5330  0.0133
  360MOL0     N48516   6.947   7.543   9.664  0.9845  0.1184  0.0405
  360MOL0     N48517   6.966   7.415   9.689  0.1567  0.3498  0.0758
  360MOL0     C48518   6.465   6.403   9.202 -0.3104  0.1318 -0.3064
  360MOL0     C48519   6.409   6.329   9.098 -0.1927 -0.2834  0.3347
  360MOL0     C48520   6.390   6.030   8.742 -0.2419 -0.0873  0.4883
  360MOL0     C48521   6.440   5.940   8.647  0.7042  0.1680 -0.8120
  360MOL0     C48522   6.352   5.851   8.586 -0.4390  0.2830  0.5237
  360MOL0     C48523   6.217   5.845   8.614  1.0700 -0.7438 -0.8416
  360MOL0     O48524   6.126   5.753   8.566 -0.0192 -1.2211 -0.4256
  360MOL0     C48525   6.176   5.648   8.481 -0.0948 -0.2285  0.1696
  360MOL0     C48526   6.082   5.527   8.500  0.3141 -0.9866 -0.1037
  360MOL0     C48527   5.943   5.570   8.447  0.7055  0.4845 -0.4731
  360MOL0     C48528   5.850   5.449   8.447  0.6695 -0.5585 -0.7304
  360MOL0     C48529   5.715   5.473   8.403  0.0183 -0.3018  0.3266
  360MOL0     C48530   5.612   5.482   8.343  1.4149  0.0022 -0.1674
  360MOL0     C48531   6.171   5.921   8.721  0.1742  0.4516  0.4698
  360MOL0     C48532   6.250   6.021   8.773 -0.1200  0.5114 -0.5514
  360MOL0     H48533   6.679   6.139   9.024  0.5782  0.6932  3.1375
  360MOL0     H48534   6.784   6.287   9.198  0.3448  0.5765  0.8353
  360MOL0     H48535   6.486   6.451   9.483  0.0159  0.2649 -1.9518
  360MOL0     H48536   6.613   6.340   9.494  1.3111  0.3746 -1.4051
  360MOL0     H48537   6.627   6.505   9.668  0.5019 -2.0159 -1.0977
  360MOL0     H48538   6.776   6.515   9.568  1.1392  2.5179  2.6039
  360MOL0     H48539   6.665   6.725   9.458  0.8563 -3.4139 -2.0025
  360MOL0     H48540   6.527   6.677   9.568 -0.3127 -1.9050  0.4723
  360MOL0     H48541   6.623   6.787   9.752  0.3148  1.1108 -0.1781
  360MOL0     H48542   6.784   6.718   9.698 -0.2449 -0.7191 -0.9982
  360MOL0     H48543   6.818   6.900   9.555  1.1999 -0.1443  1.6708
  360MOL0     H48544   6.655   6.957   9.571 -0.0861  2.7323  1.8111
  360MOL0     H48545   6.708   6.972   9.834 -0.6426 -1.3705  0.0351
  360MOL0     H48546   6.875   6.968   9.785  0.9212  0.7763 -0.9632
  360MOL0     H48547   6.803   7.161   9.614  0.1219 -0.7937 -0.4142
  360MOL0     H48548   6.654   7.168   9.716 -1.2726 -2.2878  0.5421
  360MOL0     H48549   6.942   7.194   9.827  1.3793  2.7803 -1.7400
  360MOL0     H48550   6.797   7.244   9.901 -1.5283 -0.7838 -1.8648
  360MOL0     H48551   6.666   7.454   9.809 -0.0361 -0.9777  0.1856
  360MOL0     H48552   6.780   7.737   9.598  2.3409  1.0846  0.5037
  360MOL0     H48553   6.658   7.696   9.728 -0.0672 -0.0134  1.1175
  360MOL0     H48554   6.771   7.913   9.729  0.6681 -1.2825 -4.9184
  360MOL0     H48555   6.935   7.830   9.742 -0.4217 -0.9264  1.4877
  360MOL0     H48556   6.873   7.742   9.962  2.3145  1.0201  0.2266
  360MOL0     H48557   6.714   7.832   9.945  0.3505 -2.9260  2.5265
  360MOL0     H48558   6.871   8.030   9.921 -1.3169 -0.1292 -0.4140
  360MOL0     H48559   7.004   7.920   9.958 -0.4543 -1.8364  0.7634
  360MOL0     H48560   7.087   7.837  10.129 -0.2588 -2.4835 -0.1095
  360MOL0     H48561   7.243   7.683  10.212  1.1026  0.6675  2.0879
  360MOL0     H48562   7.245   7.655  10.381 -0.9391 -1.3770  1.5933
  360MOL0     H48563   7.154   7.543  10.285  1.6631 -0.5475  0.8868
  360MOL0     H48564   6.941   7.452  10.777 -0.5785 -0.8818  1.9017
  360MOL0     H48565   7.040   7.378  10.982 -0.2680  0.1431  2.9175
  360MOL0     H48566   7.324   7.448  11.188 -0.2109  0.7151 -0.0310
  360MOL0     H48567   7.339   7.611  11.133 -0.9984  2.1443  1.1001
  360MOL0     H48568   7.260   7.528  11.410 -2.0153  3.5982  3.1310
  360MOL0     H48569   7.419   7.600  11.367  0.0190 -1.7733  0.6158
  360MOL0     H48570   7.315   7.824  11.317  2.0969  0.7983  1.7594
  360MOL0     H48571   7.323   7.763  11.483  3.9125  0.3028 -1.5924
  360MOL0     H48572   7.090   7.736  11.285 -2.2784  1.1168  0.4686
  360MOL0     H48573   7.078   7.674  11.442 -1.1780 -0.7535 -1.4119
  360MOL0     H48574   6.981   7.902  11.435  0.0007  2.1346 -1.6780
  360MOL0     H48575   7.129   7.970  11.368  1.2699  2.1039  1.7897
  360MOL0     H48576   7.114   7.842  11.646 -1.3116  0.0664  0.5527
  360MOL0     H48577   7.248   7.944  11.572 -0.1426  0.3513  1.0369
  360MOL0     H48578   7.038   8.116  11.525  0.0808  0.2082 -1.0778
  360MOL0     H48579   7.157   8.125  11.651 -0.6761 -0.5595  1.1224
  360MOL0     H48580   6.891   7.976  11.698  1.3589 -0.9109 -1.3600
  360MOL0     H48581   6.911   8.142  11.742  0.8067 -0.4713  2.7917
  360MOL0     H48582   7.156   7.776  11.078 -0.6326 -0.4158 -0.1889
  360MOL0     H48583   7.063   7.850  10.866  0.5248  0.2789 -0.9835
  360MOL0     H48584   6.788   7.798  10.531 -2.1232 -0.8596 -0.6383
  360MOL0     H48585   6.745   7.954  10.361  0.3372 -0.0071  0.7556
  360MOL0     H48586   6.403   6.474   9.255 -1.5101  2.8457 -4.8231
  360MOL0     H48587   6.307   6.348   9.068  0.2898  2.2342  0.0960
  360MOL0     H48588   6.547   5.928   8.629  1.1867  0.1841  1.7360
  360MOL0     H48589   6.402   5.798   8.505  2.7359  2.6205  0.7731
  360MOL0     H48590   6.173   5.689   8.379 -0.8163  0.7423  0.5601
  360MOL0     H48591   6.280   5.618   8.497 -0.2380  0.6314  3.2718
  360MOL0     H48592   6.073   5.505   8.607  2.1380  0.8430  0.4937
  360MOL0     H48593   6.122   5.440   8.448 -2.2770 -1.7703 -0.9198
  360MOL0     H48594   5.952   5.607   8.345 -1.0206 -0.2690 -0.9303
  360MOL0     H48595   5.902   5.646   8.514 -1.5988 -1.4233  0.4320
  360MOL0     H48596   5.843   5.397   8.543  0.1167 -1.0472 -1.0303
  360MOL0     H48597   5.889   5.372   8.380 -0.0144 -0.0868 -1.6781
  360MOL0     H48598   5.526   5.501   8.283  1.2065 -0.9705 -0.1766
  360MOL0     H48599   6.065   5.907   8.736 -0.3754  2.7210 -0.8874
  360MOL0     H48600   6.196   6.076   8.849 -0.8066 -0.6749 -0.1419
  361MOL0     O48601   5.694   2.399   2.003 -0.2857  0.2558 -0.7444
  361MOL0     C48602   5.669   2.369   2.114 -0.1945  0.6157 -1.0198
  361MOL0     O48603   5.591   2.265   2.151 -0.8628  0.4554 -0.4633
  361MOL0     C48604   5.459   2.307   2.151  0.1173 -0.0312 -0.0056
  361MOL0     C48605   5.389   2.342   2.027 -0.1250 -0.2602  0.2882
  361MOL0     C48606   5.254   2.370   2.032  0.5560  1.5511  0.3313
  361MOL0     C48607   5.172   2.361   2.146 -0.6818  0.5433  0.8176
  361MOL0     O48608   5.041   2.368   2.123  0.1319  0.5911  0.6263
  361MOL0     C48609   4.955   2.326   2.228 -0.8525  0.2306  0.4659
  361MOL0     C48610   4.948   2.181   2.265  0.2671  0.1143 -0.3121
  361MOL0     C48611   4.870   2.179   2.397  0.0326 -0.0717 -0.4028
  361MOL0     C48612   4.865   2.045   2.473 -1.1329  0.4048 -0.4821
  361MOL0     C48613   4.820   2.066   2.616 -0.4430  0.2658  0.1331
  361MOL0     C48614   4.913   2.133   2.714 -0.5774 -0.3649 -0.6798
  361MOL0     C48615   4.829   2.186   2.832 -0.3273 -0.6720 -0.1832
  361MOL0     C48616   4.909   2.188   2.957  0.4131  0.2697 -0.7199
  361MOL0     N48617   4.820   2.243   3.058 -0.1524  0.7276  0.4662
  361MOL0     C48618   4.757   2.360   3.071  0.1483  0.8076  0.0737
  361MOL0     C48619   4.684   2.344   3.188 -0.1211 -0.9629 -0.4843
  361MOL0     C48620   4.582   2.449   3.240  0.0316  0.7488 -0.1773
  361MOL0     C48621   4.660   2.546   3.329 -1.0507  0.4278 -0.4119
  361MOL0     C48622   4.600   2.682   3.325 -0.0331 -0.7136  0.3990
  361MOL0     C48623   4.447   2.696   3.344 -0.3979 -0.2003 -0.2817
  361MOL0     O48624   4.445   2.794   3.444 -0.6282  0.5063  0.1669
  361MOL0     C48625   4.327   2.846   3.486 -0.7943  0.8064 -0.3322
  361MOL0     C48626   4.325   2.955   3.570 -0.1047 -0.2754 -0.2022
  361MOL0     C48627   4.208   3.016   3.616 -0.4514 -0.0031 -0.3235
  361MOL0     C48628   4.214   3.147   3.682 -0.5081 -0.8326  0.0607
  361MOL0     C48629   4.088   2.945   3.595 -0.4781 -0.3947  0.1362
  361MOL0     C48630   3.956   2.980   3.657 -0.1349  0.0683  1.3172
  361MOL0     O48631   3.920   3.106   3.649 -0.1785 -0.0805 -0.8596
  361MOL0     C48632   3.795   3.157   3.682  0.1147  0.5051 -0.2046
  361MOL0     C48633   3.796   3.291   3.736  0.0352  0.8128 -0.3827
  361MOL0     C48634   3.675   3.354   3.773  0.7859  0.6370  1.1867
  361MOL0     C48635   3.551   3.279   3.768 -0.3377 -0.4496 -0.4904
  361MOL0     O48636   3.422   3.306   3.818 -0.3336 -0.3623  0.4573
  361MOL0     C48637   3.432   3.437   3.893  0.0704  0.0361  0.9821
  361MOL0     C48638   3.287   3.469   3.924 -0.3096 -0.2329 -0.1625
  361MOL0     C48639   3.189   3.498   3.813  0.4242 -0.2641 -0.2688
  361MOL0     C48640   3.109   3.376   3.785 -0.7006  0.7894  1.1069
  361MOL0     C48641   3.008   3.402   3.683 -0.4862 -0.5131 -0.5592
  361MOL0     C48642   2.880   3.466   3.745  0.6238  0.1250  0.3925
  361MOL0     C48643   2.777   3.510   3.625 -0.7247 -0.1917  0.0478
  361MOL0     C48644   2.646   3.561   3.685 -0.0053 -0.1750 -0.6652
  361MOL0    Cl48645   2.648   3.747   3.727 -0.0870  0.2744 -0.1729
  361MOL0     C48646   3.560   3.152   3.716 -0.4120 -0.1006  0.0412
  361MOL0     C48647   3.675   3.091   3.673  0.6519  0.3181  0.2248
  361MOL0     O48648   3.886   2.878   3.679 -0.0419 -0.1860  0.6147
  361MOL0     C48649   4.086   2.831   3.509  1.0332 -0.2958 -0.2471
  361MOL0     C48650   4.205   2.798   3.453 -0.0672  0.5201  0.0433
  361MOL0     N48651   4.695   2.216   3.235  0.4185  0.5958  0.1161
  361MOL0     N48652   4.772   2.157   3.154  0.8829  0.0885  0.5530
  361MOL0     C48653   5.241   2.345   2.262 -0.4271 -0.2016  0.7318
  361MOL0     C48654   5.384   2.320   2.265 -0.1059  0.0167 -0.4329
  361MOL0     C48655   5.755   2.426   2.223  0.1483 -0.2404  0.1494
  361MOL0     C48656   5.740   2.377   2.357 -0.3902 -0.5662 -0.0235
  361MOL0     C48657   5.837   2.408   2.448  0.4131 -0.2120 -0.0597
  361MOL0     C48658   5.941   2.500   2.423  0.7210 -0.3509 -0.9225
  361MOL0     O48659   6.034   2.522   2.516  0.0778  0.2538  0.2989
  361MOL0     C48660   6.126   2.632   2.487 -0.5219  0.4632 -0.2390
  361MOL0     C48661   6.194   2.660   2.623  0.2818  0.1512  1.0730
  361MOL0     C48662   6.311   2.752   2.590 -0.8387 -1.3614  0.4466
  361MOL0     C48663   6.392   2.771   2.723 -0.5504 -0.1206  0.3595
  361MOL0     C48664   6.523   2.838   2.686  0.8194 -0.2442  0.2609
  361MOL0     C48665   6.607   2.926   2.669  0.1971 -0.0401 -0.5779
  361MOL0     C48666   5.939   2.558   2.294 -0.2391 -0.2793  1.1061
  361MOL0     C48667   5.856   2.522   2.191  0.4227 -0.3695  0.0572
  361MOL0     H48668   5.450   2.342   1.937 -0.9537  1.2905 -0.3108
  361MOL0     H48669   5.208   2.376   1.933 -2.0720 -2.9424  0.9912
  361MOL0     H48670   4.965   2.393   2.314 -0.9603 -1.6101  2.0025
  361MOL0     H48671   4.853   2.336   2.190 -2.0271 -0.3140  3.1952
  361MOL0     H48672   4.897   2.120   2.190 -2.5863 -0.5104  1.9480
  361MOL0     H48673   5.053   2.151   2.278  1.0286  2.6933 -0.0891
  361MOL0     H48674   4.915   2.255   2.462 -0.5769  1.1467 -1.3591
  361MOL0     H48675   4.769   2.217   2.381 -1.3918 -2.9773  0.8954
  361MOL0     H48676   4.805   1.970   2.422 -1.3050 -1.2457  1.9712
  361MOL0     H48677   4.960   1.993   2.483 -1.2191  0.5833  2.2064
  361MOL0     H48678   4.740   2.141   2.608  0.4281  1.7967  3.7864
  361MOL0     H48679   4.772   1.979   2.662  0.3891  0.5576  1.6237
  361MOL0     H48680   4.995   2.075   2.757 -0.4848  1.3399  1.6615
  361MOL0     H48681   4.955   2.223   2.668  1.4884 -1.8714 -1.8766
  361MOL0     H48682   4.790   2.287   2.819  1.3333 -0.2100 -2.0204
  361MOL0     H48683   4.742   2.121   2.834 -2.0197  1.4157 -1.7113
  361MOL0     H48684   4.994   2.256   2.955  1.3633 -0.7379  1.4907
  361MOL0     H48685   4.951   2.092   2.991  0.1387 -0.3939 -2.1942
  361MOL0     H48686   4.774   2.454   3.019  3.8994 -0.4890 -1.4220
  361MOL0     H48687   4.525   2.497   3.160 -1.6321  2.8739  2.1297
  361MOL0     H48688   4.508   2.395   3.299  1.0314 -3.4082 -2.3033
  361MOL0     H48689   4.760   2.562   3.286 -2.0296  0.8477 -2.6797
  361MOL0     H48690   4.666   2.511   3.433  0.4463 -0.7712 -0.8520
  361MOL0     H48691   4.615   2.732   3.228  0.0935 -0.0420  0.7579
  361MOL0     H48692   4.661   2.731   3.401 -1.8110 -2.0302  2.8095
  361MOL0     H48693   4.410   2.603   3.388  0.7674 -0.3081  0.5137
  361MOL0     H48694   4.399   2.711   3.247  0.4644  1.2784 -0.5177
  361MOL0     H48695   4.425   2.979   3.604 -0.4073  0.3948  0.2390
  361MOL0     H48696   4.321   3.170   3.689 -0.5223  0.2442 -2.1595
  361MOL0     H48697   4.154   3.229   3.641 -2.1497 -1.3546  1.3350
  361MOL0     H48698   4.167   3.143   3.780 -6.3093  0.2840 -2.2635
  361MOL0     H48699   3.891   3.341   3.753 -0.1957  0.4156  2.3846
  361MOL0     H48700   3.676   3.453   3.816 -0.8984  1.1477  0.1415
  361MOL0     H48701   3.487   3.414   3.985  0.6204 -1.7030  0.2758
  361MOL0     H48702   3.473   3.509   3.821 -1.8890  1.1445  0.9248
  361MOL0     H48703   3.228   3.399   3.984 -1.5621 -0.6253 -1.7712
  361MOL0     H48704   3.285   3.560   3.985 -2.2475  2.1272 -3.4367
  361MOL0     H48705   3.241   3.525   3.721  0.9306 -1.3408 -0.3122
  361MOL0     H48706   3.129   3.583   3.846  0.7482 -0.2117  0.1990
  361MOL0     H48707   3.173   3.296   3.747 -3.3555 -0.0033 -2.1169
  361MOL0     H48708   3.066   3.340   3.879  0.8728 -2.9955  0.5591
  361MOL0     H48709   2.984   3.305   3.637 -0.2576 -1.4410  1.1761
  361MOL0     H48710   3.052   3.465   3.606  0.4992  1.4255  1.4694
  361MOL0     H48711   2.826   3.405   3.818 -4.3229  1.5367 -1.6360
  361MOL0     H48712   2.903   3.561   3.793  0.7942  0.3145 -0.0585
  361MOL0     H48713   2.752   3.426   3.560  0.6627 -0.3850 -0.2520
  361MOL0     H48714   2.812   3.595   3.565  0.3770 -1.7743 -1.6154
  361MOL0     H48715   2.629   3.510   3.780 -0.9092  1.2082 -0.0429
  361MOL0     H48716   2.556   3.560   3.623 -0.8385 -2.2710  0.4769
  361MOL0     H48717   3.473   3.088   3.705  0.2225 -0.5341 -4.0133
  361MOL0     H48718   3.671   2.986   3.645 -0.5646  0.4509 -0.1823
  361MOL0     H48719   3.985   2.796   3.488 -0.2807  1.9088  1.7400
  361MOL0     H48720   4.206   2.716   3.381 -1.7625 -0.1962  0.7804
  361MOL0     H48721   5.189   2.345   2.357 -2.1360 -0.0663 -0.1634
  361MOL0     H48722   5.426   2.298   2.362  0.6421 -0.2958 -0.8191
  361MOL0     H48723   5.651   2.318   2.375 -0.9525  0.1663 -0.3213
  361MOL0     H48724   5.836   2.352   2.541 -0.8852 -2.9964 -1.6318
  361MOL0     H48725   6.197   2.588   2.417  0.1433  1.9865 -0.5555
  361MOL0     H48726   6.085   2.726   2.450 -3.1997  0.1715  1.6387
  361MOL0     H48727   6.234   2.571   2.672 -0.4902 -1.3191 -0.8408
  361MOL0     H48728   6.122   2.714   2.685 -0.4148  0.7177 -0.1766
  361MOL0     H48729   6.258   2.839   2.549  0.8567 -0.0303  0.9318
  361MOL0     H48730   6.381   2.720   2.512 -0.1943 -1.6273  1.1246
  361MOL0     H48731   6.413   2.675   2.770  1.5989 -1.0885 -2.2998
  361MOL0     H48732   6.328   2.827   2.792 -0.9890 -0.7366  0.4518
  361MOL0     H48733   6.675   3.000   2.631 -0.5039  0.4881 -0.8218
  361MOL0     H48734   6.021   2.621   2.265  1.1141 -2.5444 -0.3613
  361MOL0     H48735   5.867   2.561   2.090  6.0484 -0.0082  0.5080
  362MOL0     O48736   5.807   4.321   4.019  0.0722 -0.0588  0.3887
  362MOL0     C48737   5.812   4.242   3.921 -0.8108 -0.5339  1.0485
  362MOL0     O48738   5.930   4.219   3.860 -0.2815 -0.2151  0.6251
  362MOL0     C48739   6.046   4.236   3.930 -0.4733 -0.3127  0.3406
  362MOL0     C48740   6.072   4.197   4.062 -1.1788  0.8846 -1.0219
  362MOL0     C48741   6.190   4.229   4.128  0.4872  0.8871  1.0702
  362MOL0     C48742   6.292   4.306   4.064 -0.0369 -0.6343  1.3547
  362MOL0     O48743   6.417   4.350   4.113  0.2292  0.2476  0.0609
  362MOL0     C48744   6.457   4.298   4.240  1.3283 -0.0423 -0.1939
  362MOL0     C48745   6.410   4.405   4.350  0.4513 -0.1748  0.6791
  362MOL0     C48746   6.525   4.499   4.384 -0.6165 -0.3833 -0.0003
  362MOL0     C48747   6.497   4.584   4.509  0.0696 -0.5954  0.4294
  362MOL0     C48748   6.615   4.680   4.536 -0.0356  0.1520 -0.0039
  362MOL0     C48749   6.591   4.776   4.660  0.0530  1.3372  0.1634
  362MOL0     C48750   6.610   4.704   4.800  0.1203 -0.0079  0.1684
  362MOL0     C48751   6.590   4.817   4.908 -1.2147  0.5922  0.3475
  362MOL0     N48752   6.449   4.848   4.940  0.3620  1.2458 -0.4747
  362MOL0     C48753   6.380   4.779   5.036 -0.4798 -0.3604 -0.1127
  362MOL0     C48754   6.270   4.856   5.066 -0.6816 -0.2591 -0.1986
  362MOL0     C48755   6.166   4.823   5.159 -0.2333  0.4381  0.0023
  362MOL0     C48756   6.025   4.795   5.089  0.6904 -1.0386 -0.2647
  362MOL0     C48757   5.948   4.918   5.063  0.7270  0.7602  0.7806
  362MOL0     C48758   5.810   4.885   5.006  0.5021  0.1083  0.1267
  362MOL0     O48759   5.755   5.010   4.959  0.0530  0.1321  1.2477
  362MOL0     C48760   5.637   5.013   4.890 -0.0427  0.3918  0.4911
  362MOL0     C48761   5.567   5.129   4.871 -0.1904 -0.2322  0.8498
  362MOL0     C48762   5.448   5.131   4.802  0.2796 -0.2880  0.0925
  362MOL0     C48763   5.381   5.269   4.801 -0.0264 -1.2308 -0.2509
  362MOL0     C48764   5.377   5.008   4.769  1.1440  0.0729 -0.6264
  362MOL0     C48765   5.256   5.000   4.681 -0.3651  0.3351  0.5378
  362MOL0     O48766   5.166   4.901   4.698  0.0991  0.2313  0.4158
  362MOL0     C48767   5.093   4.868   4.590  0.0737 -0.6212  0.5293
  362MOL0     C48768   5.128   4.750   4.529  0.1721 -0.6538 -0.8826
  362MOL0     C48769   5.051   4.705   4.418  0.3026  0.6085  0.5676
  362MOL0     C48770   4.941   4.768   4.382  0.7449 -1.1360  0.9421
  362MOL0     O48771   4.864   4.719   4.283 -0.3367 -0.2443 -0.6374
  362MOL0     C48772   4.896   4.762   4.148  0.0199 -0.0261 -0.0402
  362MOL0     C48773   4.820   4.674   4.039  0.1660  0.7010  0.3246
  362MOL0     C48774   4.786   4.746   3.904  0.4258  0.1509  1.7258
  362MOL0     C48775   4.722   4.644   3.803  0.4291 -0.0709 -0.0241
  362MOL0     C48776   4.657   4.708   3.677 -0.3033  0.2409  0.4222
  362MOL0     C48777   4.762   4.778   3.589 -0.0542  0.6079 -0.6592
  362MOL0     C48778   4.869   4.684   3.536  0.0522 -0.4890  0.2897
  362MOL0     C48779   4.943   4.744   3.422  0.4453 -0.3510 -0.0562
  362MOL0    Cl48780   5.033   4.625   3.335 -0.1270  0.0296 -0.6725
  362MOL0     C48781   4.895   4.883   4.453  0.7068  0.1011  0.2978
  362MOL0     C48782   4.976   4.937   4.556 -0.4648  0.2990  0.2419
  362MOL0     O48783   5.239   5.092   4.599 -0.7622 -0.1089 -0.2149
  362MOL0     C48784   5.449   4.887   4.793  0.1276  0.0379 -0.2569
  362MOL0     C48785   5.575   4.898   4.853  0.5682  0.7407 -0.0551
  362MOL0     N48786   6.261   4.957   4.981  0.2682  0.1701  0.5363
  362MOL0     N48787   6.372   4.952   4.910 -0.1357 -0.6473  0.3626
  362MOL0     C48788   6.274   4.335   3.931 -0.4156  0.0701  0.2021
  362MOL0     C48789   6.149   4.306   3.863 -0.4816 -0.2973 -0.6132
  362MOL0     C48790   5.694   4.169   3.878  0.4503  0.3727  0.1214
  362MOL0     C48791   5.567   4.167   3.942  0.3758 -1.0159 -1.3766
  362MOL0     C48792   5.462   4.090   3.887 -0.2122 -0.0519  0.1150
  362MOL0     C48793   5.459   4.032   3.762  0.3450  0.3001  0.7163
  362MOL0     O48794   5.354   3.948   3.733  0.3694 -0.5711  0.3592
  362MOL0     C48795   5.323   3.890   3.606  0.3732  0.1853  0.7392
  362MOL0     C48796   5.229   3.982   3.529  0.3514 -0.2083  0.3403
  362MOL0     C48797   5.131   3.899   3.433  0.0025  0.2276 -0.2012
  362MOL0     C48798   5.200   3.782   3.350 -0.1729  0.7029  0.3030
  362MOL0     C48799   5.292   3.821   3.246 -0.0754  1.2463  0.1293
  362MOL0     C48800   5.357   3.853   3.150 -0.6101 -0.4231 -0.7643
  362MOL0     C48801   5.577   4.035   3.694 -0.8599 -0.1596 -0.2527
  362MOL0     C48802   5.687   4.116   3.744 -0.4042  0.0108  0.6478
  362MOL0     H48803   6.001   4.129   4.108 -0.5952  0.2498 -1.0574
  362MOL0     H48804   6.195   4.214   4.235  0.4875  0.0754  0.9638
  362MOL0     H48805   6.403   4.205   4.259  2.2186 -0.4160  0.5943
  362MOL0     H48806   6.566   4.290   4.244  1.4389  1.2470  0.0167
  362MOL0     H48807   6.317   4.454   4.321  0.2703 -0.8224  0.1173
  362MOL0     H48808   6.394   4.341   4.437 -1.0380  0.2170  0.7044
  362MOL0     H48809   6.620   4.449   4.409 -0.4216  0.7109  1.5722
  362MOL0     H48810   6.552   4.563   4.299  2.7557 -0.7279  0.6592
  362MOL0     H48811   6.412   4.650   4.491 -0.0660 -1.4360 -2.4221
  362MOL0     H48812   6.475   4.542   4.608  0.0208  2.3207  1.7609
  362MOL0     H48813   6.710   4.631   4.556  1.1334  1.4758 -1.9580
  362MOL0     H48814   6.641   4.750   4.456  0.4839  1.7088  1.4665
  362MOL0     H48815   6.664   4.857   4.670  0.8662  0.3611  3.3180
  362MOL0     H48816   6.493   4.823   4.647  0.2095  1.5929 -0.1111
  362MOL0     H48817   6.544   4.618   4.815 -0.0896 -0.1314 -1.2973
  362MOL0     H48818   6.710   4.661   4.807 -0.5088 -1.5954 -0.0954
  362MOL0     H48819   6.636   4.913   4.883 -1.6408  1.3099  2.1497
  362MOL0     H48820   6.632   4.784   5.004 -2.0942 -0.7826  0.2849
  362MOL0     H48821   6.415   4.694   5.094  1.8831  0.2444 -0.5417
  362MOL0     H48822   6.199   4.732   5.209  1.4463  1.2023  0.3469
  362MOL0     H48823   6.164   4.904   5.232 -2.4917  0.0721  0.3978
  362MOL0     H48824   5.961   4.742   5.160  0.0443  1.7835  1.4367
  362MOL0     H48825   6.043   4.748   4.992  2.9674  2.9935 -2.0762
  362MOL0     H48826   5.993   4.975   4.981 -1.0956 -0.9101 -1.5203
  362MOL0     H48827   5.934   4.969   5.159 -1.2820  0.5953  0.6223
  362MOL0     H48828   5.748   4.840   5.085 -0.2415 -2.3775 -1.7373
  362MOL0     H48829   5.803   4.805   4.932 -0.3890  0.9835 -0.7534
  362MOL0     H48830   5.621   5.217   4.903  3.0657 -1.2347 -1.3845
  362MOL0     H48831   5.426   5.343   4.867  1.0758 -2.3679  0.3203
  362MOL0     H48832   5.383   5.305   4.697 -0.5071 -4.0117 -1.3048
  362MOL0     H48833   5.280   5.265   4.843  1.1459 -0.5447  2.9107
  362MOL0     H48834   5.222   4.715   4.570  0.2335  0.7962  0.2818
  362MOL0     H48835   5.077   4.616   4.362 -2.9926 -0.7272  0.9347
  362MOL0     H48836   4.854   4.862   4.137 -0.8392 -0.0593  2.2834
  362MOL0     H48837   5.004   4.764   4.129  0.2124  2.4580  0.9062
  362MOL0     H48838   4.875   4.581   4.022  0.3594  0.7753  0.5453
  362MOL0     H48839   4.728   4.635   4.085  1.3258  0.7097  2.7940
  362MOL0     H48840   4.872   4.801   3.865 -1.3557  1.5478 -0.4763
  362MOL0     H48841   4.705   4.817   3.922  0.1974  0.5566 -0.6276
  362MOL0     H48842   4.796   4.572   3.767  0.9071  0.5859 -0.3720
  362MOL0     H48843   4.644   4.589   3.857 -1.0860  1.0857 -0.9558
  362MOL0     H48844   4.586   4.788   3.701 -0.9442  1.7541 -4.9742
  362MOL0     H48845   4.609   4.627   3.622  0.6995  0.8853 -1.4998
  362MOL0     H48846   4.700   4.822   3.510 -2.3617 -0.4477  0.4354
  362MOL0     H48847   4.809   4.854   3.652 -0.8092 -0.0241  0.7129
  362MOL0     H48848   4.837   4.583   3.511 -0.3237 -0.2333 -0.2850
  362MOL0     H48849   4.938   4.679   3.621 -0.0089  4.9345  1.0146
  362MOL0     H48850   5.006   4.821   3.469  0.3301  1.2282 -2.3271
  362MOL0     H48851   4.884   4.802   3.351 -0.9304  0.5515  1.7412
  362MOL0     H48852   4.809   4.942   4.424  1.6629  1.7048  0.6176
  362MOL0     H48853   4.941   5.024   4.610  0.3206  0.5455  0.3726
  362MOL0     H48854   5.401   4.791   4.778  0.7111  0.0452 -2.4545
  362MOL0     H48855   5.615   4.800   4.875 -3.4607 -1.3159 -1.0094
  362MOL0     H48856   6.349   4.399   3.885 -1.7113  1.6216  0.1342
  362MOL0     H48857   6.140   4.342   3.761 -1.4898  0.9597 -0.0999
  362MOL0     H48858   5.568   4.221   4.036  1.1516 -0.0155 -1.9404
  362MOL0     H48859   5.369   4.085   3.943  0.9135  0.2076  2.1034
  362MOL0     H48860   5.405   3.849   3.546 -2.3406 -2.1348 -1.7448
  362MOL0     H48861   5.268   3.799   3.632 -0.4692  0.0133 -1.4199
  362MOL0     H48862   5.279   4.061   3.473  0.1980 -1.2072 -1.2597
  362MOL0     H48863   5.173   4.043   3.601  0.4246 -0.9124  1.0081
  362MOL0     H48864   5.083   3.976   3.372  2.2862  0.6554 -1.5492
  362MOL0     H48865   5.049   3.850   3.486  0.0639  1.5734  1.2358
  362MOL0     H48866   5.116   3.731   3.300 -1.3271  1.6925  1.1652
  362MOL0     H48867   5.243   3.706   3.416  1.5223  0.2637 -1.2056
  362MOL0     H48868   5.412   3.879   3.061 -0.2023  1.8608  0.0857
  362MOL0     H48869   5.593   3.984   3.599  2.6320  0.1114  0.0593
  362MOL0     H48870   5.779   4.124   3.687 -1.3565  1.7620 -0.7377
  363MOL0     O48871   9.544  10.551   1.978 -0.5561 -0.4299  0.0508
  363MOL0     C48872   9.528  10.609   1.865 -0.0644 -0.1366 -0.2255
  363MOL0     O48873   9.411  10.645   1.806  0.3494  0.3585  0.3367
  363MOL0     C48874   9.302  10.588   1.862  0.6208  0.2948  0.6522
  363MOL0     C48875   9.267  10.455   1.843 -0.1466 -0.1629  0.7004
  363MOL0     C48876   9.143  10.413   1.885 -0.0428  0.5914 -1.1822
  363MOL0     C48877   9.059  10.495   1.964 -0.1126  0.5517 -0.1639
  363MOL0     O48878   8.924  10.454   1.991  0.1419 -0.4090  0.3198
  363MOL0     C48879   8.882  10.320   1.970  0.1148  0.2106  0.0222
  363MOL0     C48880   8.761  10.279   2.043  0.5780  0.1044  0.4065
  363MOL0     C48881   8.671  10.178   1.969  0.4464  0.5037  0.5655
  363MOL0     C48882   8.526  10.144   2.011  1.2342 -0.4201  0.7893
  363MOL0     C48883   8.462  10.071   1.899  0.1464  0.1435 -0.0683
  363MOL0     C48884   8.338   9.991   1.939  0.5681  0.4254 -1.2013
  363MOL0     C48885   8.307   9.871   1.851  0.7943  0.5310 -0.4806
  363MOL0     C48886   8.272   9.918   1.705 -0.5058  0.5434 -0.0137
  363MOL0     N48887   8.269   9.806   1.612 -0.1197 -0.0995  0.0302
  363MOL0     C48888   8.162   9.724   1.614 -0.5040  0.0623 -0.5685
  363MOL0     C48889   8.212   9.603   1.575 -0.2435 -0.2127 -0.0151
  363MOL0     C48890   8.131   9.476   1.581 -0.3175  0.5231  0.1250
  363MOL0     C48891   7.988   9.497   1.531  0.1050  0.0504  0.2995
  363MOL0     C48892   7.890   9.376   1.527 -0.0379  0.7961 -0.1807
  363MOL0     C48893   7.780   9.398   1.421 -0.6189 -0.2992  0.6583
  363MOL0     O48894   7.701   9.521   1.429  0.0739 -0.0432 -0.1014
  363MOL0     C48895   7.586   9.522   1.500 -0.9686  0.1476 -0.6305
  363MOL0     C48896   7.542   9.408   1.579 -0.1939 -0.5837  0.4014
  363MOL0     C48897   7.407   9.404   1.630  0.0601 -0.2829 -0.4605
  363MOL0     C48898   7.373   9.278   1.720  0.2682 -0.1108  0.6213
  363MOL0     C48899   7.310   9.501   1.592 -0.7310 -0.1474  0.3057
  363MOL0     C48900   7.165   9.505   1.633  0.6468  0.9262 -0.5072
  363MOL0     O48901   7.097   9.601   1.575  0.9621 -0.2422  0.4308
  363MOL0     C48902   6.963   9.618   1.609  0.7398 -0.2572 -0.1145
  363MOL0     C48903   6.910   9.611   1.744  0.0817  0.6600 -0.2828
  363MOL0     C48904   6.771   9.620   1.771 -0.6394 -0.8209  0.1908
  363MOL0     C48905   6.685   9.638   1.669 -0.4271  0.9755 -0.4419
  363MOL0     O48906   6.551   9.623   1.707  0.0290 -0.5121  0.2650
  363MOL0     C48907   6.452   9.584   1.615  0.5459 -0.0600  0.3271
  363MOL0     C48908   6.335   9.500   1.682 -0.8047 -0.2594  0.7190
  363MOL0     C48909   6.264   9.592   1.776 -0.8322 -0.0966  0.2929
  363MOL0     C48910   6.141   9.538   1.851 -0.4576 -0.0189  0.3086
  363MOL0     C48911   6.087   9.647   1.945 -0.2544 -1.0200  0.3335
  363MOL0     C48912   6.043   9.778   1.876 -0.1720 -0.0684 -0.4400
  363MOL0     C48913   5.933   9.754   1.773 -0.9291  0.0993 -0.0085
  363MOL0     C48914   5.910   9.881   1.689  0.0898  1.7156 -0.7188
  363MOL0    Cl48915   5.917  10.032   1.782 -0.3097 -0.0347  0.2033
  363MOL0     C48916   6.735   9.642   1.535  1.1601 -0.2289 -0.2421
  363MOL0     C48917   6.872   9.648   1.503  0.6076  0.4759  0.2006
  363MOL0     O48918   7.119   9.423   1.715  0.9557 -0.1326 -0.2561
  363MOL0     C48919   7.369   9.611   1.524  0.4796  1.0122  0.4767
  363MOL0     C48920   7.498   9.623   1.478 -0.0483 -0.5628 -0.5914
  363MOL0     N48921   8.341   9.618   1.538 -0.3665  0.2032  0.7823
  363MOL0     N48922   8.379   9.743   1.562 -0.2370 -0.0236  0.3110
  363MOL0     C48923   9.104  10.622   1.987 -0.6860  0.2292 -0.9758
  363MOL0     C48924   9.225  10.669   1.940  0.6637  0.5714 -0.7249
  363MOL0     C48925   9.644  10.654   1.788  0.0902  0.2626  0.1009
  363MOL0     C48926   9.629  10.714   1.660  0.0959 -0.7002  0.4220
  363MOL0     C48927   9.727  10.788   1.605  0.2860  0.5557  0.9359
  363MOL0     C48928   9.851  10.798   1.655 -0.8864  0.5521  0.3757
  363MOL0     O48929   9.944  10.876   1.591 -0.2718 -0.5376  0.1793
  363MOL0     C48930  10.083  10.886   1.633  0.8273  1.1182  0.5555
  363MOL0     C48931  10.162  10.762   1.604  0.4691  0.4304  0.2872
  363MOL0     C48932  10.170  10.727   1.446 -0.3927 -0.2163 -1.3678
  363MOL0     C48933  10.059  10.650   1.383  0.5072 -0.5361  1.0457
  363MOL0     C48934  10.106  10.612   1.248 -0.1891  0.4872 -0.4085
  363MOL0     C48935  10.150  10.578   1.141 -0.2904 -0.0924 -0.4327
  363MOL0     C48936   9.882  10.724   1.769  0.0017  0.0478  0.9192
  363MOL0     C48937   9.778  10.647   1.838  0.1006  0.4867  0.2477
  363MOL0     H48938   9.332  10.392   1.782  0.9234  0.2230  1.4107
  363MOL0     H48939   9.122  10.308   1.867 -0.0026  0.6025 -1.2898
  363MOL0     H48940   8.870  10.300   1.863 -1.3213  0.5421  0.1074
  363MOL0     H48941   8.960  10.251   2.003 -0.1142  0.5778  1.3964
  363MOL0     H48942   8.793  10.230   2.136 -0.4733 -1.2470  0.0922
  363MOL0     H48943   8.704  10.371   2.054 -1.4622 -0.9988 -0.3885
  363MOL0     H48944   8.659  10.208   1.865  0.2332  1.7542  0.9354
  363MOL0     H48945   8.729  10.084   1.964 -0.0741  0.1582  0.9535
  363MOL0     H48946   8.527  10.071   2.093 -1.3740  0.0888  1.3769
  363MOL0     H48947   8.466  10.236   2.014  0.2339 -1.0064 -0.4077
  363MOL0     H48948   8.440  10.130   1.810  1.6715 -1.9773 -1.9559
  363MOL0     H48949   8.535   9.999   1.861 -1.3991 -0.1418 -2.7080
  363MOL0     H48950   8.362   9.959   2.041  1.3680 -1.1497 -1.8592
  363MOL0     H48951   8.247  10.051   1.949 -0.5118 -0.3488 -4.8834
  363MOL0     H48952   8.395   9.808   1.858 -1.0024 -2.0287  5.0132
  363MOL0     H48953   8.226   9.804   1.881 -1.0344  1.9089 -2.0285
  363MOL0     H48954   8.363   9.973   1.681  0.1234  0.0129  1.0710
  363MOL0     H48955   8.177   9.972   1.692  1.8023  4.5722 -1.9198
  363MOL0     H48956   8.060   9.751   1.640 -0.1072  1.0861 -0.0238
  363MOL0     H48957   8.186   9.407   1.517 -0.9787  0.9830 -0.9623
  363MOL0     H48958   8.120   9.435   1.682  0.9050  3.3879  1.5554
  363MOL0     H48959   7.996   9.528   1.426 -1.2068 -1.5326 -0.3161
  363MOL0     H48960   7.943   9.577   1.592  1.8738  2.4356 -1.3281
  363MOL0     H48961   7.840   9.360   1.623  2.2408  0.4481  1.0188
  363MOL0     H48962   7.943   9.281   1.512 -0.3106  1.0087 -2.9832
  363MOL0     H48963   7.721   9.310   1.398 -0.1124 -0.5725  0.3804
  363MOL0     H48964   7.833   9.412   1.326  0.6075  2.0820  1.5949
  363MOL0     H48965   7.609   9.325   1.600 -0.0404 -0.2585  1.2089
  363MOL0     H48966   7.392   9.318   1.819  2.8711  1.3512 -0.3705
  363MOL0     H48967   7.267   9.248   1.721  0.8442 -2.2742  1.8598
  363MOL0     H48968   7.435   9.189   1.706 -0.9481 -1.3132  2.3824
  363MOL0     H48969   6.977   9.595   1.828 -1.2157 -2.0088  0.3728
  363MOL0     H48970   6.738   9.618   1.875 -0.9283  2.0814  0.2392
  363MOL0     H48971   6.406   9.672   1.569 -2.2427 -0.6235  1.7708
  363MOL0     H48972   6.501   9.515   1.546  0.8930  0.0153  0.4943
  363MOL0     H48973   6.276   9.465   1.597 -0.0691 -0.6280  0.3409
  363MOL0     H48974   6.371   9.410   1.733  0.2296 -0.8242 -0.9392
  363MOL0     H48975   6.219   9.672   1.717 -2.8559 -0.7913  0.8038
  363MOL0     H48976   6.331   9.608   1.861 -1.4438 -0.8766  0.9463
  363MOL0     H48977   6.070   9.512   1.771  0.3570  1.3639 -0.9159
  363MOL0     H48978   6.166   9.448   1.908  1.0247  1.5539  2.2512
  363MOL0     H48979   6.165   9.678   2.016 -2.7418  3.1161  1.6034
  363MOL0     H48980   6.007   9.612   2.012 -1.5728  2.7390  0.9629
  363MOL0     H48981   6.006   9.841   1.958 -0.3300 -0.6519 -0.0572
  363MOL0     H48982   6.132   9.826   1.835 -0.5907 -0.8374 -2.3605
  363MOL0     H48983   5.836   9.724   1.813 -0.3191 -1.6144  0.2518
  363MOL0     H48984   5.970   9.685   1.697 -0.4514  0.4686 -0.1230
  363MOL0     H48985   5.815   9.861   1.637 -0.5906 -1.8248  1.5261
  363MOL0     H48986   5.999   9.884   1.625  2.8641  1.5876  2.8093
  363MOL0     H48987   6.668   9.650   1.450  0.6064 -0.7216  0.1382
  363MOL0     H48988   6.901   9.667   1.400  0.9860 -0.3422  0.1490
  363MOL0     H48989   7.303   9.690   1.490 -1.2839 -0.5751  0.0936
  363MOL0     H48990   7.513   9.715   1.423 -1.9973  0.7502  0.9353
  363MOL0     H48991   9.026  10.683   2.033  0.8452  1.9446 -0.5217
  363MOL0     H48992   9.250  10.774   1.956 -0.9562  0.7196  1.2692
  363MOL0     H48993   9.529  10.699   1.619 -1.2125 -0.1493  3.1369
  363MOL0     H48994   9.715  10.832   1.506 -0.0079  2.7400  1.8969
  363MOL0     H48995  10.120  10.969   1.574  1.1744  0.0163 -0.8235
  363MOL0     H48996  10.109  10.900   1.739  2.2598 -0.9162  0.5326
  363MOL0     H48997  10.112  10.680   1.657 -0.0287  1.1156  0.8972
  363MOL0     H48998  10.269  10.778   1.621  1.4029 -1.2760 -3.1365
  363MOL0     H48999  10.264  10.677   1.421  0.9418  1.6279 -0.3238
  363MOL0     H49000  10.183  10.827   1.403  3.7755  1.1791  2.3513
  363MOL0     H49001   9.968  10.710   1.373  1.8521  1.5017  0.4032
  363MOL0     H49002  10.035  10.561   1.442  0.2407 -2.2066 -1.4421
  363MOL0     H49003  10.186  10.522   1.058  0.2735  0.8247 -0.8227
  363MOL0     H49004   9.984  10.735   1.805  1.3960  0.9900 -2.8618
  363MOL0     H49005   9.795  10.599   1.934  0.2460 -1.1275 -0.5468
  364MOL0     O49006   6.897   7.472   5.991  0.1024 -0.0706 -0.2647
  364MOL0     C49007   6.979   7.457   6.075  0.0304 -0.2924 -0.7542
  364MOL0     O49008   7.079   7.360   6.081  0.2375  0.1737  0.2229
  364MOL0     C49009   7.086   7.266   5.983 -0.1301  0.4606  0.2818
  364MOL0     C49010   7.122   7.130   6.014 -0.9603  0.5641 -0.2420
  364MOL0     C49011   7.135   7.044   5.910  0.4266 -0.5106 -0.2005
  364MOL0     C49012   7.118   7.076   5.775  0.0836 -0.9047  0.1085
  364MOL0     O49013   7.137   6.983   5.683  0.8323  1.1329 -0.4676
  364MOL0     C49014   7.129   7.024   5.544  0.0458 -0.6909 -0.2372
  364MOL0     C49015   7.264   7.023   5.475 -0.1789 -0.4492  0.6842
  364MOL0     C49016   7.349   6.903   5.473 -0.7113 -0.9198 -0.5044
  364MOL0     C49017   7.487   6.930   5.417 -0.0981  0.9179  0.3705
  364MOL0     C49018   7.567   6.801   5.445  0.2217  0.4047 -0.2495
  364MOL0     C49019   7.708   6.810   5.381 -0.4823 -0.5816  0.2386
  364MOL0     C49020   7.790   6.709   5.459  0.5980 -0.5154  0.0154
  364MOL0     C49021   7.923   6.682   5.393 -0.7799  0.2489  0.4281
  364MOL0     N49022   8.009   6.799   5.384  0.4165  0.5484 -0.2184
  364MOL0     C49023   8.108   6.829   5.468 -0.2732  0.2708 -0.6123
  364MOL0     C49024   8.168   6.937   5.416  0.6628  0.2505  0.2277
  364MOL0     C49025   8.269   7.033   5.466  0.7519 -0.5156  0.6074
  364MOL0     C49026   8.304   7.023   5.618  0.6856 -0.9500  0.9283
  364MOL0     C49027   8.189   7.052   5.716 -0.2270 -0.3496  0.0719
  364MOL0     C49028   8.242   7.054   5.861 -0.2545 -1.0280 -0.8365
  364MOL0     O49029   8.336   7.161   5.889 -0.6199  0.6655  1.2835
  364MOL0     C49030   8.321   7.237   5.998  0.6661 -0.4503 -0.1246
  364MOL0     C49031   8.434   7.257   6.079 -0.6192  0.6757  0.0697
  364MOL0     C49032   8.438   7.346   6.188  0.4773  0.1073  1.4331
  364MOL0     C49033   8.562   7.363   6.269 -0.5829 -0.4214 -0.9717
  364MOL0     C49034   8.316   7.420   6.216  0.2910  0.5279  0.7627
  364MOL0     C49035   8.315   7.515   6.324 -0.7542  0.7894 -0.8107
  364MOL0     O49036   8.367   7.469   6.442 -0.9205 -0.1700 -1.2850
  364MOL0     C49037   8.389   7.570   6.542  0.6366  1.1354  0.5131
  364MOL0     C49038   8.512   7.563   6.603 -1.4137  0.2871  0.6247
  364MOL0     C49039   8.550   7.655   6.701  0.1378 -0.1233 -0.4373
  364MOL0     C49040   8.456   7.742   6.748  0.2003 -0.5054  0.1861
  364MOL0     O49041   8.496   7.817   6.854 -0.6007 -0.5845  0.0975
  364MOL0     C49042   8.410   7.935   6.875 -0.1538  0.7809 -1.2320
  364MOL0     C49043   8.484   8.019   6.982  0.2090  0.1274 -0.5262
  364MOL0     C49044   8.407   8.037   7.115  0.2678 -0.6944  0.4919
  364MOL0     C49045   8.270   8.107   7.113 -0.3413  0.0236  0.6791
  364MOL0     C49046   8.286   8.250   7.111  0.6672 -0.0572  0.3711
  364MOL0     C49047   8.137   8.304   7.102  0.2044  0.3563 -1.0147
  364MOL0     C49048   8.143   8.460   7.086 -0.3659  0.9984 -0.2525
  364MOL0     C49049   8.008   8.519   7.071  0.2628 -0.2419  0.2661
  364MOL0    Cl49050   8.009   8.692   7.099 -0.0925 -0.2273  0.4471
  364MOL0     C49051   8.325   7.745   6.689  1.1511 -0.4915 -0.4958
  364MOL0     C49052   8.288   7.663   6.581  0.5510  0.3488 -0.6510
  364MOL0     O49053   8.278   7.623   6.297 -0.0544 -0.3046  0.0159
  364MOL0     C49054   8.201   7.382   6.143 -0.0138 -0.2175 -0.4270
  364MOL0     C49055   8.200   7.298   6.035 -0.1822  0.2935 -0.2185
  364MOL0     N49056   8.099   6.970   5.300 -0.1174 -0.5271 -0.2918
  364MOL0     N49057   8.000   6.897   5.289  0.5877  0.9909  0.8616
  364MOL0     C49058   7.095   7.212   5.744 -1.2192  0.1456  0.0066
  364MOL0     C49059   7.091   7.305   5.851 -0.1311  0.1069 -0.3608
  364MOL0     C49060   6.971   7.552   6.188  0.4635 -0.0848  0.0188
  364MOL0     C49061   6.858   7.634   6.205  0.2589 -0.3617  0.0867
  364MOL0     C49062   6.864   7.740   6.293  0.1485  0.3641  0.3771
  364MOL0     C49063   6.965   7.755   6.383 -0.3286 -0.5154 -0.9820
  364MOL0     O49064   6.965   7.848   6.485  0.6291 -0.8979 -0.3720
  364MOL0     C49065   6.852   7.897   6.556  0.8133  0.3652 -0.1298
  364MOL0     C49066   6.776   8.007   6.475  0.1500 -0.6026  0.2317
  364MOL0     C49067   6.816   8.144   6.536  0.7449  0.1650 -0.0392
  364MOL0     C49068   6.774   8.259   6.448 -0.1103  0.6190  0.0741
  364MOL0     C49069   6.781   8.386   6.524 -0.3656  0.0122  0.1726
  364MOL0     C49070   6.791   8.485   6.593 -0.0932 -0.0132 -0.6810
  364MOL0     C49071   7.075   7.675   6.370 -0.4959  0.0206 -0.4866
  364MOL0     C49072   7.081   7.570   6.274  0.8684  0.5146  0.1802
  364MOL0     H49073   7.107   7.090   6.114 -0.7869  1.0580 -0.0172
  364MOL0     H49074   7.141   6.940   5.939 -0.4304  0.2865  3.3350
  364MOL0     H49075   7.064   6.943   5.509 -1.3376 -1.0298  2.8298
  364MOL0     H49076   7.075   7.113   5.511  1.5600  0.0372 -0.8826
  364MOL0     H49077   7.235   7.058   5.375 -1.6519  3.9412  2.4211
  364MOL0     H49078   7.325   7.102   5.521 -0.6179 -1.2187  2.6727
  364MOL0     H49079   7.362   6.874   5.578  0.5802 -1.7932 -0.8912
  364MOL0     H49080   7.295   6.825   5.418 -1.9876  0.6838 -1.6300
  364MOL0     H49081   7.463   6.946   5.312  0.1806 -1.1247 -0.0577
  364MOL0     H49082   7.541   7.012   5.465  2.2586 -0.1126 -0.3630
  364MOL0     H49083   7.578   6.780   5.552 -0.7751 -1.8296 -0.5163
  364MOL0     H49084   7.515   6.715   5.401 -2.0670  3.2669 -3.6661
  364MOL0     H49085   7.721   6.776   5.278 -2.4574 -1.2325  0.1749
  364MOL0     H49086   7.749   6.912   5.377 -1.5471 -0.1630 -0.5184
  364MOL0     H49087   7.816   6.749   5.558 -2.7325 -2.3050  1.7922
  364MOL0     H49088   7.734   6.616   5.471 -0.1392  0.1203  2.1269
  364MOL0     H49089   7.916   6.640   5.292  0.1665 -0.2232  0.5471
  364MOL0     H49090   7.971   6.606   5.456  1.0267 -1.1492 -2.4125
  364MOL0     H49091   8.130   6.782   5.564 -0.5589 -1.4134 -1.3385
  364MOL0     H49092   8.365   7.010   5.418 -0.1298 -2.3662 -0.3774
  364MOL0     H49093   8.235   7.134   5.440 -1.8641 -1.1807  1.1866
  364MOL0     H49094   8.393   7.083   5.636  1.6717 -2.5023  1.4235
  364MOL0     H49095   8.337   6.921   5.639  1.1890 -1.2633 -1.1735
  364MOL0     H49096   8.103   6.986   5.700 -0.7755  0.5632 -0.8697
  364MOL0     H49097   8.145   7.148   5.688 -1.6657 -1.2744 -0.9731
  364MOL0     H49098   8.292   6.962   5.892 -1.9901 -1.5023  0.7417
  364MOL0     H49099   8.152   7.072   5.921  0.5885  3.7480 -0.5586
  364MOL0     H49100   8.526   7.201   6.068 -0.5641  0.8390 -0.3399
  364MOL0     H49101   8.576   7.469   6.288 -1.3176 -0.3011 -1.0972
  364MOL0     H49102   8.558   7.308   6.363  1.4604 -1.8606 -1.6396
  364MOL0     H49103   8.653   7.332   6.216  0.9399  0.7502  0.8435
  364MOL0     H49104   8.570   7.478   6.568  0.4525  2.0530 -0.8692
  364MOL0     H49105   8.649   7.657   6.745  0.1968 -0.0806 -0.5705
  364MOL0     H49106   8.391   7.987   6.781 -0.7201  1.3168 -0.8319
  364MOL0     H49107   8.309   7.912   6.911  0.4730 -0.0671  0.0793
  364MOL0     H49108   8.581   7.974   7.004 -0.0326 -0.2901 -0.2849
  364MOL0     H49109   8.492   8.117   6.934 -4.0672  2.1688  2.3052
  364MOL0     H49110   8.472   8.101   7.175  0.9669  2.2706 -3.0746
  364MOL0     H49111   8.390   7.935   7.153  0.1132 -0.5583  0.7860
  364MOL0     H49112   8.216   8.080   7.021  0.3689  0.1661  0.2160
  364MOL0     H49113   8.217   8.077   7.204  3.6310  3.3416  4.4945
  364MOL0     H49114   8.332   8.276   7.014 -0.6773  1.7215  0.1652
  364MOL0     H49115   8.337   8.293   7.198 -2.2390  2.0893  1.1392
  364MOL0     H49116   8.080   8.259   7.020 -2.2040 -0.6374  1.0737
  364MOL0     H49117   8.084   8.275   7.193  0.9128 -0.0988 -0.7371
  364MOL0     H49118   8.219   8.484   7.011 -0.2078 -1.0291 -0.8041
  364MOL0     H49119   8.175   8.500   7.183 -0.3201  0.3847 -0.0102
  364MOL0     H49120   7.929   8.478   7.134 -1.2286 -2.5313 -2.8416
  364MOL0     H49121   7.966   8.501   6.972 -0.7574 -0.5740  0.7390
  364MOL0     H49122   8.248   7.807   6.733 -0.1227 -2.0101 -0.4792
  364MOL0     H49123   8.190   7.661   6.534  0.3397  1.7432 -0.3225
  364MOL0     H49124   8.114   7.433   6.182  1.4708  1.4317  0.8691
  364MOL0     H49125   8.105   7.270   5.992  1.9720 -1.1068 -4.6677
  364MOL0     H49126   7.099   7.250   5.643  2.3587  0.2756  0.0899
  364MOL0     H49127   7.083   7.412   5.833 -0.8474  0.2216  0.5332
  364MOL0     H49128   6.769   7.631   6.143 -0.4530 -3.6139  1.0651
  364MOL0     H49129   6.776   7.804   6.295 -0.7290 -0.7755 -0.5506
  364MOL0     H49130   6.777   7.817   6.567  0.1173  0.5297 -2.9479
  364MOL0     H49131   6.890   7.934   6.652  0.2031  1.0907 -0.1591
  364MOL0     H49132   6.671   7.998   6.448  0.5873  3.0713 -3.7019
  364MOL0     H49133   6.819   7.999   6.375  1.2258 -2.1657  0.7827
  364MOL0     H49134   6.922   8.148   6.566  0.9701  0.0374 -0.7858
  364MOL0     H49135   6.765   8.156   6.632  0.4480  0.1356 -0.1953
  364MOL0     H49136   6.675   8.248   6.403  0.3718 -4.2339 -0.2856
  364MOL0     H49137   6.843   8.275   6.364  2.3971 -0.9479  1.7112
  364MOL0     H49138   6.807   8.576   6.648  2.3125  0.5064 -2.0693
  364MOL0     H49139   7.157   7.684   6.441  0.6253  1.8733 -1.9410
  364MOL0     H49140   7.166   7.504   6.258 -1.5633 -2.2578 -2.8993
  365MOL0     O49141   8.017  10.700   4.837 -0.1298 -0.4237 -0.2603
  365MOL0     C49142   7.914  10.673   4.895 -0.4603  0.5904  0.2709
  365MOL0     O49143   7.818  10.603   4.840  0.1972 -0.2065 -0.4118
  365MOL0     C49144   7.842  10.555   4.716 -0.0201 -0.4181  0.5217
  365MOL0     C49145   7.806  10.627   4.604  0.5839  0.9585 -0.3169
  365MOL0     C49146   7.820  10.561   4.482  0.0645 -0.0545  0.6278
  365MOL0     C49147   7.864  10.429   4.472  0.4044  0.5540 -0.6085
  365MOL0     O49148   7.882  10.363   4.350  0.6837 -0.1280 -0.0663
  365MOL0     C49149   7.801  10.398   4.243  0.2697  0.5137  0.4300
  365MOL0     C49150   7.796  10.287   4.135  0.4490 -0.5181  0.1332
  365MOL0     C49151   7.920  10.284   4.054 -0.2609  0.1023 -0.2416
  365MOL0     C49152   7.938  10.402   3.958  0.1028  0.3008 -0.6759
  365MOL0     C49153   8.024  10.370   3.836  0.1921 -0.0494  0.0590
  365MOL0     C49154   8.124  10.480   3.803  0.3664 -1.0909 -0.8040
  365MOL0     C49155   8.220  10.434   3.695  0.5084 -0.7058 -0.6080
  365MOL0     C49156   8.367  10.409   3.742  0.6420  0.7866  0.0946
  365MOL0     N49157   8.383  10.278   3.807  0.6728 -1.1524 -0.0361
  365MOL0     C49158   8.393  10.270   3.937  0.3338  0.5312  0.4027
  365MOL0     C49159   8.417  10.136   3.965 -0.0924  0.4105 -1.1638
  365MOL0     C49160   8.442  10.052   4.088 -0.1208  0.3846  0.5704
  365MOL0     C49161   8.315   9.978   4.133 -0.6239  0.6656  0.5059
  365MOL0     C49162   8.218  10.077   4.204  0.6337 -0.4172 -0.0944
  365MOL0     C49163   8.097  10.016   4.271  0.9543  0.1663 -0.0321
  365MOL0     O49164   8.121   9.914   4.371  0.5434  0.0233 -0.3245
  365MOL0     C49165   8.172   9.954   4.493 -0.7358 -0.1270 -0.2935
  365MOL0     C49166   8.079   9.979   4.602  0.0405  0.6346  0.5486
  365MOL0     C49167   8.127  10.022   4.722  0.3333 -0.7825 -0.1852
  365MOL0     C49168   8.017  10.055   4.819 -0.4119 -0.8955 -0.6761
  365MOL0     C49169   8.270  10.049   4.740  0.0886  0.0579  0.7315
  365MOL0     C49170   8.329  10.105   4.865  0.5380 -0.0258 -0.1450
  365MOL0     O49171   8.469  10.104   4.875  0.0543 -0.7091 -0.0536
  365MOL0     C49172   8.514  10.157   4.988 -0.7376 -1.6326  0.7962
  365MOL0     C49173   8.530  10.299   5.009 -0.2594  0.1298 -0.3033
  365MOL0     C49174   8.576  10.350   5.140  0.4944 -0.1551 -0.5386
  365MOL0     C49175   8.633  10.258   5.237 -0.1716 -0.6111  0.2721
  365MOL0     O49176   8.694  10.299   5.353 -0.1485  0.4982 -0.4932
  365MOL0     C49177   8.777  10.415   5.346 -0.6182 -0.1099  1.1131
  365MOL0     C49178   8.730  10.522   5.439 -0.3383 -0.1099 -0.2505
  365MOL0     C49179   8.827  10.648   5.461 -0.5178 -0.2366 -0.9674
  365MOL0     C49180   8.960  10.616   5.547  0.3551 -0.7399 -0.1689
  365MOL0     C49181   9.045  10.743   5.574 -0.1209  0.4788  0.2215
  365MOL0     C49182   8.962  10.864   5.631 -0.3687 -0.8182 -1.1251
  365MOL0     C49183   8.876  10.833   5.756  0.0313  0.5788  0.1411
  365MOL0     C49184   8.783  10.950   5.801  0.0782  0.1194  0.1186
  365MOL0    Cl49185   8.865  11.114   5.810  0.0920 -0.2086 -0.1734
  365MOL0     C49186   8.620  10.124   5.208  0.4927  0.0270  0.6113
  365MOL0     C49187   8.558  10.079   5.092  0.1637  0.8267  0.6200
  365MOL0     O49188   8.249  10.149   4.947  0.7374 -0.1487 -0.1829
  365MOL0     C49189   8.357  10.023   4.635  0.7176  0.0522  0.7515
  365MOL0     C49190   8.315   9.974   4.506 -0.5078 -0.2874  0.0439
  365MOL0     N49191   8.421  10.072   3.838  1.0793  0.1064  0.8364
  365MOL0     N49192   8.400  10.162   3.749  0.1684 -0.8911  0.0351
  365MOL0     C49193   7.911  10.367   4.582  1.1331 -0.7251  0.6734
  365MOL0     C49194   7.903  10.433   4.707  0.3289  1.0756  0.8728
  365MOL0     C49195   7.901  10.720   5.030 -0.5071 -0.2206  0.2763
  365MOL0     C49196   7.790  10.686   5.108 -0.7102  0.1924  0.6961
  365MOL0     C49197   7.770  10.750   5.230  0.1730  0.8747 -0.2636
  365MOL0     C49198   7.868  10.828   5.292 -0.3716 -0.7930 -0.6295
  365MOL0     O49199   7.845  10.867   5.426 -0.1146  0.1339 -0.3636
  365MOL0     C49200   7.948  10.810   5.521  1.1692  0.7015  0.1394
  365MOL0     C49201   7.939  10.870   5.661  0.1409  0.6861 -0.7221
  365MOL0     C49202   7.811  10.853   5.734 -0.5455  0.0491  1.1654
  365MOL0     C49203   7.803  10.871   5.881  0.1813 -0.6470 -0.3442
  365MOL0     C49204   7.870  10.751   5.947  0.0558  0.3064 -0.5797
  365MOL0     C49205   7.937  10.668   5.994 -0.5139 -0.0489 -0.3008
  365MOL0     C49206   7.975  10.877   5.213 -0.2764  0.3407 -0.7995
  365MOL0     C49207   7.994  10.821   5.079  0.4700  0.7110 -0.3969
  365MOL0     H49208   7.767  10.727   4.618  1.6160  1.2135  0.9709
  365MOL0     H49209   7.775  10.611   4.396 -1.6359 -2.4591  0.0077
  365MOL0     H49210   7.696  10.398   4.273  0.0056  1.3953 -0.4405
  365MOL0     H49211   7.816  10.500   4.207  2.7459  1.2523  3.1722
  365MOL0     H49212   7.775  10.188   4.175 -0.2146  0.2506  1.7530
  365MOL0     H49213   7.707  10.306   4.075 -0.0336 -1.7967  0.4146
  365MOL0     H49214   8.000  10.288   4.129  0.4829 -1.4573 -0.8959
  365MOL0     H49215   7.924  10.185   4.007 -0.8108 -2.0326  3.7488
  365MOL0     H49216   7.838  10.427   3.921 -1.1457  3.5159  3.9550
  365MOL0     H49217   7.973  10.491   4.010 -1.5185 -0.5278  2.0097
  365MOL0     H49218   8.077  10.279   3.867 -2.9001 -3.0933 -2.7505
  365MOL0     H49219   7.962  10.341   3.751 -0.2037 -1.2130  0.7151
  365MOL0     H49220   8.073  10.568   3.761 -0.3505 -1.6859 -1.2031
  365MOL0     H49221   8.183  10.508   3.890  3.7312  0.3686 -3.3002
  365MOL0     H49222   8.189  10.343   3.642  1.8305 -1.0253 -0.8609
  365MOL0     H49223   8.219  10.517   3.624 -1.4951  1.2201  1.4975
  365MOL0     H49224   8.403  10.493   3.802  1.7811  1.3116 -1.2678
  365MOL0     H49225   8.424  10.419   3.648  1.4023 -0.2036  0.4301
  365MOL0     H49226   8.386  10.349   4.012  2.7571  1.6492 -0.4431
  365MOL0     H49227   8.521   9.979   4.071 -1.7879 -2.2033  3.1385
  365MOL0     H49228   8.487  10.116   4.165  2.1193  2.3799 -2.2084
  365MOL0     H49229   8.344   9.900   4.205  1.9875  2.0345  1.0856
  365MOL0     H49230   8.263   9.940   4.045 -3.5279  0.1404  2.3370
  365MOL0     H49231   8.172  10.142   4.129  2.4243  0.5369 -0.4191
  365MOL0     H49232   8.280  10.137   4.272  3.0076 -1.9457 -0.8066
  365MOL0     H49233   8.041   9.961   4.194  1.5662 -0.4693 -0.0324
  365MOL0     H49234   8.028  10.092   4.310 -1.9260 -2.2991  0.0288
  365MOL0     H49235   7.973   9.955   4.591  0.3691 -0.3883 -0.5792
  365MOL0     H49236   7.924  10.004   4.793 -0.9482  0.3907 -1.3853
  365MOL0     H49237   8.048  10.017   4.917  1.2764  2.9629  0.4846
  365MOL0     H49238   8.007  10.164   4.821  0.3274 -0.8232  1.5659
  365MOL0     H49239   8.510  10.367   4.927 -0.0069 -1.2365 -1.5491
  365MOL0     H49240   8.575  10.456   5.165 -2.1430  0.5421 -3.0906
  365MOL0     H49241   8.872  10.377   5.384 -0.9798  0.0743  2.2384
  365MOL0     H49242   8.800  10.449   5.244  0.7038  0.0452  1.4394
  365MOL0     H49243   8.634  10.559   5.402  0.0966  1.9454  0.5392
  365MOL0     H49244   8.712  10.474   5.535  1.9495 -0.3830  0.1021
  365MOL0     H49245   8.772  10.734   5.499 -0.9764  0.5949 -3.3461
  365MOL0     H49246   8.857  10.676   5.360 -1.1779 -0.6716 -1.2834
  365MOL0     H49247   8.928  10.596   5.650 -1.2708 -1.6083 -0.8091
  365MOL0     H49248   9.025  10.535   5.514  0.0986 -0.5221 -1.2421
  365MOL0     H49249   9.092  10.775   5.480 -1.5217 -0.7526 -0.9576
  365MOL0     H49250   9.127  10.715   5.641  1.0972  1.5233 -0.7590
  365MOL0     H49251   9.042  10.936   5.651 -2.0056  1.8585 -3.5734
  365MOL0     H49252   8.904  10.916   5.555 -1.2338  1.3128  0.9043
  365MOL0     H49253   8.939  10.808   5.841 -0.7141  2.4169  1.3006
  365MOL0     H49254   8.820  10.741   5.736  1.0337 -0.2250  0.9801
  365MOL0     H49255   8.748  10.928   5.902  4.0541  3.4089  2.5132
  365MOL0     H49256   8.715  10.947   5.715  0.6506 -1.2011 -0.3149
  365MOL0     H49257   8.650  10.057   5.288 -1.4483  0.5714  1.8501
  365MOL0     H49258   8.549   9.971   5.086  1.5930  0.6555  1.2169
  365MOL0     H49259   8.464  10.033   4.646  1.0115 -0.1143 -1.5252
  365MOL0     H49260   8.388   9.952   4.429  0.5383  0.2946  0.8394
  365MOL0     H49261   7.962  10.271   4.570  1.7965 -0.3302  0.2616
  365MOL0     H49262   7.928  10.372   4.793 -2.2896 -1.1497  0.2219
  365MOL0     H49263   7.722  10.606   5.081  0.8473 -0.6400 -0.9857
  365MOL0     H49264   7.681  10.719   5.284  1.3471  1.1167  1.9114
  365MOL0     H49265   7.935  10.702   5.536  0.8779  0.7172  0.0053
  365MOL0     H49266   8.046  10.829   5.476  0.8326  0.8953 -0.5136
  365MOL0     H49267   7.974  10.974   5.656  3.4611 -0.1786  1.3085
  365MOL0     H49268   8.021  10.811   5.703  0.5368  0.5448 -1.6576
  365MOL0     H49269   7.775  10.751   5.726  0.8840 -0.4368  0.6506
  365MOL0     H49270   7.727  10.912   5.695 -1.3614 -0.3022  2.3428
  365MOL0     H49271   7.701  10.878   5.919  0.1518 -1.7804 -0.2042
  365MOL0     H49272   7.862  10.959   5.910  0.0655 -0.7201  0.1195
  365MOL0     H49273   8.007  10.591   6.022  0.0397  0.5106 -0.1280
  365MOL0     H49274   8.043  10.950   5.254 -0.1630  0.3402 -0.9820
  365MOL0     H49275   8.075  10.854   5.015 -0.1410  0.1305 -1.5004
  366MOL0     O49276   2.859  10.262  11.319 -0.0435  0.4543 -0.8277
  366MOL0     C49277   2.883  10.361  11.239  0.4514  0.7391 -0.0801
  366MOL0     O49278   2.804  10.469  11.206  0.2891 -0.2364  0.2520
  366MOL0     C49279   2.668  10.451  11.218 -0.0575  1.1665  0.0846
  366MOL0     C49280   2.595  10.323  11.221 -0.2388  1.1650  0.4398
  366MOL0     C49281   2.453  10.309  11.221 -0.8226 -0.2639  1.4656
  366MOL0     C49282   2.382  10.428  11.213 -0.0136 -0.2578  0.3480
  366MOL0     O49283   2.249  10.438  11.206 -0.1555 -0.3394 -0.5443
  366MOL0     C49284   2.167  10.336  11.258  0.2186  0.1500 -0.8619
  366MOL0     C49285   2.020  10.377  11.248 -0.6556 -0.1436  0.0677
  366MOL0     C49286   2.008  10.510  11.329  0.6163  0.3998 -0.4829
  366MOL0     C49287   1.878  10.577  11.308  0.1346 -0.1984 -0.1213
  366MOL0     C49288   1.773  10.516  11.408  0.1854 -0.5806 -0.4495
  366MOL0     C49289   1.657  10.600  11.425 -0.1098 -0.1079 -0.4340
  366MOL0     C49290   1.675  10.733  11.497  0.4916  0.3899 -0.4131
  366MOL0     C49291   1.545  10.802  11.554  0.2833  0.8030 -0.0046
  366MOL0     N49292   1.571  10.935  11.602 -0.0626 -0.2351  0.5076
  366MOL0     C49293   1.536  11.049  11.527 -0.5056  0.7538  0.0010
  366MOL0     C49294   1.569  11.151  11.605 -0.5279 -0.8335  0.3240
  366MOL0     C49295   1.564  11.293  11.565 -0.1233 -0.1380  0.3795
  366MOL0     C49296   1.694  11.358  11.521  0.8610  0.6917 -0.1341
  366MOL0     C49297   1.745  11.289  11.397 -0.7200  0.4130  0.1975
  366MOL0     C49298   1.863  11.365  11.325  0.1789  1.0544 -0.3182
  366MOL0     O49299   1.826  11.482  11.254 -0.3665  0.1578 -0.0188
  366MOL0     C49300   1.793  11.442  11.127  0.2662 -0.9169 -0.7611
  366MOL0     C49301   1.898  11.389  11.045  0.7032 -0.1171 -0.4020
  366MOL0     C49302   1.877  11.361  10.908 -0.1851 -0.3430  0.3503
  366MOL0     C49303   1.997  11.333  10.813 -0.2979 -0.4460  0.3047
  366MOL0     C49304   1.745  11.373  10.854  0.1031 -0.1187 -0.0102
  366MOL0     C49305   1.707  11.312  10.720 -0.0239  0.1476  0.2580
  366MOL0     O49306   1.608  11.389  10.653 -0.1916  0.7673  0.1719
  366MOL0     C49307   1.503  11.339  10.582  1.0118 -0.0077 -0.9645
  366MOL0     C49308   1.426  11.432  10.515  0.2001  0.5516  0.0464
  366MOL0     C49309   1.308  11.391  10.447 -0.1695 -0.7335  0.2580
  366MOL0     C49310   1.276  11.253  10.450  0.9599 -0.2106  0.3881
  366MOL0     O49311   1.156  11.210  10.392 -0.0002 -0.5639  0.2895
  366MOL0     C49312   1.055  11.193  10.492 -0.6545  0.6368 -0.2759
  366MOL0     C49313   0.988  11.320  10.512  0.3289 -0.5723  0.1834
  366MOL0     C49314   0.899  11.328  10.641 -0.1740  0.3969  0.1039
  366MOL0     C49315   0.981  11.370  10.756  0.0493  0.0612  0.1207
  366MOL0     C49316   0.956  11.296  10.890  0.5956 -0.1156  0.5652
  366MOL0     C49317   0.806  11.296  10.939 -0.3545 -0.2569  0.1420
  366MOL0     C49318   0.748  11.428  10.996 -0.5043 -0.1132  0.0834
  366MOL0     C49319   0.677  11.414  11.122  0.4235  0.0399 -0.0535
  366MOL0    Cl49320   0.798  11.388  11.262  0.0404  0.0278  0.0110
  366MOL0     C49321   1.359  11.160  10.514  0.5204  0.3809  0.8395
  366MOL0     C49322   1.474  11.203  10.577 -0.3428 -0.5904  0.6967
  366MOL0     O49323   1.751  11.201  10.682 -0.0429 -0.2739  0.8188
  366MOL0     C49324   1.650  11.443  10.933 -0.4758  0.2780  0.1398
  366MOL0     C49325   1.666  11.466  11.072 -0.2372 -0.0080  0.1624
  366MOL0     N49326   1.603  11.104  11.735  0.2134  0.1995 -0.4116
  366MOL0     N49327   1.592  10.971  11.730 -1.3948  0.0420 -0.6173
  366MOL0     C49328   2.449  10.553  11.211  0.0437  0.0843  0.7069
  366MOL0     C49329   2.592  10.565  11.211  0.1553 -0.2144 -1.1241
  366MOL0     C49330   3.020  10.381  11.208 -0.3225  0.1238 -1.3982
  366MOL0     C49331   3.070  10.485  11.136 -0.1121  0.9770  0.8018
  366MOL0     C49332   3.208  10.498  11.114 -0.4190 -0.6070  0.7274
  366MOL0     C49333   3.310  10.409  11.159  0.4342 -0.1677 -0.5872
  366MOL0     O49334   3.444  10.403  11.121 -0.0042 -0.1389 -0.6391
  366MOL0     C49335   3.472  10.499  11.018  0.4734 -0.2147  0.7419
  366MOL0     C49336   3.611  10.488  10.952  0.1733 -0.0249 -0.5718
  366MOL0     C49337   3.620  10.340  10.893  0.3852  0.2117 -0.4228
  366MOL0     C49338   3.764  10.311  10.843 -0.4971  0.5289  0.6050
  366MOL0     C49339   3.775  10.399  10.723 -0.1567 -0.1139 -0.0380
  366MOL0     C49340   3.798  10.456  10.618  0.5179 -0.5031  0.1061
  366MOL0     C49341   3.264  10.306  11.242  0.5021 -0.0575  1.3010
  366MOL0     C49342   3.124  10.298  11.269 -0.2751  0.7172 -0.7861
  366MOL0     H49343   2.643  10.226  11.234  0.9705  1.5204 -1.0764
  366MOL0     H49344   2.411  10.209  11.231 -0.5930 -0.2657  2.4857
  366MOL0     H49345   2.186  10.245  11.201 -0.7111 -0.5480 -0.0901
  366MOL0     H49346   2.200  10.337  11.362  0.8535  3.8585 -0.9502
  366MOL0     H49347   1.989  10.393  11.144  2.5289 -0.1864 -1.0029
  366MOL0     H49348   1.961  10.291  11.280 -3.7378  0.5492 -3.1808
  366MOL0     H49349   2.036  10.493  11.433  1.6170  1.3149 -0.5903
  366MOL0     H49350   2.081  10.583  11.293  2.2790 -1.3683 -0.8268
  366MOL0     H49351   1.889  10.684  11.328  1.6507 -0.3342 -0.1218
  366MOL0     H49352   1.858  10.572  11.200  1.9847  1.2262 -0.5862
  366MOL0     H49353   1.724  10.423  11.380 -5.7991  2.2853 -1.0988
  366MOL0     H49354   1.829  10.509  11.502  1.9216 -0.4848 -1.4240
  366MOL0     H49355   1.590  10.607  11.338 -0.0269  1.1999 -0.4206
  366MOL0     H49356   1.589  10.543  11.489  1.9917 -0.4637  1.5884
  366MOL0     H49357   1.735  10.718  11.587 -0.8629 -0.6656  0.3380
  366MOL0     H49358   1.726  10.799  11.425  0.4235  0.8238 -0.0665
  366MOL0     H49359   1.496  10.757  11.641  0.9502  2.3058  1.2038
  366MOL0     H49360   1.468  10.804  11.477 -0.2121 -0.7093  0.4182
  366MOL0     H49361   1.520  11.055  11.420  3.7215 -1.2145 -0.9556
  366MOL0     H49362   1.483  11.308  11.493 -3.3261  0.0300  3.7196
  366MOL0     H49363   1.522  11.347  11.650 -0.0666  3.6020 -1.7562
  366MOL0     H49364   1.761  11.343  11.606 -0.3168 -0.0694  0.6851
  366MOL0     H49365   1.685  11.465  11.502  1.3314  0.9181  0.8909
  366MOL0     H49366   1.664  11.273  11.325  1.5629  0.0437 -2.4592
  366MOL0     H49367   1.784  11.189  11.420 -2.0897  0.0586  1.0924
  366MOL0     H49368   1.922  11.298  11.262 -0.4432  2.1407 -2.1234
  366MOL0     H49369   1.936  11.399  11.399  0.7688 -2.6176  1.0159
  366MOL0     H49370   1.990  11.348  11.083  1.1269  0.4842 -0.7513
  366MOL0     H49371   2.090  11.368  10.858 -0.5465  0.2819  0.2554
  366MOL0     H49372   2.010  11.226  10.795  1.0038 -0.2619  0.0754
  366MOL0     H49373   1.984  11.381  10.716  0.2102 -2.1234 -0.6464
  366MOL0     H49374   1.448  11.538  10.513  0.0613  0.6440 -3.3332
  366MOL0     H49375   1.253  11.468  10.392 -1.0650 -1.1264  0.5840
  366MOL0     H49376   0.990  11.113  10.456 -1.3279  0.4081  1.3397
  366MOL0     H49377   1.092  11.144  10.582 -1.5411  0.7907  0.1842
  366MOL0     H49378   1.055  11.406  10.518  0.3645 -0.6889  1.9440
  366MOL0     H49379   0.913  11.348  10.437 -2.5500  3.9539  4.1431
  366MOL0     H49380   0.847  11.231  10.647 -0.7746  0.5052 -2.2204
  366MOL0     H49381   0.823  11.405  10.631 -2.8540 -2.0085  0.5000
  366MOL0     H49382   1.089  11.356  10.739  0.7685  1.8494  2.5902
  366MOL0     H49383   0.970  11.479  10.761  2.2300  0.2718  2.2782
  366MOL0     H49384   1.024  11.327  10.971 -0.3072 -1.5512  1.9260
  366MOL0     H49385   0.998  11.196  10.873  1.9247  0.4976  0.0626
  366MOL0     H49386   0.738  11.262  10.861 -1.9315  1.5660  0.6459
  366MOL0     H49387   0.790  11.218  11.014 -0.8511  0.5124  0.8656
  366MOL0     H49388   0.685  11.478  10.922  0.0792 -0.4140 -0.6313
  366MOL0     H49389   0.825  11.501  11.020  0.1726 -0.8802  0.2927
  366MOL0     H49390   0.614  11.328  11.096  2.0869 -1.1819 -0.1670
  366MOL0     H49391   0.604  11.492  11.146 -0.1261 -0.8561  1.3496
  366MOL0     H49392   1.322  11.058  10.509 -1.9463  1.2581 -1.7022
  366MOL0     H49393   1.530  11.119  10.617 -1.6198 -0.7824  2.1608
  366MOL0     H49394   1.551  11.451  10.889 -0.4722  0.0764  0.0920
  366MOL0     H49395   1.595  11.522  11.133  0.6848 -0.3332  1.5771
  366MOL0     H49396   2.397  10.648  11.221  2.1819  1.3717  0.3568
  366MOL0     H49397   2.649  10.657  11.214  0.1038 -0.2032  0.0980
  366MOL0     H49398   3.008  10.555  11.082 -2.3765 -1.6869 -0.3288
  366MOL0     H49399   3.233  10.581  11.049 -1.0477 -1.5135 -0.7389
  366MOL0     H49400   3.399  10.494  10.936 -0.8301  0.6288  1.7990
  366MOL0     H49401   3.471  10.605  11.045 -1.2644  0.3185 -1.1392
  366MOL0     H49402   3.689  10.499  11.028 -1.8385 -0.8053  1.7400
  366MOL0     H49403   3.625  10.564  10.874  0.1726 -0.8056 -1.3453
  366MOL0     H49404   3.551  10.337  10.808 -0.0302  1.8489 -0.1764
  366MOL0     H49405   3.589  10.265  10.967 -1.9017 -0.0877 -1.6109
  366MOL0     H49406   3.770  10.209  10.806 -0.0860  0.6228  0.4028
  366MOL0     H49407   3.856  10.323  10.902  2.6201 -2.3403 -3.1771
  366MOL0     H49408   3.807  10.500  10.521 -0.1758  1.5801  0.9132
  366MOL0     H49409   3.336  10.238  11.287  1.9045 -1.1335 -2.2370
  366MOL0     H49410   3.103  10.213  11.333  0.8732  2.1306  1.6312
  367MOL0     O49411   3.431  11.219  10.959 -0.1511  0.0265  0.1839
  367MOL0     C49412   3.457  11.099  10.937 -0.5753  0.6288 -0.1209
  367MOL0     O49413   3.390  10.992  10.983 -0.4429 -0.2508 -0.1224
  367MOL0     C49414   3.259  10.997  11.025 -0.5321  0.3940  0.8860
  367MOL0     C49415   3.171  11.084  10.954 -0.7298  0.0522 -0.6411
  367MOL0     C49416   3.034  11.090  11.000 -0.0084  0.2809  0.0078
  367MOL0     C49417   2.987  11.016  11.104 -0.2643 -0.5809 -0.7561
  367MOL0     O49418   2.857  11.014  11.160 -0.0452  0.0758 -0.2172
  367MOL0     C49419   2.745  11.050  11.076 -0.4734 -0.6361 -0.0595
  367MOL0     C49420   2.641  10.941  11.093  0.2932 -0.4065  0.1796
  367MOL0     C49421   2.505  10.982  11.026  0.4459 -0.2568 -0.2914
  367MOL0     C49422   2.395  10.881  11.067 -0.9528  0.1265 -0.1429
  367MOL0     C49423   2.254  10.938  11.054 -0.5059  0.1321 -0.2609
  367MOL0     C49424   2.154  10.822  11.074  0.0003  0.2660 -0.2513
  367MOL0     C49425   1.998  10.839  11.056 -1.1037 -0.5379 -0.4228
  367MOL0     C49426   1.946  10.956  11.146  0.0351  0.1206  0.6432
  367MOL0     N49427   1.806  10.999  11.131 -0.8513  0.9201  0.5858
  367MOL0     C49428   1.752  11.067  11.024 -0.8023  0.7112  0.1184
  367MOL0     C49429   1.622  11.032  11.031  0.3297 -0.4796 -0.1501
  367MOL0     C49430   1.515  11.074  10.940  0.1573 -0.4400 -0.0073
  367MOL0     C49431   1.422  11.193  10.994  0.1119 -0.4693  1.2026
  367MOL0     C49432   1.342  11.152  11.123  0.1869  0.1042 -0.5813
  367MOL0     C49433   1.268  11.017  11.132 -0.3520  0.3628  0.2879
  367MOL0     O49434   1.134  11.037  11.074 -0.0426 -0.5519  0.1069
  367MOL0     C49435   1.040  11.024  11.169  0.2862 -0.6139  0.8097
  367MOL0     C49436   0.975  10.908  11.177  0.2937  0.5001 -0.2839
  367MOL0     C49437   0.875  10.892  11.276 -0.1304 -0.2265  0.3295
  367MOL0     C49438   0.782  10.782  11.256 -1.2668  0.7665  0.1958
  367MOL0     C49439   0.844  11.000  11.367  1.0690  0.4910  0.3172
  367MOL0     C49440   0.743  10.983  11.478 -0.9296  1.3081 -0.0198
  367MOL0     O49441   0.778  11.038  11.596  0.6547  0.1984  0.5807
  367MOL0     C49442   0.686  11.031  11.692  0.4381 -0.1911  0.0608
  367MOL0     C49443   0.598  11.129  11.716  0.1688 -0.5216  0.3459
  367MOL0     C49444   0.507  11.122  11.815  0.2118 -1.2280  0.7529
  367MOL0     C49445   0.502  11.011  11.891 -0.7384  0.2892  1.3936
  367MOL0     O49446   0.409  11.010  11.991 -0.1597 -0.3872  0.4820
  367MOL0     C49447   0.306  10.914  11.985 -0.8018 -0.4811 -0.7902
  367MOL0     C49448   0.187  10.969  12.072 -0.0618 -0.5926  0.5818
  367MOL0     C49449   0.062  10.909  12.017  0.0509  0.6511  0.0338
  367MOL0     C49450  -0.064  10.926  12.105 -0.8270 -0.3572  0.3733
  367MOL0     C49451  -0.103  11.068  12.148 -0.2140 -0.1693 -0.2418
  367MOL0     C49452  -0.125  11.166  12.024  0.5090  0.5455  0.6229
  367MOL0     C49453  -0.245  11.269  12.039 -0.5260 -0.1233  0.1583
  367MOL0     C49454  -0.236  11.390  12.133 -0.0493 -0.0744 -0.4649
  367MOL0    Cl49455  -0.094  11.479  12.078 -0.1547 -0.3961 -0.5397
  367MOL0     C49456   0.587  10.903  11.870  0.8621  1.3207  0.8414
  367MOL0     C49457   0.669  10.912  11.764 -0.1225  0.5181  0.0796
  367MOL0     O49458   0.638  10.926  11.455 -0.4656  0.3637  0.1038
  367MOL0     C49459   0.922  11.120  11.363  0.4732  0.1411  0.2370
  367MOL0     C49460   1.008  11.136  11.253 -0.1029 -0.3079  0.4712
  367MOL0     N49461   1.597  10.964  11.147  0.3361  0.1777  0.4535
  367MOL0     N49462   1.711  10.957  11.223  0.4481  0.4215  1.5482
  367MOL0     C49463   3.073  10.930  11.163  0.5373  0.2634  0.8506
  367MOL0     C49464   3.209  10.919  11.128  0.5818  0.8735  0.6526
  367MOL0     C49465   3.580  11.075  10.860 -0.6787 -0.0582  0.3334
  367MOL0     C49466   3.683  11.169  10.865  0.9189 -0.0241  0.4388
  367MOL0     C49467   3.801  11.146  10.801  0.3392 -1.1794  0.5926
  367MOL0     C49468   3.821  11.027  10.728 -0.2055 -0.2888  0.4147
  367MOL0     O49469   3.930  10.999  10.655 -0.1345 -0.1207 -0.0096
  367MOL0     C49470   4.007  11.112  10.625 -0.4963 -0.0424 -0.3850
  367MOL0     C49471   4.082  11.085  10.492 -0.0113 -0.4096 -1.6954
  367MOL0     C49472   4.206  10.999  10.514  0.2337  0.8675 -0.1066
  367MOL0     C49473   4.251  10.914  10.392  0.1215  0.2203 -0.2998
  367MOL0     C49474   4.290  11.003  10.282 -0.4532 -0.6255 -0.5900
  367MOL0     C49475   4.342  11.065  10.193  0.6035 -0.2091  0.2138
  367MOL0     C49476   3.725  10.923  10.734  0.3170  0.5998  0.3402
  367MOL0     C49477   3.604  10.949  10.798  0.5408 -0.0831 -0.6026
  367MOL0     H49478   3.199  11.150  10.873  0.4293 -0.4893 -0.7034
  367MOL0     H49479   2.966  11.161  10.955  0.1457 -1.9449 -4.3283
  367MOL0     H49480   2.713  11.147  11.115  3.8392  0.2896  1.6551
  367MOL0     H49481   2.772  11.067  10.971 -0.1343  1.3009  0.3092
  367MOL0     H49482   2.666  10.845  11.047 -0.9590  0.4117 -2.4129
  367MOL0     H49483   2.637  10.928  11.201 -1.4084  1.9170  0.4734
  367MOL0     H49484   2.467  11.080  11.055 -0.1346 -0.3968 -0.5622
  367MOL0     H49485   2.526  10.987  10.918  0.6643 -1.2280 -0.3060
  367MOL0     H49486   2.419  10.794  11.004 -1.7471  0.5288 -1.0403
  367MOL0     H49487   2.409  10.859  11.173  2.2793 -0.5314 -0.5896
  367MOL0     H49488   2.240  11.019  11.127  0.3704 -1.4406  1.7401
  367MOL0     H49489   2.234  10.982  10.956 -1.7442 -0.6209 -0.3601
  367MOL0     H49490   2.187  10.743  11.006  0.7395  1.2207 -1.0273
  367MOL0     H49491   2.177  10.792  11.177  1.6530  0.1876 -0.6265
  367MOL0     H49492   1.972  10.854  10.951 -1.7049 -0.8527 -0.3226
  367MOL0     H49493   1.958  10.744  11.093  1.7714 -1.2671  1.1500
  367MOL0     H49494   2.010  11.045  11.145 -0.6194  0.6015 -0.6357
  367MOL0     H49495   1.956  10.933  11.252  1.4725  0.2503  0.5591
  367MOL0     H49496   1.805  11.127  10.951 -0.4022 -0.8590 -0.9198
  367MOL0     H49497   1.566  11.102  10.848 -2.2855  0.3475 -1.2159
  367MOL0     H49498   1.454  10.991  10.904  1.4257 -1.1766 -0.4921
  367MOL0     H49499   1.357  11.227  10.912  1.9747 -3.4325 -1.7615
  367MOL0     H49500   1.473  11.285  11.023 -2.2057  0.9424  1.0379
  367MOL0     H49501   1.278  11.233  11.160  2.4220  2.2240 -1.0793
  367MOL0     H49502   1.410  11.141  11.208 -1.4228 -1.1929  0.6251
  367MOL0     H49503   1.267  10.987  11.237  1.5007 -1.0608 -0.0659
  367MOL0     H49504   1.323  10.942  11.075  1.1580  3.2289 -2.3324
  367MOL0     H49505   0.998  10.827  11.109  2.6373  1.3416 -0.5633
  367MOL0     H49506   0.783  10.726  11.350  1.8904 -0.7332 -0.6040
  367MOL0     H49507   0.680  10.814  11.232 -1.4363  0.6343  0.7221
  367MOL0     H49508   0.821  10.716  11.178 -1.5984  1.8015 -0.8827
  367MOL0     H49509   0.623  11.226  11.674 -2.5004  0.1997  0.2350
  367MOL0     H49510   0.432  11.201  11.817  0.5488 -0.8386 -0.6613
  367MOL0     H49511   0.285  10.902  11.878  3.6214 -3.5652 -1.5779
  367MOL0     H49512   0.352  10.823  12.024 -0.3267 -0.1709 -0.6106
  367MOL0     H49513   0.208  10.946  12.177 -1.2245 -2.9590  0.3596
  367MOL0     H49514   0.179  11.075  12.048  3.4494 -0.0755  1.2233
  367MOL0     H49515   0.074  10.800  12.014 -3.4208  0.1626 -0.1410
  367MOL0     H49516   0.043  10.935  11.912  0.8619 -1.9622 -0.8556
  367MOL0     H49517  -0.149  10.882  12.053 -1.5751  0.7725  0.6004
  367MOL0     H49518  -0.039  10.881  12.202  1.3098  2.7517  1.4513
  367MOL0     H49519  -0.042  11.113  12.226  0.3588  1.0401 -1.3601
  367MOL0     H49520  -0.203  11.039  12.183  0.1291 -1.1441 -0.0177
  367MOL0     H49521  -0.031  11.221  12.021  0.6715  0.2357 -1.0481
  367MOL0     H49522  -0.151  11.112  11.933 -2.0662  0.9555  1.0245
  367MOL0     H49523  -0.343  11.221  12.047 -2.5335  2.9371 -3.0589
  367MOL0     H49524  -0.251  11.329  11.948 -2.6462 -2.6593 -1.5377
  367MOL0     H49525  -0.216  11.357  12.236 -0.5166 -0.4254 -0.4848
  367MOL0     H49526  -0.317  11.463  12.121  2.4909  2.8337 -1.3104
  367MOL0     H49527   0.578  10.808  11.921  0.7444  0.9068  0.0753
  367MOL0     H49528   0.730  10.823  11.754 -1.3780 -0.2511 -0.9257
  367MOL0     H49529   0.904  11.199  11.436  3.8551  0.3714  1.0081
  367MOL0     H49530   1.059  11.230  11.232  0.6531 -0.9736 -0.7930
  367MOL0     H49531   3.040  10.874  11.251 -0.6192 -0.6504 -0.1271
  367MOL0     H49532   3.274  10.856  11.187 -2.0915 -2.0759  0.7574
  367MOL0     H49533   3.673  11.275  10.883 -0.2889  1.4332 -6.0994
  367MOL0     H49534   3.882  11.218  10.810  1.2194 -1.8768 -1.2257
  367MOL0     H49535   3.958  11.207  10.601 -1.1345 -0.6464 -1.5360
  367MOL0     H49536   4.079  11.123  10.707 -2.1149 -1.2591  1.2706
  367MOL0     H49537   4.108  11.187  10.462 -0.3057  2.0202  4.6586
  367MOL0     H49538   4.015  11.030  10.425 -2.0872  1.1249 -1.0013
  367MOL0     H49539   4.187  10.920  10.587  1.5556  1.5600  1.0203
  367MOL0     H49540   4.295  11.054  10.545  1.5038 -0.3043 -1.4848
  367MOL0     H49541   4.176  10.852  10.344 -0.0569  0.9128 -0.9215
  367MOL0     H49542   4.339  10.854  10.418  1.5822  2.4485  0.2006
  367MOL0     H49543   4.387  11.130  10.121 -1.6977  1.6986  0.3378
  367MOL0     H49544   3.757  10.828  10.693  2.9141  1.4237  0.2967
  367MOL0     H49545   3.534  10.866  10.797  1.3662 -0.7978 -1.9222
  368MOL0     O49546   6.640   6.965  11.362 -0.6109  0.4408 -0.0362
  368MOL0     C49547   6.657   6.841  11.371  0.4714 -0.0204  0.4007
  368MOL0     O49548   6.766   6.775  11.339  0.8449  0.1106  0.7427
  368MOL0     C49549   6.877   6.826  11.275 -0.5492 -0.4052  0.6127
  368MOL0     C49550   6.897   6.809  11.134  0.1575  1.3327  1.1544
  368MOL0     C49551   6.998   6.880  11.072 -0.4021  0.0744  0.9335
  368MOL0     C49552   7.096   6.950  11.146  0.2031 -0.2573  0.2823
  368MOL0     O49553   7.217   6.991  11.088 -0.2222 -0.4337 -0.7666
  368MOL0     C49554   7.275   7.113  11.138 -0.2993  0.2661 -0.5975
  368MOL0     C49555   7.409   7.113  11.075 -0.1858  0.9833 -0.0486
  368MOL0     C49556   7.395   7.182  10.940  0.5504 -1.3065  0.4795
  368MOL0     C49557   7.484   7.114  10.832  1.2449  0.0743 -0.3589
  368MOL0     C49558   7.480   7.183  10.691  0.1851 -0.3639  0.6612
  368MOL0     C49559   7.624   7.202  10.623 -0.4649  0.6952 -0.3646
  368MOL0     C49560   7.701   7.064  10.616  0.0886 -0.6529  0.5264
  368MOL0     C49561   7.812   7.063  10.516  0.4798 -0.1380 -0.0800
  368MOL0     N49562   7.920   7.135  10.581  0.2364  0.2243 -0.1397
  368MOL0     C49563   7.940   7.269  10.580 -0.1182 -0.1692 -0.5525
  368MOL0     C49564   8.063   7.287  10.607 -1.4332 -0.4811 -0.0113
  368MOL0     C49565   8.146   7.414  10.616 -1.1335 -0.4949 -0.0748
  368MOL0     C49566   8.090   7.515  10.721  0.2678 -0.2468 -0.8611
  368MOL0     C49567   8.185   7.638  10.720 -0.1630  0.3610 -0.3885
  368MOL0     C49568   8.182   7.724  10.847 -0.0536 -0.4267  0.3265
  368MOL0     O49569   8.054   7.753  10.891 -0.3575 -0.3773  0.1085
  368MOL0     C49570   7.986   7.674  10.980 -0.2657  0.6964 -0.3346
  368MOL0     C49571   7.857   7.637  10.947  0.9575  0.3623 -0.4367
  368MOL0     C49572   7.782   7.547  11.015 -0.7673 -0.0202  0.1958
  368MOL0     C49573   7.648   7.513  10.956 -0.0329 -0.3303  0.8689
  368MOL0     C49574   7.841   7.482  11.127  0.2803 -0.8329  0.4594
  368MOL0     C49575   7.763   7.399  11.225 -0.8516  0.5858 -0.5267
  368MOL0     O49576   7.838   7.326  11.309 -0.4381  0.4403  0.2419
  368MOL0     C49577   7.813   7.197  11.315  0.4401  0.2119  0.1539
  368MOL0     C49578   7.808   7.122  11.198  0.5818  0.7087 -0.0983
  368MOL0     C49579   7.789   6.982  11.212  0.1679 -0.0074  0.2504
  368MOL0     C49580   7.793   6.913  11.337  0.1983 -0.6262 -1.1489
  368MOL0     O49581   7.788   6.780  11.338  0.2736  0.8793  0.2039
  368MOL0     C49582   7.745   6.709  11.461  1.2946 -0.0014 -1.2071
  368MOL0     C49583   7.590   6.723  11.484 -0.4302  0.0994  0.5548
  368MOL0     C49584   7.514   6.665  11.354 -0.4917 -0.0630 -0.9701
  368MOL0     C49585   7.364   6.646  11.375 -0.3755  0.0832 -0.1464
  368MOL0     C49586   7.325   6.508  11.439 -0.1990  0.2888 -0.3877
  368MOL0     C49587   7.315   6.399  11.327  1.1638  0.2088  0.0402
  368MOL0     C49588   7.248   6.264  11.382 -0.5897 -0.1481  0.2518
  368MOL0     C49589   7.245   6.145  11.291 -0.1846 -0.4203 -0.2296
  368MOL0    Cl49590   7.167   6.006  11.370 -0.1072  0.2282 -0.3384
  368MOL0     C49591   7.823   6.999  11.446  0.2333 -0.7511 -0.2331
  368MOL0     C49592   7.840   7.139  11.431  0.0000  0.1472  0.3748
  368MOL0     O49593   7.647   7.390  11.215  0.3997 -0.0028  0.6038
  368MOL0     C49594   7.975   7.502  11.154 -0.3571  1.1218 -0.2040
  368MOL0     C49595   8.052   7.592  11.078  0.1548  0.0350 -0.7535
  368MOL0     N49596   8.122   7.163  10.625 -0.2796  0.7864  0.5158
  368MOL0     N49597   8.038   7.066  10.617  0.9747 -0.0679  0.2678
  368MOL0     C49598   7.084   6.951  11.291 -0.3274  0.1392 -0.0613
  368MOL0     C49599   6.977   6.888  11.354  0.0245 -0.2366  0.5943
  368MOL0     C49600   6.543   6.758  11.428  0.2074  0.1074 -0.6826
  368MOL0     C49601   6.421   6.818  11.459 -0.3070  0.4688  0.3554
  368MOL0     C49602   6.317   6.748  11.512 -0.3896 -0.0303 -0.6237
  368MOL0     C49603   6.337   6.614  11.557 -0.6903  0.1728 -0.2633
  368MOL0     O49604   6.240   6.540  11.623  0.0019 -0.2187 -0.0737
  368MOL0     C49605   6.108   6.592  11.645  1.1181 -1.6151  0.2576
  368MOL0     C49606   6.101   6.685  11.768 -0.7076  1.0653  1.1815
  368MOL0     C49607   6.091   6.610  11.906  1.0213 -0.6258  0.3774
  368MOL0     C49608   6.176   6.485  11.912 -0.0224 -0.0165  0.2681
  368MOL0     C49609   6.126   6.415  12.031 -0.3022  0.2450  0.1678
  368MOL0     C49610   6.089   6.324  12.095  0.0419  0.4143  0.0335
  368MOL0     C49611   6.469   6.557  11.551  0.2418 -0.8013  0.8606
  368MOL0     C49612   6.566   6.630  11.483  0.3446  0.7015  0.2137
  368MOL0     H49613   6.849   6.730  11.076  0.8003 -0.8885  3.4789
  368MOL0     H49614   7.015   6.858  10.967 -0.8557  1.3883  0.5541
  368MOL0     H49615   7.213   7.202  11.127  2.8947  2.8329  0.4816
  368MOL0     H49616   7.288   7.101  11.246 -2.2412 -1.1155 -0.4620
  368MOL0     H49617   7.486   7.169  11.130 -0.9995  1.8879  0.1815
  368MOL0     H49618   7.445   7.010  11.065  0.0744  1.0614  0.0667
  368MOL0     H49619   7.291   7.174  10.909  1.4091 -1.1843 -2.8535
  368MOL0     H49620   7.422   7.288  10.946  2.0654 -1.5610 -0.8284
  368MOL0     H49621   7.587   7.109  10.868  0.7229  0.5989  1.3209
  368MOL0     H49622   7.448   7.011  10.827  0.3185  0.1893  2.3645
  368MOL0     H49623   7.416   7.125  10.623 -2.2467  0.1273  2.4141
  368MOL0     H49624   7.436   7.281  10.711 -0.0822 -0.4401  0.4560
  368MOL0     H49625   7.621   7.253  10.527 -0.0140  0.3532 -0.5630
  368MOL0     H49626   7.668   7.278  10.688 -1.2374  0.2113  0.7557
  368MOL0     H49627   7.737   7.038  10.716  0.5686  0.1416  0.5732
  368MOL0     H49628   7.632   6.985  10.585  1.1516 -1.0320 -1.0274
  368MOL0     H49629   7.781   7.110  10.422  3.5656 -0.6742 -1.4858
  368MOL0     H49630   7.850   6.963  10.496 -0.6800 -0.4752 -0.6737
  368MOL0     H49631   7.881   7.343  10.528  0.9475  1.8374  0.9712
  368MOL0     H49632   8.251   7.388  10.633 -0.4488  0.5440 -2.3947
  368MOL0     H49633   8.134   7.471  10.524  1.4779  5.4253  2.6969
  368MOL0     H49634   8.107   7.459  10.814 -0.2952 -1.5669 -1.5322
  368MOL0     H49635   7.985   7.539  10.704  0.0519 -0.7928 -0.3300
  368MOL0     H49636   8.165   7.696  10.630  0.7647 -1.4905 -1.8625
  368MOL0     H49637   8.285   7.596  10.708 -0.8841 -2.2281  1.6141
  368MOL0     H49638   8.243   7.811  10.819 -2.2346  0.4032 -2.2483
  368MOL0     H49639   8.247   7.667  10.914 -0.6459 -2.2756 -0.5961
  368MOL0     H49640   7.815   7.700  10.869 -1.1025 -0.9939 -0.5196
  368MOL0     H49641   7.630   7.581  10.872 -0.0090  0.5614  1.5572
  368MOL0     H49642   7.650   7.412  10.916  0.3331 -1.2819  3.1160
  368MOL0     H49643   7.565   7.526  11.026 -0.2969 -0.0693  0.5076
  368MOL0     H49644   7.806   7.157  11.096  0.2385 -1.4187 -0.8828
  368MOL0     H49645   7.772   6.912  11.130  1.4179  1.6446 -1.5042
  368MOL0     H49646   7.763   6.602  11.445 -0.5858 -0.4974 -0.3237
  368MOL0     H49647   7.792   6.747  11.552  0.6229  3.4373 -2.1519
  368MOL0     H49648   7.560   6.661  11.569 -1.4563 -0.7435 -0.3947
  368MOL0     H49649   7.571   6.829  11.504  2.7864  0.8986 -0.0394
  368MOL0     H49650   7.548   6.564  11.328 -1.7952 -1.2880  1.7506
  368MOL0     H49651   7.526   6.729  11.266 -1.3981 -1.9018 -2.4956
  368MOL0     H49652   7.324   6.728  11.435  0.2039 -2.0008  3.3232
  368MOL0     H49653   7.311   6.654  11.279 -2.5599  0.5384  1.0241
  368MOL0     H49654   7.234   6.507  11.500  0.0468 -0.6787 -0.0139
  368MOL0     H49655   7.398   6.466  11.509  0.3167 -0.6155 -1.4349
  368MOL0     H49656   7.258   6.431  11.240  0.6188 -1.5128 -0.2617
  368MOL0     H49657   7.420   6.374  11.306  1.1601  0.7413 -0.6284
  368MOL0     H49658   7.148   6.286  11.421 -0.5664 -2.0655  1.5020
  368MOL0     H49659   7.310   6.234  11.467  1.6381  0.1493 -1.2006
  368MOL0     H49660   7.347   6.109  11.274  0.0648  0.1561  0.0231
  368MOL0     H49661   7.200   6.179  11.197 -2.8345  2.7844  1.9858
  368MOL0     H49662   7.844   6.964  11.546 -0.1927  2.2021  0.9953
  368MOL0     H49663   7.869   7.210  11.508  1.3667  1.7107 -1.4970
  368MOL0     H49664   8.033   7.440  11.222  0.3676 -2.0892 -3.4656
  368MOL0     H49665   8.158   7.612  11.095 -0.0802 -0.3881  1.5695
  368MOL0     H49666   7.159   7.000  11.352  0.9036  1.5894 -2.5642
  368MOL0     H49667   6.977   6.879  11.462  2.7350 -0.7621  0.6211
  368MOL0     H49668   6.387   6.918  11.435 -3.1706  0.1524  2.4119
  368MOL0     H49669   6.224   6.802  11.522 -0.2115  0.5913 -2.0378
  368MOL0     H49670   6.074   6.660  11.566 -1.6511 -2.0408  0.9790
  368MOL0     H49671   6.033   6.513  11.649 -0.1784 -0.4090  3.1509
  368MOL0     H49672   6.001   6.728  11.761 -0.7350  0.6909 -2.1336
  368MOL0     H49673   6.167   6.772  11.764 -0.2500  0.6869  0.1102
  368MOL0     H49674   5.987   6.581  11.919  0.8923 -0.6822 -0.7613
  368MOL0     H49675   6.118   6.689  11.977  2.2640 -0.0264 -0.7133
  368MOL0     H49676   6.280   6.511  11.930  0.4275  1.4711 -3.5011
  368MOL0     H49677   6.185   6.414  11.829  1.7262 -0.1017  0.4991
  368MOL0     H49678   6.053   6.243  12.154 -1.6775 -0.2854 -1.8724
  368MOL0     H49679   6.491   6.462  11.599  0.1781 -1.0814  0.3380
  368MOL0     H49680   6.666   6.589  11.484 -1.1039 -3.4134 -1.0165
  369MOL0     O49681   5.587   8.069   5.360  0.8217 -0.0850 -0.2469
  369MOL0     C49682   5.627   7.975   5.438 -0.4967 -0.2128  0.7757
  369MOL0     O49683   5.562   7.919   5.543  0.5910  0.3491  0.2915
  369MOL0     C49684   5.436   7.960   5.575 -0.5784  0.2606 -0.4508
  369MOL0     C49685   5.349   7.867   5.631  0.2556 -0.7508  0.7770
  369MOL0     C49686   5.226   7.901   5.691 -1.0353 -0.1764  0.1625
  369MOL0     C49687   5.188   8.036   5.682  0.7954  1.3159  0.5308
  369MOL0     O49688   5.068   8.078   5.736  0.5781  0.0717  0.4910
  369MOL0     C49689   4.955   7.988   5.738 -0.3982 -0.5002  0.2734
  369MOL0     C49690   4.825   8.069   5.755 -0.1768 -0.1192  0.4235
  369MOL0     C49691   4.696   7.992   5.723  0.3922  0.2905 -0.3191
  369MOL0     C49692   4.681   7.872   5.826 -0.0331 -0.6257 -0.3176
  369MOL0     C49693   4.535   7.828   5.810  0.4511 -0.7983 -0.8301
  369MOL0     C49694   4.450   7.884   5.927  0.1564 -0.4547  0.7885
  369MOL0     C49695   4.305   7.857   5.907  0.0010 -0.1277  0.4305
  369MOL0     C49696   4.221   7.995   5.920 -0.1168 -0.0762  0.1646
  369MOL0     N49697   4.236   8.094   5.812 -0.3849  0.2024  0.1042
  369MOL0     C49698   4.149   8.107   5.707  0.5034 -1.0769  0.1167
  369MOL0     C49699   4.194   8.195   5.619  0.3403 -0.6124 -0.2674
  369MOL0     C49700   4.136   8.262   5.495 -0.3780  0.3320 -0.0874
  369MOL0     C49701   4.015   8.353   5.533 -0.1158  0.2392 -0.9016
  369MOL0     C49702   3.982   8.446   5.412  0.6938 -0.0876  0.2319
  369MOL0     C49703   3.841   8.487   5.425  0.0232  0.2626  0.1584
  369MOL0     O49704   3.824   8.557   5.550  0.3115 -0.3541 -0.2940
  369MOL0     C49705   3.715   8.637   5.581 -0.9763 -0.6856  0.3818
  369MOL0     C49706   3.607   8.650   5.501  0.9779  0.2186  0.4779
  369MOL0     C49707   3.488   8.722   5.543  0.1236  0.5999  0.2374
  369MOL0     C49708   3.381   8.739   5.438 -0.7122 -1.1914  0.0699
  369MOL0     C49709   3.477   8.762   5.671  0.6197  0.2103  0.0607
  369MOL0     C49710   3.360   8.849   5.718 -0.4431 -0.5229 -0.7978
  369MOL0     O49711   3.382   8.951   5.814 -0.4827  0.0502  0.4142
  369MOL0     C49712   3.279   9.034   5.850 -0.8316  0.5201  0.9369
  369MOL0     C49713   3.188   9.083   5.753 -1.0512 -0.3447  0.6941
  369MOL0     C49714   3.089   9.172   5.803  0.1751  0.0781 -0.0852
  369MOL0     C49715   3.066   9.204   5.935  1.4486 -0.5206 -0.8766
  369MOL0     O49716   2.964   9.296   5.955  0.1299 -0.1252  1.1552
  369MOL0     C49717   2.978   9.366   6.082  0.3187  0.1240 -1.2538
  369MOL0     C49718   2.877   9.482   6.096 -0.1268 -0.0824  0.5297
  369MOL0     C49719   2.915   9.601   6.005 -0.2886  0.2999 -0.0592
  369MOL0     C49720   2.808   9.706   6.017 -0.5533  0.3362  0.0703
  369MOL0     C49721   2.840   9.824   5.917  0.1142  0.3360  0.7822
  369MOL0     C49722   2.740   9.941   5.929  0.7301  0.6652 -0.7188
  369MOL0     C49723   2.764  10.030   6.059 -0.0336  1.0722  0.0213
  369MOL0     C49724   2.672  10.151   6.069 -0.7787  1.3339  0.5625
  369MOL0    Cl49725   2.686  10.250   5.919 -0.1056  0.2993 -0.5198
  369MOL0     C49726   3.144   9.139   6.033 -0.2009 -0.5723 -0.0265
  369MOL0     C49727   3.260   9.076   5.983  0.3684 -0.2822  0.9374
  369MOL0     O49728   3.247   8.810   5.681 -0.4970 -0.3052 -0.0159
  369MOL0     C49729   3.583   8.753   5.754 -0.0627  0.2524 -0.2354
  369MOL0     C49730   3.704   8.689   5.707 -0.3015  0.3782 -0.1071
  369MOL0     N49731   4.309   8.244   5.679  1.2493  0.5823  0.2071
  369MOL0     N49732   4.342   8.177   5.785  0.3967  0.2132  0.5751
  369MOL0     C49733   5.271   8.135   5.626 -0.4156  0.3054  0.9550
  369MOL0     C49734   5.397   8.094   5.578  0.7292  0.6431 -0.1575
  369MOL0     C49735   5.770   7.932   5.405  0.2295  0.2145 -0.4225
  369MOL0     C49736   5.847   8.019   5.325 -0.2593 -0.2371  0.0694
  369MOL0     C49737   5.988   7.998   5.321 -0.0928  0.2210 -0.9987
  369MOL0     C49738   6.055   7.904   5.401  0.1638 -1.1464  0.2404
  369MOL0     O49739   6.187   7.893   5.404 -0.4769 -0.8955 -0.1375
  369MOL0     C49740   6.259   7.997   5.476 -1.4069 -0.3803  0.6339
  369MOL0     C49741   6.221   7.994   5.624  0.3950 -0.3857 -0.0821
  369MOL0     C49742   6.263   8.109   5.716  0.0597 -0.1609 -0.6085
  369MOL0     C49743   6.222   8.103   5.866  0.0618  0.7346  0.4969
  369MOL0     C49744   6.275   7.988   5.935  0.9663  1.0059 -0.0302
  369MOL0     C49745   6.327   7.898   5.995  0.3291  0.6641 -0.0341
  369MOL0     C49746   5.978   7.822   5.480  0.0192  0.0576 -0.2423
  369MOL0     C49747   5.834   7.838   5.483 -0.0346  0.5850  0.8416
  369MOL0     H49748   5.393   7.768   5.621  0.9795 -0.2010 -4.0680
  369MOL0     H49749   5.171   7.815   5.727  1.2804 -2.0274 -0.4297
  369MOL0     H49750   4.963   7.939   5.641  2.5256 -2.1252  1.1892
  369MOL0     H49751   4.967   7.912   5.816 -0.2368 -2.5094 -1.5975
  369MOL0     H49752   4.811   8.105   5.858 -3.7250  0.6942 -0.1939
  369MOL0     H49753   4.819   8.149   5.681 -2.2612  1.1973  1.8915
  369MOL0     H49754   4.615   8.064   5.737  1.1330  1.3466 -1.2586
  369MOL0     H49755   4.699   7.953   5.621  0.8062 -1.7287  0.4324
  369MOL0     H49756   4.747   7.788   5.803  0.8649 -0.5837  1.8865
  369MOL0     H49757   4.709   7.906   5.926  3.2894 -0.4745 -1.1545
  369MOL0     H49758   4.490   7.847   5.712 -0.2561  0.7477 -0.2545
  369MOL0     H49759   4.532   7.720   5.826 -1.3028 -0.3773  2.6158
  369MOL0     H49760   4.476   7.852   6.028 -0.5370  1.0812  1.4927
  369MOL0     H49761   4.459   7.993   5.928 -0.8896 -0.2042 -2.5151
  369MOL0     H49762   4.281   7.814   5.810  1.6639 -0.7600  0.2706
  369MOL0     H49763   4.262   7.787   5.980 -1.1096  0.0810 -0.0061
  369MOL0     H49764   4.263   8.035   6.012  5.1207 -2.2283 -0.9348
  369MOL0     H49765   4.112   7.990   5.929 -0.0664 -1.9573  0.1826
  369MOL0     H49766   4.061   8.044   5.702  0.8235 -1.5429  0.2899
  369MOL0     H49767   4.217   8.321   5.453 -1.0835  1.2645 -0.1745
  369MOL0     H49768   4.105   8.184   5.425  1.8422 -0.8064  0.1108
  369MOL0     H49769   4.044   8.415   5.619 -3.3098 -2.8219  2.7756
  369MOL0     H49770   3.927   8.301   5.572 -2.7160  3.5263 -1.8466
  369MOL0     H49771   3.991   8.395   5.315 -2.7301 -3.7706  1.5816
  369MOL0     H49772   4.039   8.539   5.404 -0.7181  0.7049 -1.2143
  369MOL0     H49773   3.778   8.399   5.411  0.4947 -0.0707  0.1078
  369MOL0     H49774   3.829   8.562   5.346 -0.7372  1.3266  1.2475
  369MOL0     H49775   3.604   8.605   5.403  0.9344 -2.9535  1.8332
  369MOL0     H49776   3.330   8.834   5.451 -2.0231 -1.9425  0.5825
  369MOL0     H49777   3.419   8.723   5.337  0.3545 -1.1935  0.4472
  369MOL0     H49778   3.311   8.657   5.457 -0.1562 -2.0990 -1.6219
  369MOL0     H49779   3.188   9.064   5.646  0.2921  3.1687 -0.0955
  369MOL0     H49780   3.021   9.216   5.730  0.4251  0.8310  0.1187
  369MOL0     H49781   2.947   9.303   6.166 -0.7333  0.6263 -1.2472
  369MOL0     H49782   3.076   9.405   6.108 -0.4911  0.1811  2.0916
  369MOL0     H49783   2.774   9.455   6.072 -0.0759 -0.9943  1.2865
  369MOL0     H49784   2.871   9.529   6.195  0.4655  1.9540 -0.3530
  369MOL0     H49785   2.927   9.565   5.902 -1.6018 -1.3874  0.3318
  369MOL0     H49786   3.006   9.648   6.044 -0.4573 -1.4573  2.6908
  369MOL0     H49787   2.711   9.664   5.988 -0.4744  1.4137 -1.9609
  369MOL0     H49788   2.800   9.738   6.121 -1.4805 -4.6718  1.8296
  369MOL0     H49789   2.829   9.799   5.811  0.8386 -1.6535  1.1492
  369MOL0     H49790   2.933   9.873   5.946 -0.7872  1.6803  1.5209
  369MOL0     H49791   2.736  10.002   5.838  0.6879  1.6013 -0.1001
  369MOL0     H49792   2.642   9.896   5.945  1.5092 -0.7188  0.4267
  369MOL0     H49793   2.870  10.054   6.069  0.8876 -2.7554  1.1421
  369MOL0     H49794   2.743   9.962   6.142  0.2742 -2.1813 -2.3579
  369MOL0     H49795   2.700  10.211   6.156  5.5076 -0.3065  0.1072
  369MOL0     H49796   2.569  10.113   6.066  0.1600 -1.4505 -2.4776
  369MOL0     H49797   3.140   9.157   6.140  0.4818  1.4417 -0.2882
  369MOL0     H49798   3.336   9.036   6.049  2.4364  1.3634 -0.3125
  369MOL0     H49799   3.578   8.788   5.857  1.7732  0.2779 -0.1194
  369MOL0     H49800   3.793   8.693   5.769  1.0401 -1.6894 -1.7710
  369MOL0     H49801   5.236   8.238   5.622  0.0202  0.4222 -1.2186
  369MOL0     H49802   5.459   8.178   5.546  0.5852  1.9579  2.7210
  369MOL0     H49803   5.803   8.101   5.269  0.5756  0.1090 -0.1005
  369MOL0     H49804   6.052   8.060   5.259  0.6318  1.0539  0.5399
  369MOL0     H49805   6.367   7.981   5.465 -1.0741  2.0142 -0.2717
  369MOL0     H49806   6.228   8.087   5.423 -1.3993 -0.6757  0.1192
  369MOL0     H49807   6.261   7.905   5.673 -0.7664 -1.5231 -1.1404
  369MOL0     H49808   6.112   8.002   5.635  0.5784  4.1259  0.5663
  369MOL0     H49809   6.221   8.200   5.671  1.4790 -0.5824 -2.9482
  369MOL0     H49810   6.372   8.105   5.725 -0.1014 -0.6057  1.7170
  369MOL0     H49811   6.113   8.090   5.872  0.2913 -2.8090 -0.4463
  369MOL0     H49812   6.258   8.194   5.915 -2.0908  0.8665  1.9728
  369MOL0     H49813   6.358   7.815   6.055 -0.8010 -0.3766 -0.8546
  369MOL0     H49814   6.020   7.733   5.526 -1.4311  0.4932  2.1177
  369MOL0     H49815   5.785   7.752   5.527 -0.4649  0.6638  0.5223
  370MOL0     O49816   8.783   4.751   6.898  0.1257 -0.9014 -0.1036
  370MOL0     C49817   8.829   4.831   6.973  0.3982 -0.0648 -0.6048
  370MOL0     O49818   8.858   4.807   7.106 -0.1752 -0.2932 -0.8043
  370MOL0     C49819   8.855   4.684   7.168 -0.9109 -0.5198 -0.2315
  370MOL0     C49820   8.948   4.681   7.273 -0.0170 -0.0700 -0.0026
  370MOL0     C49821   8.966   4.560   7.346  0.4218  0.0629 -0.2268
  370MOL0     C49822   8.897   4.442   7.303  0.7099 -0.0087 -0.2053
  370MOL0     O49823   8.912   4.331   7.377 -0.0665  0.3712  0.1441
  370MOL0     C49824   8.805   4.234   7.393 -0.2634  0.7453 -0.0134
  370MOL0     C49825   8.849   4.124   7.502 -0.2987  1.3675  0.1084
  370MOL0     C49826   8.978   4.055   7.457 -0.1744  1.2178 -0.3508
  370MOL0     C49827   9.038   3.954   7.551 -0.1531 -0.4468  0.0110
  370MOL0     C49828   9.109   3.839   7.487 -0.0831  0.2401 -0.2727
  370MOL0     C49829   9.242   3.876   7.425 -0.4735 -0.3362  0.3257
  370MOL0     C49830   9.299   3.756   7.352 -0.5800  0.0265  0.2373
  370MOL0     C49831   9.435   3.803   7.296 -0.2746 -0.1687  0.2370
  370MOL0     N49832   9.493   3.710   7.205 -0.6605  0.8126 -0.5548
  370MOL0     C49833   9.425   3.655   7.099  1.0543 -0.0566 -0.1791
  370MOL0     C49834   9.499   3.554   7.046 -0.1548 -0.3231 -0.2351
  370MOL0     C49835   9.449   3.451   6.940 -0.3439  0.4591  1.5752
  370MOL0     C49836   9.413   3.516   6.805  0.4479 -0.2613 -1.0908
  370MOL0     C49837   9.448   3.425   6.687 -0.9670  0.7877 -0.4254
  370MOL0     C49838   9.400   3.501   6.566  0.3109  0.4294  0.0998
  370MOL0     O49839   9.469   3.477   6.448  0.0679 -0.0781  0.3997
  370MOL0     C49840   9.441   3.563   6.348  0.0966 -0.5949 -0.3623
  370MOL0     C49841   9.332   3.652   6.337 -0.6886 -0.2923 -0.1095
  370MOL0     C49842   9.307   3.717   6.210 -0.0244 -1.1958 -0.4059
  370MOL0     C49843   9.163   3.772   6.188 -0.2413  0.3227 -1.0376
  370MOL0     C49844   9.400   3.703   6.106  1.2389 -1.0240 -0.5004
  370MOL0     C49845   9.392   3.785   5.983 -0.3741  0.0273 -0.9373
  370MOL0     O49846   9.462   3.719   5.878  0.4116  0.7180  0.1331
  370MOL0     C49847   9.499   3.797   5.771  0.0109  0.6930  0.0742
  370MOL0     C49848   9.424   3.821   5.654  0.8193 -0.3231 -0.2318
  370MOL0     C49849   9.475   3.893   5.546 -0.1700  0.1845 -0.1037
  370MOL0     C49850   9.609   3.937   5.546 -0.3657  0.5556  0.3183
  370MOL0     O49851   9.663   4.024   5.460  0.1023 -0.2882 -0.7170
  370MOL0     C49852   9.652   3.984   5.321 -0.2063 -0.5274  0.4947
  370MOL0     C49853   9.749   4.063   5.232  0.8473 -0.0251  0.1458
  370MOL0     C49854   9.731   4.025   5.087 -0.1074  0.6825  0.5792
  370MOL0     C49855   9.847   4.083   4.997 -0.4309  0.1972  0.7893
  370MOL0     C49856   9.830   4.073   4.844 -0.0612 -0.2872 -0.8393
  370MOL0     C49857   9.963   4.113   4.762 -0.8167  0.7678  0.9814
  370MOL0     C49858   9.943   4.121   4.609 -0.0637  0.2713  0.6574
  370MOL0     C49859  10.057   4.137   4.516 -0.3273  0.2661 -1.0112
  370MOL0    Cl49860  10.161   4.288   4.540  0.3959  0.0720  0.3598
  370MOL0     C49861   9.688   3.914   5.661 -1.0437 -0.3838  0.1102
  370MOL0     C49862   9.635   3.846   5.771 -0.6974  0.7432 -0.4492
  370MOL0     O49863   9.311   3.876   5.968  0.0931  0.5420  0.3455
  370MOL0     C49864   9.503   3.620   6.116 -0.4885 -0.0576 -0.2534
  370MOL0     C49865   9.522   3.549   6.235  0.2145 -0.3508 -0.1029
  370MOL0     N49866   9.614   3.552   7.126 -0.1124 -0.6211  0.5863
  370MOL0     N49867   9.608   3.636   7.226  1.3210 -0.2064  0.3884
  370MOL0     C49868   8.794   4.457   7.206 -0.2668 -0.8399  1.0914
  370MOL0     C49869   8.771   4.584   7.138 -0.0185 -0.4242 -0.3890
  370MOL0     C49870   8.851   4.963   6.924 -1.0738 -0.8211  0.4007
  370MOL0     C49871   8.827   4.997   6.790  0.4992  0.1440  0.2524
  370MOL0     C49872   8.850   5.128   6.735 -0.5232  0.4704  0.2401
  370MOL0     C49873   8.893   5.234   6.818 -0.4334 -0.1263 -0.0069
  370MOL0     O49874   8.929   5.363   6.770  0.1821 -0.6634  0.3047
  370MOL0     C49875   8.950   5.376   6.628  0.0337  0.3818 -0.4252
  370MOL0     C49876   9.023   5.505   6.606 -0.9983 -0.1040 -0.4910
  370MOL0     C49877   8.933   5.625   6.586  0.6019  0.9728  0.3082
  370MOL0     C49878   9.007   5.757   6.568 -0.3731  0.1778  0.2746
  370MOL0     C49879   9.060   5.775   6.434 -0.7510 -0.0218 -0.2389
  370MOL0     C49880   9.109   5.784   6.323 -0.1610  0.2415  0.2262
  370MOL0     C49881   8.920   5.196   6.950 -0.3571  0.2956 -0.6710
  370MOL0     C49882   8.903   5.067   7.007 -0.6418 -0.2090  1.0828
  370MOL0     H49883   9.000   4.773   7.297  0.4927  0.2867 -2.2547
  370MOL0     H49884   9.041   4.547   7.424  1.6012 -2.6726 -1.6854
  370MOL0     H49885   8.716   4.290   7.422 -1.0545  1.0297 -2.7117
  370MOL0     H49886   8.778   4.171   7.307  0.9023  1.0751 -0.6475
  370MOL0     H49887   8.887   4.168   7.595  4.2427 -3.4150  0.9661
  370MOL0     H49888   8.762   4.059   7.517  0.1376  0.0362 -2.5093
  370MOL0     H49889   8.951   4.005   7.363 -0.6285 -0.7570  0.7716
  370MOL0     H49890   9.051   4.135   7.439 -1.5768  2.4737 -0.6457
  370MOL0     H49891   9.102   4.002   7.625 -0.1301 -2.2775  1.2461
  370MOL0     H49892   8.960   3.915   7.617  3.1285 -1.7456  3.5126
  370MOL0     H49893   9.135   3.770   7.568 -0.8400  1.3325  0.9442
  370MOL0     H49894   9.051   3.787   7.411  0.1466  0.3019 -0.4923
  370MOL0     H49895   9.225   3.956   7.352  0.4940 -1.8875 -1.6943
  370MOL0     H49896   9.315   3.914   7.498  0.5533 -0.8384 -0.4269
  370MOL0     H49897   9.311   3.664   7.410 -1.3718 -0.4436 -0.3339
  370MOL0     H49898   9.235   3.730   7.268  0.8503  0.7416 -1.1266
  370MOL0     H49899   9.506   3.829   7.375 -1.3127 -1.3289  1.5860
  370MOL0     H49900   9.414   3.896   7.242  2.2135  0.1595 -0.3119
  370MOL0     H49901   9.324   3.675   7.066  0.2757 -3.0091  0.0812
  370MOL0     H49902   9.535   3.386   6.923 -0.6484  0.3516  0.3179
  370MOL0     H49903   9.359   3.399   6.974 -1.4739 -0.8239 -2.7674
  370MOL0     H49904   9.469   3.608   6.788 -0.5853  0.2985 -1.5685
  370MOL0     H49905   9.307   3.544   6.801  0.9457  1.7872 -1.4889
  370MOL0     H49906   9.397   3.329   6.703  1.1584 -0.1228  1.3597
  370MOL0     H49907   9.554   3.401   6.685 -1.5929 -2.4697 -1.1783
  370MOL0     H49908   9.399   3.608   6.590 -3.1198  0.0006  2.6993
  370MOL0     H49909   9.299   3.461   6.552  0.8310 -2.1271  2.8302
  370MOL0     H49910   9.256   3.646   6.415 -1.8533 -1.4845 -1.2824
  370MOL0     H49911   9.103   3.754   6.277  0.1906 -0.7760 -0.9443
  370MOL0     H49912   9.162   3.879   6.166  3.7968  0.4946 -1.1732
  370MOL0     H49913   9.108   3.714   6.113 -0.7079 -0.2561 -0.2593
  370MOL0     H49914   9.324   3.780   5.655 -0.4716  2.1554  4.8066
  370MOL0     H49915   9.420   3.926   5.459  0.4059  0.4169 -0.3824
  370MOL0     H49916   9.685   3.880   5.318 -0.8467 -0.7483  0.8504
  370MOL0     H49917   9.544   3.992   5.303 -0.2929 -1.5535  0.4720
  370MOL0     H49918   9.724   4.170   5.240 -1.6190 -0.4826 -0.4115
  370MOL0     H49919   9.852   4.042   5.260  0.3438 -2.7001  0.2136
  370MOL0     H49920   9.631   4.058   5.058 -1.4676 -3.3244  0.1035
  370MOL0     H49921   9.720   3.917   5.075  0.8798  0.3385  2.3305
  370MOL0     H49922   9.843   4.191   5.011 -2.5133 -0.1323  3.6174
  370MOL0     H49923   9.946   4.047   5.027 -0.4414 -1.0546 -0.5273
  370MOL0     H49924   9.746   4.123   4.796  2.2898  1.3920 -3.5791
  370MOL0     H49925   9.802   3.970   4.817 -0.8331 -0.4578  0.5492
  370MOL0     H49926  10.005   4.212   4.778  0.5042  0.2162  1.0555
  370MOL0     H49927  10.037   4.042   4.800 -1.3329  0.0704  0.7090
  370MOL0     H49928   9.866   4.193   4.582  1.8293  1.7207 -1.1688
  370MOL0     H49929   9.916   4.016   4.592  1.7297 -0.0757 -0.3827
  370MOL0     H49930  10.029   4.139   4.410 -2.4949  0.8796 -0.4856
  370MOL0     H49931  10.106   4.044   4.543 -0.6759  0.0250 -1.1938
  370MOL0     H49932   9.790   3.950   5.652 -1.5164  1.3639  1.3548
  370MOL0     H49933   9.694   3.824   5.859 -1.5869 -1.0976 -0.2735
  370MOL0     H49934   9.580   3.611   6.040  0.5965  1.6586  0.5952
  370MOL0     H49935   9.613   3.490   6.242 -0.4395 -1.2919  0.7431
  370MOL0     H49936   8.723   4.379   7.179  1.0333 -1.2031 -1.6151
  370MOL0     H49937   8.685   4.591   7.073 -2.9281 -1.0064  3.0404
  370MOL0     H49938   8.791   4.915   6.729  0.3705 -0.3179  0.9450
  370MOL0     H49939   8.837   5.157   6.632 -5.4071  1.1283  0.8089
  370MOL0     H49940   9.001   5.299   6.571 -0.1526  0.7375 -1.0843
  370MOL0     H49941   8.851   5.383   6.582 -0.4793 -0.0114  0.5805
  370MOL0     H49942   9.091   5.493   6.521  1.2185  1.6262  0.9119
  370MOL0     H49943   9.087   5.517   6.694  0.2287 -1.8685 -1.0956
  370MOL0     H49944   8.866   5.624   6.672 -3.3629 -3.5333 -2.2582
  370MOL0     H49945   8.864   5.615   6.501  0.7848 -3.0394  0.4207
  370MOL0     H49946   9.072   5.765   6.655 -1.0042 -1.3235  0.9090
  370MOL0     H49947   8.929   5.834   6.568  0.6920  1.3186 -0.7673
  370MOL0     H49948   9.137   5.822   6.227 -1.7536  2.4069  0.5436
  370MOL0     H49949   8.969   5.271   7.012 -2.3063  1.5094 -0.5006
  370MOL0     H49950   8.941   5.055   7.108 -0.3835  4.4646  1.7729
  371MOL0     O49951   7.692   2.990   8.410  0.0968 -0.0999  0.4585
  371MOL0     C49952   7.772   2.953   8.499  0.4862 -0.9495 -0.4304
  371MOL0     O49953   7.733   2.907   8.624 -0.0083  0.0166 -0.8305
  371MOL0     C49954   7.600   2.865   8.623  0.0735 -0.7234 -0.4379
  371MOL0     C49955   7.578   2.731   8.650 -0.2387  0.3749 -0.2352
  371MOL0     C49956   7.455   2.673   8.677  0.1713  0.0140  0.0119
  371MOL0     C49957   7.331   2.754   8.673 -0.4688  0.7916  0.2331
  371MOL0     O49958   7.207   2.711   8.681 -0.9512  0.9137  0.0327
  371MOL0     C49959   7.176   2.588   8.751  0.7987 -0.1506 -0.3773
  371MOL0     C49960   7.075   2.498   8.675  0.1829  0.6250  0.5912
  371MOL0     C49961   7.036   2.367   8.739 -1.3619  0.2802 -0.3956
  371MOL0     C49962   7.152   2.274   8.783  0.4227  0.5485  0.4852
  371MOL0     C49963   7.123   2.127   8.820  0.0513 -0.4061  0.5155
  371MOL0     C49964   7.041   2.049   8.714 -0.0614  0.3947 -0.1762
  371MOL0     C49965   7.063   1.900   8.723 -1.0424  1.2221  0.4287
  371MOL0     C49966   7.035   1.843   8.862  0.2369  0.0025 -0.9381
  371MOL0     N49967   7.052   1.702   8.861  0.9221 -0.0573  0.1065
  371MOL0     C49968   7.142   1.635   8.941  1.7497 -0.9192 -0.4046
  371MOL0     C49969   7.111   1.509   8.921 -0.7582 -0.4810  0.6816
  371MOL0     C49970   7.194   1.403   8.980 -0.3423  0.0260  0.1928
  371MOL0     C49971   7.116   1.272   8.974 -0.1891 -0.2838  0.0835
  371MOL0     C49972   7.197   1.153   9.030 -0.1146 -1.8224  0.1611
  371MOL0     C49973   7.106   1.032   9.056  0.4611  0.5824 -0.5441
  371MOL0     O49974   6.996   1.066   9.144  0.3241 -0.1187 -0.3884
  371MOL0     C49975   6.870   1.078   9.097  0.5449  0.0543  0.4049
  371MOL0     C49976   6.835   1.096   8.956  0.1116  0.0939 -0.1947
  371MOL0     C49977   6.703   1.129   8.921  0.2816  0.2522  0.2134
  371MOL0     C49978   6.674   1.170   8.773  0.1658  0.8854 -0.0678
  371MOL0     C49979   6.604   1.128   9.020 -0.3116 -0.1806  0.9209
  371MOL0     C49980   6.461   1.170   8.992  0.1411 -0.4739  0.9408
  371MOL0     O49981   6.407   1.232   9.100  0.6122 -0.6969 -0.1681
  371MOL0     C49982   6.295   1.304   9.080  0.2028  1.0038  0.6308
  371MOL0     C49983   6.201   1.290   9.170  0.0857  0.1786 -0.4106
  371MOL0     C49984   6.076   1.357   9.156  0.4524 -0.0015  0.1827
  371MOL0     C49985   6.040   1.430   9.038  0.4636 -0.2380  0.0138
  371MOL0     O49986   5.913   1.490   9.013  0.4680  0.1961 -0.4853
  371MOL0     C49987   5.881   1.569   9.132  0.7685  0.1324  0.1248
  371MOL0     C49988   5.749   1.658   9.109 -0.5889  0.2371  0.0937
  371MOL0     C49989   5.775   1.755   8.993  0.6736  0.1883 -0.2296
  371MOL0     C49990   5.902   1.843   9.007 -0.1466 -0.0221  0.0930
  371MOL0     C49991   5.996   1.812   8.882  0.0093  0.0670 -0.3593
  371MOL0     C49992   6.140   1.873   8.877  0.8385  0.0257  0.0328
  371MOL0     C49993   6.152   2.021   8.917  0.3971  0.3855 -0.4337
  371MOL0     C49994   6.296   2.062   8.947  0.5054  0.7711 -0.2106
  371MOL0    Cl49995   6.307   2.238   8.978 -0.1033  0.1228  0.4810
  371MOL0     C49996   6.141   1.438   8.946 -0.0824 -0.1635 -0.7275
  371MOL0     C49997   6.264   1.373   8.963  0.3548  0.7187  0.5751
  371MOL0     O49998   6.398   1.119   8.892 -0.0196 -0.9883  0.0563
  371MOL0     C49999   6.633   1.102   9.151  0.4025  0.2365  0.3718
  371MOL0     C50000   6.771   1.081   9.188 -0.8554 -0.5640  0.3995
  371MOL0     N50001   6.993   1.502   8.859  1.0216  0.2689 -0.3362
  371MOL0     N50002   6.955   1.618   8.818 -0.5286  0.0036  0.2240
  371MOL0     C50003   7.355   2.888   8.648  1.6397  1.2255  0.8943
  371MOL0     C50004   7.481   2.946   8.616  0.4601 -0.3810  0.2224
  371MOL0     C50005   7.921   2.981   8.492  1.2164  0.0431  0.6073
  371MOL0     C50006   7.976   3.038   8.377 -0.7008  0.7591 -0.6409
  371MOL0     C50007   8.116   3.047   8.373 -0.3822 -0.3997 -0.2179
  371MOL0     C50008   8.205   3.008   8.471  0.0781 -0.1535 -0.2624
  371MOL0     O50009   8.344   3.018   8.449 -0.1722 -0.2874  0.1175
  371MOL0     C50010   8.435   2.956   8.541 -0.4881 -0.1729  0.3477
  371MOL0     C50011   8.522   3.064   8.611  0.3150  0.4294 -0.0191
  371MOL0     C50012   8.450   3.136   8.722 -0.5791 -0.3479 -0.6069
  371MOL0     C50013   8.537   3.225   8.814  0.5792 -0.1837  0.2077
  371MOL0     C50014   8.471   3.241   8.943  0.2983 -0.2881  0.2233
  371MOL0     C50015   8.416   3.266   9.051  0.8513 -0.0405 -0.6948
  371MOL0     C50016   8.142   2.939   8.577  0.4271 -0.2163 -0.4437
  371MOL0     C50017   8.003   2.922   8.588 -0.3621 -0.5451  0.4798
  371MOL0     H50018   7.670   2.674   8.647 -1.3081 -1.5838  1.7362
  371MOL0     H50019   7.462   2.566   8.693  2.1453  0.2246  0.7733
  371MOL0     H50020   7.265   2.529   8.778  1.4273  1.2384  0.7065
  371MOL0     H50021   7.125   2.620   8.843  1.9313  0.3523  0.0944
  371MOL0     H50022   6.994   2.569   8.654  0.6514  0.7613 -0.8651
  371MOL0     H50023   7.117   2.472   8.577  2.8313  1.3096  1.4732
  371MOL0     H50024   6.978   2.397   8.827 -2.5451 -1.6827 -0.4366
  371MOL0     H50025   6.973   2.315   8.667 -0.7876 -1.6343  0.3964
  371MOL0     H50026   7.229   2.266   8.705 -1.2334 -0.6075 -1.1020
  371MOL0     H50027   7.211   2.319   8.864  1.4214 -2.7247  1.7089
  371MOL0     H50028   7.219   2.079   8.842  1.2353  2.5269  2.4068
  371MOL0     H50029   7.058   2.137   8.907 -0.2565  1.9606  0.0741
  371MOL0     H50030   6.936   2.079   8.716 -0.4854 -1.0128 -0.2973
  371MOL0     H50031   7.066   2.073   8.610  0.4399  1.9282  0.2711
  371MOL0     H50032   6.997   1.849   8.652 -0.6311  0.9650  0.2251
  371MOL0     H50033   7.167   1.869   8.710 -1.7634 -1.6315  0.6637
  371MOL0     H50034   6.939   1.880   8.899  1.1337  0.5289  0.9466
  371MOL0     H50035   7.114   1.877   8.929 -1.5554 -0.7347  1.7036
  371MOL0     H50036   7.208   1.692   9.007 -0.6711  1.3922  0.1789
  371MOL0     H50037   7.293   1.390   8.935  0.7458  1.8704  1.8695
  371MOL0     H50038   7.214   1.419   9.086 -0.0984  0.0148  0.1490
  371MOL0     H50039   7.079   1.241   8.876 -0.5400 -2.6149  0.8762
  371MOL0     H50040   7.025   1.290   9.032 -0.7362  1.0167 -1.1183
  371MOL0     H50041   7.247   1.188   9.120  0.8596 -0.8596 -0.7137
  371MOL0     H50042   7.271   1.126   8.953  0.5265 -2.4492  0.9804
  371MOL0     H50043   7.161   0.956   9.112 -0.4743  1.4876  1.7035
  371MOL0     H50044   7.077   0.994   8.957 -0.2672 -1.4132  0.3781
  371MOL0     H50045   6.907   1.113   8.878  1.1072  3.5960  1.3063
  371MOL0     H50046   6.736   1.112   8.704  0.0068 -2.6918  2.5304
  371MOL0     H50047   6.577   1.135   8.738  0.3691  0.8295 -0.5974
  371MOL0     H50048   6.685   1.278   8.760 -0.3504  0.8459 -0.8913
  371MOL0     H50049   6.227   1.227   9.254 -0.6032  0.6391  0.1654
  371MOL0     H50050   5.994   1.354   9.227 -0.0397 -2.0450 -0.4064
  371MOL0     H50051   5.858   1.501   9.214 -1.5828 -0.0739 -0.6414
  371MOL0     H50052   5.965   1.628   9.170  0.3435  1.8845 -1.5214
  371MOL0     H50053   5.656   1.603   9.096 -0.4129 -0.1914  0.5995
  371MOL0     H50054   5.733   1.714   9.202  2.4581  1.4999 -0.0090
  371MOL0     H50055   5.694   1.827   8.992  3.2672  3.4033  1.8256
  371MOL0     H50056   5.773   1.711   8.893  1.8075  2.3681 -1.2783
  371MOL0     H50057   5.868   1.947   9.002  2.2634  1.1225  3.6644
  371MOL0     H50058   5.949   1.829   9.105 -0.0898 -1.3858 -0.1029
  371MOL0     H50059   5.943   1.844   8.792  1.1401  4.2658  0.2734
  371MOL0     H50060   6.014   1.704   8.888 -0.6861  0.0225  1.6125
  371MOL0     H50061   6.201   1.811   8.942  2.6800  1.1741 -0.5268
  371MOL0     H50062   6.166   1.865   8.771  3.3143 -2.8133  0.7319
  371MOL0     H50063   6.080   2.040   8.997  0.0689 -1.0659 -0.3652
  371MOL0     H50064   6.129   2.093   8.837 -0.5367  1.9032  1.1187
  371MOL0     H50065   6.356   2.038   8.859 -0.6391 -1.6744 -0.4082
  371MOL0     H50066   6.329   1.998   9.030 -0.9833 -0.7831 -0.7707
  371MOL0     H50067   6.128   1.494   8.854  2.7418 -0.2580 -1.2798
  371MOL0     H50068   6.335   1.384   8.881 -0.9883  1.2239 -0.5643
  371MOL0     H50069   6.554   1.104   9.225  0.6794 -0.0725  0.6826
  371MOL0     H50070   6.797   1.089   9.293 -1.2443 -0.9387  0.5234
  371MOL0     H50071   7.264   2.946   8.637  1.5759  1.0345  0.3518
  371MOL0     H50072   7.477   3.054   8.608 -2.3251 -0.3378  1.1530
  371MOL0     H50073   7.918   3.064   8.290 -2.1229 -0.4521 -0.0924
  371MOL0     H50074   8.162   3.102   8.292  4.3701  1.5118  3.2804
  371MOL0     H50075   8.393   2.887   8.614 -1.3257  0.5193  0.5381
  371MOL0     H50076   8.503   2.895   8.481 -0.0666 -0.8876  1.5284
  371MOL0     H50077   8.576   3.131   8.544  2.1886 -1.4088 -0.4840
  371MOL0     H50078   8.592   3.001   8.668  1.0702 -0.7048 -2.0927
  371MOL0     H50079   8.398   3.057   8.776 -2.1977  0.8260 -0.3848
  371MOL0     H50080   8.383   3.212   8.679  0.7107  1.6940  0.7860
  371MOL0     H50081   8.549   3.318   8.757  0.2836 -1.1308 -1.4735
  371MOL0     H50082   8.629   3.168   8.826 -0.6798 -1.9634  2.0033
  371MOL0     H50083   8.364   3.297   9.139  2.6086  2.2927 -0.3784
  371MOL0     H50084   8.195   2.904   8.665  2.8501 -1.1996 -2.1642
  371MOL0     H50085   7.966   2.880   8.681 -2.0985 -0.9405 -0.3390
  372MOL0     O50086   6.464   7.933   0.272  0.5146 -0.1324  0.0315
  372MOL0     C50087   6.413   7.876   0.182 -0.2733  0.8237 -0.6199
  372MOL0     O50088   6.275   7.885   0.145 -0.9439  0.3004  0.0331
  372MOL0     C50089   6.209   7.984   0.211 -0.1190  0.3979  0.0160
  372MOL0     C50090   6.112   7.949   0.300  0.5005  0.2645 -0.0156
  372MOL0     C50091   6.032   8.043   0.353  0.3931 -0.4969 -0.4703
  372MOL0     C50092   6.049   8.186   0.320 -1.3117  0.9667 -0.4756
  372MOL0     O50093   5.977   8.296   0.346 -0.3095  0.1159 -1.0512
  372MOL0     C50094   5.952   8.299   0.491  0.6891  0.3927  0.4043
  372MOL0     C50095   5.906   8.439   0.516  1.2847 -1.2830 -0.1456
  372MOL0     C50096   5.765   8.483   0.471 -0.3448 -0.2571  0.2920
  372MOL0     C50097   5.740   8.633   0.458  0.6298 -0.2746 -0.0631
  372MOL0     C50098   5.591   8.660   0.419 -0.3739  1.2266 -1.9124
  372MOL0     C50099   5.565   8.804   0.380 -0.0823 -0.7271  0.5172
  372MOL0     C50100   5.418   8.819   0.327 -0.0511  0.0125 -0.8547
  372MOL0     C50101   5.375   8.967   0.339  0.4401  1.1293 -0.2139
  372MOL0     N50102   5.244   8.997   0.300  0.3990  0.4529  0.6070
  372MOL0     C50103   5.177   9.094   0.368  0.3398  1.0155 -0.5128
  372MOL0     C50104   5.055   9.109   0.298 -0.0441  0.0810 -0.9553
  372MOL0     C50105   4.954   9.212   0.347  0.1087 -0.3160  0.7040
  372MOL0     C50106   4.835   9.141   0.420  0.1964  0.0935 -1.8290
  372MOL0     C50107   4.738   9.075   0.331  1.0008 -0.0082  0.2263
  372MOL0     C50108   4.627   8.998   0.422  0.5057 -0.6288 -0.5687
  372MOL0     O50109   4.561   9.082   0.524 -0.1232  0.2510  0.2558
  372MOL0     C50110   4.433   9.055   0.544  0.6614  0.5043  0.2898
  372MOL0     C50111   4.387   8.997   0.670 -0.4618  0.2826  1.2246
  372MOL0     C50112   4.255   8.966   0.678 -0.1103  0.1987  0.3075
  372MOL0     C50113   4.214   8.877   0.791  0.8564 -0.3125  0.3085
  372MOL0     C50114   4.156   9.003   0.571  0.0596  0.0106  0.9356
  372MOL0     C50115   4.015   8.952   0.556 -0.0555  0.1700  0.4999
  372MOL0     O50116   3.943   8.987   0.435 -0.5485 -0.0245 -0.3175
  372MOL0     C50117   3.811   8.945   0.416 -1.0294  0.5691  0.1554
  372MOL0     C50118   3.709   8.964   0.519 -0.5550  0.0594  0.6864
  372MOL0     C50119   3.577   8.924   0.494  0.4546  0.0419  1.0553
  372MOL0     C50120   3.553   8.870   0.360 -0.1428 -0.4599  0.8223
  372MOL0     O50121   3.434   8.827   0.312 -0.2334 -0.0421 -0.0038
  372MOL0     C50122   3.312   8.861   0.386  0.2650  0.7067 -0.0601
  372MOL0     C50123   3.290   8.772   0.513  0.5803 -0.8498  0.4613
  372MOL0     C50124   3.178   8.829   0.605  0.8015 -0.1497  0.1487
  372MOL0     C50125   3.038   8.819   0.532  0.1477 -0.1062 -0.1668
  372MOL0     C50126   2.944   8.935   0.570  0.3438  0.7222  0.3998
  372MOL0     C50127   2.816   8.924   0.498  0.6211  0.4662  1.1547
  372MOL0     C50128   2.726   9.047   0.539 -0.9891  0.4251  0.2819
  372MOL0     C50129   2.608   9.067   0.444 -0.0780  0.1203  0.0375
  372MOL0    Cl50130   2.464   8.966   0.506 -0.1890  0.4762 -0.7271
  372MOL0     C50131   3.647   8.864   0.261  0.1805 -0.1736  0.5571
  372MOL0     C50132   3.780   8.904   0.290  0.0849  0.1594  0.0473
  372MOL0     O50133   3.955   8.890   0.654 -1.0481  1.0750 -0.3183
  372MOL0     C50134   4.204   9.070   0.456 -0.5178  0.7733  0.5503
  372MOL0     C50135   4.343   9.088   0.445 -0.0138 -0.4044 -0.0371
  372MOL0     N50136   5.050   9.016   0.198  0.5622 -0.0889 -0.4788
  372MOL0     N50137   5.167   8.952   0.193 -0.1097 -0.5447 -0.3764
  372MOL0     C50138   6.151   8.213   0.230 -0.3919 -0.4607  0.6527
  372MOL0     C50139   6.236   8.119   0.189  0.2314  0.2885  0.1394
  372MOL0     C50140   6.507   7.780   0.108  0.7724 -0.5682 -1.0350
  372MOL0     C50141   6.646   7.772   0.144 -1.0573  0.6107  0.5257
  372MOL0     C50142   6.733   7.672   0.094  0.8108 -0.4236  0.5181
  372MOL0     C50143   6.681   7.582  -0.004 -0.5990  0.4595  0.2930
  372MOL0     O50144   6.750   7.484  -0.072  0.3200 -0.6236 -0.2592
  372MOL0     C50145   6.868   7.430  -0.015  0.0711 -0.1192  1.0873
  372MOL0     C50146   6.846   7.318   0.088  0.3771 -0.8335  0.6825
  372MOL0     C50147   6.982   7.241   0.094  0.2863  0.5735  0.1333
  372MOL0     C50148   7.108   7.310   0.155 -0.2068 -0.4889 -0.6315
  372MOL0     C50149   7.236   7.250   0.118  0.3120  0.4486  0.2603
  372MOL0     C50150   7.351   7.222   0.087 -0.0162 -0.7160  0.0410
  372MOL0     C50151   6.547   7.584  -0.037 -0.0770 -0.2955  0.2917
  372MOL0     C50152   6.463   7.677   0.019  0.1221 -0.1919 -0.3506
  372MOL0     H50153   6.086   7.847   0.328 -1.8126  0.0288 -2.5680
  372MOL0     H50154   5.947   8.013   0.415  0.0414  0.3099 -0.5471
  372MOL0     H50155   5.875   8.226   0.516 -1.0805  1.5740 -1.3258
  372MOL0     H50156   6.045   8.292   0.548  1.6093  2.2421 -0.7598
  372MOL0     H50157   5.921   8.450   0.624  3.3213  2.9535 -0.6558
  372MOL0     H50158   5.973   8.514   0.473 -3.0093  1.4524 -2.8624
  372MOL0     H50159   5.739   8.447   0.370  0.3090 -0.6486  0.2586
  372MOL0     H50160   5.693   8.442   0.543  0.9139 -1.2933  1.0019
  372MOL0     H50161   5.757   8.685   0.552 -0.0025  0.5959 -0.4247
  372MOL0     H50162   5.809   8.674   0.383 -1.4905 -0.7217 -2.3901
  372MOL0     H50163   5.563   8.592   0.338 -3.9806 -0.0952  0.2205
  372MOL0     H50164   5.529   8.633   0.505 -1.8053  2.3720 -2.5343
  372MOL0     H50165   5.574   8.854   0.477 -0.1418 -1.3777  0.8601
  372MOL0     H50166   5.639   8.843   0.310  1.4209  0.4372  2.6216
  372MOL0     H50167   5.406   8.772   0.230 -0.4935 -0.4285 -0.5876
  372MOL0     H50168   5.351   8.769   0.398  0.6250  1.4776  0.9234
  372MOL0     H50169   5.451   9.024   0.284 -1.3965 -0.2444 -4.6663
  372MOL0     H50170   5.389   9.000   0.442  1.8958 -0.7550  0.2433
  372MOL0     H50171   5.203   9.135   0.465  2.1784 -3.4559  1.1617
  372MOL0     H50172   5.008   9.280   0.414 -1.9059 -1.5659  3.8558
  372MOL0     H50173   4.928   9.283   0.268  1.3525  0.6246  1.0993
  372MOL0     H50174   4.783   9.211   0.487 -1.0578 -1.8030 -0.7368
  372MOL0     H50175   4.869   9.064   0.490 -1.9845  1.8715  1.4841
  372MOL0     H50176   4.793   9.004   0.267 -3.0677 -0.7667 -2.8151
  372MOL0     H50177   4.685   9.138   0.260  0.2317 -1.5212 -0.6028
  372MOL0     H50178   4.650   8.899   0.461 -1.0632 -1.1262 -0.8459
  372MOL0     H50179   4.557   8.985   0.339  1.5730  0.3027 -1.6635
  372MOL0     H50180   4.454   8.962   0.749  0.0791 -2.7218 -0.4240
  372MOL0     H50181   4.136   8.801   0.778 -0.4466  1.2286 -1.2414
  372MOL0     H50182   4.301   8.823   0.831 -0.3149 -0.8277  2.3269
  372MOL0     H50183   4.174   8.940   0.871  1.5591 -1.1413  1.3399
  372MOL0     H50184   3.743   9.012   0.610  2.0048  2.1454 -1.1866
  372MOL0     H50185   3.502   8.947   0.570 -1.0694  0.7312 -0.6015
  372MOL0     H50186   3.301   8.966   0.414  0.1278  0.1928  1.9263
  372MOL0     H50187   3.227   8.841   0.320 -0.6852 -2.8549  1.9568
  372MOL0     H50188   3.284   8.666   0.488 -0.0233 -0.6670 -0.1935
  372MOL0     H50189   3.378   8.783   0.578  1.2421 -3.0934  0.0273
  372MOL0     H50190   3.212   8.930   0.630  1.6486 -0.1186 -1.0379
  372MOL0     H50191   3.180   8.773   0.699  1.3553 -0.5243 -0.0820
  372MOL0     H50192   3.050   8.808   0.424 -1.9789 -4.1627 -0.1785
  372MOL0     H50193   2.985   8.728   0.560 -1.2048 -0.3341 -3.1069
  372MOL0     H50194   2.997   9.025   0.539 -2.4511  1.9924 -1.0891
  372MOL0     H50195   2.936   8.941   0.679  0.6699  3.5649  0.3452
  372MOL0     H50196   2.834   8.930   0.390  0.3238  1.4861  1.1519
  372MOL0     H50197   2.764   8.832   0.527  0.1792 -0.1428 -1.3179
  372MOL0     H50198   2.781   9.141   0.549 -0.7082  0.4875 -1.5713
  372MOL0     H50199   2.693   9.023   0.641  1.1988  0.2462  1.0001
  372MOL0     H50200   2.623   9.042   0.339 -3.1480  0.8943 -0.6970
  372MOL0     H50201   2.566   9.168   0.449 -3.9398 -1.1805 -2.0132
  372MOL0     H50202   3.644   8.820   0.162  3.6933  1.4577 -0.4511
  372MOL0     H50203   3.849   8.905   0.207 -0.2887 -2.3847 -0.3544
  372MOL0     H50204   4.146   9.109   0.374  0.9505  2.6145  0.3108
  372MOL0     H50205   4.365   9.134   0.350 -1.2823 -2.0001 -1.1647
  372MOL0     H50206   6.171   8.310   0.186 -1.4694 -0.8351 -0.7488
  372MOL0     H50207   6.319   8.150   0.127  0.3434 -0.1310  0.0768
  372MOL0     H50208   6.685   7.828   0.228 -0.0139  1.4108 -0.4470
  372MOL0     H50209   6.838   7.691   0.111  1.1901  1.4463 -2.9631
  372MOL0     H50210   6.927   7.387  -0.097  0.2231 -1.8391  2.0609
  372MOL0     H50211   6.928   7.509   0.030 -0.1256 -0.7417  2.4820
  372MOL0     H50212   6.775   7.253   0.037 -1.6292  2.0554 -0.4537
  372MOL0     H50213   6.813   7.360   0.184 -0.5571 -0.5235  0.2276
  372MOL0     H50214   7.014   7.221  -0.009  0.2516  0.1103  0.2078
  372MOL0     H50215   6.966   7.144   0.142 -0.5729 -0.2000 -1.6032
  372MOL0     H50216   7.084   7.286   0.259  0.7969 -2.0268 -0.7204
  372MOL0     H50217   7.101   7.415   0.124 -4.2898 -0.6729 -0.9066
  372MOL0     H50218   7.455   7.216   0.062 -0.0287 -1.3954  0.1393
  372MOL0     H50219   6.511   7.507  -0.105 -1.1439 -0.9391  1.5374
  372MOL0     H50220   6.358   7.680  -0.007  0.1744  0.8007 -0.4838
  373MOL0     O50221   2.006   2.799  10.638  0.0609 -0.1819  0.1592
  373MOL0     C50222   2.111   2.838  10.589  0.0628 -0.1651 -0.2642
  373MOL0     O50223   2.145   2.866  10.460 -0.9678  0.5467 -0.8357
  373MOL0     C50224   2.052   2.853  10.367  0.1177  0.3909 -1.2300
  373MOL0     C50225   2.093   2.774  10.262  0.5558 -0.8085  0.5589
  373MOL0     C50226   2.009   2.749  10.155 -1.0882  0.2903  0.6046
  373MOL0     C50227   1.885   2.813  10.150 -0.0409  0.2440 -0.8573
  373MOL0     O50228   1.802   2.797  10.039 -0.1840 -0.3266  0.5552
  373MOL0     C50229   1.860   2.841   9.914  0.1760  0.1855 -0.2047
  373MOL0     C50230   1.897   2.983   9.886 -1.0695  0.1205  0.4360
  373MOL0     C50231   1.770   3.069   9.852 -0.4468  0.3115 -0.0323
  373MOL0     C50232   1.809   3.214   9.822 -0.4216  0.6916  0.0735
  373MOL0     C50233   1.692   3.312   9.794 -0.4436 -0.4239  0.0332
  373MOL0     C50234   1.589   3.319   9.912  0.1678  0.1847 -0.6484
  373MOL0     C50235   1.475   3.403   9.884 -0.9922 -1.0436 -0.0113
  373MOL0     C50236   1.350   3.336   9.829  0.5075 -0.2924  0.7943
  373MOL0     N50237   1.237   3.424   9.805  0.3165 -0.2087 -0.2386
  373MOL0     C50238   1.138   3.392   9.715 -0.1787  0.0070  0.0836
  373MOL0     C50239   1.028   3.453   9.760  0.2497 -0.1531  0.1123
  373MOL0     C50240   0.890   3.429   9.703  0.3558  0.1659  0.0096
  373MOL0     C50241   0.854   3.280   9.723  0.1644 -0.0731  0.0010
  373MOL0     C50242   0.709   3.252   9.671 -0.0050  0.4084 -1.3638
  373MOL0     C50243   0.681   3.277   9.522  0.0030 -0.9586 -0.2071
  373MOL0     O50244   0.554   3.219   9.501  0.1845 -0.3393 -0.8403
  373MOL0     C50245   0.441   3.269   9.547  0.1904 -0.5751  0.9374
  373MOL0     C50246   0.325   3.202   9.526 -0.9445  0.5207 -0.0744
  373MOL0     C50247   0.199   3.235   9.571 -0.2732  0.1401  0.4468
  373MOL0     C50248   0.090   3.153   9.510 -0.4628 -0.5416  0.0252
  373MOL0     C50249   0.182   3.355   9.654  0.0599  0.5435  0.2042
  373MOL0     C50250   0.056   3.388   9.727 -0.6859 -0.7503  0.8680
  373MOL0     O50251   0.064   3.506   9.793 -0.1569  0.0497  0.0261
  373MOL0     C50252  -0.045   3.554   9.857  0.5885 -0.7068  1.0556
  373MOL0     C50253  -0.025   3.626   9.975 -0.6793 -0.6708 -0.3744
  373MOL0     C50254  -0.133   3.686  10.047 -0.2439  0.0707  0.7032
  373MOL0     C50255  -0.263   3.685   9.996  0.4231 -0.2572  0.0206
  373MOL0     O50256  -0.370   3.743  10.060  0.1854  0.7605  0.0826
  373MOL0     C50257  -0.368   3.772  10.203  0.7842 -0.3959 -0.8636
  373MOL0     C50258  -0.499   3.797  10.267  0.8031 -0.0336 -0.5886
  373MOL0     C50259  -0.593   3.898  10.199 -0.3543  0.6642  0.9764
  373MOL0     C50260  -0.553   4.042  10.219 -0.4792 -0.0770 -0.4737
  373MOL0     C50261  -0.612   4.141  10.121  0.3824 -0.4240 -0.0791
  373MOL0     C50262  -0.756   4.193  10.175  0.9156 -0.2746  0.0545
  373MOL0     C50263  -0.795   4.336  10.127  0.8364 -0.3325 -0.3831
  373MOL0     C50264  -0.946   4.362  10.166  0.0375 -0.5341  0.4355
  373MOL0    Cl50265  -0.967   4.357  10.343  0.0003  0.3571 -0.0297
  373MOL0     C50266  -0.282   3.615   9.873 -0.8494 -0.1903  0.2920
  373MOL0     C50267  -0.178   3.554   9.806  0.3026 -0.1535  0.1307
  373MOL0     O50268  -0.039   3.313   9.724 -0.4047  0.1853 -0.8157
  373MOL0     C50269   0.298   3.434   9.678 -0.1835  0.3342  0.0472
  373MOL0     C50270   0.421   3.388   9.621 -0.5307 -0.3031 -0.7693
  373MOL0     N50271   1.055   3.524   9.876  0.2751 -0.0089  0.4049
  373MOL0     N50272   1.180   3.503   9.901  0.1129  0.0996 -0.5984
  373MOL0     C50273   1.845   2.890  10.257  0.2440  0.5921 -0.7378
  373MOL0     C50274   1.921   2.914  10.364  0.0635  0.0254 -0.7234
  373MOL0     C50275   2.220   2.856  10.692 -0.5949 -0.6636  0.1247
  373MOL0     C50276   2.327   2.947  10.673 -0.7178  0.8019 -0.8255
  373MOL0     C50277   2.448   2.945  10.752 -0.2349  0.4709 -0.8592
  373MOL0     C50278   2.447   2.865  10.868 -0.5513  0.5311 -0.2945
  373MOL0     O50279   2.546   2.839  10.958 -0.6702  0.7079  0.7398
  373MOL0     C50280   2.685   2.870  10.918  0.5840  0.2386 -0.3979
  373MOL0     C50281   2.777   2.814  11.028  0.0691 -1.0125  0.9092
  373MOL0     C50282   2.715   2.850  11.168 -0.2939  1.0158  0.0010
  373MOL0     C50283   2.819   2.852  11.279 -0.3901 -0.2465  0.4951
  373MOL0     C50284   2.902   2.966  11.254 -0.2395 -0.2674  0.3671
  373MOL0     C50285   2.959   3.072  11.221  0.8414 -0.4388 -0.7516
  373MOL0     C50286   2.335   2.781  10.890 -0.2896  0.3261 -0.0061
  373MOL0     C50287   2.227   2.767  10.802 -0.0434 -0.6841  0.1843
  373MOL0     H50288   2.195   2.739  10.254 -0.3199 -3.2324 -0.9747
  373MOL0     H50289   2.045   2.683  10.077 -2.9184 -0.5501  0.4195
  373MOL0     H50290   1.952   2.783   9.908  1.2913  1.4732  2.5919
  373MOL0     H50291   1.798   2.820   9.827  1.4414  1.5624 -1.5052
  373MOL0     H50292   1.960   3.015   9.970  0.6447 -1.1253 -0.3045
  373MOL0     H50293   1.954   2.982   9.793 -2.7528  0.5496 -0.6310
  373MOL0     H50294   1.710   3.027   9.770 -1.1795 -1.7080  1.4531
  373MOL0     H50295   1.720   3.062   9.949  2.1312 -4.2321  1.2627
  373MOL0     H50296   1.864   3.243   9.912  1.1742 -1.9583  0.0534
  373MOL0     H50297   1.869   3.204   9.731  1.3185 -1.2692  1.3450
  373MOL0     H50298   1.734   3.411   9.774 -1.0488  0.0388  0.9889
  373MOL0     H50299   1.643   3.275   9.703 -0.4668  1.3544 -0.7154
  373MOL0     H50300   1.546   3.222   9.939  0.8683 -0.3346 -1.3490
  373MOL0     H50301   1.643   3.358   9.998 -0.2902  1.8762 -1.0872
  373MOL0     H50302   1.440   3.440   9.981 -0.9381 -0.8446 -0.0671
  373MOL0     H50303   1.505   3.496   9.833 -0.8422 -0.5963  0.8801
  373MOL0     H50304   1.312   3.267   9.905 -0.5674 -1.3289 -0.6348
  373MOL0     H50305   1.383   3.283   9.739 -0.9311  0.5286 -0.2472
  373MOL0     H50306   1.141   3.330   9.626  0.4272  0.5257 -0.2628
  373MOL0     H50307   0.819   3.486   9.764 -2.4211 -2.1230 -0.8199
  373MOL0     H50308   0.901   3.455   9.598  2.1940 -0.5018  0.0017
  373MOL0     H50309   0.844   3.276   9.832  1.0566 -0.7420  0.0689
  373MOL0     H50310   0.934   3.217   9.684  1.1586  2.3249 -2.1050
  373MOL0     H50311   0.641   3.320   9.722 -1.9921 -0.9543 -2.0719
  373MOL0     H50312   0.683   3.148   9.694  0.5875 -0.0469 -2.6531
  373MOL0     H50313   0.761   3.244   9.455 -0.3670  1.3116 -1.8814
  373MOL0     H50314   0.687   3.377   9.477 -0.4682 -1.5884 -1.7588
  373MOL0     H50315   0.333   3.120   9.455 -2.0408 -0.6790  1.1376
  373MOL0     H50316   0.003   3.218   9.495  1.0594  1.2575 -1.7308
  373MOL0     H50317   0.124   3.123   9.411 -1.1447 -0.5301 -0.2146
  373MOL0     H50318   0.060   3.069   9.574 -0.5683  0.4042  1.2646
  373MOL0     H50319   0.074   3.637  10.017 -1.1551 -2.1335  1.1972
  373MOL0     H50320  -0.095   3.738  10.134 -0.4317  0.1012  0.7676
  373MOL0     H50321  -0.315   3.686  10.245  0.6327  0.7351  1.9082
  373MOL0     H50322  -0.302   3.858  10.214  0.4843  0.0136 -2.1387
  373MOL0     H50323  -0.555   3.703  10.260 -3.6418  2.3783 -0.9083
  373MOL0     H50324  -0.486   3.822  10.373 -2.2660 -0.3709 -0.0557
  373MOL0     H50325  -0.693   3.881  10.240 -0.0310 -1.2078  1.1128
  373MOL0     H50326  -0.596   3.873  10.093 -1.1404 -1.9514  1.5245
  373MOL0     H50327  -0.579   4.074  10.320 -1.8810 -1.3022 -0.4290
  373MOL0     H50328  -0.444   4.056  10.218 -0.4346  0.1142  1.9610
  373MOL0     H50329  -0.643   4.101  10.024  1.2007  0.8075 -0.8864
  373MOL0     H50330  -0.540   4.219  10.095 -1.5583  0.9941 -1.5595
  373MOL0     H50331  -0.833   4.121  10.145  1.1214 -0.8527  0.8704
  373MOL0     H50332  -0.758   4.195  10.285  0.3724 -1.0574  0.0645
  373MOL0     H50333  -0.782   4.345  10.019  1.1183  4.1748 -0.1256
  373MOL0     H50334  -0.726   4.406  10.175  3.4598 -0.9420 -2.9639
  373MOL0     H50335  -1.020   4.295  10.123 -0.4388  1.0700 -1.3887
  373MOL0     H50336  -0.972   4.462  10.130 -1.8283 -0.5591  1.5752
  373MOL0     H50337  -0.386   3.612   9.841 -0.7776 -2.2345  0.1186
  373MOL0     H50338  -0.183   3.506   9.709  3.2176  2.8649 -1.7634
  373MOL0     H50339   0.314   3.527   9.731  3.5426 -0.1238 -0.0331
  373MOL0     H50340   0.503   3.456   9.643  1.2203 -2.8609  1.1649
  373MOL0     H50341   1.749   2.938  10.244 -1.0280 -1.0147  1.8864
  373MOL0     H50342   1.879   2.974  10.444  0.5596  1.5190 -1.5424
  373MOL0     H50343   2.304   3.009  10.587  0.7870  0.0665 -1.7830
  373MOL0     H50344   2.537   3.001  10.725  1.6779  0.6810  4.6359
  373MOL0     H50345   2.714   2.835  10.818  0.1729  0.1843 -0.4981
  373MOL0     H50346   2.691   2.979  10.909 -2.1629  0.4741 -0.0553
  373MOL0     H50347   2.879   2.851  11.018 -0.7054  0.7430 -1.6005
  373MOL0     H50348   2.785   2.705  11.021  2.9865 -1.0931  3.3904
  373MOL0     H50349   2.657   2.761  11.195  2.6085 -1.8588 -2.3473
  373MOL0     H50350   2.664   2.946  11.168  2.0642  2.3396 -0.4901
  373MOL0     H50351   2.884   2.765  11.286  1.3794  0.9671 -0.0370
  373MOL0     H50352   2.764   2.861  11.373 -1.0508  0.2630  0.0629
  373MOL0     H50353   2.984   3.173  11.195 -0.6355 -0.2295 -1.4946
  373MOL0     H50354   2.334   2.726  10.984  1.6554  1.0087  0.4501
  373MOL0     H50355   2.150   2.697  10.834 -1.2521  0.7450  0.4990
  374MOL0     O50356   7.440   1.138   9.820  0.4028  0.2600 -0.1421
  374MOL0     C50357   7.499   1.160   9.921 -0.4709 -1.0956 -0.0490
  374MOL0     O50358   7.444   1.173  10.049 -0.2224 -0.0331  0.0102
  374MOL0     C50359   7.316   1.130  10.085 -0.3388 -0.4665  0.0856
  374MOL0     C50360   7.254   1.190  10.189  0.2369  1.3474 -0.7537
  374MOL0     C50361   7.128   1.144  10.222  0.1440  0.1191 -0.7166
  374MOL0     C50362   7.061   1.033  10.175 -0.1067 -0.5006  0.3944
  374MOL0     O50363   6.954   0.999  10.248  0.1555  0.2859  0.3941
  374MOL0     C50364   6.830   0.978  10.179  0.2389  0.0217  0.0361
  374MOL0     C50365   6.731   1.095  10.191 -0.2486 -1.4195 -0.8306
  374MOL0     C50366   6.631   1.088  10.309 -0.2952  0.4465  0.3525
  374MOL0     C50367   6.509   1.178  10.293  0.8086  0.3948 -0.2771
  374MOL0     C50368   6.407   1.169  10.420  0.1486 -0.2886 -0.4076
  374MOL0     C50369   6.283   1.261  10.412 -0.8913  0.5267 -0.1599
  374MOL0     C50370   6.183   1.204  10.313  0.3561  0.8006 -0.1927
  374MOL0     C50371   6.046   1.267  10.331 -1.3808  0.9682  0.7734
  374MOL0     N50372   5.934   1.231  10.246  0.0501  0.4439 -0.6267
  374MOL0     C50373   5.900   1.097  10.220 -0.0244  0.3924 -0.1303
  374MOL0     C50374   5.818   1.118  10.114 -0.1192 -0.1283 -0.3939
  374MOL0     C50375   5.741   1.009  10.048  0.1920  0.5889 -0.4107
  374MOL0     C50376   5.843   0.932   9.961  0.8253  1.1875 -0.0739
  374MOL0     C50377   5.779   0.863   9.843 -0.0392 -0.6860 -0.3525
  374MOL0     C50378   5.675   0.757   9.873  0.3848  0.3114  0.1432
  374MOL0     O50379   5.685   0.715  10.004  0.2197 -0.3924 -1.4427
  374MOL0     C50380   5.579   0.661  10.068  1.2775 -0.3041 -0.7500
  374MOL0     C50381   5.468   0.620   9.997  0.1338 -0.1098 -0.2364
  374MOL0     C50382   5.357   0.552  10.069  0.0047  0.1365  0.1245
  374MOL0     C50383   5.226   0.523  10.001 -0.0583  1.0613  0.1875
  374MOL0     C50384   5.379   0.542  10.213  0.0040  0.4042 -0.4469
  374MOL0     C50385   5.277   0.487  10.297  0.1010 -0.1921 -0.2386
  374MOL0     O50386   5.214   0.575  10.384  0.7515  0.2238  0.1753
  374MOL0     C50387   5.122   0.520  10.466  0.7603 -0.3325  0.2356
  374MOL0     C50388   5.166   0.486  10.592  0.2630 -0.6739 -0.7899
  374MOL0     C50389   5.076   0.439  10.687 -0.0507 -0.4368  0.0105
  374MOL0     C50390   4.937   0.429  10.658 -0.0500  0.3687 -0.5527
  374MOL0     O50391   4.847   0.384  10.755 -0.0376  0.2593  0.4937
  374MOL0     C50392   4.878   0.400  10.894  0.5717  0.4311  0.1765
  374MOL0     C50393   4.760   0.330  10.976  0.2256 -0.6223 -0.5298
  374MOL0     C50394   4.809   0.285  11.120  0.4600  0.2425 -0.3653
  374MOL0     C50395   4.692   0.268  11.213  0.8840  0.0389 -0.1739
  374MOL0     C50396   4.602   0.147  11.178 -0.2784  0.5080  0.1956
  374MOL0     C50397   4.596   0.047  11.297  0.0093 -0.4957  0.3382
  374MOL0     C50398   4.728  -0.024  11.315 -0.4999 -0.1930  0.4559
  374MOL0     C50399   4.739  -0.093  11.447 -0.6739  0.4275 -0.3693
  374MOL0    Cl50400   4.783  -0.266  11.444  0.0186 -0.0657  0.1998
  374MOL0     C50401   4.900   0.447  10.524  0.4396 -0.9841 -0.1250
  374MOL0     C50402   4.987   0.492  10.425 -1.1669  0.3179 -0.3770
  374MOL0     O50403   5.259   0.371  10.296 -0.1525  0.1883  0.7291
  374MOL0     C50404   5.491   0.597  10.280  0.3489 -0.1053  0.0098
  374MOL0     C50405   5.593   0.659  10.207 -0.8143  0.3210 -0.3637
  374MOL0     N50406   5.828   1.240  10.057 -0.2888 -0.7665  0.3661
  374MOL0     N50407   5.880   1.307  10.148 -0.8008 -0.8629 -0.2906
  374MOL0     C50408   7.132   0.957  10.084  0.4604  0.0571  0.2260
  374MOL0     C50409   7.258   1.009  10.031  0.4154 -0.0418  0.6559
  374MOL0     C50410   7.647   1.191   9.907 -0.1752  0.0223  0.1597
  374MOL0     C50411   7.729   1.182  10.011  0.7436 -0.6050 -0.2070
  374MOL0     C50412   7.861   1.231  10.005  0.3133 -0.0225  0.3868
  374MOL0     C50413   7.918   1.282   9.891  0.6632  0.2126 -1.2365
  374MOL0     O50414   8.055   1.319   9.886  0.2735  0.0026 -0.0358
  374MOL0     C50415   8.112   1.374   9.768 -0.0152  0.8415  0.2215
  374MOL0     C50416   8.150   1.272   9.655  0.7914  0.1776  1.1152
  374MOL0     C50417   8.258   1.176   9.699 -0.6000  1.0935 -0.4018
  374MOL0     C50418   8.234   1.099   9.827 -0.4695  0.0554 -0.0017
  374MOL0     C50419   8.349   1.016   9.838  0.0109  0.9600 -0.0347
  374MOL0     C50420   8.442   0.934   9.841 -0.4775 -0.0625 -0.4530
  374MOL0     C50421   7.832   1.288   9.782  0.3404  0.6210 -0.1449
  374MOL0     C50422   7.697   1.254   9.789 -0.6221  0.0835  0.4734
  374MOL0     H50423   7.298   1.271  10.247  0.5920  0.2547  0.5475
  374MOL0     H50424   7.077   1.210  10.291 -0.7727  1.5727 -2.6927
  374MOL0     H50425   6.845   0.968  10.072 -0.3413  0.2461 -0.0718
  374MOL0     H50426   6.782   0.887  10.217  0.6918  0.9569  3.1628
  374MOL0     H50427   6.792   1.185  10.194 -2.3897  0.1556 -1.5331
  374MOL0     H50428   6.669   1.102  10.100 -1.9118  1.0372  0.3931
  374MOL0     H50429   6.597   0.987  10.336 -0.6142  0.5720  0.4299
  374MOL0     H50430   6.668   1.132  10.402 -1.8839  1.1932  0.6735
  374MOL0     H50431   6.538   1.282  10.280  1.0982  0.3714  0.1372
  374MOL0     H50432   6.452   1.150  10.204  2.2928 -0.0128 -1.1298
  374MOL0     H50433   6.380   1.064  10.432 -0.7314 -0.1969 -1.4423
  374MOL0     H50434   6.452   1.182  10.519  0.7265  0.7287 -0.7799
  374MOL0     H50435   6.229   1.275  10.507 -1.5984  0.4450 -0.5426
  374MOL0     H50436   6.320   1.361  10.389 -2.8036  1.3082 -0.0938
  374MOL0     H50437   6.227   1.205  10.212 -0.9359  0.7257 -0.7802
  374MOL0     H50438   6.172   1.096  10.326  0.4292  0.7353 -0.6377
  374MOL0     H50439   6.064   1.375  10.328 -3.1093  1.3014 -2.5854
  374MOL0     H50440   6.029   1.246  10.437  3.1278 -0.6103  1.4191
  374MOL0     H50441   5.918   1.004  10.272 -2.3805  0.2099  0.4946
  374MOL0     H50442   5.685   0.947  10.119  0.2815 -0.6141 -1.3443
  374MOL0     H50443   5.672   1.064   9.983  0.3500  0.1729 -0.9398
  374MOL0     H50444   5.886   0.854  10.024 -0.2920  1.8485  1.5764
  374MOL0     H50445   5.927   0.996   9.931  1.5703 -0.9734 -2.9613
  374MOL0     H50446   5.859   0.806   9.795 -0.9728 -1.5067 -0.9580
  374MOL0     H50447   5.731   0.935   9.777 -1.4677 -0.6097  0.7204
  374MOL0     H50448   5.703   0.681   9.799 -0.5200  2.1795 -2.2342
  374MOL0     H50449   5.574   0.795   9.855 -0.0181 -0.8086 -0.0973
  374MOL0     H50450   5.464   0.636   9.890  2.1007  1.5749 -0.1204
  374MOL0     H50451   5.209   0.416  10.017  0.1275  0.7999 -1.2863
  374MOL0     H50452   5.144   0.582  10.043 -2.0356 -2.8536  2.4370
  374MOL0     H50453   5.228   0.538   9.893 -3.6847  0.7549 -0.0216
  374MOL0     H50454   5.270   0.501  10.619 -0.1701  2.4294 -0.4903
  374MOL0     H50455   5.127   0.421  10.781  1.1263  1.8369 -0.1295
  374MOL0     H50456   4.972   0.346  10.906 -0.1450 -0.4965  2.0353
  374MOL0     H50457   4.897   0.505  10.919 -0.8739  1.9465 -4.1254
  374MOL0     H50458   4.682   0.406  10.967 -0.7884 -1.7375 -1.4267
  374MOL0     H50459   4.731   0.239  10.924  0.4585 -0.4537 -0.9571
  374MOL0     H50460   4.883   0.358  11.156 -0.5859  2.1814 -1.9068
  374MOL0     H50461   4.852   0.186  11.107 -1.2373 -0.2462 -2.9931
  374MOL0     H50462   4.726   0.263  11.317  1.5217  0.6415 -0.3514
  374MOL0     H50463   4.636   0.362  11.221 -0.4221 -0.8267  1.7783
  374MOL0     H50464   4.620   0.097  11.082  1.0054  0.1796  0.5917
  374MOL0     H50465   4.502   0.189  11.166 -1.6419 -2.5215  0.2081
  374MOL0     H50466   4.561   0.110  11.380 -0.4148 -0.5232  0.1811
  374MOL0     H50467   4.514  -0.023  11.279 -0.4012  0.4786 -1.9438
  374MOL0     H50468   4.806   0.054  11.311 -3.9554  3.6419  0.7768
  374MOL0     H50469   4.737  -0.092  11.230 -3.2187 -1.5102  1.1355
  374MOL0     H50470   4.644  -0.096  11.501 -1.4682  0.9106 -1.6730
  374MOL0     H50471   4.810  -0.035  11.506  1.6508 -0.5482 -2.0554
  374MOL0     H50472   4.797   0.421  10.503 -0.6621  1.9086  1.1544
  374MOL0     H50473   4.954   0.497  10.322 -2.2026 -0.5147 -0.1093
  374MOL0     H50474   5.488   0.607  10.388 -2.6636 -3.0146  0.3520
  374MOL0     H50475   5.671   0.709  10.264 -1.8560 -0.1326  1.5811
  374MOL0     H50476   7.090   0.867  10.042 -1.3129  1.0419 -0.2281
  374MOL0     H50477   7.311   0.963   9.948 -0.8632 -0.7109  0.1769
  374MOL0     H50478   7.696   1.145  10.108  2.2466  0.2665  0.6715
  374MOL0     H50479   7.936   1.228  10.083  0.3999  2.6841  0.4795
  374MOL0     H50480   8.047   1.447   9.720  0.6274 -1.1294 -4.1130
  374MOL0     H50481   8.198   1.434   9.797 -1.9126  3.8924 -0.0635
  374MOL0     H50482   8.189   1.323   9.567  1.1017 -0.7318  0.7161
  374MOL0     H50483   8.060   1.215   9.631  1.4058 -0.1308 -0.5544
  374MOL0     H50484   8.350   1.236   9.706  0.6985 -0.8368 -0.2262
  374MOL0     H50485   8.265   1.107   9.615  2.9296  0.5941  0.1301
  374MOL0     H50486   8.155   1.026   9.809  1.3206 -2.0488  0.1724
  374MOL0     H50487   8.209   1.156   9.917 -3.6218  0.3294 -0.9212
  374MOL0     H50488   8.520   0.861   9.837  0.0916  0.3549  1.8368
  374MOL0     H50489   7.843   1.336   9.686 -0.7762  0.5336 -0.3333
  374MOL0     H50490   7.625   1.265   9.708  0.0640  1.2381  0.0145
  375MOL0     O50491   4.398   0.946  10.219 -0.0602 -0.1047 -0.7224
  375MOL0     C50492   4.332   0.978  10.320 -1.2528  0.2462  0.3597
  375MOL0     O50493   4.385   1.042  10.435  0.2908  0.6981 -0.3916
  375MOL0     C50494   4.511   1.088  10.444 -0.2126  1.0056  0.6706
  375MOL0     C50495   4.573   1.068  10.569 -0.1237  0.2532  1.1194
  375MOL0     C50496   4.707   1.108  10.587 -0.1085  0.6605 -0.0896
  375MOL0     C50497   4.778   1.157  10.482  0.3826 -0.1961  0.5903
  375MOL0     O50498   4.915   1.186  10.482  0.8193 -0.3605 -0.4778
  375MOL0     C50499   4.993   1.167  10.600 -0.6007  0.1860 -0.2468
  375MOL0     C50500   5.131   1.204  10.558 -0.4483  0.2817  0.2150
  375MOL0     C50501   5.234   1.226  10.669  0.5179 -0.2832  0.3367
  375MOL0     C50502   5.365   1.242  10.591  0.1645  0.7772  0.9929
  375MOL0     C50503   5.474   1.319  10.661 -0.4567  0.2339 -0.4721
  375MOL0     C50504   5.521   1.237  10.789 -0.5929  0.2965  0.1805
  375MOL0     C50505   5.653   1.301  10.850 -0.3160 -0.0505  0.0419
  375MOL0     C50506   5.772   1.304  10.752  0.5936  0.9288 -0.2659
  375MOL0     N50507   5.793   1.177  10.679  0.3584  0.2172  0.5973
  375MOL0     C50508   5.865   1.065  10.711  0.3379  0.0692  0.1873
  375MOL0     C50509   5.852   0.986  10.600  0.4374 -0.3615  0.3029
  375MOL0     C50510   5.937   0.868  10.556 -0.6621  0.2198  0.2757
  375MOL0     C50511   5.857   0.776  10.455  0.4625 -0.7590  0.3724
  375MOL0     C50512   5.946   0.659  10.407  0.0521  0.7739 -0.1610
  375MOL0     C50513   6.091   0.688  10.369  0.2761 -0.1421 -0.7692
  375MOL0     O50514   6.100   0.791  10.267  0.2888 -0.1817  0.1246
  375MOL0     C50515   6.207   0.801  10.185 -0.1691  0.4558 -0.3127
  375MOL0     C50516   6.187   0.844  10.055 -0.3086  0.0534  0.7296
  375MOL0     C50517   6.283   0.841   9.955 -1.3383  0.2318 -0.1086
  375MOL0     C50518   6.251   0.888   9.812  0.2049  0.4995 -1.3000
  375MOL0     C50519   6.416   0.810  10.000 -0.2119 -0.0295 -0.3966
  375MOL0     C50520   6.545   0.816   9.911 -0.0008 -0.2182 -0.3455
  375MOL0     O50521   6.529   0.849   9.782  0.4157 -0.0997  0.3815
  375MOL0     C50522   6.640   0.869   9.706 -1.1298  0.0170  0.2995
  375MOL0     C50523   6.673   0.787   9.600 -0.9005 -0.0551  0.2130
  375MOL0     C50524   6.786   0.818   9.519  0.8125 -0.3982 -0.5348
  375MOL0     C50525   6.872   0.922   9.553  0.2363  0.8608 -0.8856
  375MOL0     O50526   6.989   0.942   9.475 -0.2164  0.4978  0.0477
  375MOL0     C50527   7.084   1.038   9.512  0.0287  0.2704 -0.2199
  375MOL0     C50528   7.033   1.182   9.503  0.9473 -1.0327 -0.6174
  375MOL0     C50529   7.094   1.268   9.398 -0.2406 -0.4482 -0.3075
  375MOL0     C50530   7.087   1.420   9.422  0.8825 -0.2087  0.3264
  375MOL0     C50531   7.202   1.475   9.512 -0.4771 -0.2157 -0.4142
  375MOL0     C50532   7.247   1.612   9.494 -0.1646 -0.2417  0.5724
  375MOL0     C50533   7.135   1.714   9.523  1.5402  1.3549  0.1552
  375MOL0     C50534   7.185   1.856   9.549 -0.2294 -0.5723  0.4698
  375MOL0    Cl50535   7.282   1.879   9.701  0.3763  0.0516 -0.2715
  375MOL0     C50536   6.836   0.998   9.661 -0.5224 -0.2995 -0.4146
  375MOL0     C50537   6.720   0.977   9.737  0.7888 -0.2051 -0.8423
  375MOL0     O50538   6.652   0.777   9.960 -0.1174 -0.1900  0.5836
  375MOL0     C50539   6.442   0.778  10.129  0.5505  0.3539  0.1415
  375MOL0     C50540   6.338   0.763  10.220  0.7351 -0.1253 -0.6146
  375MOL0     N50541   5.770   1.046  10.510  0.2264 -0.8421  0.0417
  375MOL0     N50542   5.736   1.158  10.550  0.3730 -0.0968 -0.1154
  375MOL0     C50543   4.720   1.165  10.351 -0.0286  0.3246 -1.1859
  375MOL0     C50544   4.589   1.129  10.332 -0.7078  0.3881 -0.3849
  375MOL0     C50545   4.189   0.948  10.317  1.0822 -0.4365 -0.1940
  375MOL0     C50546   4.129   0.872  10.214  0.2201  1.1246 -0.0512
  375MOL0     C50547   4.002   0.823  10.226  0.5044  0.0176  0.2980
  375MOL0     C50548   3.926   0.856  10.335 -0.0409  0.2683 -0.3738
  375MOL0     O50549   3.797   0.816  10.330  0.5131 -0.0015 -1.0004
  375MOL0     C50550   3.711   0.931  10.353  0.5339 -0.1916  0.0618
  375MOL0     C50551   3.568   0.889  10.344  0.0140 -0.3873 -0.9579
  375MOL0     C50552   3.472   0.993  10.402  0.2699 -0.4798  0.3556
  375MOL0     C50553   3.474   1.017  10.555  0.2909  0.2500 -1.1224
  375MOL0     C50554   3.376   1.118  10.601 -0.7375 -0.7995 -0.0954
  375MOL0     C50555   3.283   1.194  10.628  0.4907 -0.0958  0.0653
  375MOL0     C50556   3.976   0.932  10.445  0.4529 -0.2074 -0.8985
  375MOL0     C50557   4.106   0.988  10.426  0.8197  0.8712 -0.2116
  375MOL0     H50558   4.525   1.030  10.659  2.5644 -1.6432  1.8975
  375MOL0     H50559   4.756   1.099  10.683 -1.3702  0.6625  0.5735
  375MOL0     H50560   4.954   1.225  10.683 -1.7346 -2.3460  1.1161
  375MOL0     H50561   4.987   1.066  10.641 -3.2566  0.7407  0.9286
  375MOL0     H50562   5.162   1.126  10.488 -3.9221 -1.0655 -0.0679
  375MOL0     H50563   5.116   1.301  10.510  0.6581  0.3533  0.0006
  375MOL0     H50564   5.209   1.308  10.737  2.9880  0.9102 -0.1019
  375MOL0     H50565   5.238   1.133  10.726  1.1014 -0.1796  0.4699
  375MOL0     H50566   5.406   1.149  10.549 -1.1569  0.2519  0.8452
  375MOL0     H50567   5.340   1.310  10.509 -0.6606 -0.2884  0.3519
  375MOL0     H50568   5.563   1.318  10.598  0.7863 -2.4531  1.1530
  375MOL0     H50569   5.440   1.422  10.676  1.1342  0.5456  1.4417
  375MOL0     H50570   5.452   1.247  10.873 -0.1834 -1.9390  0.8677
  375MOL0     H50571   5.550   1.131  10.780  4.9893  1.6147 -1.2781
  375MOL0     H50572   5.625   1.400  10.888 -5.0807 -0.8265 -0.8886
  375MOL0     H50573   5.673   1.239  10.938  1.9230 -3.0135 -2.3417
  375MOL0     H50574   5.855   1.342  10.811 -0.1040  1.0096  0.6976
  375MOL0     H50575   5.752   1.379  10.675 -1.5273 -0.0334 -0.7524
  375MOL0     H50576   5.940   1.057  10.790 -0.8676 -3.4945  1.1349
  375MOL0     H50577   6.020   0.907  10.497 -0.7771  1.9164  1.1512
  375MOL0     H50578   5.978   0.820  10.645 -1.7914 -1.6963 -0.1927
  375MOL0     H50579   5.832   0.830  10.363 -1.1357 -1.3437  0.4355
  375MOL0     H50580   5.763   0.751  10.503  0.1643 -0.3681  0.0055
  375MOL0     H50581   5.905   0.621  10.313  0.8429  1.6376 -0.8654
  375MOL0     H50582   5.923   0.575  10.473 -1.2239  1.1877 -0.0561
  375MOL0     H50583   6.131   0.591  10.338  0.1092 -0.4523 -0.0266
  375MOL0     H50584   6.143   0.725  10.458 -1.1843  0.4523 -0.1290
  375MOL0     H50585   6.089   0.882  10.027  0.5674  0.9024 -1.4191
  375MOL0     H50586   6.288   0.819   9.736 -1.0708 -0.3035 -1.2119
  375MOL0     H50587   6.143   0.883   9.796 -0.3029  3.5530  0.3951
  375MOL0     H50588   6.264   0.995   9.791  0.8687  1.0364  1.4745
  375MOL0     H50589   6.608   0.702   9.581 -0.5037  0.0234 -1.6838
  375MOL0     H50590   6.813   0.759   9.431  1.4192  2.3784 -2.3459
  375MOL0     H50591   7.135   1.019   9.607  0.9636  2.2181 -0.2879
  375MOL0     H50592   7.160   1.030   9.433 -1.4319  1.1044 -1.7699
  375MOL0     H50593   6.924   1.190   9.501  0.9485 -1.0631 -1.4798
  375MOL0     H50594   7.072   1.222   9.597 -0.0704 -0.6448 -0.3398
  375MOL0     H50595   7.041   1.256   9.303 -0.5095  0.2030 -0.2421
  375MOL0     H50596   7.197   1.239   9.376 -0.4087 -2.7678  1.5605
  375MOL0     H50597   7.090   1.464   9.323  3.4281  0.1428  0.4946
  375MOL0     H50598   6.992   1.447   9.470  0.5165 -1.4364  0.3393
  375MOL0     H50599   7.298   1.427   9.494 -0.7360 -0.4428 -1.2090
  375MOL0     H50600   7.188   1.433   9.613 -2.5033 -1.6976 -1.2382
  375MOL0     H50601   7.343   1.632   9.542  1.1189  2.0269 -2.6539
  375MOL0     H50602   7.268   1.627   9.388 -1.9829  0.4554  0.2728
  375MOL0     H50603   7.082   1.677   9.612  3.0265 -1.0541  0.1228
  375MOL0     H50604   7.052   1.716   9.451  0.0457 -1.5558  1.5862
  375MOL0     H50605   7.097   1.921   9.559  0.0517  0.3340 -2.0496
  375MOL0     H50606   7.243   1.895   9.465 -2.0765  0.1942 -0.5337
  375MOL0     H50607   6.892   1.087   9.689 -1.8661  1.4189 -2.7919
  375MOL0     H50608   6.692   1.043   9.818  1.4141 -1.5953  0.5627
  375MOL0     H50609   6.544   0.762  10.164  0.2784  0.2783  0.9192
  375MOL0     H50610   6.347   0.739  10.325 -1.2613  3.7392  0.6687
  375MOL0     H50611   4.792   1.196  10.275  2.9414 -1.8923  0.5378
  375MOL0     H50612   4.555   1.126  10.229  1.0353 -0.5183 -0.9883
  375MOL0     H50613   4.173   0.834  10.123 -0.7523  0.5199 -0.2807
  375MOL0     H50614   3.949   0.753  10.161 -4.2495  1.8149  1.7885
  375MOL0     H50615   3.720   0.961  10.458  0.7974 -3.1656  0.9757
  375MOL0     H50616   3.724   1.010  10.278 -2.1937 -0.2115 -0.5422
  375MOL0     H50617   3.553   0.790  10.389  3.0998  0.3800  2.2468
  375MOL0     H50618   3.557   0.882  10.236 -2.2307  1.7897 -0.9529
  375MOL0     H50619   3.368   0.967  10.378 -0.1835  1.5082  0.0386
  375MOL0     H50620   3.492   1.090  10.356 -3.2055  1.6097  2.7729
  375MOL0     H50621   3.568   1.047  10.601 -0.9345  2.3277  0.1733
  375MOL0     H50622   3.452   0.922  10.605  1.9456  1.8447  3.1148
  375MOL0     H50623   3.201   1.263  10.634 -0.2300 -0.9101 -0.1983
  375MOL0     H50624   3.909   0.957  10.525 -0.0002 -4.5194  0.3175
  375MOL0     H50625   4.138   1.061  10.499  0.8036  1.8773 -1.1812
  376MOL0     O50626   5.622   7.393   6.590 -0.3221  0.1084 -0.0799
  376MOL0     C50627   5.627   7.431   6.470 -0.2656 -0.8122 -0.0144
  376MOL0     O50628   5.561   7.373   6.366  0.3721  0.3296 -0.3029
  376MOL0     C50629   5.478   7.270   6.394 -0.3686  0.6242  0.5729
  376MOL0     C50630   5.524   7.139   6.359  0.2166 -1.1182  0.5910
  376MOL0     C50631   5.426   7.032   6.366 -1.7158 -1.1512  0.4765
  376MOL0     C50632   5.299   7.056   6.400 -0.6433 -0.4671 -0.4107
  376MOL0     O50633   5.192   6.972   6.382  0.3941  0.1727 -0.3247
  376MOL0     C50634   5.202   6.872   6.286  0.3972 -0.1372 -0.4058
  376MOL0     C50635   5.080   6.783   6.300 -0.3078  0.4109 -0.5229
  376MOL0     C50636   4.968   6.830   6.198  0.4920  1.5247  0.8532
  376MOL0     C50637   4.829   6.778   6.246 -0.5081  0.2676 -0.7394
  376MOL0     C50638   4.755   6.870   6.352 -0.5896  0.3641 -0.5095
  376MOL0     C50639   4.825   6.901   6.487 -1.0605  0.8295  0.7904
  376MOL0     C50640   4.835   6.776   6.585  0.3081 -0.1644 -0.4168
  376MOL0     C50641   4.692   6.738   6.627  0.7572 -0.3348  0.3177
  376MOL0     N50642   4.686   6.621   6.712  0.7200  0.1820  0.2845
  376MOL0     C50643   4.644   6.618   6.841 -0.0351 -0.4041 -0.1557
  376MOL0     C50644   4.646   6.487   6.873  1.0102 -0.0249 -0.4218
  376MOL0     C50645   4.604   6.415   6.995 -0.7040 -0.8908  0.3306
  376MOL0     C50646   4.565   6.509   7.118 -0.6610 -0.6741 -0.0819
  376MOL0     C50647   4.551   6.436   7.247  0.0215 -0.4132  0.4531
  376MOL0     C50648   4.538   6.520   7.376  0.5057  0.6903 -0.2453
  376MOL0     O50649   4.643   6.612   7.382  0.2598 -0.7890 -0.2821
  376MOL0     C50650   4.600   6.735   7.424 -0.0448  0.3024  0.2760
  376MOL0     C50651   4.536   6.754   7.544 -1.2992  0.0154 -0.5694
  376MOL0     C50652   4.490   6.883   7.584 -0.3505  0.2268  0.2624
  376MOL0     C50653   4.410   6.894   7.720  0.3759  0.8303 -0.0132
  376MOL0     C50654   4.497   6.997   7.493  0.2215 -0.3226  0.1059
  376MOL0     C50655   4.473   7.142   7.525  0.8811  0.6224 -0.0197
  376MOL0     O50656   4.491   7.240   7.429 -0.1662  0.3525  0.0889
  376MOL0     C50657   4.437   7.356   7.465  0.3983  0.5166 -0.0108
  376MOL0     C50658   4.308   7.377   7.411  0.1687 -0.7774  0.5871
  376MOL0     C50659   4.246   7.502   7.410 -0.5165  0.9192  0.4616
  376MOL0     C50660   4.316   7.613   7.463 -0.4132  0.8694  0.7626
  376MOL0     O50661   4.268   7.740   7.463  0.1159 -0.5013  0.1515
  376MOL0     C50662   4.127   7.737   7.499 -0.0582  0.7013 -0.2001
  376MOL0     C50663   4.092   7.888   7.538  0.6939  1.0038  0.5219
  376MOL0     C50664   4.137   7.919   7.677  0.0037  0.6093  0.4212
  376MOL0     C50665   4.101   8.059   7.703  0.5217 -0.8794  0.0007
  376MOL0     C50666   3.983   8.077   7.802 -1.0083  0.2192  1.2769
  376MOL0     C50667   3.840   8.073   7.738 -0.2217 -0.0458  0.1900
  376MOL0     C50668   3.732   8.092   7.854  0.0972  0.4475 -0.0088
  376MOL0     C50669   3.600   8.079   7.784  0.1183  0.1530 -0.4686
  376MOL0    Cl50670   3.570   8.195   7.645 -0.5815 -0.3104 -0.5974
  376MOL0     C50671   4.441   7.590   7.525 -0.6243 -0.1434 -0.3184
  376MOL0     C50672   4.506   7.462   7.532  0.3837  1.2380 -0.0125
  376MOL0     O50673   4.438   7.161   7.641  0.3991  0.4839  0.3295
  376MOL0     C50674   4.570   6.979   7.372 -0.7200  0.6741  0.3225
  376MOL0     C50675   4.618   6.848   7.338 -0.0399 -0.1552 -0.0570
  376MOL0     N50676   4.670   6.409   6.758  0.0901  0.2086 -0.1965
  376MOL0     N50677   4.695   6.491   6.668 -0.3098 -0.2837  0.3136
  376MOL0     C50678   5.252   7.188   6.440  0.2993  0.0412 -0.0698
  376MOL0     C50679   5.344   7.291   6.439 -0.2907 -0.7200 -0.6722
  376MOL0     C50680   5.709   7.560   6.437 -0.4947  0.0446  0.2617
  376MOL0     C50681   5.724   7.615   6.309 -0.8320 -0.1009 -0.7166
  376MOL0     C50682   5.792   7.728   6.276 -0.6654 -0.7500 -0.1328
  376MOL0     C50683   5.858   7.801   6.377  0.0448 -0.3077 -0.0956
  376MOL0     O50684   5.929   7.915   6.358  0.5923  0.0062 -0.1225
  376MOL0     C50685   5.934   7.964   6.213  0.2842  0.3178 -1.7366
  376MOL0     C50686   5.797   8.022   6.165  0.1126 -0.6418  0.2364
  376MOL0     C50687   5.808   8.165   6.112 -0.1722 -0.6162  0.2733
  376MOL0     C50688   5.679   8.241   6.076  0.0334  0.9428 -0.3378
  376MOL0     C50689   5.588   8.157   5.993  0.3301  0.3998  0.0286
  376MOL0     C50690   5.518   8.087   5.924 -0.3096  1.1072  0.7657
  376MOL0     C50691   5.842   7.750   6.512  0.2867  0.3705  0.1095
  376MOL0     C50692   5.765   7.635   6.539 -0.6329 -0.1844 -0.2639
  376MOL0     H50693   5.616   7.111   6.308  0.5561  0.3164  0.3585
  376MOL0     H50694   5.463   6.931   6.351  0.0527 -0.3793 -0.8549
  376MOL0     H50695   5.219   6.920   6.189 -0.4294 -0.1419 -0.5625
  376MOL0     H50696   5.291   6.816   6.313  0.5168 -0.7446 -1.9375
  376MOL0     H50697   5.110   6.680   6.282 -0.9305  0.1668 -0.1909
  376MOL0     H50698   5.051   6.777   6.405  1.7103 -0.7985  0.0303
  376MOL0     H50699   4.966   6.936   6.172  1.2944  0.9371 -1.9327
  376MOL0     H50700   4.998   6.777   6.107 -0.5307  3.2698 -0.5573
  376MOL0     H50701   4.756   6.771   6.165 -1.2940  1.5418 -0.1789
  376MOL0     H50702   4.857   6.677   6.277 -1.7605 -0.2025 -1.0953
  376MOL0     H50703   4.734   6.968   6.310 -1.2869  0.4935  0.1060
  376MOL0     H50704   4.653   6.837   6.376 -0.4269  0.1699 -0.0608
  376MOL0     H50705   4.916   6.954   6.456 -0.6840  0.0240  0.4672
  376MOL0     H50706   4.784   6.980   6.550 -1.1310  1.1282  0.3762
  376MOL0     H50707   4.898   6.699   6.540  0.0108 -1.2380  0.9426
  376MOL0     H50708   4.888   6.798   6.678 -2.3242  2.5751  0.6094
  376MOL0     H50709   4.627   6.717   6.541  0.0524  1.6183  0.3004
  376MOL0     H50710   4.646   6.825   6.675  0.3963  0.1454 -0.8545
  376MOL0     H50711   4.611   6.700   6.904  1.6312 -1.7636  2.6854
  376MOL0     H50712   4.534   6.337   6.967 -1.4540  0.1742 -0.8791
  376MOL0     H50713   4.698   6.369   7.026 -1.2085 -0.2542  3.0885
  376MOL0     H50714   4.465   6.546   7.096 -0.7900 -0.5690  0.6429
  376MOL0     H50715   4.635   6.590   7.140 -1.3874 -0.1683  0.4217
  376MOL0     H50716   4.636   6.372   7.271 -1.4542 -1.0912  4.8475
  376MOL0     H50717   4.459   6.377   7.237  1.3507 -3.1858  3.1575
  376MOL0     H50718   4.536   6.442   7.452  1.3074  0.8056 -0.0898
  376MOL0     H50719   4.437   6.557   7.361 -0.6679 -1.5403  1.6385
  376MOL0     H50720   4.506   6.671   7.607  0.4859 -0.3109 -0.1044
  376MOL0     H50721   4.324   6.961   7.724 -0.4857 -0.2874  1.0270
  376MOL0     H50722   4.375   6.792   7.739 -1.7520  1.7300  1.1991
  376MOL0     H50723   4.474   6.923   7.804 -1.9699 -1.9768  3.0109
  376MOL0     H50724   4.261   7.287   7.373 -0.4906 -0.2708  0.1911
  376MOL0     H50725   4.153   7.521   7.357 -1.3822 -0.1925  1.5044
  376MOL0     H50726   4.068   7.705   7.413  2.6243  4.5335 -3.9154
  376MOL0     H50727   4.124   7.666   7.582  0.3365  0.2262 -0.5782
  376MOL0     H50728   4.139   7.954   7.464  1.1614  1.0136  0.8285
  376MOL0     H50729   3.983   7.903   7.530  0.9974  3.1303 -0.4148
  376MOL0     H50730   4.246   7.916   7.678 -0.0100 -1.2665  2.3730
  376MOL0     H50731   4.100   7.850   7.753  2.3101 -2.2192 -0.8293
  376MOL0     H50732   4.193   8.112   7.729 -0.4636 -0.1727  2.3243
  376MOL0     H50733   4.056   8.106   7.615  1.0331  1.1229  0.7563
  376MOL0     H50734   3.997   8.178   7.841  1.1962  1.8721 -3.1042
  376MOL0     H50735   3.999   8.012   7.888 -2.3405  0.0730  1.4448
  376MOL0     H50736   3.829   8.159   7.672 -2.1301 -0.5947 -0.2630
  376MOL0     H50737   3.823   7.973   7.696 -3.1791  0.4496  0.0450
  376MOL0     H50738   3.748   8.186   7.909  1.0022  0.7983 -0.8358
  376MOL0     H50739   3.743   8.009   7.924  2.0356 -2.6878 -3.6323
  376MOL0     H50740   3.521   8.106   7.854 -0.4466 -0.5457 -0.8249
  376MOL0     H50741   3.578   7.974   7.764 -3.4936  0.2256  2.0970
  376MOL0     H50742   4.498   7.676   7.559  0.4617 -0.5947 -0.9683
  376MOL0     H50743   4.610   7.443   7.555  0.0363 -1.9752 -0.6195
  376MOL0     H50744   4.603   7.061   7.309 -0.8791 -0.4253 -1.2559
  376MOL0     H50745   4.650   6.844   7.235 -2.5304  2.6934 -1.1097
  376MOL0     H50746   5.152   7.196   6.483 -1.0629 -1.2404 -2.7383
  376MOL0     H50747   5.324   7.388   6.483  0.9327 -0.0829 -1.4740
  376MOL0     H50748   5.670   7.582   6.220  0.7068 -0.0572 -1.7014
  376MOL0     H50749   5.793   7.769   6.175 -1.0325 -1.2544 -0.3484
  376MOL0     H50750   6.013   8.039   6.201  0.5849  0.3435  0.0727
  376MOL0     H50751   5.966   7.885   6.144  2.5086 -0.6867  0.2556
  376MOL0     H50752   5.718   8.032   6.239  0.1156  0.2524  0.1307
  376MOL0     H50753   5.766   7.954   6.085  3.6664 -1.2338 -0.8041
  376MOL0     H50754   5.867   8.159   6.020 -1.3255  0.4046 -0.5590
  376MOL0     H50755   5.875   8.225   6.174  0.9587 -1.6548  0.1032
  376MOL0     H50756   5.704   8.331   6.020 -1.7798  0.3452 -2.2176
  376MOL0     H50757   5.621   8.265   6.165 -3.1736 -2.6604 -1.2087
  376MOL0     H50758   5.434   8.039   5.879  2.0406 -0.5979 -2.1039
  376MOL0     H50759   5.884   7.805   6.595  0.7729  0.8860 -0.4663
  376MOL0     H50760   5.756   7.618   6.646  3.1296  0.4749  0.2834
  377MOL0     O50761   9.750   0.558   3.596  0.0210  0.2129  0.9383
  377MOL0     C50762   9.722   0.637   3.514  0.5831 -0.3064  0.7405
  377MOL0     O50763   9.649   0.750   3.535 -0.0404  0.6610  0.3472
  377MOL0     C50764   9.626   0.776   3.672  0.0275 -0.7307  0.0646
  377MOL0     C50765   9.721   0.842   3.752 -1.2567  0.9356 -0.5983
  377MOL0     C50766   9.686   0.880   3.881 -0.7396 -0.3714 -0.2218
  377MOL0     C50767   9.552   0.859   3.923  0.8082  0.3295  0.2848
  377MOL0     O50768   9.520   0.882   4.054  0.1718  0.5914  0.0922
  377MOL0     C50769   9.386   0.869   4.104 -0.1102  0.1163 -0.7595
  377MOL0     C50770   9.376   0.938   4.242  0.4609  0.0693 -0.6468
  377MOL0     C50771   9.239   0.914   4.310 -0.7665  0.1349  0.3789
  377MOL0     C50772   9.215   0.992   4.441  1.8824 -0.0937 -1.0508
  377MOL0     C50773   9.096   0.926   4.525 -0.2448  1.2002  1.0337
  377MOL0     C50774   9.065   0.991   4.658  0.1072 -0.1127  1.5090
  377MOL0     C50775   9.141   0.923   4.772  0.2208 -0.0203 -0.2884
  377MOL0     C50776   9.141   1.021   4.885  0.3977  0.3326  0.3447
  377MOL0     N50777   9.237   1.129   4.854 -0.0608 -0.1948  0.2766
  377MOL0     C50778   9.370   1.109   4.838  0.0048 -0.0831  0.2497
  377MOL0     C50779   9.427   1.235   4.848 -0.6811 -0.5311  0.5586
  377MOL0     C50780   9.566   1.278   4.830 -0.4824 -0.5319  0.3805
  377MOL0     C50781   9.597   1.274   4.673  0.1583 -0.0123 -0.0225
  377MOL0     C50782   9.539   1.389   4.603 -0.0788 -1.2237  0.1882
  377MOL0     C50783   9.396   1.381   4.554 -0.7051 -0.3020 -0.1529
  377MOL0     O50784   9.361   1.455   4.439 -0.3846  0.1569 -0.5455
  377MOL0     C50785   9.334   1.376   4.329 -0.7054 -0.9512 -0.4525
  377MOL0     C50786   9.201   1.347   4.286  0.1123 -0.1849  0.2763
  377MOL0     C50787   9.163   1.292   4.161  0.4189 -0.2847  0.3685
  377MOL0     C50788   9.022   1.261   4.133  0.1318  0.0847  0.3823
  377MOL0     C50789   9.262   1.261   4.072  0.3460  0.7408 -0.1109
  377MOL0     C50790   9.245   1.199   3.930 -0.0643  0.1942 -0.1135
  377MOL0     O50791   9.311   1.246   3.825 -0.0457 -0.2569 -0.2608
  377MOL0     C50792   9.291   1.195   3.702  0.6088 -1.0808 -0.3420
  377MOL0     C50793   9.319   1.062   3.664 -0.0891 -0.2222 -0.1880
  377MOL0     C50794   9.299   1.024   3.538 -0.2265 -0.3859  0.7121
  377MOL0     C50795   9.254   1.108   3.438  1.1753  0.2147  0.1383
  377MOL0     O50796   9.222   1.058   3.318  0.6871  0.3270  0.7618
  377MOL0     C50797   9.121   1.123   3.242 -1.0730 -0.0323  0.4839
  377MOL0     C50798   9.188   1.213   3.132 -0.6003 -0.4486  0.9282
  377MOL0     C50799   9.267   1.113   3.042  0.0068 -0.1281 -0.3092
  377MOL0     C50800   9.413   1.148   3.046 -0.2725  0.4862  0.2147
  377MOL0     C50801   9.499   1.053   2.953 -0.3575  0.3382  0.3095
  377MOL0     C50802   9.639   1.114   2.927  0.4562  0.5899 -0.2319
  377MOL0     C50803   9.733   1.008   2.851 -0.1525 -0.2674 -0.2023
  377MOL0     C50804   9.839   1.092   2.757  0.0604  1.3349 -0.9420
  377MOL0    Cl50805   9.955   0.955   2.721  0.0734  0.0268  0.2133
  377MOL0     C50806   9.236   1.247   3.479 -0.1775  0.1671  0.2243
  377MOL0     C50807   9.257   1.292   3.604  0.0644  0.3389  0.6778
  377MOL0     O50808   9.173   1.097   3.929 -0.2811  0.0574 -0.7519
  377MOL0     C50809   9.390   1.297   4.116 -1.0408  0.0239  0.6077
  377MOL0     C50810   9.428   1.345   4.242  0.0333  0.8962 -1.0051
  377MOL0     N50811   9.324   1.317   4.867  0.4334 -1.0472 -0.6351
  377MOL0     N50812   9.217   1.263   4.857  0.2392  0.3455  0.1200
  377MOL0     C50813   9.463   0.787   3.846  0.3416  0.0400  0.7200
  377MOL0     C50814   9.501   0.745   3.723  0.1090  0.4338 -0.7805
  377MOL0     C50815   9.767   0.625   3.370 -0.1046 -1.1601 -0.1203
  377MOL0     C50816   9.860   0.532   3.325  0.0906  0.2320  0.0533
  377MOL0     C50817   9.887   0.515   3.187  0.2795  0.1247  0.0899
  377MOL0     C50818   9.829   0.601   3.092  0.0205  0.0024 -0.3738
  377MOL0     O50819   9.869   0.596   2.962  0.3621  0.0564  0.3469
  377MOL0     C50820   9.759   0.594   2.862 -0.8092 -0.9066 -0.4832
  377MOL0     C50821   9.814   0.619   2.730  0.4992  0.1910 -0.2894
  377MOL0     C50822   9.926   0.526   2.687  0.2124 -0.0608  0.0873
  377MOL0     C50823   9.976   0.542   2.546 -0.0501 -0.4066 -1.1072
  377MOL0     C50824   9.876   0.526   2.451  0.9134 -0.2727  0.4735
  377MOL0     C50825   9.787   0.514   2.372 -0.6020 -0.2937 -0.9142
  377MOL0     C50826   9.744   0.704   3.140 -0.4541  0.3093 -0.1785
  377MOL0     C50827   9.706   0.716   3.274 -0.1815  0.0373  0.5779
  377MOL0     H50828   9.819   0.879   3.724 -0.7692  1.1306  1.2107
  377MOL0     H50829   9.759   0.924   3.948 -0.3174  1.0434 -1.5572
  377MOL0     H50830   9.318   0.912   4.030 -0.9584 -4.8910 -3.3841
  377MOL0     H50831   9.355   0.764   4.105 -1.1114  0.4031  0.0953
  377MOL0     H50832   9.455   0.893   4.303 -0.9832 -1.9925 -0.1970
  377MOL0     H50833   9.389   1.046   4.239 -0.5401  0.2550  0.7731
  377MOL0     H50834   9.161   0.957   4.246  0.2884 -1.4995 -2.1511
  377MOL0     H50835   9.222   0.809   4.337  3.3137 -0.5151  1.0797
  377MOL0     H50836   9.314   0.981   4.487  1.4942  2.7392  0.7011
  377MOL0     H50837   9.204   1.098   4.416  1.6536 -0.2432 -1.5971
  377MOL0     H50838   9.015   0.920   4.452 -0.0974  3.6303  0.6159
  377MOL0     H50839   9.117   0.824   4.561 -1.8652  0.6093  0.3940
  377MOL0     H50840   9.083   1.098   4.642 -1.4622 -0.1162 -0.7041
  377MOL0     H50841   8.958   0.995   4.681  0.0726  1.5346  1.1688
  377MOL0     H50842   9.095   0.830   4.806 -0.2934  0.3781  0.1182
  377MOL0     H50843   9.239   0.892   4.735  0.3151  0.8905 -0.8356
  377MOL0     H50844   9.165   0.979   4.983  2.3288  2.8140  1.0215
  377MOL0     H50845   9.038   1.054   4.903  0.0942 -1.8800  3.7013
  377MOL0     H50846   9.425   1.017   4.819  3.3286  1.9028 -0.5546
  377MOL0     H50847   9.584   1.380   4.866  0.3316  0.0257 -1.4975
  377MOL0     H50848   9.636   1.213   4.884 -0.7526 -0.7803  0.4325
  377MOL0     H50849   9.571   1.185   4.615  2.4100 -1.5475  1.1765
  377MOL0     H50850   9.705   1.292   4.664  0.0740  2.0287  2.0317
  377MOL0     H50851   9.590   1.390   4.506 -4.4794  0.9827 -2.4386
  377MOL0     H50852   9.554   1.485   4.654 -0.6778  0.0459 -1.9144
  377MOL0     H50853   9.340   1.419   4.640 -0.4043  1.2772 -0.6232
  377MOL0     H50854   9.375   1.275   4.532  2.0376 -1.7290  3.2794
  377MOL0     H50855   9.115   1.395   4.330 -0.4137 -0.0868 -0.8326
  377MOL0     H50856   9.005   1.294   4.030  0.2822 -0.8116  0.0537
  377MOL0     H50857   9.006   1.156   4.159  4.2371 -0.7603  0.1659
  377MOL0     H50858   8.955   1.318   4.197  0.0784 -0.3266  0.6972
  377MOL0     H50859   9.351   1.002   3.748  2.4753  0.8377 -0.3188
  377MOL0     H50860   9.306   0.919   3.515 -3.3868 -0.7679  1.0204
  377MOL0     H50861   9.058   1.042   3.203  0.7445 -1.6298  0.7520
  377MOL0     H50862   9.057   1.188   3.303 -1.8403 -0.0781 -0.2498
  377MOL0     H50863   9.115   1.271   3.074  0.4402  1.2161  1.2052
  377MOL0     H50864   9.267   1.273   3.177 -0.7418 -0.2105  0.8625
  377MOL0     H50865   9.240   1.119   2.936  1.7343 -2.7193 -0.9958
  377MOL0     H50866   9.261   1.009   3.075  1.0068  0.3789  1.6389
  377MOL0     H50867   9.436   1.250   3.016  0.1902  0.3128 -0.0312
  377MOL0     H50868   9.455   1.124   3.144 -1.4548 -0.6001  0.4823
  377MOL0     H50869   9.455   1.051   2.853  2.1524 -1.9326 -0.8644
  377MOL0     H50870   9.505   0.951   2.990  1.1779 -1.1428 -3.5058
  377MOL0     H50871   9.632   1.200   2.859 -3.3440 -1.4420 -2.8288
  377MOL0     H50872   9.688   1.130   3.023  0.2605 -1.1363  0.1908
  377MOL0     H50873   9.684   0.925   2.801 -0.0702  0.1212 -0.9435
  377MOL0     H50874   9.785   0.959   2.934  0.3564 -1.9889 -1.4872
  377MOL0     H50875   9.893   1.171   2.811  2.0045 -0.3201 -0.3236
  377MOL0     H50876   9.793   1.132   2.667 -0.6492  0.2318 -1.0913
  377MOL0     H50877   9.210   1.326   3.410  2.3703 -0.5621 -1.7691
  377MOL0     H50878   9.256   1.400   3.613  2.9764  0.6675 -1.6531
  377MOL0     H50879   9.478   1.278   4.056  1.4142  1.7469  3.3480
  377MOL0     H50880   9.525   1.360   4.287 -1.8157 -0.9817  4.5516
  377MOL0     H50881   9.367   0.751   3.882 -1.0527 -1.9960 -4.1991
  377MOL0     H50882   9.436   0.680   3.664 -2.1579  2.4527 -0.6957
  377MOL0     H50883   9.915   0.483   3.404  1.4778  0.6894 -0.6013
  377MOL0     H50884   9.970   0.447   3.169  1.6688  0.5062  4.0387
  377MOL0     H50885   9.719   0.492   2.854 -0.6438 -1.0615  0.5818
  377MOL0     H50886   9.683   0.665   2.894  0.2028  0.5794 -1.2890
  377MOL0     H50887   9.867   0.714   2.738  1.0281 -0.0364 -0.9524
  377MOL0     H50888   9.738   0.633   2.652  0.0780  5.3801  0.6782
  377MOL0     H50889   9.902   0.421   2.704 -0.2213 -0.0156 -0.2219
  377MOL0     H50890  10.001   0.561   2.759  0.0011 -1.1385  0.8462
  377MOL0     H50891  10.048   0.465   2.517 -0.4936 -0.8563 -1.0115
  377MOL0     H50892  10.022   0.642   2.545 -3.3110  1.6545  4.5851
  377MOL0     H50893   9.699   0.519   2.310 -2.1567  3.2404  1.2515
  377MOL0     H50894   9.691   0.764   3.067 -1.7977 -2.5038 -1.6586
  377MOL0     H50895   9.630   0.787   3.307  1.0962  1.2019  1.1210
  378MOL0     O50896   1.786   3.074   7.998  0.1232  0.3777 -0.2028
  378MOL0     C50897   1.758   3.094   7.881 -0.4397  0.7746  0.6687
  378MOL0     O50898   1.830   3.165   7.797  0.3454  0.1236 -0.3172
  378MOL0     C50899   1.950   3.219   7.835  0.4211  0.4855  0.2595
  378MOL0     C50900   2.040   3.155   7.925 -0.7154  0.0444  0.3496
  378MOL0     C50901   2.154   3.228   7.962  0.0985 -0.9756 -0.8631
  378MOL0     C50902   2.180   3.359   7.922 -0.3945 -0.1440  0.5940
  378MOL0     O50903   2.290   3.427   7.968  0.0222  1.5138  0.8007
  378MOL0     C50904   2.309   3.563   7.947  0.0631  0.8566 -0.5945
  378MOL0     C50905   2.446   3.596   8.000  0.1434  0.1481  0.4714
  378MOL0     C50906   2.463   3.598   8.159 -0.0734 -0.4180 -0.3340
  378MOL0     C50907   2.617   3.603   8.193  1.0494 -0.3175 -0.5079
  378MOL0     C50908   2.649   3.605   8.339 -0.7434  0.2915  0.0737
  378MOL0     C50909   2.606   3.477   8.413  0.0501  0.1204  0.4573
  378MOL0     C50910   2.645   3.488   8.557  1.1347 -0.0593  0.0105
  378MOL0     C50911   2.609   3.617   8.634  0.3893  0.1028 -0.7247
  378MOL0     N50912   2.466   3.639   8.642 -0.4921  0.5977 -0.3139
  378MOL0     C50913   2.398   3.751   8.681  0.0817  0.4283 -0.1861
  378MOL0     C50914   2.268   3.720   8.697  0.3434  0.1037 -0.2241
  378MOL0     C50915   2.160   3.814   8.758  0.3953 -0.6404  0.0744
  378MOL0     C50916   2.011   3.822   8.708  0.3626  0.5236 -0.9847
  378MOL0     C50917   1.992   3.843   8.567 -0.2500 -1.1050  1.5267
  378MOL0     C50918   1.849   3.814   8.514  0.0234 -0.2980  0.2315
  378MOL0     O50919   1.806   3.678   8.532  0.2163  0.2379  0.1124
  378MOL0     C50920   1.683   3.640   8.489  0.2335 -0.4846  0.0374
  378MOL0     C50921   1.589   3.718   8.423  0.4316 -0.4326 -0.5258
  378MOL0     C50922   1.455   3.679   8.401 -1.0064 -0.3383  0.6522
  378MOL0     C50923   1.367   3.780   8.331 -0.0095 -0.4295 -0.0041
  378MOL0     C50924   1.423   3.545   8.430 -0.8615 -0.3404 -0.4199
  378MOL0     C50925   1.295   3.489   8.398 -0.0139 -0.1456 -1.1332
  378MOL0     O50926   1.296   3.355   8.370  0.2160  0.6065 -0.6459
  378MOL0     C50927   1.170   3.293   8.349 -0.3796 -0.0020  0.3507
  378MOL0     C50928   1.160   3.172   8.418  0.1139  0.2152 -0.5020
  378MOL0     C50929   1.044   3.093   8.396 -1.7198  1.3279 -0.3355
  378MOL0     C50930   0.933   3.141   8.325 -0.4906 -0.7028 -0.2625
  378MOL0     O50931   0.810   3.076   8.304 -0.5700 -0.2690  0.9998
  378MOL0     C50932   0.829   2.969   8.211  1.3723 -0.2210 -0.3054
  378MOL0     C50933   0.697   2.916   8.170  0.6219 -0.1914 -0.1067
  378MOL0     C50934   0.612   3.020   8.095 -0.3705  0.1124  0.0042
  378MOL0     C50935   0.466   2.973   8.071 -0.7450  0.0360 -0.3875
  378MOL0     C50936   0.391   3.069   7.979 -0.0516 -0.4571 -1.2623
  378MOL0     C50937   0.247   3.007   7.968 -0.5606  0.3093 -0.4824
  378MOL0     C50938   0.162   3.091   7.878 -0.2304 -0.2925  0.5604
  378MOL0     C50939   0.033   3.021   7.843  0.7408  0.3758  0.3260
  378MOL0    Cl50940  -0.075   3.107   7.730 -0.0361 -0.1465  0.1221
  378MOL0     C50941   0.948   3.262   8.258  0.5387 -0.2884 -0.1300
  378MOL0     C50942   1.059   3.339   8.272  0.5986  0.3116  0.4334
  378MOL0     O50943   1.197   3.560   8.399  0.7577 -0.4199  0.3892
  378MOL0     C50944   1.520   3.465   8.483 -0.2825 -0.6835  0.0832
  378MOL0     C50945   1.649   3.515   8.522  0.4469  0.6356 -0.0382
  378MOL0     N50946   2.249   3.586   8.659 -0.3195 -0.5642  0.0501
  378MOL0     N50947   2.369   3.535   8.639  0.4672 -0.7197  0.5634
  378MOL0     C50948   2.082   3.419   7.843  0.2715  0.2666 -0.4596
  378MOL0     C50949   1.967   3.349   7.799  0.2044 -0.6695  0.8365
  378MOL0     C50950   1.633   3.033   7.824 -0.0844 -0.4039 -0.1416
  378MOL0     C50951   1.557   2.933   7.898 -1.3363  0.0847 -0.5220
  378MOL0     C50952   1.446   2.872   7.834  0.1130 -0.7581 -0.3122
  378MOL0     C50953   1.417   2.900   7.696 -0.6646 -0.6222 -0.4250
  378MOL0     O50954   1.305   2.837   7.646 -0.5509  0.2307  0.5141
  378MOL0     C50955   1.260   2.875   7.513  0.4274  0.3073 -1.2356
  378MOL0     C50956   1.116   2.819   7.490 -0.5558  0.6777 -0.0602
  378MOL0     C50957   1.087   2.835   7.345 -0.2063 -0.5157 -0.0911
  378MOL0     C50958   0.940   2.799   7.334  0.6295  0.1554 -0.3966
  378MOL0     C50959   0.900   2.788   7.194  0.9983  0.0863 -0.8485
  378MOL0     C50960   0.898   2.784   7.077  0.7443  0.3506  0.4312
  378MOL0     C50961   1.498   2.993   7.630  0.2395 -0.2149  0.2637
  378MOL0     C50962   1.599   3.062   7.692  0.2199 -0.8319 -0.7575
  378MOL0     H50963   2.023   3.051   7.951 -2.2785 -0.0448 -0.9136
  378MOL0     H50964   2.238   3.186   8.017  0.4009  0.6898  0.0071
  378MOL0     H50965   2.303   3.577   7.838  1.4056 -0.5058 -0.8667
  378MOL0     H50966   2.239   3.631   7.996 -1.5213  0.1032 -1.7409
  378MOL0     H50967   2.515   3.515   7.971 -0.5625  0.8107 -3.5962
  378MOL0     H50968   2.480   3.690   7.957 -0.4873  0.2983  0.2980
  378MOL0     H50969   2.413   3.687   8.200  0.6565  0.8770 -2.1482
  378MOL0     H50970   2.418   3.509   8.205  0.9354 -1.5926 -1.5411
  378MOL0     H50971   2.661   3.512   8.151  2.0704 -0.3076  0.4830
  378MOL0     H50972   2.673   3.685   8.147  2.3730 -1.5153 -1.1011
  378MOL0     H50973   2.757   3.614   8.356 -0.2514 -2.8780 -0.6729
  378MOL0     H50974   2.597   3.692   8.380  1.0245  0.7991  1.3692
  378MOL0     H50975   2.498   3.464   8.398  0.5053  0.0970 -4.3534
  378MOL0     H50976   2.659   3.390   8.372  1.1972  1.3235 -0.6704
  378MOL0     H50977   2.605   3.403   8.614  1.2224  1.8708  3.1874
  378MOL0     H50978   2.754   3.479   8.561  1.0575 -1.0722  0.2423
  378MOL0     H50979   2.657   3.700   8.582 -2.2345  2.1837 -0.0570
  378MOL0     H50980   2.649   3.628   8.736 -2.8438 -1.8329  0.9195
  378MOL0     H50981   2.447   3.840   8.717 -1.7101  0.7731  1.5780
  378MOL0     H50982   2.165   3.802   8.867 -0.8070  3.2249  0.7155
  378MOL0     H50983   2.189   3.918   8.742 -2.2399 -0.1174 -1.9223
  378MOL0     H50984   1.958   3.903   8.758 -2.4050 -1.5385 -0.3116
  378MOL0     H50985   1.968   3.725   8.736 -0.4005 -0.0430 -3.7756
  378MOL0     H50986   2.070   3.785   8.516  0.9512 -1.1342  3.2979
  378MOL0     H50987   2.017   3.947   8.544  3.2255 -2.4563 -2.0751
  378MOL0     H50988   1.847   3.843   8.408  1.2150  0.6602  0.4551
  378MOL0     H50989   1.780   3.879   8.569  0.5408 -0.0228  0.5625
  378MOL0     H50990   1.619   3.815   8.384 -2.1589 -0.6539 -3.4239
  378MOL0     H50991   1.319   3.854   8.396  2.8074  1.5074  0.0508
  378MOL0     H50992   1.420   3.838   8.255 -0.6282 -0.8730 -0.7720
  378MOL0     H50993   1.286   3.730   8.278 -1.1921  0.7870  0.5816
  378MOL0     H50994   1.237   3.131   8.483 -0.2629  1.8779  1.0662
  378MOL0     H50995   1.042   2.998   8.448  0.6217  0.9334 -0.8564
  378MOL0     H50996   0.883   3.013   8.127  4.6556  0.2084  1.8290
  378MOL0     H50997   0.894   2.892   8.254  3.3254  2.5851  2.2268
  378MOL0     H50998   0.707   2.824   8.111 -2.3321  0.5115 -1.8411
  378MOL0     H50999   0.647   2.890   8.264  2.5931 -0.3049  0.9667
  378MOL0     H51000   0.651   3.045   7.996 -1.5788 -1.8950 -1.0368
  378MOL0     H51001   0.617   3.113   8.152  2.4715  1.9885 -2.9542
  378MOL0     H51002   0.468   2.878   8.017  0.3180  1.0115 -2.1470
  378MOL0     H51003   0.418   2.967   8.169  1.7480 -0.5902  0.8876
  378MOL0     H51004   0.448   3.078   7.886  2.1961  0.6987  0.1296
  378MOL0     H51005   0.390   3.171   8.018  1.1477 -0.5935 -0.8216
  378MOL0     H51006   0.250   2.906   7.925  3.7152  0.7738 -1.7724
  378MOL0     H51007   0.188   3.008   8.060  1.5764 -2.5236  1.0846
  378MOL0     H51008   0.228   3.106   7.792  0.2894 -1.7264  0.6829
  378MOL0     H51009   0.138   3.186   7.926 -5.3796 -1.0997  0.1152
  378MOL0     H51010  -0.023   2.996   7.934 -0.5015 -2.6010 -1.1338
  378MOL0     H51011   0.062   2.922   7.806  1.4432  0.0248  1.7407
  378MOL0     H51012   0.869   3.295   8.191 -0.7052  3.0884  2.7297
  378MOL0     H51013   1.059   3.429   8.211 -1.9236  2.5495  3.4017
  378MOL0     H51014   1.499   3.361   8.505 -1.3879 -1.1468 -2.7992
  378MOL0     H51015   1.719   3.451   8.574 -1.3532  0.9167  2.9777
  378MOL0     H51016   2.081   3.524   7.817 -3.0355  0.9485  1.7897
  378MOL0     H51017   1.898   3.403   7.735  1.1289  0.2893  0.6120
  378MOL0     H51018   1.595   2.909   7.997  1.1062  0.6141 -1.2681
  378MOL0     H51019   1.380   2.802   7.884  0.8387  0.4919  2.6091
  378MOL0     H51020   1.257   2.984   7.501 -1.6471  0.5672  0.8465
  378MOL0     H51021   1.327   2.831   7.439 -0.7169 -1.5034 -1.2493
  378MOL0     H51022   1.045   2.865   7.559  0.6377  0.3303  1.4648
  378MOL0     H51023   1.107   2.717   7.528 -3.6572  0.5726 -0.8367
  378MOL0     H51024   1.150   2.767   7.286 -1.0608 -1.3043 -0.1192
  378MOL0     H51025   1.106   2.936   7.308 -2.3813 -1.0938 -3.2471
  378MOL0     H51026   0.880   2.879   7.379  1.8739  1.5755 -1.1604
  378MOL0     H51027   0.922   2.702   7.381  1.9162 -0.0992 -0.3839
  378MOL0     H51028   0.895   2.766   6.971  2.9523 -3.4507  0.8300
  378MOL0     H51029   1.470   3.025   7.530  1.7416 -2.2618 -0.8824
  378MOL0     H51030   1.644   3.138   7.628 -0.1347 -0.3206 -0.4089
  379MOL0     O51031   7.256   5.412   8.675 -0.6996  0.1713 -0.4688
  379MOL0     C51032   7.137   5.432   8.648  0.3902  0.5959 -0.3179
  379MOL0     O51033   7.067   5.532   8.711 -0.3753  0.5470  0.2616
  379MOL0     C51034   7.134   5.612   8.802  0.3228 -0.1891  1.5045
  379MOL0     C51035   7.202   5.725   8.757 -0.6244  0.3584  0.3120
  379MOL0     C51036   7.279   5.799   8.847  0.5613 -0.2462 -1.0899
  379MOL0     C51037   7.280   5.772   8.979  0.0004 -0.0053 -0.3823
  379MOL0     O51038   7.352   5.839   9.079 -0.0401  0.9990 -0.0852
  379MOL0     C51039   7.425   5.961   9.043 -0.1574 -0.0342 -0.2553
  379MOL0     C51040   7.560   5.921   8.976  0.0433 -0.1543  0.9940
  379MOL0     C51041   7.646   5.824   9.059  0.3671 -0.3892  0.1845
  379MOL0     C51042   7.756   5.767   8.970  0.4442 -0.3765  0.4966
  379MOL0     C51043   7.848   5.677   9.053  0.4772  0.9514  0.3048
  379MOL0     C51044   7.951   5.591   8.980  0.1897 -0.1739  0.0823
  379MOL0     C51045   8.048   5.512   9.072  0.7105  0.0251 -0.1150
  379MOL0     C51046   8.134   5.413   8.997  0.9382 -0.4434  0.9177
  379MOL0     N51047   8.052   5.299   8.962  0.9580  0.3642  0.4861
  379MOL0     C51048   7.976   5.286   8.846  0.2689  0.9429 -0.3654
  379MOL0     C51049   7.915   5.166   8.865  0.1760 -0.0969  0.6238
  379MOL0     C51050   7.826   5.108   8.766  0.2506 -0.9287  0.1941
  379MOL0     C51051   7.680   5.112   8.812  0.6379  0.2306 -0.0063
  379MOL0     C51052   7.590   5.072   8.688  0.0759  0.7852  0.1382
  379MOL0     C51053   7.437   5.077   8.715  0.7400 -0.5206  0.5468
  379MOL0     O51054   7.372   5.041   8.593 -0.8667  1.1280 -0.0265
  379MOL0     C51055   7.249   4.993   8.592 -0.1656  0.2281  0.5999
  379MOL0     C51056   7.218   4.909   8.484  0.0405  0.1058 -0.0898
  379MOL0     C51057   7.099   4.840   8.477 -1.0382  0.2044  1.0760
  379MOL0     C51058   7.093   4.737   8.362  0.0694  0.1678  0.8020
  379MOL0     C51059   7.000   4.870   8.570 -0.2774 -0.5723 -0.4122
  379MOL0     C51060   6.869   4.806   8.569  0.0601  0.6063  0.2219
  379MOL0     O51061   6.804   4.781   8.441  0.2259 -0.7435  0.2509
  379MOL0     C51062   6.688   4.701   8.444  0.4399 -0.7697 -0.0685
  379MOL0     C51063   6.684   4.611   8.337  0.1996  0.0220 -0.2704
  379MOL0     C51064   6.575   4.519   8.316 -0.6798 -0.3549 -0.5834
  379MOL0     C51065   6.455   4.530   8.396  0.4062 -0.7342 -0.1371
  379MOL0     O51066   6.345   4.453   8.366 -0.0506  0.7740 -0.0111
  379MOL0     C51067   6.239   4.457   8.459 -0.0305  0.1337 -0.0682
  379MOL0     C51068   6.142   4.353   8.409  0.2958  0.0911 -0.2385
  379MOL0     C51069   6.081   4.378   8.269  0.3706  0.3217 -0.1885
  379MOL0     C51070   5.970   4.277   8.239 -1.0434  0.5836 -0.5533
  379MOL0     C51071   5.904   4.297   8.107  0.9209  0.2931 -0.2556
  379MOL0     C51072   5.821   4.425   8.093 -0.5207 -0.5364 -0.0315
  379MOL0     C51073   5.794   4.458   7.942 -0.6471  0.0200 -1.5312
  379MOL0     C51074   5.922   4.518   7.884  0.2291 -0.6842 -0.0755
  379MOL0    Cl51075   5.940   4.692   7.907  0.2508 -0.4313 -0.4010
  379MOL0     C51076   6.462   4.630   8.497  0.4739 -0.6153  0.1010
  379MOL0     C51077   6.568   4.719   8.519 -0.0746  1.5222  0.0431
  379MOL0     O51078   6.810   4.791   8.672 -0.3365 -0.6105 -0.5521
  379MOL0     C51079   7.027   4.969   8.670 -0.3998  0.1960 -0.4002
  379MOL0     C51080   7.150   5.024   8.686 -0.2306  0.0426  0.4588
  379MOL0     N51081   7.950   5.105   8.984  0.3737 -0.5532  0.7115
  379MOL0     N51082   8.030   5.193   9.047 -0.3907  0.6897  0.7325
  379MOL0     C51083   7.205   5.662   9.025  0.6719  0.2618  0.7057
  379MOL0     C51084   7.130   5.577   8.936 -1.6972  0.5345  0.1461
  379MOL0     C51085   7.079   5.356   8.537 -0.7599  0.1976  0.7553
  379MOL0     C51086   6.945   5.364   8.513  0.5399  1.3461  0.2950
  379MOL0     C51087   6.876   5.286   8.413  0.5008 -0.9008 -0.2193
  379MOL0     C51088   6.958   5.212   8.326  0.0674  0.4880 -0.7378
  379MOL0     O51089   6.900   5.141   8.219  0.2421 -0.3196  0.0648
  379MOL0     C51090   6.836   5.018   8.241 -1.2878  0.4493  0.3989
  379MOL0     C51091   6.818   4.949   8.106 -0.1396 -0.6889 -0.9124
  379MOL0     C51092   6.935   4.939   8.003  0.5571 -1.0814  0.3132
  379MOL0     C51093   6.883   4.877   7.868 -0.2573  0.0102 -1.2746
  379MOL0     C51094   7.003   4.843   7.791  0.0525 -1.0140  0.1485
  379MOL0     C51095   7.104   4.789   7.750 -0.3526  0.2918  0.9049
  379MOL0     C51096   7.096   5.220   8.341 -0.5456  0.4382 -0.0777
  379MOL0     C51097   7.164   5.288   8.439 -0.0931 -0.1083 -0.1776
  379MOL0     H51098   7.190   5.762   8.656 -0.4557 -0.0374  0.1482
  379MOL0     H51099   7.352   5.871   8.812 -0.2216  0.1244 -2.0317
  379MOL0     H51100   7.367   6.019   8.971  0.4158 -2.1533 -2.5861
  379MOL0     H51101   7.448   6.023   9.130  4.7975 -3.5889  1.4089
  379MOL0     H51102   7.543   5.867   8.883  1.7453 -2.7164  2.0481
  379MOL0     H51103   7.611   6.017   8.962 -1.9255  0.8883  0.7111
  379MOL0     H51104   7.680   5.878   9.148 -0.5065  3.2220 -1.4852
  379MOL0     H51105   7.591   5.733   9.082 -1.0483  0.7337  1.4606
  379MOL0     H51106   7.713   5.705   8.891 -0.6216  2.6265 -1.4975
  379MOL0     H51107   7.808   5.847   8.916  1.5513 -1.9492 -0.8319
  379MOL0     H51108   7.910   5.738   9.121  1.8072 -0.6397  0.5787
  379MOL0     H51109   7.783   5.607   9.106  0.5440  0.6331 -0.0337
  379MOL0     H51110   7.890   5.516   8.928 -1.8112  1.4490 -0.0500
  379MOL0     H51111   8.006   5.654   8.910 -3.1396  1.6448 -1.1012
  379MOL0     H51112   8.104   5.586   9.130  1.0424 -0.2790 -0.0441
  379MOL0     H51113   7.992   5.449   9.142  3.0249  1.2160  3.0650
  379MOL0     H51114   8.221   5.388   9.059  0.3428 -0.3874  1.7863
  379MOL0     H51115   8.166   5.461   8.904  0.0179 -0.2707  0.6881
  379MOL0     H51116   7.969   5.351   8.760 -0.4211  3.9280  1.8105
  379MOL0     H51117   7.837   5.167   8.674 -1.8365  1.2422  1.2293
  379MOL0     H51118   7.867   5.007   8.754  2.8002  0.0536  0.0822
  379MOL0     H51119   7.651   5.212   8.847  2.0234  0.1697  1.4206
  379MOL0     H51120   7.669   5.034   8.888 -1.5438 -0.6695 -1.1723
  379MOL0     H51121   7.612   4.971   8.652  0.7425  1.6855 -2.1588
  379MOL0     H51122   7.607   5.143   8.607 -1.9201  0.7313 -0.3733
  379MOL0     H51123   7.402   5.169   8.763  1.0572 -0.4597  0.6693
  379MOL0     H51124   7.414   5.003   8.792 -1.2740 -1.2770 -0.7190
  379MOL0     H51125   7.285   4.886   8.401 -1.3200  0.8952 -1.4637
  379MOL0     H51126   7.038   4.647   8.394 -2.5017  0.8572 -1.2656
  379MOL0     H51127   7.018   4.764   8.286  0.0154 -0.8369  0.4797
  379MOL0     H51128   7.185   4.725   8.303 -0.5943  2.4503 -0.8202
  379MOL0     H51129   6.773   4.596   8.277  2.5063 -0.5895  3.0606
  379MOL0     H51130   6.577   4.445   8.237  1.5283 -2.0732  0.9469
  379MOL0     H51131   6.268   4.448   8.564  0.1025  2.6428  0.1710
  379MOL0     H51132   6.188   4.553   8.445  3.1916  1.5085 -4.3442
  379MOL0     H51133   6.193   4.257   8.397  1.9830  0.7644  1.1051
  379MOL0     H51134   6.063   4.341   8.483 -2.5687 -0.9125 -3.2000
  379MOL0     H51135   6.165   4.385   8.199 -0.8105  3.2370 -1.4802
  379MOL0     H51136   6.040   4.480   8.271 -0.0376  0.1837 -1.1995
  379MOL0     H51137   6.016   4.178   8.230  0.8881  1.3903 -0.1998
  379MOL0     H51138   5.891   4.280   8.314 -0.6004  2.8754 -0.0972
  379MOL0     H51139   5.826   4.222   8.088  2.1685 -1.9457  2.6963
  379MOL0     H51140   5.985   4.297   8.034  0.8469 -1.0202 -0.3762
  379MOL0     H51141   5.720   4.419   8.135 -1.4951 -0.2577 -2.2038
  379MOL0     H51142   5.878   4.511   8.130 -0.8831 -0.3859  0.1818
  379MOL0     H51143   5.706   4.521   7.926 -0.7256 -0.4602 -3.1572
  379MOL0     H51144   5.780   4.364   7.889  4.8699 -0.0369 -3.5261
  379MOL0     H51145   5.902   4.511   7.777 -2.8487  3.6545 -0.0318
  379MOL0     H51146   6.008   4.460   7.919  1.3928  0.9565 -0.1122
  379MOL0     H51147   6.380   4.648   8.567 -0.2401  6.1539 -1.7582
  379MOL0     H51148   6.571   4.802   8.588 -0.5484 -0.2194  2.2826
  379MOL0     H51149   6.952   5.000   8.742 -0.0615  0.0664  0.0073
  379MOL0     H51150   7.151   5.092   8.770 -2.5852 -2.3792  2.6656
  379MOL0     H51151   7.205   5.647   9.133  0.8627 -0.7862  0.5696
  379MOL0     H51152   7.090   5.481   8.965 -0.5219  0.0764  0.3185
  379MOL0     H51153   6.894   5.435   8.578  0.8040  0.5590  1.3921
  379MOL0     H51154   6.768   5.291   8.404  0.5198 -0.5876 -0.3010
  379MOL0     H51155   6.898   4.954   8.304  2.5246  2.4323 -1.0379
  379MOL0     H51156   6.741   5.030   8.294 -1.7261 -0.6321 -0.1076
  379MOL0     H51157   6.736   5.005   8.059 -0.0619  1.0579  0.9119
  379MOL0     H51158   6.784   4.848   8.133  0.2633 -1.2925 -2.5255
  379MOL0     H51159   7.021   4.893   8.052  0.9657  1.7907  2.5697
  379MOL0     H51160   6.966   5.041   7.977 -1.9085 -0.4482 -0.4209
  379MOL0     H51161   6.809   4.941   7.819 -2.3830  0.0069  1.6257
  379MOL0     H51162   6.839   4.779   7.889  2.0029 -1.5753 -3.3809
  379MOL0     H51163   7.183   4.725   7.715 -1.3865 -0.1233 -0.8082
  379MOL0     H51164   7.143   5.160   8.264 -1.6500  1.4581 -1.6114
  379MOL0     H51165   7.272   5.295   8.432 -0.0712 -0.7640 -0.5234
  380MOL0     O51166   4.185   6.241   9.493 -0.3207 -0.4721 -0.0556
  380MOL0     C51167   4.239   6.246   9.607  0.3006 -0.5275  1.2145
  380MOL0     O51168   4.375   6.277   9.629 -0.1327 -0.3632  0.3347
  380MOL0     C51169   4.453   6.317   9.527 -0.1866  0.1352 -0.0765
  380MOL0     C51170   4.435   6.441   9.471  0.7718  0.7008 -0.0271
  380MOL0     C51171   4.526   6.496   9.384  0.2595  0.6485 -0.0497
  380MOL0     C51172   4.642   6.426   9.340 -0.4675 -0.7184 -1.1085
  380MOL0     O51173   4.736   6.479   9.262 -0.2301  0.6881 -0.1799
  380MOL0     C51174   4.708   6.609   9.199  0.4307  0.5413 -1.0536
  380MOL0     C51175   4.846   6.647   9.130  0.4967 -0.4307 -0.1398
  380MOL0     C51176   4.841   6.787   9.064 -0.4248 -0.5153  0.0553
  380MOL0     C51177   4.963   6.791   8.965 -0.6407 -1.4599 -0.3139
  380MOL0     C51178   5.010   6.936   8.949 -0.0844 -0.1899  0.0531
  380MOL0     C51179   5.139   6.941   8.870  0.3920  0.0361  1.3447
  380MOL0     C51180   5.194   7.088   8.859 -0.5183 -0.6985 -0.1876
  380MOL0     C51181   5.295   7.105   8.758 -0.5663  0.4314 -0.4267
  380MOL0     N51182   5.379   7.226   8.788 -0.0994  0.4092 -0.3610
  380MOL0     C51183   5.338   7.359   8.789 -1.1705  0.3385 -0.2177
  380MOL0     C51184   5.461   7.420   8.814 -1.1085  0.4807  0.8108
  380MOL0     C51185   5.487   7.569   8.821  0.4027  0.2443 -0.0456
  380MOL0     C51186   5.577   7.625   8.704 -0.5590  0.7193 -0.3133
  380MOL0     C51187   5.525   7.603   8.562 -0.3669  0.2635  0.3562
  380MOL0     C51188   5.635   7.646   8.467 -0.9665 -0.8952 -0.9496
  380MOL0     O51189   5.625   7.590   8.342 -0.2514  0.1772 -0.0198
  380MOL0     C51190   5.718   7.625   8.245 -0.3033 -0.0673  0.2809
  380MOL0     C51191   5.824   7.721   8.262 -0.0857 -0.9673  0.6761
  380MOL0     C51192   5.889   7.771   8.141 -0.3125  0.3729  0.5628
  380MOL0     C51193   6.001   7.880   8.175  0.0545  0.3495 -0.2396
  380MOL0     C51194   5.874   7.714   8.009 -0.3597 -0.6447 -0.3838
  380MOL0     C51195   5.954   7.754   7.895 -0.1610  0.1666  0.7114
  380MOL0     O51196   5.898   7.804   7.784  0.5177  0.0070 -0.1074
  380MOL0     C51197   5.787   7.881   7.797  0.4989 -0.5166  1.0241
  380MOL0     C51198   5.796   8.006   7.876 -0.6850 -0.3505  0.8549
  380MOL0     C51199   5.678   8.077   7.906  0.1837  0.3370  0.3271
  380MOL0     C51200   5.555   8.053   7.843 -0.1885  0.2941  0.5009
  380MOL0     O51201   5.452   8.136   7.862  0.2225 -0.4660  0.2352
  380MOL0     C51202   5.439   8.221   7.983  0.2320 -0.1360 -0.2677
  380MOL0     C51203   5.291   8.211   8.023 -0.0915 -0.9037  0.2200
  380MOL0     C51204   5.261   8.282   8.155  1.0864 -0.0513  0.2950
  380MOL0     C51205   5.220   8.425   8.121  0.7923 -0.0565 -0.3324
  380MOL0     C51206   5.201   8.489   8.258  0.6152  0.2722  0.5576
  380MOL0     C51207   5.163   8.646   8.260 -0.4577 -0.4556  0.2584
  380MOL0     C51208   5.007   8.675   8.225 -0.6662 -0.1564 -0.3819
  380MOL0     C51209   4.935   8.658   8.360  0.0652 -1.4604 -0.0006
  380MOL0    Cl51210   4.945   8.802   8.468 -0.4676 -0.4745 -0.0883
  380MOL0     C51211   5.553   7.952   7.746 -1.5007  0.1869 -0.0773
  380MOL0     C51212   5.662   7.866   7.719  0.1184  0.3107 -0.8108
  380MOL0     O51213   6.079   7.727   7.906 -0.3010  0.3035  0.2872
  380MOL0     C51214   5.771   7.618   7.999 -0.2183 -0.0010  0.6574
  380MOL0     C51215   5.703   7.571   8.116 -0.6463  0.6908 -0.0776
  380MOL0     N51216   5.564   7.322   8.833  0.1445  0.4585  0.2931
  380MOL0     N51217   5.518   7.205   8.805  0.7426  0.1911 -0.0168
  380MOL0     C51218   4.651   6.291   9.390 -0.1900 -0.2545  0.4893
  380MOL0     C51219   4.562   6.243   9.486 -0.1654  0.4614  0.0515
  380MOL0     C51220   4.143   6.226   9.724 -0.3886  0.1300 -0.1420
  380MOL0     C51221   4.012   6.190   9.710 -0.2097 -0.5841  0.3156
  380MOL0     C51222   3.934   6.160   9.812 -0.3662  0.6343  0.4453
  380MOL0     C51223   3.988   6.158   9.942  0.2581 -0.0993 -0.5729
  380MOL0     O51224   3.915   6.132  10.061 -0.0696  0.1607  0.7869
  380MOL0     C51225   3.786   6.196  10.068  0.2365 -0.1232 -0.4376
  380MOL0     C51226   3.760   6.219  10.216 -0.1277  0.1634 -0.0790
  380MOL0     C51227   3.848   6.338  10.267  0.2458  0.7178  0.2185
  380MOL0     C51228   3.806   6.391  10.399  0.9638 -1.2494  0.1634
  380MOL0     C51229   3.824   6.300  10.504  0.2013  0.1139 -0.6941
  380MOL0     C51230   3.833   6.213  10.593  0.0976  0.7118 -0.0093
  380MOL0     C51231   4.117   6.191   9.959 -0.9259 -0.0543 -0.3161
  380MOL0     C51232   4.199   6.225   9.853 -0.0406 -0.4705 -1.5067
  380MOL0     H51233   4.343   6.494   9.493 -1.1178 -2.0301 -0.9403
  380MOL0     H51234   4.495   6.592   9.343  2.1255  1.8666  1.2096
  380MOL0     H51235   4.634   6.612   9.119  3.1340  1.9615 -3.7217
  380MOL0     H51236   4.678   6.680   9.277 -2.7719 -3.5269  1.8257
  380MOL0     H51237   4.919   6.655   9.210 -0.6476  3.0951  0.7090
  380MOL0     H51238   4.874   6.563   9.065 -0.4300 -1.3887  0.6537
  380MOL0     H51239   4.747   6.794   9.009 -0.9289 -0.5660  0.8798
  380MOL0     H51240   4.836   6.859   9.147 -0.0347 -1.6168  1.0707
  380MOL0     H51241   5.043   6.728   9.005 -0.1767  0.2380  1.5809
  380MOL0     H51242   4.941   6.748   8.867  0.5735 -3.4222  0.2201
  380MOL0     H51243   4.936   6.994   8.893 -1.2227 -0.9842  0.7085
  380MOL0     H51244   5.038   6.976   9.047  5.0829  0.8849 -1.5080
  380MOL0     H51245   5.204   6.871   8.923  0.4884  1.0218  2.5601
  380MOL0     H51246   5.131   6.900   8.769  2.2992 -1.4979  1.7581
  380MOL0     H51247   5.125   7.173   8.856  2.9148  2.2929 -0.3852
  380MOL0     H51248   5.239   7.108   8.956  0.5087  0.0793 -0.7981
  380MOL0     H51249   5.237   7.123   8.666 -1.2355 -0.4243 -0.1889
  380MOL0     H51250   5.353   7.013   8.745 -2.2423 -1.1803  2.5712
  380MOL0     H51251   5.246   7.415   8.780  1.0540  4.6486  1.1893
  380MOL0     H51252   5.392   7.623   8.811  2.4689  3.7595 -4.4255
  380MOL0     H51253   5.535   7.596   8.916  0.5434 -2.7329  0.8249
  380MOL0     H51254   5.671   7.571   8.711 -0.4964  0.8341 -0.2655
  380MOL0     H51255   5.599   7.731   8.721 -1.8569  0.6994  2.0457
  380MOL0     H51256   5.429   7.651   8.538  1.8711  4.7040 -0.8369
  380MOL0     H51257   5.510   7.495   8.554  1.7523 -0.1218  1.0992
  380MOL0     H51258   5.733   7.639   8.514  0.7499  0.5156 -4.0169
  380MOL0     H51259   5.610   7.750   8.441 -2.2185 -1.0920 -0.5657
  380MOL0     H51260   5.837   7.774   8.355 -0.2677 -0.6670  0.5287
  380MOL0     H51261   6.087   7.867   8.109  0.5401  0.8761  0.2842
  380MOL0     H51262   5.952   7.977   8.166 -0.8311  0.0132  0.7570
  380MOL0     H51263   6.032   7.876   8.280  0.7188 -0.7980 -0.4598
  380MOL0     H51264   5.884   8.021   7.938  0.5959  0.6891 -1.1104
  380MOL0     H51265   5.689   8.153   7.982  1.0158 -0.1980  0.7587
  380MOL0     H51266   5.504   8.176   8.059 -1.0078  0.9182  1.4937
  380MOL0     H51267   5.455   8.327   7.965 -2.3617  0.5107  0.8346
  380MOL0     H51268   5.235   8.266   7.947 -1.4713 -2.7791 -0.1818
  380MOL0     H51269   5.252   8.109   8.032  4.3389 -2.6835  3.0719
  380MOL0     H51270   5.352   8.280   8.216  0.6175  0.1783  1.0149
  380MOL0     H51271   5.175   8.228   8.196  0.6619  1.6268  1.7209
  380MOL0     H51272   5.300   8.483   8.074 -2.5353  2.0366 -3.9403
  380MOL0     H51273   5.123   8.436   8.072  0.4102  0.4705  0.5126
  380MOL0     H51274   5.297   8.480   8.309  0.9455  0.9995  0.0723
  380MOL0     H51275   5.125   8.440   8.320  0.5991  2.1839  2.1492
  380MOL0     H51276   5.187   8.691   8.357 -0.4234  0.4106 -0.1414
  380MOL0     H51277   5.219   8.707   8.188 -2.0990 -0.8371 -1.4278
  380MOL0     H51278   4.969   8.596   8.160 -1.2199 -0.6361  0.5094
  380MOL0     H51279   4.986   8.768   8.171  0.9163  1.9754  2.4029
  380MOL0     H51280   4.966   8.563   8.405 -0.4110 -1.7640 -0.3086
  380MOL0     H51281   4.830   8.639   8.334 -0.3487 -1.2740  1.4223
  380MOL0     H51282   5.473   7.944   7.673 -1.2790 -0.9472 -0.2296
  380MOL0     H51283   5.638   7.786   7.650 -1.6868  0.5627 -0.5301
  380MOL0     H51284   5.750   7.564   7.908  2.2753 -1.2639  0.7386
  380MOL0     H51285   5.627   7.494   8.110 -0.8489  0.9163 -0.4518
  380MOL0     H51286   4.724   6.235   9.333 -0.4808  0.3192 -0.4756
  380MOL0     H51287   4.568   6.142   9.525 -0.6208 -0.1151 -1.3006
  380MOL0     H51288   3.970   6.185   9.610 -0.0673 -0.7705  0.2634
  380MOL0     H51289   3.830   6.132   9.805  0.0659 -0.7491 -1.3029
  380MOL0     H51290   3.775   6.283  10.004 -1.8272 -0.2377 -0.2960
  380MOL0     H51291   3.704   6.125  10.053  0.2440 -0.3475  0.4910
  380MOL0     H51292   3.782   6.124  10.267 -4.3792  0.8852  3.7759
  380MOL0     H51293   3.655   6.235  10.242  0.0156  1.3322 -0.1607
  380MOL0     H51294   3.849   6.409  10.183  2.1244 -2.2985 -2.5683
  380MOL0     H51295   3.951   6.303  10.274 -0.0871 -0.8606 -1.6446
  380MOL0     H51296   3.710   6.443  10.395 -0.9631 -4.5291  0.2413
  380MOL0     H51297   3.877   6.470  10.425 -2.3269  2.1766 -0.3624
  380MOL0     H51298   3.842   6.134  10.665 -5.0932 -0.7346 -0.5097
  380MOL0     H51299   4.158   6.201  10.059 -1.4001  0.4542 -0.1694
  380MOL0     H51300   4.304   6.248   9.873  0.4010 -1.5879 -2.4323
  381MOL0     O51301   3.084   9.392   1.533 -0.7493  0.2320 -0.0007
  381MOL0     C51302   3.008   9.479   1.555  0.2846 -0.8018  0.7176
  381MOL0     O51303   3.030   9.615   1.542  0.8386 -0.3397 -0.0350
  381MOL0     C51304   3.145   9.668   1.490  0.7926  0.7150 -0.2344
  381MOL0     C51305   3.227   9.607   1.398 -0.6154  0.8604  0.1421
  381MOL0     C51306   3.356   9.661   1.360  1.1640 -0.3294 -0.3681
  381MOL0     C51307   3.393   9.785   1.407  0.1372 -0.2038  0.7741
  381MOL0     O51308   3.505   9.860   1.358  0.0867 -0.3182  0.0710
  381MOL0     C51309   3.606   9.789   1.282  0.2205 -1.0919  0.2199
  381MOL0     C51310   3.715   9.893   1.255 -0.3592 -0.7078 -0.7584
  381MOL0     C51311   3.835   9.841   1.179  0.3413  0.0974  0.4579
  381MOL0     C51312   3.935   9.951   1.163 -0.4424  0.3109 -1.2474
  381MOL0     C51313   3.925  10.045   1.036  1.2901 -0.0729 -0.6712
  381MOL0     C51314   3.937   9.981   0.902 -0.4950 -0.6457 -0.3902
  381MOL0     C51315   4.011  10.078   0.793 -0.2283  0.6778 -0.1046
  381MOL0     C51316   4.142  10.024   0.736 -0.1778  0.4463 -0.7016
  381MOL0     N51317   4.196  10.116   0.640  0.0168 -0.6244 -0.0678
  381MOL0     C51318   4.263  10.231   0.675 -0.2410  0.7194  0.9872
  381MOL0     C51319   4.323  10.267   0.566  0.1467 -0.9131  0.1647
  381MOL0     C51320   4.433  10.373   0.550 -0.6195  0.6759  0.6650
  381MOL0     C51321   4.371  10.509   0.526 -0.3772 -0.5115 -0.3690
  381MOL0     C51322   4.478  10.623   0.552 -0.2149  0.0305 -0.0666
  381MOL0     C51323   4.546  10.649   0.691  0.3414  0.4848  0.3915
  381MOL0     O51324   4.650  10.559   0.726  0.2435 -0.1531 -0.3891
  381MOL0     C51325   4.772  10.576   0.692 -0.1411  0.4491  0.2658
  381MOL0     C51326   4.868  10.489   0.741  0.1193 -0.3608  0.1565
  381MOL0     C51327   5.005  10.518   0.708  0.0319  0.2627  0.0819
  381MOL0     C51328   5.102  10.411   0.745  0.5771  1.1139 -0.0396
  381MOL0     C51329   5.046  10.638   0.648 -0.7904 -0.5518  0.7695
  381MOL0     C51330   5.184  10.684   0.612  0.0571  0.4934  0.6503
  381MOL0     O51331   5.204  10.790   0.541  0.0507 -0.0027  0.4636
  381MOL0     C51332   5.333  10.809   0.487 -0.9028 -0.3242 -0.9517
  381MOL0     C51333   5.377  10.725   0.380 -0.2705 -0.8915  0.1255
  381MOL0     C51334   5.504  10.739   0.323 -0.9106 -0.0758 -0.3672
  381MOL0     C51335   5.592  10.831   0.380  0.2971  0.1985 -0.1981
  381MOL0     O51336   5.712  10.833   0.323  0.9350  0.5832  0.9000
  381MOL0     C51337   5.814  10.931   0.364 -0.9430 -0.2302 -0.1521
  381MOL0     C51338   5.940  10.925   0.285 -1.5187 -1.2966 -0.2730
  381MOL0     C51339   5.973  10.792   0.205 -0.4672  0.9926  0.4042
  381MOL0     C51340   5.893  10.761   0.079 -1.6166  0.2087 -0.0985
  381MOL0     C51341   5.967  10.672  -0.018  0.8831 -0.4229  0.4466
  381MOL0     C51342   5.875  10.629  -0.135  0.1164 -0.4075 -1.6662
  381MOL0     C51343   5.958  10.543  -0.226  1.0497 -1.3843  0.0859
  381MOL0     C51344   5.979  10.603  -0.363 -1.2671  0.1423 -0.7707
  381MOL0    Cl51345   5.850  10.555  -0.462 -0.1143 -0.5083  0.0303
  381MOL0     C51346   5.548  10.919   0.487  0.9192 -0.5437 -0.2044
  381MOL0     C51347   5.414  10.908   0.535  0.1995  0.9362 -0.1607
  381MOL0     O51348   5.280  10.630   0.673 -0.0247  0.1433 -0.2924
  381MOL0     C51349   4.943  10.725   0.618 -0.4049  0.7954 -0.2168
  381MOL0     C51350   4.811  10.700   0.631  0.5600 -0.5354  0.3993
  381MOL0     N51351   4.289  10.184   0.462 -0.1643 -0.2765  0.3668
  381MOL0     N51352   4.215  10.088   0.512  0.1770 -0.1128  0.1766
  381MOL0     C51353   3.300   9.855   1.491 -0.3103 -0.2841 -0.4688
  381MOL0     C51354   3.190   9.791   1.547 -0.3469 -0.2913  0.5531
  381MOL0     C51355   2.874   9.437   1.589  1.0008  0.2769 -0.2150
  381MOL0     C51356   2.839   9.300   1.621  0.2275 -0.2688 -1.2571
  381MOL0     C51357   2.710   9.274   1.667  0.6279 -1.0664 -0.5389
  381MOL0     C51358   2.609   9.368   1.689  0.1745 -0.3361 -0.4118
  381MOL0     O51359   2.481   9.323   1.724 -0.2063 -0.3957 -0.4343
  381MOL0     C51360   2.368   9.363   1.650  0.8007 -0.2368  0.2452
  381MOL0     C51361   2.397   9.315   1.505  0.2140 -0.3181 -0.2244
  381MOL0     C51362   2.433   9.166   1.497 -0.1999  0.4587 -0.7997
  381MOL0     C51363   2.503   9.112   1.373 -0.0277  0.7660  0.2445
  381MOL0     C51364   2.641   9.142   1.363 -0.2287  0.3018 -0.3596
  381MOL0     C51365   2.758   9.162   1.362 -0.7598  0.4915 -0.7946
  381MOL0     C51366   2.647   9.494   1.652 -0.4130 -0.2649 -0.3445
  381MOL0     C51367   2.769   9.531   1.605 -0.0594  1.1356 -0.1762
  381MOL0     H51368   3.201   9.516   1.346 -0.0250  1.4817 -1.3106
  381MOL0     H51369   3.413   9.611   1.282 -2.2767 -1.3899 -2.4079
  381MOL0     H51370   3.658   9.714   1.341  0.8774 -1.5747 -0.9378
  381MOL0     H51371   3.561   9.743   1.193  0.1163 -1.9103  0.6948
  381MOL0     H51372   3.683   9.982   1.200  0.7864 -1.5505 -2.8875
  381MOL0     H51373   3.753   9.922   1.354 -1.5444 -1.1215 -0.1641
  381MOL0     H51374   3.879   9.754   1.229 -1.8238 -1.3040  0.0434
  381MOL0     H51375   3.805   9.819   1.076  2.0179 -0.1582 -0.0104
  381MOL0     H51376   3.930  10.012   1.253 -1.7932 -0.6225 -0.6551
  381MOL0     H51377   4.037   9.913   1.154 -0.6027 -0.3281 -0.4348
  381MOL0     H51378   3.830  10.100   1.036  1.0873 -0.4116  0.0867
  381MOL0     H51379   3.994  10.130   1.042 -0.1463  1.1787 -1.1967
  381MOL0     H51380   3.987   9.883   0.906 -1.1810 -0.9745  2.9097
  381MOL0     H51381   3.842   9.956   0.853  0.1623  1.8829 -3.1827
  381MOL0     H51382   3.954  10.083   0.700  0.3405 -0.7490 -0.5510
  381MOL0     H51383   4.015  10.179   0.836 -1.9631  0.2770  1.0755
  381MOL0     H51384   4.120   9.928   0.686  1.4374  0.9809 -2.5798
  381MOL0     H51385   4.215  10.012   0.817 -0.3843  0.5395 -0.5024
  381MOL0     H51386   4.288  10.278   0.770  4.9365 -0.4157  0.5003
  381MOL0     H51387   4.492  10.375   0.642 -2.0242 -2.1728  1.7512
  381MOL0     H51388   4.489  10.333   0.466 -0.6606 -0.0815  0.9933
  381MOL0     H51389   4.292  10.527   0.600  0.4214  0.5608  0.2536
  381MOL0     H51390   4.318  10.512   0.430  0.2024 -0.4734 -0.6867
  381MOL0     H51391   4.424  10.715   0.532 -2.7859 -1.3972 -0.1215
  381MOL0     H51392   4.549  10.617   0.468  0.4453 -3.2372  0.5561
  381MOL0     H51393   4.470  10.629   0.767  1.1457 -0.8614  0.8708
  381MOL0     H51394   4.580  10.752   0.706 -1.0457  0.8292  1.2853
  381MOL0     H51395   4.842  10.387   0.766 -0.4712  0.3374  2.6604
  381MOL0     H51396   5.147  10.431   0.843  3.1567 -0.1691 -0.8689
  381MOL0     H51397   5.061  10.309   0.749  0.3354  1.1914 -0.4609
  381MOL0     H51398   5.181  10.403   0.670 -0.3143  0.5227 -0.9432
  381MOL0     H51399   5.308  10.657   0.331  3.6308 -2.9730 -3.1033
  381MOL0     H51400   5.540  10.695   0.231  0.9271  2.2824 -0.8813
  381MOL0     H51401   5.758  11.024   0.351  0.5768  0.6874 -0.4635
  381MOL0     H51402   5.838  10.908   0.468 -2.1343  0.0944  0.2092
  381MOL0     H51403   5.932  11.008   0.214 -1.0658  1.7743  3.0057
  381MOL0     H51404   6.014  10.948   0.362 -0.5211 -1.9289 -1.0217
  381MOL0     H51405   5.963  10.709   0.276 -1.0629  1.1543  0.5234
  381MOL0     H51406   6.081  10.795   0.193 -0.1149 -0.6969  2.5485
  381MOL0     H51407   5.803  10.713   0.118 -0.3053 -2.1799  0.1443
  381MOL0     H51408   5.875  10.859   0.032 -1.3189  0.0436 -0.5600
  381MOL0     H51409   5.996  10.585   0.043  2.3673  1.6731  2.9244
  381MOL0     H51410   6.055  10.728  -0.048  2.7048 -1.3973  3.5143
  381MOL0     H51411   5.792  10.567  -0.099 -0.1657  1.2336  0.7932
  381MOL0     H51412   5.836  10.719  -0.184 -0.6303  0.6339  0.7005
  381MOL0     H51413   5.907  10.447  -0.234 -2.3129  0.2866 -0.1740
  381MOL0     H51414   6.052  10.518  -0.176  0.8936  1.8229  2.2985
  381MOL0     H51415   6.072  10.565  -0.406 -0.4494 -1.7971  2.4058
  381MOL0     H51416   5.987  10.712  -0.361 -0.6216  0.1119 -1.2066
  381MOL0     H51417   5.601  11.005   0.524  0.1167  0.0177 -0.3240
  381MOL0     H51418   5.378  10.980   0.608 -1.1624  0.7083 -0.5766
  381MOL0     H51419   4.963  10.812   0.555  0.5736  1.9761  1.6393
  381MOL0     H51420   4.742  10.765   0.579  1.9110 -2.7635 -4.8454
  381MOL0     H51421   3.326   9.957   1.516 -1.5047 -0.2868  0.9024
  381MOL0     H51422   3.121   9.849   1.608  2.5402 -0.2552  4.1525
  381MOL0     H51423   2.922   9.230   1.620 -1.2191 -2.0485 -0.5549
  381MOL0     H51424   2.686   9.172   1.696  2.5998 -1.3299  0.3393
  381MOL0     H51425   2.277   9.314   1.687  1.0996 -2.2211 -1.4577
  381MOL0     H51426   2.343   9.469   1.643 -0.6991 -0.6566 -1.4418
  381MOL0     H51427   2.472   9.369   1.447 -1.5298  0.8046 -1.5258
  381MOL0     H51428   2.300   9.314   1.456 -1.9740 -0.2644  3.7330
  381MOL0     H51429   2.340   9.112   1.514  0.6399 -0.1932  2.5044
  381MOL0     H51430   2.479   9.139   1.593 -2.2761  2.6005  0.9018
  381MOL0     H51431   2.446   9.160   1.292  0.2836 -0.0797 -0.4904
  381MOL0     H51432   2.483   9.006   1.358  0.9461  0.7222 -0.8681
  381MOL0     H51433   2.863   9.179   1.378 -0.9011  0.3052  0.4100
  381MOL0     H51434   2.567   9.566   1.665  0.4678  0.3144  2.7277
  381MOL0     H51435   2.791   9.637   1.589  0.5866  0.7058 -2.4766
  382MOL0     O51436   7.624   8.155   0.097 -0.6612  0.1881  0.0806
  382MOL0     C51437   7.673   8.043   0.122  0.4205 -0.6195  0.5590
  382MOL0     O51438   7.764   7.972   0.048  0.0418  0.5214 -0.5965
  382MOL0     C51439   7.836   8.032  -0.054  0.8680 -0.1894 -0.9498
  382MOL0     C51440   7.867   7.959  -0.174 -0.7612 -0.2749  0.2534
  382MOL0     C51441   7.940   8.028  -0.274 -0.2789 -0.0088 -0.4893
  382MOL0     C51442   7.987   8.155  -0.267 -0.1822  0.1933 -0.3462
  382MOL0     O51443   8.056   8.210  -0.372  0.8417  0.4058  0.1099
  382MOL0     C51444   8.134   8.330  -0.357  0.0063  0.1160  0.4209
  382MOL0     C51445   8.256   8.308  -0.452 -0.5753  0.9941 -0.1634
  382MOL0     C51446   8.220   8.315  -0.603 -0.8577 -0.1703  0.1874
  382MOL0     C51447   8.227   8.178  -0.676 -0.2494 -0.4410  0.4468
  382MOL0     C51448   8.286   8.172  -0.819 -0.6299  0.2208 -0.5386
  382MOL0     C51449   8.259   8.037  -0.871  0.4800 -0.0797  0.0458
  382MOL0     C51450   8.335   8.026  -1.000 -1.0181 -0.5780  1.2118
  382MOL0     C51451   8.293   7.900  -1.074 -0.5233 -0.3939 -0.4298
  382MOL0     N51452   8.167   7.927  -1.145  1.1222  0.1588  0.2628
  382MOL0     C51453   8.156   7.965  -1.274 -0.5404 -0.3705  0.6691
  382MOL0     C51454   8.022   7.971  -1.299  0.5552  0.7563 -0.2869
  382MOL0     C51455   7.960   8.015  -1.425 -0.2629  0.7022 -0.9918
  382MOL0     C51456   7.820   7.954  -1.432 -0.6452 -0.5096 -0.5818
  382MOL0     C51457   7.824   7.810  -1.484  0.0105  0.2109  0.3916
  382MOL0     C51458   7.687   7.737  -1.471 -0.2709  0.4539  0.1582
  382MOL0     O51459   7.713   7.612  -1.534  0.4344  0.2414  0.8644
  382MOL0     C51460   7.602   7.531  -1.540  0.3893  0.2160  0.3098
  382MOL0     C51461   7.469   7.547  -1.506  0.0074  0.9327 -0.8372
  382MOL0     C51462   7.377   7.442  -1.521  0.8388 -0.4332  0.3941
  382MOL0     C51463   7.232   7.473  -1.489 -0.5875  0.0935 -0.1428
  382MOL0     C51464   7.418   7.311  -1.567  0.6364  0.6771 -0.2315
  382MOL0     C51465   7.322   7.193  -1.587 -0.1877 -0.8082 -0.6562
  382MOL0     O51466   7.381   7.086  -1.653  0.9437 -1.1015  0.1160
  382MOL0     C51467   7.311   6.972  -1.668 -0.5626  0.2021  0.3406
  382MOL0     C51468   7.359   6.853  -1.623  0.6295 -0.2890  0.3658
  382MOL0     C51469   7.289   6.735  -1.648  0.4880  0.3592  0.3017
  382MOL0     C51470   7.166   6.731  -1.711 -1.0893 -0.2633 -0.4545
  382MOL0     O51471   7.094   6.623  -1.734 -0.0421  0.2181 -0.3254
  382MOL0     C51472   7.126   6.500  -1.671 -0.0097 -0.5477 -0.0776
  382MOL0     C51473   7.030   6.392  -1.712  0.3425  0.1893 -0.2199
  382MOL0     C51474   7.063   6.257  -1.653  0.5701 -0.0984 -1.0482
  382MOL0     C51475   7.023   6.133  -1.729  0.0716  1.7211 -0.9273
  382MOL0     C51476   7.053   6.005  -1.651  0.7553 -0.3274 -0.5404
  382MOL0     C51477   6.935   5.962  -1.558  0.0350 -0.0601 -0.5032
  382MOL0     C51478   6.982   5.850  -1.458 -0.3585 -1.1565 -0.9808
  382MOL0     C51479   6.874   5.805  -1.366  0.4031 -0.0448 -0.1492
  382MOL0    Cl51480   6.829   5.914  -1.247 -0.2306  0.3042  0.0033
  382MOL0     C51481   7.122   6.854  -1.753 -0.1581  0.2111  0.1613
  382MOL0     C51482   7.190   6.973  -1.733 -0.0023 -0.6512  0.5668
  382MOL0     O51483   7.204   7.198  -1.548  0.8320  0.8480  0.4451
  382MOL0     C51484   7.554   7.299  -1.587  0.9396 -0.2508 -0.4651
  382MOL0     C51485   7.645   7.408  -1.572 -0.1431  0.2576 -0.6790
  382MOL0     N51486   7.952   7.929  -1.184 -0.0910  0.3029  0.3337
  382MOL0     N51487   8.042   7.900  -1.090 -0.1334  0.2346  1.1554
  382MOL0     C51488   7.958   8.221  -0.146 -0.7057  0.1919  0.1605
  382MOL0     C51489   7.888   8.167  -0.042 -0.2392  0.6009 -0.0677
  382MOL0     C51490   7.634   7.981   0.245  0.6129  0.2567 -0.3301
  382MOL0     C51491   7.505   7.997   0.297 -0.3988  0.6493  0.1470
  382MOL0     C51492   7.452   7.928   0.403 -1.1540 -0.2588  0.6269
  382MOL0     C51493   7.544   7.848   0.480 -0.1173 -0.5553  0.1296
  382MOL0     O51494   7.510   7.787   0.602 -0.2899 -0.7731 -0.2950
  382MOL0     C51495   7.388   7.826   0.659  0.0131 -0.2566 -0.4814
  382MOL0     C51496   7.413   7.967   0.733 -0.1152  0.5398 -0.8055
  382MOL0     C51497   7.284   8.045   0.762  0.5824  0.5528 -0.7644
  382MOL0     C51498   7.296   8.166   0.860 -0.5813  1.3458 -0.0087
  382MOL0     C51499   7.170   8.202   0.915  0.2420  1.0947 -0.3217
  382MOL0     C51500   7.071   8.244   0.981 -0.5067  0.2278  0.7625
  382MOL0     C51501   7.675   7.831   0.427  0.2604  0.6694 -0.7353
  382MOL0     C51502   7.713   7.885   0.306 -0.8291 -0.2658  0.0531
  382MOL0     H51503   7.825   7.860  -0.194  0.9252 -0.8721 -0.4968
  382MOL0     H51504   7.959   7.993  -0.375  0.0992  1.5086 -0.9709
  382MOL0     H51505   8.084   8.421  -0.391 -0.0145 -0.3111 -0.7479
  382MOL0     H51506   8.170   8.341  -0.255  1.6908 -0.9731 -0.0130
  382MOL0     H51507   8.325   8.391  -0.432 -0.1175  0.3977  0.8296
  382MOL0     H51508   8.305   8.213  -0.431 -0.7711  0.6100 -1.3567
  382MOL0     H51509   8.122   8.360  -0.615 -0.4099  1.0233  0.8728
  382MOL0     H51510   8.290   8.386  -0.648 -0.5413  1.4561  2.9923
  382MOL0     H51511   8.274   8.103  -0.611  1.9915 -2.7207 -3.3996
  382MOL0     H51512   8.121   8.151  -0.679 -0.7156  1.1581  1.4415
  382MOL0     H51513   8.256   8.253  -0.886  0.9385  0.8201 -0.5604
  382MOL0     H51514   8.392   8.198  -0.806 -0.4440 -0.3104 -0.9466
  382MOL0     H51515   8.291   7.961  -0.799 -0.4673 -2.2773 -1.7144
  382MOL0     H51516   8.153   8.026  -0.898 -0.0030  2.8061  0.4148
  382MOL0     H51517   8.326   8.109  -1.071 -2.5752 -0.4652  1.5041
  382MOL0     H51518   8.440   8.030  -0.970 -1.1981 -1.1126  1.9354
  382MOL0     H51519   8.268   7.818  -1.006 -3.7791 -1.3937 -2.5810
  382MOL0     H51520   8.361   7.855  -1.148 -0.8747 -1.9142  0.1261
  382MOL0     H51521   8.232   8.004  -1.341  2.7607  0.5179  4.5856
  382MOL0     H51522   7.958   8.124  -1.422  3.4776  0.8750 -0.5626
  382MOL0     H51523   8.014   7.985  -1.515 -1.4709 -0.9514 -1.2226
  382MOL0     H51524   7.754   8.016  -1.494  0.0690 -2.6886 -3.7414
  382MOL0     H51525   7.767   7.958  -1.336  0.2387 -0.4976 -0.0814
  382MOL0     H51526   7.892   7.757  -1.416 -2.0042 -0.0179  2.3532
  382MOL0     H51527   7.863   7.803  -1.586  3.2828  2.6327  1.3094
  382MOL0     H51528   7.609   7.780  -1.533 -0.3721 -2.0926 -1.6288
  382MOL0     H51529   7.642   7.721  -1.373 -0.4621  0.8881  0.1441
  382MOL0     H51530   7.437   7.642  -1.466  1.8351  0.3040  2.5613
  382MOL0     H51531   7.194   7.405  -1.413 -1.1228 -0.1829 -0.6478
  382MOL0     H51532   7.227   7.572  -1.443  1.4531 -0.1357  0.6785
  382MOL0     H51533   7.176   7.477  -1.583  0.2432 -0.6977 -0.6829
  382MOL0     H51534   7.455   6.847  -1.573 -0.4021 -3.0043  2.2346
  382MOL0     H51535   7.330   6.639  -1.621 -1.3543 -0.7219 -0.5879
  382MOL0     H51536   7.226   6.466  -1.700 -0.0791 -1.1257  0.3316
  382MOL0     H51537   7.099   6.520  -1.566 -1.4985  1.6945 -0.8254
  382MOL0     H51538   6.934   6.426  -1.671 -0.8079  0.6885 -3.0455
  382MOL0     H51539   7.015   6.389  -1.821  4.3234  1.9193 -0.9898
  382MOL0     H51540   7.022   6.262  -1.552  2.4622 -0.1926 -0.2337
  382MOL0     H51541   7.172   6.244  -1.649  0.7520  1.3422  1.8223
  382MOL0     H51542   6.921   6.137  -1.771  0.2142  0.5042 -1.4177
  382MOL0     H51543   7.086   6.138  -1.819  2.1961  0.6298  0.4307
  382MOL0     H51544   7.148   6.015  -1.597  0.2500 -0.2934  0.3549
  382MOL0     H51545   7.084   5.928  -1.723 -0.5417 -0.9024 -0.5113
  382MOL0     H51546   6.885   6.041  -1.501 -0.2981 -0.7465  0.1621
  382MOL0     H51547   6.859   5.932  -1.631 -1.3608 -1.2038  1.3395
  382MOL0     H51548   7.067   5.879  -1.396  0.8905 -3.0430 -1.7450
  382MOL0     H51549   7.017   5.766  -1.518  0.1407 -1.8361  0.2217
  382MOL0     H51550   6.901   5.713  -1.313  0.9489  0.9050  1.3008
  382MOL0     H51551   6.783   5.784  -1.423  0.4268 -0.5811  0.0006
  382MOL0     H51552   7.030   6.842  -1.809 -2.0244 -1.2979  3.2524
  382MOL0     H51553   7.143   7.061  -1.774  0.5200 -0.5693  0.1413
  382MOL0     H51554   7.594   7.203  -1.618 -4.2455 -2.9721  0.1985
  382MOL0     H51555   7.750   7.408  -1.602 -0.0587  1.7599 -0.4419
  382MOL0     H51556   7.991   8.324  -0.135  1.4365 -0.5886  1.4961
  382MOL0     H51557   7.880   8.216   0.054  2.3642  0.0821  0.4818
  382MOL0     H51558   7.452   8.075   0.243  0.9041  2.9195  1.9188
  382MOL0     H51559   7.345   7.939   0.416 -1.2045 -1.1589  1.0884
  382MOL0     H51560   7.302   7.839   0.593  0.3351 -1.1548 -1.0966
  382MOL0     H51561   7.355   7.745   0.724  0.8715 -1.9060 -2.0220
  382MOL0     H51562   7.480   8.030   0.674  0.5060 -0.2995 -1.0044
  382MOL0     H51563   7.464   7.945   0.827 -2.7672 -2.7177  0.0642
  382MOL0     H51564   7.223   7.973   0.817  2.0584 -1.2448 -1.3799
  382MOL0     H51565   7.240   8.076   0.667  1.2136 -2.1763 -2.0238
  382MOL0     H51566   7.351   8.246   0.809  1.2576 -0.0057 -0.2478
  382MOL0     H51567   7.355   8.130   0.945 -2.1514 -0.0987  0.5009
  382MOL0     H51568   6.983   8.271   1.036 -1.1638  1.1340 -0.6824
  382MOL0     H51569   7.737   7.759   0.478 -0.3459  1.3564  1.0838
  382MOL0     H51570   7.808   7.850   0.269  0.5344  2.3658  0.8178
  383MOL0     O51571   9.418   1.040   9.383 -0.2371  0.1554 -0.0211
  383MOL0     C51572   9.412   1.049   9.502 -0.4338  0.4536  0.1130
  383MOL0     O51573   9.509   1.100   9.583  0.3664  0.2584  0.3554
  383MOL0     C51574   9.621   1.154   9.526  0.4428  1.6870 -0.0095
  383MOL0     C51575   9.632   1.234   9.412  0.6946 -0.7182 -0.1563
  383MOL0     C51576   9.758   1.276   9.357  0.8354 -0.4178 -0.5101
  383MOL0     C51577   9.875   1.234   9.414  0.0725  1.0012  0.2506
  383MOL0     O51578   9.990   1.267   9.345 -0.2604 -0.3745 -0.5567
  383MOL0     C51579  10.125   1.252   9.397 -0.7663  1.1638 -0.6029
  383MOL0     C51580  10.167   1.369   9.484 -0.7945  0.4115 -0.4902
  383MOL0     C51581  10.208   1.487   9.400  0.0481  0.9881 -0.5261
  383MOL0     C51582  10.339   1.472   9.325  0.2116  0.0151  0.8736
  383MOL0     C51583  10.410   1.606   9.284 -0.2319 -0.4520 -0.0509
  383MOL0     C51584  10.541   1.581   9.203 -0.4097  0.6606  0.5839
  383MOL0     C51585  10.518   1.508   9.065  0.8040  0.1783 -0.0784
  383MOL0     C51586  10.647   1.484   8.993  1.2184 -0.7833 -0.4565
  383MOL0     N51587  10.629   1.425   8.858 -0.1104  0.0064  0.0581
  383MOL0     C51588  10.594   1.514   8.754 -0.4099 -0.0137 -0.1330
  383MOL0     C51589  10.559   1.428   8.654 -0.5745  0.1464  0.2473
  383MOL0     C51590  10.523   1.473   8.515 -0.3465  1.2411 -0.2994
  383MOL0     C51591  10.430   1.362   8.450 -0.4325 -0.4010  0.4305
  383MOL0     C51592  10.363   1.418   8.324 -1.2656  0.9835  0.9445
  383MOL0     C51593  10.219   1.367   8.310  1.2330  0.0743 -0.6916
  383MOL0     O51594  10.140   1.426   8.198 -0.0250 -0.3141 -0.7740
  383MOL0     C51595  10.007   1.432   8.229  0.1906  0.4109  0.0792
  383MOL0     C51596   9.948   1.541   8.303  0.3434 -0.8948  0.8141
  383MOL0     C51597   9.815   1.547   8.330  0.5767 -1.3568 -0.3778
  383MOL0     C51598   9.777   1.665   8.421 -0.2106  0.3695  0.7968
  383MOL0     C51599   9.731   1.444   8.285  0.6312  0.1532 -0.4998
  383MOL0     C51600   9.579   1.439   8.314  0.3929 -0.2905 -0.4134
  383MOL0     O51601   9.513   1.334   8.258  0.1953  0.2032 -0.0881
  383MOL0     C51602   9.383   1.311   8.278 -0.9049  0.0938 -0.0019
  383MOL0     C51603   9.349   1.184   8.313 -1.2535 -0.1138  0.1632
  383MOL0     C51604   9.224   1.148   8.336  0.7887  0.0559  0.7234
  383MOL0     C51605   9.120   1.231   8.307 -0.5297  0.6988 -0.4572
  383MOL0     O51606   8.992   1.185   8.314  0.8414 -0.6659  0.1890
  383MOL0     C51607   8.879   1.256   8.259 -0.2964 -0.7727  0.3223
  383MOL0     C51608   8.766   1.159   8.274  0.3287  0.7787  0.5422
  383MOL0     C51609   8.701   1.140   8.406  0.6747 -0.1979 -0.1654
  383MOL0     C51610   8.581   1.048   8.411 -0.5599 -0.1164  0.4053
  383MOL0     C51611   8.464   1.098   8.489 -0.4656 -1.1790 -0.9667
  383MOL0     C51612   8.343   1.017   8.456 -0.2575 -0.2648  0.1004
  383MOL0     C51613   8.224   1.062   8.541  0.0062 -0.5537  0.3813
  383MOL0     C51614   8.090   1.005   8.506  0.0776  0.4002  0.0373
  383MOL0    Cl51615   7.961   1.077   8.595 -0.0854 -0.0086 -0.3066
  383MOL0     C51616   9.149   1.362   8.260 -0.3978 -0.7589  0.2938
  383MOL0     C51617   9.277   1.404   8.257  0.2181  0.7555 -1.5276
  383MOL0     O51618   9.527   1.526   8.387  0.2328  0.3106 -0.3916
  383MOL0     C51619   9.783   1.334   8.229 -0.8910 -0.8348  0.9197
  383MOL0     C51620   9.922   1.331   8.190 -0.1675  0.7998  0.8109
  383MOL0     N51621  10.585   1.291   8.692 -0.1892 -0.4890 -0.3094
  383MOL0     N51622  10.636   1.295   8.817 -0.4666 -0.1270  0.1789
  383MOL0     C51623   9.866   1.163   9.535 -1.0292 -0.1771  0.0729
  383MOL0     C51624   9.742   1.126   9.588  0.3316  0.7083  0.1535
  383MOL0     C51625   9.300   1.004   9.582  0.4578  0.7004 -0.4138
  383MOL0     C51626   9.194   0.936   9.518 -0.0452 -0.9022 -0.2155
  383MOL0     C51627   9.075   0.890   9.588  0.8549  0.3326  0.1018
  383MOL0     C51628   9.060   0.928   9.724  0.1916 -0.2427 -0.5740
  383MOL0     O51629   8.941   0.889   9.790 -0.1530  0.5252 -0.0038
  383MOL0     C51630   8.937   0.913   9.934 -0.0302  0.2526  0.0874
  383MOL0     C51631   8.813   0.876  10.002 -0.0531 -0.3486  0.1234
  383MOL0     C51632   8.764   0.739   9.944 -0.0052 -0.7546  0.7397
  383MOL0     C51633   8.653   0.691  10.028 -0.1071  0.8011  0.8345
  383MOL0     C51634   8.577   0.570   9.996 -0.7209  0.1998  0.6397
  383MOL0     C51635   8.509   0.467   9.989 -0.5228 -0.1814  0.2754
  383MOL0     C51636   9.163   0.995   9.791 -0.0478  0.4479  0.0579
  383MOL0     C51637   9.286   1.031   9.724  1.4543 -0.7422  0.2124
  383MOL0     H51638   9.541   1.269   9.365  0.4828 -0.1885  0.6205
  383MOL0     H51639   9.781   1.340   9.272  1.5259  2.2862  1.5765
  383MOL0     H51640  10.143   1.156   9.446 -0.6538  0.3723 -2.1267
  383MOL0     H51641  10.193   1.254   9.311  1.4934  0.0098  1.0575
  383MOL0     H51642  10.081   1.399   9.544 -0.5488  2.0907 -0.9363
  383MOL0     H51643  10.252   1.348   9.551 -0.8238  0.7454 -0.3487
  383MOL0     H51644  10.130   1.518   9.331 -1.2498  0.1293  0.4985
  383MOL0     H51645  10.225   1.568   9.472  2.4705  1.5127 -1.5698
  383MOL0     H51646  10.398   1.410   9.393 -0.2318  0.3483  1.5720
  383MOL0     H51647  10.322   1.413   9.235  1.2613 -3.7912  2.9684
  383MOL0     H51648  10.335   1.663   9.227  0.1846 -1.3701 -1.5502
  383MOL0     H51649  10.434   1.669   9.371 -0.4706 -0.1727 -0.1821
  383MOL0     H51650  10.583   1.682   9.188  0.7065 -0.0107 -1.0687
  383MOL0     H51651  10.606   1.521   9.268 -0.6571 -2.3548 -1.7430
  383MOL0     H51652  10.473   1.409   9.080 -0.1778  0.7399  0.7467
  383MOL0     H51653  10.449   1.567   9.004  0.8858 -0.7333 -1.0923
  383MOL0     H51654  10.700   1.415   9.060  3.5764  1.2850 -0.0652
  383MOL0     H51655  10.701   1.579   8.987  0.1036 -0.0837  0.2972
  383MOL0     H51656  10.606   1.621   8.748  0.4883 -0.0432  0.9049
  383MOL0     H51657  10.456   1.558   8.507  0.9570  2.1139 -3.4685
  383MOL0     H51658  10.617   1.479   8.459  0.2436 -0.0376  0.5013
  383MOL0     H51659  10.347   1.338   8.518 -1.4669  0.4788 -0.4860
  383MOL0     H51660  10.492   1.272   8.440  2.2797  1.0014  3.0254
  383MOL0     H51661  10.427   1.401   8.237  0.8080 -0.1954  2.5889
  383MOL0     H51662  10.362   1.527   8.324 -3.0253  1.0653 -1.8353
  383MOL0     H51663  10.175   1.383   8.409 -0.5364 -1.2153 -1.2175
  383MOL0     H51664  10.219   1.261   8.282 -0.5828 -0.5232  1.3273
  383MOL0     H51665  10.016   1.623   8.323 -1.6026  0.5983  1.5664
  383MOL0     H51666   9.718   1.638   8.509  1.3175 -3.9815  0.7659
  383MOL0     H51667   9.868   1.720   8.448  0.7691 -0.3228 -0.8832
  383MOL0     H51668   9.735   1.749   8.365  0.5926 -0.9120 -1.8726
  383MOL0     H51669   9.432   1.115   8.327 -0.4986  0.3774 -1.5951
  383MOL0     H51670   9.197   1.050   8.375 -0.7244  0.0991 -0.1606
  383MOL0     H51671   8.862   1.352   8.310 -1.6588 -0.4709 -0.6259
  383MOL0     H51672   8.898   1.270   8.153  1.5491 -1.3685  0.5509
  383MOL0     H51673   8.693   1.191   8.199  1.4648  0.2841 -0.8072
  383MOL0     H51674   8.802   1.065   8.232  2.0182  2.4094 -1.8997
  383MOL0     H51675   8.673   1.241   8.436 -2.0130 -0.3555 -1.8019
  383MOL0     H51676   8.771   1.115   8.486  0.2508  1.2739  0.6982
  383MOL0     H51677   8.550   1.033   8.307 -3.2245  2.8800  0.6163
  383MOL0     H51678   8.624   0.957   8.453 -1.8659 -1.3574 -0.8258
  383MOL0     H51679   8.449   1.206   8.481  2.7454 -0.5603  0.0629
  383MOL0     H51680   8.486   1.090   8.596  0.3059 -1.5351 -1.1407
  383MOL0     H51681   8.314   1.019   8.351 -0.4858  0.8318  0.1654
  383MOL0     H51682   8.369   0.916   8.488 -0.4587 -0.8476 -1.5091
  383MOL0     H51683   8.221   1.171   8.545  1.4473 -0.5460  2.1799
  383MOL0     H51684   8.247   1.040   8.645  1.0546  0.2874  0.3418
  383MOL0     H51685   8.095   0.896   8.512 -0.6120  0.2769 -1.2105
  383MOL0     H51686   8.065   1.017   8.400 -0.8883 -2.4089 -0.1376
  383MOL0     H51687   9.069   1.426   8.224 -0.4128 -0.6298  0.5526
  383MOL0     H51688   9.296   1.507   8.230 -0.3994  0.7286 -2.0702
  383MOL0     H51689   9.729   1.243   8.206 -0.9652 -0.9285  1.4569
  383MOL0     H51690   9.960   1.248   8.131 -2.0387  0.4237  0.0587
  383MOL0     H51691   9.957   1.132   9.586 -0.4462  2.1880  0.6016
  383MOL0     H51692   9.741   1.069   9.681  1.4125  1.0896  0.4139
  383MOL0     H51693   9.199   0.928   9.410 -0.2586  1.1873 -0.4242
  383MOL0     H51694   8.994   0.836   9.539 -1.5224  3.2817  0.5320
  383MOL0     H51695   9.005   0.842   9.982 -0.7803 -0.0340  0.7596
  383MOL0     H51696   8.973   1.015   9.953 -3.1430  1.5618 -0.4362
  383MOL0     H51697   8.746   0.962   9.993 -0.1795 -0.1738  2.2278
  383MOL0     H51698   8.819   0.868  10.111 -0.6297  1.4533  0.3236
  383MOL0     H51699   8.846   0.667   9.948  1.8360  1.1901 -0.0160
  383MOL0     H51700   8.730   0.749   9.840  1.0503 -0.4763  0.4122
  383MOL0     H51701   8.573   0.765  10.037 -0.0032  0.9385  0.6326
  383MOL0     H51702   8.692   0.673  10.128  0.4203 -0.9807  0.3572
  383MOL0     H51703   8.457   0.373   9.984  1.5407 -1.3931  0.3410
  383MOL0     H51704   9.162   1.019   9.896  1.6326  2.5238 -0.3380
  383MOL0     H51705   9.362   1.088   9.775 -2.3791  1.9600  3.5545
  384MOL0     O51706   6.448  11.308  10.886 -0.2782  0.2659  0.2072
  384MOL0     C51707   6.457  11.353  10.772  0.5881  0.1546 -0.5840
  384MOL0     O51708   6.348  11.389  10.694  0.0056 -0.3393  0.6407
  384MOL0     C51709   6.220  11.406  10.747  0.1447 -0.2420  0.6364
  384MOL0     C51710   6.110  11.384  10.662  0.5224 -0.2000  0.0500
  384MOL0     C51711   5.974  11.378  10.721 -0.4574 -0.6730  0.5213
  384MOL0     C51712   5.965  11.422  10.848  0.9909  0.8413  0.2241
  384MOL0     O51713   5.835  11.422  10.901 -0.4576 -0.6179  0.8915
  384MOL0     C51714   5.813  11.346  11.018 -0.0952  0.3833  0.6206
  384MOL0     C51715   5.694  11.409  11.098  0.2243  1.0089 -0.3597
  384MOL0     C51716   5.643  11.317  11.202 -0.5612 -0.6139  0.8972
  384MOL0     C51717   5.739  11.316  11.325 -0.0859 -0.1192 -0.1650
  384MOL0     C51718   5.664  11.236  11.442 -0.4944 -0.2415  1.6835
  384MOL0     C51719   5.575  11.334  11.521  0.1555  0.7279  0.1237
  384MOL0     C51720   5.477  11.272  11.626  0.9289 -0.7813  0.0191
  384MOL0     C51721   5.354  11.375  11.657 -0.5308  0.1423 -0.1776
  384MOL0     N51722   5.260  11.324  11.762 -0.2898 -0.8411 -0.2115
  384MOL0     C51723   5.134  11.272  11.743 -0.6808  0.4406  0.6488
  384MOL0     C51724   5.089  11.263  11.867 -0.5484  0.0084  0.3875
  384MOL0     C51725   4.957  11.211  11.913 -0.0823  0.5724 -0.4098
  384MOL0     C51726   4.844  11.309  11.870  0.0781  0.7798  0.5926
  384MOL0     C51727   4.710  11.231  11.885 -0.3334 -0.6129  0.3322
  384MOL0     C51728   4.663  11.191  12.019  0.1117 -0.4787  0.0164
  384MOL0     O51729   4.641  11.305  12.099  0.9722  0.2011  0.2877
  384MOL0     C51730   4.510  11.355  12.087  0.4515  0.1166  0.2736
  384MOL0     C51731   4.489  11.460  12.007  0.1261 -0.5359  0.1159
  384MOL0     C51732   4.360  11.518  11.993 -0.0457  0.3568  0.0211
  384MOL0     C51733   4.354  11.653  11.920  0.1478  0.1496  0.0949
  384MOL0     C51734   4.244  11.463  12.067 -1.0326  0.0038  0.2556
  384MOL0     C51735   4.107  11.522  12.077 -0.0571 -0.7006  0.2141
  384MOL0     O51736   4.072  11.601  11.979  0.7683 -0.6005  0.1132
  384MOL0     C51737   3.959  11.676  11.986 -0.9638 -0.9766  0.0464
  384MOL0     C51738   3.832  11.610  11.995 -0.7668  0.9506  0.5854
  384MOL0     C51739   3.719  11.695  11.992  0.6981  0.6276 -0.0479
  384MOL0     C51740   3.729  11.833  11.997  0.1897 -0.6177  0.9463
  384MOL0     O51741   3.625  11.922  12.008  0.8494  0.4363  0.5721
  384MOL0     C51742   3.523  11.905  11.906 -0.1284  0.2738  0.0741
  384MOL0     C51743   3.457  12.049  11.897 -0.4249  0.4191  0.1213
  384MOL0     C51744   3.334  12.064  11.797  0.6415  0.9819 -0.0188
  384MOL0     C51745   3.243  11.941  11.779 -0.0556 -0.2031 -0.3872
  384MOL0     C51746   3.128  11.969  11.684  0.0150  0.1402 -0.2264
  384MOL0     C51747   3.182  12.007  11.550 -0.1118 -0.4016 -0.1438
  384MOL0     C51748   3.073  12.015  11.444 -0.2879  0.1347 -0.4987
  384MOL0     C51749   3.099  12.098  11.315 -1.1155 -0.3469 -0.1240
  384MOL0    Cl51750   3.258  12.070  11.249 -0.0779  0.0589  0.4008
  384MOL0     C51751   3.856  11.893  11.984 -0.8544  0.2093  0.0670
  384MOL0     C51752   3.969  11.816  11.984  0.9214  1.1546  0.2423
  384MOL0     O51753   4.035  11.484  12.171 -0.2012 -0.3059  0.9505
  384MOL0     C51754   4.279  11.348  12.148 -1.0381  0.0044  0.8653
  384MOL0     C51755   4.412  11.298  12.151  0.1808 -0.2308  0.3730
  384MOL0     N51756   5.194  11.303  11.957  0.2358 -0.6032 -0.4643
  384MOL0     N51757   5.290  11.346  11.893 -0.4765 -0.4249  0.4410
  384MOL0     C51758   6.074  11.459  10.928 -0.4045  0.4778 -0.4327
  384MOL0     C51759   6.200  11.443  10.884  0.3277  0.0118  0.2314
  384MOL0     C51760   6.592  11.352  10.702  0.2074 -0.2215 -0.5270
  384MOL0     C51761   6.704  11.285  10.751  0.3275  0.3791 -0.1302
  384MOL0     C51762   6.812  11.266  10.664 -0.3891  0.2776 -0.0471
  384MOL0     C51763   6.808  11.311  10.531 -0.2484  0.0500 -0.7124
  384MOL0     O51764   6.906  11.302  10.440  0.0829 -0.7930  0.4391
  384MOL0     C51765   7.027  11.241  10.483 -0.0173 -0.2109  0.5482
  384MOL0     C51766   7.135  11.223  10.371 -0.0926  0.9210 -1.0416
  384MOL0     C51767   7.166  11.359  10.305  0.2165  0.0249 -0.6128
  384MOL0     C51768   7.282  11.331  10.209 -0.9555 -0.9372  0.9420
  384MOL0     C51769   7.300  11.448  10.132  0.0553 -0.0303  1.0252
  384MOL0     C51770   7.306  11.536  10.049 -0.0957  0.4125  0.3584
  384MOL0     C51771   6.699  11.375  10.484  0.3653  0.3061 -0.2698
  384MOL0     C51772   6.589  11.404  10.570 -1.2494  0.3437  0.6236
  384MOL0     H51773   6.134  11.368  10.558 -0.7178 -0.3289 -0.2311
  384MOL0     H51774   5.892  11.352  10.655 -0.4092 -0.4048  0.3542
  384MOL0     H51775   5.799  11.243  10.984 -2.5383  1.3321 -1.6458
  384MOL0     H51776   5.898  11.363  11.084 -1.2678  0.9218  2.0593
  384MOL0     H51777   5.718  11.505  11.143  1.8594  1.8304 -2.7990
  384MOL0     H51778   5.607  11.426  11.034 -1.0997 -2.6719  0.1908
  384MOL0     H51779   5.538  11.348  11.212 -1.3457 -2.9267  0.5341
  384MOL0     H51780   5.631  11.218  11.157  0.8258 -0.2451 -0.3361
  384MOL0     H51781   5.824  11.255  11.293 -0.5379 -0.2153 -1.2241
  384MOL0     H51782   5.773  11.412  11.367 -0.2823 -2.3544  6.1517
  384MOL0     H51783   5.606  11.154  11.397 -1.8941  1.2228  0.7183
  384MOL0     H51784   5.738  11.194  11.510 -0.0114 -2.6960 -0.2241
  384MOL0     H51785   5.643  11.397  11.578  0.2545 -1.1186  2.1959
  384MOL0     H51786   5.514  11.390  11.450  1.0230  1.6774  0.1072
  384MOL0     H51787   5.428  11.184  11.583 -1.0834  0.2137  0.1544
  384MOL0     H51788   5.533  11.245  11.716  4.3218  1.2492 -1.3000
  384MOL0     H51789   5.304  11.402  11.564  1.9489  2.3473 -0.9813
  384MOL0     H51790   5.400  11.472  11.681  2.9710 -1.3432 -0.2675
  384MOL0     H51791   5.080  11.248  11.652 -1.5755  2.5007  0.6046
  384MOL0     H51792   4.935  11.112  11.872 -0.2893  1.4234 -2.4613
  384MOL0     H51793   4.944  11.205  12.021 -1.8694  0.7422 -0.5903
  384MOL0     H51794   4.853  11.332  11.764 -1.4936 -1.0544  0.0075
  384MOL0     H51795   4.837  11.400  11.931  0.2614  2.0796 -1.2311
  384MOL0     H51796   4.715  11.139  11.827 -1.5876 -1.4095  1.4216
  384MOL0     H51797   4.624  11.283  11.841 -0.1337 -1.5217 -1.2033
  384MOL0     H51798   4.742  11.134  12.069  2.8396  2.1100 -1.0782
  384MOL0     H51799   4.569  11.136  12.008 -2.2088  3.0530  0.7546
  384MOL0     H51800   4.574  11.497  11.951 -1.0367  1.8466 -0.1655
  384MOL0     H51801   4.320  11.732  11.988  0.4980  1.8924 -1.6936
  384MOL0     H51802   4.449  11.683  11.877  1.2578 -2.1924  0.7309
  384MOL0     H51803   4.282  11.645  11.838  2.3290  0.7164 -1.9893
  384MOL0     H51804   3.813  11.504  11.998 -0.1190  0.8076 -0.0760
  384MOL0     H51805   3.623  11.645  11.997  1.5046 -0.8511  1.2791
  384MOL0     H51806   3.574  11.875  11.814 -1.4725 -4.7163  0.6631
  384MOL0     H51807   3.452  11.827  11.936  0.4347 -0.1107  0.4241
  384MOL0     H51808   3.421  12.075  11.997 -1.1231  1.2603 -0.3290
  384MOL0     H51809   3.526  12.129  11.866 -1.6010  0.3940 -2.8995
  384MOL0     H51810   3.370  12.094  11.698 -0.1675 -0.1625 -0.6926
  384MOL0     H51811   3.276  12.148  11.837  0.6726  1.1716 -0.3656
  384MOL0     H51812   3.304  11.856  11.746  2.1374  2.4134 -3.8349
  384MOL0     H51813   3.205  11.916  11.878 -1.7754  3.0767 -0.0817
  384MOL0     H51814   3.065  12.051  11.719 -3.1432 -1.6245 -1.3671
  384MOL0     H51815   3.064  11.882  11.672 -0.4571  0.0233  2.6342
  384MOL0     H51816   3.225  12.108  11.552  1.8688 -1.2217  0.5562
  384MOL0     H51817   3.253  11.931  11.520  0.3613  0.5885 -1.6687
  384MOL0     H51818   2.982  12.061  11.485 -1.7269 -1.0668 -2.1665
  384MOL0     H51819   3.054  11.908  11.430 -0.2949 -0.0859  1.0605
  384MOL0     H51820   3.099  12.204  11.343  2.3649 -0.4747  0.8184
  384MOL0     H51821   3.016  12.080  11.246 -0.7523 -0.7543 -0.4647
  384MOL0     H51822   3.876  11.999  11.994  0.2309  0.1517 -1.2626
  384MOL0     H51823   4.065  11.858  11.954  0.7616  0.5951 -1.0794
  384MOL0     H51824   4.204  11.310  12.217 -2.2167 -0.3409 -0.5508
  384MOL0     H51825   4.422  11.208  12.210  0.0873 -0.7318 -0.3573
  384MOL0     H51826   6.051  11.495  11.028 -0.7662 -0.3954 -0.1884
  384MOL0     H51827   6.277  11.481  10.951  1.3429 -2.1578  0.3771
  384MOL0     H51828   6.705  11.218  10.837  2.7343  0.4942  0.0046
  384MOL0     H51829   6.901  11.215  10.701 -1.5384 -0.6946  1.4804
  384MOL0     H51830   7.070  11.302  10.563  2.1511 -2.0327  0.8735
  384MOL0     H51831   7.020  11.138  10.520  2.7493 -0.4207  0.6574
  384MOL0     H51832   7.115  11.148  10.293  1.2999 -0.5181 -0.0963
  384MOL0     H51833   7.222  11.181  10.424 -3.8045 -3.2715  2.5408
  384MOL0     H51834   7.189  11.430  10.385 -3.2023  1.2422 -0.5219
  384MOL0     H51835   7.085  11.400  10.243 -1.6024 -1.0165  0.9765
  384MOL0     H51836   7.255  11.247  10.145 -2.3352  0.2185 -0.0677
  384MOL0     H51837   7.363  11.291  10.270 -1.4323  0.8841  2.8876
  384MOL0     H51838   7.299  11.613   9.975 -2.2372  0.9006  1.0090
  384MOL0     H51839   6.707  11.391  10.377 -2.8389  0.7546 -0.5431
  384MOL0     H51840   6.504  11.445  10.515  0.3035 -0.1119 -2.3182
  385MOL0     O51841   7.077   6.594  10.934  0.2931 -0.6886  0.4654
  385MOL0     C51842   7.152   6.511  10.975 -0.7442  0.9227  0.3206
  385MOL0     O51843   7.117   6.390  11.028  0.3558  0.2775  0.2007
  385MOL0     C51844   6.983   6.383  11.075 -0.4220 -0.3566 -0.3810
  385MOL0     C51845   6.937   6.454  11.185  0.2343 -0.4361 -0.0493
  385MOL0     C51846   6.798   6.446  11.213 -1.0845 -0.5813 -0.4150
  385MOL0     C51847   6.707   6.364  11.134 -0.3414 -0.4150 -0.3204
  385MOL0     O51848   6.570   6.357  11.139  0.8894 -0.6046 -0.3063
  385MOL0     C51849   6.521   6.355  11.274  0.7453 -0.1421  1.3602
  385MOL0     C51850   6.368   6.331  11.257 -0.2557  0.1927  0.0639
  385MOL0     C51851   6.298   6.445  11.181 -0.2014 -0.5031 -0.4664
  385MOL0     C51852   6.139   6.431  11.187 -0.0851  0.9265 -0.4313
  385MOL0     C51853   6.057   6.524  11.088  0.3274 -0.5254 -0.7070
  385MOL0     C51854   5.911   6.516  11.117  0.5880 -0.8781  0.2575
  385MOL0     C51855   5.837   6.628  11.044  0.6790 -0.0786  0.2869
  385MOL0     C51856   5.691   6.594  11.087 -0.9441  0.4082  0.4256
  385MOL0     N51857   5.603   6.668  11.003  0.3667 -0.3222 -0.1832
  385MOL0     C51858   5.565   6.622  10.876  0.1776 -0.1408 -0.4728
  385MOL0     C51859   5.488   6.723  10.827  0.4782  0.0381 -0.2033
  385MOL0     C51860   5.431   6.728  10.688 -0.0221  0.0863 -0.1170
  385MOL0     C51861   5.291   6.667  10.678  0.4977 -1.1126 -0.3895
  385MOL0     C51862   5.258   6.601  10.541  0.0634  0.6927  0.0593
  385MOL0     C51863   5.118   6.541  10.541  0.1653 -0.6282 -0.5557
  385MOL0     O51864   5.074   6.531  10.407  0.4738  0.1497 -0.4009
  385MOL0     C51865   4.971   6.440  10.381 -0.6400  1.1389  0.0128
  385MOL0     C51866   4.901   6.355  10.469 -0.2543 -0.8492 -0.2663
  385MOL0     C51867   4.793   6.270  10.432  0.1304 -0.2889 -0.4563
  385MOL0     C51868   4.729   6.193  10.539 -0.7527  0.6726 -0.3014
  385MOL0     C51869   4.760   6.258  10.292  0.1184 -0.0473 -1.0146
  385MOL0     C51870   4.666   6.158  10.241  0.6496 -0.6317  1.0296
  385MOL0     O51871   4.619   6.190  10.116 -0.0626 -0.1273  0.4617
  385MOL0     C51872   4.540   6.097  10.048 -0.7283  0.5568  0.0553
  385MOL0     C51873   4.549   6.096   9.908  0.6806  0.2860  0.0368
  385MOL0     C51874   4.463   6.023   9.826 -0.1116 -0.0630 -0.4064
  385MOL0     C51875   4.371   5.943   9.880 -0.6287  0.0514  0.3806
  385MOL0     O51876   4.299   5.853   9.799  0.1371 -0.3081  0.3338
  385MOL0     C51877   4.275   5.865   9.659 -0.0796 -0.6369  0.0888
  385MOL0     C51878   4.374   5.786   9.574 -0.9980  0.5141 -1.0885
  385MOL0     C51879   4.353   5.795   9.420 -0.7531 -0.4973 -0.1115
  385MOL0     C51880   4.416   5.919   9.363  0.0075 -1.1074 -0.7115
  385MOL0     C51881   4.389   5.948   9.213  0.1278  0.3170 -0.6956
  385MOL0     C51882   4.489   6.068   9.177 -1.0080 -0.1435 -0.1886
  385MOL0     C51883   4.507   6.066   9.019 -0.4970 -0.4784 -0.5571
  385MOL0     C51884   4.592   6.170   8.959  0.8028  0.4379 -0.1346
  385MOL0    Cl51885   4.630   6.107   8.789  0.3156  0.1324  0.2145
  385MOL0     C51886   4.351   5.953  10.018 -0.7399 -1.0867  1.7847
  385MOL0     C51887   4.432   6.031  10.103  0.0544 -0.9504  0.3466
  385MOL0     O51888   4.644   6.050  10.296  0.0090  0.5990 -1.0413
  385MOL0     C51889   4.820   6.351  10.205 -0.2060 -0.4373 -0.9186
  385MOL0     C51890   4.918   6.440  10.249  0.5450  1.3976  0.3269
  385MOL0     N51891   5.478   6.822  10.927  0.5495 -0.7046 -0.1053
  385MOL0     N51892   5.543   6.788  11.034  0.0466 -1.1883  0.4380
  385MOL0     C51893   6.764   6.290  11.038  0.0352  1.1429 -0.1099
  385MOL0     C51894   6.898   6.293  11.009 -0.3397 -0.6246 -0.2862
  385MOL0     C51895   7.300   6.539  10.962 -0.0202 -0.6769 -0.3195
  385MOL0     C51896   7.401   6.443  10.955  0.2654  0.1087 -0.2740
  385MOL0     C51897   7.536   6.476  10.949 -0.9867 -0.2728 -0.4996
  385MOL0     C51898   7.572   6.610  10.948  0.2838 -0.1025 -0.9404
  385MOL0     O51899   7.707   6.638  10.930  0.1463  0.1657 -0.4346
  385MOL0     C51900   7.737   6.772  10.879  0.3884  0.9460 -0.6980
  385MOL0     C51901   7.888   6.789  10.880 -0.3346 -0.2922  0.1044
  385MOL0     C51902   7.962   6.688  10.797 -0.1482  0.0625  0.0164
  385MOL0     C51903   8.106   6.718  10.823 -0.6764 -0.4182 -0.0484
  385MOL0     C51904   8.162   6.672  10.955 -0.2527  0.5810 -0.3066
  385MOL0     C51905   8.187   6.635  11.067  0.8672 -0.4450  0.7312
  385MOL0     C51906   7.471   6.706  10.973  0.1218  0.2179 -0.4685
  385MOL0     C51907   7.336   6.676  10.974  0.1059  0.7718 -1.3859
  385MOL0     H51908   7.001   6.517  11.246 -0.3126 -0.8123  0.9364
  385MOL0     H51909   6.752   6.502  11.293 -1.9717 -1.5448 -0.2390
  385MOL0     H51910   6.569   6.283  11.341  1.4639  0.5816  1.6487
  385MOL0     H51911   6.532   6.455  11.318 -0.2951  0.7449 -0.3180
  385MOL0     H51912   6.347   6.229  11.223  1.4624 -0.6479  1.3817
  385MOL0     H51913   6.336   6.338  11.361  1.8065  0.9126  0.6805
  385MOL0     H51914   6.335   6.542  11.216 -1.5655 -0.1197 -0.0425
  385MOL0     H51915   6.322   6.445  11.074  1.8226  1.7211 -0.1073
  385MOL0     H51916   6.107   6.329  11.167 -4.2685  1.7648  0.9821
  385MOL0     H51917   6.113   6.466  11.287  1.7303  1.0361  0.0416
  385MOL0     H51918   6.093   6.627  11.082 -1.3348  0.1742  0.6465
  385MOL0     H51919   6.080   6.493  10.985  1.5426  2.0900 -1.3095
  385MOL0     H51920   5.876   6.420  11.078 -0.2244 -1.0644  1.4134
  385MOL0     H51921   5.900   6.523  11.225  2.4946  1.6588  0.3959
  385MOL0     H51922   5.877   6.725  11.073  0.9607 -0.3937  0.9788
  385MOL0     H51923   5.859   6.611  10.938  1.2785 -0.9297  0.5375
  385MOL0     H51924   5.681   6.615  11.194  0.3195  2.7295  0.1488
  385MOL0     H51925   5.672   6.487  11.080 -1.4578  0.4239  1.3187
  385MOL0     H51926   5.598   6.529  10.831 -1.9779 -1.0946 -0.2048
  385MOL0     H51927   5.413   6.827  10.646 -0.9497 -0.0676 -0.1148
  385MOL0     H51928   5.491   6.669  10.618  0.3556 -1.8021  1.6636
  385MOL0     H51929   5.229   6.756  10.695  0.5437 -0.6621 -2.3344
  385MOL0     H51930   5.284   6.592  10.757  2.4822 -0.6781  0.2592
  385MOL0     H51931   5.328   6.519  10.527  0.2787  0.5283  1.8343
  385MOL0     H51932   5.283   6.659  10.452 -0.0513  0.3037 -0.2282
  385MOL0     H51933   5.061   6.616  10.597 -1.1635  0.0596 -2.7008
  385MOL0     H51934   5.116   6.444  10.592 -1.9383 -0.7589 -0.7958
  385MOL0     H51935   4.927   6.383  10.570  3.2978  1.6355 -1.6722
  385MOL0     H51936   4.620   6.207  10.533 -0.9621 -1.0993 -1.1089
  385MOL0     H51937   4.762   6.089  10.534 -1.4377  0.4704 -0.8546
  385MOL0     H51938   4.773   6.215  10.636  4.1972 -1.5843 -1.7296
  385MOL0     H51939   4.633   6.151   9.867  0.3916  0.1478 -0.7601
  385MOL0     H51940   4.475   6.037   9.719 -1.2393  1.2057 -0.3804
  385MOL0     H51941   4.168   5.855   9.639 -0.6994  5.0384 -1.1404
  385MOL0     H51942   4.284   5.971   9.636  2.5614 -0.8935 -0.2848
  385MOL0     H51943   4.478   5.810   9.600 -0.5192 -0.3352 -2.1310
  385MOL0     H51944   4.369   5.681   9.607  3.2467  1.2396  2.8374
  385MOL0     H51945   4.247   5.809   9.398 -0.3352  0.8554 -1.4671
  385MOL0     H51946   4.392   5.708   9.366  3.1620  2.3983 -2.5704
  385MOL0     H51947   4.373   6.002   9.419  1.2875 -0.7223 -0.2610
  385MOL0     H51948   4.524   5.914   9.381 -0.2491  1.2568  2.0918
  385MOL0     H51949   4.288   5.977   9.185 -0.5108 -1.1988 -0.0840
  385MOL0     H51950   4.415   5.864   9.149 -0.1654  0.8810 -1.5698
  385MOL0     H51951   4.463   6.168   9.213  1.4788  0.2369  0.7547
  385MOL0     H51952   4.593   6.054   9.209 -0.0496  0.6992 -2.6772
  385MOL0     H51953   4.407   6.091   8.982  0.3990  1.9779 -1.5615
  385MOL0     H51954   4.547   5.972   8.981  0.1016 -0.3094 -0.3613
  385MOL0     H51955   4.684   6.179   9.017  0.9674  2.1272 -0.5984
  385MOL0     H51956   4.537   6.264   8.967 -1.4996 -0.8341  0.0945
  385MOL0     H51957   4.284   5.885  10.069 -4.4674  0.4835 -0.6192
  385MOL0     H51958   4.402   6.030  10.207 -2.4732  0.8099 -0.2662
  385MOL0     H51959   4.784   6.351  10.103  0.0268  0.6220 -1.0100
  385MOL0     H51960   4.951   6.514  10.177 -1.2883  0.4880 -1.5452
  385MOL0     H51961   6.701   6.218  10.986  3.0557 -1.6485 -0.2230
  385MOL0     H51962   6.941   6.243  10.923 -0.0869 -1.4291  0.2949
  385MOL0     H51963   7.371   6.341  10.938 -0.8582  0.7267 -2.3056
  385MOL0     H51964   7.615   6.403  10.931 -0.1191 -0.0820  2.1013
  385MOL0     H51965   7.693   6.785  10.780  1.8429 -0.9536 -1.6548
  385MOL0     H51966   7.697   6.855  10.938 -0.1871  2.9871 -3.7240
  385MOL0     H51967   7.932   6.803  10.979 -0.1889 -1.0059  0.1428
  385MOL0     H51968   7.902   6.889  10.837  2.2923 -0.5229  0.2728
  385MOL0     H51969   7.938   6.701  10.691  0.6180 -2.6821 -0.5755
  385MOL0     H51970   7.937   6.588  10.832  0.3504  0.4139  1.4726
  385MOL0     H51971   8.119   6.824  10.801  0.6150  0.2145  3.2547
  385MOL0     H51972   8.160   6.655  10.751 -0.2760  2.2046 -2.1926
  385MOL0     H51973   8.208   6.604  11.167  0.3991 -3.3264  0.0289
  385MOL0     H51974   7.510   6.807  10.976  2.6467 -0.6902  1.3487
  385MOL0     H51975   7.262   6.754  10.988  1.6489  2.0305  0.2985
  386MOL0     O51976   7.697   5.142   1.070 -0.0317  0.1118 -0.1787
  386MOL0     C51977   7.690   5.248   1.013  0.1657  0.2924 -0.8668
  386MOL0     O51978   7.571   5.323   1.012 -0.1923  0.2167 -0.2714
  386MOL0     C51979   7.454   5.272   1.071 -0.7421  0.9221 -0.2234
  386MOL0     C51980   7.365   5.195   0.994  0.2607 -0.5000  0.5665
  386MOL0     C51981   7.239   5.161   1.037 -0.3367 -0.3248  0.6540
  386MOL0     C51982   7.208   5.176   1.175  0.4725 -0.4824 -0.7914
  386MOL0     O51983   7.099   5.123   1.232  0.8498 -0.3263 -0.1534
  386MOL0     C51984   7.089   4.984   1.209  0.5690  0.7858 -0.3686
  386MOL0     C51985   7.009   4.911   1.321 -0.7410  0.0636  0.1738
  386MOL0     C51986   6.867   4.974   1.338 -0.2133  0.7522 -0.5065
  386MOL0     C51987   6.772   4.974   1.207  0.0845 -0.2311 -0.1393
  386MOL0     C51988   6.627   4.978   1.256  0.4698  0.4356  0.3145
  386MOL0     C51989   6.542   5.022   1.138  0.0757  0.9044 -0.7292
  386MOL0     C51990   6.408   5.060   1.203 -0.3209  0.7629 -0.0341
  386MOL0     C51991   6.304   5.077   1.089  0.3850  0.9202  0.3861
  386MOL0     N51992   6.168   5.084   1.142  0.1949 -0.3690 -0.3364
  386MOL0     C51993   6.124   5.143   1.261 -0.6943  0.8454  0.4279
  386MOL0     C51994   5.993   5.096   1.269  0.3385 -0.7485 -0.1643
  386MOL0     C51995   5.894   5.139   1.377 -0.3310  0.9174  1.2104
  386MOL0     C51996   5.938   5.081   1.514  0.3383  0.1510 -0.7448
  386MOL0     C51997   5.852   5.120   1.632 -0.0622 -0.7262  0.8083
  386MOL0     C51998   5.705   5.068   1.608 -0.7318  0.9200  0.1866
  386MOL0     O51999   5.706   4.928   1.639  0.7803  0.3017  0.3885
  386MOL0     C52000   5.644   4.877   1.754 -0.3549  0.9832 -0.4297
  386MOL0     C52001   5.606   4.947   1.866  0.0262  0.5056 -0.3948
  386MOL0     C52002   5.541   4.895   1.983  0.7684 -0.9894 -0.0429
  386MOL0     C52003   5.492   4.992   2.087  0.5922 -0.1902 -0.1507
  386MOL0     C52004   5.527   4.757   1.995 -0.4872 -0.8492 -0.2669
  386MOL0     C52005   5.486   4.684   2.119 -0.4081 -0.8322 -0.6996
  386MOL0     O52006   5.481   4.752   2.239  0.4743  0.4165  0.0690
  386MOL0     C52007   5.460   4.698   2.359  0.1564 -0.1138  0.1391
  386MOL0     C52008   5.538   4.735   2.465  0.7595 -0.5082  0.6071
  386MOL0     C52009   5.513   4.678   2.595  0.3014 -0.8141  0.7576
  386MOL0     C52010   5.401   4.587   2.612  0.3609 -0.0596 -0.8544
  386MOL0     O52011   5.390   4.541   2.746  0.0396 -0.7562  0.2029
  386MOL0     C52012   5.251   4.490   2.777 -0.2660 -0.3869  0.2678
  386MOL0     C52013   5.236   4.438   2.921 -0.4242 -0.4090  0.6539
  386MOL0     C52014   5.339   4.332   2.947 -0.0113 -0.7037 -0.0502
  386MOL0     C52015   5.343   4.286   3.091 -0.1327  0.1298  0.2820
  386MOL0     C52016   5.387   4.390   3.192  0.3146 -0.1579 -0.3267
  386MOL0     C52017   5.383   4.338   3.336 -0.6411 -0.8442  0.3959
  386MOL0     C52018   5.451   4.435   3.439  0.7753  0.0848 -0.3034
  386MOL0     C52019   5.512   4.357   3.552  0.6587  0.3384  0.3400
  386MOL0    Cl52020   5.541   4.468   3.684  0.3976 -0.0222  0.5038
  386MOL0     C52021   5.327   4.548   2.498 -0.2706  1.6380 -0.2376
  386MOL0     C52022   5.357   4.607   2.375 -0.5277 -0.2186  0.7852
  386MOL0     O52023   5.481   4.562   2.113  0.7647  0.4335  0.0852
  386MOL0     C52024   5.567   4.686   1.876  0.3995  0.2221 -0.2990
  386MOL0     C52025   5.624   4.737   1.759 -0.5706 -1.0944  0.9599
  386MOL0     N52026   5.956   5.031   1.155  0.4529  0.1708  0.0803
  386MOL0     N52027   6.063   5.022   1.084  0.3747  0.4384  0.2612
  386MOL0     C52028   7.302   5.247   1.260  0.4924 -0.0465  0.6939
  386MOL0     C52029   7.433   5.290   1.210  0.3485  0.0192  1.2452
  386MOL0     C52030   7.797   5.305   0.930 -0.5889 -0.1958 -0.4227
  386MOL0     C52031   7.769   5.398   0.820 -0.2969  1.5526  0.2827
  386MOL0     C52032   7.868   5.461   0.746 -0.2560  0.4129 -0.0364
  386MOL0     C52033   8.001   5.432   0.769  0.3059 -0.2713 -0.8175
  386MOL0     O52034   8.116   5.478   0.705  0.3436  0.0450 -0.3264
  386MOL0     C52035   8.092   5.600   0.632 -0.1025 -0.2604 -0.1922
  386MOL0     C52036   8.057   5.561   0.490  0.9029 -0.5091  0.4035
  386MOL0     C52037   8.176   5.517   0.408  0.2972 -0.9271 -0.4511
  386MOL0     C52038   8.278   5.621   0.363 -0.4078  0.1076  0.0687
  386MOL0     C52039   8.384   5.546   0.285 -0.0793  0.5967 -0.2463
  386MOL0     C52040   8.470   5.482   0.240 -0.8787 -0.7384 -0.3742
  386MOL0     C52041   8.030   5.347   0.880 -0.1762 -0.4213 -0.6297
  386MOL0     C52042   7.930   5.286   0.959 -0.3781  0.6424  0.3917
  386MOL0     H52043   7.406   5.163   0.898  1.0091 -0.7306  0.9592
  386MOL0     H52044   7.170   5.110   0.971  3.1787 -3.5407 -0.9160
  386MOL0     H52045   7.017   4.971   1.128  0.3355 -2.6017  0.2250
  386MOL0     H52046   7.187   4.940   1.189  1.1255  0.8539  1.9330
  386MOL0     H52047   7.005   4.805   1.295  3.9560 -0.3726  0.4973
  386MOL0     H52048   7.062   4.918   1.416 -0.6608 -2.1344  0.3537
  386MOL0     H52049   6.812   4.911   1.408  0.1902  0.1440 -0.7291
  386MOL0     H52050   6.882   5.074   1.380  1.0361 -0.9982  3.8597
  386MOL0     H52051   6.798   5.059   1.143  0.7849 -0.1957  0.1796
  386MOL0     H52052   6.784   4.883   1.148  0.7695  0.7753 -1.6186
  386MOL0     H52053   6.597   4.878   1.290 -2.7313  1.1225 -0.1432
  386MOL0     H52054   6.610   5.045   1.340 -1.0107  0.9245 -0.3400
  386MOL0     H52055   6.580   5.106   1.080  0.4250  0.3952 -1.2424
  386MOL0     H52056   6.532   4.943   1.063  3.3235  1.1560 -1.5527
  386MOL0     H52057   6.368   4.979   1.264 -2.6482 -0.5619 -3.0290
  386MOL0     H52058   6.408   5.153   1.261  0.3039  0.8176 -0.1172
  386MOL0     H52059   6.306   4.978   1.042 -0.8258  2.4893 -3.3253
  386MOL0     H52060   6.331   5.150   1.012  0.9162 -0.3692 -0.6991
  386MOL0     H52061   6.181   5.193   1.339  1.1195 -1.3904  0.6334
  386MOL0     H52062   5.897   5.248   1.379  2.4814  0.9112  0.8318
  386MOL0     H52063   5.801   5.096   1.339  0.6245 -0.0278 -0.1380
  386MOL0     H52064   6.042   5.110   1.536  0.7249 -2.2722  1.0016
  386MOL0     H52065   5.944   4.972   1.522 -1.3035  0.1536  1.2268
  386MOL0     H52066   5.840   5.228   1.619 -0.7781 -0.7304  1.3953
  386MOL0     H52067   5.889   5.090   1.730  1.8396 -1.2997 -0.0403
  386MOL0     H52068   5.667   5.091   1.508 -1.6592  2.7707  0.9271
  386MOL0     H52069   5.641   5.124   1.677 -1.4855 -0.4165  0.6038
  386MOL0     H52070   5.618   5.055   1.868  0.8440  0.4873 -2.3233
  386MOL0     H52071   5.568   5.011   2.162 -1.2368 -0.2014  1.7986
  386MOL0     H52072   5.473   5.090   2.041 -4.6124 -1.1273 -0.6390
  386MOL0     H52073   5.401   4.961   2.140  1.3058 -1.0853  0.6017
  386MOL0     H52074   5.622   4.803   2.455  0.6087 -0.3779  0.2371
  386MOL0     H52075   5.576   4.712   2.677  1.2324  0.0230 -0.2741
  386MOL0     H52076   5.176   4.559   2.738  0.7531 -0.3870 -1.8275
  386MOL0     H52077   5.229   4.400   2.717 -0.8745 -0.8018  1.0896
  386MOL0     H52078   5.243   4.528   2.983 -1.4406  0.1520 -0.0204
  386MOL0     H52079   5.137   4.397   2.944 -0.2336 -1.4958 -0.3896
  386MOL0     H52080   5.442   4.363   2.928  1.5432 -1.4304  5.4706
  386MOL0     H52081   5.309   4.255   2.876 -0.5651  1.8385 -2.8038
  386MOL0     H52082   5.244   4.258   3.127  0.1927 -0.2923  0.8680
  386MOL0     H52083   5.408   4.198   3.106  3.0381  2.5642  2.3065
  386MOL0     H52084   5.328   4.481   3.180 -1.3353 -1.3030 -1.1201
  386MOL0     H52085   5.493   4.401   3.167  1.0413 -4.0392  0.4301
  386MOL0     H52086   5.274   4.329   3.347 -1.2357 -0.8586 -3.7845
  386MOL0     H52087   5.434   4.243   3.353  1.5979  0.3002  0.5009
  386MOL0     H52088   5.378   4.504   3.482  4.4117  0.9071  5.7014
  386MOL0     H52089   5.522   4.501   3.390 -3.4855  4.0638 -1.8049
  386MOL0     H52090   5.599   4.300   3.517  1.1258  1.1947  0.0879
  386MOL0     H52091   5.438   4.283   3.585  1.2741 -0.3700  0.1723
  386MOL0     H52092   5.257   4.465   2.495  1.8923 -0.2701 -3.3989
  386MOL0     H52093   5.294   4.584   2.289 -0.3478 -1.7711  1.0404
  386MOL0     H52094   5.551   4.579   1.885 -2.5662  0.4810 -1.4005
  386MOL0     H52095   5.669   4.668   1.688 -0.2399 -0.8292  0.9063
  386MOL0     H52096   7.279   5.240   1.366 -4.8598  0.8727 -0.1135
  386MOL0     H52097   7.508   5.335   1.274  0.8075 -1.2792  1.6462
  386MOL0     H52098   7.667   5.424   0.795 -0.3899 -0.2513 -1.5204
  386MOL0     H52099   7.852   5.527   0.661 -1.4561 -0.5281 -0.5686
  386MOL0     H52100   8.011   5.655   0.682  0.8320  2.7414 -1.7431
  386MOL0     H52101   8.184   5.659   0.637 -0.4920  0.3253  0.2261
  386MOL0     H52102   8.004   5.645   0.445 -2.0408 -2.2512  0.3980
  386MOL0     H52103   7.990   5.475   0.495  1.4169 -0.8612  1.9633
  386MOL0     H52104   8.138   5.467   0.318 -3.6463 -1.2613  1.1979
  386MOL0     H52105   8.235   5.441   0.459  1.6547  1.4432  1.7707
  386MOL0     H52106   8.332   5.668   0.446 -1.6083  1.4692  0.1014
  386MOL0     H52107   8.235   5.701   0.303  1.3856  2.7983  2.1234
  386MOL0     H52108   8.564   5.436   0.216 -1.0928 -0.5491 -1.6445
  386MOL0     H52109   8.132   5.317   0.897  0.6704  1.9910 -0.9808
  386MOL0     H52110   7.959   5.222   1.042  3.2862  0.4776 -0.8046
  387MOL0     O52111   9.662   4.889   5.692  0.1117 -0.7591  0.1673
  387MOL0     C52112   9.595   4.983   5.664 -0.2099 -0.0215  1.0664
  387MOL0     O52113   9.458   4.990   5.652 -0.7782 -0.3048 -0.0580
  387MOL0     C52114   9.372   4.889   5.673  0.7559 -0.0733  0.2847
  387MOL0     C52115   9.409   4.760   5.725 -0.3812 -0.1734 -1.1474
  387MOL0     C52116   9.314   4.671   5.780  0.1593 -0.1567 -0.3171
  387MOL0     C52117   9.178   4.699   5.759  0.8388  1.0333  0.0748
  387MOL0     O52118   9.089   4.606   5.812  0.4545 -0.6491 -0.1706
  387MOL0     C52119   8.996   4.557   5.711 -1.2406  0.4666  0.1621
  387MOL0     C52120   8.854   4.533   5.750 -0.2979 -0.0119  0.1588
  387MOL0     C52121   8.751   4.504   5.634  0.1866 -0.5078  0.2135
  387MOL0     C52122   8.621   4.434   5.677 -0.6934  0.5110 -0.8427
  387MOL0     C52123   8.624   4.300   5.622  0.6738 -0.2737 -0.3682
  387MOL0     C52124   8.499   4.202   5.655 -1.7287 -0.5047  0.2027
  387MOL0     C52125   8.519   4.059   5.611  0.5230 -0.4965 -1.3184
  387MOL0     C52126   8.425   3.955   5.684  0.1615 -0.0415  0.3041
  387MOL0     N52127   8.431   3.824   5.622 -0.7033  0.5904  0.5334
  387MOL0     C52128   8.504   3.713   5.665  0.0358  0.0493 -0.1546
  387MOL0     C52129   8.474   3.603   5.582 -0.6116 -0.5857  0.0638
  387MOL0     C52130   8.541   3.473   5.586 -0.5575 -0.8825  0.1916
  387MOL0     C52131   8.552   3.411   5.721 -0.6645 -0.2124 -0.0733
  387MOL0     C52132   8.649   3.293   5.749  0.8898 -0.0048  0.6107
  387MOL0     C52133   8.638   3.246   5.885 -0.6543 -0.8568  0.3963
  387MOL0     O52134   8.767   3.200   5.924 -0.7491 -0.1926 -0.5411
  387MOL0     C52135   8.808   3.232   6.055  0.0696  0.9402 -0.3221
  387MOL0     C52136   8.944   3.279   6.051  0.0735  0.4728 -0.5240
  387MOL0     C52137   8.998   3.327   6.170 -1.2569  0.4514 -0.1903
  387MOL0     C52138   9.143   3.367   6.165 -0.1832  0.2943  0.2335
  387MOL0     C52139   8.913   3.337   6.284 -0.1389  0.0988  0.5527
  387MOL0     C52140   8.959   3.403   6.413 -0.6161 -0.1766 -0.3027
  387MOL0     O52141   8.864   3.429   6.501 -0.5433 -1.4034 -0.2001
  387MOL0     C52142   8.885   3.492   6.622 -0.0588  0.2217 -0.4577
  387MOL0     C52143   8.776   3.564   6.667 -0.5301  0.4338  0.0898
  387MOL0     C52144   8.770   3.629   6.790  0.8255 -0.0813 -0.0513
  387MOL0     C52145   8.877   3.626   6.874 -0.6831  1.1024  0.0781
  387MOL0     O52146   8.871   3.705   6.981  0.1385 -0.3243 -0.2854
  387MOL0     C52147   8.989   3.746   7.052 -0.8926 -0.1719 -0.3939
  387MOL0     C52148   8.964   3.900   7.059 -0.8290 -0.1365 -0.2903
  387MOL0     C52149   8.925   3.967   6.935 -0.5481 -0.3432  0.2494
  387MOL0     C52150   8.914   4.118   6.943  0.7200  0.5888  0.1262
  387MOL0     C52151   8.834   4.169   6.821 -0.2444 -0.3546 -0.4675
  387MOL0     C52152   8.850   4.332   6.805  0.4681 -0.0581 -0.5356
  387MOL0     C52153   8.754   4.400   6.707  0.2393 -0.0156 -0.6033
  387MOL0     C52154   8.606   4.365   6.727 -0.0291  0.9020 -0.0977
  387MOL0    Cl52155   8.555   4.386   6.900 -0.1820  0.1644 -0.1031
  387MOL0     C52156   9.000   3.546   6.834  0.7641 -0.9818 -1.0827
  387MOL0     C52157   8.996   3.480   6.712 -0.2121 -0.1414  0.0340
  387MOL0     O52158   9.069   3.458   6.413 -0.0399 -0.3740 -0.3916
  387MOL0     C52159   8.782   3.285   6.287  0.4736 -0.8491  0.2979
  387MOL0     C52160   8.724   3.234   6.168  0.2186 -0.0323  0.0710
  387MOL0     N52161   8.366   3.645   5.500  0.7368  0.0381 -0.4824
  387MOL0     N52162   8.347   3.776   5.525  1.2887 -0.1457  0.9753
  387MOL0     C52163   9.142   4.825   5.717  0.2003  0.6299  1.1622
  387MOL0     C52164   9.231   4.918   5.667 -0.2852  0.2863 -0.3757
  387MOL0     C52165   9.664   5.106   5.631 -0.3384 -0.2622 -0.2129
  387MOL0     C52166   9.611   5.236   5.650  0.3980  1.0610  0.3787
  387MOL0     C52167   9.691   5.349   5.636 -0.0123  0.5023  1.2163
  387MOL0     C52168   9.825   5.332   5.579  0.3765  0.0865 -0.2644
  387MOL0     O52169   9.911   5.433   5.540  0.2426 -0.1381  0.2693
  387MOL0     C52170   9.869   5.568   5.541  0.1065 -0.2553 -0.2059
  387MOL0     C52171   9.978   5.674   5.533  0.1520  0.6847 -0.4275
  387MOL0     C52172  10.087   5.629   5.428  0.4109  0.3810 -0.5157
  387MOL0     C52173  10.190   5.755   5.420  0.2746 -0.5096  0.0301
  387MOL0     C52174  10.149   5.890   5.357  0.0909  0.2724 -0.2254
  387MOL0     C52175  10.118   6.001   5.311  0.6793  0.2125 -1.0845
  387MOL0     C52176   9.873   5.201   5.558  0.6532  0.7180  0.2877
  387MOL0     C52177   9.791   5.088   5.578 -0.1227  0.3507 -0.2984
  387MOL0     H52178   9.512   4.727   5.717  0.4331  2.0972 -0.8118
  387MOL0     H52179   9.354   4.585   5.834 -1.5595 -1.3431 -0.8609
  387MOL0     H52180   8.988   4.628   5.628 -1.9993 -1.4945 -1.5279
  387MOL0     H52181   9.038   4.464   5.671  2.2893  2.4972 -1.3799
  387MOL0     H52182   8.843   4.450   5.821 -3.0170  0.7552  0.7388
  387MOL0     H52183   8.819   4.626   5.795 -0.2363 -0.0693  0.3260
  387MOL0     H52184   8.708   4.592   5.586  2.6743 -0.7627 -2.8236
  387MOL0     H52185   8.798   4.457   5.547 -0.8392 -0.9669 -0.1139
  387MOL0     H52186   8.620   4.439   5.786 -1.5328  0.7606 -0.8582
  387MOL0     H52187   8.534   4.483   5.632 -0.0671  0.9913 -1.5540
  387MOL0     H52188   8.641   4.309   5.515 -1.3011  1.1569 -0.6230
  387MOL0     H52189   8.715   4.250   5.656 -0.0235 -2.0500 -0.9499
  387MOL0     H52190   8.487   4.207   5.764  0.5363  1.1645  0.4500
  387MOL0     H52191   8.408   4.238   5.606 -3.7694 -4.0112  1.0723
  387MOL0     H52192   8.501   4.059   5.503 -2.2293 -1.2266 -0.9317
  387MOL0     H52193   8.621   4.030   5.638  0.2007 -0.6162 -0.1636
  387MOL0     H52194   8.322   3.992   5.682  0.1761  0.2508  2.4293
  387MOL0     H52195   8.429   3.952   5.793  1.4667  1.2132  0.3197
  387MOL0     H52196   8.575   3.716   5.747  0.5582 -3.3912 -0.3265
  387MOL0     H52197   8.501   3.409   5.507 -0.0166 -1.5110  0.4174
  387MOL0     H52198   8.646   3.495   5.562 -0.4716  1.1838  2.1176
  387MOL0     H52199   8.453   3.393   5.765  0.7839  1.1672  4.3064
  387MOL0     H52200   8.581   3.490   5.791 -1.9390  0.4871 -0.2997
  387MOL0     H52201   8.745   3.344   5.733  0.0677  0.7436 -2.7354
  387MOL0     H52202   8.635   3.211   5.678  0.5926 -1.6942  2.5602
  387MOL0     H52203   8.568   3.163   5.896 -1.6235 -0.0127  0.7800
  387MOL0     H52204   8.605   3.331   5.945 -0.5243 -0.1297 -0.5508
  387MOL0     H52205   9.012   3.280   5.967  1.3283  2.2853  0.4577
  387MOL0     H52206   9.153   3.473   6.192 -0.3872  0.9048 -1.8767
  387MOL0     H52207   9.199   3.305   6.236  1.8814  0.8057 -0.8855
  387MOL0     H52208   9.174   3.341   6.064 -0.2622 -4.6337  1.2323
  387MOL0     H52209   8.695   3.575   6.595 -1.5545  1.7363  1.3845
  387MOL0     H52210   8.676   3.681   6.807  0.8547  0.5183 -1.6193
  387MOL0     H52211   8.990   3.705   7.154  1.3745  0.5938 -0.0467
  387MOL0     H52212   9.083   3.734   6.998 -2.6295  0.0582 -3.6778
  387MOL0     H52213   8.879   3.903   7.128 -1.2602 -1.3049 -0.7449
  387MOL0     H52214   9.038   3.953   7.120 -2.4205 -1.2473  2.7992
  387MOL0     H52215   8.832   3.922   6.900  0.9918 -1.2837 -3.0943
  387MOL0     H52216   9.003   3.928   6.868  0.3569  0.0351  1.0689
  387MOL0     H52217   8.866   4.139   7.039 -0.5129  1.6527 -0.6967
  387MOL0     H52218   9.010   4.171   6.944 -0.1150  2.1869  1.6820
  387MOL0     H52219   8.729   4.146   6.840 -0.3998 -0.4319 -1.3677
  387MOL0     H52220   8.872   4.118   6.732 -2.2136 -1.4421 -0.7364
  387MOL0     H52221   8.840   4.382   6.902 -0.1015  3.0610 -2.0551
  387MOL0     H52222   8.947   4.356   6.762  0.6038  0.8066  0.2127
  387MOL0     H52223   8.782   4.367   6.606  4.9883 -2.1448  1.1216
  387MOL0     H52224   8.764   4.508   6.722 -3.7746  0.0728  3.8160
  387MOL0     H52225   8.588   4.259   6.710  0.3153  0.8235  0.0232
  387MOL0     H52226   8.554   4.424   6.652  2.1151  1.6620 -1.0631
  387MOL0     H52227   9.085   3.550   6.902  0.0517  5.4071  0.1043
  387MOL0     H52228   9.076   3.418   6.673 -0.3603  0.0164 -0.5370
  387MOL0     H52229   8.722   3.284   6.377 -0.2944 -2.4840 -0.1975
  387MOL0     H52230   8.623   3.194   6.167  0.6979 -1.2799 -0.9179
  387MOL0     H52231   9.035   4.844   5.728 -0.9313 -1.9985 -3.0404
  387MOL0     H52232   9.221   5.016   5.621  2.4393  1.0445  0.4584
  387MOL0     H52233   9.516   5.237   5.704 -0.0253 -2.9612  0.0210
  387MOL0     H52234   9.644   5.446   5.628  0.1538  0.4613 -0.9715
  387MOL0     H52235   9.796   5.589   5.462 -0.5274 -0.3140  0.3539
  387MOL0     H52236   9.816   5.580   5.637 -1.1611 -5.6295  0.1048
  387MOL0     H52237  10.029   5.678   5.630 -0.3745 -1.3336 -0.0211
  387MOL0     H52238   9.944   5.774   5.502 -0.7185  0.6779  0.4424
  387MOL0     H52239  10.045   5.605   5.330 -1.2529 -2.6384  0.8049
  387MOL0     H52240  10.150   5.544   5.454 -0.7155 -1.3771 -3.1537
  387MOL0     H52241  10.277   5.723   5.362  0.2381  1.3597 -1.1363
  387MOL0     H52242  10.229   5.779   5.520 -1.2817  0.5188  0.4249
  387MOL0     H52243  10.100   6.099   5.271 -2.0216  0.5197  0.6544
  387MOL0     H52244   9.972   5.188   5.516 -0.0576  1.4141 -1.7137
  387MOL0     H52245   9.837   4.991   5.560 -1.0098  0.0636 -1.1351
  388MOL0     O52246   6.782   2.389   7.302 -0.0297  0.3836  0.2090
  388MOL0     C52247   6.813   2.499   7.344 -0.3244 -0.6203 -0.1511
  388MOL0     O52248   6.730   2.581   7.414  0.0525  0.0909 -0.3956
  388MOL0     C52249   6.600   2.536   7.426 -0.0867  0.4428  0.0249
  388MOL0     C52250   6.505   2.568   7.332 -0.3312 -0.1414  0.1202
  388MOL0     C52251   6.376   2.541   7.356  0.3300 -0.9263 -0.1555
  388MOL0     C52252   6.327   2.480   7.471  0.5447 -0.3581 -0.7852
  388MOL0     O52253   6.189   2.460   7.502 -0.1747  0.3356  0.2649
  388MOL0     C52254   6.108   2.468   7.385  0.7770  0.1779 -0.5698
  388MOL0     C52255   5.976   2.376   7.419 -0.6537 -0.5271 -0.4337
  388MOL0     C52256   5.917   2.412   7.562 -0.2936  0.2174 -0.3841
  388MOL0     C52257   5.927   2.560   7.596  0.7718  0.2844  0.6583
  388MOL0     C52258   5.858   2.591   7.730  0.2961  0.3896  0.1294
  388MOL0     C52259   5.831   2.738   7.743 -0.1135  0.5105  0.1145
  388MOL0     C52260   5.746   2.760   7.864  0.0484 -0.7566  0.3695
  388MOL0     C52261   5.700   2.899   7.880 -0.4795 -0.2251  0.7757
  388MOL0     N52262   5.593   2.930   7.778  0.6558  0.4125 -0.0090
  388MOL0     C52263   5.465   2.879   7.779 -0.4783  0.7247  0.2524
  388MOL0     C52264   5.407   2.937   7.673 -0.0232 -0.2187 -0.9036
  388MOL0     C52265   5.265   2.917   7.622  0.1660  0.1280 -0.3114
  388MOL0     C52266   5.176   2.998   7.713 -0.1641 -0.1175 -0.1717
  388MOL0     C52267   5.030   3.002   7.674 -0.6348  1.6142  0.8860
  388MOL0     C52268   5.009   3.077   7.536 -0.2106 -0.3570 -0.1129
  388MOL0     O52269   4.871   3.087   7.489 -0.4977 -0.4028 -0.3619
  388MOL0     C52270   4.783   3.168   7.556  0.9171  0.5129 -0.2661
  388MOL0     C52271   4.645   3.136   7.524  0.2616 -0.0214 -0.4343
  388MOL0     C52272   4.532   3.201   7.584  0.3214 -0.1949 -0.7872
  388MOL0     C52273   4.402   3.142   7.552 -0.1048  0.2159  0.2984
  388MOL0     C52274   4.556   3.310   7.673  0.1878 -0.0021  0.3226
  388MOL0     C52275   4.448   3.390   7.744 -0.2577 -0.9587  0.5088
  388MOL0     O52276   4.491   3.478   7.833  0.5407 -0.1652 -0.7530
  388MOL0     C52277   4.404   3.584   7.876 -0.5273 -0.0853  0.8973
  388MOL0     C52278   4.314   3.660   7.794  0.4427  0.3580  0.2773
  388MOL0     C52279   4.246   3.768   7.845  0.2539 -0.3618 -0.7681
  388MOL0     C52280   4.247   3.801   7.984  0.2833 -0.1011  0.2256
  388MOL0     O52281   4.149   3.893   8.013 -0.1293  0.0674 -0.6181
  388MOL0     C52282   4.093   3.889   8.148 -0.4772  0.0778  0.7228
  388MOL0     C52283   3.964   3.971   8.146  0.7158 -0.2218  0.3381
  388MOL0     C52284   3.872   3.939   8.267  0.2814 -0.6366  0.1069
  388MOL0     C52285   3.743   4.024   8.251  0.6785 -0.2622  0.0523
  388MOL0     C52286   3.630   3.967   8.338 -0.2913  0.4194 -0.2701
  388MOL0     C52287   3.671   3.961   8.483 -0.4830 -0.4370  0.0209
  388MOL0     C52288   3.546   3.926   8.568 -0.8345 -0.0309  0.3073
  388MOL0     C52289   3.584   3.909   8.716  0.2500 -0.1899 -0.2970
  388MOL0    Cl52290   3.620   4.067   8.783 -0.0662 -0.0223  0.5752
  388MOL0     C52291   4.322   3.717   8.064 -0.5997 -0.1526 -0.5658
  388MOL0     C52292   4.413   3.615   8.015  0.6943 -1.0987  0.6765
  388MOL0     O52293   4.330   3.360   7.716 -0.4860 -0.4033 -0.0099
  388MOL0     C52294   4.694   3.343   7.705  0.2484  0.3099 -1.0425
  388MOL0     C52295   4.803   3.273   7.647 -0.4398  0.1751 -0.1521
  388MOL0     N52296   5.494   3.016   7.607 -1.0462 -0.1200  0.7757
  388MOL0     N52297   5.607   3.008   7.670  0.2651  0.9264  0.2486
  388MOL0     C52298   6.426   2.446   7.572  0.2962 -0.1683  0.3320
  388MOL0     C52299   6.563   2.474   7.543  1.2398  0.2684 -0.0693
  388MOL0     C52300   6.950   2.546   7.312  0.5453 -0.1828  0.3785
  388MOL0     C52301   7.054   2.454   7.312  0.0692 -0.1408 -0.0644
  388MOL0     C52302   7.186   2.509   7.307  0.5510  0.9392 -0.7547
  388MOL0     C52303   7.215   2.644   7.282 -0.3630  0.1789 -0.2205
  388MOL0     O52304   7.336   2.707   7.293 -0.1956 -1.1818  0.3031
  388MOL0     C52305   7.446   2.616   7.306 -0.4137  0.6522 -0.3938
  388MOL0     C52306   7.480   2.539   7.172  0.6573 -0.3924  0.5991
  388MOL0     C52307   7.599   2.450   7.190  0.3878 -0.5027 -1.0863
  388MOL0     C52308   7.594   2.324   7.106  0.5418 -0.3972 -0.0254
  388MOL0     C52309   7.497   2.229   7.171  0.6067 -0.3224  0.0549
  388MOL0     C52310   7.406   2.163   7.213 -0.0643 -0.9503 -0.5283
  388MOL0     C52311   7.104   2.728   7.271  0.3476  0.6310 -0.0843
  388MOL0     C52312   6.975   2.684   7.295 -0.4899  0.4207  0.7432
  388MOL0     H52313   6.523   2.636   7.249  0.4513  0.9046  1.1112
  388MOL0     H52314   6.303   2.589   7.292 -0.6339 -1.4935  0.4914
  388MOL0     H52315   6.097   2.576   7.372  2.8228  0.7198  1.4526
  388MOL0     H52316   6.158   2.427   7.297 -2.9495 -3.7701 -1.1895
  388MOL0     H52317   5.896   2.390   7.346 -0.1262 -1.0577 -1.1342
  388MOL0     H52318   6.002   2.270   7.420 -0.7249 -0.5414  0.5897
  388MOL0     H52319   5.816   2.372   7.577 -1.1416  2.2751 -0.2549
  388MOL0     H52320   5.968   2.350   7.636 -0.8992  0.2194  0.0403
  388MOL0     H52321   6.030   2.598   7.597  1.2569 -0.7614 -1.7490
  388MOL0     H52322   5.871   2.607   7.514  0.8221 -1.6974 -0.5891
  388MOL0     H52323   5.759   2.544   7.727 -0.4088  1.7822 -3.3204
  388MOL0     H52324   5.921   2.560   7.814  2.2216 -1.2007 -1.7886
  388MOL0     H52325   5.922   2.797   7.742  0.5408 -0.2839  3.0428
  388MOL0     H52326   5.774   2.763   7.653  0.6373 -0.9369 -0.8143
  388MOL0     H52327   5.657   2.696   7.869  0.1080 -0.9040 -0.2864
  388MOL0     H52328   5.810   2.731   7.948  1.1431 -0.0887 -0.2104
  388MOL0     H52329   5.784   2.969   7.875 -0.4293 -0.0037  3.3623
  388MOL0     H52330   5.657   2.910   7.980  1.7914 -3.2064  2.2001
  388MOL0     H52331   5.422   2.805   7.845  1.1218 -0.4008  0.0923
  388MOL0     H52332   5.267   2.953   7.518  1.0245  1.2400  0.0795
  388MOL0     H52333   5.245   2.810   7.610  3.5202 -0.5564 -0.7038
  388MOL0     H52334   5.217   3.100   7.707 -1.3589  0.6491  2.8982
  388MOL0     H52335   5.172   2.968   7.818 -1.4646  1.2937  0.2289
  388MOL0     H52336   4.967   3.042   7.754 -1.8836 -0.7974  1.1986
  388MOL0     H52337   5.009   2.897   7.651 -1.7870  1.0710  3.9029
  388MOL0     H52338   5.062   3.015   7.464 -1.8322 -1.2169 -0.6324
  388MOL0     H52339   5.049   3.179   7.536 -3.3642  1.0961 -3.0982
  388MOL0     H52340   4.625   3.045   7.468 -3.7874 -0.4148  1.3504
  388MOL0     H52341   4.399   3.047   7.498  0.9909 -1.2272  2.6149
  388MOL0     H52342   4.340   3.114   7.637 -1.5689 -2.2125 -1.4293
  388MOL0     H52343   4.357   3.226   7.499  1.2158  0.1489 -0.9893
  388MOL0     H52344   4.292   3.630   7.692 -1.8599 -0.0505  0.8294
  388MOL0     H52345   4.176   3.822   7.782 -1.0684 -1.7816 -0.5882
  388MOL0     H52346   4.080   3.783   8.174  1.3327 -0.2628  0.3872
  388MOL0     H52347   4.156   3.937   8.223  1.4977 -1.0352 -0.1510
  388MOL0     H52348   3.985   4.077   8.133 -0.4012  0.2396  1.9626
  388MOL0     H52349   3.914   3.937   8.055  0.5747 -2.3901  1.1582
  388MOL0     H52350   3.924   3.956   8.362  0.8953  0.5078 -0.4179
  388MOL0     H52351   3.840   3.836   8.251 -2.9145  0.2454 -0.0159
  388MOL0     H52352   3.767   4.129   8.269 -0.1007  0.1795 -1.4217
  388MOL0     H52353   3.703   4.016   8.150  1.9349  1.0469 -0.5789
  388MOL0     H52354   3.604   3.868   8.299  0.1775 -0.0920  0.6925
  388MOL0     H52355   3.543   4.030   8.318  0.0269  0.8925 -0.1833
  388MOL0     H52356   3.747   3.884   8.494  2.9012  2.7850  1.0783
  388MOL0     H52357   3.727   4.053   8.498 -2.1414  0.7649 -0.7816
  388MOL0     H52358   3.505   3.831   8.534  2.8425 -1.5848 -0.2689
  388MOL0     H52359   3.476   4.009   8.556 -0.6306  0.4153  2.0539
  388MOL0     H52360   3.656   3.830   8.739  0.0258 -1.4518 -3.4215
  388MOL0     H52361   3.490   3.873   8.759  1.5293 -1.2941  1.7885
  388MOL0     H52362   4.317   3.726   8.172  0.9794 -1.3088 -0.3666
  388MOL0     H52363   4.486   3.556   8.069  0.9178 -2.9932 -1.5173
  388MOL0     H52364   4.719   3.420   7.777  1.3861 -0.4527 -0.5881
  388MOL0     H52365   4.900   3.306   7.685 -0.5668  3.0269 -2.0366
  388MOL0     H52366   6.392   2.384   7.654 -2.0794  1.8532  1.0139
  388MOL0     H52367   6.633   2.436   7.617  0.8908 -2.2688 -0.9340
  388MOL0     H52368   7.034   2.348   7.315 -0.4649 -0.0102  2.3146
  388MOL0     H52369   7.261   2.431   7.302 -1.5320 -1.4708  1.9832
  388MOL0     H52370   7.529   2.668   7.356 -2.9868  3.1969  1.5082
  388MOL0     H52371   7.423   2.552   7.392 -3.0523 -0.0310 -1.5172
  388MOL0     H52372   7.525   2.606   7.098 -0.0766 -0.8655 -0.2874
  388MOL0     H52373   7.393   2.486   7.134 -2.3444  2.7245  2.5224
  388MOL0     H52374   7.614   2.431   7.297 -2.4554 -0.8304 -0.6595
  388MOL0     H52375   7.685   2.497   7.142  1.1234 -0.5006  0.1883
  388MOL0     H52376   7.691   2.276   7.087 -0.2126 -1.3294 -1.7650
  388MOL0     H52377   7.556   2.352   7.007  0.7990  2.7475  0.6520
  388MOL0     H52378   7.345   2.080   7.242 -1.4308 -0.1363 -0.9964
  388MOL0     H52379   7.114   2.834   7.249 -0.8129  1.1297  1.5997
  388MOL0     H52380   6.890   2.749   7.309 -0.7929 -0.0215  0.9880
  389MOL0     O52381   6.623   5.127   5.307  0.1493 -0.9638 -0.0932
  389MOL0     C52382   6.695   5.213   5.256 -0.1239  0.7798 -0.2798
  389MOL0     O52383   6.662   5.328   5.191  0.2186  0.1078 -0.3326
  389MOL0     C52384   6.522   5.342   5.171 -0.6489  0.5914 -1.1278
  389MOL0     C52385   6.437   5.238   5.122  0.9457 -0.4869  0.4050
  389MOL0     C52386   6.303   5.254   5.107  1.5046  0.0511  0.4905
  389MOL0     C52387   6.243   5.381   5.125 -0.3889  0.3456  0.1087
  389MOL0     O52388   6.110   5.414   5.101  0.1019 -0.3868 -1.1571
  389MOL0     C52389   6.009   5.319   5.102  0.1983  0.1128  0.5480
  389MOL0     C52390   5.890   5.404   5.063  0.4340 -0.0515 -0.7187
  389MOL0     C52391   5.876   5.457   4.923 -0.4364  0.3175 -0.3046
  389MOL0     C52392   5.757   5.558   4.931  0.5290 -0.4060 -0.1977
  389MOL0     C52393   5.711   5.595   4.789 -0.1251  0.0178  0.0745
  389MOL0     C52394   5.573   5.651   4.788  0.9670 -0.4311  0.8923
  389MOL0     C52395   5.516   5.675   4.641  1.3270  0.6893 -0.0529
  389MOL0     C52396   5.558   5.798   4.560 -0.2624  0.1549  0.3033
  389MOL0     N52397   5.520   5.910   4.643 -0.1145  0.1989 -0.7515
  389MOL0     C52398   5.612   5.980   4.719  0.1604 -0.2899 -0.2116
  389MOL0     C52399   5.547   6.094   4.765 -0.3624  0.8220  0.5022
  389MOL0     C52400   5.602   6.193   4.854 -0.2224  0.6778 -0.6491
  389MOL0     C52401   5.556   6.174   4.999 -0.6769  1.3402 -0.6985
  389MOL0     C52402   5.636   6.065   5.061 -0.1409  0.2494 -1.3168
  389MOL0     C52403   5.553   5.999   5.165  0.6243  0.2920 -0.3497
  389MOL0     O52404   5.516   6.082   5.275  0.1611  0.2394 -0.8774
  389MOL0     C52405   5.603   6.110   5.380  0.2227  0.0877 -0.4983
  389MOL0     C52406   5.570   6.224   5.448 -0.3753  0.6989 -0.3638
  389MOL0     C52407   5.651   6.279   5.553  0.4106  1.0600  0.3034
  389MOL0     C52408   5.597   6.396   5.637 -0.1854  0.9841 -0.1295
  389MOL0     C52409   5.767   6.203   5.584 -0.4110 -0.5769 -0.2064
  389MOL0     C52410   5.858   6.249   5.690  0.5635  0.5121 -0.0119
  389MOL0     O52411   5.998   6.223   5.665  0.4930 -0.3351 -0.1476
  389MOL0     C52412   6.092   6.276   5.739  0.7849 -0.1209 -1.0145
  389MOL0     C52413   6.085   6.396   5.818 -0.2581  0.9262  0.6395
  389MOL0     C52414   6.202   6.442   5.876  1.3776 -0.4879 -0.8022
  389MOL0     C52415   6.324   6.376   5.858  0.6780 -1.1480  0.4629
  389MOL0     O52416   6.439   6.434   5.908  0.2553 -0.7132 -0.8873
  389MOL0     C52417   6.449   6.404   6.046 -0.1570  0.1828  0.0320
  389MOL0     C52418   6.555   6.303   6.104 -0.0139 -0.0901 -0.2192
  389MOL0     C52419   6.682   6.310   6.015  0.3921  0.0549  0.3983
  389MOL0     C52420   6.788   6.200   6.045 -1.1332 -0.6883 -1.1402
  389MOL0     C52421   6.916   6.216   5.945  0.0259 -0.2956 -1.7166
  389MOL0     C52422   7.019   6.118   5.988  0.6639 -0.1353  0.1160
  389MOL0     C52423   6.994   5.978   5.914  0.0091 -0.6161 -0.6728
  389MOL0     C52424   7.097   5.870   5.940 -0.5718  0.5799 -0.9586
  389MOL0    Cl52425   7.262   5.904   5.886  0.5425 -0.0860  0.1779
  389MOL0     C52426   6.326   6.252   5.795  0.5395 -0.8151  0.9532
  389MOL0     C52427   6.209   6.207   5.731 -1.0998  0.2723  0.0046
  389MOL0     O52428   5.809   6.297   5.794  0.3371 -0.5968  0.8564
  389MOL0     C52429   5.809   6.089   5.510 -0.3310  0.9360 -0.1942
  389MOL0     C52430   5.722   6.038   5.403  0.2121 -0.3135  0.6511
  389MOL0     N52431   5.424   6.087   4.709  0.3441  0.0799 -0.1341
  389MOL0     N52432   5.404   5.987   4.624 -0.5900 -0.0223  0.3100
  389MOL0     C52433   6.331   5.479   5.175 -0.0850 -0.3783 -0.6743
  389MOL0     C52434   6.463   5.470   5.195 -1.4113 -0.0885  0.3305
  389MOL0     C52435   6.838   5.197   5.284  0.1312 -1.9127 -0.4130
  389MOL0     C52436   6.930   5.304   5.288  0.1199  0.1791  0.2093
  389MOL0     C52437   7.066   5.277   5.294 -1.0068  0.1528  0.5322
  389MOL0     C52438   7.120   5.154   5.290 -0.1630  0.3879 -0.3803
  389MOL0     O52439   7.257   5.145   5.268  0.5237  0.8405 -0.2353
  389MOL0     C52440   7.325   5.020   5.298 -0.4066  0.4712  0.1435
  389MOL0     C52441   7.346   4.940   5.166  0.4076  0.2805  0.1940
  389MOL0     C52442   7.481   4.882   5.139  0.6065  0.0938  0.2317
  389MOL0     C52443   7.506   4.749   5.222 -0.0572 -0.6331 -0.0139
  389MOL0     C52444   7.407   4.646   5.215  0.8293 -0.1227  0.4113
  389MOL0     C52445   7.321   4.570   5.229 -0.5481  0.0303  1.6809
  389MOL0     C52446   7.028   5.042   5.304 -0.1482  0.5133  0.6622
  389MOL0     C52447   6.889   5.063   5.294 -0.8830  0.2432  0.0123
  389MOL0     H52448   6.475   5.142   5.088  1.9441  0.0559 -0.0698
  389MOL0     H52449   6.241   5.168   5.086 -3.2067  2.8662  1.3413
  389MOL0     H52450   6.025   5.240   5.029  2.1997  0.6845  0.3080
  389MOL0     H52451   6.000   5.275   5.202 -1.7360  0.6189  0.6354
  389MOL0     H52452   5.806   5.343   5.097  1.8176 -0.0277  3.2286
  389MOL0     H52453   5.888   5.489   5.131 -0.0713  2.9720 -4.1841
  389MOL0     H52454   5.961   5.520   4.896 -2.5321  4.1728  1.2198
  389MOL0     H52455   5.863   5.370   4.858  1.3957  0.8270 -1.4157
  389MOL0     H52456   5.677   5.508   4.985 -0.0274  0.5130 -0.1585
  389MOL0     H52457   5.785   5.652   4.981 -1.3906  0.0566  0.0668
  389MOL0     H52458   5.780   5.675   4.763 -1.0704  2.0993  3.3278
  389MOL0     H52459   5.726   5.516   4.714 -3.8664  0.7775 -1.6873
  389MOL0     H52460   5.512   5.573   4.834  0.2333 -1.6751 -2.0128
  389MOL0     H52461   5.578   5.741   4.850  1.7957  0.0791  0.1078
  389MOL0     H52462   5.535   5.588   4.578  1.6392 -0.5610  1.6857
  389MOL0     H52463   5.408   5.682   4.657  1.3988 -2.3334  2.8888
  389MOL0     H52464   5.512   5.806   4.462 -1.2611 -1.6283  0.5956
  389MOL0     H52465   5.666   5.800   4.542 -0.5516 -1.0154 -1.9417
  389MOL0     H52466   5.718   5.956   4.726  1.1662  3.2046 -1.3594
  389MOL0     H52467   5.711   6.190   4.848 -0.0829 -0.4489  1.5638
  389MOL0     H52468   5.571   6.289   4.812  1.1705  1.0181 -0.9449
  389MOL0     H52469   5.452   6.143   4.996  0.3050 -2.5809  0.1380
  389MOL0     H52470   5.572   6.263   5.062 -0.7703  0.3291  0.7965
  389MOL0     H52471   5.723   6.115   5.104 -2.3312  3.5240 -0.2507
  389MOL0     H52472   5.658   5.987   4.988 -2.1964 -1.5434 -0.1584
  389MOL0     H52473   5.612   5.915   5.202  1.6441  1.9774  2.1904
  389MOL0     H52474   5.467   5.953   5.116  3.0045 -3.1783 -1.6580
  389MOL0     H52475   5.485   6.283   5.415 -1.4338  0.6568  2.0370
  389MOL0     H52476   5.500   6.424   5.595 -2.4078 -2.9336  1.8655
  389MOL0     H52477   5.578   6.358   5.738 -2.3651 -0.3478 -0.9881
  389MOL0     H52478   5.658   6.486   5.648 -1.6199  2.3392 -2.5736
  389MOL0     H52479   5.990   6.449   5.824  1.6407  4.6811  0.6400
  389MOL0     H52480   6.206   6.530   5.939 -0.2238 -0.5414 -0.5790
  389MOL0     H52481   6.477   6.505   6.077  2.9532 -1.3614  2.8728
  389MOL0     H52482   6.357   6.369   6.094  1.0424 -1.8501  1.0031
  389MOL0     H52483   6.587   6.320   6.208 -2.8833 -0.4046  0.7909
  389MOL0     H52484   6.511   6.204   6.091  0.5308 -0.4734  0.7671
  389MOL0     H52485   6.720   6.409   6.040 -2.7120  1.1743  1.2339
  389MOL0     H52486   6.665   6.305   5.907 -0.1633  3.5924  0.1957
  389MOL0     H52487   6.815   6.207   6.151  4.3328 -2.0688 -2.1553
  389MOL0     H52488   6.754   6.097   6.033 -1.9844 -0.3079 -2.1646
  389MOL0     H52489   6.961   6.314   5.962 -2.7941  1.2711 -2.6234
  389MOL0     H52490   6.888   6.205   5.840 -1.0577  1.5950 -1.6777
  389MOL0     H52491   7.107   6.158   5.937  1.3873 -1.1200  0.5552
  389MOL0     H52492   7.031   6.125   6.096 -1.4365 -1.2747  0.4879
  389MOL0     H52493   6.990   5.998   5.807  1.4393 -2.8336 -1.1899
  389MOL0     H52494   6.899   5.943   5.956  0.2946  0.6676  1.2159
  389MOL0     H52495   7.057   5.777   5.898 -1.0786  0.3604 -0.0294
  389MOL0     H52496   7.113   5.845   6.045 -0.6350 -0.4721 -1.1890
  389MOL0     H52497   6.422   6.201   5.800  2.6006  2.3795 -1.8241
  389MOL0     H52498   6.203   6.111   5.680 -1.3339  0.3582 -0.1271
  389MOL0     H52499   5.895   6.031   5.542 -1.8046 -2.6228 -2.0858
  389MOL0     H52500   5.746   5.941   5.358  6.3405  1.2349 -0.3630
  389MOL0     H52501   6.278   5.570   5.202 -0.8677 -1.0161 -0.0050
  389MOL0     H52502   6.517   5.558   5.226 -0.5946 -0.6409  0.5056
  389MOL0     H52503   6.903   5.408   5.288  0.5001  0.2913  1.4844
  389MOL0     H52504   7.141   5.354   5.303 -0.4218 -0.5748  2.2750
  389MOL0     H52505   7.429   5.045   5.318  0.1961 -0.4371 -1.6333
  389MOL0     H52506   7.292   4.955   5.380 -0.4120  0.2336 -0.0462
  389MOL0     H52507   7.330   5.020   5.093 -1.0388  4.3167  4.4130
  389MOL0     H52508   7.269   4.864   5.154  1.6771 -0.7455 -1.9211
  389MOL0     H52509   7.555   4.958   5.167 -0.1260  0.5264  1.0253
  389MOL0     H52510   7.493   4.856   5.033 -2.6785  2.6582 -0.9292
  389MOL0     H52511   7.524   4.786   5.324 -0.5526  2.0512 -0.8265
  389MOL0     H52512   7.602   4.711   5.184  0.1626 -0.2999  0.2018
  389MOL0     H52513   7.249   4.494   5.253 -3.9312  1.9920 -1.1971
  389MOL0     H52514   7.071   4.943   5.309 -2.2240 -0.7329 -2.7487
  389MOL0     H52515   6.829   4.973   5.293  0.6712 -0.9604  2.8484
  390MOL0     O52516   3.199   3.020   2.085 -0.2863  0.1834 -0.7121
  390MOL0     C52517   3.158   2.931   2.157  1.0897 -0.7337  0.2604
  390MOL0     O52518   3.231   2.832   2.206  0.3975 -0.6998  0.9311
  390MOL0     C52519   3.363   2.809   2.179  0.4125  0.4909  0.4857
  390MOL0     C52520   3.429   2.834   2.064 -0.1733  0.3019  0.7198
  390MOL0     C52521   3.567   2.797   2.055  0.3028 -0.1751 -0.5823
  390MOL0     C52522   3.639   2.739   2.159  0.8942  0.5323 -1.0721
  390MOL0     O52523   3.765   2.692   2.132  0.5669 -0.2060  0.4252
  390MOL0     C52524   3.861   2.700   2.233  0.1087 -0.2720 -0.4981
  390MOL0     C52525   3.895   2.846   2.263 -0.1162  0.5229  0.4821
  390MOL0     C52526   4.009   2.870   2.367  0.6653  0.1208  0.6261
  390MOL0     C52527   4.149   2.869   2.309 -0.0681  0.1284  0.9389
  390MOL0     C52528   4.247   2.968   2.381  0.1294  1.1043 -0.0149
  390MOL0     C52529   4.297   2.926   2.518 -0.3164  0.0679 -0.8940
  390MOL0     C52530   4.385   3.040   2.578 -0.2052 -0.6300  0.1918
  390MOL0     C52531   4.528   3.047   2.525 -0.2807 -0.2605  0.0351
  390MOL0     N52532   4.591   3.174   2.484 -0.0510 -0.3432 -0.4055
  390MOL0     C52533   4.683   3.177   2.383 -2.0090 -0.0490 -0.7013
  390MOL0     C52534   4.750   3.295   2.398  0.7507  0.0090 -0.7132
  390MOL0     C52535   4.857   3.366   2.310 -0.6278 -0.6753  0.6136
  390MOL0     C52536   4.806   3.489   2.229  1.0177 -0.6608  0.3949
  390MOL0     C52537   4.858   3.628   2.288  0.4278  0.0097  0.0249
  390MOL0     C52538   4.810   3.662   2.430  0.2180 -0.1074  0.6900
  390MOL0     O52539   4.672   3.720   2.432 -0.2839 -0.2473  0.1457
  390MOL0     C52540   4.649   3.818   2.518  0.1850  0.2231  0.1749
  390MOL0     C52541   4.540   3.898   2.487  0.9685  0.6968  0.0373
  390MOL0     C52542   4.505   4.010   2.572  0.1530 -0.5429 -0.5489
  390MOL0     C52543   4.397   4.101   2.533  0.8030  0.0757  0.0239
  390MOL0     C52544   4.577   4.034   2.697 -0.1640  0.8851  0.5351
  390MOL0     C52545   4.558   4.130   2.808  0.5999 -0.7900  1.2426
  390MOL0     O52546   4.652   4.147   2.903 -0.2568  0.6674 -0.2975
  390MOL0     C52547   4.655   4.259   2.980  0.0125 -1.0818  0.7983
  390MOL0     C52548   4.552   4.279   3.069 -0.0026 -0.4495 -1.1514
  390MOL0     C52549   4.553   4.388   3.157  0.3553 -0.0633 -0.3866
  390MOL0     C52550   4.655   4.483   3.149  0.1823 -0.0633  0.6364
  390MOL0     O52551   4.658   4.598   3.221  0.0701 -0.5452  1.3238
  390MOL0     C52552   4.546   4.668   3.282  0.2815  0.8602 -0.0252
  390MOL0     C52553   4.436   4.713   3.181  0.6886 -0.8742  0.8461
  390MOL0     C52554   4.320   4.781   3.263  0.3412 -0.9914  0.6970
  390MOL0     C52555   4.217   4.674   3.309 -0.1445  0.1647  0.0551
  390MOL0     C52556   4.109   4.747   3.381 -0.0230 -0.0404  0.2716
  390MOL0     C52557   3.997   4.646   3.417  0.1841  0.0500 -1.5039
  390MOL0     C52558   3.914   4.604   3.286  0.0041  0.4000 -0.6763
  390MOL0     C52559   3.842   4.715   3.218  1.1668  0.1752 -0.1342
  390MOL0    Cl52560   3.783   4.843   3.337  0.1287  0.2010  0.5670
  390MOL0     C52561   4.762   4.460   3.067  0.2647  0.4236  0.0469
  390MOL0     C52562   4.764   4.352   2.978  0.3807  0.0579 -0.0034
  390MOL0     O52563   4.455   4.196   2.807  0.6059  0.2805 -0.1982
  390MOL0     C52564   4.690   3.943   2.720 -0.6436  0.6340 -0.3171
  390MOL0     C52565   4.716   3.831   2.637 -0.8511 -1.1790  0.7601
  390MOL0     N52566   4.709   3.352   2.518 -0.2881  0.1566  0.4327
  390MOL0     N52567   4.609   3.278   2.573 -0.7246  0.0189 -0.3465
  390MOL0     C52568   3.572   2.731   2.279 -0.4393  0.3574  0.2105
  390MOL0     C52569   3.434   2.754   2.290  0.2725 -0.2688 -1.1946
  390MOL0     C52570   3.017   2.934   2.197  0.1929  0.3827 -0.6500
  390MOL0     C52571   2.973   2.858   2.302  0.5075 -0.3171 -0.4965
  390MOL0     C52572   2.836   2.839   2.328 -0.4860 -0.4726  0.2485
  390MOL0     C52573   2.751   2.924   2.251  0.1000  0.8606 -0.8560
  390MOL0     O52574   2.614   2.913   2.267  0.4929  0.2157 -0.0111
  390MOL0     C52575   2.553   2.832   2.369 -0.1147 -0.0735  0.5968
  390MOL0     C52576   2.538   2.687   2.344  1.0077  0.8773 -0.1355
  390MOL0     C52577   2.404   2.640   2.402  0.0528 -0.5584  1.0726
  390MOL0     C52578   2.381   2.490   2.403 -0.6258  0.0857 -0.4930
  390MOL0     C52579   2.259   2.460   2.475 -0.2034 -0.1632  0.2461
  390MOL0     C52580   2.147   2.437   2.536 -0.4706 -0.0058  0.1184
  390MOL0     C52581   2.795   3.014   2.156 -0.4521  0.3490 -0.6944
  390MOL0     C52582   2.925   3.022   2.133  0.2607  0.7343 -0.3490
  390MOL0     H52583   3.370   2.857   1.976 -1.5250 -3.2839  0.4960
  390MOL0     H52584   3.616   2.810   1.959 -2.5828 -3.6912 -2.8570
  390MOL0     H52585   3.829   2.642   2.320  2.2970 -2.4854 -1.0517
  390MOL0     H52586   3.950   2.641   2.208  0.6410  0.6533 -0.8549
  390MOL0     H52587   3.929   2.888   2.168 -0.8198  1.3809  0.6000
  390MOL0     H52588   3.804   2.899   2.293 -1.1465 -0.5383 -0.6439
  390MOL0     H52589   3.993   2.963   2.423 -0.9173 -0.9716  2.0976
  390MOL0     H52590   4.004   2.790   2.441  1.6269  2.2341  3.1503
  390MOL0     H52591   4.194   2.770   2.302 -0.1401  0.1419  0.2188
  390MOL0     H52592   4.150   2.893   2.202  0.1000 -1.3270  0.5974
  390MOL0     H52593   4.337   2.989   2.323  0.7096  1.1279  0.8610
  390MOL0     H52594   4.198   3.065   2.393 -1.5924  0.2391  0.1327
  390MOL0     H52595   4.219   2.888   2.584  1.4645 -1.6956  0.3615
  390MOL0     H52596   4.349   2.830   2.509 -0.6875 -0.7563  3.5147
  390MOL0     H52597   4.328   3.132   2.562  1.1495  0.2849  0.4858
  390MOL0     H52598   4.395   3.023   2.685  3.7959 -0.9292 -0.0863
  390MOL0     H52599   4.541   2.972   2.446 -1.1533 -0.8343  0.4239
  390MOL0     H52600   4.590   3.018   2.610  3.4525 -0.9194 -2.6835
  390MOL0     H52601   4.701   3.102   2.308  0.9036 -0.7907  0.5846
  390MOL0     H52602   4.936   3.396   2.378 -0.3729  1.0971 -0.4076
  390MOL0     H52603   4.898   3.290   2.243 -2.5443 -2.6350  1.5228
  390MOL0     H52604   4.698   3.477   2.241  1.2422 -1.6004  1.6370
  390MOL0     H52605   4.827   3.493   2.122 -1.0432  0.8711 -0.0152
  390MOL0     H52606   4.828   3.705   2.217  0.4330  0.8365  0.9011
  390MOL0     H52607   4.967   3.639   2.294  0.4730 -0.3352 -0.1028
  390MOL0     H52608   4.884   3.736   2.461 -2.4484  1.7421  3.1730
  390MOL0     H52609   4.811   3.579   2.501 -0.3698 -0.5020  0.2488
  390MOL0     H52610   4.484   3.871   2.399 -0.5606 -2.8172  1.9116
  390MOL0     H52611   4.406   4.198   2.584  5.1480 -0.9806  1.7253
  390MOL0     H52612   4.406   4.124   2.426  1.8346  0.5243  0.1863
  390MOL0     H52613   4.297   4.060   2.548 -0.2956  2.7246  0.5242
  390MOL0     H52614   4.466   4.214   3.078 -0.5646  0.5407  3.0005
  390MOL0     H52615   4.477   4.395   3.234  0.2601 -0.8799 -0.4000
  390MOL0     H52616   4.498   4.619   3.368  2.6449  0.1037  0.9371
  390MOL0     H52617   4.585   4.763   3.320 -0.6274  1.9651 -1.7426
  390MOL0     H52618   4.477   4.775   3.101  1.3983 -0.2368  1.6860
  390MOL0     H52619   4.406   4.621   3.130 -0.3940 -0.0364 -0.0817
  390MOL0     H52620   4.266   4.853   3.202 -1.6398 -1.1888  2.1106
  390MOL0     H52621   4.365   4.836   3.347  2.5646 -2.0056  0.2372
  390MOL0     H52622   4.172   4.611   3.232 -2.3698  0.8062  0.7623
  390MOL0     H52623   4.256   4.596   3.375 -3.1232 -2.5140 -1.0916
  390MOL0     H52624   4.060   4.833   3.334 -1.3940 -0.6923  0.4332
  390MOL0     H52625   4.165   4.771   3.472 -0.0285  0.1783  0.2196
  390MOL0     H52626   4.044   4.560   3.466 -3.4021 -0.3626  1.7045
  390MOL0     H52627   3.926   4.691   3.487  1.2595 -0.2839 -0.1537
  390MOL0     H52628   3.838   4.534   3.324  0.5618  0.8868  1.4315
  390MOL0     H52629   3.977   4.561   3.208  1.9428  2.2202 -0.1951
  390MOL0     H52630   3.762   4.685   3.150  0.7687 -1.0069  0.8187
  390MOL0     H52631   3.907   4.776   3.155  2.2391  1.2875  1.9192
  390MOL0     H52632   4.834   4.541   3.059 -1.3848  2.1415  1.6522
  390MOL0     H52633   4.846   4.322   2.913 -1.6575 -3.4744 -1.2066
  390MOL0     H52634   4.748   3.959   2.810  2.5974 -1.3512 -1.8346
  390MOL0     H52635   4.788   3.754   2.661 -2.0541 -3.4397 -2.1777
  390MOL0     H52636   3.639   2.696   2.357  0.0571  0.8328  0.0038
  390MOL0     H52637   3.384   2.737   2.385  2.0127 -1.1788 -0.3995
  390MOL0     H52638   3.030   2.800   2.374  1.6840 -1.3779 -2.2039
  390MOL0     H52639   2.794   2.774   2.405  0.6962  0.9640  2.1954
  390MOL0     H52640   2.601   2.845   2.466  2.5825 -0.6635 -0.5629
  390MOL0     H52641   2.452   2.873   2.371  0.7588  2.2710  0.6327
  390MOL0     H52642   2.618   2.630   2.392 -0.6931  1.2627  3.5395
  390MOL0     H52643   2.533   2.661   2.238 -0.2181 -2.3973  0.5835
  390MOL0     H52644   2.327   2.683   2.337  3.5280 -0.6621 -3.6592
  390MOL0     H52645   2.418   2.681   2.502  0.3390  0.8321  0.4911
  390MOL0     H52646   2.467   2.439   2.448 -0.2106  0.1442 -1.2064
  390MOL0     H52647   2.360   2.452   2.303 -1.8961 -1.7810  0.4212
  390MOL0     H52648   2.059   2.430   2.597 -0.1971  1.5747  0.7559
  390MOL0     H52649   2.726   3.078   2.104 -0.0303  1.7459  0.4135
  390MOL0     H52650   2.967   3.092   2.061 -1.0604  0.5938 -1.2975
  391MOL0     O52651  10.373   4.824  11.276 -0.0333  0.2834 -0.3702
  391MOL0     C52652  10.271   4.845  11.212  0.3348  0.2344 -0.8626
  391MOL0     O52653  10.243   4.966  11.171  0.3037  0.0801  0.0147
  391MOL0     C52654  10.231   4.987  11.038 -0.1374 -0.1417  0.3291
  391MOL0     C52655  10.195   5.116  11.001 -0.4020 -0.1751  0.6117
  391MOL0     C52656  10.179   5.149  10.870 -0.3899 -0.1478  0.1501
  391MOL0     C52657  10.222   5.057  10.766 -0.2711  0.0500  0.2861
  391MOL0     O52658  10.215   5.079  10.631 -0.1235  0.3170 -0.5312
  391MOL0     C52659  10.203   5.217  10.604 -0.2739 -0.1725 -0.1804
  391MOL0     C52660  10.245   5.225  10.444 -0.5298  0.1962  0.3254
  391MOL0     C52661  10.123   5.184  10.363 -0.2773  0.5342  0.0714
  391MOL0     C52662  10.017   5.295  10.355 -0.6330  0.5902  0.7083
  391MOL0     C52663   9.918   5.248  10.243  0.3442 -0.1277  0.3077
  391MOL0     C52664   9.822   5.363  10.224  0.9373  0.3381 -0.8004
  391MOL0     C52665   9.699   5.306  10.152  0.7619 -0.5793  0.8457
  391MOL0     C52666   9.594   5.422  10.152 -0.1498  0.8027  0.8368
  391MOL0     N52667   9.532   5.452  10.277 -0.6736 -0.8545 -0.3556
  391MOL0     C52668   9.440   5.380  10.338 -0.2056 -0.9301  0.0614
  391MOL0     C52669   9.414   5.444  10.451  0.3883 -0.1554 -1.0292
  391MOL0     C52670   9.313   5.414  10.553 -0.0432  0.2498  0.4107
  391MOL0     C52671   9.185   5.349  10.482 -0.0764 -0.9655 -1.0230
  391MOL0     C52672   9.062   5.345  10.567  0.6523  0.1121 -0.9897
  391MOL0     C52673   9.080   5.328  10.717 -0.5991  0.4967 -0.2397
  391MOL0     O52674   9.143   5.207  10.740 -0.4356  0.4247  0.0699
  391MOL0     C52675   9.061   5.108  10.770  0.7875  0.6197 -0.6048
  391MOL0     C52676   9.008   5.025  10.663  1.4951 -0.0635  0.1009
  391MOL0     C52677   8.915   4.927  10.695 -0.0481 -0.4772  0.1719
  391MOL0     C52678   8.856   4.843  10.579  0.2928  0.3160  0.1852
  391MOL0     C52679   8.877   4.901  10.831 -0.4875  0.0797 -0.2038
  391MOL0     C52680   8.768   4.813  10.875 -0.6255  0.9587 -0.8184
  391MOL0     O52681   8.778   4.767  11.007  0.0552 -0.5631  0.4296
  391MOL0     C52682   8.678   4.679  11.053 -0.0818 -0.8688  0.0543
  391MOL0     C52683   8.539   4.713  11.044  0.2333  0.2149 -0.1834
  391MOL0     C52684   8.445   4.625  11.093 -0.2985  0.8736 -0.1788
  391MOL0     C52685   8.482   4.509  11.165 -0.4240  0.5719 -1.0700
  391MOL0     O52686   8.382   4.424  11.212 -0.3733 -0.2948 -0.1947
  391MOL0     C52687   8.420   4.309  11.286  0.0807 -0.5925  0.5629
  391MOL0     C52688   8.293   4.249  11.332  0.0285 -0.2981  0.5155
  391MOL0     C52689   8.302   4.126  11.430  0.7659 -0.3758  0.0159
  391MOL0     C52690   8.380   4.023  11.350  0.6838 -0.3194 -0.8380
  391MOL0     C52691   8.405   3.908  11.442  0.1067 -0.9232  0.8217
  391MOL0     C52692   8.467   3.804  11.349 -0.5438 -0.2018  0.3454
  391MOL0     C52693   8.492   3.680  11.432  0.2545 -0.0728 -0.5340
  391MOL0     C52694   8.561   3.582  11.352 -0.1715  0.1943 -0.2811
  391MOL0    Cl52695   8.563   3.416  11.419  0.5562 -0.2141  0.2990
  391MOL0     C52696   8.621   4.479  11.185 -0.6985  0.6215 -0.1361
  391MOL0     C52697   8.718   4.561  11.125 -0.3959  0.8292 -0.0060
  391MOL0     O52698   8.682   4.784  10.801 -0.4478 -0.0216 -0.1605
  391MOL0     C52699   8.930   4.989  10.926  1.0871  0.0973 -1.2318
  391MOL0     C52700   9.015   5.091  10.897  0.1574  0.1392 -0.8602
  391MOL0     N52701   9.490   5.562  10.457 -0.1417  0.1775 -0.1517
  391MOL0     N52702   9.555   5.564  10.342  0.1859 -0.3691 -0.5078
  391MOL0     C52703  10.283   4.934  10.809 -0.8198 -0.0270 -0.5598
  391MOL0     C52704  10.271   4.892  10.937 -0.9518  0.2233 -0.6940
  391MOL0     C52705  10.189   4.733  11.185 -0.8837  0.1647  0.7106
  391MOL0     C52706  10.052   4.738  11.182 -0.6610 -0.3310 -0.6231
  391MOL0     C52707   9.968   4.628  11.171  0.2987 -0.4792  0.4520
  391MOL0     C52708  10.025   4.503  11.148 -0.3642 -0.3904  0.6624
  391MOL0     O52709   9.954   4.390  11.124 -0.2223 -0.3345 -0.2909
  391MOL0     C52710   9.836   4.375  11.211  0.4507  0.4091 -0.2176
  391MOL0     C52711   9.813   4.223  11.213 -0.4262 -0.3163 -0.2610
  391MOL0     C52712   9.743   4.157  11.331  0.7942  0.1847 -1.1822
  391MOL0     C52713   9.594   4.190  11.330 -1.0623  0.0695 -0.3788
  391MOL0     C52714   9.528   4.104  11.426 -0.5557 -0.9349 -0.4197
  391MOL0     C52715   9.448   4.033  11.484 -0.3735  0.1178 -0.6170
  391MOL0     C52716  10.159   4.490  11.147 -0.3084  0.3005 -0.2625
  391MOL0     C52717  10.239   4.608  11.168  0.2592 -0.1159  0.3433
  391MOL0     H52718  10.169   5.188  11.078 -1.8605 -0.3757  0.3362
  391MOL0     H52719  10.137   5.247  10.847 -1.4132 -0.7179 -0.4858
  391MOL0     H52720  10.098   5.245  10.619 -0.2655 -0.9844  1.6232
  391MOL0     H52721  10.269   5.275  10.670 -2.6326  1.4336  0.9287
  391MOL0     H52722  10.288   5.322  10.416  0.3553  0.0657  1.1867
  391MOL0     H52723  10.322   5.153  10.416 -1.2968 -0.5249  0.0306
  391MOL0     H52724  10.158   5.163  10.261  2.1556  1.2841  0.6878
  391MOL0     H52725  10.083   5.097  10.417 -0.8253  1.0756  0.5444
  391MOL0     H52726   9.972   5.312  10.453 -3.8723  0.6218 -0.6636
  391MOL0     H52727  10.063   5.385  10.314  1.4586 -0.8117 -0.2239
  391MOL0     H52728   9.954   5.215  10.145  2.8651 -2.4233  1.8754
  391MOL0     H52729   9.856   5.163  10.274 -0.6840  0.4282 -0.1635
  391MOL0     H52730   9.800   5.401  10.325 -0.7418 -1.4740 -0.4178
  391MOL0     H52731   9.871   5.442  10.167  0.1750  1.9999  0.7548
  391MOL0     H52732   9.727   5.282  10.049  0.8896  1.6030  0.3245
  391MOL0     H52733   9.666   5.217  10.207  0.3016  0.3476  2.1070
  391MOL0     H52734   9.516   5.392  10.082 -2.1652  2.9832  1.9926
  391MOL0     H52735   9.642   5.515  10.122  3.4928 -0.0540  3.3437
  391MOL0     H52736   9.402   5.281  10.318 -1.1530 -0.3598 -1.0428
  391MOL0     H52737   9.340   5.336  10.625 -0.5263 -2.5653 -2.2104
  391MOL0     H52738   9.285   5.511  10.594  1.2277  1.2430 -0.9838
  391MOL0     H52739   9.205   5.254  10.431  1.6312 -1.0696 -0.2271
  391MOL0     H52740   9.159   5.430  10.412 -1.7414 -0.4919  0.0783
  391MOL0     H52741   8.985   5.277  10.528 -2.4171  1.3000  2.4217
  391MOL0     H52742   9.010   5.441  10.567  0.3072 -0.0302  0.9855
  391MOL0     H52743   8.979   5.332  10.759  0.6146  0.0374  2.9918
  391MOL0     H52744   9.139   5.411  10.757 -0.2442  0.2376 -0.2221
  391MOL0     H52745   9.041   5.037  10.560 -1.3181  3.1726 -0.6243
  391MOL0     H52746   8.827   4.744  10.614  2.3579 -0.4188 -0.0250
  391MOL0     H52747   8.779   4.893  10.519 -1.0257 -3.3544 -1.5071
  391MOL0     H52748   8.932   4.804  10.510 -1.0509 -0.9930 -0.6093
  391MOL0     H52749   8.501   4.804  11.001  0.2152  0.9565  1.3399
  391MOL0     H52750   8.341   4.642  11.067 -0.2584  0.3512 -0.7142
  391MOL0     H52751   8.478   4.238  11.226 -0.2897  0.3901 -1.0071
  391MOL0     H52752   8.479   4.333  11.374  1.9434 -3.3608  0.1790
  391MOL0     H52753   8.246   4.330  11.388  3.0209  2.0027 -0.0915
  391MOL0     H52754   8.212   4.227  11.262 -1.8609  1.2028  2.1157
  391MOL0     H52755   8.208   4.090  11.472  0.6780  1.1341  1.1664
  391MOL0     H52756   8.356   4.167  11.515 -0.2329  1.5670 -0.2329
  391MOL0     H52757   8.322   3.999  11.261  0.4876 -0.6500 -0.6204
  391MOL0     H52758   8.475   4.068  11.319  0.3992  1.1353  0.2298
  391MOL0     H52759   8.302   3.885  11.471 -1.0016  0.0328 -1.9578
  391MOL0     H52760   8.464   3.929  11.532 -0.4834  1.4834  0.7222
  391MOL0     H52761   8.388   3.794  11.274  0.3093  1.4718 -0.8423
  391MOL0     H52762   8.565   3.836  11.311  0.1476 -1.1035  1.3369
  391MOL0     H52763   8.398   3.647  11.476 -0.5529  2.9010  0.2296
  391MOL0     H52764   8.559   3.700  11.516  2.2342 -1.9110 -1.5884
  391MOL0     H52765   8.666   3.609  11.333 -0.4532  2.0575  0.5919
  391MOL0     H52766   8.507   3.574  11.257 -0.1237 -0.8632 -0.2321
  391MOL0     H52767   8.646   4.386  11.235  0.9319  1.6579  1.0897
  391MOL0     H52768   8.824   4.538  11.135 -0.6768  0.3073  2.1210
  391MOL0     H52769   8.902   4.985  11.031  1.5906 -0.0328 -1.0958
  391MOL0     H52770   9.061   5.164  10.963  4.2596 -1.9657 -1.0606
  391MOL0     H52771  10.315   4.867  10.730 -1.3161 -1.7879  0.6857
  391MOL0     H52772  10.329   4.804  10.960  0.0904  1.1565  0.3931
  391MOL0     H52773   9.995   4.826  11.211 -1.1975 -1.0637  0.6379
  391MOL0     H52774   9.860   4.642  11.169  0.1966 -1.3145 -0.6059
  391MOL0     H52775   9.871   4.420  11.305  0.3062 -0.5649  0.3179
  391MOL0     H52776   9.744   4.426  11.182 -1.3637 -1.3457  2.0642
  391MOL0     H52777   9.909   4.170  11.209 -0.6146 -0.9102  2.0069
  391MOL0     H52778   9.765   4.183  11.123  1.5827 -0.0621 -1.5069
  391MOL0     H52779   9.788   4.204  11.419 -0.7755 -0.2057 -0.1204
  391MOL0     H52780   9.764   4.049  11.335  0.0877  0.0800 -0.0397
  391MOL0     H52781   9.549   4.169  11.232 -1.9875  2.7498 -0.6272
  391MOL0     H52782   9.577   4.294  11.358 -0.0457  0.1027  0.1770
  391MOL0     H52783   9.389   3.968  11.546  0.8217  0.1268  0.5915
  391MOL0     H52784  10.207   4.393  11.138  1.2087  1.1534 -1.9249
  391MOL0     H52785  10.347   4.595  11.165  0.0966 -1.6509 -0.9943
  392MOL0     O52786   5.295   0.377  11.024 -0.1570  0.1615  0.8710
  392MOL0     C52787   5.382   0.462  11.012  0.7206  1.0616  0.0884
  392MOL0     O52788   5.378   0.586  11.058 -0.6934  0.1879  0.4935
  392MOL0     C52789   5.290   0.626  11.150  0.5209  0.0355  0.3327
  392MOL0     C52790   5.311   0.604  11.286  0.2157 -0.0875 -0.2338
  392MOL0     C52791   5.210   0.647  11.383 -0.5241  0.5166 -0.9576
  392MOL0     C52792   5.086   0.698  11.336  0.0611 -1.0892 -0.5085
  392MOL0     O52793   5.004   0.725  11.436  0.7316 -0.0155 -0.1538
  392MOL0     C52794   4.864   0.682  11.442 -1.1181  0.3193 -0.0495
  392MOL0     C52795   4.779   0.754  11.550  0.4449 -0.8578  0.6701
  392MOL0     C52796   4.749   0.904  11.529 -1.0391  0.2763  0.1292
  392MOL0     C52797   4.870   0.990  11.568  0.2899  0.0531  0.9353
  392MOL0     C52798   4.845   1.137  11.544 -0.1668  0.0555 -0.6247
  392MOL0     C52799   4.955   1.228  11.611 -0.3030 -0.3567 -0.0271
  392MOL0     C52800   4.924   1.373  11.573  0.0725  0.1553  0.2285
  392MOL0     C52801   5.046   1.463  11.574 -0.4946 -0.0755 -0.2576
  392MOL0     N52802   5.149   1.427  11.678  0.3772  0.1437 -0.4581
  392MOL0     C52803   5.282   1.401  11.646  0.3557  0.0468  0.1246
  392MOL0     C52804   5.340   1.387  11.768 -0.1481 -0.8682 -0.3973
  392MOL0     C52805   5.483   1.351  11.794 -0.4207 -0.1029 -0.5173
  392MOL0     C52806   5.546   1.435  11.913  0.4199 -0.3295  0.3898
  392MOL0     C52807   5.497   1.391  12.060 -1.0264 -0.2574  0.5410
  392MOL0     C52808   5.607   1.403  12.162  0.3223 -0.1658  0.9357
  392MOL0     O52809   5.631   1.536  12.203  0.0109 -0.3905  0.0326
  392MOL0     C52810   5.734   1.549  12.294 -0.4358 -0.5705 -0.0916
  392MOL0     C52811   5.796   1.445  12.372  0.2641 -1.1018  0.0675
  392MOL0     C52812   5.898   1.478  12.471 -0.7454  0.0858 -0.1898
  392MOL0     C52813   5.963   1.362  12.546 -0.7565 -0.6468 -1.1755
  392MOL0     C52814   5.942   1.621  12.493  0.5229  0.3622 -0.6518
  392MOL0     C52815   6.061   1.670  12.573  0.2816 -0.4531  0.4633
  392MOL0     O52816   6.073   1.805  12.595  0.5619 -0.0977  0.5861
  392MOL0     C52817   6.162   1.847  12.692  0.6800 -0.7752  0.4068
  392MOL0     C52818   6.290   1.871  12.651 -0.1965 -0.0564 -0.3038
  392MOL0     C52819   6.380   1.927  12.737  0.0748  0.7361 -0.9830
  392MOL0     C52820   6.340   1.959  12.873  0.4340  0.2684  0.6804
  392MOL0     O52821   6.424   2.017  12.962 -1.1093  0.1054  0.1124
  392MOL0     C52822   6.529   1.925  13.012  0.2427 -0.7048  0.1520
  392MOL0     C52823   6.550   1.952  13.161  0.3570  0.5784  1.4172
  392MOL0     C52824   6.640   1.835  13.220 -0.2108 -0.4433  0.2527
  392MOL0     C52825   6.676   1.874  13.359 -0.4405  0.8733 -0.4972
  392MOL0     C52826   6.819   1.953  13.373 -0.3744  0.8666 -0.7694
  392MOL0     C52827   6.848   1.970  13.524 -0.4526  1.0861 -0.5159
  392MOL0     C52828   6.989   1.959  13.562  0.1403  1.0169  0.1646
  392MOL0     C52829   7.032   1.811  13.563  0.4782 -0.2513 -0.0190
  392MOL0    Cl52830   6.961   1.725  13.707  0.1150  0.2701  0.3979
  392MOL0     C52831   6.203   1.954  12.905 -0.6141 -0.1703 -0.1889
  392MOL0     C52832   6.120   1.885  12.827  0.2414 -0.3720  0.2023
  392MOL0     O52833   6.142   1.590  12.602  0.0827  0.5981 -0.0383
  392MOL0     C52834   5.872   1.713  12.417  0.4111 -0.4426  0.6126
  392MOL0     C52835   5.773   1.675  12.318 -0.0966 -0.0708 -0.4988
  392MOL0     N52836   5.242   1.390  11.862  0.1346  0.6189 -0.3542
  392MOL0     N52837   5.126   1.427  11.810  0.0348 -0.0237 -0.1849
  392MOL0     C52838   5.062   0.697  11.198  0.5840  0.2295  0.1790
  392MOL0     C52839   5.163   0.673  11.110  0.0114  1.3439 -0.7049
  392MOL0     C52840   5.501   0.421  10.940  0.2942 -0.2313  0.0700
  392MOL0     C52841   5.526   0.296  10.882  0.4246 -0.1186  0.3226
  392MOL0     C52842   5.644   0.270  10.814  0.7536 -0.1931  0.2522
  392MOL0     C52843   5.729   0.376  10.771  0.0119  0.1535 -0.2961
  392MOL0     O52844   5.836   0.377  10.692  0.2003  0.0072  0.2434
  392MOL0     C52845   5.894   0.257  10.642 -0.0833 -0.1978 -0.3412
  392MOL0     C52846   5.906   0.256  10.495  0.1880 -0.5126  0.1442
  392MOL0     C52847   5.781   0.320  10.424 -0.4523  0.1063 -0.4116
  392MOL0     C52848   5.787   0.314  10.269  0.6251 -0.0277 -0.5540
  392MOL0     C52849   5.902   0.375  10.203  0.7203  0.3342  0.6698
  392MOL0     C52850   6.011   0.427  10.165 -0.2141  1.6570  0.2810
  392MOL0     C52851   5.703   0.502  10.824  0.5553 -0.1298  0.4569
  392MOL0     C52852   5.597   0.522  10.911  0.7839 -0.2829  0.5132
  392MOL0     H52853   5.404   0.552  11.308 -1.5607 -3.2555  0.4297
  392MOL0     H52854   5.197   0.622  11.488 -0.1073  1.2732 -0.7208
  392MOL0     H52855   4.822   0.688  11.342  4.3905  1.7783 -2.6516
  392MOL0     H52856   4.875   0.575  11.466  1.0378  0.4773 -0.1850
  392MOL0     H52857   4.686   0.698  11.541  0.4448 -0.5041 -2.5277
  392MOL0     H52858   4.819   0.742  11.652 -1.0224  3.4182  1.9640
  392MOL0     H52859   4.733   0.926  11.423 -0.2996  1.5776  0.2558
  392MOL0     H52860   4.659   0.932  11.584  0.4692  0.6923  2.5663
  392MOL0     H52861   4.876   0.974  11.676 -0.6531  0.0874  0.9998
  392MOL0     H52862   4.966   0.961  11.525  0.8867  0.3113  2.0600
  392MOL0     H52863   4.832   1.162  11.438  1.2823 -2.0699 -1.3717
  392MOL0     H52864   4.747   1.168  11.582 -1.1124  0.8486 -3.4373
  392MOL0     H52865   4.963   1.236  11.720 -0.7458  0.7312 -0.0647
  392MOL0     H52866   5.055   1.198  11.577  0.6061  0.3069  1.8932
  392MOL0     H52867   4.879   1.387  11.474  2.9554 -0.6614 -1.3047
  392MOL0     H52868   4.847   1.411  11.640 -0.2211  0.6009 -0.3501
  392MOL0     H52869   5.029   1.570  11.575  1.5722  0.3026  0.9355
  392MOL0     H52870   5.087   1.442  11.474 -0.3570 -2.4757  0.2424
  392MOL0     H52871   5.339   1.385  11.555 -0.4730 -3.2222  0.0496
  392MOL0     H52872   5.497   1.245  11.814 -3.9547 -0.1876  2.6905
  392MOL0     H52873   5.533   1.370  11.699  1.9048 -3.1268 -0.0368
  392MOL0     H52874   5.517   1.540  11.899 -0.4431 -0.5313  0.5946
  392MOL0     H52875   5.655   1.443  11.919  0.3433  1.9295 -0.1789
  392MOL0     H52876   5.480   1.283  12.056 -0.5347 -0.3057 -1.2443
  392MOL0     H52877   5.401   1.442  12.078  0.5008  3.2017 -0.2123
  392MOL0     H52878   5.700   1.370  12.115 -0.2513  1.3286 -1.4147
  392MOL0     H52879   5.580   1.351  12.254 -1.7688 -1.1059 -0.1519
  392MOL0     H52880   5.759   1.344  12.358 -0.6925 -0.8678  0.7953
  392MOL0     H52881   5.944   1.367  12.654 -0.7554  2.3793 -1.2403
  392MOL0     H52882   5.923   1.265  12.515 -1.5867 -0.2814 -1.2646
  392MOL0     H52883   6.071   1.351  12.541 -0.7708 -1.2600 -0.4440
  392MOL0     H52884   6.324   1.857  12.549 -0.5531  2.9264 -0.9216
  392MOL0     H52885   6.483   1.929  12.705  0.6193 -2.9179  0.1088
  392MOL0     H52886   6.494   1.822  13.002  0.0786 -0.6220 -0.1641
  392MOL0     H52887   6.620   1.928  12.951 -1.0691  1.5425 -1.9311
  392MOL0     H52888   6.591   2.053  13.169 -4.7715  3.1378 -0.0118
  392MOL0     H52889   6.460   1.958  13.223  2.0944 -2.2157  4.5042
  392MOL0     H52890   6.722   1.807  13.153  2.0752  2.5634  1.5060
  392MOL0     H52891   6.580   1.744  13.223 -1.1690  0.1739 -0.0171
  392MOL0     H52892   6.598   1.938  13.401 -0.8389  0.7248 -0.9904
  392MOL0     H52893   6.685   1.784  13.421  3.2151  0.6695 -1.1089
  392MOL0     H52894   6.804   2.052  13.329 -0.4429  0.3117 -2.0385
  392MOL0     H52895   6.894   1.899  13.316 -1.2469 -0.2689 -0.8888
  392MOL0     H52896   6.804   2.062  13.564 -3.2073 -0.3490  0.0285
  392MOL0     H52897   6.794   1.893  13.581 -0.0138  2.1281  1.4059
  392MOL0     H52898   7.003   2.000  13.663 -2.0362 -1.3912  1.5806
  392MOL0     H52899   7.040   2.018  13.485 -2.1424  0.0314 -2.2683
  392MOL0     H52900   7.140   1.804  13.577  0.7189 -2.0443 -2.2043
  392MOL0     H52901   7.008   1.771  13.464  2.2904 -1.9631  0.1763
  392MOL0     H52902   6.173   2.003  12.997 -1.0584 -2.7008  1.1137
  392MOL0     H52903   6.013   1.878  12.845 -0.1111 -0.1326 -1.5527
  392MOL0     H52904   5.889   1.818  12.436 -0.3192 -0.3132  0.5698
  392MOL0     H52905   5.727   1.753  12.257  0.1453 -0.4146 -1.1384
  392MOL0     H52906   4.962   0.722  11.164  0.8104 -0.5742 -1.1446
  392MOL0     H52907   5.141   0.670  11.003 -1.6860 -0.5047 -0.3673
  392MOL0     H52908   5.445   0.225  10.893 -1.2670  1.4605 -1.1410
  392MOL0     H52909   5.661   0.168  10.781  1.3312  0.0045 -0.0755
  392MOL0     H52910   5.991   0.249  10.692 -0.6911  3.8202  1.9841
  392MOL0     H52911   5.826   0.173  10.659 -0.4795 -0.6726 -3.6355
  392MOL0     H52912   5.935   0.162  10.448 -1.9744 -0.9741 -0.3800
  392MOL0     H52913   5.993   0.321  10.485  0.5071 -0.6143  1.9589
  392MOL0     H52914   5.776   0.427  10.449 -3.7712 -0.4286  1.8330
  392MOL0     H52915   5.692   0.270  10.463  0.4103 -0.9372  0.3024
  392MOL0     H52916   5.702   0.376  10.238  1.6554  1.9533  0.4105
  392MOL0     H52917   5.771   0.218  10.220 -1.5958  0.5969 -1.1691
  392MOL0     H52918   6.109   0.451  10.129  0.0342  0.2632 -0.0319
  392MOL0     H52919   5.772   0.579  10.791  0.9631 -0.2248  1.0681
  392MOL0     H52920   5.597   0.624  10.949  4.5213  0.5782 -1.2974
  393MOL0     O52921  11.001   0.215   9.584  0.4814 -0.6886  0.6676
  393MOL0     C52922  11.062   0.278   9.663  0.7456  0.0394 -0.4166
  393MOL0     O52923  11.028   0.280   9.801 -0.1455  0.3753 -0.6504
  393MOL0     C52924  10.906   0.224   9.833  0.0225 -0.8354  0.9303
  393MOL0     C52925  10.900   0.089   9.851 -0.0042  1.4471 -0.6315
  393MOL0     C52926  10.787   0.028   9.909  1.4887  1.1255  0.7872
  393MOL0     C52927  10.670   0.098   9.922 -0.0166 -0.5067  1.0937
  393MOL0     O52928  10.545   0.046   9.948 -0.0040 -0.2712 -0.2534
  393MOL0     C52929  10.552  -0.053  10.055  0.3317  0.1293 -0.3725
  393MOL0     C52930  10.406  -0.084  10.096  0.1433 -0.5159  0.2047
  393MOL0     C52931  10.406  -0.157  10.228  0.1034  0.2310 -0.3175
  393MOL0     C52932  10.266  -0.169  10.290 -0.4626 -0.0433 -0.3481
  393MOL0     C52933  10.262  -0.264  10.416 -0.3088 -0.4155  0.3571
  393MOL0     C52934  10.339  -0.196  10.526 -0.1053 -0.5100  0.0514
  393MOL0     C52935  10.325  -0.287  10.646  0.5334 -0.8153 -0.2532
  393MOL0     C52936  10.421  -0.406  10.620  0.1366 -0.2791  0.4079
  393MOL0     N52937  10.440  -0.476  10.748  0.1034  0.2836 -0.4155
  393MOL0     C52938  10.507  -0.444  10.868 -0.7451 -0.4217 -0.0184
  393MOL0     C52939  10.449  -0.523  10.959 -0.5321  0.2656 -0.8490
  393MOL0     C52940  10.478  -0.524  11.102  0.0006  0.7891  0.2467
  393MOL0     C52941  10.454  -0.670  11.157  0.4914  0.0140 -0.1313
  393MOL0     C52942  10.306  -0.707  11.194 -0.1934  0.1241 -0.2846
  393MOL0     C52943  10.255  -0.618  11.303 -0.3243  0.1606 -0.7679
  393MOL0     O52944  10.117  -0.651  11.330  0.4443  0.0618  0.0396
  393MOL0     C52945  10.031  -0.555  11.395  0.1042  0.2793 -0.4769
  393MOL0     C52946  10.085  -0.474  11.502  0.6659  0.1235  0.1183
  393MOL0     C52947  10.006  -0.404  11.590 -0.9489  0.3399  0.5652
  393MOL0     C52948  10.087  -0.325  11.692  0.1017  0.4032 -0.7873
  393MOL0     C52949   9.866  -0.406  11.585 -0.8256 -0.1203  0.1626
  393MOL0     C52950   9.770  -0.344  11.689  0.3913  0.3109  0.5665
  393MOL0     O52951   9.636  -0.356  11.658  0.0769  0.3413  0.8988
  393MOL0     C52952   9.548  -0.329  11.759  0.2719 -0.2555 -0.3113
  393MOL0     C52953   9.488  -0.202  11.764 -0.9769 -0.6396  0.5857
  393MOL0     C52954   9.375  -0.179  11.841  0.4013  0.0744 -0.1618
  393MOL0     C52955   9.323  -0.276  11.926  0.8777  0.5239 -0.1134
  393MOL0     O52956   9.216  -0.247  12.005  0.0576  0.0626 -0.4184
  393MOL0     C52957   9.145  -0.367  12.042  0.9135  0.4099 -0.5191
  393MOL0     C52958   9.013  -0.328  12.109 -0.6765 -0.0350  0.5478
  393MOL0     C52959   8.919  -0.254  12.023 -0.3552  0.3923  0.4760
  393MOL0     C52960   8.782  -0.213  12.081 -0.3776 -0.6681  0.3056
  393MOL0     C52961   8.683  -0.318  12.107 -0.2255 -0.2929  0.3814
  393MOL0     C52962   8.545  -0.263  12.138 -0.6240 -0.4833  0.5343
  393MOL0     C52963   8.469  -0.347  12.242  0.2180 -0.3785 -0.4165
  393MOL0     C52964   8.332  -0.298  12.283 -0.3984 -0.6638  0.4766
  393MOL0    Cl52965   8.211  -0.291  12.146  0.1281  0.5480  0.5332
  393MOL0     C52966   9.389  -0.401  11.927 -0.4257  0.1708 -0.6226
  393MOL0     C52967   9.497  -0.429  11.839  1.0480  0.3319 -0.7526
  393MOL0     O52968   9.805  -0.291  11.792 -0.5744 -0.7723  0.0170
  393MOL0     C52969   9.814  -0.476  11.477 -0.1635  1.0407  0.6054
  393MOL0     C52970   9.887  -0.556  11.391 -0.2748 -0.6702 -0.6623
  393MOL0     N52971  10.362  -0.609  10.897  0.4021  0.2013 -0.1979
  393MOL0     N52972  10.350  -0.573  10.778 -0.2546 -0.0050  0.2326
  393MOL0     C52973  10.682   0.234   9.910 -0.3726 -0.4331 -0.6273
  393MOL0     C52974  10.796   0.302   9.876  0.3396  0.3866 -0.0352
  393MOL0     C52975  11.197   0.320   9.616  0.1609  0.2986 -0.6946
  393MOL0     C52976  11.219   0.346   9.480 -0.8478 -0.2925  0.0150
  393MOL0     C52977  11.345   0.397   9.436 -0.0349  0.3245 -0.3200
  393MOL0     C52978  11.452   0.416   9.525  0.0489 -0.5896  0.1251
  393MOL0     O52979  11.563   0.473   9.469 -0.0521  0.0451  0.0872
  393MOL0     C52980  11.673   0.491   9.556  0.3137 -0.4089 -0.5289
  393MOL0     C52981  11.784   0.568   9.476  0.7819 -0.5607  0.3300
  393MOL0     C52982  11.913   0.525   9.544  0.2713  0.6171  0.2834
  393MOL0     C52983  11.943   0.574   9.689 -0.4427 -0.7602 -0.5272
  393MOL0     C52984  12.084   0.567   9.718  0.4050 -0.6534 -0.4875
  393MOL0     C52985  12.205   0.570   9.748  0.6218 -0.3300 -0.2734
  393MOL0     C52986  11.421   0.386   9.665  0.8033 -0.1119  0.7995
  393MOL0     C52987  11.302   0.338   9.712  0.4437 -0.1450  0.6585
  393MOL0     H52988  10.989   0.027   9.838 -1.5654 -1.4013  1.2756
  393MOL0     H52989  10.797  -0.080   9.916  2.7102  0.9698 -1.9429
  393MOL0     H52990  10.599  -0.146  10.024  1.2053 -0.6229  2.8266
  393MOL0     H52991  10.609  -0.018  10.142  2.1972 -0.2143 -1.4301
  393MOL0     H52992  10.355   0.012  10.105 -0.8493 -0.7600 -2.0973
  393MOL0     H52993  10.361  -0.139  10.013  0.5903  1.7754 -1.6361
  393MOL0     H52994  10.443  -0.260  10.223 -1.6895 -0.4789  0.2300
  393MOL0     H52995  10.468  -0.108  10.304 -0.6859  1.5160 -0.4681
  393MOL0     H52996  10.220  -0.076  10.324 -2.1392 -1.4538  1.4717
  393MOL0     H52997  10.202  -0.211  10.213  1.3985 -0.8429 -1.5366
  393MOL0     H52998  10.155  -0.278  10.437 -0.0075 -0.1136  2.2438
  393MOL0     H52999  10.308  -0.358  10.382 -0.8846 -0.5498 -0.0762
  393MOL0     H53000  10.446  -0.187  10.506  0.1974  0.0057  1.7561
  393MOL0     H53001  10.297  -0.100  10.559  1.4440 -0.9296  3.7457
  393MOL0     H53002  10.361  -0.235  10.736  6.9944 -2.0641 -1.5637
  393MOL0     H53003  10.226  -0.332  10.649  0.6858 -1.6339 -3.7970
  393MOL0     H53004  10.520  -0.362  10.604  0.8649 -1.8635  0.3531
  393MOL0     H53005  10.397  -0.468  10.533  5.1904  2.0486 -3.1272
  393MOL0     H53006  10.579  -0.365  10.888 -1.2954 -0.0815  0.6973
  393MOL0     H53007  10.584  -0.499  11.113  0.1625  2.6709 -3.7527
  393MOL0     H53008  10.419  -0.445  11.150  0.3227  1.4853 -0.4633
  393MOL0     H53009  10.512  -0.673  11.249  1.9477  1.6203 -0.9471
  393MOL0     H53010  10.488  -0.741  11.082 -1.1347  0.1014 -0.9862
  393MOL0     H53011  10.304  -0.814  11.218  1.4214  0.4437  1.4556
  393MOL0     H53012  10.241  -0.695  11.107 -1.1612 -2.3494 -0.0019
  393MOL0     H53013  10.265  -0.512  11.279  1.1613  0.4619  1.0045
  393MOL0     H53014  10.317  -0.642  11.389  1.5921 -1.2524 -2.4585
  393MOL0     H53015  10.193  -0.483  11.510  0.5844 -1.4619 -0.2361
  393MOL0     H53016  10.093  -0.375  11.789  1.2728 -1.5684 -1.8146
  393MOL0     H53017  10.192  -0.311  11.664  1.1738  1.7638  3.2681
  393MOL0     H53018  10.047  -0.224  11.708 -0.0346  0.1470  0.6353
  393MOL0     H53019   9.521  -0.121  11.700 -3.4419  0.8515  1.0713
  393MOL0     H53020   9.333  -0.079  11.850 -0.1564 -0.2932  2.1149
  393MOL0     H53021   9.112  -0.421  11.953  0.3920  0.1176 -0.1533
  393MOL0     H53022   9.198  -0.424  12.120  0.5975  1.6058  0.6083
  393MOL0     H53023   8.969  -0.419  12.151  1.2477 -1.0563  0.4946
  393MOL0     H53024   9.037  -0.258  12.189  1.9776 -1.3160  1.0030
  393MOL0     H53025   8.892  -0.315  11.935 -2.3014  0.8818  0.6780
  393MOL0     H53026   8.970  -0.165  11.986  3.0277 -0.8163  1.8887
  393MOL0     H53027   8.795  -0.151  12.170  0.0746 -0.3939  0.0517
  393MOL0     H53028   8.740  -0.145  12.007 -4.0074 -2.6163  0.3794
  393MOL0     H53029   8.720  -0.378  12.191 -3.0225 -2.3939  0.2652
  393MOL0     H53030   8.673  -0.386  12.023  1.2076 -1.6573  1.2690
  393MOL0     H53031   8.556  -0.156  12.158  2.5952 -0.1970 -1.9939
  393MOL0     H53032   8.492  -0.267  12.042  1.1991 -1.6057 -0.4857
  393MOL0     H53033   8.534  -0.367  12.327  1.8800 -1.0424 -1.8049
  393MOL0     H53034   8.459  -0.448  12.204 -1.3629 -0.0397 -0.9898
  393MOL0     H53035   8.341  -0.199  12.328  2.1827 -1.0005  0.8926
  393MOL0     H53036   8.299  -0.367  12.360 -0.7817 -0.2859  0.6536
  393MOL0     H53037   9.350  -0.478  11.993 -3.5459  1.3539 -0.9182
  393MOL0     H53038   9.539  -0.528  11.831 -1.7545 -0.8439 -2.2939
  393MOL0     H53039   9.706  -0.482  11.484 -0.3153  2.1541 -0.4800
  393MOL0     H53040   9.825  -0.610  11.320 -1.1226  3.4990 -3.4918
  393MOL0     H53041  10.605   0.303   9.945 -1.0038 -0.1775 -2.4094
  393MOL0     H53042  10.795   0.410   9.879 -3.4252  0.4870 -0.2290
  393MOL0     H53043  11.147   0.324   9.402 -0.5579  2.1939 -1.0597
  393MOL0     H53044  11.358   0.413   9.330 -0.4369 -2.8062 -0.9468
  393MOL0     H53045  11.645   0.557   9.639  2.7069  0.6217 -0.4451
  393MOL0     H53046  11.713   0.400   9.602 -0.1951 -0.8020 -0.8591
  393MOL0     H53047  11.764   0.676   9.476 -2.2393 -0.9794 -2.2271
  393MOL0     H53048  11.793   0.529   9.374 -0.2443 -3.2711  1.2025
  393MOL0     H53049  11.993   0.568   9.483 -1.2395  2.9888 -0.1199
  393MOL0     H53050  11.921   0.416   9.539  0.1389  0.6853 -2.3993
  393MOL0     H53051  11.884   0.513   9.758 -0.0024  2.2384  2.7768
  393MOL0     H53052  11.909   0.676   9.708  2.7935 -0.0769  3.0385
  393MOL0     H53053  12.309   0.555   9.768  1.0309  0.4941 -1.6365
  393MOL0     H53054  11.491   0.411   9.745 -0.2453 -2.9455  2.7827
  393MOL0     H53055  11.282   0.324   9.818  1.5481 -1.5840  0.7121
  394MOL0     O53056   4.418  10.692   2.019 -0.2488 -0.2535  0.4723
  394MOL0     C53057   4.521  10.760   2.045 -0.4159  1.0061  0.0275
  394MOL0     O53058   4.526  10.902   2.043 -0.4374  0.2377  0.1192
  394MOL0     C53059   4.413  10.968   2.063  0.2020  0.0696  0.5747
  394MOL0     C53060   4.360  10.995   2.189 -0.1775  0.7255 -0.8261
  394MOL0     C53061   4.237  11.066   2.204 -0.0488  0.1529 -1.2741
  394MOL0     C53062   4.177  11.128   2.089 -0.4761  0.6675 -0.5803
  394MOL0     O53063   4.072  11.223   2.097  0.2348 -0.4470  0.1711
  394MOL0     C53064   3.975  11.196   2.203  0.0569 -1.4262  0.9102
  394MOL0     C53065   3.840  11.242   2.134  0.4091 -0.3615 -0.8851
  394MOL0     C53066   3.719  11.203   2.214 -0.1389  0.6409 -0.5191
  394MOL0     C53067   3.612  11.315   2.204 -0.1717  0.3489 -0.4313
  394MOL0     C53068   3.465  11.269   2.209 -0.8881 -0.3164 -0.5126
  394MOL0     C53069   3.376  11.389   2.198  0.6447  0.5243 -0.0060
  394MOL0     C53070   3.245  11.360   2.272  0.1576 -0.4230  0.2282
  394MOL0     C53071   3.156  11.279   2.181 -0.9395  0.1114 -0.9510
  394MOL0     N53072   3.026  11.246   2.249  0.5216  0.4574 -0.6664
  394MOL0     C53073   2.902  11.298   2.211  0.6370  0.0287  0.6527
  394MOL0     C53074   2.814  11.239   2.293  0.0360  0.4413  0.4841
  394MOL0     C53075   2.661  11.235   2.292  0.3455 -0.1332 -0.4826
  394MOL0     C53076   2.587  11.364   2.264 -0.4508 -0.3094 -0.1696
  394MOL0     C53077   2.568  11.397   2.116 -0.5733 -0.9937 -0.0338
  394MOL0     C53078   2.447  11.331   2.055  0.1967 -0.5336 -0.0612
  394MOL0     O53079   2.326  11.351   2.136  0.4677 -0.1342 -0.2788
  394MOL0     C53080   2.206  11.281   2.116 -0.2891 -0.4876  0.4789
  394MOL0     C53081   2.090  11.322   2.191  0.4725 -0.7459 -0.3716
  394MOL0     C53082   1.977  11.238   2.195 -0.2533  0.2094 -0.4696
  394MOL0     C53083   1.872  11.297   2.283  0.7832  0.2040  0.4413
  394MOL0     C53084   1.964  11.125   2.105  0.3540 -0.5457  0.2825
  394MOL0     C53085   1.849  11.032   2.097  0.1335 -0.5335  0.3988
  394MOL0     O53086   1.745  11.070   2.181 -0.5114 -0.0767 -0.4233
  394MOL0     C53087   1.623  11.018   2.160 -0.3910  0.5657  0.4046
  394MOL0     C53088   1.610  10.878   2.143 -0.1538 -0.1523  0.0596
  394MOL0     C53089   1.485  10.827   2.122  0.1637  0.2338 -1.4048
  394MOL0     C53090   1.361  10.909   2.122 -0.4029  0.9249 -0.4703
  394MOL0     O53091   1.233  10.860   2.106 -0.0293 -0.6065  0.0792
  394MOL0     C53092   1.227  10.732   2.033  0.8158  0.4830  0.6002
  394MOL0     C53093   1.081  10.685   2.040 -0.0753 -0.7054  0.9239
  394MOL0     C53094   1.070  10.530   2.025 -0.7752  0.8999  0.9255
  394MOL0     C53095   0.925  10.496   2.068  0.4847 -0.1016 -0.0273
  394MOL0     C53096   0.840  10.496   1.931  0.0981  0.1804 -1.2984
  394MOL0     C53097   0.700  10.430   1.939 -0.8983 -0.9818 -1.2821
  394MOL0     C53098   0.600  10.480   2.056  0.1643 -0.0032 -0.4529
  394MOL0     C53099   0.460  10.414   2.041 -0.0333 -0.2337 -0.0139
  394MOL0    Cl53100   0.362  10.472   1.902  0.3148 -0.4096  0.7005
  394MOL0     C53101   1.383  11.044   2.147  0.2275  0.6450  0.1409
  394MOL0     C53102   1.514  11.103   2.172 -0.0208  0.9455 -0.1884
  394MOL0     O53103   1.847  10.954   2.002 -0.4238 -0.3023  0.2279
  394MOL0     C53104   2.079  11.091   2.034 -0.6581 -0.5235  0.2676
  394MOL0     C53105   2.203  11.157   2.044 -0.3480 -0.8954  0.0816
  394MOL0     N53106   2.884  11.157   2.377 -0.5254  0.0218  0.6353
  394MOL0     N53107   3.013  11.160   2.350  0.2048 -0.2540  0.5721
  394MOL0     C53108   4.237  11.107   1.966 -0.1971 -0.1944 -0.5231
  394MOL0     C53109   4.347  11.020   1.952  0.4852  0.4470  0.2076
  394MOL0     C53110   4.645  10.683   2.043 -0.0641 -1.1816 -0.1328
  394MOL0     C53111   4.761  10.755   2.068 -0.7631  0.8637 -0.4332
  394MOL0     C53112   4.883  10.692   2.043 -0.3487 -0.0439  0.3076
  394MOL0     C53113   4.895  10.556   1.997  0.1462  0.1241 -0.4678
  394MOL0     O53114   5.015  10.504   1.973 -0.7828 -0.7862  0.1802
  394MOL0     C53115   5.032  10.362   1.984  0.2415 -0.0839  0.0585
  394MOL0     C53116   5.191  10.354   1.997  0.9513  0.0131 -0.3237
  394MOL0     C53117   5.259  10.417   2.121 -0.4983 -0.2163  0.0192
  394MOL0     C53118   5.400  10.464   2.096  1.1613 -0.3967 -0.2268
  394MOL0     C53119   5.490  10.350   2.100 -0.0038  0.5963 -0.5410
  394MOL0     C53120   5.580  10.272   2.097  0.1103  0.2709 -0.1574
  394MOL0     C53121   4.774  10.479   1.990 -0.3241 -0.1466 -0.0776
  394MOL0     C53122   4.651  10.550   2.014 -0.5120  0.6755  0.5565
  394MOL0     H53123   4.417  10.961   2.276 -0.1019 -0.0016 -1.1512
  394MOL0     H53124   4.210  11.083   2.308  0.2453 -2.4674 -0.6967
  394MOL0     H53125   3.962  11.091   2.232 -0.2473 -0.5306  4.5967
  394MOL0     H53126   3.989  11.255   2.294  0.5905 -1.8388  1.0996
  394MOL0     H53127   3.847  11.351   2.133 -0.2458 -0.3120 -0.5149
  394MOL0     H53128   3.838  11.197   2.034  0.9438 -0.4977 -0.8349
  394MOL0     H53129   3.676  11.106   2.186  0.9310  0.9024 -3.4274
  394MOL0     H53130   3.755  11.204   2.317  0.3091 -0.7729 -0.6420
  394MOL0     H53131   3.631  11.387   2.284  1.3077 -1.1505  0.6282
  394MOL0     H53132   3.635  11.372   2.113 -1.2060  0.7637 -0.4452
  394MOL0     H53133   3.441  11.198   2.129 -0.6741 -2.5382  1.2700
  394MOL0     H53134   3.444  11.213   2.301 -0.1616 -1.2632 -0.9068
  394MOL0     H53135   3.427  11.472   2.246  2.9144 -1.2669  0.8284
  394MOL0     H53136   3.346  11.414   2.096  0.2200  1.0287  0.2412
  394MOL0     H53137   3.258  11.311   2.369  0.6157 -3.2815 -1.1897
  394MOL0     H53138   3.188  11.454   2.269 -2.5495 -1.9595 -1.7321
  394MOL0     H53139   3.210  11.187   2.159 -2.7734 -0.7445 -2.0580
  394MOL0     H53140   3.146  11.329   2.084  1.2210 -0.6703 -1.6232
  394MOL0     H53141   2.870  11.361   2.129  1.0690 -0.5009  0.0667
  394MOL0     H53142   2.621  11.149   2.238 -3.3774 -1.1967  3.3740
  394MOL0     H53143   2.627  11.205   2.391  1.4131 -1.2444 -0.4293
  394MOL0     H53144   2.641  11.442   2.318  2.6591 -3.5418  1.8578
  394MOL0     H53145   2.484  11.359   2.302 -1.1580  2.7576 -1.3730
  394MOL0     H53146   2.657  11.400   2.052 -0.3397 -0.0993  0.3211
  394MOL0     H53147   2.528  11.498   2.111 -1.0484 -1.2183 -0.9768
  394MOL0     H53148   2.466  11.225   2.034 -0.6349 -0.2475 -2.5755
  394MOL0     H53149   2.427  11.369   1.955  0.9474  1.1015  0.3781
  394MOL0     H53150   2.090  11.413   2.250  1.8708 -2.3216  2.2633
  394MOL0     H53151   1.806  11.364   2.227  1.6522 -1.2585 -2.5180
  394MOL0     H53152   1.810  11.222   2.333 -1.3119  1.5449 -0.0114
  394MOL0     H53153   1.919  11.356   2.362 -0.9877  2.6531 -0.2313
  394MOL0     H53154   1.700  10.819   2.130 -0.7754 -1.3662  1.0787
  394MOL0     H53155   1.482  10.719   2.123  0.8585  0.2101 -1.1050
  394MOL0     H53156   1.256  10.745   1.928  1.3853 -0.1424  0.6730
  394MOL0     H53157   1.280  10.657   2.092 -0.4241  0.2451  1.4548
  394MOL0     H53158   1.051  10.720   2.139  0.2595  2.0334  0.1381
  394MOL0     H53159   1.030  10.740   1.960  0.2161 -1.2050  0.3907
  394MOL0     H53160   1.146  10.481   2.087 -0.6694  1.7189  1.4561
  394MOL0     H53161   1.084  10.508   1.918 -3.7218 -1.4878  0.9064
  394MOL0     H53162   0.932  10.392   2.102 -3.3255 -0.1211  1.2127
  394MOL0     H53163   0.876  10.553   2.148  0.7789  0.7226 -0.4185
  394MOL0     H53164   0.892  10.448   1.847  1.0625  0.6990 -1.0170
  394MOL0     H53165   0.823  10.600   1.903 -2.6082  0.4235  0.7956
  394MOL0     H53166   0.639  10.443   1.850 -2.3322 -1.4633 -0.4088
  394MOL0     H53167   0.705  10.324   1.967  0.1320 -0.7163 -0.3730
  394MOL0     H53168   0.591  10.589   2.058 -2.7011 -0.1708  0.5293
  394MOL0     H53169   0.633  10.459   2.159  0.2238  0.1947 -0.4308
  394MOL0     H53170   0.408  10.437   2.134 -1.1909  2.6876 -1.2544
  394MOL0     H53171   0.487  10.309   2.026  2.0720  0.3109 -0.3459
  394MOL0     H53172   1.287  11.094   2.146 -2.0106 -3.2421 -0.2871
  394MOL0     H53173   1.531  11.207   2.197  3.3281  0.4001  0.2853
  394MOL0     H53174   2.087  11.003   1.970 -0.2415  0.0088 -0.4325
  394MOL0     H53175   2.286  11.117   1.986  1.7028  0.9694  1.5471
  394MOL0     H53176   4.176  11.156   1.891 -1.1070 -0.9125 -0.2642
  394MOL0     H53177   4.386  10.996   1.853 -1.2590 -2.4904  0.1102
  394MOL0     H53178   4.751  10.857   2.104 -0.5292  0.4390  0.8889
  394MOL0     H53179   4.963  10.762   2.063 -3.6735  3.2549  4.1209
  394MOL0     H53180   4.993  10.317   2.076 -0.7957 -0.8119 -0.7166
  394MOL0     H53181   4.998  10.314   1.892 -0.9194  1.4501 -0.3517
  394MOL0     H53182   5.231  10.392   1.902  1.9530 -0.7737 -0.2423
  394MOL0     H53183   5.221  10.248   1.992  0.3363 -0.2357  0.9371
  394MOL0     H53184   5.259  10.351   2.209  0.7361  0.9393  0.9188
  394MOL0     H53185   5.208  10.510   2.148  0.4205 -0.0142  1.1275
  394MOL0     H53186   5.427  10.535   2.174 -0.7254 -0.0046  0.1261
  394MOL0     H53187   5.399  10.521   2.003  0.0854  2.0163  1.1823
  394MOL0     H53188   5.659  10.202   2.115 -0.1362  0.2027  0.6638
  394MOL0     H53189   4.767  10.373   1.968 -0.8395 -0.5488  1.8452
  394MOL0     H53190   4.560  10.492   2.009  1.1483 -2.5029  3.1368
  395MOL0     O53191   1.101   9.453   1.215  0.2379  0.1379  1.1541
  395MOL0     C53192   1.172   9.483   1.117 -0.8086  0.2274 -0.0312
  395MOL0     O53193   1.168   9.421   0.989 -0.7128  0.3374 -0.1752
  395MOL0     C53194   1.085   9.306   0.974  0.1207  0.5695  0.2959
  395MOL0     C53195   1.060   9.198   1.064  0.0950 -0.4592  0.0438
  395MOL0     C53196   0.981   9.085   1.028 -0.6561 -0.7385 -0.3699
  395MOL0     C53197   0.918   9.091   0.906 -0.4375  0.0216  0.1458
  395MOL0     O53198   0.827   8.997   0.861 -0.6186 -0.1121 -0.0817
  395MOL0     C53199   0.809   8.872   0.933 -0.0777 -0.2899 -0.1202
  395MOL0     C53200   0.744   8.766   0.838  0.4727 -0.6134 -0.2566
  395MOL0     C53201   0.600   8.803   0.793 -0.0400 -0.8641 -0.2079
  395MOL0     C53202   0.563   8.706   0.678 -0.0410  0.0161 -0.0823
  395MOL0     C53203   0.428   8.748   0.616  0.4026 -0.5551 -0.0151
  395MOL0     C53204   0.391   8.636   0.513  0.8561 -0.2524 -0.3243
  395MOL0     C53205   0.321   8.684   0.381  0.0933  0.2392 -1.0184
  395MOL0     C53206   0.261   8.592   0.291 -0.3235  0.0752  1.0579
  395MOL0     N53207   0.153   8.512   0.351  0.1822  0.1041  0.7418
  395MOL0     C53208   0.170   8.394   0.416 -0.4309 -0.8264  1.0498
  395MOL0     C53209   0.046   8.371   0.479  0.0113 -0.5019 -0.2606
  395MOL0     C53210  -0.021   8.249   0.524  0.1232  0.1817 -0.4635
  395MOL0     C53211  -0.082   8.156   0.421 -0.3052 -0.2141  0.4481
  395MOL0     C53212  -0.199   8.211   0.333 -0.1542 -0.2022 -0.6485
  395MOL0     C53213  -0.315   8.275   0.417 -0.0203  0.2682  0.2036
  395MOL0     O53214  -0.338   8.184   0.532 -0.0082 -0.6753 -0.7284
  395MOL0     C53215  -0.451   8.114   0.506  0.1628  0.7355  0.8047
  395MOL0     C53216  -0.506   8.074   0.374  0.3631 -0.7565  0.2757
  395MOL0     C53217  -0.623   7.995   0.360  0.1837 -0.1104 -0.0165
  395MOL0     C53218  -0.671   7.959   0.220 -0.7598  0.5196 -0.6669
  395MOL0     C53219  -0.688   7.952   0.478  0.3795  0.0526  0.7548
  395MOL0     C53220  -0.805   7.862   0.488  0.9070 -1.1372  0.3147
  395MOL0     O53221  -0.861   7.807   0.382 -0.1585  0.6126  0.3578
  395MOL0     C53222  -0.949   7.704   0.390  0.5835 -0.6215 -0.4333
  395MOL0     C53223  -0.893   7.591   0.340  0.0109 -0.8124  0.5804
  395MOL0     C53224  -0.964   7.468   0.345  0.0173 -1.3193  0.9957
  395MOL0     C53225  -1.093   7.466   0.399  1.1979 -0.4395 -0.1083
  395MOL0     O53226  -1.143   7.341   0.399  0.6695  0.2079 -0.1591
  395MOL0     C53227  -1.245   7.302   0.492  0.1167  0.0284  0.2486
  395MOL0     C53228  -1.196   7.166   0.558 -0.5403 -0.4912  1.4416
  395MOL0     C53229  -1.270   7.145   0.689  0.2711 -1.5395 -0.2271
  395MOL0     C53230  -1.425   7.169   0.691  0.5777 -0.1802  0.2947
  395MOL0     C53231  -1.469   7.219   0.826 -0.6378  0.5194 -0.6695
  395MOL0     C53232  -1.620   7.237   0.829 -0.4731  0.2771 -0.1430
  395MOL0     C53233  -1.684   7.330   0.736 -0.5528 -0.1047 -0.4259
  395MOL0     C53234  -1.637   7.478   0.751 -0.4407  0.0450  0.3340
  395MOL0    Cl53235  -1.748   7.589   0.673 -0.2073 -0.3711  0.0369
  395MOL0     C53236  -1.153   7.588   0.446  0.6802  1.0125 -0.1445
  395MOL0     C53237  -1.078   7.706   0.446 -0.7634  0.8070  0.2928
  395MOL0     O53238  -0.845   7.848   0.605  0.0064  0.1848 -0.0672
  395MOL0     C53239  -0.638   7.992   0.600 -0.6412 -0.4252  0.7088
  395MOL0     C53240  -0.519   8.068   0.612  0.5324 -1.0792  0.2262
  395MOL0     N53241  -0.030   8.488   0.457 -0.1633  0.1246 -0.2432
  395MOL0     N53242   0.041   8.572   0.395 -0.2442  0.0406 -0.0211
  395MOL0     C53243   0.946   9.192   0.810 -0.4145  0.0762  0.1055
  395MOL0     C53244   1.030   9.300   0.844 -0.9479 -0.0425  0.4085
  395MOL0     C53245   1.281   9.585   1.120 -0.3274  0.6453  1.1654
  395MOL0     C53246   1.324   9.664   1.006  0.1090  0.2790 -0.6322
  395MOL0     C53247   1.420   9.763   1.020 -0.2562 -0.8401 -0.7165
  395MOL0     C53248   1.472   9.794   1.147  0.4367 -0.0570  0.8381
  395MOL0     O53249   1.569   9.874   1.187 -0.2217  0.6881  0.1810
  395MOL0     C53250   1.604   9.974   1.090  0.2363  0.4611  0.9393
  395MOL0     C53251   1.500  10.084   1.064  0.7191  0.2318 -0.0965
  395MOL0     C53252   1.547  10.207   0.993  0.5417 -0.3046  0.2971
  395MOL0     C53253   1.614  10.299   1.093  0.4153 -0.0282 -0.5165
  395MOL0     C53254   1.721  10.381   1.034  0.2930 -0.1419  0.0059
  395MOL0     C53255   1.802  10.441   0.965  0.3961 -1.0049  0.4603
  395MOL0     C53256   1.440   9.707   1.255 -0.5888 -1.3119  0.5153
  395MOL0     C53257   1.352   9.603   1.236 -0.0661 -0.6590 -0.0803
  395MOL0     H53258   1.102   9.195   1.164  0.7289 -3.1889 -0.2400
  395MOL0     H53259   0.971   9.006   1.102 -0.8424 -0.5285 -0.1671
  395MOL0     H53260   0.910   8.839   0.959  0.1397  0.1250 -0.4117
  395MOL0     H53261   0.749   8.895   1.022  0.6668  2.3528 -0.2000
  395MOL0     H53262   0.799   8.756   0.745  0.6763 -3.0906  0.0730
  395MOL0     H53263   0.738   8.664   0.878  0.3664 -1.3926 -2.1385
  395MOL0     H53264   0.527   8.812   0.874 -2.1928 -0.3032 -2.1022
  395MOL0     H53265   0.601   8.902   0.747 -0.9435 -0.5563  0.4054
  395MOL0     H53266   0.634   8.724   0.597 -1.6075  1.5378 -1.2097
  395MOL0     H53267   0.557   8.603   0.713  0.2383  0.3211  0.8801
  395MOL0     H53268   0.349   8.751   0.692 -0.5768 -4.0982 -0.6922
  395MOL0     H53269   0.435   8.847   0.570  1.1050  0.6406  2.4676
  395MOL0     H53270   0.480   8.578   0.485  0.4671 -0.6681 -0.7281
  395MOL0     H53271   0.323   8.564   0.559  1.2752 -1.3755 -1.3838
  395MOL0     H53272   0.236   8.747   0.410 -0.7926 -1.4699  0.3272
  395MOL0     H53273   0.399   8.741   0.331  2.1103  0.5272  2.1963
  395MOL0     H53274   0.346   8.532   0.258  0.8974  1.8378  0.8821
  395MOL0     H53275   0.214   8.644   0.207  2.5327 -0.6565 -1.1379
  395MOL0     H53276   0.250   8.321   0.407  0.9596  0.8537 -1.4518
  395MOL0     H53277   0.051   8.188   0.578 -2.8852 -0.6218  3.0726
  395MOL0     H53278  -0.105   8.284   0.585  0.9976  2.6761 -0.5887
  395MOL0     H53279  -0.102   8.060   0.469 -0.8118  0.8419  2.4965
  395MOL0     H53280  -0.001   8.131   0.352  1.2558  1.9594  1.3585
  395MOL0     H53281  -0.238   8.124   0.280 -0.4186  0.9814 -2.5231
  395MOL0     H53282  -0.158   8.281   0.259 -0.5243  0.8203  0.0965
  395MOL0     H53283  -0.398   8.282   0.347  0.6284 -0.9439 -0.7141
  395MOL0     H53284  -0.295   8.376   0.454 -2.4685  0.3415  1.5268
  395MOL0     H53285  -0.452   8.090   0.282  0.3674 -1.8353  0.0888
  395MOL0     H53286  -0.766   8.009   0.200 -0.0171  1.8710 -0.8703
  395MOL0     H53287  -0.606   7.983   0.136  1.1078 -1.7972 -0.0038
  395MOL0     H53288  -0.693   7.851   0.220 -6.1815  1.3486 -0.0797
  395MOL0     H53289  -0.800   7.587   0.284  0.6632  0.1979  1.5328
  395MOL0     H53290  -0.911   7.377   0.319 -0.1881 -1.2821  0.4421
  395MOL0     H53291  -1.261   7.369   0.577  1.8281  4.8875 -2.8550
  395MOL0     H53292  -1.345   7.288   0.451  1.0914 -0.7467 -1.9984
  395MOL0     H53293  -1.222   7.078   0.499 -1.4059 -0.0654  1.1758
  395MOL0     H53294  -1.088   7.179   0.574 -0.3110 -0.4994  0.0044
  395MOL0     H53295  -1.235   7.218   0.763  0.7081 -3.9432  2.0898
  395MOL0     H53296  -1.262   7.043   0.728 -1.4364 -1.2051  1.1519
  395MOL0     H53297  -1.463   7.242   0.619  0.6798  2.2710  2.5754
  395MOL0     H53298  -1.468   7.071   0.669 -0.4001  0.0238  1.1991
  395MOL0     H53299  -1.431   7.321   0.836 -3.3767  1.4484  1.7846
  395MOL0     H53300  -1.426   7.153   0.902  1.0762  0.9372 -1.2161
  395MOL0     H53301  -1.672   7.141   0.813  1.9379 -1.0340 -0.5309
  395MOL0     H53302  -1.638   7.275   0.930 -1.5440  2.5389 -1.1104
  395MOL0     H53303  -1.792   7.315   0.749 -0.4662 -0.8539 -0.5047
  395MOL0     H53304  -1.660   7.315   0.630  3.3158  0.4488  0.2179
  395MOL0     H53305  -1.538   7.489   0.704 -1.5516  3.1535 -1.5999
  395MOL0     H53306  -1.614   7.495   0.857 -1.9707  0.2612  0.6555
  395MOL0     H53307  -1.242   7.579   0.507  0.1919  2.6195 -0.5610
  395MOL0     H53308  -1.119   7.798   0.487  1.4991  2.2855 -0.5411
  395MOL0     H53309  -0.685   7.973   0.696  0.3595 -3.0056  0.7732
  395MOL0     H53310  -0.487   8.090   0.713  0.7373 -2.3430  0.4505
  395MOL0     H53311   0.915   9.188   0.706  3.7392  1.4497 -1.3775
  395MOL0     H53312   1.060   9.366   0.763 -1.2933 -2.8877 -2.2105
  395MOL0     H53313   1.284   9.644   0.907 -0.2250 -0.1404 -0.4164
  395MOL0     H53314   1.452   9.817   0.932 -0.6536  0.5079 -0.0473
  395MOL0     H53315   1.690  10.025   1.133 -0.5667  1.2570  1.6431
  395MOL0     H53316   1.638   9.943   0.990 -0.1811  4.0908 -0.4930
  395MOL0     H53317   1.469  10.105   1.167  2.2269 -1.8241  0.8465
  395MOL0     H53318   1.404  10.051   1.022  0.9184 -1.5003  0.7177
  395MOL0     H53319   1.462  10.266   0.958  1.4690 -0.2607 -2.0695
  395MOL0     H53320   1.608  10.183   0.905  2.1199  1.4382  0.8553
  395MOL0     H53321   1.665  10.234   1.164  3.1997  1.4841 -0.9815
  395MOL0     H53322   1.538  10.363   1.140  2.2234  1.7842  0.0800
  395MOL0     H53323   1.858  10.499   0.894  1.4709 -3.5323 -0.9101
  395MOL0     H53324   1.501   9.722   1.343 -0.4779  1.6728  0.0475
  395MOL0     H53325   1.331   9.547   1.327  2.5101 -0.5954  0.6097
  396MOL0     O53326   1.749   4.425  10.310  0.7972 -0.0912  0.0440
  396MOL0     C53327   1.812   4.328  10.265 -0.2458 -0.1461 -0.4055
  396MOL0     O53328   1.808   4.284  10.142  0.2080  0.4355  0.3534
  396MOL0     C53329   1.732   4.356  10.041  0.2562 -0.7463  1.7347
  396MOL0     C53330   1.595   4.332  10.010 -0.6221  0.1317  1.2567
  396MOL0     C53331   1.532   4.413   9.913  0.1891  0.9555 -0.0613
  396MOL0     C53332   1.602   4.519   9.852 -0.4000 -0.0457  0.0188
  396MOL0     O53333   1.539   4.598   9.765  0.7895  0.2533  0.6967
  396MOL0     C53334   1.572   4.590   9.625 -0.2750  0.9012  0.6106
  396MOL0     C53335   1.543   4.717   9.555 -0.5788 -0.8893  0.2271
  396MOL0     C53336   1.400   4.758   9.557 -1.7864 -0.2406 -0.1692
  396MOL0     C53337   1.365   4.884   9.478  0.0980 -0.6643  0.5681
  396MOL0     C53338   1.216   4.916   9.484 -0.6676 -0.7354  0.2769
  396MOL0     C53339   1.132   4.805   9.414 -0.2853  0.2383  0.0020
  396MOL0     C53340   1.000   4.867   9.385  0.0546 -0.2322  0.9674
  396MOL0     C53341   0.923   4.943   9.493  0.4296 -0.2179  0.1400
  396MOL0     N53342   0.970   5.082   9.492  0.2616  0.4795 -0.0175
  396MOL0     C53343   0.957   5.180   9.393  0.9225 -1.2581  0.3174
  396MOL0     C53344   1.017   5.286   9.458  0.2005 -0.5107  1.2212
  396MOL0     C53345   1.034   5.419   9.393 -0.0523  0.3445  0.1133
  396MOL0     C53346   0.913   5.504   9.328  0.0729  0.1493 -0.1661
  396MOL0     C53347   0.947   5.630   9.240 -0.0940 -0.1507 -0.4023
  396MOL0     C53348   0.984   5.602   9.091 -0.4842  0.7464  0.9193
  396MOL0     O53349   0.886   5.514   9.022  0.0157 -0.6826 -0.0210
  396MOL0     C53350   0.766   5.568   8.985 -0.3385 -0.2375 -1.3127
  396MOL0     C53351   0.738   5.708   8.999  0.0317  0.5532  0.2075
  396MOL0     C53352   0.618   5.759   8.954 -0.1338 -0.2776  0.1259
  396MOL0     C53353   0.600   5.911   8.972 -0.6704 -0.8179  1.1468
  396MOL0     C53354   0.519   5.678   8.902 -0.0499 -0.2301  1.4533
  396MOL0     C53355   0.398   5.726   8.832  1.1840  0.1008  0.1055
  396MOL0     O53356   0.369   5.655   8.724  0.6531 -0.0126 -0.5247
  396MOL0     C53357   0.273   5.692   8.628  0.4593  0.0214 -0.8596
  396MOL0     C53358   0.179   5.598   8.592  0.6499  0.3340  0.0496
  396MOL0     C53359   0.099   5.602   8.484 -0.3313 -0.5538  0.0990
  396MOL0     C53360   0.098   5.717   8.410 -0.9286  0.0827  0.2792
  396MOL0     O53361   0.002   5.732   8.315 -0.1453 -0.4519  0.9042
  396MOL0     C53362  -0.068   5.864   8.295  0.4087  0.4259 -1.3176
  396MOL0     C53363  -0.162   5.859   8.176 -0.2485  0.4053 -0.3468
  396MOL0     C53364  -0.077   5.848   8.041  0.0577 -0.6612 -0.5691
  396MOL0     C53365  -0.168   5.865   7.919 -1.4788 -0.4766 -0.1733
  396MOL0     C53366  -0.294   5.778   7.923 -0.4134 -0.4047 -0.0774
  396MOL0     C53367  -0.368   5.749   7.787 -0.2066 -0.1220  0.7506
  396MOL0     C53368  -0.424   5.882   7.729  0.0057 -0.6071  0.6403
  396MOL0     C53369  -0.537   5.856   7.638 -0.7899  0.8843 -0.3329
  396MOL0    Cl53370  -0.510   5.757   7.495 -0.2999 -0.0290  0.4426
  396MOL0     C53371   0.187   5.823   8.447 -0.9018  0.1476 -0.0314
  396MOL0     C53372   0.283   5.808   8.550  0.4170  0.4181  0.7470
  396MOL0     O53373   0.321   5.806   8.890  0.3020  0.0809  0.5936
  396MOL0     C53374   0.545   5.539   8.896 -0.0635 -0.9704  0.2321
  396MOL0     C53375   0.662   5.486   8.942 -0.0557 -0.2454  0.0199
  396MOL0     N53376   1.048   5.258   9.592  0.2451  0.4323  0.3649
  396MOL0     N53377   1.017   5.137   9.611  0.7804  0.3983  0.1430
  396MOL0     C53378   1.738   4.545   9.877  0.3320 -0.3552 -0.5477
  396MOL0     C53379   1.800   4.460   9.970 -0.2712 -0.5946 -0.0592
  396MOL0     C53380   1.911   4.277  10.369 -0.7433  1.3508 -0.4732
  396MOL0     C53381   2.007   4.178  10.322  0.7706 -0.3154 -0.0696
  396MOL0     C53382   2.113   4.141  10.402 -1.0920  0.0545  1.1052
  396MOL0     C53383   2.133   4.183  10.535 -0.8830 -0.1547  0.1783
  396MOL0     O53384   2.238   4.155  10.620 -0.0242  0.9571 -0.7594
  396MOL0     C53385   2.346   4.063  10.582 -0.3062  1.7775  0.0185
  396MOL0     C53386   2.438   4.040  10.708  0.2430 -0.2352 -0.2051
  396MOL0     C53387   2.555   3.940  10.698 -1.0858  0.6058  0.2589
  396MOL0     C53388   2.667   3.971  10.804  0.1579 -0.3224  0.2669
  396MOL0     C53389   2.679   3.857  10.895  1.3160  1.4720  0.1392
  396MOL0     C53390   2.686   3.766  10.978 -0.4032  0.1112  0.2908
  396MOL0     C53391   2.039   4.280  10.577 -0.0562 -0.8399  0.6422
  396MOL0     C53392   1.928   4.325  10.498  0.5779  0.5317  0.5813
  396MOL0     H53393   1.532   4.258  10.058  1.3146 -3.3901 -1.1799
  396MOL0     H53394   1.428   4.395   9.885  0.5715 -1.5929 -0.0459
  396MOL0     H53395   1.677   4.568   9.602 -0.6520  0.7192 -1.0631
  396MOL0     H53396   1.514   4.513   9.573  2.5590 -0.0871 -1.3504
  396MOL0     H53397   1.605   4.794   9.601 -1.1556  0.6263 -1.4515
  396MOL0     H53398   1.571   4.715   9.450 -0.7401  1.4097  0.1010
  396MOL0     H53399   1.341   4.674   9.520 -2.3193  0.9313 -2.1435
  396MOL0     H53400   1.399   4.776   9.664  1.9803  0.0716 -0.0517
  396MOL0     H53401   1.419   4.967   9.525  0.7310  0.0682 -1.3635
  396MOL0     H53402   1.398   4.869   9.375 -0.2639 -0.6673  0.4517
  396MOL0     H53403   1.190   4.931   9.589 -2.7779 -0.9613 -0.1820
  396MOL0     H53404   1.207   5.009   9.427 -0.5529 -0.7670  0.2064
  396MOL0     H53405   1.182   4.773   9.322 -1.6936  2.8027 -1.7729
  396MOL0     H53406   1.115   4.720   9.481 -2.2907 -0.0397 -0.7686
  396MOL0     H53407   1.012   4.931   9.297 -0.3535 -1.7661 -0.2630
  396MOL0     H53408   0.937   4.788   9.344  2.1901 -2.5329  1.8037
  396MOL0     H53409   0.938   4.897   9.591 -3.4421  2.7394  2.4422
  396MOL0     H53410   0.814   4.944   9.487  0.3468  3.9413 -0.7323
  396MOL0     H53411   0.910   5.166   9.296 -0.6125 -2.9384  1.2352
  396MOL0     H53412   1.086   5.481   9.467  2.5982 -2.2423  0.5956
  396MOL0     H53413   1.100   5.391   9.311 -0.1310 -0.1414  0.2137
  396MOL0     H53414   0.860   5.543   9.415 -1.5113  0.2627 -1.1431
  396MOL0     H53415   0.846   5.434   9.276  3.5104 -3.0509 -0.7166
  396MOL0     H53416   1.025   5.688   9.291  0.8256 -0.4804 -1.4009
  396MOL0     H53417   0.856   5.691   9.245 -0.6097 -0.6966 -2.2437
  396MOL0     H53418   1.079   5.548   9.083  0.3755  2.4603 -4.0628
  396MOL0     H53419   1.005   5.691   9.031 -0.0576  0.2953  0.3809
  396MOL0     H53420   0.810   5.783   9.030 -0.0508  0.9795 -0.6168
  396MOL0     H53421   0.510   5.931   9.031 -1.3082 -3.8159  1.3985
  396MOL0     H53422   0.690   5.954   9.017  2.5773 -3.5964 -2.0527
  396MOL0     H53423   0.587   5.963   8.877 -0.5232 -2.7912 -0.0201
  396MOL0     H53424   0.180   5.502   8.642 -0.5227 -0.5059 -1.4610
  396MOL0     H53425   0.030   5.523   8.457  0.1176 -1.2564  0.9672
  396MOL0     H53426  -0.136   5.879   8.380  0.4782  2.8035 -1.5964
  396MOL0     H53427   0.006   5.944   8.290 -0.8306  2.2326  3.7274
  396MOL0     H53428  -0.229   5.773   8.186  0.8277 -0.4158 -0.0361
  396MOL0     H53429  -0.226   5.948   8.177 -1.0659 -0.1691  1.0448
  396MOL0     H53430  -0.031   5.748   8.039 -2.6522 -1.9847 -2.4259
  396MOL0     H53431  -0.001   5.926   8.052 -2.6574  2.1011 -0.0487
  396MOL0     H53432  -0.201   5.968   7.904 -2.6424 -0.4090  2.2478
  396MOL0     H53433  -0.118   5.836   7.826 -0.4819 -0.8777  0.4633
  396MOL0     H53434  -0.362   5.822   7.996  3.8860  0.3314  4.0118
  396MOL0     H53435  -0.268   5.679   7.963  0.9748 -0.4486 -1.0214
  396MOL0     H53436  -0.305   5.700   7.713 -0.5344 -0.0741  0.4310
  396MOL0     H53437  -0.450   5.678   7.804 -1.1834  0.5265 -0.9910
  396MOL0     H53438  -0.340   5.937   7.686 -1.1353 -0.2341 -1.2179
  396MOL0     H53439  -0.463   5.937   7.815 -0.3332 -0.6671  0.5274
  396MOL0     H53440  -0.574   5.956   7.614 -1.5358  0.4542 -1.0140
  396MOL0     H53441  -0.616   5.804   7.692 -2.4962  2.1397 -1.4906
  396MOL0     H53442   0.181   5.919   8.396 -0.9879  1.6759  2.6636
  396MOL0     H53443   0.349   5.891   8.573 -0.2786  1.5633 -1.1971
  396MOL0     H53444   0.473   5.467   8.859 -0.6979  0.8435 -2.3177
  396MOL0     H53445   0.682   5.379   8.942 -1.6940 -0.5880  0.7663
  396MOL0     H53446   1.794   4.624   9.828 -0.5977 -0.9471 -2.6680
  396MOL0     H53447   1.901   4.480  10.005  0.5137 -4.4734  0.3440
  396MOL0     H53448   2.006   4.140  10.220 -0.0455 -1.2471  0.2737
  396MOL0     H53449   2.181   4.071  10.354 -0.9244  0.5522  0.6031
  396MOL0     H53450   2.315   3.966  10.541  0.8987  1.7308 -0.8349
  396MOL0     H53451   2.394   4.111  10.496 -1.4292  4.1372  0.6284
  396MOL0     H53452   2.371   4.027  10.793 -0.3214  1.1449 -0.4063
  396MOL0     H53453   2.476   4.142  10.722  1.9120 -0.7298 -0.8072
  396MOL0     H53454   2.597   3.969  10.601 -0.2928  0.9538  0.6939
  396MOL0     H53455   2.522   3.836  10.707  0.4153  0.0347 -0.5231
  396MOL0     H53456   2.644   4.060  10.864  1.8597  0.9548 -0.8599
  396MOL0     H53457   2.757   3.985  10.744 -1.7376 -1.9074 -3.1950
  396MOL0     H53458   2.678   3.695  11.057  1.8388  2.1358  2.4885
  396MOL0     H53459   2.054   4.330  10.672 -1.5962  1.8535 -0.4169
  396MOL0     H53460   1.854   4.394  10.537 -1.0564 -0.0926 -1.2409
  397MOL0     O53461   3.506   7.199   0.927  0.1409 -0.7293  0.9177
  397MOL0     C53462   3.624   7.233   0.923 -0.1217  0.0159 -0.8747
  397MOL0     O53463   3.671   7.350   0.872  0.5876 -0.9856 -0.1757
  397MOL0     C53464   3.573   7.443   0.839  0.4398  0.5546  0.0716
  397MOL0     C53465   3.483   7.505   0.931 -0.3176  1.4680 -0.0751
  397MOL0     C53466   3.403   7.610   0.895  0.2534 -0.5151 -0.7853
  397MOL0     C53467   3.406   7.661   0.768 -0.7766  0.0032  0.3306
  397MOL0     O53468   3.333   7.768   0.715 -0.2334  0.3426  0.5520
  397MOL0     C53469   3.195   7.780   0.762 -0.8431 -0.2139  0.0735
  397MOL0     C53470   3.108   7.835   0.645 -0.8748  0.0819 -1.2649
  397MOL0     C53471   3.042   7.723   0.557 -1.1283 -0.3992  0.5314
  397MOL0     C53472   2.907   7.691   0.614  0.7626  0.2669 -0.4128
  397MOL0     C53473   2.841   7.575   0.551 -0.0379 -0.3661 -1.2662
  397MOL0     C53474   2.772   7.609   0.423 -0.4959  0.2158 -0.3182
  397MOL0     C53475   2.731   7.485   0.337  0.2965 -0.2576 -0.3795
  397MOL0     C53476   2.600   7.417   0.381 -0.3704  0.5886 -0.4091
  397MOL0     N53477   2.478   7.497   0.387  1.0708  0.0177  0.1320
  397MOL0     C53478   2.402   7.544   0.285  0.4516  0.3752 -0.1928
  397MOL0     C53479   2.292   7.608   0.350  0.0109  0.2178  0.6475
  397MOL0     C53480   2.198   7.708   0.279  0.2890  0.5339  0.6507
  397MOL0     C53481   2.079   7.643   0.196 -0.7862  0.2226  0.0181
  397MOL0     C53482   1.991   7.547   0.283  0.0146  0.1056  0.8683
  397MOL0     C53483   1.853   7.529   0.205  0.0684  0.1835  1.2723
  397MOL0     O53484   1.872   7.463   0.078 -0.1257 -0.7466  0.4404
  397MOL0     C53485   1.754   7.444   0.011 -0.1508  0.0318  0.5647
  397MOL0     C53486   1.766   7.417  -0.127  0.4987 -0.1066 -0.6327
  397MOL0     C53487   1.664   7.394  -0.214  0.9113  0.6873 -0.2991
  397MOL0     C53488   1.684   7.395  -0.362  0.8496  0.2665  0.0606
  397MOL0     C53489   1.536   7.393  -0.156  0.7112  0.9127  0.0346
  397MOL0     C53490   1.409   7.356  -0.233  0.3080  0.1944  0.0010
  397MOL0     O53491   1.422   7.240  -0.301  0.8234 -0.0318  0.3842
  397MOL0     C53492   1.310   7.211  -0.375 -0.1829 -0.8154  0.1391
  397MOL0     C53493   1.320   7.231  -0.515  0.0676 -0.0432  0.6335
  397MOL0     C53494   1.206   7.218  -0.591 -0.5610  0.0065 -0.0839
  397MOL0     C53495   1.088   7.163  -0.537  0.0531  0.3025 -0.4769
  397MOL0     O53496   0.978   7.150  -0.624  0.3499 -0.6041 -0.8227
  397MOL0     C53497   0.856   7.092  -0.573  0.0278 -0.5594  0.8872
  397MOL0     C53498   0.874   6.947  -0.572  0.4671 -0.3686  0.6501
  397MOL0     C53499   0.782   6.862  -0.470 -0.1810  0.2835  0.4648
  397MOL0     C53500   0.815   6.713  -0.496 -0.0773  0.9803  0.2552
  397MOL0     C53501   0.740   6.627  -0.391 -0.0484  0.1392 -0.6108
  397MOL0     C53502   0.744   6.482  -0.450 -0.6150  0.4550 -0.1191
  397MOL0     C53503   0.759   6.367  -0.345  0.6820  0.1443  0.1752
  397MOL0     C53504   0.795   6.233  -0.421 -0.5303 -0.2169 -0.2673
  397MOL0    Cl53505   0.834   6.081  -0.309  0.1700  0.0892 -0.1925
  397MOL0     C53506   1.090   7.123  -0.404 -0.8085 -0.0677 -0.4844
  397MOL0     C53507   1.199   7.151  -0.320 -0.9833 -0.3826  0.7124
  397MOL0     O53508   1.310   7.429  -0.221 -0.3304 -0.3944 -0.5770
  397MOL0     C53509   1.520   7.416  -0.019  0.2210 -0.2208 -0.1264
  397MOL0     C53510   1.629   7.437   0.070 -0.9458  0.0925 -0.0707
  397MOL0     N53511   2.309   7.603   0.486 -0.1814  0.5665 -0.1049
  397MOL0     N53512   2.410   7.533   0.504 -0.4512  0.0884 -0.5894
  397MOL0     C53513   3.497   7.615   0.679  0.0306  0.1050 -0.3077
  397MOL0     C53514   3.575   7.506   0.713 -0.8098 -0.6257 -0.3645
  397MOL0     C53515   3.722   7.150   0.990 -0.0519  0.1080  1.0192
  397MOL0     C53516   3.852   7.187   0.985 -0.6876  0.5069 -0.4559
  397MOL0     C53517   3.951   7.111   1.054 -0.3360 -0.2653 -0.2370
  397MOL0     C53518   3.911   6.995   1.121  0.2661 -0.1483 -1.1156
  397MOL0     O53519   4.012   6.913   1.184 -0.2824  0.1768 -0.2934
  397MOL0     C53520   3.977   6.790   1.242  1.0978  0.1571  0.2380
  397MOL0     C53521   4.088   6.695   1.254 -0.7715  0.7518 -0.3667
  397MOL0     C53522   4.039   6.564   1.330  0.2151 -0.5592  0.7178
  397MOL0     C53523   4.138   6.450   1.335 -0.3464 -0.6467  0.3633
  397MOL0     C53524   4.269   6.486   1.400 -0.1000  0.6602 -0.2330
  397MOL0     C53525   4.381   6.517   1.434  0.1043  0.8538  0.1791
  397MOL0     C53526   3.776   6.955   1.124 -0.1423  0.6494  0.8981
  397MOL0     C53527   3.682   7.033   1.057  0.1343  0.4496  0.6156
  397MOL0     H53528   3.475   7.453   1.025  1.0745 -1.3877 -1.4126
  397MOL0     H53529   3.341   7.647   0.976  0.4789 -2.5052  0.3786
  397MOL0     H53530   3.159   7.680   0.787  0.5773 -0.9651 -0.8072
  397MOL0     H53531   3.209   7.849   0.846  1.3729 -1.8160  1.1371
  397MOL0     H53532   3.032   7.890   0.701  0.3754  0.8098 -0.2165
  397MOL0     H53533   3.168   7.905   0.587 -1.3795  2.2777  0.7330
  397MOL0     H53534   3.020   7.758   0.456 -1.0244 -0.9545  0.3160
  397MOL0     H53535   3.116   7.642   0.552 -1.7128 -0.9277  0.3501
  397MOL0     H53536   2.919   7.658   0.718 -0.5441 -1.4414 -0.7705
  397MOL0     H53537   2.847   7.782   0.600  1.6257  0.7527 -1.0403
  397MOL0     H53538   2.914   7.498   0.523  1.1457  0.6460 -1.0798
  397MOL0     H53539   2.773   7.528   0.623  0.7517 -0.0041 -0.2449
  397MOL0     H53540   2.702   7.691   0.444  1.9028  2.6493 -1.2958
  397MOL0     H53541   2.835   7.666   0.355 -2.6880  0.5693 -2.2148
  397MOL0     H53542   2.722   7.504   0.229  0.4522 -0.4778 -0.4325
  397MOL0     H53543   2.807   7.406   0.339 -0.4121 -0.9661 -0.7518
  397MOL0     H53544   2.614   7.363   0.476  1.1551  0.5495 -0.6183
  397MOL0     H53545   2.583   7.341   0.304  0.9623 -1.1763  0.9282
  397MOL0     H53546   2.418   7.544   0.177 -0.5919 -1.4031 -0.3785
  397MOL0     H53547   2.150   7.766   0.358  1.1323  0.1159  1.4783
  397MOL0     H53548   2.257   7.778   0.219  2.9870 -0.2443  2.2283
  397MOL0     H53549   2.118   7.586   0.111  0.3191  1.2168 -0.1791
  397MOL0     H53550   2.022   7.729   0.159  1.3273  1.5966 -0.2008
  397MOL0     H53551   1.976   7.589   0.383 -0.3802 -1.4757  1.5028
  397MOL0     H53552   2.033   7.449   0.308  0.5955  0.1805  0.1865
  397MOL0     H53553   1.800   7.621   0.179  1.7012  0.6619 -0.6596
  397MOL0     H53554   1.789   7.462   0.262 -0.0871 -1.2172 -0.4571
  397MOL0     H53555   1.863   7.414  -0.174  1.2139 -1.3783  0.8136
  397MOL0     H53556   1.702   7.499  -0.391  1.1076  0.6575  1.5638
  397MOL0     H53557   1.767   7.338  -0.405 -2.2853 -1.0941 -5.1676
  397MOL0     H53558   1.596   7.361  -0.418  0.6140  1.8284 -0.5680
  397MOL0     H53559   1.408   7.263  -0.571  0.3654  0.0082  1.1210
  397MOL0     H53560   1.202   7.241  -0.697 -2.2690  0.1953 -0.0036
  397MOL0     H53561   0.835   7.139  -0.476 -0.4008  1.9568 -0.3455
  397MOL0     H53562   0.767   7.109  -0.634 -1.4583  1.5542  3.4403
  397MOL0     H53563   0.846   6.911  -0.671 -0.6946  1.3323  0.3212
  397MOL0     H53564   0.980   6.924  -0.556  0.7998 -0.9180 -1.9168
  397MOL0     H53565   0.676   6.887  -0.481  0.1306  0.5855 -2.7859
  397MOL0     H53566   0.807   6.896  -0.369 -2.0305  0.2160  0.9816
  397MOL0     H53567   0.786   6.682  -0.597  1.7225 -1.1022  0.2936
  397MOL0     H53568   0.922   6.690  -0.501 -0.9303 -4.0355 -0.8632
  397MOL0     H53569   0.642   6.674  -0.387 -0.0931  0.4895 -3.6894
  397MOL0     H53570   0.792   6.625  -0.294  0.3184  0.3797 -0.8006
  397MOL0     H53571   0.652   6.477  -0.508 -0.1660  1.5200 -0.9610
  397MOL0     H53572   0.827   6.478  -0.522  0.8721  1.9646  1.4086
  397MOL0     H53573   0.663   6.350  -0.295  0.0069 -2.5208 -1.8217
  397MOL0     H53574   0.841   6.387  -0.276  1.2174 -0.9629 -0.1201
  397MOL0     H53575   0.867   6.246  -0.503 -1.5121 -0.2814 -1.1566
  397MOL0     H53576   0.696   6.222  -0.467 -1.3493 -0.2974  1.4478
  397MOL0     H53577   1.006   7.089  -0.343 -0.4755  1.1335  0.7008
  397MOL0     H53578   1.190   7.128  -0.215  1.8254  2.8364  1.8379
  397MOL0     H53579   1.424   7.400   0.030  0.2168 -2.0610 -0.6575
  397MOL0     H53580   1.612   7.450   0.176 -1.9380 -2.2818  0.1186
  397MOL0     H53581   3.518   7.662   0.583  1.2588  1.8837  0.7832
  397MOL0     H53582   3.652   7.451   0.658 -0.0501 -1.0327  1.0541
  397MOL0     H53583   3.884   7.280   0.939  2.1968 -1.3894 -2.6181
  397MOL0     H53584   4.057   7.136   1.049  0.0138 -1.8514 -1.8847
  397MOL0     H53585   3.929   6.802   1.340  0.3319  2.9626 -0.3700
  397MOL0     H53586   3.900   6.741   1.182  0.9712  1.5531 -0.7937
  397MOL0     H53587   4.176   6.735   1.305 -0.9220  1.2193 -0.4683
  397MOL0     H53588   4.125   6.659   1.158 -2.2101  0.2757 -0.7537
  397MOL0     H53589   3.944   6.531   1.287  1.4627  0.6487 -3.4693
  397MOL0     H53590   4.017   6.591   1.434  0.9143 -0.7116  0.9098
  397MOL0     H53591   4.164   6.419   1.234 -0.8806  0.6715 -0.1891
  397MOL0     H53592   4.097   6.366   1.392  3.3901 -2.3469  0.8433
  397MOL0     H53593   4.477   6.550   1.469 -0.0144  2.0842 -0.6048
  397MOL0     H53594   3.741   6.867   1.177  1.8113 -0.4548  0.4461
  397MOL0     H53595   3.576   7.007   1.059  0.5321 -1.4125 -0.1520
  398MOL0     O53596  10.814   5.823   3.566 -0.6443  0.3897 -0.5242
  398MOL0     C53597  10.708   5.808   3.625 -0.9816 -0.8678 -0.0884
  398MOL0     O53598  10.613   5.910   3.642 -0.0318  0.5877 -0.7635
  398MOL0     C53599  10.636   6.035   3.591  0.1116 -0.8479  0.6730
  398MOL0     C53600  10.661   6.067   3.444 -0.1852  0.0159 -1.1133
  398MOL0     C53601  10.693   6.201   3.403  0.2763  0.8536 -0.2908
  398MOL0     C53602  10.678   6.303   3.499  0.6798 -0.4097  0.0772
  398MOL0     O53603  10.688   6.438   3.462 -0.1370  0.1969  0.5772
  398MOL0     C53604  10.557   6.506   3.459 -0.2516 -0.0720  0.2963
  398MOL0     C53605  10.470   6.489   3.340 -0.5395  0.7496  0.3348
  398MOL0     C53606  10.352   6.591   3.328  0.7193 -0.9239 -0.3109
  398MOL0     C53607  10.244   6.579   3.444  0.1368  1.2898  0.0994
  398MOL0     C53608  10.116   6.656   3.401 -0.1672 -0.0412  0.0972
  398MOL0     C53609  10.028   6.656   3.524  0.2161 -0.9198  0.5446
  398MOL0     C53610   9.895   6.733   3.511  0.5562 -0.2051 -0.0311
  398MOL0     C53611   9.894   6.886   3.475 -0.0782 -0.6302 -0.3744
  398MOL0     N53612   9.767   6.941   3.527  0.3848 -0.0654  1.2949
  398MOL0     C53613   9.726   6.938   3.658 -0.6556 -0.0633  0.5482
  398MOL0     C53614   9.598   6.988   3.659 -0.0854  0.1078  0.1157
  398MOL0     C53615   9.503   6.985   3.775  0.7356  0.2811  0.4257
  398MOL0     C53616   9.395   7.104   3.762  0.2724  0.7104  0.7896
  398MOL0     C53617   9.274   7.067   3.676 -0.4105 -0.8744  0.7526
  398MOL0     C53618   9.145   7.148   3.697 -0.6186 -0.5417 -0.3630
  398MOL0     O53619   9.123   7.209   3.824  0.1644  0.4799  0.8025
  398MOL0     C53620   8.995   7.237   3.849  0.6279 -0.8693 -0.5769
  398MOL0     C53621   8.885   7.225   3.765 -0.1109  0.2153  0.0446
  398MOL0     C53622   8.751   7.242   3.811 -1.1118 -1.5226  0.5925
  398MOL0     C53623   8.643   7.221   3.706 -0.5759  0.8039  0.4813
  398MOL0     C53624   8.732   7.269   3.956 -0.3711  0.7360 -0.5595
  398MOL0     C53625   8.602   7.263   4.032 -0.0027 -0.5035  0.8133
  398MOL0     O53626   8.488   7.267   3.954 -0.2765  0.1753 -0.6292
  398MOL0     C53627   8.365   7.246   4.011  0.9041  0.0450 -0.1823
  398MOL0     C53628   8.348   7.154   4.119 -0.0831  0.7859  0.4774
  398MOL0     C53629   8.218   7.124   4.168  0.0532 -0.4751 -0.3783
  398MOL0     C53630   8.100   7.178   4.109 -0.2482 -0.2308 -0.4067
  398MOL0     O53631   7.970   7.146   4.150 -0.4676  0.5869  0.3394
  398MOL0     C53632   7.960   7.071   4.276 -0.9109 -0.3017 -0.1832
  398MOL0     C53633   7.815   7.095   4.331  0.3603 -0.2433 -0.1564
  398MOL0     C53634   7.779   7.044   4.469  0.4114 -0.1863 -0.2213
  398MOL0     C53635   7.730   6.897   4.481 -0.0882  0.1842  0.2276
  398MOL0     C53636   7.687   6.866   4.623  0.1345 -0.4706 -0.0663
  398MOL0     C53637   7.644   6.717   4.640 -0.9122  0.8710 -0.6245
  398MOL0     C53638   7.561   6.652   4.532 -0.6266 -0.6728 -0.3816
  398MOL0     C53639   7.412   6.688   4.540 -0.0890 -0.2521 -0.0231
  398MOL0    Cl53640   7.350   6.638   4.701 -0.0371  0.4029 -0.4107
  398MOL0     C53641   8.121   7.264   3.994  0.4949  0.0648  0.2158
  398MOL0     C53642   8.250   7.296   3.950  1.3504 -0.5379 -0.4931
  398MOL0     O53643   8.601   7.266   4.154 -0.7863 -0.7072 -1.2088
  398MOL0     C53644   8.840   7.295   4.035  0.0335  0.7308  0.3214
  398MOL0     C53645   8.967   7.282   3.981 -0.7277  0.0390  1.2625
  398MOL0     N53646   9.560   7.019   3.532  0.4632  0.4581 -0.3807
  398MOL0     N53647   9.657   6.985   3.450  0.8131 -0.3553  0.0408
  398MOL0     C53648  10.640   6.279   3.627  1.1219  0.3189 -0.5818
  398MOL0     C53649  10.616   6.148   3.670 -0.4008  0.4970  0.1643
  398MOL0     C53650  10.690   5.690   3.703 -0.1913  0.0294 -0.1378
  398MOL0     C53651  10.562   5.638   3.736  0.6578  0.2795  0.1710
  398MOL0     C53652  10.546   5.517   3.805  0.8986  0.1286  0.5752
  398MOL0     C53653  10.654   5.433   3.852 -0.3686 -1.0189 -0.6128
  398MOL0     O53654  10.638   5.327   3.936  0.2634 -0.4139 -0.0274
  398MOL0     C53655  10.507   5.278   3.983  0.3394  0.3643  0.3939
  398MOL0     C53656  10.488   5.301   4.130  0.5107 -0.4046  0.4860
  398MOL0     C53657  10.480   5.450   4.162 -1.6062 -0.5826 -0.2720
  398MOL0     C53658  10.365   5.467   4.272 -0.5073 -0.3932 -0.1694
  398MOL0     C53659  10.231   5.433   4.214  1.0585 -0.5508 -0.5439
  398MOL0     C53660  10.119   5.391   4.183 -0.3118 -0.1540 -0.0703
  398MOL0     C53661  10.778   5.478   3.803  0.8555 -0.0061 -0.7432
  398MOL0     C53662  10.796   5.602   3.738  0.1258 -0.2240 -1.0697
  398MOL0     H53663  10.654   5.989   3.368  0.2820 -2.4936  1.2866
  398MOL0     H53664  10.721   6.211   3.299 -1.0715 -3.6676 -1.2733
  398MOL0     H53665  10.504   6.488   3.553 -1.3313 -1.0509 -0.4590
  398MOL0     H53666  10.589   6.610   3.460  4.6496 -1.3620  1.4466
  398MOL0     H53667  10.536   6.488   3.253 -0.5712 -0.5313  0.3038
  398MOL0     H53668  10.421   6.391   3.338  0.4203  0.2617  0.3219
  398MOL0     H53669  10.382   6.696   3.334 -1.0836 -0.2699 -1.8023
  398MOL0     H53670  10.301   6.575   3.233 -0.2346  0.2739 -0.0330
  398MOL0     H53671  10.226   6.471   3.456  0.6453  1.0745 -1.0132
  398MOL0     H53672  10.290   6.618   3.535 -1.6420  4.7044 -0.2994
  398MOL0     H53673  10.145   6.757   3.369  1.7181 -0.4903  0.2766
  398MOL0     H53674  10.072   6.611   3.311  0.1127 -0.9153  0.3984
  398MOL0     H53675  10.014   6.550   3.547  1.4518 -0.6903  2.5587
  398MOL0     H53676  10.083   6.705   3.605 -2.1690  0.5266  1.3850
  398MOL0     H53677   9.836   6.682   3.434  2.1817  1.8283 -2.8222
  398MOL0     H53678   9.848   6.714   3.608  2.8071 -1.4273  0.9144
  398MOL0     H53679   9.902   6.901   3.367  0.1466 -0.1562 -0.2955
  398MOL0     H53680   9.978   6.931   3.528  0.9397 -3.2134  0.3391
  398MOL0     H53681   9.777   6.894   3.743  1.0703  1.2373  0.2369
  398MOL0     H53682   9.463   6.883   3.786 -0.9138  1.0095  1.5563
  398MOL0     H53683   9.560   7.016   3.863  2.4649 -0.1119 -0.5121
  398MOL0     H53684   9.439   7.193   3.715  0.4609  0.7306  1.0040
  398MOL0     H53685   9.354   7.129   3.860 -0.4699  2.7336  0.0172
  398MOL0     H53686   9.240   6.964   3.686 -2.3630 -0.6434 -2.3863
  398MOL0     H53687   9.314   7.071   3.574  0.0079  1.3593  0.9300
  398MOL0     H53688   9.064   7.079   3.675 -2.0371  0.4745  1.4454
  398MOL0     H53689   9.140   7.234   3.629  1.3752 -0.0652  0.0185
  398MOL0     H53690   8.904   7.201   3.661 -1.4768 -0.2650 -0.1195
  398MOL0     H53691   8.559   7.290   3.718 -0.8140  0.3807  1.2825
  398MOL0     H53692   8.687   7.217   3.605  1.9645 -0.7272  1.5663
  398MOL0     H53693   8.595   7.124   3.716 -0.5468  0.8055  0.6366
  398MOL0     H53694   8.440   7.113   4.157  0.2132  1.7883  0.8871
  398MOL0     H53695   8.219   7.058   4.254 -1.2153 -4.3669 -3.0710
  398MOL0     H53696   7.984   6.966   4.260 -1.6340 -0.8381  1.8448
  398MOL0     H53697   8.031   7.110   4.350  0.4260 -0.6044 -1.2741
  398MOL0     H53698   7.805   7.203   4.344 -0.3825 -0.5459  2.2933
  398MOL0     H53699   7.745   7.065   4.252  0.1571 -1.6539  0.5310
  398MOL0     H53700   7.704   7.109   4.514  0.6423  1.7418 -2.4196
  398MOL0     H53701   7.862   7.070   4.535 -0.9268 -1.4743  2.0769
  398MOL0     H53702   7.643   6.894   4.416 -0.2379 -3.6467  0.3484
  398MOL0     H53703   7.810   6.830   4.447 -0.1356  1.6774 -3.2309
  398MOL0     H53704   7.595   6.922   4.643 -0.5063 -1.0318 -1.3476
  398MOL0     H53705   7.772   6.874   4.691 -0.1737 -1.6958  0.5087
  398MOL0     H53706   7.740   6.664   4.646  1.8421  5.3334 -0.5877
  398MOL0     H53707   7.594   6.695   4.735 -1.1385 -0.1100 -0.9551
  398MOL0     H53708   7.572   6.544   4.545  5.8841 -0.5143 -1.0511
  398MOL0     H53709   7.599   6.663   4.430  2.0437 -2.3777  0.3366
  398MOL0     H53710   7.364   6.639   4.455 -3.1709  3.1816 -0.5371
  398MOL0     H53711   7.390   6.795   4.527 -1.1362 -0.1069  2.4399
  398MOL0     H53712   8.044   7.311   3.934  0.0673  0.4931  1.0802
  398MOL0     H53713   8.267   7.360   3.864 -0.9974  1.1909  0.2359
  398MOL0     H53714   8.844   7.317   4.141  0.3756 -2.2292  0.9993
  398MOL0     H53715   9.052   7.304   4.046 -1.4527 -1.2982  2.7432
  398MOL0     H53716  10.597   6.356   3.691 -2.1494 -1.5316 -0.2944
  398MOL0     H53717  10.592   6.136   3.775  1.5060 -2.0278  0.4147
  398MOL0     H53718  10.478   5.695   3.699  1.0050 -0.6525 -2.2276
  398MOL0     H53719  10.444   5.484   3.825  0.1191  0.7346 -1.9867
  398MOL0     H53720  10.419   5.310   3.927  1.4744  2.8778 -0.0788
  398MOL0     H53721  10.513   5.169   3.970 -0.7753 -0.2120  3.7295
  398MOL0     H53722  10.557   5.249   4.197  0.5032 -0.8117  0.1807
  398MOL0     H53723  10.395   5.247   4.149  0.7159 -0.2514  2.0266
  398MOL0     H53724  10.446   5.514   4.079 -3.0421 -0.8031  0.1294
  398MOL0     H53725  10.579   5.473   4.202 -0.4593 -1.2267 -2.5800
  398MOL0     H53726  10.368   5.569   4.313  0.6831 -0.5670  0.2174
  398MOL0     H53727  10.394   5.407   4.359  1.3430  2.7285  1.5662
  398MOL0     H53728  10.015   5.368   4.176 -0.7181  1.1225  1.2446
  398MOL0     H53729  10.863   5.414   3.825  0.1891 -1.3599 -1.9527
  398MOL0     H53730  10.898   5.639   3.730  0.7430 -1.4376  0.5849
  399MOL0     O53731   3.102   3.012   8.080 -0.9181  0.5493  0.1273
  399MOL0     C53732   3.088   3.069   8.186 -1.0711 -0.1973  0.5446
  399MOL0     O53733   2.974   3.084   8.252  0.6035  0.5977 -0.0781
  399MOL0     C53734   2.858   3.059   8.175 -0.1736  1.0458 -0.1336
  399MOL0     C53735   2.830   2.931   8.122  0.2307 -0.1696  0.0784
  399MOL0     C53736   2.712   2.910   8.053  0.7967 -0.5133  0.3332
  399MOL0     C53737   2.608   3.006   8.053  0.6496  0.6859  0.4919
  399MOL0     O53738   2.481   2.988   7.994  0.2322 -0.2110  0.2959
  399MOL0     C53739   2.462   2.881   7.906  0.6634 -1.2226  0.8913
  399MOL0     C53740   2.311   2.872   7.861  0.3216 -0.4072 -0.3403
  399MOL0     C53741   2.222   2.835   7.984 -0.6818 -0.0104 -0.4257
  399MOL0     C53742   2.090   2.775   7.940 -0.2268  0.0159  0.1577
  399MOL0     C53743   2.026   2.683   8.051 -0.6842  1.0120  0.7884
  399MOL0     C53744   1.928   2.763   8.132 -0.0060  0.4359 -0.4822
  399MOL0     C53745   1.855   2.672   8.244 -0.0849  1.1749  0.8281
  399MOL0     C53746   1.761   2.561   8.175  0.0849 -0.4083 -0.1502
  399MOL0     N53747   1.688   2.481   8.275  0.0500 -0.5158 -0.3516
  399MOL0     C53748   1.558   2.489   8.320  0.4001  0.7611  0.4755
  399MOL0     C53749   1.543   2.400   8.419 -1.1265 -0.3333 -0.1011
  399MOL0     C53750   1.429   2.364   8.504 -0.3689  0.0834 -0.8716
  399MOL0     C53751   1.327   2.316   8.409  0.0525 -0.7112  0.1105
  399MOL0     C53752   1.205   2.273   8.485  0.0333 -0.5116  0.2580
  399MOL0     C53753   1.102   2.205   8.389  0.1928 -0.1710 -0.1970
  399MOL0     O53754   0.981   2.180   8.456 -0.1481  0.1960  0.3545
  399MOL0     C53755   0.870   2.155   8.376 -0.9406  0.3148 -0.7067
  399MOL0     C53756   0.883   2.117   8.241  0.3534 -0.4736  0.0964
  399MOL0     C53757   0.768   2.098   8.164  0.2474  0.8015  0.1713
  399MOL0     C53758   0.793   2.041   8.021  0.3244 -0.2108 -0.2690
  399MOL0     C53759   0.638   2.114   8.219  0.0696  0.9291 -0.9821
  399MOL0     C53760   0.504   2.080   8.167  0.5193 -0.4952  0.1743
  399MOL0     O53761   0.385   2.108   8.238 -0.2835  0.0308 -0.1315
  399MOL0     C53762   0.257   2.081   8.176 -0.1213  0.8329 -0.4369
  399MOL0     C53763   0.165   2.047   8.269  0.5327 -0.6446 -0.1961
  399MOL0     C53764   0.036   2.024   8.244  0.2704  0.3822  0.6365
  399MOL0     C53765  -0.015   2.038   8.114  0.0366  0.1954  0.2066
  399MOL0     O53766  -0.148   2.010   8.092 -0.4454  0.3727 -0.1403
  399MOL0     C53767  -0.203   2.012   7.958  0.2492 -0.1846  0.4238
  399MOL0     C53768  -0.348   1.961   7.949  0.5544 -0.5040 -0.8437
  399MOL0     C53769  -0.422   1.996   7.825 -0.6429 -0.7541  0.2841
  399MOL0     C53770  -0.574   1.958   7.854  0.9767  0.7470 -0.5997
  399MOL0     C53771  -0.667   1.915   7.737 -0.3386 -0.1560  0.0532
  399MOL0     C53772  -0.807   1.851   7.769 -0.3196 -0.0772  0.0698
  399MOL0     C53773  -0.835   1.812   7.917  1.6097  0.6841 -0.4835
  399MOL0     C53774  -0.962   1.740   7.921  0.9487  0.2095 -0.2743
  399MOL0    Cl53775  -1.029   1.733   8.088 -0.6695  0.1626 -0.0313
  399MOL0     C53776   0.079   2.051   8.014  0.1475 -0.5944  0.1715
  399MOL0     C53777   0.221   2.081   8.042  0.7945  0.0823 -0.4965
  399MOL0     O53778   0.504   2.031   8.052  0.1228  0.2317  0.0136
  399MOL0     C53779   0.639   2.158   8.354 -0.0631  0.4777  0.7002
  399MOL0     C53780   0.753   2.181   8.429 -0.1186 -0.6125  0.3092
  399MOL0     N53781   1.668   2.347   8.444 -0.5352 -0.9219  0.0833
  399MOL0     N53782   1.750   2.387   8.353 -0.2805  0.0877 -0.3909
  399MOL0     C53783   2.642   3.131   8.096  0.2401 -0.2023  0.1470
  399MOL0     C53784   2.766   3.156   8.163 -0.1138  0.7241 -0.6754
  399MOL0     C53785   3.205   3.139   8.235  1.0364 -0.1019  0.6818
  399MOL0     C53786   3.305   3.188   8.152  0.1843 -0.6766  0.1583
  399MOL0     C53787   3.405   3.255   8.207 -0.4089  0.3398 -0.7674
  399MOL0     C53788   3.422   3.273   8.344 -0.3472 -0.3244 -1.1015
  399MOL0     O53789   3.537   3.334   8.398  0.0151  0.1725  1.3682
  399MOL0     C53790   3.633   3.389   8.306 -0.6239  1.3784  0.5316
  399MOL0     C53791   3.769   3.422   8.379 -0.1561 -0.1914  1.2903
  399MOL0     C53792   3.760   3.581   8.420  0.4982  0.7932 -0.2918
  399MOL0     C53793   3.887   3.621   8.502  0.6526 -0.5674  0.1822
  399MOL0     C53794   3.913   3.529   8.616 -0.5573 -0.5280  0.0850
  399MOL0     C53795   3.951   3.439   8.691 -0.4559  1.8071  0.6750
  399MOL0     C53796   3.326   3.218   8.432 -0.1027 -0.4732 -0.3322
  399MOL0     C53797   3.209   3.159   8.377 -0.0533 -0.4647  0.4306
  399MOL0     H53798   2.907   2.855   8.129 -1.3193 -1.7724  0.3780
  399MOL0     H53799   2.704   2.813   8.004 -0.0249  1.4733 -3.9682
  399MOL0     H53800   2.520   2.905   7.817  2.7804  0.0687  2.5255
  399MOL0     H53801   2.493   2.788   7.954 -0.3481 -1.1093  1.7898
  399MOL0     H53802   2.273   2.968   7.824  0.0004  0.0969  1.2083
  399MOL0     H53803   2.303   2.792   7.787  0.1775  0.3412 -1.1529
  399MOL0     H53804   2.275   2.764   8.049  0.5611  1.2002 -0.0508
  399MOL0     H53805   2.199   2.921   8.048 -1.4147 -1.6962  1.7216
  399MOL0     H53806   2.013   2.841   7.899 -1.9731 -1.8467  0.2759
  399MOL0     H53807   2.112   2.716   7.851 -1.4443 -0.2471  0.0164
  399MOL0     H53808   1.971   2.600   8.005  0.8416  0.5929 -0.3908
  399MOL0     H53809   2.102   2.644   8.120  0.7753  0.7236 -0.8982
  399MOL0     H53810   1.978   2.846   8.183 -4.9269  2.8225  1.0853
  399MOL0     H53811   1.871   2.819   8.057  2.0923  1.4308 -1.4364
  399MOL0     H53812   1.913   2.605   8.308 -0.8153  0.8912  1.2057
  399MOL0     H53813   1.802   2.734   8.317 -1.5661  0.6567  0.2527
  399MOL0     H53814   1.816   2.490   8.112  2.8197  1.4658 -0.0721
  399MOL0     H53815   1.686   2.611   8.114 -0.0680 -0.6074 -0.1276
  399MOL0     H53816   1.484   2.553   8.272  2.7227  2.3789 -1.1322
  399MOL0     H53817   1.454   2.286   8.576  2.5596  1.7436  0.0803
  399MOL0     H53818   1.398   2.444   8.572  1.2982 -1.2118  1.5765
  399MOL0     H53819   1.364   2.225   8.360  1.9685 -0.2469  0.6052
  399MOL0     H53820   1.301   2.390   8.333  3.2619 -1.2324 -1.7299
  399MOL0     H53821   1.163   2.367   8.522  1.9896  0.9462 -0.9799
  399MOL0     H53822   1.234   2.209   8.569 -1.9857 -1.3901  0.3391
  399MOL0     H53823   1.139   2.107   8.358 -0.0550 -0.0068 -1.0345
  399MOL0     H53824   1.091   2.261   8.295  3.5046 -1.1256 -1.3191
  399MOL0     H53825   0.976   2.093   8.190  0.7843  1.1652  0.0582
  399MOL0     H53826   0.898   2.048   7.993 -0.2311 -1.2942 -3.0116
  399MOL0     H53827   0.758   1.937   8.019  0.5565 -0.3986 -4.3305
  399MOL0     H53828   0.733   2.087   7.941  1.6417 -0.8675 -1.6826
  399MOL0     H53829   0.205   2.051   8.369 -0.5364  5.2483  0.3385
  399MOL0     H53830  -0.024   1.997   8.331  1.2988 -2.0002  0.7078
  399MOL0     H53831  -0.204   2.111   7.913 -2.7671  0.1565  1.0452
  399MOL0     H53832  -0.141   1.953   7.889 -0.7143  0.9563 -1.5182
  399MOL0     H53833  -0.347   1.852   7.952 -0.6346 -0.5872 -2.1717
  399MOL0     H53834  -0.390   2.021   8.030  1.0550 -0.3761 -0.6757
  399MOL0     H53835  -0.384   1.953   7.732 -0.0186  3.0027 -1.3634
  399MOL0     H53836  -0.418   2.104   7.811 -0.8662 -0.1075  4.0310
  399MOL0     H53837  -0.570   1.876   7.926 -0.2184  0.0939 -1.2567
  399MOL0     H53838  -0.624   2.039   7.909 -1.2401 -0.4225 -0.8100
  399MOL0     H53839  -0.613   1.864   7.658  0.1600  1.0782 -0.4327
  399MOL0     H53840  -0.684   2.008   7.682 -1.0305 -0.4027 -0.1531
  399MOL0     H53841  -0.874   1.936   7.751  0.1770  0.2730 -0.1263
  399MOL0     H53842  -0.836   1.768   7.704 -1.2048 -1.2185  1.8479
  399MOL0     H53843  -0.827   1.910   7.966  2.4761  1.5154 -2.2032
  399MOL0     H53844  -0.755   1.740   7.939  0.8667 -0.7246 -2.0998
  399MOL0     H53845  -0.953   1.638   7.882 -2.8368 -0.3490 -0.0520
  399MOL0     H53846  -1.029   1.793   7.852 -1.6948 -0.5677  1.5312
  399MOL0     H53847   0.052   2.033   7.910 -0.1308  0.9154 -0.0492
  399MOL0     H53848   0.293   2.089   7.961  0.5799 -1.1111 -0.8263
  399MOL0     H53849   0.545   2.170   8.405 -0.2748 -0.9379  0.6808
  399MOL0     H53850   0.729   2.241   8.516 -1.1947 -0.4935 -0.0546
  399MOL0     H53851   2.569   3.211   8.086  1.7407  1.1796 -0.3471
  399MOL0     H53852   2.794   3.251   8.207  4.7141  0.0608 -1.6859
  399MOL0     H53853   3.293   3.177   8.045 -0.8799  1.7967 -0.0222
  399MOL0     H53854   3.462   3.302   8.128  0.2586 -3.1285 -2.5543
  399MOL0     H53855   3.650   3.322   8.221 -2.3045  2.1359 -0.4449
  399MOL0     H53856   3.579   3.470   8.256 -0.1193  0.2219 -2.0756
  399MOL0     H53857   3.855   3.402   8.315 -1.5350  1.0748 -1.1468
  399MOL0     H53858   3.770   3.359   8.468  2.1997 -1.4838  0.4346
  399MOL0     H53859   3.673   3.613   8.478 -0.7914  0.3409 -1.9054
  399MOL0     H53860   3.756   3.637   8.327 -1.1759  2.4975  0.7313
  399MOL0     H53861   3.872   3.723   8.539 -0.3220 -1.0017  1.0180
  399MOL0     H53862   3.976   3.629   8.439  1.8142 -2.5861  1.4649
  399MOL0     H53863   3.996   3.359   8.747 -3.3617  1.3674  2.5987
  399MOL0     H53864   3.343   3.220   8.540  2.2215  1.1013 -0.6670
  399MOL0     H53865   3.134   3.122   8.447  3.5058 -1.4899  4.0616
  400MOL0     O53866   4.830   1.916   5.317  0.2769 -0.2558  0.4835
  400MOL0     C53867   4.717   1.936   5.366 -0.8376 -0.2724  0.1059
  400MOL0     O53868   4.686   1.902   5.491  0.5513  0.3318 -0.5309
  400MOL0     C53869   4.784   1.865   5.581  0.0362  0.8814  0.4444
  400MOL0     C53870   4.838   1.740   5.586  0.2247 -0.8070 -0.2029
  400MOL0     C53871   4.919   1.693   5.681 -0.7412  0.3784  0.0048
  400MOL0     C53872   4.958   1.776   5.784  1.4341  0.6282 -0.5208
  400MOL0     O53873   5.034   1.719   5.885 -0.4551  0.2500 -0.3242
  400MOL0     C53874   5.054   1.800   6.000 -0.0054  0.4718 -0.3661
  400MOL0     C53875   5.107   1.722   6.116 -0.3897  0.1240 -0.2437
  400MOL0     C53876   5.135   1.820   6.234 -0.6986 -0.9154  0.1175
  400MOL0     C53877   5.219   1.772   6.358 -0.1084 -1.4326 -0.2140
  400MOL0     C53878   5.144   1.670   6.435 -0.7297  0.8373 -1.1761
  400MOL0     C53879   5.237   1.613   6.546 -0.1664  0.5390 -0.0949
  400MOL0     C53880   5.148   1.531   6.643  0.2339  0.1520  0.6086
  400MOL0     C53881   5.228   1.453   6.744 -0.8223  0.1714 -0.2087
  400MOL0     N53882   5.340   1.526   6.803 -0.3044  0.3624  0.2096
  400MOL0     C53883   5.479   1.501   6.797 -0.6224 -0.4185 -0.0001
  400MOL0     C53884   5.539   1.607   6.869  0.1698  0.3180 -0.4492
  400MOL0     C53885   5.684   1.621   6.916  0.4668  0.4665 -0.0501
  400MOL0     C53886   5.771   1.676   6.804 -0.0282  0.3923 -0.6787
  400MOL0     C53887   5.917   1.674   6.866  0.3027 -0.8510  1.2287
  400MOL0     C53888   6.016   1.730   6.765  0.9757  0.4488  0.2697
  400MOL0     O53889   5.979   1.867   6.737  0.8334  0.1309  0.5832
  400MOL0     C53890   6.043   1.942   6.651  0.2771 -0.0399 -0.4691
  400MOL0     C53891   6.000   2.070   6.640 -0.1965 -0.7784  0.9639
  400MOL0     C53892   6.041   2.157   6.541  0.6706  0.0717  0.2134
  400MOL0     C53893   5.997   2.307   6.548 -0.9621  0.1055  0.0040
  400MOL0     C53894   6.137   2.111   6.446 -0.1196  0.3640 -0.6744
  400MOL0     C53895   6.201   2.207   6.352 -0.9988  0.1413 -0.4236
  400MOL0     O53896   6.255   2.320   6.403  0.8146  0.2982 -1.0197
  400MOL0     C53897   6.339   2.387   6.326  0.4548 -0.3674 -0.7954
  400MOL0     C53898   6.456   2.428   6.390  0.6403  0.3578  0.2211
  400MOL0     C53899   6.552   2.482   6.310 -0.5742  1.3842 -0.6230
  400MOL0     C53900   6.549   2.502   6.172  1.2925 -0.8775 -0.2794
  400MOL0     O53901   6.663   2.536   6.104 -0.3493  0.1006  0.5603
  400MOL0     C53902   6.663   2.630   6.000  1.2378  0.1173  0.4741
  400MOL0     C53903   6.661   2.759   6.070 -1.2466 -0.4694 -0.2919
  400MOL0     C53904   6.647   2.881   5.981 -0.8759  0.7705  0.4324
  400MOL0     C53905   6.669   3.010   6.066 -0.7251  1.4163 -0.1998
  400MOL0     C53906   6.631   3.143   6.002 -0.1114 -0.0859  0.9605
  400MOL0     C53907   6.705   3.159   5.862  0.5780  0.0480 -0.1959
  400MOL0     C53908   6.671   3.309   5.817 -0.0219  0.6156 -0.0154
  400MOL0     C53909   6.774   3.410   5.853  0.2571 -0.3038 -0.7633
  400MOL0    Cl53910   6.720   3.579   5.847 -0.1255  0.0296  0.1804
  400MOL0     C53911   6.424   2.481   6.118 -0.5969 -1.0385  0.3748
  400MOL0     C53912   6.319   2.425   6.193  0.0931 -0.2201  0.6288
  400MOL0     O53913   6.229   2.155   6.249 -0.0501 -0.3993 -0.1382
  400MOL0     C53914   6.191   1.982   6.466 -0.4830  0.4825 -0.2796
  400MOL0     C53915   6.141   1.898   6.565 -0.6908 -0.8574  0.6151
  400MOL0     N53916   5.433   1.679   6.915  0.1419 -0.4668 -0.4140
  400MOL0     N53917   5.322   1.640   6.866  0.0546 -0.2133  0.0351
  400MOL0     C53918   4.913   1.912   5.784 -0.4097 -0.1988 -0.1916
  400MOL0     C53919   4.827   1.950   5.683  0.1326 -0.6518  1.3417
  400MOL0     C53920   4.605   2.010   5.303  0.0114 -0.3217  0.1149
  400MOL0     C53921   4.522   2.095   5.383 -0.3404  0.0097 -1.1711
  400MOL0     C53922   4.416   2.165   5.315 -0.0212 -0.7806 -0.0816
  400MOL0     C53923   4.399   2.145   5.181  0.3468  0.4890  0.0220
  400MOL0     O53924   4.294   2.224   5.132 -0.1454 -0.5804  0.5495
  400MOL0     C53925   4.300   2.260   4.996  0.8544  0.3690  0.4307
  400MOL0     C53926   4.412   2.357   4.961 -0.4208  0.0633 -0.3341
  400MOL0     C53927   4.504   2.309   4.846 -0.5875  1.3492  0.3517
  400MOL0     C53928   4.607   2.421   4.819 -0.2224 -0.0904  1.0617
  400MOL0     C53929   4.539   2.526   4.742  0.0462 -0.5628  0.3207
  400MOL0     C53930   4.486   2.610   4.673 -0.3910 -0.4944  0.6337
  400MOL0     C53931   4.477   2.058   5.107  0.7229 -0.4574  0.2075
  400MOL0     C53932   4.583   1.995   5.164 -0.0225 -0.5341  0.3466
  400MOL0     H53933   4.812   1.675   5.503 -1.6341  1.5762 -1.6381
  400MOL0     H53934   4.939   1.587   5.679 -1.8068  0.1805 -0.8844
  400MOL0     H53935   5.130   1.872   5.970 -0.3068  0.7705 -0.4161
  400MOL0     H53936   4.959   1.845   6.029 -0.3178  0.0796 -0.7673
  400MOL0     H53937   5.029   1.648   6.138 -2.4873  1.8893 -1.3039
  400MOL0     H53938   5.201   1.677   6.084 -0.2702  1.8703 -2.6914
  400MOL0     H53939   5.191   1.899   6.183 -1.0679 -2.1651 -2.3569
  400MOL0     H53940   5.044   1.867   6.273 -1.0746 -1.2361 -0.3644
  400MOL0     H53941   5.317   1.736   6.328  1.1592  2.0259 -0.5953
  400MOL0     H53942   5.238   1.856   6.425  0.7661 -1.8199  0.0406
  400MOL0     H53943   5.060   1.710   6.493  1.2039  1.4651  1.3943
  400MOL0     H53944   5.126   1.587   6.366  0.3339 -0.1264 -0.3246
  400MOL0     H53945   5.310   1.543   6.504 -0.6646 -1.3659  2.0369
  400MOL0     H53946   5.277   1.702   6.594  0.1911  0.6430 -0.5813
  400MOL0     H53947   5.096   1.610   6.697  0.7951  2.6928 -2.3108
  400MOL0     H53948   5.085   1.454   6.597  1.1191 -2.2025  2.9951
  400MOL0     H53949   5.269   1.356   6.714  0.7235  0.5257  0.6552
  400MOL0     H53950   5.155   1.439   6.825  1.3693  2.3498  2.3522
  400MOL0     H53951   5.534   1.418   6.753  0.0626  0.3436 -0.6230
  400MOL0     H53952   5.683   1.688   7.002  0.7477 -0.5424  0.7621
  400MOL0     H53953   5.715   1.529   6.968 -1.7445  1.1937  2.8223
  400MOL0     H53954   5.744   1.778   6.774 -0.2618  0.3036 -0.7731
  400MOL0     H53955   5.774   1.612   6.714 -3.7050 -1.1808  0.1364
  400MOL0     H53956   5.950   1.577   6.901  1.0682 -0.1897  2.3853
  400MOL0     H53957   5.915   1.742   6.952 -3.6256  0.0003  0.6762
  400MOL0     H53958   6.026   1.659   6.683 -0.0361 -2.0751  2.2173
  400MOL0     H53959   6.114   1.729   6.815  2.0835 -0.0426 -1.7931
  400MOL0     H53960   5.918   2.091   6.708 -1.5166 -0.7451 -0.5956
  400MOL0     H53961   5.994   2.349   6.447  0.1998  2.0246  0.7195
  400MOL0     H53962   5.903   2.321   6.602 -2.0993 -0.5125 -1.7152
  400MOL0     H53963   6.073   2.364   6.601  2.8145 -1.2147 -3.4167
  400MOL0     H53964   6.469   2.404   6.495  1.3657  2.1116  0.5675
  400MOL0     H53965   6.649   2.501   6.354 -0.5779 -0.9428  0.5708
  400MOL0     H53966   6.745   2.601   5.934  0.2071 -1.7390 -0.0568
  400MOL0     H53967   6.576   2.635   5.935 -1.0821  0.6692  3.3947
  400MOL0     H53968   6.573   2.757   6.135 -0.0217 -3.2814  1.4627
  400MOL0     H53969   6.758   2.757   6.120 -1.1771  1.9410 -0.2251
  400MOL0     H53970   6.558   2.880   5.918  0.3684 -2.1564 -1.4749
  400MOL0     H53971   6.723   2.871   5.903 -2.7578 -1.5670 -1.2209
  400MOL0     H53972   6.617   3.000   6.162  3.0276 -1.4280  1.7988
  400MOL0     H53973   6.772   3.009   6.103  0.2673  2.6750 -2.6841
  400MOL0     H53974   6.661   3.224   6.069 -0.7729  2.5733 -1.7537
  400MOL0     H53975   6.524   3.152   5.987 -0.0210 -2.0478 -1.7114
  400MOL0     H53976   6.812   3.139   5.868  0.4122 -1.3533 -1.4167
  400MOL0     H53977   6.663   3.085   5.793 -0.9509  2.7344 -2.3638
  400MOL0     H53978   6.572   3.334   5.856  1.5976  3.8359  2.4754
  400MOL0     H53979   6.662   3.313   5.708 -2.9723  1.5504  0.1571
  400MOL0     H53980   6.863   3.398   5.789 -0.4847 -1.5984 -1.6056
  400MOL0     H53981   6.819   3.407   5.953  4.8612  2.6299 -2.3932
  400MOL0     H53982   6.406   2.481   6.011 -0.2802 -1.6071  0.3163
  400MOL0     H53983   6.225   2.400   6.146  2.0744 -0.7211 -3.5546
  400MOL0     H53984   6.259   1.932   6.398 -2.0239 -2.8763  0.4703
  400MOL0     H53985   6.200   1.808   6.578  1.3003  0.6173  2.5500
  400MOL0     H53986   4.956   1.980   5.856  0.6121 -2.6242  1.6107
  400MOL0     H53987   4.789   2.052   5.682 -2.9754 -1.7244  1.3131
  400MOL0     H53988   4.525   2.104   5.491 -0.7030  0.2464 -1.1819
  400MOL0     H53989   4.353   2.229   5.376  3.2113 -0.0127  2.8122
  400MOL0     H53990   4.312   2.171   4.934 -0.0965 -1.4722  2.7370
  400MOL0     H53991   4.206   2.315   4.978  2.1663  2.8646  0.8094
  400MOL0     H53992   4.470   2.366   5.053 -0.7434  1.6005 -0.2594
  400MOL0     H53993   4.373   2.457   4.942 -3.3931 -0.8734  0.3609
  400MOL0     H53994   4.435   2.294   4.761 -2.3610  0.3459  1.8914
  400MOL0     H53995   4.559   2.216   4.859 -0.4209  1.6298  1.7452
  400MOL0     H53996   4.693   2.386   4.760  0.2310  1.7567  0.5709
  400MOL0     H53997   4.646   2.446   4.918  0.6946  1.1623  0.4038
  400MOL0     H53998   4.460   2.677   4.594  0.1843  2.1270  2.5466
  400MOL0     H53999   4.463   2.043   5.001  2.2986  0.5352 -0.1873
  400MOL0     H54000   4.653   1.927   5.117 -0.8568 -1.4306  0.3756
  401MOL0     O54001   5.437   4.994   2.886  0.4827  0.6576 -0.0986
  401MOL0     C54002   5.467   4.879   2.932 -1.3313  0.8321 -0.2262
  401MOL0     O54003   5.387   4.777   2.942  0.5616 -0.1398 -0.4557
  401MOL0     C54004   5.257   4.813   2.932  0.2509 -0.5372 -0.1541
  401MOL0     C54005   5.194   4.853   2.810 -0.8747 -0.2435 -0.1965
  401MOL0     C54006   5.057   4.873   2.798  0.4060 -0.3143  0.5148
  401MOL0     C54007   4.977   4.868   2.914 -1.2221  0.4158  1.0689
  401MOL0     O54008   4.844   4.872   2.887 -0.1440 -0.0606  0.3943
  401MOL0     C54009   4.744   4.891   3.000 -0.6153  0.2593  0.3441
  401MOL0     C54010   4.715   5.044   3.010  0.0417  0.4717 -0.4631
  401MOL0     C54011   4.588   5.081   3.090  0.5736 -0.2483 -0.5930
  401MOL0     C54012   4.572   5.230   3.084 -0.5555  0.7471 -0.0011
  401MOL0     C54013   4.474   5.284   3.188  0.5089  0.2827  0.3131
  401MOL0     C54014   4.467   5.436   3.199  0.7033  0.4729  0.5789
  401MOL0     C54015   4.382   5.469   3.320  0.4212 -0.0143  0.7021
  401MOL0     C54016   4.367   5.623   3.343 -0.4429  0.1307  0.5700
  401MOL0     N54017   4.299   5.681   3.231 -0.2504 -0.2060  0.5727
  401MOL0     C54018   4.347   5.800   3.182 -0.3448  0.7326  0.0309
  401MOL0     C54019   4.250   5.843   3.094  0.4881  0.5183 -0.3280
  401MOL0     C54020   4.266   5.970   3.014 -0.6421 -0.2917  0.6837
  401MOL0     C54021   4.126   6.010   2.952 -0.1049  0.9527  0.4324
  401MOL0     C54022   4.135   6.140   2.868  0.0716 -0.8563  0.5114
  401MOL0     C54023   4.002   6.170   2.807 -0.6393 -0.3771 -0.7520
  401MOL0     O54024   3.892   6.163   2.901  0.3247 -0.1674  0.8339
  401MOL0     C54025   3.854   6.267   2.982  0.9158  1.0996  0.1487
  401MOL0     C54026   3.771   6.229   3.084 -0.6468 -0.3547  0.0534
  401MOL0     C54027   3.711   6.327   3.160 -0.3703 -0.0605  0.8613
  401MOL0     C54028   3.603   6.278   3.257  0.3959  0.0618  0.6497
  401MOL0     C54029   3.754   6.466   3.143 -0.5994  0.2091  0.7923
  401MOL0     C54030   3.686   6.579   3.214 -0.7348  0.2810 -0.7796
  401MOL0     O54031   3.763   6.689   3.241  0.5891  0.7735  0.0009
  401MOL0     C54032   3.731   6.815   3.266 -0.4224 -0.5115  0.4686
  401MOL0     C54033   3.632   6.843   3.351  0.9974 -0.4441  0.3424
  401MOL0     C54034   3.598   6.975   3.388 -0.3430  0.6392  0.2098
  401MOL0     C54035   3.667   7.082   3.320 -0.0255 -0.4196  0.3612
  401MOL0     O54036   3.640   7.211   3.336  0.6659 -0.0842 -0.2948
  401MOL0     C54037   3.563   7.252   3.457 -0.1480  0.1962 -0.2129
  401MOL0     C54038   3.545   7.405   3.458 -0.1274  0.4077  0.4175
  401MOL0     C54039   3.683   7.474   3.454 -0.7473  0.4380  0.2207
  401MOL0     C54040   3.779   7.427   3.573  0.8451  0.8892 -0.6205
  401MOL0     C54041   3.899   7.515   3.597 -1.0472 -0.3274  0.4388
  401MOL0     C54042   3.991   7.535   3.477 -0.1537  0.0200  0.0306
  401MOL0     C54043   4.122   7.615   3.514  0.3836 -0.1710  0.0890
  401MOL0     C54044   4.155   7.716   3.405 -0.7668  0.1231  0.0627
  401MOL0    Cl54045   4.220   7.629   3.266 -0.1048 -0.5974  0.2140
  401MOL0     C54046   3.781   7.052   3.246  0.0707  0.0137  0.0075
  401MOL0     C54047   3.807   6.916   3.213 -0.2754  0.3416  0.5124
  401MOL0     O54048   3.567   6.564   3.247 -0.0239 -0.0012  0.6401
  401MOL0     C54049   3.856   6.495   3.056  0.2201 -0.2480  0.6505
  401MOL0     C54050   3.912   6.392   2.974 -0.5657  0.4992  0.2809
  401MOL0     N54051   4.157   5.743   3.093 -0.8985  1.5670 -0.3386
  401MOL0     N54052   4.184   5.650   3.171  0.5652  0.5281  0.1466
  401MOL0     C54053   5.040   4.839   3.039 -0.1325  0.7925 -0.1796
  401MOL0     C54054   5.179   4.814   3.045  1.2836  0.1969 -0.6189
  401MOL0     C54055   5.606   4.864   2.976 -0.6416 -1.3004 -0.4393
  401MOL0     C54056   5.696   4.983   2.981 -0.7028  0.5811  0.5660
  401MOL0     C54057   5.829   4.953   3.000 -1.1292 -0.3577 -0.1502
  401MOL0     C54058   5.885   4.825   3.025 -0.1681  0.7959  1.1037
  401MOL0     O54059   6.017   4.818   3.066  0.1409  0.9807  0.2474
  401MOL0     C54060   6.085   4.687   3.073  0.2092  0.6972 -0.0773
  401MOL0     C54061   6.175   4.668   2.948  0.0429 -0.3217 -0.6053
  401MOL0     C54062   6.258   4.545   2.931 -0.7075  0.0689  0.3221
  401MOL0     C54063   6.370   4.515   3.032 -0.2394 -0.0070  0.4592
  401MOL0     C54064   6.490   4.603   3.002 -0.0948 -0.4602  0.0609
  401MOL0     C54065   6.577   4.694   2.988  1.0036  0.3445  0.2376
  401MOL0     C54066   5.798   4.718   3.033 -0.2844  0.4410  0.8147
  401MOL0     C54067   5.664   4.736   3.000  0.4387  0.5458 -0.7606
  401MOL0     H54068   5.264   4.877   2.730 -0.6923  3.6094  0.8887
  401MOL0     H54069   5.023   4.891   2.697  1.4871 -1.0912 -0.0182
  401MOL0     H54070   4.651   4.844   2.969 -0.9372 -0.5288  2.3419
  401MOL0     H54071   4.765   4.837   3.093 -0.2811 -0.6377 -0.2294
  401MOL0     H54072   4.795   5.095   3.065  0.0927  0.3087 -0.3848
  401MOL0     H54073   4.706   5.089   2.911  2.8270  0.8167 -0.6366
  401MOL0     H54074   4.496   5.035   3.053 -0.8487  2.4197 -0.6098
  401MOL0     H54075   4.604   5.052   3.194 -0.0238 -1.7715 -0.9025
  401MOL0     H54076   4.670   5.278   3.088  0.4785 -1.1036 -1.2089
  401MOL0     H54077   4.532   5.259   2.987  1.5161  0.4444 -0.9977
  401MOL0     H54078   4.371   5.252   3.169  0.8485 -0.0057 -1.1610
  401MOL0     H54079   4.499   5.242   3.286 -2.1898 -0.8222  0.6150
  401MOL0     H54080   4.572   5.464   3.215  0.3685  1.5015  1.1201
  401MOL0     H54081   4.431   5.480   3.106  0.1611  0.5898  0.8367
  401MOL0     H54082   4.285   5.420   3.307  0.2685  0.9028 -2.6685
  401MOL0     H54083   4.421   5.427   3.413 -1.8303 -0.5807  1.4558
  401MOL0     H54084   4.466   5.667   3.358  0.9063 -1.6041 -2.2951
  401MOL0     H54085   4.311   5.645   3.434  0.2416 -0.0912  1.0519
  401MOL0     H54086   4.442   5.838   3.216 -1.3675  0.9071  3.0276
  401MOL0     H54087   4.291   6.057   3.075 -2.6024  0.3625  0.6218
  401MOL0     H54088   4.338   5.961   2.932  0.1397  1.2016  1.1769
  401MOL0     H54089   4.049   6.039   3.025 -0.7802  1.3448 -0.4182
  401MOL0     H54090   4.094   5.926   2.890  0.9977 -0.2373  1.4178
  401MOL0     H54091   4.206   6.138   2.785 -0.5364  0.8392 -0.0889
  401MOL0     H54092   4.170   6.217   2.936  0.3343 -0.4095 -0.1143
  401MOL0     H54093   3.990   6.099   2.725  3.2580 -2.2230  0.0534
  401MOL0     H54094   3.990   6.272   2.768 -2.1238  0.0865  0.7668
  401MOL0     H54095   3.729   6.129   3.078 -0.0354 -0.5456 -1.4829
  401MOL0     H54096   3.635   6.311   3.356  0.2088 -0.3019  0.8363
  401MOL0     H54097   3.505   6.321   3.234 -0.1781  2.0737  5.5370
  401MOL0     H54098   3.585   6.170   3.261 -3.1685  0.4429 -0.9286
  401MOL0     H54099   3.575   6.761   3.396 -0.9270 -1.3258 -3.3318
  401MOL0     H54100   3.517   6.999   3.456 -2.5503  1.4426 -2.5197
  401MOL0     H54101   3.461   7.216   3.470 -0.8369  2.4641  1.3485
  401MOL0     H54102   3.610   7.236   3.555 -2.4411  3.8685  1.7029
  401MOL0     H54103   3.488   7.436   3.369 -0.4702 -2.9698 -0.6975
  401MOL0     H54104   3.486   7.426   3.548 -1.0197 -1.0269  0.2078
  401MOL0     H54105   3.666   7.582   3.455 -0.8730  0.5416 -3.1530
  401MOL0     H54106   3.730   7.451   3.358  3.5851 -1.2934  2.4732
  401MOL0     H54107   3.726   7.433   3.669  1.3644  0.1894 -0.2747
  401MOL0     H54108   3.807   7.324   3.548  0.0146  0.7323 -0.9456
  401MOL0     H54109   3.959   7.456   3.667  0.4925 -0.9287 -1.3014
  401MOL0     H54110   3.858   7.611   3.628  0.1631  1.2092 -2.2935
  401MOL0     H54111   4.021   7.441   3.430 -0.7470 -0.0626 -0.1910
  401MOL0     H54112   3.930   7.571   3.394  1.5266 -0.9750 -1.7181
  401MOL0     H54113   4.204   7.543   3.525 -0.3323 -1.0652 -0.2625
  401MOL0     H54114   4.108   7.667   3.609 -0.9067 -0.9400  0.3455
  401MOL0     H54115   4.223   7.791   3.446  0.7629 -1.7428  1.1355
  401MOL0     H54116   4.062   7.763   3.371 -1.6794 -3.7890 -3.8963
  401MOL0     H54117   3.848   7.132   3.216  2.1485  0.1545  4.2568
  401MOL0     H54118   3.894   6.898   3.150 -2.1191  1.1400 -2.5241
  401MOL0     H54119   3.899   6.595   3.058  0.8101 -0.4802  0.2001
  401MOL0     H54120   3.990   6.416   2.903 -0.4258 -0.3701  0.1422
  401MOL0     H54121   4.973   4.845   3.124  1.1722 -4.1233  1.4845
  401MOL0     H54122   5.229   4.773   3.133 -0.8508  0.5071  0.8046
  401MOL0     H54123   5.652   5.081   2.965 -2.0536 -0.0687  0.1849
  401MOL0     H54124   5.907   5.028   2.998  0.1793 -1.6273 -3.1872
  401MOL0     H54125   6.152   4.690   3.159  0.3255 -0.1930 -0.1226
  401MOL0     H54126   6.025   4.600   3.102 -0.2444  0.8343 -0.5829
  401MOL0     H54127   6.235   4.759   2.933 -0.2211 -0.0398  0.0038
  401MOL0     H54128   6.102   4.666   2.867  0.3403 -0.1742 -0.8816
  401MOL0     H54129   6.291   4.541   2.827  2.1649  1.6811  1.0792
  401MOL0     H54130   6.199   4.453   2.942  0.5488 -0.5202  2.8643
  401MOL0     H54131   6.402   4.413   3.012 -1.2273  0.4407 -4.8456
  401MOL0     H54132   6.342   4.514   3.138 -1.2933  0.7386  0.2062
  401MOL0     H54133   6.637   4.782   2.988  2.3051 -0.2449 -4.8367
  401MOL0     H54134   5.825   4.618   3.066 -0.7678 -0.0875 -0.3366
  401MOL0     H54135   5.607   4.643   3.003  0.9053  0.2388 -1.3898
  402MOL0     O54136   4.787   6.674   0.407 -0.1746  0.6209  0.6563
  402MOL0     C54137   4.856   6.772   0.400 -0.4774 -0.1960 -0.1555
  402MOL0     O54138   4.950   6.803   0.305 -0.0957 -0.1210  0.6001
  402MOL0     C54139   4.983   6.706   0.212  0.7930 -0.2509 -0.6071
  402MOL0     C54140   5.065   6.595   0.248 -0.0223 -0.2238  0.4357
  402MOL0     C54141   5.080   6.479   0.162  0.4527 -0.2847  1.0998
  402MOL0     C54142   5.016   6.484   0.030 -0.9237  1.1737 -0.5816
  402MOL0     O54143   5.034   6.386  -0.064  0.4693  0.3949  0.4442
  402MOL0     C54144   5.139   6.289  -0.026 -0.6688  1.0745 -0.5372
  402MOL0     C54145   5.138   6.180  -0.132 -0.4748  0.9037  0.6773
  402MOL0     C54146   4.999   6.121  -0.159 -0.8219 -0.0626 -0.2714
  402MOL0     C54147   5.017   6.005  -0.259  0.1149  0.7928 -0.2064
  402MOL0     C54148   4.878   5.952  -0.314 -0.6685  0.5653  0.5024
  402MOL0     C54149   4.911   5.851  -0.426 -0.1243 -0.6234 -0.3779
  402MOL0     C54150   4.781   5.824  -0.495  1.1898 -0.4681  0.9517
  402MOL0     C54151   4.762   5.886  -0.631 -0.0952 -0.1899  0.6474
  402MOL0     N54152   4.661   5.815  -0.710  0.7735 -1.0310  0.0068
  402MOL0     C54153   4.671   5.685  -0.753  0.5311  0.1732 -0.4017
  402MOL0     C54154   4.553   5.658  -0.811  0.1448  0.3841  0.4153
  402MOL0     C54155   4.512   5.520  -0.856  0.7187 -0.5875  0.6559
  402MOL0     C54156   4.544   5.518  -1.005  0.3793 -0.2918  0.1219
  402MOL0     C54157   4.468   5.612  -1.098 -0.1952 -0.4665 -0.7266
  402MOL0     C54158   4.474   5.571  -1.249  0.4610 -0.7053 -0.0448
  402MOL0     O54159   4.391   5.462  -1.280 -0.1145  0.2594 -0.5748
  402MOL0     C54160   4.406   5.421  -1.404 -0.6595  0.1255  1.3887
  402MOL0     C54161   4.383   5.287  -1.439 -0.4946  0.5902 -0.1696
  402MOL0     C54162   4.408   5.228  -1.561  0.2197  0.8375 -0.4336
  402MOL0     C54163   4.382   5.080  -1.574  0.7132  0.5762 -0.2649
  402MOL0     C54164   4.459   5.311  -1.665 -0.8383  0.3569 -0.1377
  402MOL0     C54165   4.512   5.264  -1.796 -0.0020  0.0433  0.1261
  402MOL0     O54166   4.576   5.362  -1.875  0.1088  0.7875 -0.4329
  402MOL0     C54167   4.600   5.334  -2.005  0.0844 -0.6513  0.7579
  402MOL0     C54168   4.589   5.437  -2.095  0.4741 -0.0824  0.3200
  402MOL0     C54169   4.629   5.436  -2.233 -0.8769  0.1958  0.4889
  402MOL0     C54170   4.661   5.311  -2.286 -0.4337 -0.1751  0.1013
  402MOL0     O54171   4.670   5.314  -2.424  0.2801  0.3261  0.2700
  402MOL0     C54172   4.726   5.197  -2.489 -0.0870 -0.5710 -0.6549
  402MOL0     C54173   4.710   5.218  -2.636  0.0642  0.0917 -0.3177
  402MOL0     C54174   4.571   5.236  -2.705  0.0707  0.0583 -0.4581
  402MOL0     C54175   4.591   5.270  -2.855 -0.4803  0.1355  0.7031
  402MOL0     C54176   4.450   5.295  -2.914 -0.4271  1.0387 -0.0242
  402MOL0     C54177   4.443   5.243  -3.055  0.8722  0.0437 -0.7472
  402MOL0     C54178   4.297   5.235  -3.095 -0.2812  0.5385 -0.9087
  402MOL0     C54179   4.273   5.191  -3.239 -0.0139  0.8905 -0.9963
  402MOL0    Cl54180   4.315   5.018  -3.257 -0.5590  0.1109  0.4986
  402MOL0     C54181   4.688   5.208  -2.198 -0.3201  0.4383 -0.5982
  402MOL0     C54182   4.658   5.220  -2.060 -0.8166  0.0166  1.1317
  402MOL0     O54183   4.464   5.161  -1.842 -0.1357 -0.6594 -0.3719
  402MOL0     C54184   4.482   5.446  -1.634 -0.7894  0.4707  0.7087
  402MOL0     C54185   4.454   5.505  -1.509  1.0090  0.1378 -0.6214
  402MOL0     N54186   4.470   5.770  -0.791 -0.6061 -0.1777  0.6198
  402MOL0     N54187   4.538   5.867  -0.741  0.4913  0.3634  0.3549
  402MOL0     C54188   4.939   6.596  -0.002 -0.4621 -0.4459 -0.0616
  402MOL0     C54189   4.919   6.704   0.089  0.3186  0.4658  0.7439
  402MOL0     C54190   4.841   6.870   0.511  0.4128 -0.7598 -0.3042
  402MOL0     C54191   4.902   7.002   0.502  0.5888 -0.5800  0.7079
  402MOL0     C54192   4.901   7.090   0.612  0.6174  0.6075 -0.3007
  402MOL0     C54193   4.834   7.056   0.727 -0.1370  0.2466 -0.2947
  402MOL0     O54194   4.850   7.121   0.842 -0.4740 -0.2750 -0.6729
  402MOL0     C54195   4.757   7.219   0.875  0.4310  0.1137  0.4475
  402MOL0     C54196   4.819   7.322   0.967 -0.1907 -0.0332 -0.2845
  402MOL0     C54197   4.902   7.425   0.900  0.0646 -0.0315  0.2000
  402MOL0     C54198   4.897   7.552   0.990 -0.4475  0.2698 -0.3085
  402MOL0     C54199   5.013   7.640   0.945  0.6274  0.1588  0.2123
  402MOL0     C54200   5.093   7.727   0.930  0.7551 -0.6786  0.4534
  402MOL0     C54201   4.748   6.939   0.723  0.5865 -0.5478 -0.4854
  402MOL0     C54202   4.760   6.843   0.623  0.7218 -0.3986 -0.5536
  402MOL0     H54203   5.112   6.594   0.345  0.5334 -0.5988  0.1659
  402MOL0     H54204   5.138   6.397   0.201  0.0992 -1.1941 -0.2124
  402MOL0     H54205   5.239   6.331  -0.018 -0.9987  2.3007 -2.2481
  402MOL0     H54206   5.113   6.252   0.073  0.7954  0.0185 -0.5215
  402MOL0     H54207   5.182   6.212  -0.227 -2.6986 -1.4281 -1.2752
  402MOL0     H54208   5.205   6.101  -0.097 -0.2662 -0.2530 -2.0611
  402MOL0     H54209   4.955   6.084  -0.066 -0.4364 -0.0233 -0.0687
  402MOL0     H54210   4.945   6.203  -0.208  1.2677  2.6723  1.6640
  402MOL0     H54211   5.079   6.047  -0.339 -0.3426  3.1689  0.6112
  402MOL0     H54212   5.069   5.923  -0.209 -2.0262  1.5604  3.6609
  402MOL0     H54213   4.830   5.892  -0.236  0.8807 -0.6684  0.5579
  402MOL0     H54214   4.815   6.030  -0.357 -1.2909 -0.9160 -1.3999
  402MOL0     H54215   4.976   5.915  -0.487 -0.1623  0.9142  1.1166
  402MOL0     H54216   4.969   5.768  -0.386  2.2839  1.4329  0.6676
  402MOL0     H54217   4.762   5.716  -0.501  2.0292 -0.5661 -0.6310
  402MOL0     H54218   4.693   5.852  -0.437 -0.5629 -0.6997 -1.4182
  402MOL0     H54219   4.858   5.866  -0.678  0.4391  2.2401  0.5793
  402MOL0     H54220   4.745   5.993  -0.613  1.3338  0.5131 -1.7472
  402MOL0     H54221   4.750   5.611  -0.743 -0.7873 -1.4024 -1.2851
  402MOL0     H54222   4.561   5.438  -0.803  0.2380 -1.3700 -0.0618
  402MOL0     H54223   4.405   5.500  -0.846  0.0832  0.7312 -2.2295
  402MOL0     H54224   4.526   5.418  -1.043  1.6328  0.4887 -2.8221
  402MOL0     H54225   4.653   5.531  -1.004  0.4984 -1.1872 -0.2954
  402MOL0     H54226   4.492   5.718  -1.090  1.3565 -0.7768 -0.9696
  402MOL0     H54227   4.365   5.608  -1.062 -0.9069  1.4711 -2.3406
  402MOL0     H54228   4.576   5.567  -1.288  0.8784  4.4393 -0.2421
  402MOL0     H54229   4.421   5.649  -1.306 -2.7417 -1.9444  0.9788
  402MOL0     H54230   4.334   5.226  -1.364 -1.7155 -0.5411 -1.8176
  402MOL0     H54231   4.303   5.057  -1.646 -0.2860 -3.5412  1.8247
  402MOL0     H54232   4.469   5.022  -1.606  0.4832 -0.9728  1.7189
  402MOL0     H54233   4.343   5.034  -1.482  1.9131  1.8761  0.9433
  402MOL0     H54234   4.549   5.531  -2.059 -3.1119  0.3168 -3.7985
  402MOL0     H54235   4.614   5.524  -2.294  0.6969 -0.0094 -0.2223
  402MOL0     H54236   4.828   5.181  -2.455 -1.4177 -0.2830  4.2466
  402MOL0     H54237   4.668   5.110  -2.459 -0.3067 -1.1015 -2.4760
  402MOL0     H54238   4.773   5.302  -2.666  1.9440 -0.6587  1.3139
  402MOL0     H54239   4.754   5.128  -2.680 -0.0628 -0.4084  0.5380
  402MOL0     H54240   4.535   5.323  -2.649  4.9914  0.3351  2.8618
  402MOL0     H54241   4.504   5.150  -2.702 -0.0013  0.0784 -1.2397
  402MOL0     H54242   4.639   5.368  -2.871  0.4889 -0.2130  1.4155
  402MOL0     H54243   4.655   5.195  -2.902 -1.8404 -0.9168  0.4953
  402MOL0     H54244   4.426   5.401  -2.900  0.4700  0.8838  3.8996
  402MOL0     H54245   4.382   5.233  -2.856 -0.3829 -1.7348 -2.7174
  402MOL0     H54246   4.502   5.308  -3.120  0.5836  1.5166  0.4313
  402MOL0     H54247   4.468   5.136  -3.055 -3.1873 -1.0740 -1.8146
  402MOL0     H54248   4.257   5.336  -3.087 -0.2382  0.4510  0.8890
  402MOL0     H54249   4.239   5.169  -3.030 -0.5801  0.3721 -1.3453
  402MOL0     H54250   4.341   5.245  -3.306  0.6626 -0.6333 -1.5767
  402MOL0     H54251   4.166   5.195  -3.264 -0.3837  2.8377  0.6776
  402MOL0     H54252   4.716   5.111  -2.238 -0.5180 -0.3602  1.0977
  402MOL0     H54253   4.681   5.133  -1.999 -0.4452  1.4519  3.1195
  402MOL0     H54254   4.526   5.503  -1.715  1.4706 -1.9943  0.0709
  402MOL0     H54255   4.480   5.606  -1.479  1.7426 -1.6462  6.3945
  402MOL0     H54256   4.894   6.594  -0.100  0.3832 -3.1025 -0.4789
  402MOL0     H54257   4.834   6.771   0.076 -1.8750 -2.5989 -3.1111
  402MOL0     H54258   4.948   7.048   0.415 -1.3037  1.1390  0.5266
  402MOL0     H54259   4.949   7.187   0.606 -0.0693  1.3856  3.5830
  402MOL0     H54260   4.725   7.271   0.784 -0.1330  1.6856  1.5066
  402MOL0     H54261   4.664   7.170   0.905  1.6184 -1.8471  1.1015
  402MOL0     H54262   4.871   7.269   1.048 -1.8801 -1.5265 -0.1205
  402MOL0     H54263   4.735   7.376   1.011  0.6235  0.3134  0.9079
  402MOL0     H54264   4.864   7.446   0.800  3.4027 -0.3897 -1.2679
  402MOL0     H54265   5.000   7.378   0.894  0.8036  1.2101  1.8209
  402MOL0     H54266   4.908   7.525   1.095  1.6513 -1.3865 -0.8964
  402MOL0     H54267   4.808   7.613   0.972 -0.3547 -0.3214 -3.2596
  402MOL0     H54268   5.151   7.815   0.909 -0.7616  0.1604 -0.4205
  402MOL0     H54269   4.708   6.925   0.823 -0.7391  0.7865 -0.7985
  402MOL0     H54270   4.711   6.746   0.628  3.1616 -1.6678  0.2367
  403MOL0     O54271   8.144   3.416   8.215 -0.4390  0.9429 -0.8699
  403MOL0     C54272   8.237   3.371   8.147  0.9288  0.5338 -0.9554
  403MOL0     O54273   8.235   3.354   8.018 -0.6454 -0.2060 -0.1817
  403MOL0     C54274   8.126   3.297   7.965 -0.8498 -0.4404  0.7406
  403MOL0     C54275   8.046   3.368   7.874 -0.7463 -0.2039  0.0539
  403MOL0     C54276   7.923   3.326   7.822 -0.2579  0.3349 -0.3360
  403MOL0     C54277   7.871   3.203   7.866 -0.5320  0.2856  0.5933
  403MOL0     O54278   7.744   3.180   7.827 -0.3263 -0.2151  0.0044
  403MOL0     C54279   7.684   3.060   7.873  0.2065 -0.0609 -1.1985
  403MOL0     C54280   7.729   2.944   7.783 -0.4779 -0.5494 -0.2603
  403MOL0     C54281   7.632   2.819   7.790 -0.4517 -0.1513  1.1508
  403MOL0     C54282   7.498   2.828   7.710  0.2648 -0.3644 -0.4024
  403MOL0     C54283   7.402   2.715   7.720 -0.0331  0.1136 -0.8974
  403MOL0     C54284   7.256   2.737   7.694  0.3062 -0.1869  1.0987
  403MOL0     C54285   7.169   2.611   7.722  0.9063 -0.5922 -0.7250
  403MOL0     C54286   7.017   2.646   7.729  0.5248 -0.4023 -0.4876
  403MOL0     N54287   6.950   2.530   7.781  0.5075 -0.4225 -0.5657
  403MOL0     C54288   6.917   2.421   7.703  0.4055 -0.6091  0.5809
  403MOL0     C54289   6.817   2.358   7.767  0.2886 -0.5190  0.1414
  403MOL0     C54290   6.743   2.231   7.730  0.5397  0.1344 -0.3508
  403MOL0     C54291   6.840   2.117   7.703 -0.0821  0.7891 -0.0914
  403MOL0     C54292   6.938   2.073   7.812  0.0534  1.0398 -0.1841
  403MOL0     C54293   7.063   2.159   7.828  0.1930  0.4199 -0.4414
  403MOL0     O54294   7.135   2.161   7.697  0.6024  0.1303 -0.2563
  403MOL0     C54295   7.268   2.208   7.688 -0.1309 -0.7979 -0.7969
  403MOL0     C54296   7.334   2.265   7.793 -0.1010 -0.6829 -0.1108
  403MOL0     C54297   7.465   2.323   7.785  0.4240 -0.9064  0.1958
  403MOL0     C54298   7.519   2.390   7.912  0.4474  0.1474 -1.5862
  403MOL0     C54299   7.533   2.306   7.660  0.7298  0.2380  0.7158
  403MOL0     C54300   7.674   2.355   7.657  0.5811  0.7100 -0.4447
  403MOL0     O54301   7.710   2.413   7.536 -0.8716  0.1552  0.0292
  403MOL0     C54302   7.846   2.420   7.524 -0.3069  0.9339 -0.0625
  403MOL0     C54303   7.932   2.515   7.586  0.6209  1.5665  0.1632
  403MOL0     C54304   8.069   2.515   7.544 -0.2766 -0.1042  0.1352
  403MOL0     C54305   8.126   2.419   7.461 -0.0729 -1.2110 -0.6380
  403MOL0     O54306   8.259   2.397   7.429 -0.2401 -0.1167 -0.4023
  403MOL0     C54307   8.349   2.501   7.476 -1.7406 -0.4002 -1.4588
  403MOL0     C54308   8.488   2.462   7.427  0.1686 -1.0750 -0.3142
  403MOL0     C54309   8.501   2.434   7.280  0.2138  0.0787 -0.4028
  403MOL0     C54310   8.629   2.383   7.242  0.1249 -0.4040  1.0532
  403MOL0     C54311   8.651   2.362   7.087  1.2372 -1.0627 -0.1150
  403MOL0     C54312   8.794   2.318   7.055  0.6717  0.0152  0.8422
  403MOL0     C54313   8.907   2.422   7.079 -0.5714  0.2742  0.4386
  403MOL0     C54314   9.045   2.370   7.069  0.4908  0.3333  0.0871
  403MOL0    Cl54315   9.078   2.283   6.915  0.1664  0.0077 -0.0658
  403MOL0     C54316   8.051   2.324   7.411  0.1641 -0.4130  0.5477
  403MOL0     C54317   7.911   2.329   7.436 -0.9189  0.6472  0.1749
  403MOL0     O54318   7.749   2.345   7.753  0.0623  0.1300  0.1877
  403MOL0     C54319   7.468   2.246   7.547 -0.6007 -0.2681 -0.6530
  403MOL0     C54320   7.331   2.194   7.567 -0.2520  0.1391  0.5814
  403MOL0     N54321   6.794   2.425   7.884 -0.3766 -0.4976 -0.4650
  403MOL0     N54322   6.883   2.520   7.896 -0.1469 -0.3680  0.0473
  403MOL0     C54323   7.944   3.135   7.961  0.0180  0.3793 -0.0815
  403MOL0     C54324   8.066   3.187   8.014 -0.5376  0.0885 -0.5169
  403MOL0     C54325   8.366   3.350   8.212 -0.0174 -0.3625  0.7303
  403MOL0     C54326   8.376   3.377   8.348  0.1303  0.7831  0.3259
  403MOL0     C54327   8.495   3.381   8.413 -0.2995 -0.1462 -0.4746
  403MOL0     C54328   8.617   3.355   8.333 -0.3904  0.6958 -0.6650
  403MOL0     O54329   8.734   3.344   8.407 -0.1346  0.5881 -0.2517
  403MOL0     C54330   8.860   3.356   8.341  0.0449 -0.3033  0.1824
  403MOL0     C54331   8.906   3.503   8.319  0.9655  0.0568  0.3191
  403MOL0     C54332   8.806   3.607   8.263  0.5110  0.3040 -0.3224
  403MOL0     C54333   8.839   3.754   8.300  0.0684 -0.0358  0.1566
  403MOL0     C54334   8.737   3.851   8.241 -0.6322  0.6592 -0.6213
  403MOL0     C54335   8.659   3.931   8.202  0.9185  0.6328 -0.3056
  403MOL0     C54336   8.612   3.332   8.199 -0.2922  1.5258  1.5489
  403MOL0     C54337   8.484   3.322   8.141 -0.0182 -0.0230  0.4610
  403MOL0     H54338   8.088   3.456   7.825 -1.1828  0.0782  0.1838
  403MOL0     H54339   7.877   3.385   7.743  0.7964  2.8670  0.8390
  403MOL0     H54340   7.703   3.022   7.974 -3.9016 -0.4257 -0.3635
  403MOL0     H54341   7.576   3.075   7.881  0.3884  0.5934  0.4130
  403MOL0     H54342   7.722   2.980   7.680 -0.3685 -0.9296 -0.4023
  403MOL0     H54343   7.834   2.917   7.804 -0.5357 -0.0967  0.6723
  403MOL0     H54344   7.687   2.738   7.742  1.1511  0.9126  1.0899
  403MOL0     H54345   7.623   2.790   7.895  2.7414 -1.4916  1.1687
  403MOL0     H54346   7.448   2.915   7.754 -2.3178 -2.1850  0.4311
  403MOL0     H54347   7.527   2.844   7.605  3.0838  0.8500  0.4440
  403MOL0     H54348   7.449   2.634   7.662  1.4314  1.3227 -1.4705
  403MOL0     H54349   7.407   2.688   7.826  2.2991  2.2201 -0.3762
  403MOL0     H54350   7.224   2.830   7.743  2.6159 -0.4812  3.3763
  403MOL0     H54351   7.255   2.759   7.586  3.4929  1.7555  1.3135
  403MOL0     H54352   7.191   2.541   7.641  0.3983 -0.4177 -1.0220
  403MOL0     H54353   7.204   2.572   7.818 -0.1699 -0.3085 -0.2041
  403MOL0     H54354   6.990   2.668   7.625  5.1061 -0.7259 -1.9377
  403MOL0     H54355   7.012   2.734   7.794  1.2572 -1.7846  1.5319
  403MOL0     H54356   6.972   2.380   7.619  4.3778  0.9387  2.2013
  403MOL0     H54357   6.676   2.208   7.813 -2.7943 -2.8606 -3.5079
  403MOL0     H54358   6.689   2.248   7.636  2.9978  2.9911 -1.4344
  403MOL0     H54359   6.895   2.141   7.611  1.3772 -2.1814 -0.0922
  403MOL0     H54360   6.777   2.031   7.677 -0.7584  2.0602 -3.2183
  403MOL0     H54361   6.974   1.969   7.817 -0.2287  0.9075 -0.7966
  403MOL0     H54362   6.882   2.081   7.906  3.5596 -0.8515  2.3089
  403MOL0     H54363   7.108   2.091   7.901 -4.5038 -4.3258 -1.3992
  403MOL0     H54364   7.041   2.261   7.860 -0.6212 -0.1505  0.9141
  403MOL0     H54365   7.273   2.287   7.879 -0.3631 -0.8717 -0.2485
  403MOL0     H54366   7.596   2.466   7.898 -1.4000  2.8597  1.4239
  403MOL0     H54367   7.440   2.435   7.974  1.9311 -1.5087  1.7728
  403MOL0     H54368   7.558   2.316   7.982 -0.0524  3.0739  2.1141
  403MOL0     H54369   7.909   2.585   7.666  0.4278  0.6894  0.8864
  403MOL0     H54370   8.133   2.593   7.583 -1.5835  0.8082  0.5086
  403MOL0     H54371   8.323   2.592   7.421  0.2925  0.8434 -0.4796
  403MOL0     H54372   8.350   2.523   7.583  1.0615  2.0008 -1.8293
  403MOL0     H54373   8.554   2.548   7.441 -0.5106 -0.7935  1.6115
  403MOL0     H54374   8.513   2.373   7.486 -1.8531 -1.6808 -0.2894
  403MOL0     H54375   8.483   2.522   7.218 -2.2665 -0.5883 -0.7413
  403MOL0     H54376   8.423   2.360   7.260  0.4996 -0.6777  1.1706
  403MOL0     H54377   8.700   2.451   7.290 -2.4085  1.8995  1.8042
  403MOL0     H54378   8.640   2.283   7.283  0.3810 -1.4481 -1.3735
  403MOL0     H54379   8.639   2.458   7.036  0.4232 -1.3383 -0.4723
  403MOL0     H54380   8.579   2.287   7.053 -1.3195  0.0638  2.3982
  403MOL0     H54381   8.812   2.227   7.113 -1.5634 -1.4505 -0.6061
  403MOL0     H54382   8.785   2.294   6.948 -0.0214 -0.0987  0.9245
  403MOL0     H54383   8.892   2.460   7.181 -0.8994  1.3195  0.0150
  403MOL0     H54384   8.895   2.508   7.012 -0.6379  0.1385  0.2745
  403MOL0     H54385   9.075   2.306   7.152 -0.5978 -3.5350 -2.2597
  403MOL0     H54386   9.122   2.449   7.071 -0.8273  1.6838 -0.4945
  403MOL0     H54387   8.096   2.249   7.348  1.4696  0.3058  0.5843
  403MOL0     H54388   7.839   2.263   7.388 -1.2180  3.1808 -3.2596
  403MOL0     H54389   7.527   2.229   7.457  0.2289  2.0488 -0.6232
  403MOL0     H54390   7.270   2.145   7.492  1.3351 -0.9670 -0.0478
  403MOL0     H54391   7.899   3.047   8.005 -0.7475  0.8709  0.1282
  403MOL0     H54392   8.112   3.121   8.086 -0.3693 -2.6954 -2.9985
  403MOL0     H54393   8.286   3.394   8.407  0.0180  3.7344 -0.5419
  403MOL0     H54394   8.511   3.398   8.518  3.7557 -0.8758 -0.8360
  403MOL0     H54395   8.937   3.301   8.395  0.4415  0.2433  0.1844
  403MOL0     H54396   8.858   3.310   8.242  0.5520 -1.2776  0.6228
  403MOL0     H54397   8.991   3.499   8.250 -0.0167 -0.4129 -0.9032
  403MOL0     H54398   8.942   3.534   8.417  0.1948  1.1401  0.2911
  403MOL0     H54399   8.706   3.588   8.302  0.2503 -0.0509 -1.1558
  403MOL0     H54400   8.824   3.600   8.156 -1.4192 -0.9149 -0.6285
  403MOL0     H54401   8.939   3.780   8.264  0.3883 -0.0105  1.0337
  403MOL0     H54402   8.830   3.758   8.409  0.6199 -0.7052  0.2335
  403MOL0     H54403   8.592   4.008   8.170  2.2396  2.1625  0.4774
  403MOL0     H54404   8.698   3.314   8.136 -1.9968 -0.5891 -0.3315
  403MOL0     H54405   8.482   3.311   8.033  1.2258 -0.1466  0.4400
  404MOL0     O54406   7.554  10.973   0.117 -0.3085 -0.0246 -0.1216
  404MOL0     C54407   7.628  10.873   0.124  0.6748 -1.1479 -0.0637
  404MOL0     O54408   7.587  10.749   0.168 -0.6878 -0.7537 -0.7313
  404MOL0     C54409   7.468  10.740   0.235  0.6831  0.4700  0.5347
  404MOL0     C54410   7.402  10.617   0.238 -0.5367 -0.4080  0.0035
  404MOL0     C54411   7.291  10.595   0.315  0.8156 -0.3353  0.7602
  404MOL0     C54412   7.256  10.703   0.401 -0.1440  0.8524 -0.0717
  404MOL0     O54413   7.162  10.664   0.492  0.0516  0.0038  0.1064
  404MOL0     C54414   7.071  10.763   0.541  0.3783 -0.4849 -0.1588
  404MOL0     C54415   6.994  10.699   0.649 -0.3280  1.0845 -0.7777
  404MOL0     C54416   6.903  10.810   0.720 -0.0102  0.5816  0.0247
  404MOL0     C54417   6.795  10.744   0.799 -1.1327 -0.5909 -1.4103
  404MOL0     C54418   6.716  10.851   0.881  0.0485  0.1532  0.0984
  404MOL0     C54419   6.613  10.787   0.974 -0.3573  1.0004 -0.2030
  404MOL0     C54420   6.522  10.898   1.045 -0.0423  1.2845  0.3021
  404MOL0     C54421   6.571  10.960   1.177 -0.1914 -0.1031  0.8713
  404MOL0     N54422   6.474  11.059   1.229 -1.3576 -0.6667  0.5808
  404MOL0     C54423   6.334  11.038   1.241 -0.3132  0.3004  0.7028
  404MOL0     C54424   6.282  11.146   1.295  0.3215  0.1672  0.2491
  404MOL0     C54425   6.138  11.164   1.338  0.2467 -0.3143  0.0144
  404MOL0     C54426   6.120  11.206   1.485 -0.1591  0.2011 -0.3222
  404MOL0     C54427   6.172  11.106   1.591 -0.1164 -0.3911  0.4514
  404MOL0     C54428   6.106  11.143   1.724  0.0422  0.5040  0.2565
  404MOL0     O54429   5.960  11.111   1.716  0.1961 -0.0973  0.5762
  404MOL0     C54430   5.877  11.176   1.801 -0.2726  0.8734 -0.7717
  404MOL0     C54431   5.736  11.177   1.771 -0.1250  0.4508 -0.4598
  404MOL0     C54432   5.631  11.243   1.840  0.2060 -0.4895  0.2608
  404MOL0     C54433   5.489  11.224   1.797 -0.0267  0.1858  0.2252
  404MOL0     C54434   5.680  11.323   1.950  0.0491 -0.5152  0.4732
  404MOL0     C54435   5.591  11.417   2.022 -0.0345 -0.2805 -0.1910
  404MOL0     O54436   5.483  11.445   1.952  0.5573 -0.2669  0.5310
  404MOL0     C54437   5.406  11.550   1.994 -0.6596  0.1576 -0.4592
  404MOL0     C54438   5.420  11.678   1.947  0.3504 -0.0659 -0.3082
  404MOL0     C54439   5.325  11.775   1.975 -0.2210  0.4999  0.1557
  404MOL0     C54440   5.224  11.739   2.060  0.0657 -0.0304 -0.1970
  404MOL0     O54441   5.132  11.824   2.114 -0.2365 -1.1611 -0.8611
  404MOL0     C54442   5.069  11.924   2.040 -0.1111 -0.1462 -0.0600
  404MOL0     C54443   5.028  12.029   2.139 -0.5973  0.3794  0.3844
  404MOL0     C54444   4.968  12.142   2.049 -0.2870 -0.8970 -0.6019
  404MOL0     C54445   4.870  12.226   2.133 -0.5579 -0.3254  0.3551
  404MOL0     C54446   4.783  12.323   2.053 -0.2681  0.5527 -0.3954
  404MOL0     C54447   4.786  12.466   2.104 -0.3748 -1.3513  0.8485
  404MOL0     C54448   4.690  12.546   2.019  0.8782  0.5240 -0.4485
  404MOL0     C54449   4.638  12.673   2.090  0.2659 -0.7409 -0.5161
  404MOL0    Cl54450   4.558  12.790   1.978  0.4247  0.1794 -0.1916
  404MOL0     C54451   5.216  11.618   2.118 -0.5604  0.5002 -0.7607
  404MOL0     C54452   5.307  11.519   2.089  0.2809 -0.1250 -0.9904
  404MOL0     O54453   5.631  11.465   2.135  0.8279  0.7333 -0.5611
  404MOL0     C54454   5.823  11.326   1.981 -0.1072  0.2500  0.5943
  404MOL0     C54455   5.917  11.248   1.911 -0.8130 -0.3992  0.0290
  404MOL0     N54456   6.386  11.241   1.298 -0.1668  0.4987 -0.5100
  404MOL0     N54457   6.497  11.184   1.269 -0.0036 -0.0249 -0.1723
  404MOL0     C54458   7.322  10.823   0.405 -0.7983 -0.6879  0.2594
  404MOL0     C54459   7.431  10.838   0.328  0.4241 -0.4598 -0.4231
  404MOL0     C54460   7.757  10.879   0.059  0.4328 -0.0959  0.1388
  404MOL0     C54461   7.824  10.767  -0.001  1.1368  0.1543 -0.6579
  404MOL0     C54462   7.942  10.785  -0.074  0.1763 -1.0259 -0.8939
  404MOL0     C54463   8.010  10.904  -0.083 -0.1472 -0.4366 -0.1516
  404MOL0     O54464   8.114  10.935  -0.161  0.1905 -0.6787  0.1154
  404MOL0     C54465   8.161  10.841  -0.264 -0.6562 -0.2981 -0.4350
  404MOL0     C54466   8.264  10.915  -0.364 -0.6678 -0.3404  0.2507
  404MOL0     C54467   8.299  10.826  -0.489  0.8595  0.1497 -0.9866
  404MOL0     C54468   8.429  10.857  -0.552  0.0300 -0.3095 -0.2735
  404MOL0     C54469   8.413  10.824  -0.698 -0.1317  0.9140 -0.1595
  404MOL0     C54470   8.399  10.797  -0.816  1.1796  0.1193  0.4780
  404MOL0     C54471   7.958  11.013  -0.019  1.5077 -0.3111 -0.1749
  404MOL0     C54472   7.826  11.003   0.048 -0.0425  0.1415  0.1752
  404MOL0     H54473   7.437  10.540   0.170 -0.4532 -3.5721  3.2807
  404MOL0     H54474   7.242  10.498   0.314  1.3094 -0.6815  3.2134
  404MOL0     H54475   7.118  10.848   0.592  0.5135 -1.2398  0.9932
  404MOL0     H54476   7.021  10.810   0.456  2.9782  5.1492  0.9334
  404MOL0     H54477   6.934  10.616   0.610 -0.6176  1.4939 -1.2145
  404MOL0     H54478   7.064  10.649   0.717 -3.5260 -2.7149  0.1370
  404MOL0     H54479   6.961  10.885   0.775  0.2475  0.1510  0.3516
  404MOL0     H54480   6.857  10.868   0.640 -3.0516  2.1335  2.6510
  404MOL0     H54481   6.727  10.706   0.722 -0.6847 -0.8903 -1.6638
  404MOL0     H54482   6.827  10.664   0.867 -1.8836  1.2416  1.2596
  404MOL0     H54483   6.792  10.907   0.937  2.4687 -0.0390 -2.7498
  404MOL0     H54484   6.661  10.916   0.813 -1.4859 -2.0355 -0.8614
  404MOL0     H54485   6.559  10.722   0.905  0.5413  2.4935 -2.4268
  404MOL0     H54486   6.668  10.733   1.052  1.5186 -1.3959 -2.9626
  404MOL0     H54487   6.468  10.962   0.975 -1.6708 -1.1557 -0.8242
  404MOL0     H54488   6.435  10.841   1.080 -1.1925  2.2224 -0.9544
  404MOL0     H54489   6.664  11.015   1.164 -1.2182  1.3858 -0.4743
  404MOL0     H54490   6.590  10.879   1.249 -0.9594 -1.7592 -0.6914
  404MOL0     H54491   6.274  10.951   1.215  1.0424 -0.8162  1.2076
  404MOL0     H54492   6.106  11.250   1.279 -0.3372 -0.5816 -0.0685
  404MOL0     H54493   6.077  11.076   1.314  0.2590 -0.4475  0.4696
  404MOL0     H54494   6.012  11.219   1.498  0.0400  0.5158  1.2675
  404MOL0     H54495   6.165  11.303   1.509  1.8361 -1.1566  1.8044
  404MOL0     H54496   6.280  11.103   1.607  0.1263 -0.5023 -1.0842
  404MOL0     H54497   6.135  11.006   1.569  1.5130 -0.5629 -1.8541
  404MOL0     H54498   6.126  11.242   1.766 -1.2619  0.8979 -0.0031
  404MOL0     H54499   6.150  11.074   1.796 -0.4016  1.9295  1.9678
  404MOL0     H54500   5.706  11.126   1.680 -2.2097  0.1807  0.3259
  404MOL0     H54501   5.487  11.127   1.747  1.4425  0.0601  0.3798
  404MOL0     H54502   5.419  11.221   1.882 -0.5693  2.7024 -0.0548
  404MOL0     H54503   5.456  11.290   1.717  2.8900 -1.2577 -2.3671
  404MOL0     H54504   5.505  11.704   1.884  0.3483  2.4160  0.6084
  404MOL0     H54505   5.325  11.870   1.924 -0.2853  0.1612 -0.4918
  404MOL0     H54506   5.134  11.957   1.959 -0.0955 -3.6779 -1.6551
  404MOL0     H54507   4.988  11.886   1.977  1.5744 -0.4949 -2.1045
  404MOL0     H54508   4.966  11.980   2.214  0.9865 -0.6536  1.0749
  404MOL0     H54509   5.111  12.070   2.196 -0.9079 -2.1884  2.9096
  404MOL0     H54510   4.901  12.094   1.977  0.3361  0.2192 -1.9769
  404MOL0     H54511   5.046  12.202   2.001 -0.4002  0.4784  0.8843
  404MOL0     H54512   4.795  12.156   2.171 -0.7852  0.5466  1.5985
  404MOL0     H54513   4.914  12.282   2.217 -0.7004  0.3686 -0.0226
  404MOL0     H54514   4.680  12.291   2.069  0.1698 -1.0495 -0.6490
  404MOL0     H54515   4.800  12.325   1.944 -1.9885  0.0005 -0.6994
  404MOL0     H54516   4.763  12.479   2.210  1.0642  1.8478  0.8837
  404MOL0     H54517   4.885  12.510   2.088 -0.7676 -0.5210  0.6139
  404MOL0     H54518   4.607  12.481   1.989  1.3779 -1.2040  1.6289
  404MOL0     H54519   4.743  12.579   1.929  0.8042  2.4219  0.1735
  404MOL0     H54520   4.712  12.722   2.154  1.0735 -2.2913 -0.1933
  404MOL0     H54521   4.567  12.630   2.162  0.6429 -0.0158  0.3020
  404MOL0     H54522   5.140  11.592   2.191  0.3989  0.2286  0.1615
  404MOL0     H54523   5.300  11.424   2.140 -3.6907  0.5245  0.0002
  404MOL0     H54524   5.856  11.387   2.065 -0.6328 -0.4554  1.3233
  404MOL0     H54525   6.018  11.247   1.950 -0.3474  1.6859 -0.9882
  404MOL0     H54526   7.307  10.904   0.476 -0.0528 -1.0278  0.8197
  404MOL0     H54527   7.486  10.932   0.331 -0.5186  0.1159 -0.7900
  404MOL0     H54528   7.793  10.665   0.017  0.9625  0.7054  2.8035
  404MOL0     H54529   7.986  10.699  -0.124 -0.6894  0.0827 -3.7318
  404MOL0     H54530   8.207  10.752  -0.220 -0.8112 -0.4645 -0.6094
  404MOL0     H54531   8.077  10.796  -0.318 -1.2081  0.4333 -0.2003
  404MOL0     H54532   8.358  10.939  -0.315 -0.5664  2.9430 -1.3202
  404MOL0     H54533   8.218  11.011  -0.387  1.8481  0.8789  0.0150
  404MOL0     H54534   8.212  10.845  -0.553 -1.1958 -2.8976  0.6696
  404MOL0     H54535   8.294  10.718  -0.474 -2.1177 -0.3938 -4.3112
  404MOL0     H54536   8.517  10.806  -0.512  1.9042  2.6171 -0.3223
  404MOL0     H54537   8.446  10.964  -0.539  0.1640 -0.5619  2.0519
  404MOL0     H54538   8.386  10.764  -0.917 -1.0376 -0.6699  0.9791
  404MOL0     H54539   8.023  11.098  -0.036  2.1141 -0.9391 -1.0259
  404MOL0     H54540   7.766  11.086   0.083 -2.8532 -0.6738 -2.3896
  405MOL0     O54541   0.840   4.216   1.378 -0.8408 -0.2357 -0.3475
  405MOL0     C54542   0.871   4.272   1.272  0.6015  0.7144  0.5463
  405MOL0     O54543   0.818   4.384   1.213 -0.7106  0.2205 -0.0146
  405MOL0     C54544   0.723   4.451   1.285 -0.2008  0.7021  0.6703
  405MOL0     C54545   0.748   4.591   1.315  0.4869  0.2423  0.2944
  405MOL0     C54546   0.661   4.665   1.394 -0.1180  0.4737  0.3844
  405MOL0     C54547   0.545   4.609   1.436  0.6006 -0.2819 -0.1014
  405MOL0     O54548   0.461   4.689   1.507  0.0855  0.0980  0.2631
  405MOL0     C54549   0.385   4.633   1.611  0.0341  0.4020 -0.3268
  405MOL0     C54550   0.479   4.621   1.729 -0.5512  0.4886  0.2526
  405MOL0     C54551   0.534   4.753   1.789 -0.2019  0.1023  0.3998
  405MOL0     C54552   0.645   4.739   1.890  0.2271 -0.2194  0.1269
  405MOL0     C54553   0.710   4.875   1.935 -0.1437  0.2542 -0.2737
  405MOL0     C54554   0.614   4.927   2.041 -0.3745  0.5754  1.0825
  405MOL0     C54555   0.656   5.066   2.087 -0.4322 -0.3583  0.2730
  405MOL0     C54556   0.646   5.085   2.237 -0.6066  0.0305  0.2433
  405MOL0     N54557   0.512   5.094   2.275  0.8117  0.2763  0.3302
  405MOL0     C54558   0.421   5.198   2.254 -0.0582  0.2482 -0.6133
  405MOL0     C54559   0.312   5.158   2.321 -0.2370 -0.8100 -0.5648
  405MOL0     C54560   0.183   5.238   2.324 -0.8102 -0.2915 -0.1183
  405MOL0     C54561   0.062   5.147   2.303  0.8765  0.1890 -0.5976
  405MOL0     C54562  -0.064   5.231   2.338 -0.4104  0.5935  0.3184
  405MOL0     C54563  -0.189   5.147   2.302 -0.0679 -0.3798 -0.4490
  405MOL0     O54564  -0.292   5.251   2.308 -0.4798 -1.1736 -0.1023
  405MOL0     C54565  -0.320   5.314   2.185  0.6803 -0.7014  0.3916
  405MOL0     C54566  -0.248   5.308   2.067 -0.5924  0.5098 -0.3363
  405MOL0     C54567  -0.286   5.374   1.952  0.7953 -0.5097  0.2567
  405MOL0     C54568  -0.190   5.336   1.834 -0.3318 -0.7152  0.1578
  405MOL0     C54569  -0.391   5.469   1.955  0.1890 -0.7144  0.1293
  405MOL0     C54570  -0.438   5.552   1.835 -0.4636  0.6439  0.6842
  405MOL0     O54571  -0.536   5.638   1.857 -0.5519  0.2751 -0.9057
  405MOL0     C54572  -0.577   5.729   1.768  0.3864  0.7120  0.0562
  405MOL0     C54573  -0.712   5.746   1.739  0.8371  0.5341 -0.1959
  405MOL0     C54574  -0.759   5.830   1.636 -1.4252 -0.2174  0.9202
  405MOL0     C54575  -0.663   5.914   1.573  1.2662  0.0028 -0.0229
  405MOL0     O54576  -0.708   5.987   1.468  0.3572 -1.0144  0.5122
  405MOL0     C54577  -0.828   5.954   1.391  0.4241 -0.6047 -0.3417
  405MOL0     C54578  -0.952   6.048   1.425 -0.9924  0.0392  0.1694
  405MOL0     C54579  -1.074   6.034   1.341  0.2937  0.2421 -0.0757
  405MOL0     C54580  -1.155   5.930   1.410  0.3802  0.6294 -0.1350
  405MOL0     C54581  -1.269   5.878   1.313 -0.0845  1.0587  0.3309
  405MOL0     C54582  -1.361   5.790   1.392  0.3679 -1.1640 -0.4318
  405MOL0     C54583  -1.477   5.734   1.308 -0.0383 -0.3718  0.5718
  405MOL0     C54584  -1.601   5.701   1.394  0.0933 -0.0703  0.7617
  405MOL0    Cl54585  -1.704   5.837   1.461 -0.6194  0.0675 -0.3462
  405MOL0     C54586  -0.530   5.915   1.613 -0.0334 -0.5836 -0.2332
  405MOL0     C54587  -0.480   5.823   1.712  0.9234  0.6359 -0.2867
  405MOL0     O54588  -0.382   5.528   1.724  0.2950 -0.2716 -0.0511
  405MOL0     C54589  -0.452   5.488   2.078  1.0149  0.3646  1.0346
  405MOL0     C54590  -0.421   5.412   2.191 -0.2874 -0.4524 -0.4106
  405MOL0     N54591   0.339   5.039   2.394 -0.3158 -0.0148  0.6018
  405MOL0     N54592   0.456   5.002   2.364  0.3504  0.4816  0.4273
  405MOL0     C54593   0.508   4.479   1.397  0.8728 -0.7235 -0.0647
  405MOL0     C54594   0.602   4.397   1.324 -0.1779  0.2711 -0.5687
  405MOL0     C54595   0.972   4.202   1.190  0.0626 -0.0436 -0.1909
  405MOL0     C54596   1.038   4.263   1.087  1.2982 -0.3738  0.5682
  405MOL0     C54597   1.149   4.206   1.023 -0.4798  0.2700 -0.4917
  405MOL0     C54598   1.200   4.078   1.062  0.3781 -0.4851  0.3722
  405MOL0     O54599   1.311   4.029   0.990 -0.0864 -0.0673 -0.4990
  405MOL0     C54600   1.393   3.935   1.062 -0.1021 -0.7349  0.4405
  405MOL0     C54601   1.452   3.990   1.190 -0.3418  0.1681  0.3599
  405MOL0     C54602   1.549   4.107   1.168  0.5512  0.5572  0.4747
  405MOL0     C54603   1.646   4.140   1.284  1.0835 -0.1787 -0.3091
  405MOL0     C54604   1.579   4.199   1.403 -0.5541 -0.9192  0.0135
  405MOL0     C54605   1.519   4.265   1.486 -1.0013 -0.7647 -0.0746
  405MOL0     C54606   1.127   4.008   1.166 -0.3669  0.5561 -0.0166
  405MOL0     C54607   1.016   4.077   1.224 -0.6166 -0.4088  0.2749
  405MOL0     H54608   0.842   4.627   1.275  1.2011 -0.6366  1.1335
  405MOL0     H54609   0.682   4.771   1.403  1.2857  0.4935 -2.1393
  405MOL0     H54610   0.301   4.694   1.645  0.8178  0.5542  1.4518
  405MOL0     H54611   0.337   4.535   1.596 -2.0297  1.3477 -0.2813
  405MOL0     H54612   0.424   4.561   1.801 -0.7054  1.2443  0.7722
  405MOL0     H54613   0.567   4.565   1.695 -1.2801 -0.5630  0.0340
  405MOL0     H54614   0.573   4.804   1.701 -4.1567  3.3523  0.2215
  405MOL0     H54615   0.450   4.815   1.821 -0.1365  0.4740 -0.1523
  405MOL0     H54616   0.602   4.689   1.977 -1.0653  3.9414  2.1375
  405MOL0     H54617   0.728   4.683   1.845  3.3494  1.8290  2.8867
  405MOL0     H54618   0.813   4.852   1.962  0.1865 -0.8739 -2.3161
  405MOL0     H54619   0.720   4.950   1.857  1.7389 -1.4012 -1.7332
  405MOL0     H54620   0.512   4.936   2.003 -2.1716 -3.3569  4.3037
  405MOL0     H54621   0.614   4.857   2.124  0.7206  0.8947  1.3767
  405MOL0     H54622   0.757   5.086   2.050 -1.0365  0.5320 -0.9842
  405MOL0     H54623   0.589   5.140   2.041  0.3753 -0.5275 -1.2027
  405MOL0     H54624   0.687   5.181   2.271 -0.7888  0.7051 -1.3483
  405MOL0     H54625   0.703   5.008   2.290  1.7105 -0.0455 -2.1735
  405MOL0     H54626   0.435   5.288   2.195 -0.5891  1.8335  1.5371
  405MOL0     H54627   0.177   5.300   2.414 -1.3431  0.1982 -0.4776
  405MOL0     H54628   0.194   5.311   2.243  0.0801 -0.5221 -0.2092
  405MOL0     H54629   0.073   5.064   2.374  2.1842 -0.7862 -1.8538
  405MOL0     H54630   0.051   5.108   2.201 -0.1262  0.3256 -0.5498
  405MOL0     H54631  -0.044   5.332   2.300  0.8155  1.0088  1.9250
  405MOL0     H54632  -0.081   5.241   2.445 -1.9652  0.0522  0.1384
  405MOL0     H54633  -0.207   5.076   2.383 -0.8940  0.9389  0.5738
  405MOL0     H54634  -0.173   5.085   2.213  1.9337 -0.7980  0.1584
  405MOL0     H54635  -0.165   5.239   2.052  1.3761  3.0264 -1.7849
  405MOL0     H54636  -0.230   5.256   1.770  1.0408 -0.3935 -1.1633
  405MOL0     H54637  -0.176   5.423   1.769 -1.6878 -1.7040 -1.5518
  405MOL0     H54638  -0.095   5.305   1.878 -1.0645 -2.0638  0.8355
  405MOL0     H54639  -0.785   5.681   1.787  1.0803  0.8656  0.6357
  405MOL0     H54640  -0.864   5.830   1.608 -0.6576  0.0930 -2.2844
  405MOL0     H54641  -0.795   5.971   1.288 -0.5179  1.6756 -0.3232
  405MOL0     H54642  -0.856   5.848   1.395  3.0611 -1.3738 -0.4116
  405MOL0     H54643  -0.973   6.037   1.532 -0.4444 -3.5186  0.0355
  405MOL0     H54644  -0.908   6.145   1.402 -2.2170  0.6499  0.3105
  405MOL0     H54645  -1.044   5.998   1.243 -0.9752  2.0409 -1.1867
  405MOL0     H54646  -1.136   6.123   1.322  2.6156  2.5073  2.0913
  405MOL0     H54647  -1.090   5.850   1.448 -1.9116 -1.4827 -0.3449
  405MOL0     H54648  -1.194   5.972   1.502  1.9917  1.0910  0.3681
  405MOL0     H54649  -1.233   5.812   1.233 -3.5959  2.0508 -2.3316
  405MOL0     H54650  -1.324   5.957   1.260 -1.0123 -0.1102 -0.4920
  405MOL0     H54651  -1.300   5.705   1.425  1.7934  0.5683  1.6797
  405MOL0     H54652  -1.398   5.840   1.482  3.0734  2.5322 -1.1300
  405MOL0     H54653  -1.444   5.639   1.265  1.2160 -0.6926  2.1477
  405MOL0     H54654  -1.513   5.796   1.226 -0.1342 -1.5637 -0.3090
  405MOL0     H54655  -1.569   5.641   1.479  1.5898 -0.0443  0.2393
  405MOL0     H54656  -1.665   5.639   1.330 -2.0602  1.1866  1.5993
  405MOL0     H54657  -0.465   5.980   1.556  2.4958 -2.5750  0.1948
  405MOL0     H54658  -0.378   5.828   1.750  0.8308  1.6337 -0.1475
  405MOL0     H54659  -0.527   5.567   2.080  0.6363  0.2102 -1.9007
  405MOL0     H54660  -0.472   5.423   2.286 -1.0903 -0.6817 -0.8102
  405MOL0     H54661   0.412   4.433   1.417  0.6014 -1.0704 -1.9755
  405MOL0     H54662   0.601   4.289   1.311  2.3771 -0.1034  1.4282
  405MOL0     H54663   0.998   4.361   1.059 -0.5579 -1.1612  0.3253
  405MOL0     H54664   1.195   4.257   0.939 -0.0813 -0.6079 -0.8181
  405MOL0     H54665   1.351   3.835   1.076 -0.0504 -0.9250 -0.7112
  405MOL0     H54666   1.479   3.932   0.994 -1.4162  1.1113 -1.4320
  405MOL0     H54667   1.500   3.904   1.238  2.2247  1.9178  1.1789
  405MOL0     H54668   1.375   4.010   1.265 -3.5728 -3.1454 -1.7341
  405MOL0     H54669   1.491   4.196   1.142 -2.4107 -1.4685 -0.2110
  405MOL0     H54670   1.611   4.073   1.084  1.6848 -1.5273  2.0530
  405MOL0     H54671   1.699   4.227   1.246 -1.4334  1.8890  0.6429
  405MOL0     H54672   1.702   4.047   1.305 -0.5553 -0.9393  0.9298
  405MOL0     H54673   1.454   4.325   1.546  1.7851  1.5592  0.8764
  405MOL0     H54674   1.159   3.905   1.183  0.1603  0.1862 -2.8058
  405MOL0     H54675   0.967   4.024   1.305 -1.6189  0.8328  0.4992
  406MOL0     O54676   0.939  10.011   6.003 -0.4531 -0.1848 -0.1764
  406MOL0     C54677   0.981  10.107   6.062 -0.1924  0.5421 -0.4474
  406MOL0     O54678   0.926  10.145   6.184 -0.1540 -0.8692 -0.2405
  406MOL0     C54679   0.799  10.112   6.215 -0.2751  0.0208 -0.5888
  406MOL0     C54680   0.691  10.104   6.128  0.5114 -0.3646 -0.0821
  406MOL0     C54681   0.559  10.090   6.173  0.0367 -0.3130  0.6808
  406MOL0     C54682   0.537  10.052   6.306 -0.3036 -0.4410  0.5907
  406MOL0     O54683   0.413  10.016   6.356  0.3374 -0.0512 -0.6225
  406MOL0     C54684   0.318   9.963   6.263  0.7372 -0.6354 -0.2512
  406MOL0     C54685   0.209   9.889   6.352  0.1085 -1.2750 -0.6101
  406MOL0     C54686   0.094   9.826   6.268 -0.2374 -0.4345 -0.0066
  406MOL0     C54687   0.008   9.723   6.335 -0.2166  0.6915 -0.0744
  406MOL0     C54688   0.069   9.583   6.349 -0.1477  0.5636 -0.2068
  406MOL0     C54689   0.100   9.523   6.217 -0.3948  0.1217  0.6811
  406MOL0     C54690   0.171   9.390   6.222 -0.0539  0.7818  0.0452
  406MOL0     C54691   0.141   9.306   6.089  0.1576 -0.7064 -0.1668
  406MOL0     N54692   0.008   9.234   6.094  0.5805 -0.6305 -0.0400
  406MOL0     C54693  -0.087   9.266   5.997 -1.2855 -0.3927 -0.0496
  406MOL0     C54694  -0.191   9.193   6.024  0.4401  0.1765 -0.2445
  406MOL0     C54695  -0.318   9.214   5.945 -0.3440  1.1233  0.0205
  406MOL0     C54696  -0.437   9.252   6.047 -1.1342  0.9242  0.2868
  406MOL0     C54697  -0.577   9.225   5.985 -0.0914  0.0620 -0.2371
  406MOL0     C54698  -0.693   9.283   6.059  0.3588 -0.3751  1.3624
  406MOL0     O54699  -0.817   9.264   5.987  1.0026 -0.4595 -0.1930
  406MOL0     C54700  -0.932   9.325   6.033 -0.7013  1.1212 -1.3974
  406MOL0     C54701  -1.041   9.318   5.953 -1.1126  0.6955  0.0643
  406MOL0     C54702  -1.172   9.334   6.002  0.8443 -0.1278 -0.5678
  406MOL0     C54703  -1.289   9.318   5.902 -0.4318 -0.8198  0.8201
  406MOL0     C54704  -1.198   9.364   6.135  0.4970 -0.2980  1.2725
  406MOL0     C54705  -1.332   9.374   6.202 -1.1288  0.3518  0.5849
  406MOL0     O54706  -1.331   9.350   6.336  0.5271  0.4221  0.4805
  406MOL0     C54707  -1.441   9.402   6.403 -0.4830  0.2330  0.3821
  406MOL0     C54708  -1.538   9.308   6.443  0.5760  0.3331  0.0391
  406MOL0     C54709  -1.644   9.348   6.516 -0.9935  0.5324 -0.7110
  406MOL0     C54710  -1.661   9.483   6.554  0.3180 -0.0340 -0.1165
  406MOL0     O54711  -1.766   9.541   6.614 -0.1996 -0.6368 -0.1145
  406MOL0     C54712  -1.812   9.476   6.738 -0.0018  0.2848 -0.5442
  406MOL0     C54713  -1.938   9.557   6.793  1.4936 -1.0181  0.5251
  406MOL0     C54714  -2.073   9.484   6.748  0.1598 -1.3048 -0.5422
  406MOL0     C54715  -2.081   9.476   6.589 -0.1917  0.5494 -0.0159
  406MOL0     C54716  -2.194   9.393   6.527  0.3447  0.8247 -0.8025
  406MOL0     C54717  -2.330   9.464   6.553 -0.2716  0.1523  0.4813
  406MOL0     C54718  -2.349   9.558   6.436 -0.1236  0.5957  0.4023
  406MOL0     C54719  -2.509   9.589   6.418  0.4351  0.2270  0.0369
  406MOL0    Cl54720  -2.602   9.609   6.566 -0.2493  0.1356  0.1555
  406MOL0     C54721  -1.569   9.578   6.506 -0.6048  0.5761  1.2017
  406MOL0     C54722  -1.467   9.536   6.425 -0.0746  0.5436  0.4483
  406MOL0     O54723  -1.427   9.408   6.136  0.0379 -0.2478 -0.1136
  406MOL0     C54724  -1.085   9.373   6.224  0.8176 -0.2774  0.8548
  406MOL0     C54725  -0.954   9.351   6.178 -0.4435 -0.8099  0.4433
  406MOL0     N54726  -0.158   9.111   6.140  0.2746 -0.0007  0.5745
  406MOL0     N54727  -0.039   9.144   6.182 -0.5564 -0.0699 -0.2756
  406MOL0     C54728   0.645  10.055   6.394 -0.1992  0.1279  0.9190
  406MOL0     C54729   0.775  10.098   6.353 -0.5266  0.2647  0.0384
  406MOL0     C54730   1.093  10.178   6.006  0.8121  0.2931  0.4642
  406MOL0     C54731   1.130  10.308   6.053  0.4894 -1.1056  0.9739
  406MOL0     C54732   1.234  10.380   5.998 -1.1946  0.9493  0.9609
  406MOL0     C54733   1.308  10.327   5.885  0.6255 -0.8557 -0.5934
  406MOL0     O54734   1.399  10.400   5.814  0.0051 -0.4875 -0.5374
  406MOL0     C54735   1.365  10.541   5.785 -0.0511 -0.3449  0.3706
  406MOL0     C54736   1.465  10.612   5.696  0.1700  0.0995 -0.7500
  406MOL0     C54737   1.594  10.669   5.775 -0.4182  1.1023  0.3434
  406MOL0     C54738   1.682  10.569   5.853  0.3269 -0.4857  1.2990
  406MOL0     C54739   1.787  10.643   5.931  0.1680  0.2921  0.6396
  406MOL0     C54740   1.863  10.707   5.993 -0.0278 -0.3618 -0.2255
  406MOL0     C54741   1.283  10.196   5.858  0.5420 -0.6971 -0.7313
  406MOL0     C54742   1.178  10.124   5.909  0.1725  0.1911  0.4415
  406MOL0     H54743   0.715  10.100   6.022  1.4739  2.3388 -0.0474
  406MOL0     H54744   0.481  10.091   6.098  0.7807 -0.9514 -0.1250
  406MOL0     H54745   0.271  10.044   6.207  1.6054 -1.9983 -3.1387
  406MOL0     H54746   0.366   9.892   6.195 -0.4890 -2.2225  0.4729
  406MOL0     H54747   0.260   9.805   6.401 -1.2619 -1.9441 -0.2950
  406MOL0     H54748   0.181   9.968   6.423  1.8861  0.4988 -1.7779
  406MOL0     H54749   0.025   9.899   6.224  1.9376  1.5808 -0.2522
  406MOL0     H54750   0.149   9.798   6.178 -1.9707  1.1721 -1.6620
  406MOL0     H54751  -0.013   9.766   6.433  0.3953 -2.1469  1.4025
  406MOL0     H54752  -0.085   9.703   6.280  0.0334 -0.2351 -0.1895
  406MOL0     H54753   0.150   9.585   6.422  0.0106 -0.8484 -0.2996
  406MOL0     H54754  -0.002   9.521   6.405  0.0426  0.0278 -0.5421
  406MOL0     H54755   0.008   9.515   6.159  0.3160  1.3349 -0.6807
  406MOL0     H54756   0.161   9.593   6.158  0.1265 -0.2779  0.7400
  406MOL0     H54757   0.279   9.405   6.227  0.2833 -0.7216 -1.7504
  406MOL0     H54758   0.122   9.344   6.309 -0.0016 -1.5494 -1.0691
  406MOL0     H54759   0.216   9.231   6.062 -1.6792 -2.3813 -0.8385
  406MOL0     H54760   0.141   9.382   6.010  2.7823 -1.1028 -0.6321
  406MOL0     H54761  -0.078   9.342   5.920  0.0142 -0.7427 -0.2781
  406MOL0     H54762  -0.304   9.284   5.863 -0.4812  0.1012 -0.8958
  406MOL0     H54763  -0.334   9.115   5.902  1.5510  0.6247  0.3635
  406MOL0     H54764  -0.441   9.353   6.089  2.0553  0.3154  2.4417
  406MOL0     H54765  -0.425   9.192   6.138 -2.3307  2.3049  1.4109
  406MOL0     H54766  -0.589   9.117   5.980 -1.2414  0.1851 -0.4422
  406MOL0     H54767  -0.589   9.269   5.885  0.4659 -0.9324 -0.7586
  406MOL0     H54768  -0.678   9.391   6.052 -2.6579  0.0171 -2.4500
  406MOL0     H54769  -0.701   9.264   6.167 -1.6484 -0.0102  1.3329
  406MOL0     H54770  -1.029   9.296   5.847 -0.0073  0.0599  0.3024
  406MOL0     H54771  -1.238   9.293   5.809 -1.7246 -0.2987 -0.0499
  406MOL0     H54772  -1.359   9.240   5.935  0.4064 -1.1681  1.8403
  406MOL0     H54773  -1.352   9.407   5.891  0.4388 -0.3494 -0.5707
  406MOL0     H54774  -1.528   9.204   6.413  0.8518 -0.1311  1.6680
  406MOL0     H54775  -1.720   9.280   6.553  2.7471 -1.0354  5.5480
  406MOL0     H54776  -1.839   9.370   6.741  0.4731  0.1431 -1.0678
  406MOL0     H54777  -1.733   9.491   6.812  0.0159  0.8523 -0.6796
  406MOL0     H54778  -1.928   9.570   6.901 -1.5191  1.6570  0.6319
  406MOL0     H54779  -1.944   9.653   6.742  2.0901 -0.4361  1.5296
  406MOL0     H54780  -2.158   9.544   6.780  1.0193 -0.5334  0.3574
  406MOL0     H54781  -2.076   9.391   6.805  1.9982 -0.0256  1.8342
  406MOL0     H54782  -2.080   9.574   6.541  0.7665  0.0819 -0.9880
  406MOL0     H54783  -1.999   9.420   6.543 -1.1377  0.5934 -1.8485
  406MOL0     H54784  -2.202   9.301   6.586 -1.9643  1.8582  0.6727
  406MOL0     H54785  -2.176   9.371   6.422  0.5427 -0.8562 -0.4409
  406MOL0     H54786  -2.404   9.385   6.572  0.5662 -0.6356  0.5736
  406MOL0     H54787  -2.328   9.517   6.649  1.9191 -3.7361  2.8991
  406MOL0     H54788  -2.295   9.536   6.343 -2.0768 -3.5098  0.0234
  406MOL0     H54789  -2.297   9.647   6.473 -0.9700  2.0253 -1.6527
  406MOL0     H54790  -2.552   9.503   6.367  0.3320  1.0087 -1.2389
  406MOL0     H54791  -2.532   9.675   6.355 -0.1781 -0.3676 -0.5596
  406MOL0     H54792  -1.569   9.684   6.529  2.0371  1.4486 -2.0246
  406MOL0     H54793  -1.390   9.607   6.401  1.3305 -1.2431 -0.6077
  406MOL0     H54794  -1.109   9.378   6.330  1.1118  0.3959  0.8978
  406MOL0     H54795  -0.871   9.360   6.246 -0.3893  0.9003  0.2098
  406MOL0     H54796   0.630  10.025   6.497  3.0236  0.7349  1.6781
  406MOL0     H54797   0.859  10.109   6.421  1.5136 -1.7053 -2.0178
  406MOL0     H54798   1.072  10.344   6.137  2.8756  1.1444  1.7834
  406MOL0     H54799   1.246  10.486   6.017 -1.6915  2.3130 -4.6413
  406MOL0     H54800   1.264  10.542   5.742 -1.7625  2.3164  3.9246
  406MOL0     H54801   1.357  10.590   5.883 -0.0308 -1.1559  0.7861
  406MOL0     H54802   1.417  10.695   5.644 -2.3096 -0.4823  0.4415
  406MOL0     H54803   1.495  10.543   5.617  1.9059 -1.0263  0.8066
  406MOL0     H54804   1.570  10.746   5.848  1.3352 -0.2246  2.4418
  406MOL0     H54805   1.669  10.707   5.704  1.4644  1.3427  2.3625
  406MOL0     H54806   1.712  10.497   5.777  2.1020  0.7408  0.7560
  406MOL0     H54807   1.635  10.513   5.934  0.3471 -0.5940  1.2349
  406MOL0     H54808   1.944  10.757   6.042 -1.2620  1.4039  0.1067
  406MOL0     H54809   1.354  10.154   5.787  0.7032  1.2067 -1.7490
  406MOL0     H54810   1.164  10.025   5.866  3.0102  0.1352 -0.5986
  407MOL0     O54811   1.936   7.763   8.891  0.2781 -0.8235  0.0711
  407MOL0     C54812   1.905   7.705   8.788 -0.0758  0.0526 -0.1108
  407MOL0     O54813   1.799   7.616   8.789 -0.3640 -0.2803  0.6617
  407MOL0     C54814   1.767   7.559   8.907 -0.7970  0.4265  0.7694
  407MOL0     C54815   1.660   7.609   8.967 -0.2642  0.9257 -0.4178
  407MOL0     C54816   1.624   7.556   9.094  0.0227  0.1927 -0.3268
  407MOL0     C54817   1.705   7.454   9.156  1.1889 -0.3269 -0.4455
  407MOL0     O54818   1.677   7.389   9.276 -0.4978  0.1739  0.1577
  407MOL0     C54819   1.536   7.390   9.308  0.7160  0.3157  0.7854
  407MOL0     C54820   1.503   7.316   9.438 -0.5363  0.1913 -0.3604
  407MOL0     C54821   1.556   7.377   9.569 -0.9293 -0.6829  0.0813
  407MOL0     C54822   1.676   7.304   9.631 -0.0914  0.7938 -0.0563
  407MOL0     C54823   1.740   7.347   9.767  0.2545  0.2774  0.0787
  407MOL0     C54824   1.826   7.475   9.755  0.5034  1.4532 -0.1021
  407MOL0     C54825   1.959   7.453   9.683 -0.3715  0.4351 -0.0532
  407MOL0     C54826   1.967   7.544   9.562  0.0946  0.3098  0.6580
  407MOL0     N54827   2.095   7.533   9.501  0.5358  0.3414 -1.0482
  407MOL0     C54828   2.156   7.424   9.445  0.0644  1.4211  0.5012
  407MOL0     C54829   2.278   7.473   9.412  0.1332 -0.5275  0.3538
  407MOL0     C54830   2.384   7.389   9.351  0.7463 -0.2089  0.4863
  407MOL0     C54831   2.364   7.372   9.200  0.0678  0.1124  0.1202
  407MOL0     C54832   2.250   7.273   9.167 -0.1225  0.6076  0.6381
  407MOL0     C54833   2.239   7.256   9.011  0.0978 -0.1199 -0.1590
  407MOL0     O54834   2.116   7.187   8.974  0.1259  0.5119 -0.5365
  407MOL0     C54835   2.071   7.192   8.848  1.0775 -0.4555  0.8961
  407MOL0     C54836   2.130   7.257   8.742 -0.0760  0.6341 -0.7690
  407MOL0     C54837   2.074   7.261   8.622 -1.2376 -0.4782 -0.2741
  407MOL0     C54838   2.169   7.307   8.515 -0.0081  0.5600 -0.2405
  407MOL0     C54839   1.931   7.233   8.598 -0.7078  0.0068 -0.0784
  407MOL0     C54840   1.853   7.245   8.475 -0.1973  0.1039  0.1818
  407MOL0     O54841   1.754   7.151   8.457  0.4022 -0.3260  0.1558
  407MOL0     C54842   1.663   7.155   8.357 -0.4211  0.2537 -0.9709
  407MOL0     C54843   1.589   7.260   8.307  0.5699  0.2573 -0.0877
  407MOL0     C54844   1.495   7.252   8.201 -0.0869  0.1067  0.5427
  407MOL0     C54845   1.480   7.136   8.134  0.0801  0.2567 -0.0415
  407MOL0     O54846   1.397   7.124   8.025 -0.0153  0.7386 -0.1376
  407MOL0     C54847   1.303   7.235   8.003  0.8895  0.5947  0.2092
  407MOL0     C54848   1.197   7.207   7.902 -0.5633 -0.5198  0.4369
  407MOL0     C54849   1.266   7.194   7.762 -0.1031 -0.4697  0.3384
  407MOL0     C54850   1.183   7.098   7.674  0.1062 -0.2247 -0.1700
  407MOL0     C54851   1.230   7.068   7.531  0.2725  0.0187  0.2287
  407MOL0     C54852   1.137   6.965   7.462 -0.5828 -0.3155  0.2295
  407MOL0     C54853   1.156   6.944   7.307  0.7048  0.0102  0.5084
  407MOL0     C54854   1.266   6.838   7.273 -0.1081 -0.2621  0.2484
  407MOL0    Cl54855   1.233   6.666   7.314  0.1793  0.4404  0.2043
  407MOL0     C54856   1.565   7.025   8.173  0.6587 -0.0807 -0.5327
  407MOL0     C54857   1.649   7.032   8.288 -0.3768 -1.1451 -0.7521
  407MOL0     O54858   1.883   7.334   8.399  0.3411 -0.0039 -0.0797
  407MOL0     C54859   1.866   7.176   8.712 -0.4007 -0.3729  0.1163
  407MOL0     C54860   1.943   7.148   8.826 -0.1796 -0.1742  1.0633
  407MOL0     N54861   2.288   7.609   9.444  0.6230  0.7371  0.1009
  407MOL0     N54862   2.177   7.634   9.503  0.4672 -0.2098  0.5626
  407MOL0     C54863   1.820   7.418   9.097  0.3609  0.2199  0.3906
  407MOL0     C54864   1.848   7.461   8.965  0.0313 -0.4350 -0.4404
  407MOL0     C54865   1.967   7.727   8.660  0.1237  0.1606 -0.2875
  407MOL0     C54866   1.956   7.645   8.550  0.2830 -0.2082 -0.2662
  407MOL0     C54867   2.027   7.674   8.434  0.6581  0.2447  0.1978
  407MOL0     C54868   2.125   7.780   8.435 -0.8510 -0.7258 -0.2892
  407MOL0     O54869   2.216   7.800   8.330 -0.3597 -0.6515  0.2837
  407MOL0     C54870   2.204   7.730   8.211  0.3539  0.5902 -0.1352
  407MOL0     C54871   2.330   7.748   8.124  0.1026 -0.4166 -0.3105
  407MOL0     C54872   2.414   7.621   8.145 -0.3518  0.0796  0.0937
  407MOL0     C54873   2.552   7.643   8.084 -0.3005 -0.4745  0.3302
  407MOL0     C54874   2.626   7.748   8.144  0.0021 -0.9695  1.0936
  407MOL0     C54875   2.693   7.853   8.162  0.6800  0.1611 -0.3060
  407MOL0     C54876   2.132   7.859   8.548 -0.2695  0.3999 -0.2363
  407MOL0     C54877   2.057   7.831   8.659 -0.1320 -0.5667  0.6141
  407MOL0     H54878   1.590   7.680   8.925 -1.2163  0.7423  0.7908
  407MOL0     H54879   1.533   7.590   9.141 -1.9366 -0.3416 -3.4622
  407MOL0     H54880   1.498   7.491   9.325  0.5363  0.5457 -0.8572
  407MOL0     H54881   1.481   7.347   9.224 -0.6394 -0.7187  2.1276
  407MOL0     H54882   1.394   7.303   9.433 -0.3793 -2.3336  1.0869
  407MOL0     H54883   1.544   7.215   9.424 -1.0487 -0.0550 -0.1212
  407MOL0     H54884   1.593   7.477   9.547  1.7177 -2.2192 -3.4127
  407MOL0     H54885   1.482   7.379   9.649  1.8270 -1.6119  2.8460
  407MOL0     H54886   1.633   7.206   9.651  1.6475 -0.4380 -1.9158
  407MOL0     H54887   1.749   7.282   9.552 -0.4584  1.3809 -0.5723
  407MOL0     H54888   1.658   7.364   9.837  0.6111  6.0200 -0.4097
  407MOL0     H54889   1.804   7.262   9.793 -0.8609  0.1969  2.8736
  407MOL0     H54890   1.753   7.548   9.720 -3.2966 -2.6675 -1.7866
  407MOL0     H54891   1.837   7.509   9.859  2.5868  1.0846 -0.1549
  407MOL0     H54892   2.038   7.464   9.758  0.5705  0.1496 -0.9696
  407MOL0     H54893   1.964   7.355   9.635 -4.2305 -0.4166  0.9505
  407MOL0     H54894   1.948   7.647   9.592 -0.9872  0.1461  0.5694
  407MOL0     H54895   1.894   7.506   9.489 -1.9984 -1.5271  3.5074
  407MOL0     H54896   2.106   7.328   9.436 -1.8492  2.4105 -0.0388
  407MOL0     H54897   2.480   7.439   9.363 -0.7408  3.4696 -1.2525
  407MOL0     H54898   2.387   7.288   9.393  2.0567  0.0428  1.0523
  407MOL0     H54899   2.456   7.320   9.173  0.8122  0.3077  2.1398
  407MOL0     H54900   2.350   7.472   9.157 -1.0262 -0.1018 -0.0537
  407MOL0     H54901   2.159   7.314   9.211  2.2029  1.8028  4.9166
  407MOL0     H54902   2.257   7.180   9.224 -0.6812  1.3969  2.0343
  407MOL0     H54903   2.328   7.206   8.972  0.2952 -2.0072  2.4411
  407MOL0     H54904   2.227   7.354   8.962 -1.9455 -1.5493 -2.8278
  407MOL0     H54905   2.234   7.287   8.750  0.5850 -1.2971 -1.5313
  407MOL0     H54906   2.149   7.256   8.421  3.1646 -1.5551  0.0740
  407MOL0     H54907   2.164   7.415   8.500  0.8325  0.3320 -2.4610
  407MOL0     H54908   2.271   7.281   8.545 -0.5628 -3.1309 -1.0316
  407MOL0     H54909   1.598   7.355   8.359 -1.4058  1.7687 -2.2665
  407MOL0     H54910   1.440   7.340   8.169  1.3869  0.7102 -0.4431
  407MOL0     H54911   1.244   7.255   8.093 -5.0202  1.0192 -3.2121
  407MOL0     H54912   1.349   7.327   7.967 -2.1978  1.4218 -2.1079
  407MOL0     H54913   1.129   7.124   7.922 -2.4556  1.3346  2.1236
  407MOL0     H54914   1.133   7.294   7.913  0.5130  0.2239  0.9966
  407MOL0     H54915   1.366   7.157   7.783 -0.2600 -0.4535  1.1232
  407MOL0     H54916   1.262   7.292   7.713 -1.4875  1.6070  4.1771
  407MOL0     H54917   1.179   6.996   7.714 -0.4168  0.0383  0.4753
  407MOL0     H54918   1.079   7.131   7.669 -0.2654 -1.3994 -0.4092
  407MOL0     H54919   1.331   7.025   7.534  1.0312  1.0862 -3.7126
  407MOL0     H54920   1.231   7.159   7.471  1.3111 -0.4712 -0.5380
  407MOL0     H54921   1.141   6.866   7.509 -0.7692  0.3163  1.6364
  407MOL0     H54922   1.042   7.015   7.481  0.3581  1.2776  0.8868
  407MOL0     H54923   1.180   7.044   7.268  0.6979 -0.7810 -1.6263
  407MOL0     H54924   1.060   6.912   7.267  0.9527  0.0371 -0.1236
  407MOL0     H54925   1.357   6.871   7.324 -0.6459 -0.4080  1.3299
  407MOL0     H54926   1.286   6.838   7.165 -0.6870 -0.4542  0.1374
  407MOL0     H54927   1.564   6.927   8.125  1.5054 -1.0071  1.2627
  407MOL0     H54928   1.716   6.954   8.322 -0.9823 -0.9535  0.9484
  407MOL0     H54929   1.762   7.146   8.715 -0.4946 -0.0178  0.5639
  407MOL0     H54930   1.885   7.108   8.908 -1.6690  1.2603  0.7685
  407MOL0     H54931   1.897   7.362   9.149  0.7131  0.8591  0.5641
  407MOL0     H54932   1.942   7.442   8.914  0.7650  2.3281 -0.3071
  407MOL0     H54933   1.898   7.554   8.547  2.0213 -1.5020 -5.3203
  407MOL0     H54934   2.011   7.607   8.350  2.8483 -1.5861  1.1465
  407MOL0     H54935   2.182   7.623   8.221  0.7504  0.5283  0.1207
  407MOL0     H54936   2.119   7.769   8.155  0.2683 -0.1133 -0.5087
  407MOL0     H54937   2.390   7.834   8.152  2.5679 -1.5008 -1.9163
  407MOL0     H54938   2.302   7.753   8.018  0.2953 -0.4135 -0.3625
  407MOL0     H54939   2.362   7.539   8.095 -1.1242 -0.2749  1.4380
  407MOL0     H54940   2.407   7.592   8.250  1.4994  0.9057  0.4918
  407MOL0     H54941   2.550   7.663   7.977  3.6589 -1.1692 -0.0267
  407MOL0     H54942   2.600   7.545   8.100 -0.0913 -0.6370 -1.1370
  407MOL0     H54943   2.738   7.941   8.203  0.8647 -0.3061  0.5437
  407MOL0     H54944   2.202   7.942   8.540  2.1931 -1.0583  3.4159
  407MOL0     H54945   2.073   7.876   8.756  2.0831 -0.2454  0.1633
  408MOL0     O54946   8.054   8.618   5.234  0.2615  0.0363 -0.1825
  408MOL0     C54947   8.161   8.598   5.178 -0.4381 -0.1995 -1.3599
  408MOL0     O54948   8.257   8.678   5.143  0.0590 -0.1172 -0.5996
  408MOL0     C54949   8.264   8.813   5.170  0.0157 -0.7548 -0.9754
  408MOL0     C54950   8.341   8.893   5.073 -0.1010 -0.4089 -0.1594
  408MOL0     C54951   8.341   9.031   5.086  0.7270 -0.1141  0.1437
  408MOL0     C54952   8.292   9.097   5.198 -0.7804  0.1454  0.8589
  408MOL0     O54953   8.327   9.225   5.243  0.1410 -0.0899  0.0211
  408MOL0     C54954   8.465   9.258   5.233 -0.2075  0.6584  0.1983
  408MOL0     C54955   8.542   9.231   5.363 -0.3581 -0.4048  0.2259
  408MOL0     C54956   8.493   9.317   5.474 -0.2166  0.0508 -1.1977
  408MOL0     C54957   8.563   9.451   5.475  0.3778 -0.2797  0.6247
  408MOL0     C54958   8.530   9.535   5.601  0.1061 -0.8338 -0.8099
  408MOL0     C54959   8.374   9.539   5.628  1.1580  0.8975  0.2188
  408MOL0     C54960   8.328   9.641   5.734  0.7440  0.0162 -0.2893
  408MOL0     C54961   8.189   9.609   5.780 -0.0268  0.0704 -1.0043
  408MOL0     N54962   8.151   9.659   5.910 -0.0253 -0.2301  0.3786
  408MOL0     C54963   8.092   9.781   5.935  0.6507  0.1172  0.5828
  408MOL0     C54964   8.056   9.776   6.064  0.6446  0.3990 -0.1604
  408MOL0     C54965   7.964   9.864   6.143  0.0443 -0.1470  0.2123
  408MOL0     C54966   7.975  10.015   6.113 -0.8191  0.2063  0.5711
  408MOL0     C54967   8.104  10.086   6.164  0.1622 -0.0459 -0.2060
  408MOL0     C54968   8.222  10.078   6.069 -0.1648  0.5674 -0.5707
  408MOL0     O54969   8.304  10.185   6.106  0.3419 -0.4488  0.3830
  408MOL0     C54970   8.439  10.164   6.149 -0.5871  0.4362 -0.3640
  408MOL0     C54971   8.520  10.061   6.100  0.1765 -0.3218  0.0066
  408MOL0     C54972   8.653  10.034   6.142 -0.4202  0.5041  0.5450
  408MOL0     C54973   8.709   9.898   6.122 -0.1970  0.2418  0.0873
  408MOL0     C54974   8.706  10.120   6.237  0.4528  0.2959 -0.2780
  408MOL0     C54975   8.846  10.104   6.281  0.1129  1.1304 -0.5445
  408MOL0     O54976   8.858  10.087   6.410 -0.0320 -0.1061  0.1265
  408MOL0     C54977   8.967  10.026   6.465 -0.3089  0.0427 -0.3660
  408MOL0     C54978   9.096  10.036   6.416 -0.7211  0.1236 -0.5250
  408MOL0     C54979   9.210   9.987   6.479  0.0336 -0.6692 -0.4141
  408MOL0     C54980   9.183   9.916   6.594 -0.2546 -0.9077  0.4398
  408MOL0     O54981   9.289   9.884   6.669 -0.3486  0.2363  0.7949
  408MOL0     C54982   9.312   9.962   6.784 -0.4738 -0.1701 -0.0904
  408MOL0     C54983   9.448   9.941   6.847  0.0964 -0.2613  0.4756
  408MOL0     C54984   9.571   9.990   6.762  0.1701 -0.0319  0.3930
  408MOL0     C54985   9.699   9.970   6.853  0.4011  0.0144  0.0211
  408MOL0     C54986   9.831   9.982   6.791 -0.4384 -0.7667  0.1241
  408MOL0     C54987   9.852  10.112   6.719 -0.6185 -0.3769  0.6773
  408MOL0     C54988   9.909  10.107   6.579 -0.4036 -0.1391 -0.1732
  408MOL0     C54989   9.796  10.105   6.479 -0.3291  0.2023  0.7979
  408MOL0    Cl54990   9.736   9.939   6.469 -0.0643  0.0349 -0.0252
  408MOL0     C54991   9.057   9.893   6.644 -0.2896 -1.5273 -0.1058
  408MOL0     C54992   8.950   9.943   6.572  0.1778  0.2119 -0.5618
  408MOL0     O54993   8.940  10.102   6.196  0.9822 -0.3735 -0.0800
  408MOL0     C54994   8.630  10.224   6.289  0.2554 -1.1954  0.1660
  408MOL0     C54995   8.497  10.247   6.246  0.9909 -0.5751  0.0958
  408MOL0     N54996   8.090   9.651   6.107  0.1098 -0.0973  0.2700
  408MOL0     N54997   8.149   9.583   6.019 -0.3038  0.6888  0.4807
  408MOL0     C54998   8.230   9.012   5.290  0.1175 -0.2431 -0.4811
  408MOL0     C54999   8.212   8.876   5.283  0.7869  0.0033  0.6092
  408MOL0     C55000   8.204   8.455   5.167 -0.0201 -0.8167 -0.7777
  408MOL0     C55001   8.307   8.415   5.078 -0.6836 -0.1361  0.7815
  408MOL0     C55002   8.353   8.281   5.067 -0.7981 -0.0861 -0.0690
  408MOL0     C55003   8.283   8.183   5.138  0.7009 -0.0828 -0.9939
  408MOL0     O55004   8.322   8.050   5.138 -0.1770 -0.7431  0.9362
  408MOL0     C55005   8.429   8.000   5.067  0.3287 -0.4638 -0.6439
  408MOL0     C55006   8.401   7.986   4.914  1.0715 -0.1322  0.0741
  408MOL0     C55007   8.534   7.927   4.855  1.0691  0.1509  0.5964
  408MOL0     C55008   8.544   7.917   4.703  0.4088 -0.0980  0.0631
  408MOL0     C55009   8.444   7.830   4.638 -0.1806 -0.8388  0.3265
  408MOL0     C55010   8.372   7.759   4.574  0.9557 -0.1427 -0.0361
  408MOL0     C55011   8.177   8.216   5.224  0.0254 -0.1562  0.2384
  408MOL0     C55012   8.143   8.353   5.251 -0.4786 -0.9633 -0.3960
  408MOL0     H55013   8.396   8.856   4.987  0.7169  0.7539 -0.1712
  408MOL0     H55014   8.389   9.091   5.010  1.5003  0.1409  0.8136
  408MOL0     H55015   8.517   9.212   5.148 -0.1829 -0.3192  0.7257
  408MOL0     H55016   8.461   9.363   5.204  2.2823 -0.0947 -3.6369
  408MOL0     H55017   8.525   9.129   5.399  0.2489 -0.0955  1.4703
  408MOL0     H55018   8.651   9.241   5.355 -0.2668 -1.9715 -0.8162
  408MOL0     H55019   8.384   9.316   5.475 -0.3250  0.3886  2.6240
  408MOL0     H55020   8.529   9.266   5.564 -1.5179 -0.9347 -1.2101
  408MOL0     H55021   8.672   9.449   5.476  0.3706 -1.3656  1.9134
  408MOL0     H55022   8.528   9.500   5.383 -0.1268 -2.2197 -0.2628
  408MOL0     H55023   8.576   9.500   5.693 -0.7194  4.5883  2.0401
  408MOL0     H55024   8.563   9.639   5.600  0.1210 -0.6594  3.1037
  408MOL0     H55025   8.321   9.574   5.540  0.9985 -3.0443 -1.4452
  408MOL0     H55026   8.338   9.439   5.655 -0.8362  1.5066 -0.0758
  408MOL0     H55027   8.386   9.633   5.827  0.3528  4.0146  0.4793
  408MOL0     H55028   8.326   9.743   5.693 -1.0167  0.0085 -0.2912
  408MOL0     H55029   8.166   9.503   5.774 -2.4663  0.5379 -1.0384
  408MOL0     H55030   8.124   9.665   5.711 -1.0452 -0.1589 -0.2441
  408MOL0     H55031   8.067   9.862   5.866  3.2796  1.8267  1.4954
  408MOL0     H55032   7.857   9.850   6.126 -0.0389 -2.8060  2.2646
  408MOL0     H55033   7.980   9.853   6.251  3.8328  0.1733 -0.1908
  408MOL0     H55034   7.887  10.064   6.157 -1.8664  1.5976 -2.7475
  408MOL0     H55035   7.963  10.024   6.004 -0.0834 -0.8765  0.3929
  408MOL0     H55036   8.124  10.040   6.261  0.3125 -3.6574 -1.7717
  408MOL0     H55037   8.077  10.192   6.170  0.7696  0.1788 -1.1888
  408MOL0     H55038   8.178  10.100   5.971  1.2731  2.3953 -0.8723
  408MOL0     H55039   8.264   9.978   6.084  0.0089  0.7304  0.0422
  408MOL0     H55040   8.485   9.992   6.024  2.0479  0.3304 -1.5315
  408MOL0     H55041   8.642   9.828   6.071  1.9884  0.3444 -3.2226
  408MOL0     H55042   8.807   9.906   6.073  0.0436  1.8880  0.7762
  408MOL0     H55043   8.752   9.851   6.211  1.0650  0.6046 -0.2976
  408MOL0     H55044   9.120  10.084   6.322 -2.6595  0.6688 -0.7777
  408MOL0     H55045   9.306  10.021   6.441 -0.1500  0.8098  0.3932
  408MOL0     H55046   9.298  10.069   6.765  1.0852 -0.1516 -1.4012
  408MOL0     H55047   9.243   9.931   6.863  0.4469 -1.0366  0.3982
  408MOL0     H55048   9.450   9.997   6.941  1.1329  1.1945 -0.3687
  408MOL0     H55049   9.456   9.835   6.873 -3.7396 -0.5692  0.9095
  408MOL0     H55050   9.548  10.094   6.736  2.0694  0.3220 -0.0253
  408MOL0     H55051   9.595   9.939   6.668 -0.6405  0.1510  0.0719
  408MOL0     H55052   9.705  10.030   6.944 -0.5816 -1.5635  1.1557
  408MOL0     H55053   9.696   9.867   6.888  1.3489 -0.0872 -0.1538
  408MOL0     H55054   9.843   9.910   6.710 -1.3690 -0.0061 -0.7150
  408MOL0     H55055   9.910   9.959   6.863 -1.7135 -3.0212  0.8757
  408MOL0     H55056   9.761  10.173   6.720 -1.6182 -1.3131 -4.6305
  408MOL0     H55057   9.935  10.151   6.778 -0.6323  2.2581 -0.9106
  408MOL0     H55058   9.976  10.022   6.557 -0.6042 -0.1897 -0.6099
  408MOL0     H55059   9.960  10.202   6.563  0.0901 -0.3620  0.0550
  408MOL0     H55060   9.838  10.125   6.380 -0.1379 -2.8243  0.1772
  408MOL0     H55061   9.715  10.172   6.510 -0.4763 -0.5402  2.0662
  408MOL0     H55062   9.043   9.829   6.731 -1.2903 -0.4746  0.5293
  408MOL0     H55063   8.845   9.927   6.595  0.3294 -0.2603 -0.1881
  408MOL0     H55064   8.673  10.286   6.367 -1.0009  0.2043 -0.1949
  408MOL0     H55065   8.422  10.306   6.298  1.4753  0.0149  0.1254
  408MOL0     H55066   8.212   9.061   5.385  3.5117  1.4715 -0.5736
  408MOL0     H55067   8.149   8.817   5.349 -3.7854 -3.7547 -5.9183
  408MOL0     H55068   8.359   8.485   5.014 -0.2060 -0.5091  0.7522
  408MOL0     H55069   8.435   8.244   5.006 -2.6246 -3.4054 -0.7463
  408MOL0     H55070   8.512   8.069   5.086 -0.3688 -0.5692  3.9050
  408MOL0     H55071   8.457   7.901   5.104 -0.1450 -0.3954 -0.0969
  408MOL0     H55072   8.383   8.083   4.866  0.0593  0.0179  0.7049
  408MOL0     H55073   8.306   7.935   4.896  0.5544  0.7816  0.1421
  408MOL0     H55074   8.557   7.826   4.890  0.1029  0.0914  1.0923
  408MOL0     H55075   8.611   7.999   4.884 -0.6889  2.4231 -0.1121
  408MOL0     H55076   8.641   7.881   4.668 -0.3103 -1.0142 -1.0657
  408MOL0     H55077   8.544   8.021   4.670  4.9118  0.0073 -0.2193
  408MOL0     H55078   8.312   7.698   4.508  0.3738 -1.2679  1.4805
  408MOL0     H55079   8.124   8.140   5.280 -0.2693 -1.7516 -2.0444
  408MOL0     H55080   8.062   8.368   5.321  1.5392 -0.4286  1.9775
  409MOL0     O55081   5.630   5.422   1.221  0.7674 -0.3849  0.5435
  409MOL0     C55082   5.609   5.529   1.167  0.3127 -0.6834  0.0491
  409MOL0     O55083   5.693   5.597   1.077  0.6476 -0.2275 -0.0953
  409MOL0     C55084   5.816   5.539   1.041  0.3862  0.2534 -0.5538
  409MOL0     C55085   5.914   5.490   1.131 -0.4691  0.6123  0.1808
  409MOL0     C55086   6.021   5.425   1.078 -0.4611  0.2954  0.5224
  409MOL0     C55087   6.041   5.407   0.948  0.3454  0.0143 -0.1588
  409MOL0     O55088   6.151   5.340   0.914 -0.2448 -0.0960  0.1273
  409MOL0     C55089   6.146   5.236   0.813 -0.2501  0.0239 -1.5365
  409MOL0     C55090   6.198   5.279   0.682 -0.3457 -0.5518 -0.3940
  409MOL0     C55091   6.348   5.332   0.677 -0.4204  0.3212 -0.1946
  409MOL0     C55092   6.455   5.249   0.756  0.1426 -0.2859  0.2586
  409MOL0     C55093   6.484   5.128   0.675 -0.6737  0.1537  1.1634
  409MOL0     C55094   6.625   5.052   0.679 -0.7887  0.8950 -0.6319
  409MOL0     C55095   6.753   5.135   0.635 -0.5233  0.0909  0.7353
  409MOL0     C55096   6.875   5.044   0.605 -0.2061 -0.0778  0.4506
  409MOL0     N55097   6.898   4.939   0.702 -0.1421  0.6495 -0.1575
  409MOL0     C55098   6.899   4.811   0.671  0.8031 -0.2467  0.4686
  409MOL0     C55099   6.902   4.732   0.783 -0.3366  0.5457 -0.1521
  409MOL0     C55100   6.903   4.583   0.792 -0.2623 -0.0155 -0.0458
  409MOL0     C55101   6.782   4.523   0.737  0.9798 -0.5345  0.0670
  409MOL0     C55102   6.666   4.561   0.827 -0.5733  0.5929 -0.0140
  409MOL0     C55103   6.570   4.653   0.758  0.4883  0.4282  0.8594
  409MOL0     O55104   6.457   4.672   0.845  0.5933 -0.4339  0.2317
  409MOL0     C55105   6.346   4.731   0.792  0.8757  0.1390 -0.6932
  409MOL0     C55106   6.335   4.788   0.667  0.2328 -0.2466 -0.1251
  409MOL0     C55107   6.223   4.850   0.625 -0.3012 -0.3014  1.0500
  409MOL0     C55108   6.227   4.897   0.477 -0.7207 -0.2456  0.2156
  409MOL0     C55109   6.113   4.866   0.713 -0.1155 -0.1312 -0.5157
  409MOL0     C55110   5.987   4.938   0.682  0.2147 -0.5805 -0.5254
  409MOL0     O55111   5.904   4.969   0.788  0.4260  0.5571  0.2789
  409MOL0     C55112   5.783   5.041   0.776 -1.2145  0.6383  0.1660
  409MOL0     C55113   5.695   5.035   0.666  1.4007  0.0669  0.6120
  409MOL0     C55114   5.570   5.090   0.672 -0.3038  0.2423 -0.8813
  409MOL0     C55115   5.538   5.167   0.784 -0.0025 -0.9913  0.4183
  409MOL0     O55116   5.424   5.243   0.779  0.7518  1.0480  0.1229
  409MOL0     C55117   5.301   5.211   0.710 -0.1271  0.8213  0.2796
  409MOL0     C55118   5.246   5.079   0.750  0.2501 -0.5989  0.3465
  409MOL0     C55119   5.104   5.076   0.688  0.2324  0.3640 -0.0521
  409MOL0     C55120   4.996   5.065   0.798 -0.6157  0.6005  0.7065
  409MOL0     C55121   4.986   4.921   0.859 -0.3019 -0.4524 -0.3945
  409MOL0     C55122   4.848   4.903   0.911 -0.1181 -0.1294  0.3266
  409MOL0     C55123   4.837   4.782   1.001  0.7540  0.1054  0.1748
  409MOL0     C55124   4.713   4.785   1.096 -0.1924  0.3348  0.9135
  409MOL0    Cl55125   4.734   4.662   1.226  0.0333  0.2925 -0.1865
  409MOL0     C55126   5.623   5.177   0.903  0.0345  0.3092  0.0329
  409MOL0     C55127   5.743   5.102   0.894 -0.1749 -1.1486  0.0330
  409MOL0     O55128   5.955   4.959   0.566  0.5509  0.7650 -0.5821
  409MOL0     C55129   6.119   4.804   0.839 -0.2346  0.5366 -0.8694
  409MOL0     C55130   6.237   4.741   0.883 -0.4771 -1.5499 -0.3557
  409MOL0     N55131   6.914   4.820   0.879  0.1728 -0.1988  0.6475
  409MOL0     N55132   6.915   4.939   0.836  0.5826 -0.4902 -0.2671
  409MOL0     C55133   5.948   5.466   0.862 -0.2195 -0.0629  0.5130
  409MOL0     C55134   5.838   5.533   0.906 -0.3242  0.3768 -0.2291
  409MOL0     C55135   5.489   5.601   1.204  0.4368  0.8828 -0.6868
  409MOL0     C55136   5.461   5.717   1.134 -0.4394  0.3358  0.0683
  409MOL0     C55137   5.351   5.792   1.171 -0.3817  0.4497 -0.0032
  409MOL0     C55138   5.253   5.742   1.263 -0.7720 -0.1092 -0.2856
  409MOL0     O55139   5.141   5.802   1.303  0.0134  0.2579 -0.3668
  409MOL0     C55140   5.155   5.942   1.320  0.1268 -0.5833 -1.8348
  409MOL0     C55141   5.011   5.999   1.359 -0.2630 -0.8815  0.6796
  409MOL0     C55142   4.918   5.988   1.240  0.8199 -0.7546  0.9669
  409MOL0     C55143   4.833   5.856   1.259  0.2803  0.5098  0.2058
  409MOL0     C55144   4.738   5.850   1.145 -0.4177 -0.1771 -0.8445
  409MOL0     C55145   4.659   5.852   1.054 -0.3422 -1.1106 -0.2539
  409MOL0     C55146   5.279   5.616   1.332  0.6011  0.3304 -0.8079
  409MOL0     C55147   5.399   5.551   1.309  0.3649  0.0601  0.3822
  409MOL0     H55148   5.896   5.503   1.238 -1.0921 -1.5546  0.3834
  409MOL0     H55149   6.099   5.388   1.144  1.6611  1.2204 -1.3554
  409MOL0     H55150   6.209   5.152   0.844 -0.4578  0.3109 -0.2442
  409MOL0     H55151   6.042   5.206   0.799  0.0266 -0.4270 -2.7051
  409MOL0     H55152   6.176   5.194   0.617 -0.0523 -2.2711  1.6642
  409MOL0     H55153   6.136   5.363   0.650  0.0014  0.9813  2.5381
  409MOL0     H55154   6.388   5.350   0.576  1.7144 -0.1301  0.5027
  409MOL0     H55155   6.328   5.427   0.727 -4.8478 -2.1087  3.3769
  409MOL0     H55156   6.537   5.318   0.774  1.6503 -1.6396 -1.0943
  409MOL0     H55157   6.428   5.220   0.858  1.3457 -0.0308  0.6641
  409MOL0     H55158   6.406   5.052   0.683 -0.0612 -0.9875 -2.0566
  409MOL0     H55159   6.504   5.156   0.571  1.3665  0.6668  1.6437
  409MOL0     H55160   6.624   5.026   0.785 -2.5781 -1.1273 -1.0705
  409MOL0     H55161   6.608   4.965   0.615 -1.1910  2.5566 -2.9183
  409MOL0     H55162   6.735   5.190   0.543  1.0109 -2.5985 -1.3111
  409MOL0     H55163   6.788   5.199   0.717 -0.1091 -0.7101  1.2049
  409MOL0     H55164   6.967   5.104   0.607 -1.7879  2.5194 -0.2555
  409MOL0     H55165   6.869   4.996   0.506  2.9908 -0.4704  0.3161
  409MOL0     H55166   6.883   4.759   0.577 -2.9083 -1.9730  1.8444
  409MOL0     H55167   6.988   4.534   0.743  0.3168  0.7120  0.2075
  409MOL0     H55168   6.896   4.554   0.897 -4.2588  1.3656  0.2251
  409MOL0     H55169   6.787   4.416   0.757  1.5372 -0.6789 -0.7683
  409MOL0     H55170   6.764   4.539   0.630  2.2858 -1.2091 -0.2730
  409MOL0     H55171   6.706   4.597   0.922  1.4886 -2.4628  0.4294
  409MOL0     H55172   6.605   4.471   0.839 -0.2783  0.5449  1.2262
  409MOL0     H55173   6.531   4.608   0.667  0.0928  0.9946  0.7444
  409MOL0     H55174   6.606   4.752   0.731 -2.2900  0.6346 -2.9264
  409MOL0     H55175   6.432   4.788   0.618  0.8548  1.5129  1.0100
  409MOL0     H55176   6.240   5.005   0.471  0.6050 -0.3213  1.2231
  409MOL0     H55177   6.322   4.863   0.435 -0.3733 -0.0737  0.8589
  409MOL0     H55178   6.142   4.866   0.415  1.2484 -1.6498 -1.9741
  409MOL0     H55179   5.717   4.970   0.582 -0.3537 -1.6804  1.4150
  409MOL0     H55180   5.488   5.079   0.601 -0.5778 -1.3941 -0.3557
  409MOL0     H55181   5.224   5.288   0.723  0.6209  1.6906 -0.3298
  409MOL0     H55182   5.310   5.225   0.602  0.1240  0.3767  0.2404
  409MOL0     H55183   5.307   4.998   0.709  2.0434  1.9818 -2.5763
  409MOL0     H55184   5.233   5.067   0.858  0.4446  1.2793  0.6139
  409MOL0     H55185   5.100   4.977   0.640  2.3524  0.6125 -0.8593
  409MOL0     H55186   5.077   5.145   0.608 -2.0189  1.0162  1.1706
  409MOL0     H55187   5.007   5.134   0.882  1.3144  2.5804 -1.0353
  409MOL0     H55188   4.899   5.098   0.761 -1.6243 -1.4598  1.3922
  409MOL0     H55189   5.056   4.918   0.943 -1.7753 -1.7479  0.8486
  409MOL0     H55190   5.007   4.842   0.786 -1.5694 -0.1420 -1.1350
  409MOL0     H55191   4.806   4.991   0.961  1.2595  1.1011 -0.5972
  409MOL0     H55192   4.787   4.877   0.824 -1.2108  0.5529  0.8606
  409MOL0     H55193   4.924   4.764   1.065  0.9646  0.2206 -0.0724
  409MOL0     H55194   4.832   4.696   0.933 -2.7348 -0.0857  0.4861
  409MOL0     H55195   4.624   4.754   1.041 -0.7086 -0.0043  1.9078
  409MOL0     H55196   4.702   4.884   1.143  1.5747 -0.0636  2.2765
  409MOL0     H55197   5.607   5.239   0.990 -0.6835  1.1382 -0.6715
  409MOL0     H55198   5.798   5.099   0.988  0.1051  0.1871 -0.0570
  409MOL0     H55199   6.034   4.813   0.906 -1.4734 -1.7957 -2.0117
  409MOL0     H55200   6.245   4.703   0.985 -2.0730 -3.2780 -0.8272
  409MOL0     H55201   5.964   5.465   0.755  0.2983  1.2000  0.5695
  409MOL0     H55202   5.771   5.564   0.826 -2.2391 -1.1039  0.7074
  409MOL0     H55203   5.518   5.763   1.054 -0.4620 -0.1976 -0.2607
  409MOL0     H55204   5.331   5.880   1.112 -0.9173 -0.8572 -1.8524
  409MOL0     H55205   5.222   5.961   1.405 -2.3797 -0.0026  0.1187
  409MOL0     H55206   5.181   5.996   1.228  2.2539  0.8468 -0.4930
  409MOL0     H55207   5.036   6.105   1.369 -2.3896 -0.3922  1.3669
  409MOL0     H55208   4.970   5.956   1.451 -4.2007 -2.7872 -1.6854
  409MOL0     H55209   4.964   6.006   1.143  3.4609  1.4660  2.4773
  409MOL0     H55210   4.850   6.074   1.243  0.0869 -1.2938  0.2305
  409MOL0     H55211   4.779   5.853   1.354 -1.6263  1.5200 -0.7782
  409MOL0     H55212   4.907   5.776   1.252  1.5569  1.6687 -0.0477
  409MOL0     H55213   4.576   5.846   0.986 -1.3335 -2.9438  1.0379
  409MOL0     H55214   5.219   5.577   1.413 -0.8189  2.5861 -0.6805
  409MOL0     H55215   5.428   5.459   1.359  1.0325  0.4639  0.7478
  410MOL0     O55216   6.470   8.780   3.698 -0.3795 -0.7103  0.4622
  410MOL0     C55217   6.585   8.739   3.710 -0.9132 -0.5743 -1.3562
  410MOL0     O55218   6.695   8.798   3.777 -0.1935 -0.9270  0.6258
  410MOL0     C55219   6.674   8.889   3.881  0.7295  0.0886 -0.0821
  410MOL0     C55220   6.552   8.909   3.947  0.3206 -0.5877 -0.1040
  410MOL0     C55221   6.554   9.002   4.051 -0.8602 -0.1666  0.4672
  410MOL0     C55222   6.659   9.091   4.073 -0.4550 -0.3308 -0.2859
  410MOL0     O55223   6.667   9.195   4.168 -0.0492  0.8361 -0.0193
  410MOL0     C55224   6.545   9.236   4.230 -0.0583  0.1444 -0.0736
  410MOL0     C55225   6.577   9.358   4.315 -0.7313  0.7993  0.4583
  410MOL0     C55226   6.457   9.421   4.375  1.4817  0.1990 -0.5507
  410MOL0     C55227   6.485   9.533   4.478  0.0429 -0.4761  0.1970
  410MOL0     C55228   6.356   9.576   4.551 -0.3456 -0.7544  0.1024
  410MOL0     C55229   6.405   9.676   4.657  0.0924 -0.0657 -0.2055
  410MOL0     C55230   6.311   9.701   4.776 -0.1372 -0.3386  0.0631
  410MOL0     C55231   6.208   9.810   4.737 -1.3642  0.3499 -0.0258
  410MOL0     N55232   6.106   9.812   4.837  0.1077  0.0661  0.7422
  410MOL0     C55233   6.078   9.925   4.904  0.2939 -0.4896  0.2468
  410MOL0     C55234   5.961   9.910   4.958  0.4089  0.2919  0.3190
  410MOL0     C55235   5.877  10.012   5.023 -0.7552  0.0082  0.5882
  410MOL0     C55236   5.797   9.936   5.123  0.1108  0.5099 -0.7092
  410MOL0     C55237   5.864   9.815   5.205  0.6713 -0.0355  0.4994
  410MOL0     C55238   5.980   9.864   5.293  0.9827  0.8499 -0.2219
  410MOL0     O55239   5.961   9.989   5.361 -0.2430  0.0136  0.3848
  410MOL0     C55240   5.868   9.997   5.463  0.1369  0.0720 -0.3702
  410MOL0     C55241   5.858   9.898   5.564  1.1784 -0.4156 -1.1177
  410MOL0     C55242   5.773   9.907   5.674 -0.0378 -0.0970  0.4136
  410MOL0     C55243   5.789   9.795   5.776 -0.1666  0.1660 -0.7834
  410MOL0     C55244   5.673  10.016   5.666 -0.6073 -0.5603  0.9458
  410MOL0     C55245   5.569  10.048   5.766  0.0583  0.2858 -0.6091
  410MOL0     O55246   5.467  10.118   5.720 -0.3806 -0.7157 -0.0394
  410MOL0     C55247   5.373  10.175   5.801  0.0179 -0.0605 -0.2092
  410MOL0     C55248   5.241  10.140   5.802 -0.0185  0.5850  0.8939
  410MOL0     C55249   5.142  10.193   5.882 -0.4962  0.1521 -0.3575
  410MOL0     C55250   5.185  10.300   5.966  0.8844 -0.0069  0.6258
  410MOL0     O55251   5.111  10.377   6.045  0.1811  0.2366  0.2368
  410MOL0     C55252   4.978  10.331   6.066  0.6873 -0.7617 -0.1117
  410MOL0     C55253   4.885  10.447   6.120  0.6895  0.3849 -0.9737
  410MOL0     C55254   4.874  10.563   6.022 -0.1881 -0.7555 -1.3463
  410MOL0     C55255   4.785  10.671   6.092  0.1175 -0.1175  0.3759
  410MOL0     C55256   4.776  10.806   6.022  0.1174 -0.1923 -0.5369
  410MOL0     C55257   4.746  10.804   5.875 -0.3381  0.6363  0.7993
  410MOL0     C55258   4.745  10.950   5.815 -0.1488  0.2669 -0.8026
  410MOL0     C55259   4.614  11.023   5.835 -0.0794 -0.3269 -0.4427
  410MOL0    Cl55260   4.471  10.931   5.770  0.1530  0.1674 -0.2043
  410MOL0     C55261   5.317  10.339   5.962 -0.6888  0.0380 -0.7055
  410MOL0     C55262   5.410  10.282   5.882 -0.1730  0.3664  1.3170
  410MOL0     O55263   5.584  10.001   5.885  0.1958 -1.2005 -0.4932
  410MOL0     C55264   5.672  10.113   5.552 -0.6149 -0.2844  0.2249
  410MOL0     C55265   5.776  10.098   5.454 -0.2284 -0.2226  0.2606
  410MOL0     N55266   5.913   9.789   4.912  0.1507  0.1123 -1.1291
  410MOL0     N55267   6.002   9.727   4.835 -0.2467 -0.2042  0.3229
  410MOL0     C55268   6.771   9.088   3.993  0.2705  0.8318 -0.3394
  410MOL0     C55269   6.787   8.976   3.905 -0.1273 -0.0075 -0.7175
  410MOL0     C55270   6.603   8.605   3.656  0.7357  0.7632  0.8866
  410MOL0     C55271   6.724   8.534   3.647 -0.0099 -0.1421  0.3195
  410MOL0     C55272   6.733   8.410   3.593 -0.1004  0.0851  0.3226
  410MOL0     C55273   6.625   8.345   3.541  0.1916  0.0778 -0.2183
  410MOL0     O55274   6.646   8.222   3.484  0.0329  0.3804  0.3878
  410MOL0     C55275   6.708   8.131   3.581 -0.1380 -0.0035 -0.8927
  410MOL0     C55276   6.610   8.085   3.694 -0.3400 -1.1222  0.0618
  410MOL0     C55277   6.473   8.043   3.633 -0.5229 -0.0635 -0.5919
  410MOL0     C55278   6.369   7.973   3.724 -0.3652  0.2215  0.2050
  410MOL0     C55279   6.343   8.055   3.842 -0.1157  0.3076 -0.6583
  410MOL0     C55280   6.314   8.131   3.931  0.3648 -0.3171  0.1693
  410MOL0     C55281   6.499   8.403   3.550 -0.5040  0.1908 -0.4801
  410MOL0     C55282   6.486   8.530   3.606 -0.0042  0.3659  0.7043
  410MOL0     H55283   6.462   8.851   3.931  1.0934 -1.4694 -1.4283
  410MOL0     H55284   6.455   9.007   4.096 -2.2880 -2.5032 -2.1450
  410MOL0     H55285   6.469   9.268   4.158 -1.2363 -1.1205  0.5779
  410MOL0     H55286   6.504   9.167   4.304 -0.2813  0.0320 -0.2998
  410MOL0     H55287   6.656   9.343   4.389 -0.2965  0.2859 -0.1162
  410MOL0     H55288   6.638   9.427   4.256 -0.6408 -0.4835 -0.9933
  410MOL0     H55289   6.396   9.459   4.292 -0.3600  0.6077  0.9290
  410MOL0     H55290   6.397   9.344   4.423 -0.0192  0.4406 -1.9559
  410MOL0     H55291   6.568   9.507   4.544  0.7365 -2.6350 -1.3980
  410MOL0     H55292   6.534   9.612   4.422 -0.7960  0.4988  0.7907
  410MOL0     H55293   6.296   9.639   4.484 -2.1856 -2.4935  0.0238
  410MOL0     H55294   6.301   9.487   4.583  2.9876 -2.9026  0.2947
  410MOL0     H55295   6.490   9.623   4.702 -0.3560 -0.4395  0.2227
  410MOL0     H55296   6.442   9.767   4.610  1.2656 -0.6640 -0.4531
  410MOL0     H55297   6.271   9.603   4.806 -1.3550 -0.0178 -0.4316
  410MOL0     H55298   6.366   9.726   4.867  0.3559 -1.8630  0.2057
  410MOL0     H55299   6.165   9.791   4.638 -3.2597  3.3452  0.1011
  410MOL0     H55300   6.260   9.905   4.728  0.3134 -0.5400 -0.2328
  410MOL0     H55301   6.135  10.017   4.917 -0.4305  0.0485 -0.3050
  410MOL0     H55302   5.941  10.086   5.072 -0.2541  1.1025 -1.6142
  410MOL0     H55303   5.802  10.058   4.958 -0.4461  0.4327  0.5325
  410MOL0     H55304   5.728   9.878   5.060  1.8045 -2.0482 -0.3545
  410MOL0     H55305   5.735   9.997   5.189  1.5123  0.6645  0.5209
  410MOL0     H55306   5.882   9.725   5.146  1.3113 -1.5750  2.9228
  410MOL0     H55307   5.780   9.778   5.264  2.4393 -2.5593  1.5944
  410MOL0     H55308   6.065   9.892   5.231  0.4982  3.6238  0.2439
  410MOL0     H55309   6.008   9.784   5.363  1.4122 -1.6810 -3.1011
  410MOL0     H55310   5.923   9.812   5.572  0.1104 -1.0699  2.5060
  410MOL0     H55311   5.738   9.704   5.744  0.4854 -0.3293 -0.4072
  410MOL0     H55312   5.896   9.773   5.777 -0.3680 -0.9004 -1.4344
  410MOL0     H55313   5.757   9.826   5.876  0.6540 -0.9992 -0.1461
  410MOL0     H55314   5.212  10.066   5.728  0.5180 -1.0611  2.2563
  410MOL0     H55315   5.040  10.157   5.888 -0.9313  1.1931 -1.0535
  410MOL0     H55316   4.930  10.321   5.968 -2.6891  1.9304  1.0672
  410MOL0     H55317   4.962  10.241   6.126  1.6399 -1.2919 -0.6323
  410MOL0     H55318   4.778  10.427   6.130  0.6060  1.3697  0.3563
  410MOL0     H55319   4.914  10.475   6.221  0.2712 -0.6687 -0.5497
  410MOL0     H55320   4.828  10.541   5.925  2.2085  2.7438 -3.5375
  410MOL0     H55321   4.977  10.593   5.999 -0.0125  0.0291  0.2967
  410MOL0     H55322   4.685  10.635   6.115  0.8275 -0.0050  4.4120
  410MOL0     H55323   4.828  10.693   6.191  0.0320  0.2277  0.3386
  410MOL0     H55324   4.861  10.869   6.050 -2.8486  6.0726 -3.4937
  410MOL0     H55325   4.694  10.860   6.071 -1.1359 -0.9861 -1.6814
  410MOL0     H55326   4.830  10.759   5.823 -2.2742  0.9172 -2.9097
  410MOL0     H55327   4.661  10.744   5.841  0.1169  1.6475 -2.4531
  410MOL0     H55328   4.767  10.940   5.708  0.2565 -1.9429 -0.5468
  410MOL0     H55329   4.821  11.016   5.858 -0.1301  2.1367 -3.4341
  410MOL0     H55330   4.615  11.112   5.770 -0.0238 -0.5249 -0.7136
  410MOL0     H55331   4.608  11.064   5.936 -1.5904  0.2389 -0.7341
  410MOL0     H55332   5.353  10.425   6.017 -0.9308  0.8464 -1.7666
  410MOL0     H55333   5.513  10.314   5.872  0.5286 -1.6658  1.4807
  410MOL0     H55334   5.600  10.193   5.545 -0.0526  0.2067 -0.0976
  410MOL0     H55335   5.779  10.175   5.377 -1.5761  1.6986  2.0174
  410MOL0     H55336   6.842   9.170   3.995  0.8423  0.3612  2.0410
  410MOL0     H55337   6.871   8.966   3.838 -1.1215  0.4927 -2.0918
  410MOL0     H55338   6.814   8.590   3.673  1.1040  0.6797 -4.4196
  410MOL0     H55339   6.830   8.363   3.589 -0.6731 -1.1548 -3.5738
  410MOL0     H55340   6.735   8.041   3.525 -1.6357 -1.2561  0.2934
  410MOL0     H55341   6.804   8.169   3.616 -1.1241  0.5276  1.3808
  410MOL0     H55342   6.601   8.169   3.764 -1.6368 -0.9621 -0.2703
  410MOL0     H55343   6.654   8.002   3.750 -0.9891  0.4542  3.1431
  410MOL0     H55344   6.494   7.978   3.548 -0.4339 -1.1223  0.2231
  410MOL0     H55345   6.429   8.137   3.597 -2.8864 -0.5595  0.7583
  410MOL0     H55346   6.403   7.872   3.748 -1.9423 -0.4857 -0.3374
  410MOL0     H55347   6.280   7.940   3.669  0.9336 -5.9262  1.0468
  410MOL0     H55348   6.282   8.205   4.002 -1.0251 -1.2148  0.5219
  410MOL0     H55349   6.414   8.355   3.503 -1.6294 -0.3808  2.0039
  410MOL0     H55350   6.385   8.570   3.603 -0.4191 -0.6936 -1.0841
  411MOL0     O55351  11.395   5.687   5.913  0.1644  0.2026 -0.8718
  411MOL0     C55352  11.486   5.630   5.848  0.1098  0.5262  0.1958
  411MOL0     O55353  11.617   5.676   5.837 -0.0183 -1.0447 -0.1794
  411MOL0     C55354  11.672   5.768   5.919 -0.8593 -0.5241  0.1304
  411MOL0     C55355  11.816   5.777   5.893  0.0566  0.2724 -0.4400
  411MOL0     C55356  11.895   5.855   5.981 -0.4523  0.4156 -0.4380
  411MOL0     C55357  11.844   5.920   6.091  0.4078  0.1430 -0.0657
  411MOL0     O55358  11.929   5.991   6.172  0.3404  1.0494 -0.2133
  411MOL0     C55359  11.923   5.959   6.309  0.0671  0.0838 -1.1278
  411MOL0     C55360  12.044   6.040   6.373 -0.2034 -0.4118  0.1503
  411MOL0     C55361  12.093   5.987   6.506 -0.0442  0.1651  0.7682
  411MOL0     C55362  12.199   6.068   6.579 -0.7291  0.1551 -1.1506
  411MOL0     C55363  12.236   6.008   6.718  0.2447  0.2385 -0.1292
  411MOL0     C55364  12.119   6.029   6.820 -1.0868  0.6087 -0.7488
  411MOL0     C55365  12.164   6.023   6.966 -0.2015  0.0272  0.4706
  411MOL0     C55366  12.196   5.886   7.008 -0.2842 -1.0136 -0.5397
  411MOL0     N55367  12.254   5.882   7.143 -0.4017  0.3149  0.2051
  411MOL0     C55368  12.180   5.887   7.256 -0.0010  0.3156  0.2208
  411MOL0     C55369  12.272   5.842   7.342  1.3921 -0.5345 -0.6431
  411MOL0     C55370  12.238   5.836   7.484 -0.2996  0.4947 -0.2491
  411MOL0     C55371  12.363   5.808   7.581  0.3615 -0.6195  0.1277
  411MOL0     C55372  12.430   5.936   7.631 -0.5266 -0.5723 -0.4511
  411MOL0     C55373  12.515   5.936   7.752  0.3809 -0.1527 -1.2424
  411MOL0     O55374  12.429   5.931   7.864 -0.6268 -0.4863 -0.3082
  411MOL0     C55375  12.472   5.982   7.989  0.0261 -0.1013 -0.3866
  411MOL0     C55376  12.605   5.991   8.035  0.1519 -0.6223 -0.1904
  411MOL0     C55377  12.645   6.044   8.166 -0.1862 -0.5895  0.5032
  411MOL0     C55378  12.791   6.022   8.209  0.1254 -0.0894  0.3081
  411MOL0     C55379  12.546   6.109   8.246  0.4462  0.6822  0.0016
  411MOL0     C55380  12.570   6.180   8.370 -0.1016 -0.2042  0.9475
  411MOL0     O55381  12.702   6.208   8.406  0.3874  0.3360 -0.4633
  411MOL0     C55382  12.741   6.250   8.535  0.1006 -0.5529  0.3048
  411MOL0     C55383  12.866   6.219   8.577  0.1685  0.0904  0.2613
  411MOL0     C55384  12.920   6.271   8.696 -0.3755 -0.5673 -1.0659
  411MOL0     C55385  12.848   6.345   8.786 -1.5549  0.2945 -0.4178
  411MOL0     O55386  12.905   6.395   8.902 -0.7523  0.0284 -0.1223
  411MOL0     C55387  12.820   6.423   9.018 -0.3885  0.1831 -0.6018
  411MOL0     C55388  12.910   6.402   9.139 -0.0357 -0.2439  0.5316
  411MOL0     C55389  12.833   6.394   9.266 -0.4056  0.6349 -1.5062
  411MOL0     C55390  12.929   6.385   9.390 -0.6529  0.7144 -0.4752
  411MOL0     C55391  12.876   6.435   9.514  0.7043  0.5042  0.0238
  411MOL0     C55392  12.983   6.477   9.610  0.5647  0.0288  0.4294
  411MOL0     C55393  12.937   6.541   9.748  0.5341  0.4798  0.5350
  411MOL0     C55394  13.049   6.614   9.822 -0.7018  0.8514  0.2752
  411MOL0    Cl55395  13.068   6.768   9.735  0.2019  0.3613  0.3364
  411MOL0     C55396  12.725   6.378   8.738  0.3093 -0.1623 -0.4968
  411MOL0     C55397  12.669   6.332   8.617 -0.3337  0.2718 -1.1051
  411MOL0     O55398  12.470   6.207   8.436 -0.6526 -0.4482 -0.5028
  411MOL0     C55399  12.410   6.081   8.202  0.8400  0.0414  0.1581
  411MOL0     C55400  12.374   6.022   8.085  0.0072 -0.2878 -0.3520
  411MOL0     N55401  12.393   5.799   7.286  0.8105  0.2016 -0.3169
  411MOL0     N55402  12.377   5.827   7.162 -0.0319  0.6305  0.0625
  411MOL0     C55403  11.712   5.903   6.123  0.9059 -0.1728 -0.2255
  411MOL0     C55404  11.628   5.829   6.033 -0.4835 -0.5687 -0.6003
  411MOL0     C55405  11.438   5.520   5.764 -0.1045  0.4198  0.2186
  411MOL0     C55406  11.516   5.482   5.656 -0.0419 -0.6211  0.1286
  411MOL0     C55407  11.470   5.397   5.565  0.9937 -0.3683 -0.5687
  411MOL0     C55408  11.351   5.322   5.581  0.1687 -0.2955 -0.1006
  411MOL0     O55409  11.331   5.220   5.485  0.6142 -0.0599  0.4186
  411MOL0     C55410  11.224   5.128   5.502  0.4321 -0.6940 -0.9979
  411MOL0     C55411  11.090   5.191   5.462 -0.6469 -0.2780  0.0808
  411MOL0     C55412  10.973   5.116   5.519  0.2436  0.5221 -0.2624
  411MOL0     C55413  10.939   4.981   5.452 -0.2632  0.1207 -0.2896
  411MOL0     C55414  11.009   4.865   5.508  0.5414  0.3613 -0.2441
  411MOL0     C55415  11.075   4.782   5.563 -0.2301  0.1780 -0.1432
  411MOL0     C55416  11.264   5.355   5.687  0.0840 -0.4607 -0.5760
  411MOL0     C55417  11.312   5.457   5.779 -0.6797  0.5873  0.6687
  411MOL0     H55418  11.848   5.725   5.804 -0.6604 -1.8080  0.4453
  411MOL0     H55419  11.997   5.868   5.947 -1.0784 -1.3184 -3.2588
  411MOL0     H55420  11.825   5.986   6.349 -0.4705 -0.3484 -2.1417
  411MOL0     H55421  11.929   5.851   6.320 -2.4884 -0.1513 -1.4636
  411MOL0     H55422  12.127   6.028   6.303 -2.0074  2.5687 -2.8225
  411MOL0     H55423  12.010   6.143   6.382 -1.1398 -0.7305  0.4455
  411MOL0     H55424  12.000   5.983   6.562 -1.5753 -0.3838 -1.6733
  411MOL0     H55425  12.131   5.885   6.514 -0.0875  0.2384  2.3240
  411MOL0     H55426  12.292   6.076   6.522  0.1189 -0.9617  0.0156
  411MOL0     H55427  12.172   6.173   6.594 -3.7782 -0.6899 -0.0170
  411MOL0     H55428  12.261   5.902   6.720 -0.1400  0.1018  2.6929
  411MOL0     H55429  12.322   6.065   6.756 -1.6240  2.2983  1.3145
  411MOL0     H55430  12.073   6.123   6.790  0.5168  2.1033  1.2226
  411MOL0     H55431  12.050   5.946   6.800  0.2425 -0.5152 -0.7705
  411MOL0     H55432  12.242   6.096   6.989 -1.2934  1.1830  0.6039
  411MOL0     H55433  12.081   6.051   7.032  1.2861  1.0289  2.0109
  411MOL0     H55434  12.274   5.847   6.942 -0.5674  0.9307 -2.1340
  411MOL0     H55435  12.105   5.826   7.000  0.1811 -1.7267 -0.5403
  411MOL0     H55436  12.076   5.911   7.276 -0.2507 -0.9107  0.4997
  411MOL0     H55437  12.193   5.930   7.517 -0.6766 -0.3210  1.6522
  411MOL0     H55438  12.163   5.759   7.497 -1.2525  1.7378  2.3957
  411MOL0     H55439  12.434   5.737   7.538  2.1523  1.8509 -1.2416
  411MOL0     H55440  12.316   5.756   7.665 -0.2585 -0.8784 -0.3694
  411MOL0     H55441  12.347   6.005   7.651 -2.7049 -2.8089 -1.2389
  411MOL0     H55442  12.501   5.968   7.554  1.1333 -0.4903  1.0559
  411MOL0     H55443  12.563   6.035   7.751  2.1285 -0.5545  4.6248
  411MOL0     H55444  12.582   5.850   7.750  0.1921 -0.2870 -1.7836
  411MOL0     H55445  12.674   5.943   7.967  0.4387 -1.3757  0.6127
  411MOL0     H55446  12.857   6.072   8.139  0.0005 -2.0954 -1.3354
  411MOL0     H55447  12.815   6.050   8.312  1.5518 -2.0561  0.5658
  411MOL0     H55448  12.818   5.917   8.195 -0.5380 -0.0118 -1.8539
  411MOL0     H55449  12.938   6.161   8.520 -1.3132  1.5598 -3.4178
  411MOL0     H55450  13.025   6.252   8.714  0.0806  0.4401 -2.5134
  411MOL0     H55451  12.778   6.522   8.997 -3.2079 -0.2373  2.2924
  411MOL0     H55452  12.734   6.356   9.033  0.3695 -0.2296  2.7321
  411MOL0     H55453  12.952   6.301   9.139 -0.9871 -0.6481 -0.0106
  411MOL0     H55454  12.992   6.474   9.135  0.9403 -1.3538 -2.3056
  411MOL0     H55455  12.773   6.303   9.280  0.6526  0.1256 -0.1215
  411MOL0     H55456  12.749   6.463   9.272 -0.0925  0.8926  0.6317
  411MOL0     H55457  12.965   6.283   9.409  4.8320  2.3410 -0.4550
  411MOL0     H55458  13.017   6.446   9.366 -0.5565  0.9225  0.3589
  411MOL0     H55459  12.807   6.359   9.552  1.2823  0.4436  0.9674
  411MOL0     H55460  12.808   6.519   9.494  0.5420  1.2827  3.2745
  411MOL0     H55461  13.053   6.398   9.639 -1.0568 -0.4829  3.4068
  411MOL0     H55462  13.044   6.553   9.560  1.2553 -1.2147 -0.6862
  411MOL0     H55463  12.919   6.460   9.819 -0.5328 -0.7542 -1.0675
  411MOL0     H55464  12.851   6.608   9.735 -0.7592 -1.3129 -0.6971
  411MOL0     H55465  13.143   6.558   9.832 -1.8534 -0.7134  3.3779
  411MOL0     H55466  13.006   6.634   9.920 -1.0606 -0.9515  0.5240
  411MOL0     H55467  12.675   6.440   8.811 -0.0744 -2.3053  1.1460
  411MOL0     H55468  12.568   6.365   8.598 -1.7191 -1.0151  2.9480
  411MOL0     H55469  12.325   6.107   8.265 -0.9743  0.5113 -2.3489
  411MOL0     H55470  12.269   6.021   8.056 -0.5282  2.8151  0.9986
  411MOL0     H55471  11.668   5.936   6.217 -1.0358  2.5924 -1.9523
  411MOL0     H55472  11.530   5.818   6.080 -0.8257  2.0000 -0.5557
  411MOL0     H55473  11.613   5.528   5.638 -1.2247  1.5721 -1.1278
  411MOL0     H55474  11.526   5.368   5.477 -0.4126 -1.2225 -1.2153
  411MOL0     H55475  11.245   5.035   5.450 -0.2511 -0.4655 -1.6959
  411MOL0     H55476  11.222   5.116   5.611 -0.3985  2.6663 -0.5258
  411MOL0     H55477  11.092   5.188   5.353  3.3393 -0.6264  0.0298
  411MOL0     H55478  11.091   5.298   5.485  1.5344  0.0667 -1.3421
  411MOL0     H55479  10.897   5.186   5.483 -0.1055  0.9116  1.1837
  411MOL0     H55480  10.980   5.105   5.627 -1.7716 -1.6377 -0.2627
  411MOL0     H55481  10.953   4.990   5.344 -0.4106  0.3626 -0.2895
  411MOL0     H55482  10.837   4.955   5.483  0.8203 -2.5637  1.4472
  411MOL0     H55483  11.138   4.703   5.598 -0.4186  0.0501 -0.0880
  411MOL0     H55484  11.176   5.298   5.714 -0.5753  1.4116  1.5145
  411MOL0     H55485  11.246   5.467   5.864 -0.1891 -0.9288  1.2625
  412MOL0     O55486   9.569   8.760   5.064 -0.5949 -0.4280 -0.1753
  412MOL0     C55487   9.538   8.870   5.013 -1.1805  0.4468 -0.4363
  412MOL0     O55488   9.514   8.986   5.087 -0.4252 -0.7729 -0.7108
  412MOL0     C55489   9.541   8.981   5.221 -1.2417  0.0119  1.0732
  412MOL0     C55490   9.455   9.008   5.319 -0.6223  0.3742 -0.2072
  412MOL0     C55491   9.483   9.008   5.448 -0.4065  0.7112 -0.0535
  412MOL0     C55492   9.610   8.964   5.492  0.7532 -0.0780 -0.1131
  412MOL0     O55493   9.619   8.948   5.627  0.8430 -0.4189  0.1164
  412MOL0     C55494   9.707   8.847   5.680  0.1297 -0.5962 -0.0128
  412MOL0     C55495   9.654   8.781   5.813 -0.8690  0.8232  0.7402
  412MOL0     C55496   9.507   8.732   5.816  0.8794 -0.2209  0.3714
  412MOL0     C55497   9.397   8.832   5.807 -0.5661  0.0384  0.2753
  412MOL0     C55498   9.280   8.810   5.905  0.1345 -0.1496 -0.3614
  412MOL0     C55499   9.172   8.912   5.890  0.6274  0.1336 -0.1042
  412MOL0     C55500   9.217   9.061   5.880 -0.8165  0.0192 -0.5438
  412MOL0     C55501   9.283   9.118   6.013  0.0857  0.1622 -0.1469
  412MOL0     N55502   9.204   9.115   6.133  0.1135 -0.3728  0.4968
  412MOL0     C55503   9.076   9.161   6.145 -0.4633  0.1349 -0.0589
  412MOL0     C55504   9.019   9.092   6.247 -0.0162  0.1093 -1.2936
  412MOL0     C55505   8.886   9.124   6.311  0.4333 -1.7273  0.1658
  412MOL0     C55506   8.868   9.076   6.457  0.8043  0.4942  0.9025
  412MOL0     C55507   8.737   9.113   6.524  0.1125  0.3867  1.1077
  412MOL0     C55508   8.715   9.264   6.525 -0.2340  0.0679  0.0408
  412MOL0     O55509   8.617   9.304   6.613 -0.2976  0.9296 -0.1457
  412MOL0     C55510   8.491   9.246   6.600  0.9504 -0.6089  0.4421
  412MOL0     C55511   8.432   9.213   6.477 -0.1003  0.8404  0.9794
  412MOL0     C55512   8.303   9.159   6.465 -0.9620  0.1714 -0.5126
  412MOL0     C55513   8.243   9.142   6.328 -0.3256  0.3208  0.9110
  412MOL0     C55514   8.243   9.109   6.589  0.3506  0.0149 -0.0587
  412MOL0     C55515   8.112   9.046   6.586  1.2211  0.3682  0.1611
  412MOL0     O55516   8.059   9.033   6.712  0.1283 -0.3085  0.3638
  412MOL0     C55517   7.944   8.966   6.718 -0.0000 -0.0840  0.5934
  412MOL0     C55518   7.829   9.014   6.667 -0.1506 -0.2405 -0.1476
  412MOL0     C55519   7.712   8.934   6.676 -0.2187  0.6088  0.1452
  412MOL0     C55520   7.712   8.812   6.749 -0.5128  0.4936  0.0199
  412MOL0     O55521   7.590   8.739   6.765 -0.2703 -0.4574  0.1526
  412MOL0     C55522   7.566   8.663   6.887 -0.4442 -0.3706  0.7175
  412MOL0     C55523   7.566   8.524   6.857 -0.1714 -0.2924 -0.9414
  412MOL0     C55524   7.593   8.439   6.984  0.2213 -0.0962 -0.0010
  412MOL0     C55525   7.598   8.302   6.941  0.3843 -0.0567  0.0992
  412MOL0     C55526   7.620   8.200   7.058  0.9077  0.7232 -0.1914
  412MOL0     C55527   7.756   8.210   7.131 -1.2409  0.9453 -0.6488
  412MOL0     C55528   7.764   8.094   7.239  0.8313  0.6617 -0.5059
  412MOL0     C55529   7.904   8.070   7.288  0.5878  0.4668 -0.4097
  412MOL0    Cl55530   7.895   7.936   7.411  0.1752  0.0250 -0.1814
  412MOL0     C55531   7.838   8.769   6.792  0.0443 -0.0749 -0.8739
  412MOL0     C55532   7.952   8.847   6.786 -0.6668  0.7283 -0.2943
  412MOL0     O55533   8.055   9.008   6.478  0.6173  0.7138 -0.5527
  412MOL0     C55534   8.304   9.141   6.713 -0.3378 -0.4521 -0.1593
  412MOL0     C55535   8.416   9.217   6.712  0.1859  0.4434  0.4046
  412MOL0     N55536   9.117   8.995   6.291 -0.8379 -0.5913  0.7455
  412MOL0     N55537   9.219   9.008   6.214 -0.1220 -0.0365  0.0007
  412MOL0     C55538   9.704   8.922   5.395  0.5418  0.0474  0.4062
  412MOL0     C55539   9.669   8.936   5.257  0.3638 -0.8218 -0.3121
  412MOL0     C55540   9.560   8.876   4.871 -0.8810 -1.2816  0.5604
  412MOL0     C55541   9.588   9.000   4.816  0.7875 -0.7253  0.7000
  412MOL0     C55542   9.605   9.010   4.676  0.5327  0.1398 -0.3723
  412MOL0     C55543   9.602   8.904   4.588  0.5339  0.1800  0.6764
  412MOL0     O55544   9.615   8.923   4.455 -0.2939 -0.7874  0.7560
  412MOL0     C55545   9.620   8.809   4.376 -0.5867 -0.3327 -0.6267
  412MOL0     C55546   9.671   8.861   4.245 -0.0219 -1.1896  0.4633
  412MOL0     C55547   9.654   8.762   4.126 -0.1327 -0.0482  0.0918
  412MOL0     C55548   9.766   8.767   4.020 -0.1774 -0.5527 -0.2550
  412MOL0     C55549   9.780   8.900   3.961 -0.3861 -0.1410 -0.0709
  412MOL0     C55550   9.773   9.002   3.901 -0.4076  0.4838  1.3660
  412MOL0     C55551   9.571   8.775   4.644  0.4708 -0.1978  0.2565
  412MOL0     C55552   9.550   8.767   4.783  0.0940 -0.3978  1.3231
  412MOL0     H55553   9.360   9.038   5.276  0.9271  1.4867 -3.0967
  412MOL0     H55554   9.403   9.038   5.516 -0.7014  1.1604 -0.5860
  412MOL0     H55555   9.723   8.774   5.600  2.0167  0.1591 -0.3682
  412MOL0     H55556   9.806   8.883   5.708  0.4181 -1.5769  0.2527
  412MOL0     H55557   9.727   8.704   5.840 -0.2297  0.8163 -0.8950
  412MOL0     H55558   9.660   8.860   5.888 -1.0528  0.8491  0.7285
  412MOL0     H55559   9.483   8.656   5.741  0.1799 -0.1790  0.5536
  412MOL0     H55560   9.503   8.685   5.915  2.7254 -1.4114 -0.0541
  412MOL0     H55561   9.432   8.929   5.842 -0.5553 -0.0766  0.5801
  412MOL0     H55562   9.363   8.819   5.704 -0.2333 -2.6368  0.4359
  412MOL0     H55563   9.244   8.708   5.888 -1.0564  0.1978 -0.0066
  412MOL0     H55564   9.309   8.826   6.009  2.0723 -1.2637 -0.6759
  412MOL0     H55565   9.118   8.891   5.797 -1.8654  0.1385  1.2588
  412MOL0     H55566   9.096   8.903   5.968 -0.1679  0.3768 -0.8465
  412MOL0     H55567   9.281   9.074   5.792  1.4367 -3.3869  0.3900
  412MOL0     H55568   9.125   9.118   5.866 -1.7511 -0.7722  1.9637
  412MOL0     H55569   9.317   9.221   6.002  2.1267 -0.6258 -1.9575
  412MOL0     H55570   9.374   9.058   6.031 -0.5253 -1.4867 -2.1806
  412MOL0     H55571   9.026   9.242   6.093 -0.4520 -1.9013 -3.5784
  412MOL0     H55572   8.871   9.232   6.302 -1.0114 -1.4042  4.3516
  412MOL0     H55573   8.809   9.070   6.256  0.4128 -2.7590  1.1721
  412MOL0     H55574   8.956   9.102   6.516  1.6537 -1.9372  0.8242
  412MOL0     H55575   8.879   8.967   6.452 -1.0392  0.2263  1.8939
  412MOL0     H55576   8.723   9.069   6.623  0.2390  0.7118  1.2740
  412MOL0     H55577   8.659   9.065   6.465 -3.7524  3.4197  3.2495
  412MOL0     H55578   8.679   9.297   6.427 -2.8498 -1.8945  0.2126
  412MOL0     H55579   8.803   9.322   6.552  0.1571  0.5287 -2.0442
  412MOL0     H55580   8.496   9.215   6.389  1.6686  1.8084  2.2325
  412MOL0     H55581   8.142   9.184   6.319 -0.4792 -0.3548 -0.8733
  412MOL0     H55582   8.300   9.198   6.253  1.8193 -2.8066 -0.0056
  412MOL0     H55583   8.247   9.039   6.291 -1.7173  1.1124 -1.6941
  412MOL0     H55584   7.827   9.110   6.618  4.1074  0.6935  1.1044
  412MOL0     H55585   7.618   8.962   6.628 -0.0862  1.4282  0.3503
  412MOL0     H55586   7.640   8.679   6.966 -2.3055 -0.7792  2.6370
  412MOL0     H55587   7.471   8.695   6.930 -0.0926 -0.5249  1.6270
  412MOL0     H55588   7.474   8.502   6.802 -0.2352  0.6609 -1.2422
  412MOL0     H55589   7.642   8.496   6.784  0.9315  2.3269 -0.8917
  412MOL0     H55590   7.515   8.460   7.059  0.3337  2.5269 -0.5311
  412MOL0     H55591   7.689   8.463   7.030  1.0570 -2.4369 -0.3865
  412MOL0     H55592   7.507   8.272   6.888  1.5246 -2.3121 -0.7056
  412MOL0     H55593   7.674   8.291   6.864 -0.9030 -0.3990 -1.1715
  412MOL0     H55594   7.613   8.099   7.015 -1.4538  1.1939 -1.1129
  412MOL0     H55595   7.535   8.215   7.125 -0.0433  0.4451 -1.2922
  412MOL0     H55596   7.838   8.209   7.058  0.5970  3.2204  1.1874
  412MOL0     H55597   7.764   8.305   7.185  0.8528 -1.0896  2.9337
  412MOL0     H55598   7.740   7.999   7.191  2.1803 -1.1374  2.1579
  412MOL0     H55599   7.694   8.109   7.322 -1.0355 -1.0168 -1.6870
  412MOL0     H55600   7.928   8.172   7.318 -0.6372 -0.1752  3.1957
  412MOL0     H55601   7.976   8.034   7.214 -0.6417 -0.1102 -1.3560
  412MOL0     H55602   7.848   8.666   6.826  0.4093 -0.9998 -3.5129
  412MOL0     H55603   8.049   8.810   6.815 -0.9170  1.0171  0.9459
  412MOL0     H55604   8.277   9.094   6.808 -1.4139 -0.9125 -0.6796
  412MOL0     H55605   8.451   9.240   6.813  0.2524  1.1629  0.2223
  412MOL0     H55606   9.802   8.888   5.427  1.1367  1.0394 -0.2952
  412MOL0     H55607   9.744   8.911   5.183  0.1942 -1.3921 -0.2955
  412MOL0     H55608   9.594   9.090   4.876  1.5515 -1.1881  1.3425
  412MOL0     H55609   9.621   9.112   4.643  0.6605  0.4584  0.6614
  412MOL0     H55610   9.693   8.738   4.414 -1.0732 -0.3316  0.3300
  412MOL0     H55611   9.522   8.761   4.375 -0.8435 -0.8929  6.0594
  412MOL0     H55612   9.780   8.876   4.248  0.2230 -2.5644 -0.6496
  412MOL0     H55613   9.613   8.948   4.214  3.0970  0.9000 -0.0341
  412MOL0     H55614   9.557   8.783   4.080 -0.8407 -0.6946  1.2277
  412MOL0     H55615   9.653   8.656   4.155 -2.0040 -0.4314 -1.1971
  412MOL0     H55616   9.750   8.692   3.943 -1.1120 -0.9890  0.3423
  412MOL0     H55617   9.865   8.746   4.061  0.5926  2.6245 -0.2046
  412MOL0     H55618   9.781   9.093   3.845 -3.0043 -0.0186  0.0428
  412MOL0     H55619   9.544   8.689   4.584 -1.4807  1.3178 -1.1903
  412MOL0     H55620   9.513   8.671   4.820  0.4209 -0.5434  1.2795
  413MOL0     O55621   2.501   2.276   9.975  0.8948  0.3284 -0.0893
  413MOL0     C55622   2.403   2.339  10.020 -0.1121  0.4501 -0.7245
  413MOL0     O55623   2.281   2.288  10.063  0.7511 -0.1614  0.2027
  413MOL0     C55624   2.263   2.152  10.056 -0.0261 -0.1208 -0.0074
  413MOL0     C55625   2.142   2.106   9.995 -0.6065  1.0244 -0.0171
  413MOL0     C55626   2.110   1.978   9.980  0.1551  1.4202  0.7879
  413MOL0     C55627   2.204   1.874  10.020  0.3717  0.4965  0.3800
  413MOL0     O55628   2.179   1.740   9.994 -0.5096 -0.0979  0.6857
  413MOL0     C55629   2.119   1.676  10.096 -0.2545 -0.1987 -0.4037
  413MOL0     C55630   2.117   1.525  10.059 -0.4814 -0.0172  0.7686
  413MOL0     C55631   2.045   1.424  10.157 -0.0219 -1.0375 -0.8712
  413MOL0     C55632   2.030   1.287  10.097 -0.1901  0.2128 -0.5233
  413MOL0     C55633   1.987   1.179  10.196  0.3034  0.0944  0.6637
  413MOL0     C55634   1.906   1.070  10.122  0.4740  0.3637 -0.4568
  413MOL0     C55635   1.879   0.947  10.222  0.5342  0.3869  0.7557
  413MOL0     C55636   1.763   0.864  10.168 -0.7610  0.2564  0.4754
  413MOL0     N55637   1.667   0.820  10.268  0.6088 -0.5651 -1.2879
  413MOL0     C55638   1.570   0.896  10.328  1.0549  0.2008 -0.3382
  413MOL0     C55639   1.515   0.809  10.422  0.0092  0.2321  0.2524
  413MOL0     C55640   1.393   0.830  10.504  0.1530  0.4421  0.4198
  413MOL0     C55641   1.269   0.793  10.421  0.2396 -0.0155 -0.3813
  413MOL0     C55642   1.143   0.869  10.468 -0.0264  0.6709  1.0340
  413MOL0     C55643   1.033   0.802  10.558 -0.2289  0.3554  0.3445
  413MOL0     O55644   1.103   0.749  10.667  0.0383  0.7434 -0.2666
  413MOL0     C55645   1.037   0.686  10.771  0.6737  0.1663 -0.2384
  413MOL0     C55646   0.899   0.670  10.776 -0.3208  0.3629 -0.3421
  413MOL0     C55647   0.845   0.597  10.889  0.7945  0.4373 -1.4594
  413MOL0     C55648   0.714   0.524  10.863  0.2118  0.9701 -0.5411
  413MOL0     C55649   0.919   0.573  11.003  0.7937 -0.0046 -0.3574
  413MOL0     C55650   0.862   0.527  11.138 -0.2577  0.7339 -0.7520
  413MOL0     O55651   0.961   0.489  11.235  0.0950  1.0673  0.7028
  413MOL0     C55652   0.925   0.447  11.361  0.0105 -0.0698 -0.1501
  413MOL0     C55653   0.945   0.536  11.467 -0.2848  0.0137 -0.1364
  413MOL0     C55654   0.908   0.496  11.600  0.8234 -0.0976 -0.2646
  413MOL0     C55655   0.863   0.371  11.623 -0.5720 -0.3113 -0.2224
  413MOL0     O55656   0.835   0.340  11.752  0.8504 -0.3262 -0.3362
  413MOL0     C55657   0.757   0.226  11.784 -0.8376 -0.2207  0.2415
  413MOL0     C55658   0.732   0.220  11.931  0.4006  0.0393 -0.1710
  413MOL0     C55659   0.641   0.109  11.949  0.0942  0.4295 -0.4491
  413MOL0     C55660   0.570   0.099  12.088  0.2121  0.4704 -0.3539
  413MOL0     C55661   0.440   0.018  12.063 -0.5733 -0.6538  0.3389
  413MOL0     C55662   0.378  -0.028  12.200 -0.2390 -0.6095 -1.0517
  413MOL0     C55663   0.259  -0.123  12.194  0.2236 -0.1076  0.1654
  413MOL0     C55664   0.166  -0.116  12.318 -0.9706 -0.6471 -0.4043
  413MOL0    Cl55665   0.262  -0.156  12.462  0.2660 -0.0864 -0.0676
  413MOL0     C55666   0.846   0.281  11.522 -0.3777  0.1898  0.5570
  413MOL0     C55667   0.880   0.316  11.388  0.1664 -0.3447  0.5384
  413MOL0     O55668   0.736   0.532  11.161  0.0665 -0.1756 -0.1830
  413MOL0     C55669   1.052   0.601  10.999 -0.3025 -0.0540 -0.0176
  413MOL0     C55670   1.112   0.646  10.885  0.4892  0.7446  0.1754
  413MOL0     N55671   1.588   0.690  10.418 -0.1320 -0.5953  0.0424
  413MOL0     N55672   1.682   0.703  10.335  0.8808  1.6812 -0.1153
  413MOL0     C55673   2.331   1.913  10.074 -0.1605 -0.1154 -0.2159
  413MOL0     C55674   2.356   2.052  10.091 -0.5175  0.2822 -0.3861
  413MOL0     C55675   2.422   2.489  10.014 -0.1705  0.0554  0.3603
  413MOL0     C55676   2.311   2.573  10.034  0.0852 -0.4669 -0.4464
  413MOL0     C55677   2.326   2.712  10.026 -0.9237 -0.3939  0.6908
  413MOL0     C55678   2.456   2.769  10.027 -0.1600  0.8179  0.1152
  413MOL0     O55679   2.458   2.906  10.032 -0.1087  0.4519  0.9979
  413MOL0     C55680   2.569   2.976   9.975  0.5733 -0.2665  0.0611
  413MOL0     C55681   2.530   3.119   9.937  0.9372 -0.9808  0.0058
  413MOL0     C55682   2.442   3.125   9.808 -0.1408 -0.1027 -0.2443
  413MOL0     C55683   2.294   3.081   9.834 -0.2147  0.1614 -0.0040
  413MOL0     C55684   2.201   3.143   9.743  0.7333 -0.1820  0.2327
  413MOL0     C55685   2.126   3.208   9.665 -0.0281  0.5662  0.4799
  413MOL0     C55686   2.568   2.686  10.026 -0.3116 -0.2615  0.4805
  413MOL0     C55687   2.553   2.546  10.008  1.2326 -0.3871 -0.2933
  413MOL0     H55688   2.074   2.176   9.947  0.5874  1.1005 -1.6616
  413MOL0     H55689   2.026   1.943   9.920 -0.1066  1.4678  1.1246
  413MOL0     H55690   2.175   1.693  10.188  0.2956  1.5259 -1.0161
  413MOL0     H55691   2.020   1.721  10.114 -0.0898  0.0289 -0.0615
  413MOL0     H55692   2.075   1.499   9.962  4.7256 -0.8923 -1.5923
  413MOL0     H55693   2.221   1.491  10.053 -1.7503 -4.2256 -0.8541
  413MOL0     H55694   2.094   1.400  10.252  0.0591 -1.6188 -1.0554
  413MOL0     H55695   1.946   1.464  10.180 -0.0667 -1.9774  0.7627
  413MOL0     H55696   1.962   1.284  10.012 -2.3939 -1.9540  1.1620
  413MOL0     H55697   2.128   1.259  10.058  0.0054  0.2395 -0.0666
  413MOL0     H55698   2.072   1.133  10.246  0.2946  0.7566  1.3052
  413MOL0     H55699   1.925   1.228  10.272  1.8160  2.1689  0.6297
  413MOL0     H55700   1.810   1.101  10.079  0.0328 -0.3212 -0.0104
  413MOL0     H55701   1.966   1.036  10.037  0.6110 -4.1986  1.1692
  413MOL0     H55702   1.969   0.887  10.235 -0.2119 -1.4845 -1.8804
  413MOL0     H55703   1.846   0.987  10.319  1.2806  0.7234  0.8738
  413MOL0     H55704   1.811   0.774  10.130 -0.4251  0.0324  1.4039
  413MOL0     H55705   1.718   0.924  10.088 -1.5387 -0.0147  0.6948
  413MOL0     H55706   1.544   0.998  10.301 -0.4300 -0.4916 -1.6591
  413MOL0     H55707   1.388   0.755  10.584  3.5645 -0.7094 -0.2991
  413MOL0     H55708   1.388   0.932  10.542  1.1549  1.0315 -0.9885
  413MOL0     H55709   1.265   0.684  10.415  2.5715 -0.2049  0.4646
  413MOL0     H55710   1.272   0.831  10.318 -2.9111 -2.0438 -1.3729
  413MOL0     H55711   1.094   0.896  10.375  1.0112 -0.0058  0.2617
  413MOL0     H55712   1.172   0.964  10.513  4.1069 -0.4953  1.3162
  413MOL0     H55713   0.990   0.716  10.506  0.0613  0.3953  0.0364
  413MOL0     H55714   0.957   0.874  10.588 -0.2311 -0.4146  2.3720
  413MOL0     H55715   0.838   0.689  10.688 -1.5570 -1.0292  0.1803
  413MOL0     H55716   0.717   0.415  10.876 -1.9175  1.0544  1.2449
  413MOL0     H55717   0.633   0.555  10.930  0.9484  0.5796  0.5508
  413MOL0     H55718   0.675   0.548  10.764  1.1700  1.2365 -0.8658
  413MOL0     H55719   0.967   0.641  11.451 -0.7679  0.5108  2.0741
  413MOL0     H55720   0.910   0.571  11.678 -2.5993 -1.8819  1.7839
  413MOL0     H55721   0.665   0.239  11.727  0.0741 -2.0020 -1.7927
  413MOL0     H55722   0.797   0.129  11.752 -1.6343 -0.1292 -1.0887
  413MOL0     H55723   0.822   0.193  11.986 -1.1588 -3.1864  1.0686
  413MOL0     H55724   0.691   0.304  11.987  0.1927 -0.8906  1.1435
  413MOL0     H55725   0.691   0.017  11.917  3.0295  1.7419 -0.0374
  413MOL0     H55726   0.554   0.124  11.885 -1.2856  0.2079  1.3001
  413MOL0     H55727   0.636   0.050  12.159  0.7558 -0.9634 -1.7761
  413MOL0     H55728   0.555   0.199  12.130  1.6434 -0.9004  3.9393
  413MOL0     H55729   0.472  -0.064  11.998  2.8211  1.1878 -0.5800
  413MOL0     H55730   0.366   0.080  12.011  0.3534  1.9399  1.9015
  413MOL0     H55731   0.458  -0.074  12.260 -1.3727 -0.5777  0.5343
  413MOL0     H55732   0.355   0.056  12.266 -0.2946  0.0478 -1.8867
  413MOL0     H55733   0.304  -0.222  12.178  1.3821  0.1605  1.5547
  413MOL0     H55734   0.197  -0.077  12.117  2.3137  3.0516  0.1966
  413MOL0     H55735   0.083  -0.187  12.308 -0.2269 -1.2183 -3.5689
  413MOL0     H55736   0.118  -0.019  12.337 -1.9838 -1.3527  0.8736
  413MOL0     H55737   0.817   0.180  11.547 -0.6052  0.0601 -0.1942
  413MOL0     H55738   0.864   0.251  11.302  1.3323  0.6258 -0.4392
  413MOL0     H55739   1.114   0.587  11.088 -1.7758 -0.9501  0.9135
  413MOL0     H55740   1.219   0.660  10.891  0.7896 -0.9587 -0.6260
  413MOL0     H55741   2.393   1.830  10.108  0.7210  0.3078 -0.7428
  413MOL0     H55742   2.450   2.080  10.138 -0.1819 -1.4520  0.0335
  413MOL0     H55743   2.207   2.542  10.034  0.1629 -0.7495 -0.8752
  413MOL0     H55744   2.238   2.775  10.026 -1.7680 -1.4930  2.1728
  413MOL0     H55745   2.653   2.987  10.045  0.3896 -0.5155  0.3253
  413MOL0     H55746   2.619   2.928   9.891  1.7868 -0.4854  0.8845
  413MOL0     H55747   2.624   3.168   9.912 -0.5983 -0.1401 -5.6330
  413MOL0     H55748   2.482   3.171  10.021  0.7307  0.0822 -0.7511
  413MOL0     H55749   2.496   3.075   9.727 -0.6668 -0.3985 -0.4217
  413MOL0     H55750   2.436   3.230   9.777 -2.0829 -0.3304 -0.8177
  413MOL0     H55751   2.269   3.100   9.938  0.8875 -1.7171  0.6547
  413MOL0     H55752   2.282   2.973   9.823 -0.9548  0.3709 -1.5991
  413MOL0     H55753   2.073   3.279   9.605 -3.4368  0.2574  2.7693
  413MOL0     H55754   2.663   2.738  10.019 -0.0653 -0.8526 -0.8431
  413MOL0     H55755   2.635   2.478   9.991  0.6591 -0.6752 -2.3097
  414MOL0     O55756  10.208   8.547   3.030  0.1684 -0.7236 -0.6552
  414MOL0     C55757  10.163   8.656   2.987 -1.3205  0.1752  0.0860
  414MOL0     O55758  10.189   8.714   2.866 -0.0120 -0.4134 -0.4466
  414MOL0     C55759  10.282   8.661   2.786 -0.6672  0.3520  0.4432
  414MOL0     C55760  10.254   8.558   2.691  0.2498  0.5474 -0.4021
  414MOL0     C55761  10.353   8.497   2.613  0.5058  0.1011  0.2266
  414MOL0     C55762  10.482   8.547   2.628  1.0249 -0.1841 -0.3777
  414MOL0     O55763  10.590   8.512   2.558 -0.1748  0.1304  0.2372
  414MOL0     C55764  10.607   8.377   2.516  0.1720 -0.3409 -0.5132
  414MOL0     C55765  10.734   8.371   2.416  0.4167  0.2527 -0.0161
  414MOL0     C55766  10.871   8.372   2.474  0.5345 -0.1249 -0.2060
  414MOL0     C55767  10.918   8.247   2.558 -0.0850 -0.2726 -0.4278
  414MOL0     C55768  11.070   8.249   2.589 -0.2029  0.9585 -0.8493
  414MOL0     C55769  11.094   8.141   2.695  0.4435 -0.3965  0.2703
  414MOL0     C55770  11.244   8.097   2.695  0.7199  0.0461 -0.6126
  414MOL0     C55771  11.274   7.996   2.792  0.3035  0.3795  0.3804
  414MOL0     N55772  11.240   8.030   2.937 -0.3232  0.0738 -0.6189
  414MOL0     C55773  11.332   8.067   3.028  0.7585 -0.5776 -0.0291
  414MOL0     C55774  11.256   8.072   3.141 -0.9324  0.0394  0.0069
  414MOL0     C55775  11.294   8.096   3.281  0.8026 -0.4417 -0.2753
  414MOL0     C55776  11.366   7.975   3.339  0.0441 -0.0164 -0.0476
  414MOL0     C55777  11.481   7.913   3.257 -0.3958  1.0115 -0.2982
  414MOL0     C55778  11.544   7.795   3.330  0.2666 -0.3135 -0.3886
  414MOL0     O55779  11.574   7.688   3.237 -0.6984  0.3843 -0.1611
  414MOL0     C55780  11.647   7.581   3.278  0.2989  0.5800  0.1964
  414MOL0     C55781  11.677   7.481   3.182  0.1293 -0.8837 -0.0993
  414MOL0     C55782  11.759   7.373   3.214 -0.6444 -0.3694  0.0210
  414MOL0     C55783  11.771   7.255   3.110 -0.0328  0.6139  0.0498
  414MOL0     C55784  11.818   7.360   3.347 -0.2978 -0.5439 -0.5620
  414MOL0     C55785  11.909   7.257   3.391 -0.0942  0.3252  0.5869
  414MOL0     O55786  11.942   7.159   3.294  0.0120 -0.3751  0.0500
  414MOL0     C55787  12.061   7.097   3.284  0.4065 -0.4592 -0.6181
  414MOL0     C55788  12.083   7.015   3.174 -0.7744  0.1083  0.7872
  414MOL0     C55789  12.197   6.930   3.156 -0.5820 -0.9221 -0.2643
  414MOL0     C55790  12.289   6.911   3.260 -0.0629  0.5449 -0.6184
  414MOL0     O55791  12.382   6.813   3.246 -0.0779  0.2861 -0.2706
  414MOL0     C55792  12.471   6.774   3.353  0.4525 -0.0813  0.1100
  414MOL0     C55793  12.560   6.654   3.306 -0.4628  0.8852  0.4040
  414MOL0     C55794  12.660   6.691   3.197 -0.2067 -1.0528  0.4046
  414MOL0     C55795  12.728   6.569   3.131 -0.0826  0.1741  0.0141
  414MOL0     C55796  12.799   6.474   3.232 -0.1149 -0.4507 -0.1645
  414MOL0     C55797  12.875   6.375   3.159  0.0832  0.2202  0.9575
  414MOL0     C55798  12.937   6.275   3.262  0.9656  0.8784 -0.0068
  414MOL0     C55799  13.067   6.232   3.210 -0.7056  0.0286 -0.2118
  414MOL0    Cl55800  13.053   6.112   3.079 -0.2338 -0.6537  0.2781
  414MOL0     C55801  12.267   6.997   3.366  0.8890 -0.4123 -1.5252
  414MOL0     C55802  12.167   7.097   3.384 -0.2872 -0.4744 -0.0068
  414MOL0     O55803  11.961   7.270   3.498  0.3266  0.1679 -0.2392
  414MOL0     C55804  11.792   7.472   3.435 -1.1239 -0.6503 -0.7552
  414MOL0     C55805  11.709   7.575   3.407 -0.2889 -0.3349  0.0445
  414MOL0     N55806  11.125   8.044   3.116  0.4838  0.8776  0.0753
  414MOL0     N55807  11.121   8.019   2.993 -0.7607  0.0736 -0.6199
  414MOL0     C55808  10.506   8.649   2.715 -0.2165 -0.2869  0.6145
  414MOL0     C55809  10.408   8.710   2.791  0.0145 -0.3908  0.6542
  414MOL0     C55810  10.076   8.724   3.095 -0.6162 -0.2650  1.0062
  414MOL0     C55811  10.014   8.850   3.062 -0.1766 -1.5805 -1.0492
  414MOL0     C55812   9.935   8.921   3.149  0.1082 -0.2090 -0.1186
  414MOL0     C55813   9.913   8.875   3.277 -0.2900  0.2222 -0.6482
  414MOL0     O55814   9.843   8.947   3.367  1.0072  0.2956  0.1094
  414MOL0     C55815   9.776   8.865   3.471 -0.1766  0.2475 -0.7263
  414MOL0     C55816   9.638   8.923   3.508 -0.2986  0.0978  0.4829
  414MOL0     C55817   9.567   8.849   3.626  0.7093 -0.2540 -0.1762
  414MOL0     C55818   9.468   8.950   3.688 -0.5834  0.2235 -0.5765
  414MOL0     C55819   9.382   9.018   3.583 -0.6900 -0.1857  0.1268
  414MOL0     C55820   9.297   9.052   3.499 -1.0588 -0.0240 -0.8082
  414MOL0     C55821   9.985   8.752   3.316  0.3217 -1.9055 -0.1857
  414MOL0     C55822  10.066   8.690   3.227 -1.0904 -0.0382  0.1394
  414MOL0     H55823  10.159   8.507   2.701  0.1980  0.8212  0.6618
  414MOL0     H55824  10.332   8.410   2.551  0.0645  0.7138 -0.4970
  414MOL0     H55825  10.621   8.310   2.601  2.4647 -1.3910 -1.6245
  414MOL0     H55826  10.512   8.354   2.467 -1.1878  3.2661  0.1711
  414MOL0     H55827  10.736   8.291   2.341 -1.2863  1.8295 -1.8610
  414MOL0     H55828  10.722   8.460   2.353  1.3624 -0.2590 -0.9570
  414MOL0     H55829  10.943   8.371   2.392 -0.0932  0.0701 -0.7661
  414MOL0     H55830  10.869   8.465   2.532  0.2221 -0.2819  0.0404
  414MOL0     H55831  10.857   8.233   2.648  4.2021  1.3118  3.0724
  414MOL0     H55832  10.900   8.160   2.495  0.4021 -1.6909  1.2963
  414MOL0     H55833  11.129   8.248   2.497 -1.4475  3.1572 -1.7605
  414MOL0     H55834  11.093   8.346   2.635  1.0673  1.3156 -2.1749
  414MOL0     H55835  11.063   8.185   2.791  1.5401  0.8945  0.0631
  414MOL0     H55836  11.032   8.053   2.679  1.0635 -0.2930 -3.5359
  414MOL0     H55837  11.276   8.054   2.600  0.6309 -4.0507  1.0184
  414MOL0     H55838  11.301   8.187   2.720 -0.2129  1.2682 -2.6310
  414MOL0     H55839  11.377   7.960   2.780  0.7618  0.9450  2.1676
  414MOL0     H55840  11.207   7.916   2.760 -0.5758  2.0495 -2.2373
  414MOL0     H55841  11.435   8.099   3.020  0.7724  0.9623  4.0135
  414MOL0     H55842  11.360   8.184   3.283 -1.1837  1.1070  0.6479
  414MOL0     H55843  11.209   8.134   3.338  0.2264  0.5840 -1.7537
  414MOL0     H55844  11.280   7.908   3.351 -0.5245  0.9601  1.6593
  414MOL0     H55845  11.408   8.001   3.437  0.6606  1.2782 -0.6277
  414MOL0     H55846  11.557   7.989   3.241  0.1033  0.5060 -0.3497
  414MOL0     H55847  11.461   7.874   3.157 -2.4829  2.1240 -0.3885
  414MOL0     H55848  11.477   7.753   3.406  0.6815  0.0478  0.1909
  414MOL0     H55849  11.635   7.824   3.383  0.2292 -0.7851 -0.0672
  414MOL0     H55850  11.639   7.494   3.081  1.4799  1.4450 -0.3737
  414MOL0     H55851  11.729   7.159   3.139  0.5806 -0.1857 -1.5978
  414MOL0     H55852  11.710   7.292   3.027 -2.9711  1.0631  2.2488
  414MOL0     H55853  11.872   7.240   3.069 -0.5370 -2.1660 -0.3554
  414MOL0     H55854  12.003   7.016   3.100  0.4382  0.6575 -0.5704
  414MOL0     H55855  12.204   6.880   3.059  2.5781 -0.0356 -0.5955
  414MOL0     H55856  12.539   6.854   3.382  1.1897 -0.4377 -0.5970
  414MOL0     H55857  12.415   6.736   3.439 -0.1200  0.2556 -0.1108
  414MOL0     H55858  12.609   6.616   3.397 -0.5362  0.9248  0.4600
  414MOL0     H55859  12.498   6.573   3.266  1.3173 -1.3034  1.7634
  414MOL0     H55860  12.725   6.759   3.253 -2.0281  0.8423  0.3642
  414MOL0     H55861  12.605   6.747   3.120 -1.4853 -2.8038 -0.0166
  414MOL0     H55862  12.649   6.518   3.076 -1.4998  0.9038  1.2848
  414MOL0     H55863  12.802   6.596   3.055  0.7246  0.4285  0.8658
  414MOL0     H55864  12.729   6.421   3.298 -2.0626  2.5408  0.3861
  414MOL0     H55865  12.868   6.542   3.283  0.5007  0.4840 -2.1630
  414MOL0     H55866  12.816   6.309   3.095  1.4838  1.0464 -1.2898
  414MOL0     H55867  12.947   6.428   3.096 -0.8671 -1.2058 -1.4788
  414MOL0     H55868  12.867   6.192   3.277 -0.1343  2.0851  2.0306
  414MOL0     H55869  12.945   6.322   3.360 -1.3659  0.9779  0.2078
  414MOL0     H55870  13.120   6.191   3.297 -1.4049  3.2272  1.9049
  414MOL0     H55871  13.132   6.314   3.180  0.9965 -1.5938 -1.1308
  414MOL0     H55872  12.337   6.983   3.448  1.2423 -0.0364 -1.7578
  414MOL0     H55873  12.163   7.144   3.482 -0.4101 -3.1093  1.3507
  414MOL0     H55874  11.844   7.481   3.530  0.3210 -0.5310 -1.5357
  414MOL0     H55875  11.693   7.646   3.487 -2.4272 -1.4537  0.6978
  414MOL0     H55876  10.607   8.685   2.736 -0.8724  2.4920 -0.5955
  414MOL0     H55877  10.436   8.792   2.856  0.9815  0.5737 -0.9108
  414MOL0     H55878  10.016   8.882   2.959 -0.0430 -2.6660 -1.4016
  414MOL0     H55879   9.897   9.016   3.114 -0.4295  0.0114  1.0147
  414MOL0     H55880   9.769   8.760   3.441  2.8138 -1.2270  2.8815
  414MOL0     H55881   9.833   8.857   3.564  0.5249  2.5652 -0.8850
  414MOL0     H55882   9.581   8.932   3.415  0.9341 -0.1203 -0.3216
  414MOL0     H55883   9.665   9.026   3.535  1.1746 -0.6298  1.9059
  414MOL0     H55884   9.637   8.823   3.706  0.2887 -0.0547  0.2583
  414MOL0     H55885   9.521   8.754   3.598 -1.9651  0.8760  0.0811
  414MOL0     H55886   9.509   9.022   3.759  0.5454 -0.8585 -0.0991
  414MOL0     H55887   9.395   8.888   3.743  1.2566 -0.3600  1.3571
  414MOL0     H55888   9.213   9.066   3.435 -1.2677  0.3763 -0.4479
  414MOL0     H55889   9.974   8.706   3.414  1.0826  0.6432  1.1809
  414MOL0     H55890  10.115   8.596   3.248 -4.5326 -1.6757  1.6753
  415MOL0     O55891   8.225   8.263   9.976  0.0679  0.9319  0.1978
  415MOL0     C55892   8.221   8.373   9.928 -0.4933  0.3340  0.0770
  415MOL0     O55893   8.144   8.473   9.974  0.5390 -0.8436 -0.4855
  415MOL0     C55894   8.052   8.437  10.076 -0.0412  0.6291  0.0350
  415MOL0     C55895   8.098   8.391  10.200  0.3997  0.3914  0.3345
  415MOL0     C55896   8.011   8.355  10.298  0.2478  0.2000 -0.6241
  415MOL0     C55897   7.876   8.372  10.280  0.3024  0.2392  0.7547
  415MOL0     O55898   7.783   8.319  10.368 -0.2574  0.4819 -0.2000
  415MOL0     C55899   7.786   8.176  10.336  0.5404  0.9756 -0.7992
  415MOL0     C55900   7.677   8.096  10.400 -0.0201  1.1410 -0.3135
  415MOL0     C55901   7.665   8.116  10.546  0.5289  0.0098 -0.5206
  415MOL0     C55902   7.798   8.096  10.610 -0.5014  0.2086  0.2165
  415MOL0     C55903   7.790   8.088  10.762 -0.6970  0.5455  0.1019
  415MOL0     C55904   7.745   8.225  10.833 -0.0530 -0.3228  0.9888
  415MOL0     C55905   7.819   8.354  10.779  0.0744  0.4244  0.6182
  415MOL0     C55906   7.787   8.480  10.875 -0.4223 -0.1262  0.0844
  415MOL0     N55907   7.646   8.507  10.878  0.3625  0.3060 -0.8414
  415MOL0     C55908   7.573   8.515  10.759  0.8300 -0.1773 -0.7301
  415MOL0     C55909   7.445   8.548  10.812 -0.4949 -0.5804  1.2174
  415MOL0     C55910   7.321   8.571  10.737 -0.1328  0.6088  0.4064
  415MOL0     C55911   7.246   8.447  10.701 -1.3686  0.1059 -0.6301
  415MOL0     C55912   7.333   8.350  10.607  0.7988 -0.0693  0.5123
  415MOL0     C55913   7.362   8.408  10.460 -0.1875 -0.7499  1.0853
  415MOL0     O55914   7.434   8.528  10.470 -0.6207  0.8342 -0.2415
  415MOL0     C55915   7.497   8.580  10.366  0.1347  0.1567 -0.2323
  415MOL0     C55916   7.459   8.575  10.232  0.6477  0.9325  0.7992
  415MOL0     C55917   7.532   8.645  10.129  0.3752  0.4423 -1.3918
  415MOL0     C55918   7.470   8.625   9.996  0.1875  0.2281 -0.3903
  415MOL0     C55919   7.653   8.710  10.155  0.0330 -0.0545 -0.3095
  415MOL0     C55920   7.740   8.773  10.051  0.7322  1.0586  0.1343
  415MOL0     O55921   7.860   8.820  10.103 -0.3200  0.3824  0.1946
  415MOL0     C55922   7.945   8.893  10.024 -0.7543 -0.3990 -0.4953
  415MOL0     C55923   8.080   8.848  10.014  0.4797 -0.3939 -0.6883
  415MOL0     C55924   8.177   8.923   9.953  1.0557 -0.1271  0.3090
  415MOL0     C55925   8.143   9.054   9.897 -0.4203 -0.0072 -0.1612
  415MOL0     O55926   8.225   9.138   9.827 -0.0511  0.9351 -0.0645
  415MOL0     C55927   8.366   9.112   9.858 -0.3112  0.6632  0.4198
  415MOL0     C55928   8.437   9.241   9.814  0.0900  0.2728  0.2927
  415MOL0     C55929   8.386   9.372   9.873 -0.4759 -0.2774 -0.7057
  415MOL0     C55930   8.426   9.495   9.802  0.0001 -0.8136 -0.1256
  415MOL0     C55931   8.408   9.620   9.886  0.5709  0.2001 -0.5556
  415MOL0     C55932   8.372   9.735   9.787 -0.1658 -0.3633  0.3626
  415MOL0     C55933   8.394   9.874   9.838 -0.8873  0.1259  0.5168
  415MOL0     C55934   8.308   9.976   9.752 -0.6421  0.0692  0.4674
  415MOL0    Cl55935   8.141   9.971   9.811 -0.0287  0.2831  0.0957
  415MOL0     C55936   8.013   9.092   9.903  0.0770 -0.2776  0.2753
  415MOL0     C55937   7.916   9.026   9.974  0.1329  0.2350 -0.0479
  415MOL0     O55938   7.709   8.772   9.936 -0.6266  0.0094  0.0097
  415MOL0     C55939   7.677   8.721  10.297  0.0533 -0.3778 -0.1062
  415MOL0     C55940   7.611   8.656  10.392  0.0484 -0.0997  0.0029
  415MOL0     N55941   7.447   8.542  10.947  0.9488  0.3905 -0.1266
  415MOL0     N55942   7.566   8.515  10.988 -0.2741 -0.4655  0.0131
  415MOL0     C55943   7.826   8.423  10.161 -0.9820 -0.1699 -0.6538
  415MOL0     C55944   7.910   8.457  10.054  1.4118 -0.2566 -0.3889
  415MOL0     C55945   8.325   8.406   9.824 -0.5139 -0.2556  0.3507
  415MOL0     C55946   8.428   8.315   9.789 -0.9392 -0.5843 -0.4888
  415MOL0     C55947   8.513   8.335   9.674  0.2564  0.2141  0.1270
  415MOL0     C55948   8.498   8.447   9.600  0.7636 -0.4086  0.2908
  415MOL0     O55949   8.585   8.471   9.494 -0.2356 -0.5998 -1.1556
  415MOL0     C55950   8.544   8.548   9.388  0.1153 -0.0214 -0.2366
  415MOL0     C55951   8.633   8.539   9.271  0.1381 -0.7340  0.3675
  415MOL0     C55952   8.788   8.544   9.293  0.1371  0.1597 -0.3492
  415MOL0     C55953   8.879   8.527   9.168 -0.3090 -1.0391  0.5588
  415MOL0     C55954   9.022   8.556   9.186  0.5043 -0.3143  0.4252
  415MOL0     C55955   9.140   8.591   9.205  0.0746  0.8778 -0.7039
  415MOL0     C55956   8.389   8.536   9.624 -0.0578 -0.2099 -0.0537
  415MOL0     C55957   8.301   8.518   9.731  0.9710  0.2554  0.7107
  415MOL0     H55958   8.203   8.392  10.227  0.2083  0.4610  1.1106
  415MOL0     H55959   8.064   8.313  10.383  1.5527  3.4014  0.2953
  415MOL0     H55960   7.779   8.164  10.228  3.0963 -2.5985 -0.7470
  415MOL0     H55961   7.887   8.145  10.364  0.9404  1.4691 -1.6327
  415MOL0     H55962   7.578   8.122  10.362 -0.6965  0.3735  0.8462
  415MOL0     H55963   7.708   7.997  10.364 -1.9591  0.3961 -0.0794
  415MOL0     H55964   7.625   8.216  10.567  0.9397 -0.5454  3.8171
  415MOL0     H55965   7.594   8.045  10.589 -1.5818  2.3284  0.0921
  415MOL0     H55966   7.846   8.005  10.572  2.3550  1.3893  0.7414
  415MOL0     H55967   7.867   8.177  10.586  0.2671 -0.0074  1.5794
  415MOL0     H55968   7.734   7.999  10.791 -0.9772  0.6688 -0.0561
  415MOL0     H55969   7.889   8.055  10.794  0.1983  1.3300 -1.7296
  415MOL0     H55970   7.638   8.245  10.833  0.6218  4.4442  2.8572
  415MOL0     H55971   7.768   8.224  10.940 -0.6690  1.0817  1.1448
  415MOL0     H55972   7.925   8.340  10.761  0.6994  1.3751  3.1039
  415MOL0     H55973   7.781   8.371  10.677 -0.0034 -3.6388 -0.1701
  415MOL0     H55974   7.834   8.566  10.827 -1.9208  0.2087 -0.8355
  415MOL0     H55975   7.826   8.460  10.976 -2.5218  2.0312  1.4258
  415MOL0     H55976   7.595   8.499  10.654 -1.9814  0.1868 -1.4444
  415MOL0     H55977   7.260   8.634  10.803  1.0425  2.2060  0.0075
  415MOL0     H55978   7.339   8.639  10.654  1.8677 -2.0131 -1.4858
  415MOL0     H55979   7.160   8.475  10.640 -0.3231 -0.7607 -2.6041
  415MOL0     H55980   7.207   8.394  10.788  0.2258 -1.4633 -0.8099
  415MOL0     H55981   7.278   8.257  10.590  0.4452  0.8445 -5.1835
  415MOL0     H55982   7.435   8.329  10.641  1.9725  0.5812 -2.3293
  415MOL0     H55983   7.270   8.423  10.403  0.8853 -1.4146 -0.9097
  415MOL0     H55984   7.417   8.331  10.404  0.8395  0.6979  0.0202
  415MOL0     H55985   7.361   8.533  10.212  1.3426 -0.7867  0.8708
  415MOL0     H55986   7.413   8.712   9.964  1.2497  0.3752 -2.0347
  415MOL0     H55987   7.548   8.600   9.923  3.8666  1.5665  2.7310
  415MOL0     H55988   7.399   8.542  10.006  0.5387 -0.1137 -0.7035
  415MOL0     H55989   8.108   8.749  10.050 -2.4089 -1.5893 -1.4293
  415MOL0     H55990   8.280   8.888   9.962  1.8051  1.2062 -2.3010
  415MOL0     H55991   8.383   9.091   9.963  3.0880  0.3419 -0.1008
  415MOL0     H55992   8.412   9.030   9.802 -0.7526  1.3757 -1.0566
  415MOL0     H55993   8.543   9.232   9.840 -0.5222 -1.1025  2.6665
  415MOL0     H55994   8.428   9.258   9.707 -3.2518 -1.7762  0.1082
  415MOL0     H55995   8.425   9.382   9.975 -2.8158 -4.3710  0.8225
  415MOL0     H55996   8.278   9.377   9.887 -0.6084  1.6931 -2.0412
  415MOL0     H55997   8.530   9.495   9.766  1.3494 -1.7414  3.4069
  415MOL0     H55998   8.375   9.501   9.705  0.8583 -0.8179 -0.5874
  415MOL0     H55999   8.496   9.647   9.946  0.8875 -1.6032 -0.1631
  415MOL0     H56000   8.327   9.614   9.958 -0.8232  1.1843 -1.9587
  415MOL0     H56001   8.438   9.720   9.701  2.9631  2.0174  2.1520
  415MOL0     H56002   8.267   9.716   9.761 -0.2482  1.5418 -0.9221
  415MOL0     H56003   8.501   9.896   9.825 -0.7443 -1.4604 -1.4050
  415MOL0     H56004   8.376   9.879   9.946  0.8635 -2.2434  1.0094
  415MOL0     H56005   8.305   9.934   9.651 -0.5516  1.4151 -0.1258
  415MOL0     H56006   8.340  10.080   9.756  0.5344 -0.2883  0.5160
  415MOL0     H56007   7.985   9.191   9.868 -1.1099 -0.4870  0.5753
  415MOL0     H56008   7.813   9.060   9.985  0.5450  1.2561  0.8013
  415MOL0     H56009   7.765   8.776  10.329  0.1473 -1.5229  1.7443
  415MOL0     H56010   7.641   8.684  10.493 -0.8538  2.7196 -0.4255
  415MOL0     H56011   7.719   8.439  10.160 -0.6774  2.6138  0.6818
  415MOL0     H56012   7.862   8.485   9.961  0.2613 -0.8214  0.0186
  415MOL0     H56013   8.448   8.225   9.847 -0.0754 -1.0017 -1.4121
  415MOL0     H56014   8.601   8.272   9.659  1.0180  0.9630  1.2970
  415MOL0     H56015   8.437   8.526   9.375 -0.5870  0.4307  3.5418
  415MOL0     H56016   8.545   8.650   9.428 -0.5795 -0.2324  0.3349
  415MOL0     H56017   8.602   8.624   9.209 -2.8117 -2.1682 -0.3330
  415MOL0     H56018   8.612   8.453   9.206  0.0168 -0.0012 -0.5916
  415MOL0     H56019   8.800   8.469   9.372  1.2583  3.7928  3.2982
  415MOL0     H56020   8.807   8.639   9.345 -0.3346 -0.4774  1.0479
  415MOL0     H56021   8.838   8.597   9.094  2.0445  1.1526  1.1823
  415MOL0     H56022   8.856   8.427   9.129 -0.9410  0.0132 -1.9538
  415MOL0     H56023   9.239   8.631   9.203  0.5816 -0.3458 -0.9494
  415MOL0     H56024   8.372   8.627   9.568  0.0485  1.0336  1.8399
  415MOL0     H56025   8.218   8.585   9.750  0.4761 -0.2762  0.4407
  416MOL0     O56026   2.335   9.520   8.295 -0.0854  0.0766  0.0403
  416MOL0     C56027   2.241   9.508   8.212 -0.9853  0.2307 -0.6445
  416MOL0     O56028   2.169   9.615   8.152 -0.3848 -0.2428  0.1729
  416MOL0     C56029   2.214   9.746   8.177  0.5976 -0.5045 -0.6416
  416MOL0     C56030   2.349   9.788   8.171  0.6969  0.3872  0.7721
  416MOL0     C56031   2.385   9.919   8.198 -0.8352 -0.7566 -1.2400
  416MOL0     C56032   2.291  10.015   8.231 -0.6338 -0.6618 -0.5467
  416MOL0     O56033   2.330  10.144   8.259 -0.6486 -0.2629 -0.3057
  416MOL0     C56034   2.242  10.230   8.341 -0.2391  0.8359 -0.7581
  416MOL0     C56035   2.335  10.322   8.422 -0.8472 -0.0579 -0.2967
  416MOL0     C56036   2.259  10.397   8.536 -0.7128 -0.5140  0.3441
  416MOL0     C56037   2.355  10.418   8.652 -0.6374 -0.3606  1.0425
  416MOL0     C56038   2.388  10.296   8.742 -0.3354 -0.6966 -0.3193
  416MOL0     C56039   2.492  10.316   8.862  0.0267 -0.1109 -0.1319
  416MOL0     C56040   2.567  10.198   8.923 -0.0163  0.4768 -0.6410
  416MOL0     C56041   2.681  10.243   9.018  0.0070 -0.7692  0.2466
  416MOL0     N56042   2.628  10.329   9.131 -0.7238  0.8460  0.4215
  416MOL0     C56043   2.667  10.460   9.158  0.3183 -0.0156 -0.2649
  416MOL0     C56044   2.610  10.480   9.278  0.1718 -0.9555  0.2977
  416MOL0     C56045   2.624  10.615   9.343 -0.4698 -1.0189 -0.1949
  416MOL0     C56046   2.574  10.608   9.491  0.0470 -0.1746 -0.4141
  416MOL0     C56047   2.424  10.625   9.509 -0.2341 -0.0553 -0.8858
  416MOL0     C56048   2.398  10.679   9.652 -0.3736  0.7452  0.0818
  416MOL0     O56049   2.256  10.708   9.672 -0.2431 -0.2830  0.7153
  416MOL0     C56050   2.170  10.602   9.702 -0.4801 -0.2292  0.1476
  416MOL0     C56051   2.196  10.468   9.700  0.0953 -0.0349 -0.5518
  416MOL0     C56052   2.112  10.373   9.767  0.8151  0.4197 -0.5541
  416MOL0     C56053   2.162  10.232   9.780  0.3060 -0.3207  0.4606
  416MOL0     C56054   1.983  10.410   9.817 -0.4532  0.4742 -0.2675
  416MOL0     C56055   1.885  10.329   9.891 -0.6471 -0.3295  0.2072
  416MOL0     O56056   1.762  10.388   9.909 -0.0177 -0.3702  0.6114
  416MOL0     C56057   1.653  10.325   9.953 -0.4563 -0.1145 -1.1777
  416MOL0     C56058   1.611  10.202   9.914 -0.0289 -1.0148  0.1906
  416MOL0     C56059   1.487  10.155   9.936  0.4262  0.1605 -0.7700
  416MOL0     C56060   1.404  10.236  10.019 -0.2351 -0.2157  1.5215
  416MOL0     O56061   1.279  10.203  10.050 -0.5516  0.3729 -0.7019
  416MOL0     C56062   1.208  10.124   9.960 -0.2485 -0.1236 -0.4232
  416MOL0     C56063   1.064  10.153   9.986  0.1006 -0.8322 -0.4265
  416MOL0     C56064   0.979  10.196   9.863 -1.2874 -0.0463 -0.1401
  416MOL0     C56065   0.847  10.258   9.905 -0.6052 -0.4975  0.5226
  416MOL0     C56066   0.739  10.259   9.807  0.0930 -0.5619  0.5793
  416MOL0     C56067   0.679  10.121   9.783 -0.2126  1.3429 -0.2303
  416MOL0     C56068   0.527  10.127   9.733 -0.1709 -0.5845  0.3598
  416MOL0     C56069   0.461   9.993   9.732 -0.1779 -0.0455 -0.4440
  416MOL0    Cl56070   0.552   9.867   9.638  0.1354 -0.0385 -0.1248
  416MOL0     C56071   1.448  10.357  10.073 -0.2147  0.0144 -0.2137
  416MOL0     C56072   1.577  10.407  10.038 -0.1566  0.2857  0.0614
  416MOL0     O56073   1.918  10.216   9.929 -0.2003 -0.2277 -0.0264
  416MOL0     C56074   1.954  10.554   9.782 -0.0912 -0.0231 -0.3289
  416MOL0     C56075   2.043  10.642   9.735 -0.2174 -0.2093  0.5283
  416MOL0     N56076   2.547  10.365   9.321  0.3536  0.1250 -0.2047
  416MOL0     N56077   2.555  10.277   9.228  0.4820  0.7610  0.1112
  416MOL0     C56078   2.153   9.980   8.226  0.2645 -0.8460  0.6262
  416MOL0     C56079   2.114   9.847   8.193 -1.2163  0.6860  0.0195
  416MOL0     C56080   2.205   9.374   8.168  0.2007 -0.1946  0.1096
  416MOL0     C56081   2.157   9.353   8.039 -0.3219 -0.3584 -0.0994
  416MOL0     C56082   2.125   9.229   7.991  0.4522  0.3122 -0.1156
  416MOL0     C56083   2.128   9.117   8.073 -1.0389 -1.1089  1.2225
  416MOL0     O56084   2.055   9.009   8.033 -0.1902 -0.3765  0.0580
  416MOL0     C56085   1.940   8.981   8.111 -0.2412  0.3900  0.2762
  416MOL0     C56086   1.813   8.926   8.035 -1.1277  0.4874 -0.0279
  416MOL0     C56087   1.751   9.028   7.940  0.8636 -0.3152  0.6285
  416MOL0     C56088   1.810   9.045   7.807  0.3916 -0.3127  0.7682
  416MOL0     C56089   1.717   9.007   7.694  0.9238  0.0519 -0.8292
  416MOL0     C56090   1.640   8.955   7.617 -0.3188 -0.0902  0.2426
  416MOL0     C56091   2.194   9.126   8.189  0.0388  0.1426  0.2280
  416MOL0     C56092   2.224   9.258   8.243 -0.6393  0.2578 -0.1214
  416MOL0     H56093   2.421   9.715   8.135  0.3664  1.0521 -1.3695
  416MOL0     H56094   2.489   9.946   8.212 -0.7547 -1.0231 -1.3095
  416MOL0     H56095   2.169  10.279   8.275 -2.2128 -2.2124 -1.0648
  416MOL0     H56096   2.187  10.173   8.416  0.0110 -4.1923 -3.9183
  416MOL0     H56097   2.427  10.274   8.459 -0.2104  1.2196 -0.1362
  416MOL0     H56098   2.381  10.398   8.358  1.7295 -0.9682  0.3185
  416MOL0     H56099   2.222  10.491   8.493  4.4631  1.4054 -0.6267
  416MOL0     H56100   2.174  10.336   8.567 -1.3815 -0.7093 -1.7104
  416MOL0     H56101   2.447  10.457   8.607 -0.8011 -2.7037 -1.5116
  416MOL0     H56102   2.301  10.476   8.728 -5.1112 -1.1708 -1.1614
  416MOL0     H56103   2.293  10.261   8.783 -1.4424  0.7563 -1.5226
  416MOL0     H56104   2.430  10.221   8.673  1.1714 -0.3418  0.1754
  416MOL0     H56105   2.574  10.382   8.831  1.9191 -0.7333  3.0266
  416MOL0     H56106   2.431  10.358   8.942  1.5397  0.7309  0.6330
  416MOL0     H56107   2.503  10.131   8.981  2.6206 -0.5279  1.3113
  416MOL0     H56108   2.613  10.143   8.840 -0.8500 -1.7608  0.3157
  416MOL0     H56109   2.759  10.293   8.959  1.7379 -2.8282  0.6847
  416MOL0     H56110   2.731  10.163   9.073  0.0896 -0.0761  1.2102
  416MOL0     H56111   2.719  10.526   9.089  3.0037 -1.4415  0.2487
  416MOL0     H56112   2.728  10.648   9.345 -1.4978  2.6352 -0.8944
  416MOL0     H56113   2.568  10.687   9.284 -2.2837 -0.5261  2.0217
  416MOL0     H56114   2.619  10.691   9.547 -1.2854  1.1650 -1.2260
  416MOL0     H56115   2.608  10.513   9.532  1.4643  0.0398 -1.0483
  416MOL0     H56116   2.366  10.534   9.493 -0.4668  0.0355 -0.5713
  416MOL0     H56117   2.379  10.700   9.443 -0.1819 -0.5106 -1.4512
  416MOL0     H56118   2.449  10.776   9.659 -0.8685  0.8883  2.5429
  416MOL0     H56119   2.438  10.610   9.726  1.1863 -2.9199 -3.7436
  416MOL0     H56120   2.288  10.425   9.664 -1.4357 -1.6464 -2.8067
  416MOL0     H56121   2.154  10.210   9.887 -2.0129  2.0841  0.8802
  416MOL0     H56122   2.110  10.154   9.723  0.7930 -1.1498  1.1346
  416MOL0     H56123   2.268  10.230   9.754 -0.0916 -0.3669 -1.2578
  416MOL0     H56124   1.670  10.151   9.838  1.4598  2.9529 -1.5518
  416MOL0     H56125   1.456  10.061   9.893 -0.8939 -0.1517  0.8026
  416MOL0     H56126   1.227  10.157   9.857  0.0418  1.7393  0.1918
  416MOL0     H56127   1.234  10.020   9.980  2.0930  0.5026  0.1392
  416MOL0     H56128   1.025  10.064  10.036 -0.1744  0.0279  0.9716
  416MOL0     H56129   1.057  10.232  10.062 -0.4084 -2.6461  1.5251
  416MOL0     H56130   0.954  10.104   9.810  0.6597 -1.5737  1.4478
  416MOL0     H56131   1.028  10.263   9.792 -1.2088  0.4484  0.3797
  416MOL0     H56132   0.824  10.205   9.998 -2.1924  0.9681  1.0052
  416MOL0     H56133   0.870  10.362   9.931 -1.2964  0.1692 -1.4180
  416MOL0     H56134   0.780  10.295   9.712  1.0529  0.2517  1.2717
  416MOL0     H56135   0.662  10.328   9.844 -1.5371 -2.5562  1.0718
  416MOL0     H56136   0.753  10.079   9.714 -1.0190 -2.2653  0.8605
  416MOL0     H56137   0.671  10.072   9.881 -0.6907  0.4869 -0.6870
  416MOL0     H56138   0.532  10.173   9.634  2.7079  3.4914  2.0929
  416MOL0     H56139   0.480  10.197   9.803 -0.2497 -1.9006  1.6963
  416MOL0     H56140   0.364  10.002   9.682 -1.4656  0.5083  2.0001
  416MOL0     H56141   0.448   9.957   9.834 -3.0139  0.5122 -0.5184
  416MOL0     H56142   1.382  10.408  10.142 -0.1618  0.1859 -0.2879
  416MOL0     H56143   1.617  10.501  10.075 -0.2799  0.7120 -0.8725
  416MOL0     H56144   1.858  10.597   9.806 -0.3795  0.5381 -2.3108
  416MOL0     H56145   2.027  10.749   9.741  2.7474  0.4078 -0.9070
  416MOL0     H56146   2.078  10.056   8.248  1.8200  1.1479 -0.5557
  416MOL0     H56147   2.010   9.823   8.214 -2.1196  2.3718 -2.1138
  416MOL0     H56148   2.163   9.438   7.972 -1.7649  2.1568  2.6902
  416MOL0     H56149   2.083   9.228   7.891  0.2877 -0.0357 -0.0438
  416MOL0     H56150   1.987   8.905   8.174  5.1470  2.4640 -0.7296
  416MOL0     H56151   1.916   9.068   8.173  1.9687 -0.7141  2.8557
  416MOL0     H56152   1.746   8.908   8.119 -0.0963 -0.2491  0.6574
  416MOL0     H56153   1.836   8.830   7.987 -1.7411 -0.1011  0.8320
  416MOL0     H56154   1.726   9.117   7.998 -0.9843 -1.0538  1.0234
  416MOL0     H56155   1.651   8.987   7.922  1.0277 -0.0943 -0.8621
  416MOL0     H56156   1.904   8.991   7.799  0.6343  0.3492 -1.8948
  416MOL0     H56157   1.834   9.150   7.792 -0.5892 -0.1513  0.1764
  416MOL0     H56158   1.587   8.915   7.533 -0.9618 -0.6711  0.9141
  416MOL0     H56159   2.216   9.043   8.255  0.0405  0.0743  0.1406
  416MOL0     H56160   2.268   9.274   8.341  2.5926  2.3125 -1.7352
  417MOL0     O56161  10.897   0.560   5.667 -0.9101 -0.0105  0.9955
  417MOL0     C56162  10.960   0.667   5.677  0.3298  0.5875  0.2429
  417MOL0     O56163  11.060   0.708   5.591 -0.2884 -0.6368 -0.2453
  417MOL0     C56164  11.095   0.630   5.485  0.4296  1.0237  0.0815
  417MOL0     C56165  11.232   0.631   5.459  0.2395  0.6143 -0.5142
  417MOL0     C56166  11.288   0.573   5.343 -0.1012  0.1401  0.9308
  417MOL0     C56167  11.188   0.498   5.261 -0.1608 -0.5141  0.2353
  417MOL0     O56168  11.240   0.416   5.171  0.0121 -0.5247  0.4539
  417MOL0     C56169  11.160   0.346   5.085 -0.5297 -0.4935 -0.5056
  417MOL0     C56170  11.240   0.247   5.001  0.4384  0.0770  0.0088
  417MOL0     C56171  11.143   0.143   4.942  1.0185 -0.5246  0.1800
  417MOL0     C56172  11.226   0.025   4.891  0.1483  0.3236 -0.6259
  417MOL0     C56173  11.150  -0.101   4.834  0.4727 -0.7093 -0.1837
  417MOL0     C56174  11.249  -0.222   4.834 -0.2690 -0.1021 -0.8818
  417MOL0     C56175  11.283  -0.281   4.975  0.1213  0.6986  0.4605
  417MOL0     C56176  11.362  -0.407   4.952 -0.4041  0.7854  0.2948
  417MOL0     N56177  11.384  -0.486   5.072  1.1568 -0.6210  0.1414
  417MOL0     C56178  11.432  -0.433   5.191  0.1099  0.3901  1.2139
  417MOL0     C56179  11.386  -0.520   5.284  0.1459 -0.6911 -0.4039
  417MOL0     C56180  11.403  -0.500   5.434 -0.5355 -0.6455  0.1207
  417MOL0     C56181  11.329  -0.599   5.518  0.0515 -0.2779 -0.3861
  417MOL0     C56182  11.353  -0.572   5.660 -0.0312  0.6615  0.2403
  417MOL0     C56183  11.276  -0.672   5.739 -0.4504 -0.0239  0.1619
  417MOL0     O56184  11.316  -0.647   5.874  0.0223  0.4455  0.2401
  417MOL0     C56185  11.265  -0.725   5.978  0.2624  0.4963  0.4290
  417MOL0     C56186  11.163  -0.827   5.959  0.4036  0.0964  0.3056
  417MOL0     C56187  11.104  -0.888   6.067  0.3262  0.2393 -0.4780
  417MOL0     C56188  11.001  -0.980   6.050  0.0221  0.4172 -0.3396
  417MOL0     C56189  11.173  -0.880   6.189  0.8478  0.0688  0.2563
  417MOL0     C56190  11.141  -0.956   6.315  0.8954 -0.3289  0.1817
  417MOL0     O56191  11.110  -0.874   6.426  0.5901  1.0077  0.5552
  417MOL0     C56192  11.012  -0.920   6.512 -0.7320 -0.0415  0.6317
  417MOL0     C56193  10.926  -0.818   6.556 -0.0161 -0.1319 -0.4198
  417MOL0     C56194  10.828  -0.838   6.656  1.1404  0.7221  0.5062
  417MOL0     C56195  10.822  -0.970   6.715  0.4260 -0.4395 -0.2487
  417MOL0     O56196  10.706  -0.995   6.793 -0.1211  0.4888 -0.9510
  417MOL0     C56197  10.711  -0.973   6.938  0.2320 -0.2365  0.7555
  417MOL0     C56198  10.580  -0.990   7.008  0.1066 -0.3630 -0.1554
  417MOL0     C56199  10.475  -0.899   6.950  0.5896 -0.2344  0.1961
  417MOL0     C56200  10.337  -0.897   7.012  0.9694  1.1666 -0.0075
  417MOL0     C56201  10.310  -0.791   7.126 -0.6936  0.6544 -1.1719
  417MOL0     C56202  10.378  -0.825   7.258 -0.6962  0.2793  0.0843
  417MOL0     C56203  10.324  -0.955   7.323 -0.0499  0.3756  0.1990
  417MOL0     C56204  10.400  -0.986   7.458 -0.3539 -0.6135  0.1214
  417MOL0    Cl56205  10.367  -0.853   7.580 -0.2159 -0.1486  0.5502
  417MOL0     C56206  10.914  -1.074   6.672  0.7830  0.8046  1.6239
  417MOL0     C56207  11.007  -1.044   6.575 -0.2335 -0.4682  0.2473
  417MOL0     O56208  11.114  -1.075   6.304  0.3185  0.1726  0.1134
  417MOL0     C56209  11.270  -0.789   6.210 -0.5337  0.1052  0.2004
  417MOL0     C56210  11.305  -0.697   6.107 -0.4024 -0.5856 -0.2198
  417MOL0     N56211  11.323  -0.630   5.222  0.4748 -0.3449 -0.5998
  417MOL0     N56212  11.311  -0.601   5.096  0.2879 -0.1366 -0.5228
  417MOL0     C56213  11.053   0.509   5.284  0.3319  0.7945 -0.3226
  417MOL0     C56214  11.004   0.581   5.392  0.1754 -0.5764 -0.1530
  417MOL0     C56215  10.899   0.766   5.765  0.6683  0.2844  0.3541
  417MOL0     C56216  10.773   0.753   5.827  0.2429  0.1671  0.0068
  417MOL0     C56217  10.735   0.860   5.905 -0.6711 -0.1864 -1.3823
  417MOL0     C56218  10.811   0.969   5.937  0.6027 -1.2295 -0.2094
  417MOL0     O56219  10.782   1.077   6.021 -0.5079  0.1795 -0.1127
  417MOL0     C56220  10.655   1.073   6.095  0.7411 -0.0372 -0.4514
  417MOL0     C56221  10.616   1.208   6.147  0.2649  0.6753 -0.1924
  417MOL0     C56222  10.475   1.208   6.208  0.8370  0.4332 -0.4354
  417MOL0     C56223  10.437   1.104   6.309 -0.0958 -0.7614 -0.2165
  417MOL0     C56224  10.408   0.969   6.261 -0.2323 -0.2027 -0.3079
  417MOL0     C56225  10.390   0.851   6.224  0.4627  0.2005 -0.1214
  417MOL0     C56226  10.938   0.977   5.883  0.9489  0.2876  0.1339
  417MOL0     C56227  10.981   0.875   5.793  0.8637 -0.0231 -0.7747
  417MOL0     H56228  11.301   0.685   5.524 -0.6091 -0.6255  1.5256
  417MOL0     H56229  11.394   0.573   5.323 -0.4030 -1.9626 -1.0242
  417MOL0     H56230  11.084   0.293   5.142  1.4186 -1.8084  0.9933
  417MOL0     H56231  11.123   0.411   5.005  3.4701  2.4798 -0.2592
  417MOL0     H56232  11.289   0.305   4.922  0.6683 -0.9504 -0.6248
  417MOL0     H56233  11.313   0.198   5.065  1.2618 -0.0634 -1.0149
  417MOL0     H56234  11.070   0.111   5.017 -0.0626  2.3744  0.4909
  417MOL0     H56235  11.102   0.185   4.850  2.9302 -1.6850 -1.2715
  417MOL0     H56236  11.276   0.059   4.799  0.8913  1.0110  0.0130
  417MOL0     H56237  11.291   0.000   4.976 -3.2153 -2.3645  1.3955
  417MOL0     H56238  11.066  -0.112   4.903  1.1985  1.2102  1.0968
  417MOL0     H56239  11.116  -0.075   4.733  1.6696  0.7426 -0.2455
  417MOL0     H56240  11.202  -0.298   4.771 -0.1822  0.0328 -1.1092
  417MOL0     H56241  11.339  -0.190   4.781 -1.0820  0.8790 -1.7129
  417MOL0     H56242  11.341  -0.221   5.046  2.7880 -1.4215  0.1947
  417MOL0     H56243  11.185  -0.310   5.015  0.3054  0.6953  0.9080
  417MOL0     H56244  11.452  -0.373   4.901  1.8030 -2.9386  1.3010
  417MOL0     H56245  11.315  -0.472   4.877  2.4889 -0.8856 -0.2124
  417MOL0     H56246  11.491  -0.342   5.184  0.4316  0.0369 -2.8424
  417MOL0     H56247  11.508  -0.512   5.464 -1.4469 -2.8012  2.8163
  417MOL0     H56248  11.370  -0.400   5.464 -1.1127 -0.8898  0.3139
  417MOL0     H56249  11.352  -0.702   5.489 -0.7452 -0.2986 -1.0005
  417MOL0     H56250  11.225  -0.581   5.488 -0.1837 -0.5362  0.2691
  417MOL0     H56251  11.338  -0.465   5.677 -1.1642  0.4520  0.6166
  417MOL0     H56252  11.458  -0.587   5.686  0.3010  2.5064  0.1384
  417MOL0     H56253  11.307  -0.771   5.705 -2.1343 -0.2742 -0.7528
  417MOL0     H56254  11.168  -0.655   5.730 -0.5011  1.2896  2.5254
  417MOL0     H56255  11.124  -0.832   5.858  0.1442  1.6814  0.2911
  417MOL0     H56256  10.913  -0.959   6.112  1.9543  3.6037  1.5651
  417MOL0     H56257  10.971  -0.978   5.945  1.2137  1.8442 -0.6857
  417MOL0     H56258  11.029  -1.084   6.068  1.1423  0.8009  0.1842
  417MOL0     H56259  10.930  -0.729   6.494 -0.6381 -0.5903 -1.1422
  417MOL0     H56260  10.756  -0.759   6.676  2.3138  1.5612  1.5669
  417MOL0     H56261  10.778  -1.051   6.974  2.2053  0.4694 -1.1459
  417MOL0     H56262  10.749  -0.871   6.952 -0.2149  0.2723 -1.4058
  417MOL0     H56263  10.549  -1.094   7.014 -2.4195  0.2580 -1.3951
  417MOL0     H56264  10.602  -0.961   7.111 -0.1210 -2.3341  0.4755
  417MOL0     H56265  10.460  -0.921   6.844 -0.7754  2.6609 -0.3181
  417MOL0     H56266  10.496  -0.791   6.944  0.2601  0.0232  2.6169
  417MOL0     H56267  10.265  -0.876   6.932 -0.1927 -0.3802  0.5838
  417MOL0     H56268  10.310  -0.999   7.040 -2.6455  1.8864 -0.3843
  417MOL0     H56269  10.202  -0.795   7.146 -0.0280  0.9467  3.4550
  417MOL0     H56270  10.323  -0.684   7.107  0.2950  1.4607  3.1108
  417MOL0     H56271  10.487  -0.831   7.253 -0.6030  1.6236  0.0947
  417MOL0     H56272  10.352  -0.746   7.329  0.3572  0.7815 -0.0734
  417MOL0     H56273  10.337  -1.036   7.250 -1.0415  0.7622 -0.4372
  417MOL0     H56274  10.216  -0.942   7.338  0.0076  3.3118 -1.0512
  417MOL0     H56275  10.507  -1.003   7.439 -0.6417  0.0457 -2.5288
  417MOL0     H56276  10.371  -1.084   7.496 -1.6545 -1.6312 -3.1193
  417MOL0     H56277  10.918  -1.175   6.714 -2.4454  0.0370  0.3738
  417MOL0     H56278  11.097  -1.104   6.564 -0.0449 -0.3166  0.8810
  417MOL0     H56279  11.334  -0.788   6.298  0.2787 -2.2490 -0.2635
  417MOL0     H56280  11.376  -0.616   6.120  1.7078 -2.2096 -0.9972
  417MOL0     H56281  10.978   0.459   5.225  1.5327  0.0080 -1.2297
  417MOL0     H56282  10.897   0.598   5.391  0.3271  0.4298 -0.7304
  417MOL0     H56283  10.706   0.670   5.809  0.6718  0.3038 -2.6559
  417MOL0     H56284  10.636   0.858   5.950  0.2417  0.3025  0.7865
  417MOL0     H56285  10.570   1.036   6.037 -0.7355  1.2546  0.7841
  417MOL0     H56286  10.654   0.996   6.174 -0.2213 -2.8155 -2.9933
  417MOL0     H56287  10.615   1.288   6.073  3.0356  0.7378 -0.2807
  417MOL0     H56288  10.693   1.224   6.223 -0.2578  0.6951  0.3356
  417MOL0     H56289  10.399   1.208   6.130  1.8517  1.8502 -1.4728
  417MOL0     H56290  10.471   1.308   6.252 -0.8138 -0.3962  1.4831
  417MOL0     H56291  10.347   1.134   6.363 -0.4613 -2.8521  0.4318
  417MOL0     H56292  10.519   1.099   6.380 -0.1619  0.7596 -0.0003
  417MOL0     H56293  10.378   0.748   6.197  0.6531  0.5643 -1.6656
  417MOL0     H56294  11.005   1.059   5.910  2.0752 -0.6685  0.3417
  417MOL0     H56295  11.085   0.880   5.762  1.2826 -0.3311  0.4917
  418MOL0     O56296   9.445   3.212  11.129 -0.8251 -0.7868 -0.5222
  418MOL0     C56297   9.534   3.126  11.125  0.0669 -0.0354  0.3487
  418MOL0     O56298   9.521   2.995  11.161  1.1817 -0.0480  0.4248
  418MOL0     C56299   9.403   2.944  11.213 -1.1307  0.3230 -0.0373
  418MOL0     C56300   9.337   2.999  11.326 -1.1611  0.8835 -0.7318
  418MOL0     C56301   9.221   2.936  11.382 -0.7876  0.1893 -0.3481
  418MOL0     C56302   9.165   2.825  11.314 -0.4072 -0.8944 -0.4733
  418MOL0     O56303   9.050   2.774  11.351  0.2295 -0.2674 -0.3278
  418MOL0     C56304   8.935   2.833  11.287  0.1422 -1.1582  0.4308
  418MOL0     C56305   8.814   2.735  11.315 -0.3985  1.0710 -0.7948
  418MOL0     C56306   8.682   2.763  11.239  0.3539  0.0891 -0.8024
  418MOL0     C56307   8.582   2.652  11.277 -0.7762 -0.3488  0.1951
  418MOL0     C56308   8.446   2.673  11.223  0.4943  0.1950 -0.4217
  418MOL0     C56309   8.352   2.546  11.248 -0.3025  0.2871 -0.2583
  418MOL0     C56310   8.244   2.535  11.145 -0.3006  0.8545 -0.7171
  418MOL0     C56311   8.124   2.642  11.167 -0.3979  0.4491 -0.3669
  418MOL0     N56312   8.041   2.640  11.047 -0.3740  0.2546 -0.0717
  418MOL0     C56313   8.051   2.719  10.935 -0.4536 -0.0355  0.1015
  418MOL0     C56314   7.932   2.683  10.871 -0.3488 -0.2310  0.4883
  418MOL0     C56315   7.890   2.723  10.735  0.5440  0.0678  0.3554
  418MOL0     C56316   7.917   2.874  10.717 -0.3312 -0.0459 -0.3523
  418MOL0     C56317   7.881   2.937  10.589  0.7934 -0.7491  0.0771
  418MOL0     C56318   7.994   2.925  10.488 -0.3811  0.5104  0.7763
  418MOL0     O56319   7.942   2.973  10.367  0.5863  0.6666  0.3604
  418MOL0     C56320   7.865   2.882  10.299  0.9204  1.1490 -1.3492
  418MOL0     C56321   7.822   2.912  10.179  1.1464  0.2649  0.5846
  418MOL0     C56322   7.740   2.822  10.102  0.3156  0.9388  0.0032
  418MOL0     C56323   7.691   2.887   9.975 -0.8652  0.5794 -0.1886
  418MOL0     C56324   7.696   2.693  10.155  0.0569 -0.0039  0.7830
  418MOL0     C56325   7.610   2.597  10.080 -0.4693 -0.5922  0.5641
  418MOL0     O56326   7.574   2.618   9.946 -0.5383  0.5606  0.3560
  418MOL0     C56327   7.460   2.562   9.883 -0.2264 -0.4176 -1.1424
  418MOL0     C56328   7.411   2.429   9.915  0.0797 -1.0518  0.2509
  418MOL0     C56329   7.282   2.388   9.867 -0.3945 -0.1280 -0.0171
  418MOL0     C56330   7.207   2.474   9.777  0.4041 -0.3582 -0.8754
  418MOL0     O56331   7.082   2.436   9.737  0.7503  0.4341  0.2333
  418MOL0     C56332   7.001   2.529   9.670 -0.2665 -0.3133 -0.5451
  418MOL0     C56333   6.864   2.454   9.639  0.4015  0.6663 -0.4923
  418MOL0     C56334   6.770   2.546   9.564  1.1062 -0.0776 -0.8935
  418MOL0     C56335   6.631   2.491   9.576  0.1800  1.1348  0.2926
  418MOL0     C56336   6.517   2.588   9.528  0.1405  0.4734  0.2928
  418MOL0     C56337   6.522   2.594   9.371 -0.0273  0.6046 -0.1479
  418MOL0     C56338   6.382   2.647   9.321 -0.0591 -0.7684 -0.7261
  418MOL0     C56339   6.393   2.720   9.183 -0.6205  0.1154  0.1564
  418MOL0    Cl56340   6.245   2.807   9.131 -0.1772  0.1004 -0.2450
  418MOL0     C56341   7.263   2.600   9.742 -1.1351  1.0145 -0.0481
  418MOL0     C56342   7.392   2.641   9.797 -0.5747  0.8810  1.2464
  418MOL0     O56343   7.565   2.506  10.146  0.0925 -0.6708 -0.1714
  418MOL0     C56344   7.751   2.658  10.272  0.7838 -0.0222  0.1470
  418MOL0     C56345   7.827   2.749  10.350 -0.4241  0.1352  0.2354
  418MOL0     N56346   7.852   2.598  10.949 -0.6126  0.2540  0.3121
  418MOL0     N56347   7.925   2.565  11.045  0.9247 -0.3712 -0.5042
  418MOL0     C56348   9.240   2.774  11.207  0.2276 -0.1447 -0.4348
  418MOL0     C56349   9.354   2.831  11.161 -0.2513 -0.6827 -0.5058
  418MOL0     C56350   9.666   3.173  11.088 -0.0547 -0.2446 -0.6924
  418MOL0     C56351   9.782   3.095  11.111  0.2237  0.9775  0.0027
  418MOL0     C56352   9.914   3.150  11.084 -0.3611 -0.9905 -0.3401
  418MOL0     C56353   9.927   3.283  11.035 -0.7776 -1.6044 -0.1244
  418MOL0     O56354  10.056   3.325  11.022 -0.1258 -0.2463  0.1350
  418MOL0     C56355  10.092   3.462  10.995 -0.3637 -0.6646  0.3548
  418MOL0     C56356  10.240   3.483  11.015 -0.3925 -0.6053 -0.4200
  418MOL0     C56357  10.282   3.633  11.048 -0.7965 -0.4272  0.0192
  418MOL0     C56358  10.227   3.729  10.942 -0.6274 -0.0479  0.3319
  418MOL0     C56359  10.269   3.704  10.806 -0.3751  0.4016  0.0820
  418MOL0     C56360  10.298   3.678  10.691  0.2110 -0.3886  0.0397
  418MOL0     C56361   9.812   3.356  11.012 -0.2133  0.0616  0.3483
  418MOL0     C56362   9.687   3.302  11.035  0.5644 -0.0298 -0.3598
  418MOL0     H56363   9.386   3.083  11.374  0.5339  0.1522 -1.1163
  418MOL0     H56364   9.183   2.970  11.478 -0.6921 -1.8152  0.4576
  418MOL0     H56365   8.908   2.932  11.327 -4.4353 -1.2093 -1.8823
  418MOL0     H56366   8.942   2.847  11.179 -1.0147  1.3398  0.5859
  418MOL0     H56367   8.847   2.632  11.300  1.4621  1.3426  0.9000
  418MOL0     H56368   8.791   2.733  11.422 -0.6455 -1.1735 -0.8392
  418MOL0     H56369   8.642   2.862  11.260 -0.3023 -0.6539  1.7786
  418MOL0     H56370   8.702   2.758  11.131  5.0527 -1.1256 -0.0975
  418MOL0     H56371   8.621   2.562  11.230 -1.1033  0.8058 -2.4673
  418MOL0     H56372   8.576   2.644  11.386 -2.3229 -2.9332 -0.0108
  418MOL0     H56373   8.394   2.762  11.262 -0.4793 -0.5556  0.0336
  418MOL0     H56374   8.474   2.693  11.119  0.9988  1.7180 -0.0248
  418MOL0     H56375   8.406   2.452  11.233  0.3263  0.4871  0.6630
  418MOL0     H56376   8.329   2.535  11.355  1.1680  1.4201  0.2032
  418MOL0     H56377   8.289   2.547  11.047  2.4634  0.4957  0.4191
  418MOL0     H56378   8.199   2.435  11.146 -0.3480  0.8604  0.5431
  418MOL0     H56379   8.168   2.742  11.177 -2.3648  1.7416 -3.3805
  418MOL0     H56380   8.060   2.612  11.251 -0.3637  1.2802 -0.0404
  418MOL0     H56381   8.134   2.773  10.889 -0.5815  0.1967  0.1375
  418MOL0     H56382   7.937   2.667  10.654  0.1359  2.5773 -1.7409
  418MOL0     H56383   7.785   2.699  10.720  1.0583 -2.6365  0.4899
  418MOL0     H56384   8.027   2.882  10.719 -0.1788 -1.6771  2.8477
  418MOL0     H56385   7.888   2.944  10.795 -0.5567 -1.6411  1.0358
  418MOL0     H56386   7.867   3.042  10.615 -1.5806 -1.1830  0.8262
  418MOL0     H56387   7.785   2.906  10.545  1.6861 -0.9173 -1.8683
  418MOL0     H56388   8.044   2.829  10.483  0.9131  1.2132 -1.6334
  418MOL0     H56389   8.067   2.999  10.521 -0.5389  1.1793 -0.3100
  418MOL0     H56390   7.836   3.006  10.127 -0.3314  1.2957  1.9546
  418MOL0     H56391   7.768   2.864   9.900  0.1540  3.5641 -0.1949
  418MOL0     H56392   7.593   2.847   9.947  0.1780 -2.1695 -0.1857
  418MOL0     H56393   7.684   2.995   9.993 -0.1786  1.0205 -2.2604
  418MOL0     H56394   7.475   2.366   9.977  1.4498  0.0392 -0.0110
  418MOL0     H56395   7.242   2.292   9.899 -0.0159 -0.3864 -0.3120
  418MOL0     H56396   6.992   2.623   9.725  0.4541 -1.1799  1.1374
  418MOL0     H56397   7.046   2.559   9.575 -0.2036  0.3301 -0.3127
  418MOL0     H56398   6.877   2.370   9.570 -0.9957 -0.2873  0.3583
  418MOL0     H56399   6.814   2.415   9.728 -1.6484  1.4596 -1.2395
  418MOL0     H56400   6.790   2.552   9.457 -0.1093 -2.9046 -1.3699
  418MOL0     H56401   6.786   2.637   9.622 -0.6491 -0.2390 -0.0891
  418MOL0     H56402   6.626   2.396   9.522  1.7372  1.3622 -0.2914
  418MOL0     H56403   6.609   2.471   9.681 -1.0508  1.8100  0.1822
  418MOL0     H56404   6.532   2.688   9.570 -0.6697  0.9474 -0.5123
  418MOL0     H56405   6.415   2.564   9.559  0.4932  1.5722  2.4801
  418MOL0     H56406   6.602   2.653   9.324  2.6171 -1.2487  1.6926
  418MOL0     H56407   6.533   2.491   9.337  0.1566 -0.9117  3.9252
  418MOL0     H56408   6.342   2.712   9.400  2.4671  0.1605 -0.0979
  418MOL0     H56409   6.311   2.564   9.315 -0.2286 -0.5137 -4.3643
  418MOL0     H56410   6.417   2.655   9.098 -1.6938 -0.7312  0.4860
  418MOL0     H56411   6.477   2.790   9.184  1.5158 -2.2685  2.3111
  418MOL0     H56412   7.212   2.671   9.677 -1.7325 -0.1528 -0.9067
  418MOL0     H56413   7.446   2.734   9.785  2.0392 -0.6441  0.3922
  418MOL0     H56414   7.743   2.561  10.321  2.2248  1.5072  3.8129
  418MOL0     H56415   7.842   2.731  10.456  1.1941 -0.4483 -0.0633
  418MOL0     H56416   9.199   2.690  11.150 -0.0311  0.7023 -1.5287
  418MOL0     H56417   9.418   2.786  11.086  1.4377 -0.4664  0.7493
  418MOL0     H56418   9.775   2.992  11.143 -0.4238  0.0314 -2.9006
  418MOL0     H56419   9.998   3.088  11.115 -1.9952 -0.8631  5.6750
  418MOL0     H56420  10.073   3.478  10.888  1.7731  0.5668  0.0956
  418MOL0     H56421  10.030   3.530  11.053  0.2945  1.0405 -0.8511
  418MOL0     H56422  10.294   3.446  10.928 -1.1669 -0.7693 -0.8437
  418MOL0     H56423  10.275   3.418  11.096  1.1733  0.0652 -0.5269
  418MOL0     H56424  10.391   3.640  11.051 -0.6540 -2.3830  0.2115
  418MOL0     H56425  10.257   3.669  11.148  1.7554  1.7658 -0.0090
  418MOL0     H56426  10.256   3.830  10.973  0.0390 -0.1865  0.1731
  418MOL0     H56427  10.119   3.718  10.949 -0.3311 -2.0185  4.7210
  418MOL0     H56428  10.326   3.646  10.593 -0.5816 -1.5107  0.1514
  418MOL0     H56429   9.818   3.460  10.985 -0.3150  0.4529  1.7566
  418MOL0     H56430   9.592   3.349  11.016 -1.1486 -1.5619  3.3697
  419MOL0     O56431   3.562   4.198   3.767  0.4933  0.0134 -0.6029
  419MOL0     C56432   3.644   4.260   3.696  0.8248 -0.7938  0.4262
  419MOL0     O56433   3.717   4.366   3.739 -0.5264 -0.8554  0.0301
  419MOL0     C56434   3.709   4.381   3.872 -0.7963  0.1976 -0.5001
  419MOL0     C56435   3.759   4.292   3.971 -0.2670 -0.3837 -0.4643
  419MOL0     C56436   3.732   4.321   4.103  0.5138 -0.2264  0.0881
  419MOL0     C56437   3.686   4.451   4.146 -0.2525  0.1826  1.2453
  419MOL0     O56438   3.672   4.486   4.275  0.3569 -0.5014  0.3317
  419MOL0     C56439   3.688   4.396   4.380  0.5418  0.1287  0.2350
  419MOL0     C56440   3.577   4.292   4.378  0.3479 -0.4923  1.2057
  419MOL0     C56441   3.615   4.163   4.456  0.2458 -0.1194 -0.6964
  419MOL0     C56442   3.492   4.067   4.451 -0.3593  0.0423  0.2601
  419MOL0     C56443   3.522   3.930   4.514  0.4597 -0.0457  0.0660
  419MOL0     C56444   3.415   3.815   4.524  0.0267 -0.2593  0.0133
  419MOL0     C56445   3.448   3.733   4.647 -0.6087  0.4797 -0.1362
  419MOL0     C56446   3.349   3.612   4.641 -0.0056  0.5060  0.4193
  419MOL0     N56447   3.327   3.563   4.772  0.5307  0.2531  0.1881
  419MOL0     C56448   3.354   3.437   4.813 -1.0538  0.9393 -0.9067
  419MOL0     C56449   3.312   3.428   4.938 -0.3075 -0.2671 -0.5376
  419MOL0     C56450   3.323   3.293   5.019  0.8601  0.3891 -0.6909
  419MOL0     C56451   3.309   3.164   4.940 -0.0024 -0.1747 -0.7326
  419MOL0     C56452   3.176   3.156   4.860 -0.6825  0.1808 -0.2446
  419MOL0     C56453   3.178   3.054   4.745  0.3636  0.0488 -0.6145
  419MOL0     O56454   3.284   3.081   4.650  0.0043  0.6066 -0.4098
  419MOL0     C56455   3.274   3.183   4.560  0.0690  0.5516 -0.6138
  419MOL0     C56456   3.379   3.212   4.472  0.2612 -0.4881  0.7329
  419MOL0     C56457   3.375   3.316   4.384  0.1157 -0.2730  0.5609
  419MOL0     C56458   3.499   3.342   4.302  0.4374 -0.2380  0.5249
  419MOL0     C56459   3.259   3.395   4.377 -0.2752 -0.6040  0.0659
  419MOL0     C56460   3.236   3.505   4.285  0.2305 -0.1009  0.4337
  419MOL0     O56461   3.104   3.527   4.242  0.7916  0.2094 -0.1457
  419MOL0     C56462   3.067   3.638   4.178  0.5779 -0.1578  0.6108
  419MOL0     C56463   2.954   3.641   4.094 -0.3634  1.1111 -0.5022
  419MOL0     C56464   2.891   3.761   4.063 -0.4333 -0.4879  0.2675
  419MOL0     C56465   2.947   3.884   4.096 -0.0098 -0.9161  0.5694
  419MOL0     O56466   2.895   4.007   4.061  0.2297 -0.6100 -0.4133
  419MOL0     C56467   2.774   4.019   3.976 -0.2637  0.2707 -1.0788
  419MOL0     C56468   2.807   4.028   3.830  0.6506  0.1204  1.4665
  419MOL0     C56469   2.882   4.158   3.789 -0.6442  0.1933 -0.2945
  419MOL0     C56470   2.906   4.167   3.633  0.0355  0.0205  0.7660
  419MOL0     C56471   3.019   4.069   3.581  0.1411  0.1965  0.4185
  419MOL0     C56472   3.069   4.089   3.441  0.1793  0.6628 -0.5253
  419MOL0     C56473   2.959   4.104   3.337 -0.0049  0.4914  0.5383
  419MOL0     C56474   3.006   4.107   3.191  0.1992 -0.5984  0.5989
  419MOL0    Cl56475   2.862   4.110   3.076  0.5551 -0.2512  0.4854
  419MOL0     C56476   3.066   3.886   4.170  0.6013  0.1630 -0.5263
  419MOL0     C56477   3.111   3.763   4.222  0.7758 -0.2630  0.1722
  419MOL0     O56478   3.332   3.548   4.226 -0.5218 -0.5028  0.4136
  419MOL0     C56479   3.149   3.373   4.460  0.1947 -0.3794 -0.1612
  419MOL0     C56480   3.166   3.274   4.555 -0.4430  0.0034 -0.4011
  419MOL0     N56481   3.251   3.553   4.971  0.5701 -0.3103 -0.6246
  419MOL0     N56482   3.268   3.637   4.872 -0.4242  0.3568  0.3379
  419MOL0     C56483   3.649   4.537   4.050  0.7985 -0.2622  0.2134
  419MOL0     C56484   3.657   4.500   3.914 -0.9559 -0.3297 -0.1142
  419MOL0     C56485   3.626   4.229   3.551 -0.4918  0.9724 -0.6761
  419MOL0     C56486   3.511   4.159   3.506 -0.1354  0.2055 -0.4824
  419MOL0     C56487   3.503   4.110   3.374 -0.4686 -0.2263 -0.2143
  419MOL0     C56488   3.608   4.136   3.287 -0.0623  0.2012 -0.4663
  419MOL0     O56489   3.618   4.090   3.159 -0.2938  0.2065 -0.1901
  419MOL0     C56490   3.546   4.175   3.071  0.1365 -0.1571  0.1753
  419MOL0     C56491   3.483   4.090   2.968 -0.6544  0.9227 -0.2407
  419MOL0     C56492   3.371   3.985   3.019  0.6731  0.3018 -0.2707
  419MOL0     C56493   3.322   3.893   2.903 -0.1099 -0.3605  0.3592
  419MOL0     C56494   3.220   3.967   2.826  0.7193 -0.8062  0.2012
  419MOL0     C56495   3.124   4.022   2.766 -0.6422  0.8234 -0.5442
  419MOL0     C56496   3.724   4.201   3.332  0.1468 -0.1647  0.0473
  419MOL0     C56497   3.730   4.249   3.466  0.5456  0.1228  0.3187
  419MOL0     H56498   3.787   4.191   3.942 -0.8841 -0.0676 -2.2856
  419MOL0     H56499   3.776   4.255   4.177  1.6312 -0.1929 -0.5213
  419MOL0     H56500   3.785   4.347   4.364 -0.4927 -2.0104  0.1711
  419MOL0     H56501   3.677   4.442   4.479 -1.5232 -0.3482  0.2745
  419MOL0     H56502   3.492   4.340   4.428 -0.2977 -1.8626  1.4586
  419MOL0     H56503   3.541   4.265   4.279  2.2279  3.4753 -0.7933
  419MOL0     H56504   3.701   4.119   4.404  3.6751  1.5167  3.0720
  419MOL0     H56505   3.656   4.191   4.553 -0.8967 -0.1646 -0.1829
  419MOL0     H56506   3.402   4.118   4.488 -0.6283 -0.3195  0.1129
  419MOL0     H56507   3.460   4.044   4.349  0.2562 -0.2757  0.1344
  419MOL0     H56508   3.621   3.899   4.481  1.6260 -1.1040  4.0086
  419MOL0     H56509   3.542   3.962   4.617  1.4680  2.7662 -0.9163
  419MOL0     H56510   3.317   3.859   4.542 -0.4308 -1.8648  1.8803
  419MOL0     H56511   3.421   3.760   4.430 -0.8126  2.5799 -1.8018
  419MOL0     H56512   3.550   3.693   4.649  1.0266  3.9723  4.8246
  419MOL0     H56513   3.453   3.778   4.746  2.2468 -0.6044  0.3159
  419MOL0     H56514   3.396   3.522   4.600 -1.2592 -0.5221  1.1852
  419MOL0     H56515   3.253   3.624   4.590 -0.0066 -1.3476 -0.0987
  419MOL0     H56516   3.419   3.362   4.770 -2.1960 -2.6436  2.9191
  419MOL0     H56517   3.421   3.292   5.068 -0.4227  3.3417  2.4344
  419MOL0     H56518   3.249   3.311   5.098 -0.1837  2.0771 -1.9855
  419MOL0     H56519   3.308   3.074   5.003  2.9023 -1.2309 -2.0435
  419MOL0     H56520   3.391   3.151   4.869 -1.0935  0.3686 -2.1418
  419MOL0     H56521   3.154   3.257   4.826  1.3540  0.6862 -0.1912
  419MOL0     H56522   3.109   3.123   4.941  0.8246  0.0222  0.9924
  419MOL0     H56523   3.081   3.054   4.695 -0.8834  1.1744  1.6601
  419MOL0     H56524   3.203   2.957   4.789  1.8176 -1.4120 -4.2460
  419MOL0     H56525   3.470   3.155   4.486  1.0572  0.3069 -0.9215
  419MOL0     H56526   3.542   3.440   4.325  2.0524 -0.2673 -2.0125
  419MOL0     H56527   3.574   3.268   4.334 -0.5115 -0.5921  2.0688
  419MOL0     H56528   3.495   3.327   4.194 -2.6229 -0.7415  0.6431
  419MOL0     H56529   2.922   3.542   4.064  0.1978  0.4844  0.9103
  419MOL0     H56530   2.804   3.763   3.997  0.4001  1.5813 -0.8852
  419MOL0     H56531   2.701   3.943   4.005 -2.1888  1.6755 -2.0753
  419MOL0     H56532   2.738   4.118   4.004  0.4386  0.3195 -0.2995
  419MOL0     H56533   2.848   3.934   3.792 -3.6553 -1.9361  1.2054
  419MOL0     H56534   2.717   4.032   3.767  1.9141  0.2410 -0.3888
  419MOL0     H56535   2.982   4.159   3.834 -0.4186 -0.6347 -0.7453
  419MOL0     H56536   2.826   4.246   3.820  0.6015  1.0900 -0.5303
  419MOL0     H56537   2.807   4.151   3.591 -0.3333  2.3949  0.5519
  419MOL0     H56538   2.934   4.269   3.604 -0.6257 -0.6661 -2.7285
  419MOL0     H56539   2.974   3.970   3.590  0.1053  0.2958  1.4635
  419MOL0     H56540   3.102   4.063   3.652  1.0846  2.9553 -0.3267
  419MOL0     H56541   3.124   4.183   3.445  0.6093  0.3652  1.5030
  419MOL0     H56542   3.134   4.005   3.418 -2.5884 -1.1434 -2.5452
  419MOL0     H56543   2.912   4.200   3.361  0.6763  0.3126  2.8448
  419MOL0     H56544   2.885   4.022   3.338  1.2255 -0.6667 -0.3962
  419MOL0     H56545   3.071   4.027   3.156  0.9136  0.7339 -1.2631
  419MOL0     H56546   3.068   4.197   3.186  1.5418 -1.5687 -1.9668
  419MOL0     H56547   3.108   3.985   4.185  0.2846 -0.1273  2.9826
  419MOL0     H56548   3.198   3.779   4.285  1.5527  0.7685 -1.1046
  419MOL0     H56549   3.055   3.426   4.471  2.8098  4.2030  4.3748
  419MOL0     H56550   3.076   3.278   4.616 -0.7486 -1.3740 -0.7408
  419MOL0     H56551   3.605   4.631   4.081 -0.3967 -0.9552  0.6673
  419MOL0     H56552   3.621   4.571   3.840 -2.0778 -2.5438 -1.8012
  419MOL0     H56553   3.426   4.139   3.570 -0.9493  0.9017 -1.3162
  419MOL0     H56554   3.412   4.060   3.344 -1.5768  1.5089  0.0983
  419MOL0     H56555   3.474   4.235   3.128  0.1818 -0.5486  0.6378
  419MOL0     H56556   3.620   4.242   3.025 -1.1143  0.2117 -1.4431
  419MOL0     H56557   3.567   4.026   2.940 -1.0054 -0.8319  2.3531
  419MOL0     H56558   3.432   4.147   2.890  0.1762  2.3186  0.2134
  419MOL0     H56559   3.289   4.037   3.069  0.3277 -1.3076  0.9095
  419MOL0     H56560   3.422   3.921   3.091  2.3839  0.0383 -1.6396
  419MOL0     H56561   3.285   3.801   2.948 -0.3249 -0.8259 -0.7159
  419MOL0     H56562   3.409   3.866   2.843 -0.3647  0.7108 -0.5181
  419MOL0     H56563   3.037   4.069   2.725 -1.9213 -0.2474  0.8548
  419MOL0     H56564   3.812   4.216   3.269  0.1728 -1.4237 -0.2413
  419MOL0     H56565   3.819   4.304   3.495 -0.8598  3.4081 -1.0232
  420MOL0     O56566   9.355   9.429   4.604 -0.1154 -0.6963 -0.5118
  420MOL0     C56567   9.468   9.409   4.565 -0.0372 -0.3953  0.7602
  420MOL0     O56568   9.570   9.367   4.647 -0.2200  0.2116 -0.0314
  420MOL0     C56569   9.580   9.382   4.788  0.0948  0.1680 -0.8795
  420MOL0     C56570   9.477   9.436   4.871  0.2763 -0.1551 -0.1847
  420MOL0     C56571   9.494   9.441   5.007  0.3580  0.2817  0.8632
  420MOL0     C56572   9.604   9.389   5.066 -0.5069  1.0414 -0.1521
  420MOL0     O56573   9.604   9.415   5.206 -0.5672  0.8753  0.2673
  420MOL0     C56574   9.726   9.403   5.285 -0.7213  0.3220  0.2547
  420MOL0     C56575   9.718   9.284   5.384 -0.5080  0.4060 -0.0098
  420MOL0     C56576   9.833   9.292   5.495  0.2224 -0.2105 -0.1927
  420MOL0     C56577   9.799   9.378   5.625 -0.0108  0.0749 -0.1930
  420MOL0     C56578   9.715   9.303   5.729  0.2770  0.3250  0.2936
  420MOL0     C56579   9.746   9.333   5.877 -0.0163  0.0115 -0.0824
  420MOL0     C56580   9.679   9.238   5.976  0.6143  0.2060  0.1815
  420MOL0     C56581   9.678   9.287   6.121  0.1726 -0.1300  0.1520
  420MOL0     N56582   9.580   9.391   6.157  0.4297 -0.0550 -0.0457
  420MOL0     C56583   9.600   9.523   6.185  0.2035 -0.0167  1.3190
  420MOL0     C56584   9.479   9.570   6.220  0.0599 -0.4187  0.0994
  420MOL0     C56585   9.446   9.706   6.260  0.9124  0.3386  0.1967
  420MOL0     C56586   9.464   9.811   6.149 -0.4864 -1.1193  0.9217
  420MOL0     C56587   9.392   9.942   6.191 -0.5194  0.2402  0.2445
  420MOL0     C56588   9.419  10.059   6.100  0.0040  0.6040  1.0828
  420MOL0     O56589   9.549  10.105   6.144 -0.1326  0.4635  0.3255
  420MOL0     C56590   9.630  10.163   6.048  1.2037  0.7246 -0.0648
  420MOL0     C56591   9.580  10.236   5.934  0.1675  0.6088  0.0006
  420MOL0     C56592   9.662  10.286   5.832 -0.0078 -0.5546 -0.1573
  420MOL0     C56593   9.576  10.332   5.712 -0.8586  0.1047  0.1778
  420MOL0     C56594   9.800  10.279   5.857 -0.4027  0.5075 -0.0133
  420MOL0     C56595   9.890  10.328   5.751 -1.1268  0.0382  0.0916
  420MOL0     O56596  10.009  10.265   5.758  0.2229 -0.4746 -0.7255
  420MOL0     C56597  10.111  10.279   5.664 -0.6994  0.8777  0.2401
  420MOL0     C56598  10.235  10.293   5.722  0.4773  0.3675 -0.6472
  420MOL0     C56599  10.356  10.286   5.649  0.0058 -0.4427 -0.0836
  420MOL0     C56600  10.352  10.278   5.506 -0.7562  0.3118 -0.6394
  420MOL0     O56601  10.474  10.265   5.432  0.3759  0.3049 -0.8437
  420MOL0     C56602  10.533  10.137   5.434 -0.0066 -0.3566  0.9583
  420MOL0     C56603  10.686  10.174   5.431 -0.5614  1.0317  0.4650
  420MOL0     C56604  10.769  10.051   5.451 -0.4137  0.2186  0.1427
  420MOL0     C56605  10.910  10.076   5.402  0.9051  0.4104  0.7263
  420MOL0     C56606  10.978   9.934   5.398 -0.0348  0.3272  0.2660
  420MOL0     C56607  11.121   9.950   5.360 -0.5478  0.3812 -0.1812
  420MOL0     C56608  11.181   9.830   5.280  1.3119  0.4477 -0.5051
  420MOL0     C56609  11.335   9.814   5.277  1.0339 -0.1676  0.5383
  420MOL0    Cl56610  11.400   9.756   5.422 -0.7006 -0.3758 -0.4326
  420MOL0     C56611  10.222  10.254   5.449  0.0497  0.4338  0.0106
  420MOL0     C56612  10.103  10.259   5.527 -0.6438  0.2622 -0.0273
  420MOL0     O56613   9.857  10.414   5.669 -0.5327 -0.0835  0.7753
  420MOL0     C56614   9.848  10.227   5.980 -0.3515 -0.4458  0.7841
  420MOL0     C56615   9.766  10.170   6.071 -0.0223  0.1928  0.0034
  420MOL0     N56616   9.388   9.468   6.203 -1.1451 -0.2299 -0.4369
  420MOL0     N56617   9.448   9.361   6.170 -0.5027 -0.8508 -0.2302
  420MOL0     C56618   9.715   9.333   4.997 -0.4273  0.5174  0.5295
  420MOL0     C56619   9.700   9.338   4.851  0.3398  0.2706 -0.4479
  420MOL0     C56620   9.479   9.391   4.427  0.1681 -0.1993  1.3464
  420MOL0     C56621   9.596   9.331   4.377  1.0323  1.0361  0.3044
  420MOL0     C56622   9.620   9.331   4.234  0.4827 -0.4706  0.3468
  420MOL0     C56623   9.529   9.393   4.145  0.6391  0.3340  0.2536
  420MOL0     O56624   9.556   9.422   4.013 -0.1982 -0.1261  0.3424
  420MOL0     C56625   9.599   9.315   3.928 -0.0783 -0.2876  0.7889
  420MOL0     C56626   9.583   9.356   3.780 -0.1922  0.2103  0.1562
  420MOL0     C56627   9.434   9.373   3.736 -0.1479 -0.4703  0.4279
  420MOL0     C56628   9.415   9.431   3.595  0.4194  0.5969  0.5295
  420MOL0     C56629   9.491   9.341   3.501 -0.2665  0.4006  1.4913
  420MOL0     C56630   9.556   9.273   3.420  0.4795 -0.0670  0.2511
  420MOL0     C56631   9.410   9.448   4.198  0.6378  0.5575  1.3096
  420MOL0     C56632   9.386   9.452   4.333 -0.2402  0.0501  0.1856
  420MOL0     H56633   9.389   9.484   4.830 -0.1545 -0.3002  0.5593
  420MOL0     H56634   9.408   9.477   5.062 -0.1228 -1.8161  1.5695
  420MOL0     H56635   9.814   9.398   5.219 -1.0485 -0.9812 -0.1132
  420MOL0     H56636   9.728   9.492   5.348 -1.8109  0.9231 -0.5310
  420MOL0     H56637   9.622   9.283   5.436 -1.6123 -0.9308 -1.9295
  420MOL0     H56638   9.722   9.189   5.328  1.5443  1.0544 -1.0625
  420MOL0     H56639   9.871   9.191   5.515  2.0521  0.0533 -2.0134
  420MOL0     H56640   9.915   9.336   5.438  1.4586  0.3889  1.9326
  420MOL0     H56641   9.895   9.389   5.676 -0.1039 -2.5969  0.6934
  420MOL0     H56642   9.755   9.472   5.592  0.5357 -0.5221 -2.9146
  420MOL0     H56643   9.612   9.336   5.708  1.1854  3.1645 -0.2093
  420MOL0     H56644   9.712   9.196   5.710  3.6739  0.4196 -1.5768
  420MOL0     H56645   9.853   9.325   5.898 -0.0503  0.9071  0.5243
  420MOL0     H56646   9.718   9.438   5.888  1.2799  0.8229 -3.4958
  420MOL0     H56647   9.575   9.223   5.945  1.2173 -0.1845 -1.8329
  420MOL0     H56648   9.734   9.145   5.960  0.2849 -0.1115  0.8819
  420MOL0     H56649   9.775   9.319   6.161 -0.3066 -0.7345  1.8851
  420MOL0     H56650   9.640   9.202   6.179 -1.8480  1.0452  0.6294
  420MOL0     H56651   9.696   9.573   6.187  0.7008 -0.7064 -1.2318
  420MOL0     H56652   9.342   9.696   6.293  0.5745  1.3389 -0.4960
  420MOL0     H56653   9.492   9.730   6.356 -2.7227  0.4852  2.0778
  420MOL0     H56654   9.402   9.777   6.065 -1.1216 -2.3192  1.8428
  420MOL0     H56655   9.566   9.839   6.122 -1.0170  2.9110  2.3905
  420MOL0     H56656   9.428   9.955   6.294  4.2705 -2.2217 -0.8006
  420MOL0     H56657   9.283   9.931   6.191 -1.0250  3.9832  0.3740
  420MOL0     H56658   9.353  10.146   6.113  0.4687  1.2641 -0.6808
  420MOL0     H56659   9.414  10.029   5.995  2.3024 -2.5139  1.7407
  420MOL0     H56660   9.473  10.253   5.926  0.1875  1.4106  1.0663
  420MOL0     H56661   9.513  10.248   5.682 -1.8597 -0.4046  3.3318
  420MOL0     H56662   9.499  10.407   5.727 -1.0509  0.3564 -1.8174
  420MOL0     H56663   9.633  10.378   5.631 -0.1320 -1.3759 -0.1970
  420MOL0     H56664  10.254  10.308   5.827 -0.4506  1.0656 -0.5594
  420MOL0     H56665  10.453  10.298   5.695  0.1452  1.8903 -0.8521
  420MOL0     H56666  10.498  10.082   5.522 -1.4079  2.4682  2.2870
  420MOL0     H56667  10.502  10.091   5.339  0.0831  2.4400 -0.5249
  420MOL0     H56668  10.705  10.217   5.332 -0.3388 -1.4732 -0.6594
  420MOL0     H56669  10.686  10.247   5.513 -2.7791  1.5265  0.0913
  420MOL0     H56670  10.721   9.972   5.393  0.6733  2.1014 -3.6445
  420MOL0     H56671  10.768  10.025   5.558 -1.6177 -1.5772 -0.2568
  420MOL0     H56672  10.913  10.114   5.300  1.7347  2.7816  1.5728
  420MOL0     H56673  10.965  10.141   5.471  2.2514  1.6862 -1.4409
  420MOL0     H56674  10.933   9.882   5.313  0.2365 -0.3814  0.5443
  420MOL0     H56675  10.974   9.870   5.487  4.1784 -2.6040 -1.3417
  420MOL0     H56676  11.116  10.043   5.302  2.1220 -0.5366 -2.0952
  420MOL0     H56677  11.188   9.960   5.445 -1.9547  1.0534  0.9000
  420MOL0     H56678  11.155   9.831   5.174  3.6768 -0.8212 -1.1508
  420MOL0     H56679  11.134   9.745   5.331 -1.5697  2.5133  0.6208
  420MOL0     H56680  11.381   9.911   5.257 -0.8292  0.9718  1.4698
  420MOL0     H56681  11.349   9.738   5.200 -0.0313 -0.0606  0.2180
  420MOL0     H56682  10.216  10.237   5.342  0.7551 -4.0314  0.5051
  420MOL0     H56683  10.017  10.214   5.478  0.6681 -2.2141 -0.2133
  420MOL0     H56684   9.955  10.224   6.002 -0.1508 -0.3306 -0.1460
  420MOL0     H56685   9.802  10.126   6.163 -3.5178  0.6597  1.7805
  420MOL0     H56686   9.801   9.281   5.038 -2.4177 -2.4600  1.3656
  420MOL0     H56687   9.766   9.290   4.780 -0.4083  0.2089 -1.1057
  420MOL0     H56688   9.675   9.275   4.427 -0.5992 -0.8967  0.8274
  420MOL0     H56689   9.709   9.278   4.200  2.1650  2.3363  0.0707
  420MOL0     H56690   9.701   9.279   3.943 -0.7773 -2.5061  0.5552
  420MOL0     H56691   9.542   9.222   3.939  1.7270 -1.6763 -0.9382
  420MOL0     H56692   9.621   9.275   3.717 -2.9097 -2.6138  1.8595
  420MOL0     H56693   9.641   9.448   3.767 -1.2101  1.0618  1.3625
  420MOL0     H56694   9.391   9.438   3.812  1.7505  1.0239  0.2953
  420MOL0     H56695   9.389   9.274   3.729 -1.8372  0.3655 -1.7815
  420MOL0     H56696   9.454   9.533   3.593  0.9724  0.3831 -0.7761
  420MOL0     H56697   9.311   9.425   3.564  0.0553 -2.2547  1.9536
  420MOL0     H56698   9.615   9.239   3.338  1.1232 -1.6145  1.3266
  420MOL0     H56699   9.350   9.504   4.127  0.9700  1.1102  1.4601
  420MOL0     H56700   9.306   9.510   4.378  0.2173 -0.3291  1.5360
  421MOL0     O56701   0.199   6.906   5.276  0.3722  1.2836  0.2203
  421MOL0     C56702   0.128   6.812   5.317 -0.5834 -1.7159  0.3616
  421MOL0     O56703   0.160   6.685   5.336 -0.6019  0.0129 -0.0794
  421MOL0     C56704   0.295   6.638   5.335  0.1728  0.6216  0.3875
  421MOL0     C56705   0.352   6.610   5.462  0.0834 -0.3156  0.8595
  421MOL0     C56706   0.486   6.574   5.474 -0.1104  0.1874 -0.4868
  421MOL0     C56707   0.569   6.568   5.357 -0.1838 -0.4080 -0.0404
  421MOL0     O56708   0.700   6.530   5.366  0.8353  0.0906  0.0813
  421MOL0     C56709   0.751   6.464   5.492  0.0501  0.6139  0.3551
  421MOL0     C56710   0.882   6.407   5.440 -0.4385 -0.1913 -0.0026
  421MOL0     C56711   0.976   6.359   5.547 -0.0943 -0.0353 -0.4199
  421MOL0     C56712   1.080   6.451   5.606 -0.0490  0.2979  0.1958
  421MOL0     C56713   1.178   6.371   5.686 -0.3246  0.3769  0.3525
  421MOL0     C56714   1.248   6.446   5.789 -0.4239 -0.7377 -0.3316
  421MOL0     C56715   1.389   6.499   5.751 -0.0951 -0.6371  0.1255
  421MOL0     C56716   1.435   6.619   5.843  0.6961  0.3865 -0.4775
  421MOL0     N56717   1.567   6.671   5.813 -0.3478 -0.5168  0.8410
  421MOL0     C56718   1.612   6.789   5.747 -0.1167 -0.1736  0.4212
  421MOL0     C56719   1.746   6.785   5.754  0.6017  0.8364  0.0854
  421MOL0     C56720   1.838   6.896   5.694  0.2893 -0.1723  0.0326
  421MOL0     C56721   1.982   6.888   5.706 -0.9772 -0.0036  0.3471
  421MOL0     C56722   2.050   6.991   5.801  0.8053 -0.3503 -0.2479
  421MOL0     C56723   2.027   6.972   5.952  0.9709 -0.3066  0.2852
  421MOL0     O56724   2.141   6.902   6.010  0.6154 -0.0006 -0.2531
  421MOL0     C56725   2.221   6.980   6.084  0.6631  0.0690 -0.2939
  421MOL0     C56726   2.188   7.060   6.190  0.7364  0.6757 -0.0435
  421MOL0     C56727   2.273   7.129   6.278  0.3973  0.1574 -0.3634
  421MOL0     C56728   2.207   7.220   6.378 -0.2603 -0.2790 -0.0673
  421MOL0     C56729   2.413   7.120   6.246  0.3061  1.2799 -0.5154
  421MOL0     C56730   2.519   7.193   6.322  0.3564 -0.0910 -0.7618
  421MOL0     O56731   2.493   7.321   6.363 -0.1684  0.6232  0.2960
  421MOL0     C56732   2.580   7.379   6.449  0.2578  0.7720 -0.6364
  421MOL0     C56733   2.537   7.422   6.579  0.4191 -0.8020  0.6663
  421MOL0     C56734   2.625   7.488   6.655 -0.9491 -1.1095  1.5331
  421MOL0     C56735   2.758   7.511   6.614  0.0635 -0.7117  0.8913
  421MOL0     O56736   2.848   7.562   6.704 -0.2060  0.4072 -0.2093
  421MOL0     C56737   2.944   7.663   6.655  0.5377  0.8132  0.2111
  421MOL0     C56738   3.024   7.687   6.780  0.4506  0.4456  0.0924
  421MOL0     C56739   2.966   7.754   6.898  0.4938 -0.2059  0.4830
  421MOL0     C56740   3.067   7.788   7.011  0.4110  0.9597  0.7568
  421MOL0     C56741   3.011   7.836   7.132 -1.1774 -0.1473  0.0861
  421MOL0     C56742   2.974   7.709   7.212 -0.3660  0.4830  0.8598
  421MOL0     C56743   2.906   7.765   7.336 -0.7731 -0.6628  0.2547
  421MOL0     C56744   2.858   7.651   7.432 -0.3529 -0.3575 -0.3130
  421MOL0    Cl56745   2.705   7.567   7.392  0.2425 -0.2548  0.0664
  421MOL0     C56746   2.793   7.483   6.490  0.4021  0.6228 -0.4405
  421MOL0     C56747   2.706   7.412   6.405  0.2665 -0.2472  0.5130
  421MOL0     O56748   2.625   7.145   6.335 -0.8095  0.7197  0.7425
  421MOL0     C56749   2.450   7.033   6.137 -0.5935  0.0635  0.1959
  421MOL0     C56750   2.356   6.976   6.058  0.6231 -0.0114  0.0183
  421MOL0     N56751   1.788   6.662   5.808 -0.2212 -0.3903 -0.4150
  421MOL0     N56752   1.681   6.598   5.843 -0.1156 -0.3501  0.2137
  421MOL0     C56753   0.509   6.601   5.236 -0.5537 -0.2595  0.1234
  421MOL0     C56754   0.371   6.635   5.222 -0.1411  0.3871  0.0316
  421MOL0     C56755  -0.014   6.860   5.328  0.6153 -0.4217  0.3732
  421MOL0     C56756  -0.122   6.768   5.333 -0.6731  0.4725  0.5518
  421MOL0     C56757  -0.259   6.807   5.315 -0.5158  0.9954  0.3182
  421MOL0     C56758  -0.285   6.936   5.296  0.0209  0.1445  0.0829
  421MOL0     O56759  -0.418   6.968   5.281 -0.1743 -0.5096  0.4814
  421MOL0     C56760  -0.436   7.050   5.158  0.3709 -0.4059  0.7877
  421MOL0     C56761  -0.579   7.056   5.127 -0.2867  0.3410  0.5091
  421MOL0     C56762  -0.632   7.174   5.039 -0.5695 -0.4528 -0.0561
  421MOL0     C56763  -0.769   7.158   4.969 -0.5329 -0.0958 -0.1635
  421MOL0     C56764  -0.872   7.158   5.076 -0.3285 -0.4701  0.0031
  421MOL0     C56765  -0.954   7.159   5.171  0.7387  0.1550  0.1158
  421MOL0     C56766  -0.189   7.039   5.307  0.7605  0.4923  0.6673
  421MOL0     C56767  -0.056   6.999   5.319 -0.2442  0.0452 -1.0608
  421MOL0     H56768   0.289   6.625   5.549  1.4236  2.0946  1.5174
  421MOL0     H56769   0.530   6.565   5.573 -1.4185 -1.0076  0.0261
  421MOL0     H56770   0.764   6.536   5.573 -0.8089  0.6511  0.4763
  421MOL0     H56771   0.692   6.381   5.531  0.3499 -0.8074 -2.0243
  421MOL0     H56772   0.866   6.317   5.379  0.5737 -1.6564  1.7847
  421MOL0     H56773   0.939   6.479   5.381 -2.3767  0.3781 -1.2719
  421MOL0     H56774   0.916   6.316   5.628  2.0629  0.1772  1.4026
  421MOL0     H56775   1.035   6.278   5.504 -1.7471 -0.7869 -1.3223
  421MOL0     H56776   1.137   6.512   5.536 -0.9675 -0.1005 -0.9232
  421MOL0     H56777   1.014   6.511   5.669  1.1489  1.8845 -0.0158
  421MOL0     H56778   1.121   6.289   5.731 -0.2752  1.1073  1.8047
  421MOL0     H56779   1.247   6.313   5.624 -1.9746 -0.5046 -0.7161
  421MOL0     H56780   1.183   6.526   5.828  1.0797  0.5429 -0.3513
  421MOL0     H56781   1.262   6.376   5.871  1.7517 -4.1718 -3.3422
  421MOL0     H56782   1.466   6.421   5.758 -0.6690 -1.0670  2.9242
  421MOL0     H56783   1.385   6.524   5.645 -0.1815 -2.1827 -0.2696
  421MOL0     H56784   1.428   6.588   5.948  0.3024 -0.0033 -0.6166
  421MOL0     H56785   1.355   6.694   5.846  0.1329 -0.1949  2.5183
  421MOL0     H56786   1.546   6.859   5.698 -0.4454  0.0438  1.1683
  421MOL0     H56787   1.815   6.909   5.587 -1.2549  0.7521  0.4400
  421MOL0     H56788   1.808   6.990   5.741  3.2859  1.7965 -1.6593
  421MOL0     H56789   2.028   6.882   5.608 -0.1636  0.3190  0.7033
  421MOL0     H56790   2.004   6.790   5.750 -2.1570 -0.4131  0.0748
  421MOL0     H56791   2.009   7.090   5.779 -1.0517 -1.3066 -1.3495
  421MOL0     H56792   2.154   6.992   5.767  0.1552  1.5917 -2.4177
  421MOL0     H56793   1.943   6.903   5.968  0.2295 -0.1789 -2.5175
  421MOL0     H56794   1.998   7.063   6.004  3.0551 -1.0264  2.9301
  421MOL0     H56795   2.081   7.073   6.208  0.7799  1.0974 -0.0653
  421MOL0     H56796   2.236   7.323   6.354  1.6810 -0.3412  1.6733
  421MOL0     H56797   2.099   7.208   6.375 -0.0210 -2.8466 -1.5066
  421MOL0     H56798   2.232   7.187   6.479  0.2769 -0.9569 -0.4113
  421MOL0     H56799   2.432   7.409   6.602 -0.7780  3.8696 -0.9536
  421MOL0     H56800   2.585   7.515   6.753  0.2432 -2.3940  2.4121
  421MOL0     H56801   3.009   7.620   6.578 -1.0702 -2.9055  0.7045
  421MOL0     H56802   2.896   7.755   6.622  0.3924  0.6467 -0.0473
  421MOL0     H56803   3.053   7.586   6.811  0.0382 -0.2740 -1.7362
  421MOL0     H56804   3.116   7.736   6.746  1.0156 -0.4391  0.3100
  421MOL0     H56805   2.887   7.687   6.934 -1.0046  1.4923  0.4826
  421MOL0     H56806   2.918   7.849   6.874  0.3698 -0.5132 -0.5416
  421MOL0     H56807   3.129   7.701   7.036  0.3730  1.4418  2.6240
  421MOL0     H56808   3.120   7.864   6.952 -0.4528 -1.9416 -4.3792
  421MOL0     H56809   2.925   7.900   7.112 -0.4774  0.7583 -0.1313
  421MOL0     H56810   3.097   7.894   7.168 -0.6591  1.7343 -3.6012
  421MOL0     H56811   2.907   7.645   7.153 -1.6908  2.4726  0.1060
  421MOL0     H56812   3.065   7.650   7.226  0.3939  0.6464 -2.4778
  421MOL0     H56813   2.820   7.830   7.320 -2.5179 -3.0407 -0.5061
  421MOL0     H56814   2.984   7.822   7.388  0.2842  1.3284 -3.1544
  421MOL0     H56815   2.843   7.702   7.528  2.7682 -0.2593  0.2334
  421MOL0     H56816   2.944   7.584   7.441 -0.7932 -0.7502  1.3217
  421MOL0     H56817   2.894   7.492   6.451 -0.3641 -0.1215 -2.8278
  421MOL0     H56818   2.735   7.381   6.305  0.1287 -4.8368  1.7006
  421MOL0     H56819   2.556   7.023   6.114 -0.2822  0.4573  1.3837
  421MOL0     H56820   2.394   6.925   5.970 -2.3254 -0.8120 -0.8821
  421MOL0     H56821   0.579   6.589   5.153  0.8141  0.5821  1.1143
  421MOL0     H56822   0.316   6.645   5.129 -0.1557 -3.0046 -0.4399
  421MOL0     H56823  -0.091   6.664   5.338  0.3747  0.7679  0.3488
  421MOL0     H56824  -0.331   6.725   5.318  0.3067  0.0800 -2.1457
  421MOL0     H56825  -0.415   7.157   5.170 -0.2887  0.3735 -3.4565
  421MOL0     H56826  -0.371   7.010   5.080  0.3304 -0.7237  0.9147
  421MOL0     H56827  -0.623   7.068   5.227  1.4383  2.9028  1.0668
  421MOL0     H56828  -0.609   6.966   5.071 -1.3404  0.0885  1.4484
  421MOL0     H56829  -0.557   7.197   4.963  0.4847 -0.1844  1.0347
  421MOL0     H56830  -0.642   7.263   5.101 -0.6378  0.1612 -0.9349
  421MOL0     H56831  -0.790   7.060   4.924 -0.2170  0.4166 -1.4672
  421MOL0     H56832  -0.774   7.237   4.894  0.6340 -1.0784 -1.2987
  421MOL0     H56833  -1.028   7.167   5.249 -0.0619  0.2238 -0.6297
  421MOL0     H56834  -0.203   7.146   5.290 -0.3042 -0.0327 -2.3615
  421MOL0     H56835   0.020   7.076   5.317  0.2276 -0.4006 -3.2512
  422MOL0     O56836   8.750   1.172   4.393  0.5381  0.4846 -0.7489
  422MOL0     C56837   8.712   1.287   4.380 -0.9404  0.3441 -0.0856
  422MOL0     O56838   8.594   1.326   4.315  0.3559 -0.1705 -0.1001
  422MOL0     C56839   8.531   1.225   4.240  0.8060  0.8282 -0.5780
  422MOL0     C56840   8.568   1.191   4.116  0.5273  0.4034 -0.2320
  422MOL0     C56841   8.493   1.100   4.038  0.1146 -1.2985 -0.2078
  422MOL0     C56842   8.379   1.042   4.098 -1.0839 -0.7697  0.2727
  422MOL0     O56843   8.319   0.954   4.010 -0.3928  0.3542 -0.9437
  422MOL0     C56844   8.195   0.897   4.044  0.6441  0.8512  0.9244
  422MOL0     C56845   8.209   0.773   4.134  1.6890  0.4664  0.4649
  422MOL0     C56846   8.079   0.754   4.214 -0.3156  0.4672  0.6715
  422MOL0     C56847   8.116   0.648   4.321 -0.0872 -0.4884  0.0994
  422MOL0     C56848   7.988   0.602   4.395 -0.2757  0.6378 -0.7390
  422MOL0     C56849   7.916   0.726   4.460 -0.7716 -1.0393  0.3358
  422MOL0     C56850   7.812   0.690   4.567  0.3017 -0.0265 -0.5804
  422MOL0     C56851   7.716   0.805   4.586 -0.3811 -0.8146  0.5373
  422MOL0     N56852   7.610   0.790   4.683 -0.5372  0.8497 -0.4669
  422MOL0     C56853   7.644   0.750   4.818  0.6646 -1.0586 -0.9928
  422MOL0     C56854   7.543   0.807   4.886 -0.3589  0.1288  0.7592
  422MOL0     C56855   7.543   0.794   5.035 -0.1696 -0.0381  0.5656
  422MOL0     C56856   7.548   0.647   5.093  0.2034 -0.0698  0.0378
  422MOL0     C56857   7.587   0.656   5.245 -0.2021 -0.3201  0.7523
  422MOL0     C56858   7.570   0.536   5.332 -0.4716 -0.2747 -0.4152
  422MOL0     O56859   7.432   0.486   5.346 -0.1992 -0.1585  0.4483
  422MOL0     C56860   7.366   0.505   5.470 -0.1011  0.7145  0.1672
  422MOL0     C56861   7.402   0.429   5.583 -0.3911  0.1122  0.0034
  422MOL0     C56862   7.328   0.435   5.700  0.0517  0.6709 -0.6602
  422MOL0     C56863   7.371   0.345   5.807 -0.2886  0.1895 -0.7622
  422MOL0     C56864   7.231   0.538   5.708  0.6202  0.4883 -0.0110
  422MOL0     C56865   7.135   0.560   5.820 -0.2946  0.6276 -0.0754
  422MOL0     O56866   7.052   0.672   5.818 -0.0587  0.9182 -0.3702
  422MOL0     C56867   6.952   0.676   5.907  0.4998  0.2768  0.6945
  422MOL0     C56868   6.921   0.782   5.993 -0.5262 -0.3263  0.4571
  422MOL0     C56869   6.812   0.781   6.064  0.2558 -0.3100  0.1779
  422MOL0     C56870   6.710   0.691   6.055  0.8210  1.3390  0.1727
  422MOL0     O56871   6.591   0.702   6.132  0.0828  0.0631  0.2627
  422MOL0     C56872   6.499   0.599   6.135  0.6562  0.1944  0.8022
  422MOL0     C56873   6.383   0.648   6.208  0.7370 -0.3611 -0.1154
  422MOL0     C56874   6.313   0.774   6.160  0.2780  0.0637  0.2110
  422MOL0     C56875   6.186   0.809   6.236  0.5338  0.6106 -1.0638
  422MOL0     C56876   6.209   0.847   6.385  0.9051  0.8578 -0.2230
  422MOL0     C56877   6.072   0.883   6.436 -0.1779 -0.5037 -0.4835
  422MOL0     C56878   5.978   0.772   6.478 -0.1823  0.2681 -0.1971
  422MOL0     C56879   5.858   0.827   6.545  0.0384 -0.3680 -0.3010
  422MOL0    Cl56880   5.754   0.913   6.424  0.0455 -0.2322  0.2993
  422MOL0     C56881   6.735   0.586   5.974 -0.4136  0.0413 -0.1164
  422MOL0     C56882   6.860   0.579   5.892  1.1302  0.8070 -0.1937
  422MOL0     O56883   7.139   0.472   5.912  0.2193  0.7214 -0.9643
  422MOL0     C56884   7.206   0.624   5.602 -0.0486  0.5543 -0.6770
  422MOL0     C56885   7.273   0.601   5.484 -0.0669 -0.8514 -0.1545
  422MOL0     N56886   7.455   0.870   4.801  0.1036 -0.1525  1.5865
  422MOL0     N56887   7.496   0.862   4.679  0.3650 -1.5011  0.3296
  422MOL0     C56888   8.344   1.074   4.230 -0.6379  0.5572  0.4556
  422MOL0     C56889   8.420   1.164   4.295 -0.1180  0.1058 -0.6456
  422MOL0     C56890   8.793   1.391   4.453  0.5186 -0.0966 -0.8357
  422MOL0     C56891   8.735   1.506   4.507 -0.0653  0.0157  0.1330
  422MOL0     C56892   8.804   1.587   4.597  0.9263  0.3968  0.1839
  422MOL0     C56893   8.928   1.560   4.633  0.5535 -0.5566  1.1384
  422MOL0     O56894   8.999   1.661   4.699  0.3195 -0.2515 -0.3833
  422MOL0     C56895   9.126   1.630   4.757 -0.0120  0.0256 -1.0793
  422MOL0     C56896   9.179   1.744   4.839  0.3297  0.0695 -1.3739
  422MOL0     C56897   9.074   1.810   4.932 -0.0522  1.6968 -0.0755
  422MOL0     C56898   9.135   1.929   5.013 -0.7057 -0.1002  0.2266
  422MOL0     C56899   9.041   2.021   5.060 -0.6506 -0.2660  0.4608
  422MOL0     C56900   8.978   2.110   5.111  0.2641  0.2911  1.2525
  422MOL0     C56901   8.989   1.436   4.591 -0.1360  0.0601  0.0142
  422MOL0     C56902   8.919   1.350   4.503 -0.4038  0.3860 -0.1074
  422MOL0     H56903   8.645   1.247   4.065  1.0653 -0.2882 -0.2052
  422MOL0     H56904   8.522   1.092   3.934  0.4583 -1.9272 -0.0674
  422MOL0     H56905   8.130   0.963   4.102 -1.4914  1.7388 -2.1956
  422MOL0     H56906   8.143   0.864   3.954 -0.4640  3.3061  0.5773
  422MOL0     H56907   8.226   0.683   4.074 -1.1514 -0.3385  0.7188
  422MOL0     H56908   8.298   0.778   4.197  1.3442 -5.3230  2.0003
  422MOL0     H56909   8.061   0.851   4.262 -0.6429 -0.2023  1.9465
  422MOL0     H56910   7.994   0.728   4.151  1.2575 -0.4484 -1.1818
  422MOL0     H56911   8.157   0.557   4.275 -3.3520  0.1787 -4.9251
  422MOL0     H56912   8.193   0.685   4.389  0.5126 -1.2752 -0.1314
  422MOL0     H56913   7.930   0.546   4.321 -0.3986  0.9457 -0.8735
  422MOL0     H56914   8.014   0.523   4.466 -3.1351  1.8675  1.8899
  422MOL0     H56915   7.992   0.784   4.512  2.6119 -4.3922 -0.3859
  422MOL0     H56916   7.868   0.785   4.381 -0.0322  1.4602  1.6765
  422MOL0     H56917   7.744   0.605   4.557  0.2299 -0.1924  1.0679
  422MOL0     H56918   7.867   0.670   4.659 -0.6631  3.8723  1.0538
  422MOL0     H56919   7.666   0.823   4.491 -1.8265 -2.9006  0.8405
  422MOL0     H56920   7.780   0.891   4.607 -0.2505 -0.1269 -2.2790
  422MOL0     H56921   7.733   0.704   4.860 -0.8955 -0.8089  3.0434
  422MOL0     H56922   7.633   0.843   5.072 -0.0624  0.4341 -0.2888
  422MOL0     H56923   7.450   0.837   5.075 -1.0346 -1.7017  0.4210
  422MOL0     H56924   7.628   0.601   5.034  0.2172 -0.4370  0.3419
  422MOL0     H56925   7.452   0.602   5.070  1.8423 -2.9378 -1.8334
  422MOL0     H56926   7.523   0.726   5.299  0.0237  1.3198 -0.9843
  422MOL0     H56927   7.691   0.691   5.247  0.1352 -1.3138  2.0185
  422MOL0     H56928   7.612   0.553   5.432 -0.6031  0.1147 -0.4237
  422MOL0     H56929   7.636   0.460   5.288  2.1828  2.2240 -1.0208
  422MOL0     H56930   7.475   0.352   5.563 -1.1831 -0.0316 -2.7752
  422MOL0     H56931   7.319   0.248   5.810 -0.3617  0.2504  0.3045
  422MOL0     H56932   7.474   0.316   5.786  0.0731 -0.0194  1.1822
  422MOL0     H56933   7.370   0.386   5.908 -1.7893  1.4968 -1.2569
  422MOL0     H56934   6.997   0.860   5.998 -0.2505 -0.6488  1.5438
  422MOL0     H56935   6.797   0.856   6.142 -2.5206  2.4907 -2.7749
  422MOL0     H56936   6.462   0.575   6.035  0.3708  2.2787  0.3709
  422MOL0     H56937   6.536   0.513   6.191 -1.9211 -1.0836  0.7356
  422MOL0     H56938   6.307   0.569   6.215  0.4552 -0.0505  0.4955
  422MOL0     H56939   6.415   0.664   6.312  1.5141  0.7837 -0.5106
  422MOL0     H56940   6.291   0.767   6.054  0.1475  0.7703  0.1861
  422MOL0     H56941   6.387   0.855   6.171  0.9423 -0.6895  1.5236
  422MOL0     H56942   6.119   0.884   6.192 -1.9743 -1.4860 -1.0564
  422MOL0     H56943   6.124   0.719   6.238  2.1075 -0.5025  0.8404
  422MOL0     H56944   6.279   0.930   6.399 -1.9745  3.0051  3.2306
  422MOL0     H56945   6.239   0.755   6.437  0.5286 -0.8772 -2.8773
  422MOL0     H56946   6.091   0.918   6.538 -1.4400 -2.0268  0.3282
  422MOL0     H56947   6.032   0.960   6.369  3.4451  2.8151  0.8031
  422MOL0     H56948   6.018   0.692   6.541 -1.7362 -0.5822 -0.2437
  422MOL0     H56949   5.938   0.719   6.391 -2.7147 -2.6467  2.5148
  422MOL0     H56950   5.881   0.886   6.634  1.2450  0.7649 -1.3036
  422MOL0     H56951   5.795   0.744   6.577 -4.4196  3.0206  0.6021
  422MOL0     H56952   6.664   0.507   5.952  2.3896 -3.2166  1.4845
  422MOL0     H56953   6.885   0.486   5.842  0.3099  0.2502  0.4174
  422MOL0     H56954   7.127   0.698   5.613 -0.9200 -0.2279 -1.4790
  422MOL0     H56955   7.261   0.679   5.409  2.0214  0.4020  0.7241
  422MOL0     H56956   8.267   1.026   4.289  0.7035  1.9368  3.5037
  422MOL0     H56957   8.413   1.189   4.400 -0.3350  0.7785 -0.8224
  422MOL0     H56958   8.628   1.516   4.492 -0.0333 -0.3090 -0.3589
  422MOL0     H56959   8.754   1.675   4.635  2.3338  1.8306 -1.1834
  422MOL0     H56960   9.114   1.545   4.824  1.2149  0.5741 -0.1313
  422MOL0     H56961   9.204   1.611   4.683  0.3217 -0.1261 -0.6916
  422MOL0     H56962   9.212   1.821   4.769 -1.4552  0.8337 -1.4397
  422MOL0     H56963   9.269   1.711   4.891  0.1538  0.9802 -0.4555
  422MOL0     H56964   9.046   1.733   5.004 -1.1756  0.2173 -2.0029
  422MOL0     H56965   8.993   1.847   4.868 -0.5949 -1.5336 -1.4436
  422MOL0     H56966   9.203   1.976   4.941 -0.7001 -0.7775 -0.2292
  422MOL0     H56967   9.204   1.909   5.096  3.5467  0.9442 -2.6969
  422MOL0     H56968   8.909   2.191   5.120 -2.7883 -1.5785 -2.4045
  422MOL0     H56969   9.088   1.402   4.618 -1.8544 -4.5531  1.5614
  422MOL0     H56970   8.963   1.254   4.478  0.2297  0.5099  0.5093
  423MOL0     O56971   3.628   8.093   4.148 -0.4549 -0.2961  0.1176
  423MOL0     C56972   3.618   8.119   4.031 -0.2514  0.4659  0.7783
  423MOL0     O56973   3.723   8.113   3.940 -0.0044 -0.0351  0.0514
  423MOL0     C56974   3.852   8.110   3.995  0.3960  0.1321  0.2453
  423MOL0     C56975   3.943   8.191   3.937 -1.1410 -0.1172  0.2233
  423MOL0     C56976   4.073   8.190   3.979 -0.0881 -0.5049 -0.1956
  423MOL0     C56977   4.124   8.098   4.076 -0.0659 -0.7915 -0.9307
  423MOL0     O56978   4.250   8.101   4.120 -0.0954 -0.1735  0.2742
  423MOL0     C56979   4.355   8.176   4.050 -0.3741 -0.0966 -0.2659
  423MOL0     C56980   4.491   8.151   4.114 -0.1431 -0.2672  0.0889
  423MOL0     C56981   4.492   8.201   4.261  0.3778  0.8044  0.6559
  423MOL0     C56982   4.628   8.235   4.302 -0.0378 -0.1334  0.6403
  423MOL0     C56983   4.677   8.376   4.241 -0.3741 -0.3325  0.3951
  423MOL0     C56984   4.831   8.405   4.264  0.3372 -0.2509 -0.3376
  423MOL0     C56985   4.877   8.533   4.188  1.0557  0.3654  0.5443
  423MOL0     C56986   5.034   8.526   4.165  0.5428  0.0531 -0.5539
  423MOL0     N56987   5.111   8.506   4.283  0.0464 -0.0726 -0.8225
  423MOL0     C56988   5.131   8.594   4.390 -0.4737  0.5891  0.4517
  423MOL0     C56989   5.175   8.518   4.492  0.5198 -0.6114 -0.1455
  423MOL0     C56990   5.231   8.587   4.614  1.1484  0.1959 -0.8788
  423MOL0     C56991   5.371   8.541   4.646 -0.5005  0.5715 -0.1250
  423MOL0     C56992   5.467   8.566   4.529  0.8233 -0.8242  0.2335
  423MOL0     C56993   5.618   8.542   4.547 -0.0429 -1.1712 -0.0868
  423MOL0     O56994   5.665   8.612   4.669 -0.8488 -0.0687 -0.1273
  423MOL0     C56995   5.747   8.550   4.759 -0.4927 -0.2296  0.9081
  423MOL0     C56996   5.692   8.488   4.876 -0.0210 -0.7471 -0.3725
  423MOL0     C56997   5.777   8.421   4.969 -0.3142 -0.1810  0.5776
  423MOL0     C56998   5.722   8.338   5.087  0.2481  1.1208 -0.7158
  423MOL0     C56999   5.919   8.415   4.949 -0.2804 -1.2712  0.8890
  423MOL0     C57000   6.018   8.342   5.021 -1.0372 -0.1622 -1.1529
  423MOL0     O57001   6.133   8.305   4.957  0.1069 -0.4481 -0.2536
  423MOL0     C57002   6.211   8.202   4.995 -0.1229  0.0825  0.1213
  423MOL0     C57003   6.312   8.226   5.092  0.4882 -0.0284 -0.9546
  423MOL0     C57004   6.367   8.128   5.160  0.2624  0.1161 -1.0378
  423MOL0     C57005   6.351   7.997   5.113 -0.6266  0.5830  0.0016
  423MOL0     O57006   6.420   7.902   5.182 -0.2949 -0.2937  0.1897
  423MOL0     C57007   6.375   7.761   5.168 -0.5399 -0.0528 -0.0386
  423MOL0     C57008   6.465   7.666   5.248 -0.6509  0.5910 -0.7902
  423MOL0     C57009   6.620   7.682   5.216  0.3297 -0.7175 -0.1316
  423MOL0     C57010   6.663   7.584   5.099 -0.1137  0.4905  0.2632
  423MOL0     C57011   6.798   7.616   5.051  0.1398 -0.0487  0.0430
  423MOL0     C57012   6.837   7.539   4.931  0.2411 -0.0623  0.4994
  423MOL0     C57013   6.975   7.573   4.871 -0.2601 -1.0097 -0.9425
  423MOL0     C57014   7.029   7.491   4.757 -0.4036  0.6115  0.0986
  423MOL0    Cl57015   6.934   7.503   4.600 -0.1919 -0.0068 -0.0314
  423MOL0     C57016   6.255   7.974   5.011  0.6343  0.0565 -0.0275
  423MOL0     C57017   6.178   8.072   4.956  0.3004  0.2714  0.6526
  423MOL0     O57018   6.003   8.313   5.137  0.0307 -0.4896 -0.1884
  423MOL0     C57019   5.964   8.474   4.826 -0.4568  0.2572 -0.3359
  423MOL0     C57020   5.883   8.536   4.739 -0.4744 -0.8103 -0.0596
  423MOL0     N57021   5.167   8.390   4.459 -0.2213 -0.1367 -0.1671
  423MOL0     N57022   5.147   8.381   4.326  0.5033  0.0379 -0.0973
  423MOL0     C57023   4.029   8.012   4.138 -0.2466  1.4719  0.7711
  423MOL0     C57024   3.894   8.008   4.089 -0.1558 -0.0879  0.7319
  423MOL0     C57025   3.489   8.162   3.973  0.5929 -0.0039  0.5282
  423MOL0     C57026   3.373   8.157   4.042 -0.0026  0.2544  0.3045
  423MOL0     C57027   3.257   8.200   3.977  0.6604 -0.9467  0.6291
  423MOL0     C57028   3.247   8.227   3.832 -0.4552 -0.4004  0.2761
  423MOL0     O57029   3.126   8.266   3.792 -0.4415  0.0997  1.1782
  423MOL0     C57030   3.112   8.286   3.648  0.6682  0.3144  0.2372
  423MOL0     C57031   2.968   8.255   3.598  0.0648 -0.4714 -0.1213
  423MOL0     C57032   2.860   8.298   3.701 -0.3714 -0.1948  0.7762
  423MOL0     C57033   2.733   8.354   3.627 -0.2239  0.3602 -0.1415
  423MOL0     C57034   2.645   8.412   3.737  0.4935 -0.6069  0.1321
  423MOL0     C57035   2.556   8.450   3.811 -0.0762 -0.9938 -0.1158
  423MOL0     C57036   3.369   8.233   3.765  0.3254 -0.5125  0.1728
  423MOL0     C57037   3.480   8.197   3.834  0.6882  0.1640  0.2256
  423MOL0     H57038   3.914   8.257   3.856  1.7710  0.5501 -0.4106
  423MOL0     H57039   4.136   8.263   3.930 -0.3232  0.5286  0.9813
  423MOL0     H57040   4.364   8.137   3.948  0.1610  0.8379 -0.5906
  423MOL0     H57041   4.325   8.282   4.050  2.2729  0.7454 -1.9081
  423MOL0     H57042   4.513   8.044   4.109 -1.6231 -0.7724  2.4902
  423MOL0     H57043   4.563   8.199   4.047  0.8417 -0.6530  0.8543
  423MOL0     H57044   4.429   8.291   4.265 -4.9527 -2.4069 -1.3801
  423MOL0     H57045   4.430   8.134   4.321 -1.6636  3.3798  1.6045
  423MOL0     H57046   4.638   8.234   4.411  3.3512  0.3043  0.4474
  423MOL0     H57047   4.683   8.152   4.257 -0.8976 -1.2674  1.6137
  423MOL0     H57048   4.660   8.376   4.133 -2.4980 -3.9699  0.5507
  423MOL0     H57049   4.615   8.458   4.278  1.2939  0.8863  0.5830
  423MOL0     H57050   4.847   8.426   4.370 -1.0090 -2.5281  0.3858
  423MOL0     H57051   4.884   8.312   4.246 -0.5029 -0.9221  0.5192
  423MOL0     H57052   4.837   8.517   4.088  0.5380  1.4014  0.5767
  423MOL0     H57053   4.832   8.626   4.223 -1.7096 -0.6245 -0.1225
  423MOL0     H57054   5.058   8.619   4.112  0.5706 -0.9365 -2.3672
  423MOL0     H57055   5.046   8.445   4.092 -1.2868 -1.3768  0.6627
  423MOL0     H57056   5.112   8.701   4.391 -1.8677  0.5785 -3.8675
  423MOL0     H57057   5.227   8.695   4.604 -3.3468  0.5167  1.5944
  423MOL0     H57058   5.170   8.567   4.703 -0.2713 -2.2027 -2.2581
  423MOL0     H57059   5.370   8.432   4.653  0.3001  0.6186  1.0765
  423MOL0     H57060   5.409   8.582   4.740  0.8892 -3.2501  1.1795
  423MOL0     H57061   5.453   8.671   4.501 -1.9607 -1.1018  0.3537
  423MOL0     H57062   5.438   8.517   4.436  1.2454  1.6242 -1.2917
  423MOL0     H57063   5.673   8.582   4.461  2.3040 -2.3863  0.7557
  423MOL0     H57064   5.637   8.435   4.549  1.7094 -0.9562 -1.7869
  423MOL0     H57065   5.586   8.508   4.893 -0.3320 -1.3955 -1.4498
  423MOL0     H57066   5.754   8.233   5.083  0.5313  1.2546 -2.9102
  423MOL0     H57067   5.746   8.378   5.186  2.5219 -0.9744 -0.3336
  423MOL0     H57068   5.613   8.336   5.100  0.5436 -0.1269  2.4347
  423MOL0     H57069   6.328   8.327   5.129 -0.3699  0.0207 -0.6995
  423MOL0     H57070   6.435   8.147   5.243  0.6403  0.1837 -1.3615
  423MOL0     H57071   6.271   7.757   5.201 -1.5918 -1.5013 -3.1649
  423MOL0     H57072   6.376   7.733   5.062 -0.0183  2.6687 -0.8436
  423MOL0     H57073   6.457   7.692   5.354  4.8666 -0.0276  0.0711
  423MOL0     H57074   6.432   7.565   5.224 -3.2430  1.6744 -2.1508
  423MOL0     H57075   6.684   7.657   5.302  0.6212  1.4602  0.3469
  423MOL0     H57076   6.647   7.788   5.207 -1.5138 -0.2092 -0.0949
  423MOL0     H57077   6.670   7.482   5.137  3.1847  0.2197 -0.7403
  423MOL0     H57078   6.588   7.604   5.022 -1.2528  6.1931  2.3805
  423MOL0     H57079   6.868   7.592   5.132  1.0092 -4.2690 -1.7111
  423MOL0     H57080   6.807   7.723   5.031 -2.8203  0.7653  2.2909
  423MOL0     H57081   6.852   7.434   4.955  5.0221  0.3734  0.5000
  423MOL0     H57082   6.762   7.559   4.855  1.4103  1.0570 -0.4184
  423MOL0     H57083   7.050   7.575   4.951 -0.2090  0.2418 -0.9970
  423MOL0     H57084   6.982   7.678   4.839  0.6144 -0.8380 -0.2316
  423MOL0     H57085   7.024   7.387   4.792 -1.2478  1.5932  3.1155
  423MOL0     H57086   7.126   7.530   4.724 -0.1577  1.8086  2.1077
  423MOL0     H57087   6.225   7.876   4.976 -0.3460  0.9479 -1.7739
  423MOL0     H57088   6.098   8.056   4.885 -0.1946  1.5337  0.9132
  423MOL0     H57089   6.066   8.473   4.790  0.4572 -0.5614  2.0883
  423MOL0     H57090   5.928   8.583   4.652  4.1402 -0.8378  1.9947
  423MOL0     H57091   4.062   7.942   4.215  4.1484  0.8981 -1.3167
  423MOL0     H57092   3.821   7.934   4.119  2.9977 -1.5797  6.0974
  423MOL0     H57093   3.376   8.133   4.148  0.5225 -2.3346 -0.2284
  423MOL0     H57094   3.165   8.197   4.033  0.0466 -0.0837 -0.3025
  423MOL0     H57095   3.140   8.390   3.630 -2.7094  1.4145  0.6747
  423MOL0     H57096   3.177   8.216   3.595 -0.1739 -3.6542  3.8359
  423MOL0     H57097   2.962   8.148   3.576  1.6651 -0.7640  0.7392
  423MOL0     H57098   2.964   8.310   3.503  3.8325  1.8478  0.8760
  423MOL0     H57099   2.899   8.368   3.775 -0.3291  0.4660  0.1401
  423MOL0     H57100   2.847   8.202   3.753  0.8578 -1.8082 -1.6790
  423MOL0     H57101   2.670   8.275   3.587  0.1021 -0.5063  1.0071
  423MOL0     H57102   2.756   8.438   3.560  0.6751  0.7147  0.5868
  423MOL0     H57103   2.473   8.478   3.873  1.6371  0.3680  1.6730
  423MOL0     H57104   3.383   8.262   3.661  1.2782 -0.7184  0.2372
  423MOL0     H57105   3.572   8.198   3.776 -0.3481  0.4672 -1.4891
  424MOL0     O57106  10.592   0.787   8.875  0.4000 -0.0670 -0.4844
  424MOL0     C57107  10.651   0.694   8.818  0.1122 -0.0067 -0.5053
  424MOL0     O57108  10.577   0.599   8.755  0.0321 -0.0487 -0.4506
  424MOL0     C57109  10.439   0.621   8.762  0.1939  0.7203 -0.2621
  424MOL0     C57110  10.369   0.730   8.719 -0.3429 -0.3786 -1.0536
  424MOL0     C57111  10.231   0.750   8.738 -0.2387  0.2585  0.4797
  424MOL0     C57112  10.157   0.643   8.802  0.0716 -0.1478  0.3200
  424MOL0     O57113  10.023   0.651   8.832  0.7641 -0.2713  0.6951
  424MOL0     C57114   9.933   0.684   8.728  0.2994  1.2619  0.7709
  424MOL0     C57115   9.787   0.646   8.769  0.0998 -0.3325  0.3942
  424MOL0     C57116   9.770   0.495   8.786  0.2497  0.5903  0.7157
  424MOL0     C57117   9.631   0.470   8.848  0.4202 -0.0583 -0.6579
  424MOL0     C57118   9.576   0.335   8.792  0.1131  0.4595 -0.3155
  424MOL0     C57119   9.526   0.343   8.647 -0.7384 -0.2170  0.6901
  424MOL0     C57120   9.481   0.205   8.606 -0.8149  0.5682  0.5267
  424MOL0     C57121   9.426   0.199   8.466 -0.0587 -0.4113 -0.2280
  424MOL0     N57122   9.363   0.075   8.423  0.2438  0.7944 -0.0694
  424MOL0     C57123   9.425  -0.028   8.366  0.0092  0.1552 -0.2625
  424MOL0     C57124   9.334  -0.126   8.355  1.2902 -0.3131  0.8254
  424MOL0     C57125   9.360  -0.269   8.314 -0.1798 -0.9062 -0.4352
  424MOL0     C57126   9.358  -0.296   8.161  0.7739 -0.0508 -0.5517
  424MOL0     C57127   9.212  -0.272   8.096 -0.0892 -0.0666  0.1521
  424MOL0     C57128   9.112  -0.371   8.159 -0.7353  0.2369  0.5407
  424MOL0     O57129   9.005  -0.377   8.066  0.5199  0.3161 -0.0234
  424MOL0     C57130   8.881  -0.420   8.117  0.0079  0.8770  0.1985
  424MOL0     C57131   8.869  -0.503   8.235 -1.2145  0.1167  0.3125
  424MOL0     C57132   8.745  -0.524   8.296 -0.8617  0.4576  0.1945
  424MOL0     C57133   8.743  -0.576   8.438 -0.1847  0.8840  0.6696
  424MOL0     C57134   8.629  -0.474   8.232  0.2916 -0.4574  0.0703
  424MOL0     C57135   8.493  -0.473   8.298  0.0778  0.1314  0.8739
  424MOL0     O57136   8.386  -0.462   8.211 -0.2086  0.6978 -0.1459
  424MOL0     C57137   8.258  -0.425   8.254 -1.4247 -1.2598 -0.2907
  424MOL0     C57138   8.159  -0.514   8.251 -0.5365  0.3027 -0.3614
  424MOL0     C57139   8.027  -0.474   8.273  0.4925 -0.6696 -0.4908
  424MOL0     C57140   7.998  -0.348   8.307 -0.1440  0.6423 -0.3225
  424MOL0     O57141   7.863  -0.318   8.297 -0.3138  0.0523  0.1198
  424MOL0     C57142   7.817  -0.199   8.352 -0.1303 -0.4094  1.1230
  424MOL0     C57143   7.693  -0.222   8.436  0.1874 -0.7223 -0.5972
  424MOL0     C57144   7.567  -0.288   8.378 -0.3955  0.8804  0.1483
  424MOL0     C57145   7.457  -0.296   8.491 -0.6048 -0.2563  0.8021
  424MOL0     C57146   7.340  -0.378   8.429 -0.1850  0.4689 -0.2938
  424MOL0     C57147   7.221  -0.361   8.522 -0.1413  0.1902 -0.1320
  424MOL0     C57148   7.102  -0.432   8.460 -1.1321 -0.2429 -0.9141
  424MOL0     C57149   6.974  -0.404   8.543  0.1517 -0.3479 -0.1590
  424MOL0    Cl57150   6.989  -0.458   8.709  0.4691  0.0790 -0.1348
  424MOL0     C57151   8.099  -0.256   8.330 -0.7143  0.0422 -0.3104
  424MOL0     C57152   8.235  -0.299   8.309 -0.3188 -0.1828 -0.5737
  424MOL0     O57153   8.479  -0.473   8.421 -1.3663 -0.2248  0.0494
  424MOL0     C57154   8.640  -0.408   8.102  0.9847  0.2664  0.6937
  424MOL0     C57155   8.763  -0.370   8.055 -0.3805 -0.1472  0.1212
  424MOL0     N57156   9.214  -0.080   8.411  0.8465 -0.6070  0.2443
  424MOL0     N57157   9.234   0.039   8.453  0.3973 -0.3870 -0.4273
  424MOL0     C57158  10.224   0.518   8.830  0.4013 -0.8800  0.1766
  424MOL0     C57159  10.366   0.511   8.815 -0.2877 -0.1234 -0.0435
  424MOL0     C57160  10.798   0.695   8.811  0.1388 -0.3970  0.2238
  424MOL0     C57161  10.873   0.592   8.753 -0.2436 -0.6639 -0.1590
  424MOL0     C57162  11.012   0.602   8.741 -0.0638 -0.2805 -0.1665
  424MOL0     C57163  11.077   0.711   8.797 -0.5433 -0.2154  0.7329
  424MOL0     O57164  11.211   0.724   8.768 -0.3300  0.7880 -0.0287
  424MOL0     C57165  11.290   0.831   8.820 -0.1383  0.1476  0.1668
  424MOL0     C57166  11.339   0.800   8.959 -0.0907 -0.2624 -0.8684
  424MOL0     C57167  11.419   0.672   8.952 -0.0652 -0.0408  0.0681
  424MOL0     C57168  11.452   0.604   9.094 -0.0957  0.4688  0.1753
  424MOL0     C57169  11.541   0.694   9.166  0.0600  0.5652 -0.3811
  424MOL0     C57170  11.598   0.778   9.234  0.4738 -0.2640  0.7509
  424MOL0     C57171  11.002   0.805   8.868  0.7919  0.4324  1.0956
  424MOL0     C57172  10.863   0.801   8.868  0.0388  0.1632 -0.0365
  424MOL0     H57173  10.430   0.812   8.681 -0.8311  0.7573  0.5265
  424MOL0     H57174  10.191   0.848   8.715 -0.3245 -0.0395 -0.7299
  424MOL0     H57175   9.946   0.792   8.722  2.8839  0.9166 -1.8893
  424MOL0     H57176   9.960   0.641   8.631 -0.7619 -0.5674  1.2259
  424MOL0     H57177   9.774   0.701   8.862  0.8764  0.8004 -0.1388
  424MOL0     H57178   9.713   0.690   8.701 -0.3875 -2.5903 -0.6137
  424MOL0     H57179   9.797   0.452   8.689 -1.4945  1.3540 -0.1477
  424MOL0     H57180   9.841   0.459   8.861  1.0892 -1.2108 -0.8700
  424MOL0     H57181   9.628   0.465   8.957 -0.2312  0.4520 -0.6428
  424MOL0     H57182   9.564   0.553   8.822  1.0192  0.5141 -0.3995
  424MOL0     H57183   9.643   0.251   8.811  0.7687  1.3634  1.6952
  424MOL0     H57184   9.482   0.325   8.848  1.1448 -0.6301  1.2908
  424MOL0     H57185   9.444   0.414   8.637  0.5015  1.2128  0.3365
  424MOL0     H57186   9.609   0.382   8.587 -1.0724  1.3603  1.2313
  424MOL0     H57187   9.564   0.139   8.633 -0.4966  2.1909  4.1746
  424MOL0     H57188   9.392   0.188   8.669 -0.9076  2.4759  0.9735
  424MOL0     H57189   9.516   0.201   8.404  1.3449 -2.4269  1.5914
  424MOL0     H57190   9.359   0.284   8.448  0.5245  0.0518 -0.2791
  424MOL0     H57191   9.532  -0.033   8.349  0.2111 -3.5554  1.1380
  424MOL0     H57192   9.457  -0.298   8.356  0.7531 -0.3196 -2.1051
  424MOL0     H57193   9.291  -0.338   8.364  2.2022 -2.0594  1.4942
  424MOL0     H57194   9.386  -0.400   8.146  0.4803 -0.4321  1.3940
  424MOL0     H57195   9.424  -0.223   8.113  1.3871  0.9139  1.6421
  424MOL0     H57196   9.218  -0.287   7.988  0.9008 -0.1134  0.2055
  424MOL0     H57197   9.172  -0.171   8.113  0.9938  0.7741 -1.9230
  424MOL0     H57198   9.075  -0.335   8.256 -2.0064  1.1772 -0.2604
  424MOL0     H57199   9.163  -0.467   8.171  1.0564  0.5371 -3.3758
  424MOL0     H57200   8.967  -0.540   8.263  0.2182  3.6799  0.5453
  424MOL0     H57201   8.708  -0.492   8.499 -0.6183  1.1204  0.1081
  424MOL0     H57202   8.669  -0.656   8.447  0.8176 -0.2089 -0.3711
  424MOL0     H57203   8.840  -0.610   8.474  1.1342  3.8078  0.1551
  424MOL0     H57204   8.172  -0.615   8.213  0.4420  0.1169  0.4262
  424MOL0     H57205   7.951  -0.550   8.271  0.7991 -0.9691 -0.8098
  424MOL0     H57206   7.882  -0.151   8.425 -1.6778  2.6629  0.6402
  424MOL0     H57207   7.799  -0.117   8.281  3.4805  1.6828  2.3783
  424MOL0     H57208   7.727  -0.278   8.522 -1.2590 -0.1694  0.3811
  424MOL0     H57209   7.662  -0.127   8.482 -1.9892 -1.0703 -1.2164
  424MOL0     H57210   7.589  -0.385   8.332 -1.0679  1.0993 -0.6526
  424MOL0     H57211   7.523  -0.226   8.300 -0.3367  0.2438 -0.3993
  424MOL0     H57212   7.489  -0.326   8.591 -2.3128  1.8867  2.0844
  424MOL0     H57213   7.418  -0.194   8.504 -0.8842 -0.2398 -0.1279
  424MOL0     H57214   7.366  -0.484   8.427  0.5874  0.6356 -2.6698
  424MOL0     H57215   7.317  -0.358   8.324  1.2322 -1.2795 -1.0000
  424MOL0     H57216   7.249  -0.417   8.612  0.2750 -2.2571 -1.6838
  424MOL0     H57217   7.194  -0.257   8.542  1.6189  0.3330  2.0071
  424MOL0     H57218   7.116  -0.538   8.438  0.4152  0.3070 -2.9343
  424MOL0     H57219   7.068  -0.389   8.365 -2.9436  2.6198  0.8667
  424MOL0     H57220   6.892  -0.454   8.491  0.1979 -0.0442 -0.5319
  424MOL0     H57221   6.955  -0.297   8.531  0.1848 -0.6096 -4.1497
  424MOL0     H57222   8.084  -0.149   8.346 -0.6234  0.4618 -2.5966
  424MOL0     H57223   8.316  -0.229   8.326 -1.6408  1.0148  1.1951
  424MOL0     H57224   8.548  -0.376   8.055  0.2154  1.0098  2.5917
  424MOL0     H57225   8.775  -0.288   7.985  1.7472  1.4542  2.1718
  424MOL0     H57226  10.176   0.428   8.864  0.3184 -0.7834  0.3168
  424MOL0     H57227  10.417   0.418   8.836 -1.2366 -0.3212  1.4947
  424MOL0     H57228  10.818   0.511   8.706  1.0292 -1.0878 -0.9829
  424MOL0     H57229  11.066   0.530   8.680  1.8321  0.0689  1.0010
  424MOL0     H57230  11.370   0.851   8.748 -0.2132  0.2579  0.1133
  424MOL0     H57231  11.220   0.916   8.822  0.2635  0.5243 -1.0746
  424MOL0     H57232  11.257   0.783   9.030  0.5712 -1.6493 -0.4121
  424MOL0     H57233  11.388   0.884   9.009 -2.3044 -0.0040  1.0539
  424MOL0     H57234  11.511   0.690   8.894  0.1259  0.7435  0.5938
  424MOL0     H57235  11.361   0.602   8.891  1.4155 -0.6762 -0.6637
  424MOL0     H57236  11.497   0.507   9.075 -2.8499 -1.2008  1.5234
  424MOL0     H57237  11.366   0.572   9.154 -0.5854  1.8318  0.2407
  424MOL0     H57238  11.636   0.843   9.310 -0.2829 -0.6620  1.4910
  424MOL0     H57239  11.032   0.889   8.930 -0.1865  2.2456 -0.7652
  424MOL0     H57240  10.806   0.874   8.925  2.9091  2.2311  0.4304
  425MOL0     O57241   8.373   9.725   5.343  0.3104 -0.1257 -0.8149
  425MOL0     C57242   8.332   9.785   5.243 -0.1835 -0.7596 -0.3661
  425MOL0     O57243   8.284   9.914   5.239  0.4258 -0.0861  0.3857
  425MOL0     C57244   8.246   9.985   5.352  0.7076 -0.1517 -0.3365
  425MOL0     C57245   8.192   9.923   5.467 -0.1489  0.0947 -0.3244
  425MOL0     C57246   8.136   9.993   5.576 -0.6795  0.5754 -1.0626
  425MOL0     C57247   8.141  10.133   5.576 -0.0248  0.6080 -0.1343
  425MOL0     O57248   8.085  10.192   5.679 -0.0983 -0.2136 -0.0905
  425MOL0     C57249   8.086  10.332   5.701  0.2902 -1.2041  0.2984
  425MOL0     C57250   8.217  10.393   5.749  0.1811 -0.1735  0.5812
  425MOL0     C57251   8.241  10.546   5.746  0.5422 -0.8286 -0.0775
  425MOL0     C57252   8.389  10.562   5.765  0.6294  0.4305  0.6841
  425MOL0     C57253   8.426  10.709   5.739  0.2048  0.3241 -0.9644
  425MOL0     C57254   8.368  10.799   5.856  0.4893 -0.9860  0.1150
  425MOL0     C57255   8.413  10.953   5.841  0.5173  0.3666 -0.9565
  425MOL0     C57256   8.303  11.041   5.879  0.5635  0.3886 -0.9939
  425MOL0     N57257   8.265  11.036   6.025 -0.8565 -0.2041 -0.2639
  425MOL0     C57258   8.143  10.991   6.060 -0.1622 -0.4670 -0.5470
  425MOL0     C57259   8.122  11.029   6.189 -0.3238 -0.0905  0.2110
  425MOL0     C57260   8.008  11.001   6.276  0.3369 -0.3281  0.2084
  425MOL0     C57261   7.923  11.123   6.279 -0.6107  0.2097 -0.8020
  425MOL0     C57262   7.813  11.113   6.381  1.3800  0.4257 -0.1711
  425MOL0     C57263   7.702  11.004   6.351  0.2618  1.5775  0.5099
  425MOL0     O57264   7.603  11.001   6.449  0.2000  0.4200 -0.6413
  425MOL0     C57265   7.487  10.927   6.439  0.8539  0.1863 -0.2789
  425MOL0     C57266   7.402  10.927   6.553  0.7576 -0.4502  0.7245
  425MOL0     C57267   7.273  10.865   6.560  0.2501 -0.6787 -0.3967
  425MOL0     C57268   7.211  10.880   6.693 -0.1975 -0.0267  0.9323
  425MOL0     C57269   7.242  10.777   6.454  0.9420 -0.3279 -0.0640
  425MOL0     C57270   7.115  10.691   6.451  0.1889 -0.1045  0.1883
  425MOL0     O57271   7.109  10.602   6.355  0.5254 -0.3284  0.2466
  425MOL0     C57272   7.005  10.502   6.364 -0.3147 -0.5427 -0.1026
  425MOL0     C57273   6.903  10.490   6.266 -0.3810  0.0472 -0.5816
  425MOL0     C57274   6.810  10.387   6.262  0.5086 -0.0063 -0.3582
  425MOL0     C57275   6.815  10.286   6.359  0.6325 -0.0063 -1.0539
  425MOL0     O57276   6.712  10.190   6.347 -0.6789 -0.1288  0.0955
  425MOL0     C57277   6.583  10.244   6.373 -0.2619 -0.7016 -0.0885
  425MOL0     C57278   6.508  10.160   6.469  0.2352  0.2368  0.3772
  425MOL0     C57279   6.552  10.175   6.615  0.5621 -0.1289 -0.5221
  425MOL0     C57280   6.582  10.039   6.678  0.0401  0.6101 -0.3148
  425MOL0     C57281   6.614  10.064   6.828  1.4259 -0.9283  0.1364
  425MOL0     C57282   6.609   9.933   6.912 -0.4720 -0.4966 -0.0985
  425MOL0     C57283   6.688   9.952   7.039  0.5798  0.9346 -0.3949
  425MOL0     C57284   6.651   9.839   7.139 -0.1297 -0.3977 -0.7597
  425MOL0    Cl57285   6.658   9.673   7.066 -0.0568 -0.3759  1.0357
  425MOL0     C57286   6.902  10.300   6.466  0.4439 -0.3783 -0.1173
  425MOL0     C57287   7.003  10.404   6.463  0.2662  0.9814 -0.0593
  425MOL0     O57288   7.020  10.715   6.532 -0.4076 -0.2380  0.1518
  425MOL0     C57289   7.331  10.767   6.348 -0.1763  0.5098 -0.0377
  425MOL0     C57290   7.443  10.850   6.333 -0.9418 -0.3086  0.0871
  425MOL0     N57291   8.233  11.107   6.222 -0.4297  0.4316 -0.4524
  425MOL0     N57292   8.317  11.103   6.131 -0.1203  0.1058  0.1811
  425MOL0     C57293   8.207  10.200   5.462  0.1928 -0.9037  0.2487
  425MOL0     C57294   8.249  10.131   5.350 -0.1444  0.3029 -1.7576
  425MOL0     C57295   8.322   9.711   5.119  0.0411  0.0662 -0.1714
  425MOL0     C57296   8.211   9.726   5.029 -0.6654  0.0089  0.4151
  425MOL0     C57297   8.194   9.658   4.912 -0.7276  0.2856  0.6851
  425MOL0     C57298   8.281   9.548   4.881 -0.2126 -0.2000  0.0677
  425MOL0     O57299   8.264   9.494   4.756  0.2011 -0.1593  0.5270
  425MOL0     C57300   8.364   9.400   4.705  0.8434 -0.3123  0.2155
  425MOL0     C57301   8.337   9.259   4.730 -0.2393 -0.2461 -0.7064
  425MOL0     C57302   8.195   9.209   4.685 -0.4906 -0.7640 -0.2311
  425MOL0     C57303   8.113   9.155   4.800  0.1904  1.3795  0.0186
  425MOL0     C57304   8.091   9.254   4.908 -0.5251  0.4362  0.7249
  425MOL0     C57305   8.065   9.340   4.983 -0.1618 -0.2832 -1.0321
  425MOL0     C57306   8.378   9.519   4.980  0.0299  1.1461  0.4131
  425MOL0     C57307   8.410   9.601   5.096 -0.3906 -0.8260  0.2734
  425MOL0     H57308   8.176   9.816   5.457  2.8709 -0.5908  0.9861
  425MOL0     H57309   8.079   9.940   5.652 -0.0811  0.1833 -0.8788
  425MOL0     H57310   8.052  10.385   5.611 -2.2853 -1.1512  1.2311
  425MOL0     H57311   8.012  10.351   5.780 -2.4382 -2.4890 -1.7729
  425MOL0     H57312   8.232  10.360   5.852  2.8811 -0.1662  0.2689
  425MOL0     H57313   8.293  10.349   5.684 -1.2014 -1.1314 -0.4473
  425MOL0     H57314   8.206  10.591   5.652 -2.1480 -0.4321  1.0181
  425MOL0     H57315   8.183  10.603   5.820  0.2491 -1.4637  0.1902
  425MOL0     H57316   8.425  10.527   5.862 -0.0643 -2.4749 -0.0066
  425MOL0     H57317   8.439  10.501   5.689  1.6025  1.8708  0.1079
  425MOL0     H57318   8.534  10.713   5.761  0.1366  1.4044 -0.7669
  425MOL0     H57319   8.412  10.750   5.639  0.9429 -0.8719 -1.5747
  425MOL0     H57320   8.260  10.801   5.838  0.4325  0.6982  0.4516
  425MOL0     H57321   8.389  10.758   5.955  0.2891 -2.3364 -0.3899
  425MOL0     H57322   8.499  10.970   5.906 -0.2358 -2.2495  0.8953
  425MOL0     H57323   8.454  10.980   5.743 -0.8586 -0.3739 -1.7656
  425MOL0     H57324   8.214  11.019   5.820 -0.8422  0.1416  1.1125
  425MOL0     H57325   8.332  11.145   5.861 -0.0282  0.5082 -1.2625
  425MOL0     H57326   8.072  10.938   5.997 -2.1957  2.2355 -0.7099
  425MOL0     H57327   7.940  10.933   6.223 -0.4800  1.6687 -1.4536
  425MOL0     H57328   8.046  10.950   6.365 -0.8101 -0.6556  0.5267
  425MOL0     H57329   7.874  11.138   6.183 -1.9788 -4.8483 -1.1566
  425MOL0     H57330   7.987  11.207   6.307  1.3595 -0.4686 -2.9556
  425MOL0     H57331   7.752  11.203   6.371 -2.6369 -2.1843 -1.8710
  425MOL0     H57332   7.847  11.097   6.483  1.8099  0.6522 -0.2769
  425MOL0     H57333   7.748  10.906   6.359 -0.2192  1.3892  1.0107
  425MOL0     H57334   7.654  11.010   6.253 -0.5153 -2.6457  0.4562
  425MOL0     H57335   7.448  10.978   6.638  2.9058 -4.4671  2.2236
  425MOL0     H57336   7.279  10.941   6.754  2.1062 -2.4409  0.9765
  425MOL0     H57337   7.114  10.930   6.688  0.7766  1.8224 -1.7352
  425MOL0     H57338   7.204  10.784   6.744 -0.6027 -0.4543  0.0869
  425MOL0     H57339   6.906  10.560   6.183 -1.1587  0.8776  0.0644
  425MOL0     H57340   6.742  10.375   6.178 -0.7701 -2.8516  0.9531
  425MOL0     H57341   6.586  10.347   6.412 -0.5744 -0.3841 -0.8744
  425MOL0     H57342   6.527  10.248   6.279 -0.3724 -1.1463 -0.0432
  425MOL0     H57343   6.404  10.189   6.451 -0.7000 -2.5611  0.6981
  425MOL0     H57344   6.523  10.057   6.435  1.8739  0.2057  1.1006
  425MOL0     H57345   6.469  10.221   6.670 -0.0663 -2.3994  0.5401
  425MOL0     H57346   6.637  10.244   6.624 -0.0368  0.5162  0.3628
  425MOL0     H57347   6.500   9.970   6.656  2.9909 -3.1028 -0.5823
  425MOL0     H57348   6.665   9.999   6.619 -0.4671  0.3089 -0.8410
  425MOL0     H57349   6.538  10.137   6.857 -1.6367 -1.5291 -5.1328
  425MOL0     H57350   6.713  10.109   6.841  0.8784  0.1637  0.6889
  425MOL0     H57351   6.506   9.908   6.937  0.3212 -1.1553  3.0818
  425MOL0     H57352   6.654   9.849   6.859  0.2704  1.6110 -3.0745
  425MOL0     H57353   6.657  10.039   7.098 -1.0110 -0.6918  1.3177
  425MOL0     H57354   6.794   9.965   7.016  0.5687 -1.5263 -2.1754
  425MOL0     H57355   6.547   9.864   7.163 -0.0586  0.4401 -1.2616
  425MOL0     H57356   6.703   9.849   7.235  0.8246  1.3144 -1.4040
  425MOL0     H57357   6.924  10.217   6.533 -1.5172 -1.1951 -0.4190
  425MOL0     H57358   7.094  10.399   6.522 -1.5040  0.5966  2.8524
  425MOL0     H57359   7.322  10.700   6.263  0.7003  0.7952 -0.3644
  425MOL0     H57360   7.503  10.854   6.242 -0.2387 -0.4031  0.5368
  425MOL0     H57361   8.192  10.308   5.461 -0.8105 -0.9811  1.9728
  425MOL0     H57362   8.301  10.181   5.269  0.2264 -0.7489 -2.1903
  425MOL0     H57363   8.156   9.818   5.045 -2.3194 -0.3182 -2.7250
  425MOL0     H57364   8.122   9.680   4.834  2.3707  1.3288 -2.1591
  425MOL0     H57365   8.360   9.413   4.596  2.3102 -1.0109  0.0523
  425MOL0     H57366   8.467   9.424   4.735  1.5121 -3.7452  1.1323
  425MOL0     H57367   8.355   9.252   4.838  3.1719 -0.0608 -1.1611
  425MOL0     H57368   8.414   9.206   4.673  1.5825  1.8555 -0.3265
  425MOL0     H57369   8.221   9.122   4.624  0.2896 -0.8597  0.2267
  425MOL0     H57370   8.148   9.275   4.611  2.2842  2.0880  0.3296
  425MOL0     H57371   8.172   9.069   4.833  2.3048  2.7309 -0.0501
  425MOL0     H57372   8.019   9.110   4.768  0.0796 -1.0297  3.2594
  425MOL0     H57373   8.048   9.403   5.068 -1.4127  2.7363 -3.3252
  425MOL0     H57374   8.443   9.432   4.967 -0.3981  1.0457 -1.2993
  425MOL0     H57375   8.493   9.581   5.163 -1.1703 -2.5506  0.7815
  426MOL0     O57376   6.787   2.303   1.121  0.0906 -0.0341  0.0371
  426MOL0     C57377   6.749   2.200   1.069 -0.1639 -0.3496  0.1685
  426MOL0     O57378   6.690   2.188   0.944  0.3807  1.2209  0.2604
  426MOL0     C57379   6.662   2.289   0.861 -1.0082 -0.5486  0.1545
  426MOL0     C57380   6.686   2.274   0.723  1.1341  0.0953  1.3827
  426MOL0     C57381   6.642   2.372   0.636  0.1807 -0.3181  0.1279
  426MOL0     C57382   6.585   2.499   0.678  0.0541  0.3420  0.2237
  426MOL0     O57383   6.575   2.607   0.598 -0.2982  0.1907  0.5984
  426MOL0     C57384   6.470   2.707   0.625  1.1134 -0.8798  1.5816
  426MOL0     C57385   6.467   2.815   0.507 -0.0246 -0.5494 -0.4902
  426MOL0     C57386   6.610   2.877   0.509  0.2351  0.6429  0.3441
  426MOL0     C57387   6.631   2.972   0.401  0.2408 -0.2730 -0.0669
  426MOL0     C57388   6.749   2.947   0.320  0.5212 -0.7126  0.4731
  426MOL0     C57389   6.864   3.023   0.378 -0.4423  0.0796 -0.1858
  426MOL0     C57390   6.994   3.000   0.304 -0.5714 -0.1434 -0.1230
  426MOL0     C57391   7.099   3.111   0.319  0.5731 -0.1103 -0.8091
  426MOL0     N57392   7.238   3.070   0.325  0.5122 -0.7632  0.8867
  426MOL0     C57393   7.289   3.005   0.434 -0.2687  0.6370  0.9376
  426MOL0     C57394   7.409   2.967   0.392  0.2102 -0.3335  0.8314
  426MOL0     C57395   7.503   2.878   0.475 -0.1674 -0.1606 -0.0764
  426MOL0     C57396   7.511   2.745   0.415  0.0623 -0.1898  0.3684
  426MOL0     C57397   7.580   2.730   0.281 -0.6123  0.5360 -0.1220
  426MOL0     C57398   7.599   2.583   0.245 -0.6017 -0.3375 -0.4136
  426MOL0     O57399   7.662   2.574   0.114 -0.0909 -0.7207 -0.3515
  426MOL0     C57400   7.681   2.442   0.065 -0.8075  0.0717 -0.6127
  426MOL0     C57401   7.718   2.430  -0.066  0.2006 -0.2998  0.6992
  426MOL0     C57402   7.717   2.308  -0.139 -0.9927 -0.1329 -0.4480
  426MOL0     C57403   7.761   2.312  -0.288  0.3988 -0.6230 -0.2954
  426MOL0     C57404   7.724   2.183  -0.062 -0.1625  0.3288  0.0470
  426MOL0     C57405   7.736   2.051  -0.107 -0.1966 -0.6545 -0.2431
  426MOL0     O57406   7.672   1.958  -0.045  0.2581  0.3270 -0.5817
  426MOL0     C57407   7.693   1.832  -0.095 -0.4841 -0.5056 -1.2370
  426MOL0     C57408   7.784   1.751  -0.038 -0.7099  0.4123 -0.7480
  426MOL0     C57409   7.807   1.618  -0.089 -0.7253 -0.9912  0.8914
  426MOL0     C57410   7.753   1.580  -0.204  0.8686 -0.1783  0.4959
  426MOL0     O57411   7.772   1.460  -0.268 -0.1080  0.1060 -0.6731
  426MOL0     C57412   7.867   1.370  -0.217  0.6398  0.9701 -0.5443
  426MOL0     C57413   7.842   1.232  -0.272  0.0044  0.0010 -0.1339
  426MOL0     C57414   7.712   1.166  -0.214 -0.0832 -0.0797 -0.1927
  426MOL0     C57415   7.580   1.234  -0.246 -0.2132  1.1164  0.2274
  426MOL0     C57416   7.476   1.138  -0.181 -1.1022 -0.7754 -0.4440
  426MOL0     C57417   7.477   0.992  -0.233  0.1410 -0.4334 -0.9229
  426MOL0     C57418   7.345   0.926  -0.228  0.6099  0.7108  0.3045
  426MOL0     C57419   7.274   0.937  -0.087  0.8688 -0.1440  0.1672
  426MOL0    Cl57420   7.169   1.084  -0.115  0.2228  0.4652  0.3700
  426MOL0     C57421   7.659   1.662  -0.254  0.1874 -0.1027  0.1736
  426MOL0     C57422   7.624   1.787  -0.210 -0.5758 -0.5982  0.1787
  426MOL0     O57423   7.819   2.035  -0.197  0.3685  0.2803  0.1424
  426MOL0     C57424   7.703   2.201   0.075  0.4924  0.3081 -0.2385
  426MOL0     C57425   7.682   2.326   0.133  0.0075  0.9474 -0.1776
  426MOL0     N57426   7.433   3.024   0.264 -0.5333  1.0336  0.1891
  426MOL0     N57427   7.323   3.091   0.224 -0.0275 -0.0572  0.5186
  426MOL0     C57428   6.554   2.500   0.817  0.8463 -0.6954  0.8840
  426MOL0     C57429   6.580   2.392   0.896  0.8475 -0.0179  0.1504
  426MOL0     C57430   6.777   2.079   1.147 -0.1472 -0.2026  0.5918
  426MOL0     C57431   6.716   1.960   1.101 -0.0377  0.8336 -0.0640
  426MOL0     C57432   6.714   1.849   1.187 -0.9947 -0.3045  0.5011
  426MOL0     C57433   6.785   1.844   1.307  0.2172  0.0308  0.5949
  426MOL0     O57434   6.779   1.715   1.377  0.0487 -0.2495  0.1292
  426MOL0     C57435   6.874   1.690   1.487  1.2106 -0.4858 -0.3932
  426MOL0     C57436   6.818   1.573   1.566 -0.1711 -0.3974 -0.0434
  426MOL0     C57437   6.789   1.446   1.497  0.4947  0.3732  0.0441
  426MOL0     C57438   6.650   1.386   1.537  0.5548 -0.9716 -0.7909
  426MOL0     C57439   6.545   1.460   1.465  0.0859 -0.1812 -0.6537
  426MOL0     C57440   6.457   1.516   1.408 -0.2947  0.1223  0.0858
  426MOL0     C57441   6.867   1.957   1.336  0.6520  0.2578  0.0044
  426MOL0     C57442   6.861   2.070   1.255 -0.1474 -0.2308  0.2632
  426MOL0     H57443   6.755   2.196   0.691  1.2605  0.1104  1.6090
  426MOL0     H57444   6.671   2.374   0.531  0.9250  2.6097  0.2898
  426MOL0     H57445   6.373   2.661   0.645 -1.3761  3.8752  1.9305
  426MOL0     H57446   6.487   2.762   0.718  2.5531  0.0229  0.8083
  426MOL0     H57447   6.435   2.769   0.414  1.4943 -1.9279 -0.3578
  426MOL0     H57448   6.396   2.895   0.535 -2.6819 -3.1302  0.7347
  426MOL0     H57449   6.612   2.936   0.601  0.9550  0.4706  0.4439
  426MOL0     H57450   6.690   2.803   0.520  0.2869  1.0744  3.9658
  426MOL0     H57451   6.539   2.982   0.343 -0.9784 -3.6019  1.1183
  426MOL0     H57452   6.635   3.069   0.452 -3.2819 -0.9828  1.8490
  426MOL0     H57453   6.775   2.841   0.324 -0.8596 -1.2101 -1.5572
  426MOL0     H57454   6.727   2.975   0.216 -4.3231  0.2178  1.5022
  426MOL0     H57455   6.843   3.130   0.372 -0.4389  0.1540  0.8336
  426MOL0     H57456   6.878   2.981   0.479  2.1411 -1.8513 -1.2261
  426MOL0     H57457   7.032   2.904   0.339 -0.6765 -0.5193 -1.0149
  426MOL0     H57458   6.967   2.988   0.199 -3.3262 -0.5776  0.5575
  426MOL0     H57459   7.078   3.169   0.409  3.0765  0.7015 -0.6765
  426MOL0     H57460   7.086   3.180   0.236  1.0259 -1.0623 -1.6845
  426MOL0     H57461   7.236   2.980   0.526 -3.1355 -2.2310 -1.2710
  426MOL0     H57462   7.595   2.934   0.493  0.0444 -0.7297  0.6453
  426MOL0     H57463   7.460   2.863   0.574  2.1346 -1.9814  0.7374
  426MOL0     H57464   7.414   2.695   0.401 -0.4187  0.8356 -0.1628
  426MOL0     H57465   7.566   2.684   0.486 -0.4425  1.5729  2.3757
  426MOL0     H57466   7.677   2.780   0.290 -1.0555  2.3119 -3.6611
  426MOL0     H57467   7.514   2.767   0.202 -0.5684 -2.4755 -1.6883
  426MOL0     H57468   7.501   2.537   0.233 -0.3469 -0.9535 -0.1924
  426MOL0     H57469   7.653   2.531   0.326 -1.2761  0.0367  0.2910
  426MOL0     H57470   7.739   2.522  -0.121 -2.4153 -1.6772 -3.0431
  426MOL0     H57471   7.724   2.218  -0.331  3.4985 -3.4893  2.6625
  426MOL0     H57472   7.721   2.400  -0.339 -1.2465 -0.8985  0.4569
  426MOL0     H57473   7.870   2.308  -0.286  0.6240  1.0703 -3.3403
  426MOL0     H57474   7.847   1.796   0.038 -1.1739 -1.3077  0.7291
  426MOL0     H57475   7.888   1.568  -0.035  1.1728  4.0129  3.2652
  426MOL0     H57476   7.964   1.410  -0.247  1.1273 -1.1485 -2.0418
  426MOL0     H57477   7.847   1.377  -0.110 -0.6256  1.9974 -0.8219
  426MOL0     H57478   7.839   1.236  -0.381  0.3018 -2.8174 -0.3424
  426MOL0     H57479   7.932   1.176  -0.244 -0.5996  0.0824  2.2066
  426MOL0     H57480   7.729   1.164  -0.106  0.4001  0.2654 -0.2586
  426MOL0     H57481   7.708   1.070  -0.266 -0.2620  0.5296 -1.3276
  426MOL0     H57482   7.574   1.340  -0.219 -0.9944  0.9993  0.5394
  426MOL0     H57483   7.555   1.225  -0.352 -0.6774  0.2884  0.3939
  426MOL0     H57484   7.385   1.185  -0.218 -0.5494  0.0438 -0.8005
  426MOL0     H57485   7.465   1.149  -0.072 -1.7729  0.2603 -0.6016
  426MOL0     H57486   7.516   0.972  -0.333 -1.3322 -1.1447 -1.3824
  426MOL0     H57487   7.533   0.931  -0.161 -1.9445  1.0911  2.2189
  426MOL0     H57488   7.368   0.820  -0.243 -0.6089 -0.0623  3.2279
  426MOL0     H57489   7.289   0.959  -0.316  0.0605  2.0187  1.1149
  426MOL0     H57490   7.337   0.948   0.002 -0.1917 -0.3009  0.9621
  426MOL0     H57491   7.207   0.853  -0.068 -2.1269  2.2081  0.6853
  426MOL0     H57492   7.600   1.631  -0.340  2.2097 -0.1589 -1.2607
  426MOL0     H57493   7.567   1.858  -0.268  0.5943  0.1440 -0.1123
  426MOL0     H57494   7.709   2.113   0.137 -2.9483  1.6564  2.2625
  426MOL0     H57495   7.654   2.331   0.237  2.3316  0.8356  0.5115
  426MOL0     H57496   6.508   2.582   0.872  1.6928  0.6090 -0.2785
  426MOL0     H57497   6.543   2.400   0.998 -0.8441 -1.8891 -0.2527
  426MOL0     H57498   6.666   1.956   1.004 -2.3544 -1.4731  1.1136
  426MOL0     H57499   6.653   1.761   1.169 -0.4085 -0.3554 -1.4761
  426MOL0     H57500   6.968   1.653   1.446  1.4480 -1.1038  0.6999
  426MOL0     H57501   6.891   1.774   1.554  0.4114 -1.3198  0.9041
  426MOL0     H57502   6.721   1.600   1.608  0.3902  2.6628 -0.5016
  426MOL0     H57503   6.891   1.562   1.647 -0.2177 -1.6700 -0.1477
  426MOL0     H57504   6.866   1.371   1.518 -0.0588  0.0637  1.0334
  426MOL0     H57505   6.799   1.457   1.389 -0.2703  2.2440  0.1256
  426MOL0     H57506   6.619   1.402   1.640 -3.7097 -0.1815 -1.9947
  426MOL0     H57507   6.631   1.279   1.525 -0.9733 -0.6489 -1.5564
  426MOL0     H57508   6.380   1.575   1.362 -0.2566 -0.8898 -1.3595
  426MOL0     H57509   6.925   1.958   1.428 -0.5831  0.9360  0.8060
  426MOL0     H57510   6.920   2.159   1.274  2.2633 -1.3231 -1.5173
  427MOL0     O57511  10.721  10.577   8.757 -0.4737 -0.0749 -0.2655
  427MOL0     C57512  10.798  10.665   8.785  0.1635 -1.3269  0.9116
  427MOL0     O57513  10.929  10.659   8.785 -0.6988  0.6810  0.5572
  427MOL0     C57514  10.998  10.538   8.759 -0.1296 -0.9645  1.3039
  427MOL0     C57515  10.956  10.406   8.744  0.5539  0.1780 -0.0624
  427MOL0     C57516  11.048  10.300   8.716  0.4052 -0.2295 -0.1765
  427MOL0     C57517  11.191  10.325   8.697  0.5461  0.7898  0.9303
  427MOL0     O57518  11.285  10.228   8.668 -0.5067  0.1501  0.7462
  427MOL0     C57519  11.275  10.099   8.738 -1.0827  0.0874  0.4205
  427MOL0     C57520  11.395  10.015   8.698 -0.5324 -0.3308  0.5540
  427MOL0     C57521  11.408   9.966   8.554  0.3324  0.1523 -0.5412
  427MOL0     C57522  11.536   9.882   8.531 -0.7144  0.6279 -0.2582
  427MOL0     C57523  11.548   9.845   8.380 -0.2499 -0.5455  0.2139
  427MOL0     C57524  11.684   9.777   8.352 -0.0271 -0.1489 -0.6460
  427MOL0     C57525  11.686   9.711   8.210  0.4758 -0.7722  0.0290
  427MOL0     C57526  11.813   9.642   8.163  0.2108  0.3989  0.0560
  427MOL0     N57527  11.803   9.612   8.016  0.5267  0.3032  0.0401
  427MOL0     C57528  11.809   9.708   7.913 -0.4355 -0.8427 -0.1547
  427MOL0     C57529  11.831   9.645   7.795 -0.5270 -0.0275 -0.6199
  427MOL0     C57530  11.854   9.688   7.649 -0.6087 -0.2488  0.3225
  427MOL0     C57531  11.942   9.808   7.650  0.5322  0.2047 -0.0342
  427MOL0     C57532  12.088   9.809   7.691 -1.3409 -0.4911  0.4803
  427MOL0     C57533  12.179   9.712   7.608 -0.7500 -0.1683  0.4737
  427MOL0     O57534  12.305   9.711   7.666 -0.1293  0.2406 -0.6252
  427MOL0     C57535  12.372   9.826   7.661  0.4366 -0.6249 -0.3546
  427MOL0     C57536  12.415   9.872   7.538  0.1485 -0.4043  0.0119
  427MOL0     C57537  12.492   9.988   7.532  0.6506  0.1475 -0.5486
  427MOL0     C57538  12.539  10.032   7.394  0.3932  0.0203  0.2033
  427MOL0     C57539  12.534  10.047   7.655  1.7310 -0.6969  0.0935
  427MOL0     C57540  12.623  10.167   7.661 -0.1768 -0.2003  0.2970
  427MOL0     O57541  12.669  10.199   7.786 -0.0098  1.1429 -0.0007
  427MOL0     C57542  12.781  10.272   7.809 -0.5417  0.1235 -0.1864
  427MOL0     C57543  12.769  10.346   7.931 -0.6546 -0.8365  0.4227
  427MOL0     C57544  12.876  10.435   7.971  0.0304 -0.5842 -0.5767
  427MOL0     C57545  12.997  10.442   7.900  0.5977 -0.0993 -0.0370
  427MOL0     O57546  13.091  10.527   7.955  0.3609 -0.2070 -0.2854
  427MOL0     C57547  13.214  10.534   7.889  0.3230  0.3308 -0.0587
  427MOL0     C57548  13.307  10.615   7.978  0.1239  0.0429 -0.6790
  427MOL0     C57549  13.432  10.645   7.893  0.4611  0.2778 -0.0667
  427MOL0     C57550  13.531  10.529   7.895 -1.5198  0.1810  0.2959
  427MOL0     C57551  13.632  10.524   8.009  0.5107 -0.6636 -0.2974
  427MOL0     C57552  13.713  10.399   8.019 -0.6811 -0.2155  0.2200
  427MOL0     C57553  13.800  10.389   7.896 -0.1191  0.8019 -0.3302
  427MOL0     C57554  13.900  10.266   7.891  0.6025  0.2371  0.1897
  427MOL0    Cl57555  13.803  10.111   7.863 -0.4737  0.2405  0.3924
  427MOL0     C57556  13.004  10.376   7.774 -0.2418 -0.3205  0.6585
  427MOL0     C57557  12.901  10.282   7.739 -0.1750  0.3090 -0.5587
  427MOL0     O57558  12.663  10.227   7.564  0.2891  0.1083  0.8975
  427MOL0     C57559  12.492   9.989   7.781  0.1372  0.0389 -0.2269
  427MOL0     C57560  12.409   9.878   7.785 -0.0859  0.6515  0.7145
  427MOL0     N57561  11.825   9.516   7.831 -0.1577  0.4955  0.3612
  427MOL0     N57562  11.801   9.497   7.953  0.7077  0.2569  0.0325
  427MOL0     C57563  11.226  10.463   8.698  0.2180 -0.1848  1.1212
  427MOL0     C57564  11.133  10.565   8.726 -0.8233  1.3943 -0.5205
  427MOL0     C57565  10.740  10.788   8.838  0.5919  0.8086  0.4721
  427MOL0     C57566  10.821  10.889   8.887  0.1666 -0.6710 -0.6255
  427MOL0     C57567  10.762  10.999   8.946  0.5427 -0.4011  0.0318
  427MOL0     C57568  10.624  11.014   8.952  0.2737 -0.5659 -0.2349
  427MOL0     O57569  10.573  11.123   9.024  0.6089 -0.9646  0.0799
  427MOL0     C57570  10.453  11.099   9.110 -0.2846 -0.3904  0.8917
  427MOL0     C57571  10.420  11.222   9.195  0.3905 -0.2574  0.1820
  427MOL0     C57572  10.518  11.204   9.319 -0.1718  0.2747  0.6149
  427MOL0     C57573  10.520  11.332   9.391 -0.4490  0.4673 -0.2084
  427MOL0     C57574  10.581  11.318   9.532  0.1972 -0.3276 -0.0501
  427MOL0     C57575  10.620  11.294   9.643 -1.0250 -0.1093 -0.4047
  427MOL0     C57576  10.544  10.919   8.898  0.6419  0.2354  0.1687
  427MOL0     C57577  10.597  10.798   8.846  0.0861  0.1018 -0.1849
  427MOL0     H57578  10.850  10.385   8.753 -0.1066  2.5336 -1.4552
  427MOL0     H57579  11.013  10.198   8.723  2.6665 -0.9190  3.1155
  427MOL0     H57580  11.271  10.097   8.848 -1.4575  0.4572  0.4154
  427MOL0     H57581  11.178  10.054   8.714 -1.4198  1.0519 -0.0826
  427MOL0     H57582  11.490  10.062   8.726 -0.1776 -2.1024  2.5977
  427MOL0     H57583  11.382   9.929   8.765 -0.5908 -1.4909 -0.8834
  427MOL0     H57584  11.331   9.889   8.539 -1.0198  1.4547 -0.5154
  427MOL0     H57585  11.380  10.046   8.484 -2.8830  0.1860  0.6053
  427MOL0     H57586  11.625   9.933   8.568 -0.1514 -0.4620 -0.0878
  427MOL0     H57587  11.528   9.789   8.588 -0.4069 -0.8951 -2.5699
  427MOL0     H57588  11.463   9.788   8.343 -2.4773  4.0544 -2.6831
  427MOL0     H57589  11.555   9.943   8.330 -0.0699  0.5003  2.1902
  427MOL0     H57590  11.764   9.850   8.364 -1.2385  1.1023  0.0445
  427MOL0     H57591  11.708   9.703   8.429 -2.7698  0.3370  0.7922
  427MOL0     H57592  11.601   9.644   8.196 -1.5834  1.0423  2.6378
  427MOL0     H57593  11.662   9.802   8.154  0.7675  0.0125  1.1509
  427MOL0     H57594  11.837   9.546   8.209  1.7351  0.7579  0.0727
  427MOL0     H57595  11.899   9.706   8.188 -0.7301  2.1555 -0.9862
  427MOL0     H57596  11.811   9.814   7.939 -2.9457 -0.9959  0.9343
  427MOL0     H57597  11.905   9.609   7.593 -0.7438 -1.2237  1.5298
  427MOL0     H57598  11.761   9.706   7.593  0.8363  0.9787 -1.8299
  427MOL0     H57599  11.889   9.880   7.712 -0.0379  0.1899 -0.4920
  427MOL0     H57600  11.951   9.843   7.546  1.8210 -2.5466 -0.9662
  427MOL0     H57601  12.092   9.797   7.800  0.5697 -1.2539  0.3576
  427MOL0     H57602  12.133   9.907   7.673 -0.2548 -1.1677 -0.6035
  427MOL0     H57603  12.189   9.723   7.500 -1.7361 -4.5690 -0.2590
  427MOL0     H57604  12.135   9.611   7.613  2.4573 -1.8218 -1.4276
  427MOL0     H57605  12.377   9.829   7.446  0.8142 -2.3857  0.6242
  427MOL0     H57606  12.646  10.018   7.380  0.6112  3.0402 -2.5092
  427MOL0     H57607  12.486   9.974   7.318  0.1930 -1.1874  1.2256
  427MOL0     H57608  12.523  10.137   7.365 -0.7959 -0.2510 -0.1791
  427MOL0     H57609  12.681  10.345   7.994 -1.3985  2.1532 -0.3780
  427MOL0     H57610  12.853  10.502   8.053 -2.4283 -4.5386  2.3759
  427MOL0     H57611  13.272  10.445   7.865  0.6695 -0.2965  2.7192
  427MOL0     H57612  13.199  10.590   7.796 -0.1154 -0.9222 -0.7575
  427MOL0     H57613  13.257  10.711   7.997 -0.4131 -0.3875  0.1220
  427MOL0     H57614  13.335  10.571   8.074  1.5040 -1.8486 -1.8992
  427MOL0     H57615  13.475  10.730   7.947  0.4931 -0.4991  1.1461
  427MOL0     H57616  13.421  10.677   7.789  0.4771 -1.2640 -0.5667
  427MOL0     H57617  13.477  10.434   7.904 -0.6609 -0.4288 -0.7723
  427MOL0     H57618  13.590  10.531   7.803 -1.4781  0.2193  0.3233
  427MOL0     H57619  13.575  10.546   8.100  2.2623  1.3280  0.3804
  427MOL0     H57620  13.690  10.615   7.990  0.3163 -0.7328 -1.2580
  427MOL0     H57621  13.784  10.391   8.102 -1.3786 -0.7590  0.7787
  427MOL0     H57622  13.644  10.315   8.033 -1.9235  1.0116  1.8348
  427MOL0     H57623  13.872  10.471   7.909  3.6146 -2.3215  0.5763
  427MOL0     H57624  13.740  10.399   7.805 -4.8741 -0.8584  2.2918
  427MOL0     H57625  13.930  10.259   7.996  0.5024 -2.6163  0.1251
  427MOL0     H57626  13.973  10.271   7.810 -0.5664 -1.5524 -1.0525
  427MOL0     H57627  13.078  10.402   7.700 -0.8521  3.2528  1.1530
  427MOL0     H57628  12.912  10.229   7.645 -0.8544  0.4258 -0.7069
  427MOL0     H57629  12.509  10.048   7.870 -3.2996  0.0545  0.5628
  427MOL0     H57630  12.382   9.849   7.887 -2.1970  2.2073  0.6608
  427MOL0     H57631  11.331  10.477   8.675  0.3815 -1.5276  0.9509
  427MOL0     H57632  11.159  10.669   8.739  0.3418  0.7655  4.0935
  427MOL0     H57633  10.929  10.881   8.875  0.0815 -2.0387 -0.6375
  427MOL0     H57634  10.817  11.073   9.003 -1.3384  0.4810  0.7645
  427MOL0     H57635  10.369  11.092   9.040 -0.1985  0.2734  0.7220
  427MOL0     H57636  10.465  11.012   9.175  3.5170  0.8263  2.0594
  427MOL0     H57637  10.316  11.211   9.227  0.3336  1.9873  0.8941
  427MOL0     H57638  10.443  11.311   9.136  1.9070 -0.1180  0.9213
  427MOL0     H57639  10.620  11.201   9.282 -0.5062 -2.1665 -0.2514
  427MOL0     H57640  10.489  11.120   9.383 -1.1672 -0.7843 -1.1611
  427MOL0     H57641  10.418  11.366   9.411 -0.6278 -1.8559  3.9019
  427MOL0     H57642  10.581  11.407   9.338 -4.5867  1.1702 -4.5923
  427MOL0     H57643  10.670  11.280   9.737  0.7121  0.6776 -1.1468
  427MOL0     H57644  10.436  10.930   8.891  0.3004 -2.0665  0.9675
  427MOL0     H57645  10.546  10.709   8.808  2.5477 -1.4099 -0.1761
  428MOL0     O57646   1.738   0.756   1.479 -0.2174  0.6296 -0.0763
  428MOL0     C57647   1.763   0.830   1.574 -0.0870 -0.0995 -0.3826
  428MOL0     O57648   1.677   0.855   1.674  0.6496 -0.1867 -0.4376
  428MOL0     C57649   1.553   0.790   1.667 -0.7357  0.9119 -0.7957
  428MOL0     C57650   1.515   0.711   1.777  1.1390  0.6318  0.4432
  428MOL0     C57651   1.397   0.625   1.779  0.2067 -0.4335 -0.2037
  428MOL0     C57652   1.323   0.615   1.667  0.1192  0.1231  0.8844
  428MOL0     O57653   1.226   0.517   1.651  0.1081 -0.4724  0.1293
  428MOL0     C57654   1.091   0.568   1.611 -0.5346  0.3671 -0.5204
  428MOL0     C57655   0.988   0.521   1.706  0.2384  0.4040 -0.1390
  428MOL0     C57656   1.008   0.575   1.845 -0.2976  0.3981 -0.3239
  428MOL0     C57657   0.971   0.719   1.864 -0.0583  0.6449 -0.8980
  428MOL0     C57658   0.940   0.755   2.014  0.0774  0.7931  0.4278
  428MOL0     C57659   1.051   0.761   2.119 -0.5652 -0.4951 -0.4184
  428MOL0     C57660   1.150   0.884   2.104  0.7263 -1.1966  0.0871
  428MOL0     C57661   1.228   0.916   2.234 -0.4765 -0.3110 -0.1489
  428MOL0     N57662   1.268   1.054   2.242  0.0291  0.1475  0.4233
  428MOL0     C57663   1.394   1.113   2.254 -0.2197 -0.1828 -0.9692
  428MOL0     C57664   1.373   1.242   2.266  0.9188  0.1272  0.1386
  428MOL0     C57665   1.473   1.344   2.293 -0.8392  0.2963 -0.0618
  428MOL0     C57666   1.566   1.301   2.405 -0.5267 -0.5410  0.1548
  428MOL0     C57667   1.655   1.417   2.456 -0.3005  0.1788 -0.3182
  428MOL0     C57668   1.587   1.527   2.536 -0.2817  0.8573 -0.1456
  428MOL0     O57669   1.696   1.603   2.569 -0.2024  0.3828  0.2921
  428MOL0     C57670   1.743   1.689   2.486 -0.0343 -0.3487 -0.1734
  428MOL0     C57671   1.884   1.689   2.453 -0.7688  0.2663 -0.0160
  428MOL0     C57672   1.945   1.786   2.366  0.2654 -0.2521  0.2737
  428MOL0     C57673   2.088   1.759   2.317  0.0560 -0.4762  0.4640
  428MOL0     C57674   1.864   1.892   2.311  0.2674  0.6596 -0.7614
  428MOL0     C57675   1.918   2.003   2.221  0.4440 -0.0757 -0.0716
  428MOL0     O57676   2.044   2.058   2.251 -0.0846  0.7524  0.4865
  428MOL0     C57677   2.088   2.168   2.178 -0.6489  0.0799 -1.1094
  428MOL0     C57678   2.186   2.151   2.077  1.1833  0.0058 -0.9934
  428MOL0     C57679   2.244   2.261   2.017  1.0621 -0.5827 -0.5221
  428MOL0     C57680   2.211   2.395   2.055  0.8061 -0.1314 -0.6008
  428MOL0     O57681   2.256   2.515   2.012 -0.2258 -0.3405 -0.4194
  428MOL0     C57682   2.396   2.515   1.980  1.6658  0.1600  1.2426
  428MOL0     C57683   2.433   2.656   1.939  0.1574  0.9481  0.6913
  428MOL0     C57684   2.570   2.667   1.857  0.0767 -0.3721  0.3694
  428MOL0     C57685   2.683   2.601   1.937  0.0224 -1.1042 -0.3890
  428MOL0     C57686   2.808   2.567   1.857  0.0728 -0.7021  0.3774
  428MOL0     C57687   2.903   2.673   1.820  0.1432  0.5832  0.3773
  428MOL0     C57688   3.035   2.616   1.768 -0.8165  0.2928 -0.4366
  428MOL0     C57689   3.133   2.736   1.743 -0.7877  0.8785  0.9816
  428MOL0    Cl57690   3.286   2.664   1.679  0.2956 -0.1688 -0.0473
  428MOL0     C57691   2.103   2.407   2.146 -0.6815 -0.1876 -0.8949
  428MOL0     C57692   2.037   2.293   2.203 -0.0002 -0.3442 -0.2454
  428MOL0     O57693   1.843   2.040   2.128 -0.7533  0.4926 -0.3474
  428MOL0     C57694   1.721   1.883   2.328 -0.0924  0.4823 -0.0155
  428MOL0     C57695   1.661   1.779   2.416 -0.0533 -0.6996 -0.2055
  428MOL0     N57696   1.235   1.274   2.256 -0.4944 -0.8643  0.1480
  428MOL0     N57697   1.181   1.160   2.251 -0.1453  0.4481  0.6002
  428MOL0     C57698   1.346   0.704   1.560  0.2367 -0.3253 -0.1771
  428MOL0     C57699   1.458   0.786   1.562 -0.1464 -0.2167  0.4799
  428MOL0     C57700   1.888   0.913   1.579  0.2504  0.0265 -0.3997
  428MOL0     C57701   1.926   0.997   1.692  0.2477  0.0758  0.4532
  428MOL0     C57702   2.047   1.059   1.702  0.7532 -0.1129  0.0433
  428MOL0     C57703   2.139   1.050   1.597  0.1838  0.7614  0.3486
  428MOL0     O57704   2.253   1.108   1.620 -0.5430  0.2479  0.5151
  428MOL0     C57705   2.360   1.120   1.529  0.4686 -0.5456 -0.2425
  428MOL0     C57706   2.342   1.251   1.448 -0.2469  0.5438  0.2216
  428MOL0     C57707   2.352   1.370   1.548  0.1423 -0.4604  0.3800
  428MOL0     C57708   2.307   1.514   1.498 -0.3471  1.0014 -0.2475
  428MOL0     C57709   2.361   1.535   1.362  0.1229 -0.4359  0.2518
  428MOL0     C57710   2.418   1.561   1.257 -0.2705  0.5193 -0.4554
  428MOL0     C57711   2.099   0.987   1.477  0.8705 -0.3694 -0.0029
  428MOL0     C57712   1.976   0.914   1.470  0.5412 -0.9424  0.0894
  428MOL0     H57713   1.576   0.714   1.867  2.1756  1.6684 -0.2694
  428MOL0     H57714   1.384   0.559   1.864  0.6530 -0.3861 -0.0980
  428MOL0     H57715   1.087   0.676   1.594  1.8465  0.6270  0.1647
  428MOL0     H57716   1.088   0.520   1.512  1.3448  0.9431 -0.9075
  428MOL0     H57717   0.887   0.528   1.664  0.7371 -0.4932 -1.5570
  428MOL0     H57718   1.003   0.412   1.705  1.1179  0.4900 -2.6239
  428MOL0     H57719   0.957   0.514   1.921 -0.6553  1.7631  0.5665
  428MOL0     H57720   1.115   0.565   1.865 -0.2868  3.0868  1.4449
  428MOL0     H57721   1.054   0.785   1.837 -2.4093  4.2931 -0.0485
  428MOL0     H57722   0.884   0.732   1.799 -2.3070 -1.6099  1.4255
  428MOL0     H57723   0.869   0.837   2.010  0.8450  1.4373 -0.3465
  428MOL0     H57724   0.875   0.673   2.047  0.1820  1.0225  1.2121
  428MOL0     H57725   1.005   0.763   2.218  0.0910  0.8471 -0.1206
  428MOL0     H57726   1.109   0.668   2.111  2.2145  1.0801  0.1426
  428MOL0     H57727   1.220   0.872   2.020  0.7121  1.1284 -0.3082
  428MOL0     H57728   1.084   0.970   2.087 -0.3159 -1.9699  0.1167
  428MOL0     H57729   1.320   0.858   2.246  1.0855  2.2765  1.3870
  428MOL0     H57730   1.163   0.894   2.318 -1.5373  3.0019  0.0360
  428MOL0     H57731   1.487   1.059   2.264  0.3378  0.7404 -1.0891
  428MOL0     H57732   1.517   1.367   2.195  0.2367 -0.3363  0.2582
  428MOL0     H57733   1.421   1.427   2.340 -2.6822 -1.9447  2.1769
  428MOL0     H57734   1.615   1.209   2.371 -0.8920 -0.3114 -1.0552
  428MOL0     H57735   1.520   1.280   2.502  1.5036  0.9966  1.5321
  428MOL0     H57736   1.696   1.460   2.364 -1.5762  1.3485 -0.3673
  428MOL0     H57737   1.745   1.374   2.501  0.2061 -1.2382 -2.4951
  428MOL0     H57738   1.537   1.481   2.622 -0.6958 -1.3454 -1.4647
  428MOL0     H57739   1.508   1.564   2.470 -1.0717  1.8057  1.2947
  428MOL0     H57740   1.955   1.612   2.483 -1.4903 -1.5249 -2.5480
  428MOL0     H57741   2.144   1.710   2.396 -2.3712  1.4602  3.6379
  428MOL0     H57742   2.087   1.699   2.225  1.2678  0.5997 -0.2798
  428MOL0     H57743   2.128   1.858   2.291  0.1385 -0.4603  0.6527
  428MOL0     H57744   2.227   2.054   2.051  0.7495  0.2317 -2.5799
  428MOL0     H57745   2.319   2.250   1.939 -1.0534 -1.1506 -2.5800
  428MOL0     H57746   2.447   2.476   2.068  0.2054 -1.7154  1.3263
  428MOL0     H57747   2.414   2.446   1.897 -0.7003 -0.6552  1.3345
  428MOL0     H57748   2.350   2.696   1.881 -2.2253 -1.8612  1.9363
  428MOL0     H57749   2.449   2.717   2.028 -2.0390 -0.8261  2.4250
  428MOL0     H57750   2.600   2.771   1.838 -0.0768 -0.1739  1.1925
  428MOL0     H57751   2.561   2.612   1.762  0.1494 -2.0384  1.2846
  428MOL0     H57752   2.708   2.669   2.019 -0.2868 -0.9536 -0.4181
  428MOL0     H57753   2.647   2.508   1.980  3.0089 -3.2353 -2.0859
  428MOL0     H57754   2.786   2.516   1.763  0.8308 -0.0058 -0.1890
  428MOL0     H57755   2.867   2.497   1.916  1.1221 -1.1678 -1.1686
  428MOL0     H57756   2.843   2.737   1.754  1.4358  0.0634 -1.3695
  428MOL0     H57757   2.920   2.727   1.913  0.5237  1.4279 -0.1664
  428MOL0     H57758   3.031   2.547   1.684  2.7092 -1.6608  0.7920
  428MOL0     H57759   3.083   2.556   1.846  2.6929  1.5145 -1.4611
  428MOL0     H57760   3.148   2.794   1.835  4.6604  1.9223 -0.2252
  428MOL0     H57761   3.097   2.798   1.661 -0.7641 -4.1555 -3.3640
  428MOL0     H57762   2.059   2.506   2.159 -0.5645 -0.3546  1.2021
  428MOL0     H57763   1.956   2.312   2.273 -0.4001  0.3211 -0.8715
  428MOL0     H57764   1.656   1.954   2.280  0.1332 -1.0945 -2.8901
  428MOL0     H57765   1.556   1.781   2.440 -0.1788  0.3735 -0.7510
  428MOL0     H57766   1.282   0.706   1.472 -1.5662 -1.8241  1.0305
  428MOL0     H57767   1.480   0.849   1.476  0.5041  1.4835  1.8237
  428MOL0     H57768   1.850   0.992   1.769 -0.7990  0.5111 -0.5153
  428MOL0     H57769   2.084   1.110   1.790  0.6469 -1.0247  0.6301
  428MOL0     H57770   2.446   1.111   1.596 -0.0008 -0.4186  0.3815
  428MOL0     H57771   2.372   1.032   1.465 -0.9794 -0.3929 -0.7647
  428MOL0     H57772   2.246   1.248   1.397  0.1538  4.3298 -1.1317
  428MOL0     H57773   2.421   1.255   1.372 -0.5321 -0.2301 -0.1145
  428MOL0     H57774   2.453   1.383   1.586  0.2420  0.3532 -0.1484
  428MOL0     H57775   2.293   1.360   1.640  1.9198  0.0654  1.6197
  428MOL0     H57776   2.327   1.593   1.572  0.4934  0.2932  0.3117
  428MOL0     H57777   2.198   1.527   1.498 -0.4618  1.6072  3.9039
  428MOL0     H57778   2.466   1.591   1.166 -0.9289 -0.9930 -1.3256
  428MOL0     H57779   2.157   0.993   1.385 -0.1613 -1.6382 -0.7727
  428MOL0     H57780   1.957   0.856   1.380 -1.2423 -0.6366  0.2368
  429MOL0     O57781   5.800   4.916   9.034  0.1693  0.2128  0.9296
  429MOL0     C57782   5.681   4.953   9.060 -0.3386 -0.6456  0.5103
  429MOL0     O57783   5.645   5.075   9.119  0.1186  0.0089 -0.5609
  429MOL0     C57784   5.698   5.186   9.076 -0.6218 -0.4755 -0.1861
  429MOL0     C57785   5.723   5.278   9.177  0.2381 -0.2019  0.6640
  429MOL0     C57786   5.789   5.400   9.157 -0.0050  0.7184  0.1106
  429MOL0     C57787   5.832   5.432   9.025 -0.1357 -0.3114 -0.8377
  429MOL0     O57788   5.899   5.546   9.000 -0.6210  0.3688 -0.7377
  429MOL0     C57789   5.973   5.619   9.095  0.3744 -0.4922 -0.5655
  429MOL0     C57790   6.065   5.717   9.026 -0.0321  0.5439  0.6320
  429MOL0     C57791   6.153   5.648   8.926 -0.3650  0.5528 -0.0368
  429MOL0     C57792   6.212   5.504   8.979 -0.2112  0.0058 -0.0891
  429MOL0     C57793   6.302   5.439   8.866 -0.9072 -1.3388 -0.7277
  429MOL0     C57794   6.304   5.288   8.843 -0.4528 -0.3036  0.1547
  429MOL0     C57795   6.165   5.225   8.794  0.0527 -0.0048  0.5806
  429MOL0     C57796   6.185   5.136   8.668  0.1616 -0.9269  0.1772
  429MOL0     N57797   6.056   5.083   8.630  0.2951  0.5215 -1.0433
  429MOL0     C57798   6.041   4.943   8.626  0.0503 -0.6086 -0.2772
  429MOL0     C57799   5.908   4.925   8.592 -0.2620 -0.7070  0.4007
  429MOL0     C57800   5.835   4.793   8.575 -0.1701  0.2469 -1.0244
  429MOL0     C57801   5.886   4.711   8.463  0.0134  0.1340 -0.0901
  429MOL0     C57802   5.783   4.593   8.426 -0.3305 -0.3108 -0.4143
  429MOL0     C57803   5.689   4.633   8.309  0.0456 -0.3987  1.2943
  429MOL0     O57804   5.613   4.748   8.343 -0.5734  0.0715 -0.0744
  429MOL0     C57805   5.476   4.735   8.355 -0.1151  1.4528  0.3806
  429MOL0     C57806   5.419   4.805   8.457 -0.8474 -0.0029 -0.3804
  429MOL0     C57807   5.280   4.817   8.467 -0.0470 -0.0684  0.2058
  429MOL0     C57808   5.237   4.889   8.591 -0.9092  0.0792 -0.5039
  429MOL0     C57809   5.201   4.745   8.381 -0.4623 -0.8016 -0.3010
  429MOL0     C57810   5.057   4.748   8.380 -0.3407 -0.9369 -0.4835
  429MOL0     O57811   4.994   4.863   8.435  0.4957 -0.7305  0.0831
  429MOL0     C57812   4.862   4.860   8.473 -0.1461  0.1237 -0.1296
  429MOL0     C57813   4.840   4.872   8.609  0.5935  0.4480  0.5601
  429MOL0     C57814   4.707   4.842   8.657 -0.0774 -0.4369 -1.0234
  429MOL0     C57815   4.598   4.823   8.567  0.4027 -0.2689  0.3956
  429MOL0     O57816   4.473   4.815   8.618 -0.2961 -0.0765  0.3129
  429MOL0     C57817   4.366   4.818   8.529 -0.0185 -0.4959  0.8967
  429MOL0     C57818   4.232   4.780   8.593  0.1299  0.5714 -0.5182
  429MOL0     C57819   4.176   4.882   8.697 -0.8344  0.3035 -0.4140
  429MOL0     C57820   4.231   4.881   8.838 -0.0438 -0.2563 -0.7772
  429MOL0     C57821   4.186   5.003   8.913 -0.3259  0.0691  0.1440
  429MOL0     C57822   4.033   5.008   8.929 -0.1803  0.2833  0.2720
  429MOL0     C57823   3.996   5.081   9.055  0.0484  0.2832 -0.2146
  429MOL0     C57824   3.845   5.087   9.064 -0.5588  0.2952  0.2583
  429MOL0    Cl57825   3.794   5.122   9.237 -0.2094 -0.0754  0.2169
  429MOL0     C57826   4.626   4.807   8.429  0.5826  0.3260  0.2288
  429MOL0     C57827   4.754   4.813   8.386  0.0433 -0.3378 -1.2346
  429MOL0     O57828   4.999   4.648   8.357  0.6772 -0.1134  0.1321
  429MOL0     C57829   5.259   4.657   8.283 -0.7994  0.1578  0.0125
  429MOL0     C57830   5.398   4.658   8.269  0.4972  0.5521  0.1079
  429MOL0     N57831   5.850   5.049   8.600 -0.3091 -0.7329 -0.1871
  429MOL0     N57832   5.937   5.134   8.605 -0.1919 -0.4621 -0.1359
  429MOL0     C57833   5.820   5.334   8.920  0.2175 -1.2029 -0.6729
  429MOL0     C57834   5.753   5.213   8.942  0.6393 -0.5984 -0.2094
  429MOL0     C57835   5.574   4.869   9.011 -0.0896  0.9755  0.5626
  429MOL0     C57836   5.457   4.863   9.090  0.7305  0.1967 -0.1753
  429MOL0     C57837   5.345   4.792   9.032 -0.3767 -0.3152 -1.2022
  429MOL0     C57838   5.362   4.700   8.922  0.7913 -0.5641 -0.1176
  429MOL0     O57839   5.271   4.608   8.885 -0.0226  0.4167  0.2581
  429MOL0     C57840   5.152   4.608   8.964 -0.4627 -0.4138 -0.3085
  429MOL0     C57841   5.052   4.726   8.928 -0.9497  1.2018 -0.3540
  429MOL0     C57842   4.955   4.742   9.048 -0.4497  0.1683 -0.0858
  429MOL0     C57843   4.890   4.880   9.027  0.2698  0.4432  0.9905
  429MOL0     C57844   4.742   4.872   9.055  0.0889  0.4767  0.1905
  429MOL0     C57845   4.627   4.858   9.086 -0.1050  0.3646  0.1209
  429MOL0     C57846   5.488   4.703   8.857 -0.3236 -0.6201  0.3724
  429MOL0     C57847   5.581   4.795   8.889 -0.0965  0.4126 -0.0117
  429MOL0     H57848   5.675   5.264   9.273 -0.2310  1.6815  0.7576
  429MOL0     H57849   5.796   5.464   9.244 -0.7617  0.9079  0.0379
  429MOL0     H57850   5.903   5.681   9.152  1.0167 -2.3427  2.4060
  429MOL0     H57851   6.022   5.554   9.167  3.2551  0.8411 -1.1999
  429MOL0     H57852   6.014   5.801   8.980  0.8054  0.2811 -0.8179
  429MOL0     H57853   6.120   5.752   9.114 -0.9705  2.4233  0.5187
  429MOL0     H57854   6.089   5.627   8.840 -3.0192  0.4423  1.8216
  429MOL0     H57855   6.227   5.722   8.894 -0.5782  0.4982 -0.6592
  429MOL0     H57856   6.256   5.524   9.077  1.1580 -1.3522 -0.3871
  429MOL0     H57857   6.128   5.439   9.004 -2.0071  2.7558  1.5926
  429MOL0     H57858   6.282   5.489   8.771  2.8123 -0.8821 -1.4289
  429MOL0     H57859   6.402   5.472   8.893 -2.2363  1.0301  1.7504
  429MOL0     H57860   6.377   5.258   8.767  1.3837  1.8050  0.9617
  429MOL0     H57861   6.337   5.233   8.932 -1.0425 -2.3372 -0.8311
  429MOL0     H57862   6.123   5.163   8.874 -1.3285  1.0754  0.7361
  429MOL0     H57863   6.088   5.302   8.779 -0.7856 -1.0837 -0.9563
  429MOL0     H57864   6.256   5.052   8.668 -0.6423 -1.6782 -1.6492
  429MOL0     H57865   6.210   5.202   8.584  2.0172 -2.0367 -0.2037
  429MOL0     H57866   6.109   4.861   8.648  0.9337  0.2069  0.1638
  429MOL0     H57867   5.843   4.735   8.667  2.5671  1.7469 -0.2218
  429MOL0     H57868   5.735   4.836   8.563  1.3185  3.6452 -2.5079
  429MOL0     H57869   5.980   4.663   8.491 -0.1647  0.0286  0.3398
  429MOL0     H57870   5.902   4.767   8.371 -0.4974  0.0849 -0.2114
  429MOL0     H57871   5.729   4.550   8.511  0.2427  0.6389  0.4623
  429MOL0     H57872   5.836   4.508   8.383 -0.9517 -0.8531 -0.1274
  429MOL0     H57873   5.625   4.552   8.272 -2.4692  1.8068  0.4301
  429MOL0     H57874   5.753   4.668   8.227  3.3314 -0.5244  3.6170
  429MOL0     H57875   5.485   4.848   8.531  0.1049 -1.4714 -0.3369
  429MOL0     H57876   5.230   4.992   8.556  4.0930  0.3538 -1.4658
  429MOL0     H57877   5.143   4.838   8.617 -0.6018 -0.0651  0.3666
  429MOL0     H57878   5.315   4.867   8.664 -0.1416 -0.0235 -1.3477
  429MOL0     H57879   4.920   4.892   8.679  0.5827  0.6701  0.5101
  429MOL0     H57880   4.681   4.853   8.762  0.0579  1.4400 -1.1542
  429MOL0     H57881   4.366   4.919   8.485  0.0425 -1.3509 -1.1890
  429MOL0     H57882   4.365   4.755   8.440 -1.3414 -1.6345  1.6804
  429MOL0     H57883   4.164   4.778   8.507 -0.3013  4.2520 -0.4177
  429MOL0     H57884   4.240   4.681   8.640 -2.8928  0.8222  0.7900
  429MOL0     H57885   4.067   4.887   8.709 -0.8507  0.8884 -0.7698
  429MOL0     H57886   4.207   4.975   8.648  0.5246  0.0922 -0.0034
  429MOL0     H57887   4.201   4.789   8.890 -1.4431  0.8488  0.4614
  429MOL0     H57888   4.340   4.890   8.832  0.0147 -1.6933 -4.1070
  429MOL0     H57889   4.213   5.092   8.856 -2.7113 -1.4484 -3.8152
  429MOL0     H57890   4.235   5.010   9.010  0.6276  0.7212 -0.3600
  429MOL0     H57891   3.986   5.064   8.848 -1.9577 -1.0611  0.3377
  429MOL0     H57892   3.995   4.906   8.928 -1.1037  0.6103  0.5427
  429MOL0     H57893   4.036   5.182   9.061 -0.3116  0.5374 -1.7883
  429MOL0     H57894   4.028   5.020   9.140  2.4021 -0.8360 -1.7910
  429MOL0     H57895   3.796   4.994   9.033  0.2185  0.7566 -2.6087
  429MOL0     H57896   3.796   5.150   8.989 -3.2622 -2.3442 -0.3727
  429MOL0     H57897   4.567   4.763   8.349  2.8873 -0.1589 -1.3202
  429MOL0     H57898   4.777   4.800   8.280  3.1858  3.2876 -1.1991
  429MOL0     H57899   5.195   4.598   8.217  1.6074 -0.1505 -2.2077
  429MOL0     H57900   5.459   4.609   8.194  2.9788 -0.2982  2.5176
  429MOL0     H57901   5.840   5.360   8.817 -1.7980 -0.2089 -0.8569
  429MOL0     H57902   5.730   5.151   8.856 -0.1342 -0.9640  0.2367
  429MOL0     H57903   5.443   4.937   9.168  2.3723  0.6860 -0.3077
  429MOL0     H57904   5.252   4.802   9.087  0.1982  0.4333 -0.3415
  429MOL0     H57905   5.098   4.514   8.947  0.6422 -0.7030 -2.5162
  429MOL0     H57906   5.185   4.597   9.068 -3.9886  1.2646  1.1350
  429MOL0     H57907   4.994   4.707   8.837 -2.7230 -2.7931  1.3255
  429MOL0     H57908   5.102   4.822   8.916 -1.0307  1.1376 -1.2458
  429MOL0     H57909   5.007   4.732   9.144 -0.9927  0.9710  0.3108
  429MOL0     H57910   4.887   4.658   9.033  1.8525 -1.6518 -0.8175
  429MOL0     H57911   4.896   4.929   8.930  1.0075 -0.2721  0.6729
  429MOL0     H57912   4.925   4.954   9.100 -0.6560  0.1131  1.7977
  429MOL0     H57913   4.524   4.837   9.106  0.0507 -1.3545 -0.6990
  429MOL0     H57914   5.502   4.624   8.784  0.0475 -0.0325 -0.1959
  429MOL0     H57915   5.677   4.803   8.837 -1.0132 -0.8833 -2.0256
  430MOL0     O57916   9.320   3.496   0.481  0.1802  0.3284 -0.4220
  430MOL0     C57917   9.341   3.564   0.382 -0.4960  0.6117 -0.3928
  430MOL0     O57918   9.258   3.571   0.279  0.2973  0.6123  0.2857
  430MOL0     C57919   9.154   3.488   0.274  0.1436  0.8858  0.1245
  430MOL0     C57920   9.021   3.528   0.303  0.2023 -0.3433 -0.4959
  430MOL0     C57921   8.913   3.443   0.294  0.6310  0.3575  0.5011
  430MOL0     C57922   8.932   3.306   0.262  0.5303 -0.9032  1.6432
  430MOL0     O57923   8.817   3.231   0.246 -0.1812 -0.2017 -0.1798
  430MOL0     C57924   8.833   3.135   0.149 -0.0746  0.7641 -0.2412
  430MOL0     C57925   8.784   3.001   0.205  0.4976 -0.7942 -1.2649
  430MOL0     C57926   8.837   2.972   0.346  0.1483  0.1920  0.7127
  430MOL0     C57927   8.784   2.834   0.386  0.6808  0.2868 -0.1478
  430MOL0     C57928   8.897   2.731   0.363  0.0984  0.6877  0.0362
  430MOL0     C57929   8.839   2.587   0.345 -0.1091  0.2336 -0.6428
  430MOL0     C57930   8.770   2.533   0.473  0.1531 -0.4486 -0.4095
  430MOL0     C57931   8.867   2.528   0.592  0.2693  0.7687 -0.5716
  430MOL0     N57932   8.846   2.414   0.686 -0.6495  0.7282  0.4507
  430MOL0     C57933   8.736   2.376   0.764 -0.5774 -0.4578  0.2465
  430MOL0     C57934   8.750   2.244   0.787 -0.4719  0.2903 -0.0557
  430MOL0     C57935   8.658   2.146   0.869 -0.2298  0.1970  0.9853
  430MOL0     C57936   8.529   2.204   0.927  0.4674  0.1848 -0.3764
  430MOL0     C57937   8.461   2.094   1.006  0.3783 -0.5392 -0.0796
  430MOL0     C57938   8.318   2.145   1.046  0.6003 -1.0278  0.2087
  430MOL0     O57939   8.284   2.115   1.188 -0.4797 -0.0878  0.5304
  430MOL0     C57940   8.302   1.997   1.238 -0.5276  0.4504  1.1875
  430MOL0     C57941   8.299   1.878   1.154 -0.2413  0.8317 -0.0361
  430MOL0     C57942   8.300   1.749   1.201  0.5668 -0.9218 -0.5681
  430MOL0     C57943   8.281   1.654   1.089 -1.0135  0.0748 -0.3252
  430MOL0     C57944   8.315   1.720   1.338 -0.1075 -0.6818 -0.2247
  430MOL0     C57945   8.335   1.579   1.393  0.0433 -0.4897  0.3454
  430MOL0     O57946   8.367   1.485   1.305  0.1591 -0.2235 -0.1569
  430MOL0     C57947   8.366   1.360   1.360  0.2135  0.8105 -0.5197
  430MOL0     C57948   8.264   1.305   1.438  0.4129 -0.8218 -0.3670
  430MOL0     C57949   8.282   1.183   1.498 -0.2603  0.4826  0.4104
  430MOL0     C57950   8.402   1.109   1.484 -0.1963  0.3748  0.1950
  430MOL0     O57951   8.401   0.985   1.544 -0.2037  0.0681  0.4179
  430MOL0     C57952   8.504   0.896   1.507 -0.4924  0.4076 -0.0126
  430MOL0     C57953   8.607   0.877   1.626  0.4165  0.1831  0.1555
  430MOL0     C57954   8.699   0.996   1.653  0.9279 -0.3361 -0.4408
  430MOL0     C57955   8.819   0.991   1.562 -0.8363  1.0375  0.1537
  430MOL0     C57956   8.901   1.117   1.584 -0.6327  0.5030  0.6007
  430MOL0     C57957   9.047   1.110   1.535  0.2979  0.1813 -0.2823
  430MOL0     C57958   9.124   1.241   1.567  0.5164 -0.3947  0.9312
  430MOL0     C57959   9.239   1.204   1.665 -0.2208  0.5084  1.0823
  430MOL0    Cl57960   9.332   1.348   1.717 -0.5066 -0.1661 -0.0790
  430MOL0     C57961   8.508   1.168   1.404 -0.0823  0.1948 -1.0236
  430MOL0     C57962   8.485   1.289   1.343  0.7807 -0.1098 -0.2064
  430MOL0     O57963   8.332   1.574   1.517 -0.5472 -0.1910 -0.9617
  430MOL0     C57964   8.305   1.832   1.423 -1.1844  0.1534  0.1441
  430MOL0     C57965   8.303   1.963   1.375 -0.2440 -0.4686 -0.5948
  430MOL0     N57966   8.863   2.197   0.725 -0.8230 -0.2131  0.1548
  430MOL0     N57967   8.912   2.295   0.662  0.4139  0.2302 -0.4484
  430MOL0     C57968   9.061   3.259   0.240 -0.4476  0.3315 -0.6231
  430MOL0     C57969   9.168   3.350   0.243  0.1532 -0.1492 -0.2259
  430MOL0     C57970   9.474   3.633   0.385 -0.0726 -0.9469 -0.1597
  430MOL0     C57971   9.516   3.693   0.258 -0.0958 -0.1390 -0.4408
  430MOL0     C57972   9.632   3.772   0.264 -0.6099 -0.7424  0.1111
  430MOL0     C57973   9.732   3.773   0.368  0.2422  0.0518  0.2656
  430MOL0     O57974   9.849   3.844   0.369 -0.6610 -0.8192  0.1314
  430MOL0     C57975   9.904   3.891   0.243 -0.0061  0.5345 -0.3390
  430MOL0     C57976   9.851   4.023   0.214  0.3086  0.7691  0.2153
  430MOL0     C57977   9.908   4.128   0.297 -0.1186 -0.4804 -0.1787
  430MOL0     C57978  10.053   4.159   0.258  0.3115 -0.4161 -0.7240
  430MOL0     C57979  10.074   4.232   0.132  1.3825  0.5266 -0.0260
  430MOL0     C57980  10.105   4.311   0.048 -0.5707  0.3956 -0.8344
  430MOL0     C57981   9.698   3.691   0.482  0.7512  0.3248  0.0152
  430MOL0     C57982   9.569   3.630   0.496 -0.6165  0.4210  0.3682
  430MOL0     H57983   9.013   3.632   0.335  1.9935  0.5506 -2.7177
  430MOL0     H57984   8.813   3.483   0.310 -0.7814 -1.5954 -2.5143
  430MOL0     H57985   8.762   3.158   0.068  0.8294  1.5686 -0.8198
  430MOL0     H57986   8.927   3.122   0.096 -1.6151 -0.2353 -2.9526
  430MOL0     H57987   8.676   3.020   0.217  1.0431  1.8498  0.2932
  430MOL0     H57988   8.808   2.917   0.139  1.0027 -2.5739  1.0304
  430MOL0     H57989   8.946   2.973   0.350  0.1643 -1.7130  1.6558
  430MOL0     H57990   8.798   3.050   0.413  0.6568 -1.4971  3.1243
  430MOL0     H57991   8.767   2.824   0.494 -0.2463 -0.1367 -0.3283
  430MOL0     H57992   8.697   2.799   0.330  0.1971  1.6677 -0.2914
  430MOL0     H57993   8.940   2.750   0.265  1.8195  0.0643  0.6332
  430MOL0     H57994   8.970   2.740   0.444 -1.8887  0.8441  1.9154
  430MOL0     H57995   8.767   2.582   0.263  1.2038 -0.3829 -1.8092
  430MOL0     H57996   8.909   2.514   0.304 -0.5839 -1.9180  2.0952
  430MOL0     H57997   8.678   2.591   0.488  1.7838  2.6986 -1.6057
  430MOL0     H57998   8.744   2.428   0.461  0.0708 -0.2870 -1.8514
  430MOL0     H57999   8.867   2.624   0.644 -0.1995 -0.1380  1.1801
  430MOL0     H58000   8.966   2.514   0.549  1.0199  5.1560 -0.6576
  430MOL0     H58001   8.661   2.439   0.811 -1.4691 -2.0427  1.0375
  430MOL0     H58002   8.630   2.068   0.797  2.8481 -0.8462  0.7643
  430MOL0     H58003   8.718   2.107   0.951 -0.9284 -1.9840  0.5460
  430MOL0     H58004   8.459   2.245   0.854  0.0976  2.0986  0.9788
  430MOL0     H58005   8.564   2.290   0.985 -0.8512 -0.3136  1.2529
  430MOL0     H58006   8.533   2.082   1.087  0.9067 -3.0743 -0.8605
  430MOL0     H58007   8.452   2.004   0.945  0.0076 -0.4572 -0.1490
  430MOL0     H58008   8.247   2.112   0.970  0.2059 -0.8550  0.5032
  430MOL0     H58009   8.312   2.254   1.037 -1.3228 -0.6362  4.1887
  430MOL0     H58010   8.284   1.897   1.049  0.0462 -0.5808 -0.3470
  430MOL0     H58011   8.380   1.613   1.069 -0.6501 -0.4647  2.2017
  430MOL0     H58012   8.221   1.567   1.116 -1.0984  0.5641  1.1956
  430MOL0     H58013   8.231   1.696   1.001 -0.2217 -2.0997 -1.8888
  430MOL0     H58014   8.172   1.356   1.465  1.0579  0.7639 -1.0355
  430MOL0     H58015   8.190   1.149   1.544  1.0694 -3.0428  0.7380
  430MOL0     H58016   8.460   0.799   1.482  1.1530 -0.1192 -0.9322
  430MOL0     H58017   8.560   0.925   1.418 -2.5526 -1.8958 -2.1983
  430MOL0     H58018   8.539   0.869   1.711  1.3951  1.7681  1.1475
  430MOL0     H58019   8.661   0.783   1.610 -1.9662 -1.2575  0.1058
  430MOL0     H58020   8.744   0.999   1.753  4.2520 -0.5934 -1.7847
  430MOL0     H58021   8.648   1.091   1.640  0.7447 -0.1917  1.1663
  430MOL0     H58022   8.881   0.901   1.575  0.0221  0.8129 -3.9835
  430MOL0     H58023   8.787   0.990   1.457  1.2322  1.8876 -0.5360
  430MOL0     H58024   8.895   1.147   1.690 -0.4018 -1.5434  1.2382
  430MOL0     H58025   8.848   1.190   1.522  1.5603  1.7141  0.0367
  430MOL0     H58026   9.090   1.033   1.599  0.9950  0.2455 -0.6700
  430MOL0     H58027   9.050   1.074   1.432 -1.9432 -1.1737  0.0575
  430MOL0     H58028   9.048   1.305   1.613  0.9267 -0.1307  1.2469
  430MOL0     H58029   9.148   1.297   1.476 -0.4281  1.6975  1.8937
  430MOL0     H58030   9.306   1.130   1.619 -0.5537  1.7427 -1.5710
  430MOL0     H58031   9.191   1.155   1.750  1.8698  0.8368  2.5209
  430MOL0     H58032   8.609   1.128   1.404 -0.1775 -0.5925  3.3763
  430MOL0     H58033   8.557   1.338   1.278  0.9118 -0.7501 -0.5494
  430MOL0     H58034   8.303   1.810   1.529 -2.6105 -1.5290 -0.1786
  430MOL0     H58035   8.322   2.038   1.451 -2.3032 -2.7539  2.4234
  430MOL0     H58036   9.076   3.152   0.226 -0.1871  0.5258 -1.9883
  430MOL0     H58037   9.268   3.315   0.220  1.6584  2.2057  2.0833
  430MOL0     H58038   9.453   3.686   0.170 -0.6237  3.6942 -0.5432
  430MOL0     H58039   9.652   3.810   0.165  0.4919 -2.9071 -0.5583
  430MOL0     H58040  10.013   3.888   0.249  0.0762 -0.0961 -1.5945
  430MOL0     H58041   9.875   3.817   0.167  1.1853 -1.9584  1.4700
  430MOL0     H58042   9.746   3.997   0.232  1.5074 -3.2457  2.8950
  430MOL0     H58043   9.869   4.041   0.108 -1.1799  1.6139  0.0722
  430MOL0     H58044   9.900   4.086   0.398  0.0832 -0.7086 -0.2581
  430MOL0     H58045   9.839   4.213   0.296  0.4367 -0.0211 -1.4300
  430MOL0     H58046  10.104   4.065   0.236  0.2892 -0.8180  0.8663
  430MOL0     H58047  10.109   4.213   0.334  2.3141 -1.6877 -1.2180
  430MOL0     H58048  10.116   4.379  -0.034  0.3446 -2.0248 -2.8473
  430MOL0     H58049   9.764   3.681   0.568  1.0685 -0.1247 -0.2779
  430MOL0     H58050   9.537   3.581   0.587 -0.7910  3.2662  1.9495
  431MOL0     O58051   4.094  10.867   9.274 -0.2753 -0.3714  0.6718
  431MOL0     C58052   4.027  10.965   9.235  0.6876 -0.1001  0.4610
  431MOL0     O58053   4.075  11.091   9.217 -0.2433 -0.3652 -0.5943
  431MOL0     C58054   4.206  11.126   9.245  0.1665  1.6663  0.2778
  431MOL0     C58055   4.224  11.232   9.330 -0.7060  0.2247 -0.2920
  431MOL0     C58056   4.358  11.280   9.350 -0.5609 -0.2386  0.6134
  431MOL0     C58057   4.472  11.216   9.295  0.8942 -0.1550 -0.8844
  431MOL0     O58058   4.598  11.250   9.312 -0.4580 -0.4881  1.7289
  431MOL0     C58059   4.643  11.357   9.380  0.3282 -0.2794  0.3926
  431MOL0     C58060   4.775  11.394   9.316  0.1175 -0.8527  0.3545
  431MOL0     C58061   4.745  11.483   9.192  0.2341 -0.2172 -0.3306
  431MOL0     C58062   4.873  11.492   9.114  0.1407 -0.5980  0.4682
  431MOL0     C58063   4.968  11.594   9.174  0.5354  0.4622 -0.6804
  431MOL0     C58064   5.112  11.582   9.122 -0.5268  0.1925  0.4301
  431MOL0     C58065   5.161  11.705   9.054  0.4572  0.5415  0.7380
  431MOL0     C58066   5.314  11.707   9.040  0.4469  0.7237 -0.4187
  431MOL0     N58067   5.360  11.841   9.001 -0.4610 -0.1291  0.2809
  431MOL0     C58068   5.354  11.900   8.872  0.7529  1.0311 -0.3816
  431MOL0     C58069   5.408  12.019   8.896  0.0140  0.3448  0.1589
  431MOL0     C58070   5.444  12.106   8.782 -0.1880  0.1526 -0.8448
  431MOL0     C58071   5.325  12.194   8.730 -0.3684 -0.1916 -0.2062
  431MOL0     C58072   5.339  12.343   8.777 -0.5205 -0.0932  0.0463
  431MOL0     C58073   5.312  12.360   8.923  0.6025  0.4411  0.2318
  431MOL0     O58074   5.174  12.334   8.921  0.4872  1.1876 -0.5031
  431MOL0     C58075   5.084  12.376   9.014 -0.1107 -0.1890  0.1536
  431MOL0     C58076   5.124  12.438   9.134  0.3451 -0.1499  0.0740
  431MOL0     C58077   5.027  12.470   9.234 -0.1774  0.1957  0.2003
  431MOL0     C58078   5.090  12.515   9.364  0.9239  0.8386 -0.5904
  431MOL0     C58079   4.893  12.458   9.207  0.0455  0.4075  0.0837
  431MOL0     C58080   4.791  12.493   9.318 -0.2837  0.5179  0.9410
  431MOL0     O58081   4.829  12.558   9.425 -0.6118 -0.4915  0.4324
  431MOL0     C58082   4.749  12.534   9.531  0.4229  0.6403 -0.4848
  431MOL0     C58083   4.812  12.465   9.640  0.0617 -0.8040 -0.2306
  431MOL0     C58084   4.749  12.430   9.762 -0.2841 -1.1553 -0.1099
  431MOL0     C58085   4.611  12.460   9.769  0.0451 -0.2970 -0.3212
  431MOL0     O58086   4.537  12.415   9.879 -0.1077  0.8271 -0.3885
  431MOL0     C58087   4.531  12.271   9.882 -1.5480  0.2476 -0.7620
  431MOL0     C58088   4.498  12.205   9.744  0.4591 -0.1366 -0.2200
  431MOL0     C58089   4.357  12.239   9.690  0.0255 -0.1441 -0.0937
  431MOL0     C58090   4.252  12.163   9.773  0.0895  0.3931  0.5107
  431MOL0     C58091   4.110  12.179   9.719  1.1368  0.2826 -0.0896
  431MOL0     C58092   4.004  12.088   9.792  0.3372  0.4306  0.4620
  431MOL0     C58093   3.863  12.088   9.722  0.6557  0.3901  0.1806
  431MOL0     C58094   3.756  12.018   9.812  0.4579 -0.2077 -0.1165
  431MOL0    Cl58095   3.772  11.841   9.811 -0.3791 -0.2205  0.3716
  431MOL0     C58096   4.548  12.541   9.675 -0.5233  0.1491 -0.0098
  431MOL0     C58097   4.615  12.571   9.557 -0.3877  0.6725 -0.3015
  431MOL0     O58098   4.673  12.468   9.275  0.1115 -0.1898 -0.1670
  431MOL0     C58099   4.853  12.407   9.081 -0.1889  0.4891  0.0080
  431MOL0     C58100   4.956  12.375   8.985 -0.7054  0.4492  0.3704
  431MOL0     N58101   5.430  12.044   9.027 -0.9414  1.1620 -0.0750
  431MOL0     N58102   5.408  11.935   9.091 -0.0716  0.3429 -0.2387
  431MOL0     C58103   4.440  11.109   9.202 -0.1743  0.2054 -0.5139
  431MOL0     C58104   4.310  11.060   9.184 -1.1143 -0.3424 -0.0775
  431MOL0     C58105   3.890  10.944   9.219  1.3660  0.2557  0.2336
  431MOL0     C58106   3.835  10.812   9.248  0.2285 -0.0072 -0.4530
  431MOL0     C58107   3.698  10.780   9.217  0.7249 -0.6019  0.1295
  431MOL0     C58108   3.611  10.888   9.183 -0.0375  0.3050 -0.1136
  431MOL0     O58109   3.476  10.865   9.167  0.1071 -0.2194  0.6097
  431MOL0     C58110   3.422  10.732   9.136  0.0321  0.7073 -0.3641
  431MOL0     C58111   3.268  10.740   9.167 -0.3921  0.4434 -0.6968
  431MOL0     C58112   3.186  10.665   9.057 -0.5524 -0.4656  0.4034
  431MOL0     C58113   3.061  10.604   9.111  0.3790 -0.3099 -0.0371
  431MOL0     C58114   2.959  10.704   9.133  0.8506  0.0814  0.4941
  431MOL0     C58115   2.854  10.763   9.156  0.0167  0.1348 -0.8700
  431MOL0     C58116   3.666  11.012   9.162 -0.1514  0.0759 -0.3489
  431MOL0     C58117   3.807  11.040   9.175  0.7408  0.3282 -0.6066
  431MOL0     H58118   4.151  11.292   9.384  0.0661  0.2126  0.8222
  431MOL0     H58119   4.373  11.365   9.416  4.0572  0.1800 -0.6452
  431MOL0     H58120   4.575  11.441   9.365  1.6465  1.0191  1.3567
  431MOL0     H58121   4.654  11.336   9.487  3.6800 -1.0078  0.0123
  431MOL0     H58122   4.832  11.450   9.391 -0.2727 -0.6805  0.5277
  431MOL0     H58123   4.830  11.304   9.288 -1.4766 -1.0710 -2.3664
  431MOL0     H58124   4.661  11.432   9.144 -2.4541  0.4721  3.1930
  431MOL0     H58125   4.713  11.584   9.218  2.8189  0.6587 -0.3043
  431MOL0     H58126   4.922  11.394   9.107  2.8621  0.6046  1.3599
  431MOL0     H58127   4.847  11.529   9.014 -3.3448 -0.6824  1.2384
  431MOL0     H58128   4.935  11.693   9.142  2.4503  0.8073 -1.7191
  431MOL0     H58129   4.960  11.598   9.284 -1.4941  3.4175 -0.7960
  431MOL0     H58130   5.178  11.570   9.208  2.0933 -0.1258 -1.5039
  431MOL0     H58131   5.132  11.496   9.057  1.2705  0.0595  1.1112
  431MOL0     H58132   5.111  11.712   8.957 -1.2022 -1.2122  1.4048
  431MOL0     H58133   5.121  11.788   9.114 -3.1037 -2.9073  3.7098
  431MOL0     H58134   5.347  11.635   8.966 -0.4679  0.6005 -0.7262
  431MOL0     H58135   5.360  11.686   9.137  2.7791  3.6739 -0.7488
  431MOL0     H58136   5.332  11.843   8.783 -3.8348 -0.2782  1.3162
  431MOL0     H58137   5.533  12.167   8.796 -0.0987  0.7182 -3.3716
  431MOL0     H58138   5.479  12.057   8.690 -1.0776  2.3364 -2.4358
  431MOL0     H58139   5.230  12.142   8.746 -0.8516  0.3576 -1.1854
  431MOL0     H58140   5.330  12.199   8.621  0.7632 -0.2606 -0.1683
  431MOL0     H58141   5.274  12.404   8.714 -3.6850 -1.4842  1.6945
  431MOL0     H58142   5.440  12.381   8.760  1.1628 -3.1903  1.9687
  431MOL0     H58143   5.331  12.463   8.956  0.7331  2.5081 -5.2494
  431MOL0     H58144   5.365  12.284   8.980 -0.1622 -0.7106 -0.5536
  431MOL0     H58145   5.231  12.458   9.136 -0.0868  2.5991 -0.0153
  431MOL0     H58146   5.199  12.511   9.366  1.0093 -0.4567 -3.5169
  431MOL0     H58147   5.063  12.621   9.369  2.3215  1.2644 -1.6019
  431MOL0     H58148   5.049  12.467   9.454  1.8540  1.0096 -0.0621
  431MOL0     H58149   4.916  12.442   9.622 -0.6757 -3.5374 -1.5197
  431MOL0     H58150   4.789  12.381   9.850 -2.8549  0.2783  2.0236
  431MOL0     H58151   4.630  12.242   9.918 -0.5055  0.2684 -3.3663
  431MOL0     H58152   4.458  12.237   9.955  1.5326 -6.1621  0.0302
  431MOL0     H58153   4.566  12.228   9.662 -0.8134 -1.0851 -1.5980
  431MOL0     H58154   4.512  12.096   9.745  1.5902 -0.0630  2.6550
  431MOL0     H58155   4.354  12.192   9.592  1.4364 -2.7854  1.0270
  431MOL0     H58156   4.338  12.346   9.675 -1.0116 -0.3591 -0.3658
  431MOL0     H58157   4.274  12.057   9.757 -0.0951  0.5420 -0.9328
  431MOL0     H58158   4.250  12.190   9.879 -0.3971  1.9761  0.1255
  431MOL0     H58159   4.114  12.148   9.614  1.3276  1.8122 -0.5580
  431MOL0     H58160   4.081  12.284   9.715 -0.8512 -0.2752 -1.9892
  431MOL0     H58161   4.047  11.988   9.791 -0.0084  0.2157  2.4817
  431MOL0     H58162   3.995  12.109   9.899  0.8694 -1.0203  0.8127
  431MOL0     H58163   3.872  12.027   9.632 -3.1641 -1.3803  0.7746
  431MOL0     H58164   3.843  12.193   9.701  3.0932  1.1856  1.5104
  431MOL0     H58165   3.658  12.054   9.782  1.3525  2.1473 -0.5142
  431MOL0     H58166   3.767  12.058   9.914 -1.7085  1.6334 -0.5167
  431MOL0     H58167   4.450  12.584   9.689 -0.7838  0.1526 -1.5983
  431MOL0     H58168   4.571  12.633   9.479 -1.2157  0.2314 -0.1926
  431MOL0     H58169   4.748  12.402   9.055 -0.5527  5.7937 -0.6525
  431MOL0     H58170   4.919  12.335   8.891 -2.1162  0.9669  0.6882
  431MOL0     H58171   4.518  11.079   9.133 -0.0935 -0.1364 -0.2796
  431MOL0     H58172   4.301  10.969   9.125  1.5101 -0.2616 -0.7190
  431MOL0     H58173   3.903  10.743   9.297  2.0042  0.4354 -2.1248
  431MOL0     H58174   3.670  10.677   9.235 -0.5592 -0.2548  0.1908
  431MOL0     H58175   3.441  10.719   9.029 -0.1473 -0.1849 -0.3027
  431MOL0     H58176   3.464  10.641   9.181 -0.9969  0.4908  0.2028
  431MOL0     H58177   3.240  10.845   9.158  3.3456  1.5081 -1.5929
  431MOL0     H58178   3.244  10.703   9.267 -0.2749 -1.5108 -1.3539
  431MOL0     H58179   3.246  10.591   9.002 -2.5355 -1.8845  0.0487
  431MOL0     H58180   3.162  10.746   8.988 -1.0762 -1.1923 -0.2849
  431MOL0     H58181   3.075  10.555   9.209  1.0601  2.1924  1.1906
  431MOL0     H58182   3.021  10.524   9.048  0.1808 -2.7054  2.8625
  431MOL0     H58183   2.767  10.812   9.194 -0.9008 -1.7086 -0.4617
  431MOL0     H58184   3.597  11.088   9.127 -2.1285 -0.9691  1.0497
  431MOL0     H58185   3.837  11.141   9.150 -2.4628  1.4569 -0.3861
  432MOL0     O58186   4.596   8.024   0.481  0.1459  0.0013  0.0263
  432MOL0     C58187   4.481   8.064   0.441 -0.1531 -0.3901  0.3917
  432MOL0     O58188   4.440   8.190   0.414 -0.4613  0.5955  0.1412
  432MOL0     C58189   4.526   8.290   0.463  0.1384  0.5707 -0.5902
  432MOL0     C58190   4.605   8.379   0.390 -0.1915 -0.0219 -0.1275
  432MOL0     C58191   4.687   8.479   0.449  0.3910  0.5118 -0.1915
  432MOL0     C58192   4.663   8.513   0.583 -0.4989  0.2787  0.1016
  432MOL0     O58193   4.731   8.628   0.631 -0.2829 -0.6632 -0.0997
  432MOL0     C58194   4.699   8.676   0.762 -0.1714  0.6261  0.4712
  432MOL0     C58195   4.760   8.807   0.784 -0.3274 -1.1919 -0.1691
  432MOL0     C58196   4.910   8.808   0.796 -0.9018  0.2085  0.0906
  432MOL0     C58197   4.988   8.811   0.658 -0.4731 -0.2267  0.1697
  432MOL0     C58198   5.140   8.859   0.662 -0.3037 -0.0582 -0.1627
  432MOL0     C58199   5.213   8.775   0.776 -0.4693 -1.1252  0.2462
  432MOL0     C58200   5.368   8.804   0.755  0.4817 -0.3870 -0.0736
  432MOL0     C58201   5.461   8.732   0.855 -1.0922 -0.0992  0.2751
  432MOL0     N58202   5.504   8.594   0.841 -0.0261  0.2514  0.0259
  432MOL0     C58203   5.431   8.495   0.776  0.2778  0.2780  0.0135
  432MOL0     C58204   5.510   8.393   0.759 -0.0167  0.3436 -0.4692
  432MOL0     C58205   5.478   8.257   0.702 -0.0161 -0.2326  0.6494
  432MOL0     C58206   5.432   8.150   0.804 -0.7194  0.8095 -1.2734
  432MOL0     C58207   5.521   8.146   0.933 -0.5232  0.2260  0.2201
  432MOL0     C58208   5.478   8.030   1.029 -0.2846 -0.8277 -0.0453
  432MOL0     O58209   5.556   8.032   1.154  0.1379  0.3311  0.2361
  432MOL0     C58210   5.510   7.954   1.260 -0.0864 -0.0136  0.0065
  432MOL0     C58211   5.440   7.833   1.232  0.3679  0.5574 -0.6384
  432MOL0     C58212   5.415   7.743   1.336  0.2061 -0.2415 -0.1853
  432MOL0     C58213   5.359   7.606   1.302 -0.5105  0.1281  1.0758
  432MOL0     C58214   5.445   7.786   1.472 -0.4121 -0.5464 -0.4280
  432MOL0     C58215   5.421   7.700   1.587  0.1408 -0.3746  1.5779
  432MOL0     O58216   5.478   7.731   1.703 -0.2565  0.3028  0.2573
  432MOL0     C58217   5.463   7.644   1.801  0.0627  0.4174 -1.3453
  432MOL0     C58218   5.529   7.519   1.798  0.0299  1.1911 -0.5122
  432MOL0     C58219   5.510   7.428   1.907 -0.6710 -0.5758  0.2236
  432MOL0     C58220   5.452   7.472   2.025 -0.7487  0.1648 -0.0751
  432MOL0     O58221   5.448   7.396   2.141  0.1115 -0.6422  0.1345
  432MOL0     C58222   5.348   7.297   2.132 -0.5320  0.1795 -0.8864
  432MOL0     C58223   5.214   7.348   2.189 -0.0805 -0.3020 -0.3395
  432MOL0     C58224   5.098   7.252   2.153  0.8628 -1.1319 -0.6522
  432MOL0     C58225   4.969   7.309   2.207 -0.1341  0.6815  0.2051
  432MOL0     C58226   4.858   7.202   2.210  0.2704 -0.8912  0.0291
  432MOL0     C58227   4.722   7.251   2.260  0.9560 -0.4116  0.1665
  432MOL0     C58228   4.612   7.213   2.157 -0.2130 -0.1169  0.4310
  432MOL0     C58229   4.486   7.277   2.197  0.2900 -0.3306  0.8781
  432MOL0    Cl58230   4.361   7.223   2.084  0.0755  0.2122  0.3483
  432MOL0     C58231   5.397   7.598   2.034  0.9976  1.2548 -0.3659
  432MOL0     C58232   5.402   7.678   1.915  0.1447 -0.4073 -0.1348
  432MOL0     O58233   5.340   7.610   1.576  0.8270  0.4137  0.6597
  432MOL0     C58234   5.500   7.907   1.489  0.3794 -0.7681  0.1163
  432MOL0     C58235   5.545   7.991   1.390  0.7154 -0.3777 -0.4492
  432MOL0     N58236   5.631   8.426   0.814  0.0705 -0.0040 -0.3820
  432MOL0     N58237   5.627   8.547   0.865  0.2080 -0.0057  0.4538
  432MOL0     C58238   4.584   8.432   0.661 -0.6559  0.4068 -0.0597
  432MOL0     C58239   4.515   8.328   0.598 -0.1201 -0.5831 -0.0530
  432MOL0     C58240   4.375   7.969   0.428  0.9302 -0.3979  0.4560
  432MOL0     C58241   4.243   8.002   0.385 -0.0620 -0.1430  0.4221
  432MOL0     C58242   4.134   7.924   0.397  0.1088 -0.2970  0.7821
  432MOL0     C58243   4.159   7.791   0.437  0.2435 -0.0346 -0.5555
  432MOL0     O58244   4.048   7.711   0.455  0.0318 -0.6848 -0.0710
  432MOL0     C58245   4.032   7.591   0.371 -0.7837  0.6045 -0.2959
  432MOL0     C58246   3.918   7.509   0.433  0.7632  0.6739 -0.3254
  432MOL0     C58247   3.911   7.374   0.363  0.7555 -0.2252  0.7693
  432MOL0     C58248   3.821   7.270   0.429  1.1303  0.2535 -0.5781
  432MOL0     C58249   3.868   7.244   0.564 -0.2429  0.8300  0.1144
  432MOL0     C58250   3.916   7.220   0.673  0.2011 -1.1403 -0.2240
  432MOL0     C58251   4.292   7.741   0.464 -0.4185 -0.1118  0.6916
  432MOL0     C58252   4.396   7.833   0.473 -0.0991 -0.2625 -0.5098
  432MOL0     H58253   4.620   8.366   0.284 -1.2660 -1.7590 -0.1150
  432MOL0     H58254   4.751   8.543   0.388 -0.0520 -0.6558 -1.9706
  432MOL0     H58255   4.590   8.675   0.768 -0.2210 -0.0444 -0.3665
  432MOL0     H58256   4.738   8.601   0.831 -2.4044 -4.8561 -3.5105
  432MOL0     H58257   4.722   8.884   0.716  0.5901 -0.3954  0.1921
  432MOL0     H58258   4.726   8.846   0.880 -1.1305 -0.9031 -0.5614
  432MOL0     H58259   4.940   8.894   0.857 -0.1736 -0.4400  0.6550
  432MOL0     H58260   4.934   8.718   0.853  0.4006  0.1003 -0.6029
  432MOL0     H58261   4.993   8.709   0.620  0.8558 -0.1851  0.2035
  432MOL0     H58262   4.926   8.874   0.593 -1.2038  0.0113  1.0702
  432MOL0     H58263   5.165   8.837   0.558 -2.4060 -0.2858 -0.6711
  432MOL0     H58264   5.159   8.967   0.669  0.8638 -0.0552 -2.5528
  432MOL0     H58265   5.195   8.824   0.873  3.1061 -0.3433  0.6784
  432MOL0     H58266   5.180   8.671   0.771 -0.1230 -1.2174 -0.1738
  432MOL0     H58267   5.400   8.803   0.650 -0.6019  1.0114 -0.4521
  432MOL0     H58268   5.372   8.910   0.777 -0.7095  0.2337 -2.4562
  432MOL0     H58269   5.418   8.734   0.955 -1.4711  4.5145  0.2227
  432MOL0     H58270   5.546   8.799   0.870 -1.6956  0.0551  4.0360
  432MOL0     H58271   5.327   8.496   0.746  1.0652 -0.2467 -3.1339
  432MOL0     H58272   5.402   8.261   0.624  2.6299  0.7744 -2.0849
  432MOL0     H58273   5.560   8.231   0.635 -0.2849  2.2312 -0.7680
  432MOL0     H58274   5.439   8.050   0.761 -2.5809 -0.7817  1.8374
  432MOL0     H58275   5.327   8.167   0.829  0.0571  0.0295  3.5032
  432MOL0     H58276   5.511   8.242   0.984 -3.5316  2.7144 -4.2945
  432MOL0     H58277   5.622   8.129   0.894 -1.4143 -2.4120 -1.1586
  432MOL0     H58278   5.484   7.934   0.977 -0.3403 -0.1058 -1.4401
  432MOL0     H58279   5.376   8.053   1.058  0.8178  0.8102  2.9602
  432MOL0     H58280   5.400   7.805   1.135 -0.6916  1.5931 -0.5231
  432MOL0     H58281   5.424   7.579   1.218 -0.3904 -1.7052  1.7236
  432MOL0     H58282   5.373   7.521   1.369 -0.4056 -0.8243 -0.1059
  432MOL0     H58283   5.251   7.612   1.285 -0.3036  0.3918 -0.3161
  432MOL0     H58284   5.602   7.506   1.718  1.6744 -1.4977  1.2859
  432MOL0     H58285   5.553   7.328   1.911  1.3095  0.2668  4.0057
  432MOL0     H58286   5.337   7.264   2.028  0.6766 -0.8493 -0.7225
  432MOL0     H58287   5.393   7.213   2.186 -3.2539  0.3045  1.8423
  432MOL0     H58288   5.207   7.375   2.295 -3.8422 -1.7368 -0.0538
  432MOL0     H58289   5.194   7.447   2.148 -0.7209 -1.2495 -2.4599
  432MOL0     H58290   5.111   7.152   2.196  2.2874 -0.4836  0.5223
  432MOL0     H58291   5.089   7.249   2.044  3.3796  1.7707 -1.0876
  432MOL0     H58292   4.999   7.349   2.305 -0.5037  0.7399  0.2983
  432MOL0     H58293   4.939   7.401   2.155  0.2874  1.1114  0.7046
  432MOL0     H58294   4.890   7.112   2.263  1.4096 -1.1380 -1.0275
  432MOL0     H58295   4.835   7.178   2.106 -0.7162  2.0536 -0.5545
  432MOL0     H58296   4.697   7.213   2.359 -0.1588  2.3355  1.0370
  432MOL0     H58297   4.737   7.359   2.268 -0.6504 -0.1174 -0.4124
  432MOL0     H58298   4.608   7.106   2.138  3.7820 -0.1237 -1.4059
  432MOL0     H58299   4.634   7.259   2.060  0.7640  0.3651  0.8683
  432MOL0     H58300   4.494   7.385   2.213 -1.4516 -0.2485  1.3749
  432MOL0     H58301   4.459   7.226   2.290  0.6294  0.1170  1.2279
  432MOL0     H58302   5.352   7.643   2.122 -0.7326  0.6444 -0.8944
  432MOL0     H58303   5.345   7.770   1.912 -0.4511 -0.7607 -2.7701
  432MOL0     H58304   5.534   7.934   1.589 -0.5282  0.9164  0.0089
  432MOL0     H58305   5.577   8.094   1.396  1.3831 -0.6302  0.7399
  432MOL0     H58306   4.589   8.449   0.768  4.1634 -0.0460  0.0174
  432MOL0     H58307   4.443   8.269   0.653  1.6053 -0.4490  2.5533
  432MOL0     H58308   4.227   8.103   0.351 -0.3621 -0.0920  0.7145
  432MOL0     H58309   4.038   7.966   0.367  1.4236  2.3120 -0.1195
  432MOL0     H58310   4.011   7.612   0.266  1.1563 -0.1515 -0.8752
  432MOL0     H58311   4.121   7.528   0.363 -1.2669  0.0701 -1.7228
  432MOL0     H58312   3.816   7.549   0.431 -0.5618 -2.2217  1.4945
  432MOL0     H58313   3.946   7.476   0.534  2.1686 -0.4940 -1.0658
  432MOL0     H58314   4.002   7.313   0.357  1.3747  0.5763  1.7545
  432MOL0     H58315   3.877   7.398   0.262  3.2984  3.4843  0.5924
  432MOL0     H58316   3.811   7.181   0.366  0.7589 -0.1888  0.0941
  432MOL0     H58317   3.725   7.320   0.442  0.2476 -1.1203 -1.6276
  432MOL0     H58318   3.965   7.204   0.767  1.1561 -0.3146 -0.5561
  432MOL0     H58319   4.304   7.634   0.477  0.7867 -0.4982 -2.5451
  432MOL0     H58320   4.492   7.793   0.503  0.1410  0.9390  0.4140
  433MOL0     O58321   8.932  10.021   2.687  0.2284 -0.3453 -0.5038
  433MOL0     C58322   8.910   9.899   2.686  0.4373  0.1615  0.4405
  433MOL0     O58323   8.820   9.839   2.764 -0.2231 -0.1643  0.0534
  433MOL0     C58324   8.739   9.902   2.859 -0.2709  0.1545  0.9062
  433MOL0     C58325   8.683  10.027   2.833 -0.7410  0.6040 -0.6988
  433MOL0     C58326   8.606  10.093   2.926 -0.4888 -0.0486  0.8329
  433MOL0     C58327   8.587  10.030   3.054  0.5695  0.1128  0.6155
  433MOL0     O58328   8.522  10.100   3.154  0.4277  0.1821  0.2380
  433MOL0     C58329   8.402  10.160   3.124  0.5905  0.3016  0.6360
  433MOL0     C58330   8.348  10.234   3.244  0.2947  0.0919  0.7198
  433MOL0     C58331   8.255  10.156   3.332 -0.4491 -0.8295 -0.3145
  433MOL0     C58332   8.299  10.023   3.370  0.3912 -0.6961 -0.3112
  433MOL0     C58333   8.232   9.965   3.489  0.0002  0.1067  0.1553
  433MOL0     C58334   8.249   9.814   3.492  0.2632  0.1115  0.0983
  433MOL0     C58335   8.339   9.777   3.609 -0.5907 -0.4732 -0.4308
  433MOL0     C58336   8.271   9.808   3.739 -0.0040  0.8019 -0.3092
  433MOL0     N58337   8.155   9.718   3.753  0.2396  0.0437 -0.3859
  433MOL0     C58338   8.148   9.584   3.725 -0.6486 -0.6029 -0.2611
  433MOL0     C58339   8.012   9.563   3.731  0.0194 -0.0321  0.2625
  433MOL0     C58340   7.953   9.429   3.695 -1.0180  0.1726  0.8234
  433MOL0     C58341   7.899   9.339   3.811 -0.3958 -0.2531  0.3873
  433MOL0     C58342   7.997   9.285   3.920 -0.1643  0.5209 -0.4058
  433MOL0     C58343   7.924   9.170   4.003  0.7179  0.0403 -0.0206
  433MOL0     O58344   7.802   9.218   4.055  0.4826  0.1195  0.0854
  433MOL0     C58345   7.732   9.133   4.145  0.1222 -0.0262  1.1820
  433MOL0     C58346   7.778   9.004   4.190 -0.0899 -0.5242 -0.2521
  433MOL0     C58347   7.704   8.930   4.275  0.6676 -0.4368 -0.2207
  433MOL0     C58348   7.749   8.793   4.312 -0.4419 -1.1303 -0.4516
  433MOL0     C58349   7.582   8.987   4.332 -0.3424  0.1619 -0.0954
  433MOL0     C58350   7.488   8.911   4.421  0.7070 -0.0694 -0.2210
  433MOL0     O58351   7.544   8.840   4.520 -0.6962 -0.0906 -0.1073
  433MOL0     C58352   7.462   8.752   4.588  0.2727  0.1669 -0.1493
  433MOL0     C58353   7.349   8.676   4.533  1.3715 -0.5940  0.7119
  433MOL0     C58354   7.279   8.595   4.625  0.2711  0.7454  0.0451
  433MOL0     C58355   7.311   8.579   4.765  0.1004  0.6745 -0.5893
  433MOL0     O58356   7.225   8.504   4.852  0.8993  0.1227  0.9108
  433MOL0     C58357   7.296   8.455   4.972  0.8086 -0.1068 -0.7589
  433MOL0     C58358   7.217   8.334   5.034 -0.2256 -0.7298 -0.6653
  433MOL0     C58359   7.099   8.385   5.122  0.4138 -0.0241 -1.1778
  433MOL0     C58360   7.035   8.265   5.189  0.5119 -0.0548  0.1639
  433MOL0     C58361   6.952   8.299   5.310 -0.1019 -0.1184  0.0088
  433MOL0     C58362   6.873   8.192   5.384  0.2679  0.1715  0.3000
  433MOL0     C58363   6.762   8.143   5.301 -0.3841  0.4225  0.9711
  433MOL0     C58364   6.666   8.060   5.393 -0.5757  0.5481  0.6232
  433MOL0    Cl58365   6.582   8.125   5.540 -0.2137  0.4325  0.1034
  433MOL0     C58366   7.428   8.648   4.797 -0.8689  0.1915 -0.8344
  433MOL0     C58367   7.507   8.726   4.715  0.2523 -0.4792 -0.4998
  433MOL0     O58368   7.370   8.931   4.404 -0.0867 -0.6148  0.1514
  433MOL0     C58369   7.539   9.121   4.294  0.2875 -0.0724 -0.2762
  433MOL0     C58370   7.615   9.183   4.198  0.1647 -0.1042  0.3423
  433MOL0     N58371   7.947   9.669   3.786 -0.3660  0.5240  0.2197
  433MOL0     N58372   8.036   9.765   3.803  0.5733  0.0596 -0.3308
  433MOL0     C58373   8.640   9.909   3.085 -1.0251 -0.0375 -0.8285
  433MOL0     C58374   8.715   9.842   2.988 -0.2374  0.1836  0.2389
  433MOL0     C58375   8.986   9.815   2.593  0.3182 -0.1578  0.5697
  433MOL0     C58376   8.950   9.688   2.548 -0.3978  0.5530 -1.1672
  433MOL0     C58377   9.022   9.617   2.462 -0.6507 -0.2272  0.0555
  433MOL0     C58378   9.150   9.677   2.419 -0.2445  0.4065  0.3906
  433MOL0     O58379   9.212   9.631   2.306 -0.6812 -0.0531 -0.2289
  433MOL0     C58380   9.257   9.492   2.301  0.4841 -0.8992 -0.6775
  433MOL0     C58381   9.212   9.412   2.176 -0.3194 -0.5430 -0.2381
  433MOL0     C58382   9.233   9.256   2.193  0.3072 -0.8497  0.2345
  433MOL0     C58383   9.378   9.212   2.198  0.7019  0.4266  0.8241
  433MOL0     C58384   9.444   9.250   2.069 -0.4177  0.0699  0.1291
  433MOL0     C58385   9.508   9.252   1.968 -0.4279 -1.2391 -0.5208
  433MOL0     C58386   9.188   9.797   2.459 -0.1389  0.3281 -0.6651
  433MOL0     C58387   9.110   9.864   2.546 -0.5473  0.6353  0.4697
  433MOL0     H58388   8.706  10.071   2.736 -1.2870  0.1996 -1.0157
  433MOL0     H58389   8.571  10.191   2.894  1.1827 -0.0595 -1.2721
  433MOL0     H58390   8.419  10.244   3.056  1.6182 -1.0681 -0.8728
  433MOL0     H58391   8.330  10.083   3.092  3.0162 -2.4543  1.3565
  433MOL0     H58392   8.427  10.268   3.311  0.1934  1.8904 -0.0354
  433MOL0     H58393   8.293  10.324   3.216 -3.9417 -2.1365  1.0426
  433MOL0     H58394   8.230  10.213   3.422 -0.0735 -0.2273 -0.5897
  433MOL0     H58395   8.155  10.153   3.288 -1.6085  0.6021  2.0254
  433MOL0     H58396   8.300   9.956   3.284 -0.6294  0.2655 -1.1081
  433MOL0     H58397   8.406  10.026   3.393  0.2131  1.9278  0.5729
  433MOL0     H58398   8.235  10.004   3.591 -1.1206 -5.9684  2.9222
  433MOL0     H58399   8.128   9.977   3.455  0.7321  1.6762 -1.7356
  433MOL0     H58400   8.152   9.768   3.511  1.7344 -1.8024  4.5278
  433MOL0     H58401   8.296   9.774   3.402 -0.5680  0.8882 -0.6957
  433MOL0     H58402   8.380   9.677   3.592  1.7510  0.6342 -1.9423
  433MOL0     H58403   8.422   9.847   3.591 -0.3014 -0.5437  0.6007
  433MOL0     H58404   8.252   9.915   3.751  0.5048  0.7074  1.8399
  433MOL0     H58405   8.341   9.776   3.817 -2.4591  0.2983  1.8585
  433MOL0     H58406   8.227   9.518   3.690 -0.5661 -1.3755  1.2608
  433MOL0     H58407   7.871   9.452   3.627 -0.6139  0.9252  0.5780
  433MOL0     H58408   8.028   9.377   3.635 -1.6229  1.9452 -1.6246
  433MOL0     H58409   7.844   9.253   3.771 -2.3944  1.3135 -0.4028
  433MOL0     H58410   7.829   9.411   3.855  0.4973  1.7578 -1.3437
  433MOL0     H58411   8.017   9.374   3.981 -2.1768  1.2404 -0.7144
  433MOL0     H58412   8.092   9.254   3.876  0.3485  0.7311  0.5228
  433MOL0     H58413   7.996   9.138   4.079  0.7643 -0.4035 -0.2453
  433MOL0     H58414   7.915   9.092   3.927 -1.3718  1.2512 -1.0902
  433MOL0     H58415   7.873   8.976   4.146  0.0199 -0.1555 -0.2576
  433MOL0     H58416   7.797   8.798   4.409 -0.6610 -1.3769 -0.3299
  433MOL0     H58417   7.669   8.719   4.297 -3.7032  2.3086 -1.8573
  433MOL0     H58418   7.820   8.756   4.238  0.2463  0.2798 -0.5425
  433MOL0     H58419   7.323   8.681   4.428  1.5515 -1.0425  0.6464
  433MOL0     H58420   7.190   8.550   4.582 -0.3985  1.9011  0.1705
  433MOL0     H58421   7.396   8.422   4.942  0.9193  2.2113 -3.3043
  433MOL0     H58422   7.293   8.534   5.047 -2.6016 -0.9860  0.2465
  433MOL0     H58423   7.184   8.268   4.954 -2.7897 -0.8677  0.4205
  433MOL0     H58424   7.294   8.287   5.097  1.9562 -0.3075 -2.8884
  433MOL0     H58425   7.031   8.420   5.044  2.4290 -0.2975 -3.1458
  433MOL0     H58426   7.126   8.471   5.185  2.3759  0.0934 -2.1084
  433MOL0     H58427   6.968   8.216   5.118  0.6554 -0.1169  0.0715
  433MOL0     H58428   7.105   8.193   5.231 -2.4103 -3.0760  0.2986
  433MOL0     H58429   6.884   8.380   5.283 -1.5656 -1.5808 -0.9115
  433MOL0     H58430   7.026   8.332   5.384 -0.5489 -2.8416  1.8053
  433MOL0     H58431   6.926   8.097   5.399 -3.0855 -2.4927 -2.6971
  433MOL0     H58432   6.832   8.230   5.477 -1.9718  0.5442 -0.7723
  433MOL0     H58433   6.797   8.074   5.224 -2.9265  2.6308 -2.4382
  433MOL0     H58434   6.710   8.231   5.262 -0.4173  0.4698  1.1210
  433MOL0     H58435   6.724   7.972   5.421 -0.2747 -0.7832 -3.5419
  433MOL0     H58436   6.581   8.031   5.331 -0.8909  1.1357  0.7721
  433MOL0     H58437   7.470   8.640   4.897  0.4195  1.9671 -1.1906
  433MOL0     H58438   7.602   8.759   4.756  1.0243 -2.8769 -0.1422
  433MOL0     H58439   7.446   9.164   4.331  1.4080  2.0874  0.1982
  433MOL0     H58440   7.589   9.284   4.170 -0.7370  0.1992  2.1125
  433MOL0     H58441   8.632   9.878   3.188 -0.8350  2.0085 -0.1417
  433MOL0     H58442   8.759   9.743   2.995 -1.3881 -0.2960  0.9125
  433MOL0     H58443   8.853   9.651   2.578 -1.4546  3.4374 -0.6561
  433MOL0     H58444   8.988   9.532   2.405 -3.0659  0.6555  0.0601
  433MOL0     H58445   9.365   9.483   2.292  0.2577 -2.5980 -2.4669
  433MOL0     H58446   9.235   9.442   2.396  1.1385  1.3900  0.7652
  433MOL0     H58447   9.260   9.455   2.087  0.4189  3.1978  1.7629
  433MOL0     H58448   9.107   9.430   2.149  0.3959 -0.3777 -3.3034
  433MOL0     H58449   9.199   9.189   2.114  2.9674 -1.8847 -0.1509
  433MOL0     H58450   9.196   9.220   2.289  0.6562 -0.7607  0.4037
  433MOL0     H58451   9.391   9.107   2.225  0.3385  0.1645  0.0218
  433MOL0     H58452   9.438   9.267   2.271  0.0642  1.0727  0.8769
  433MOL0     H58453   9.568   9.255   1.880  0.1982  1.9941 -0.1216
  433MOL0     H58454   9.285   9.836   2.429 -0.0889  2.0704  1.4917
  433MOL0     H58455   9.151   9.964   2.563 -0.8986  0.9201 -0.3257
  434MOL0     O58456   4.708   0.575   3.071  0.5560 -0.6361 -0.4046
  434MOL0     C58457   4.781   0.587   3.173  0.0242  0.0456 -0.2463
  434MOL0     O58458   4.735   0.576   3.310 -0.4446 -0.0297 -0.5225
  434MOL0     C58459   4.601   0.572   3.331 -0.3647  0.1199  1.0822
  434MOL0     C58460   4.527   0.452   3.319  0.5526 -0.8135  0.6722
  434MOL0     C58461   4.396   0.439   3.366 -0.7399 -1.0330 -0.3105
  434MOL0     C58462   4.334   0.549   3.422 -0.8478  0.0495  0.4791
  434MOL0     O58463   4.204   0.561   3.460  0.6829 -0.5442  0.2681
  434MOL0     C58464   4.106   0.475   3.414  0.6484  0.4775  0.2613
  434MOL0     C58465   3.980   0.490   3.496  0.2107  0.7777 -0.4269
  434MOL0     C58466   3.940   0.638   3.530 -0.6799 -0.4234  0.6686
  434MOL0     C58467   3.838   0.662   3.644 -0.6018  0.2236 -0.2765
  434MOL0     C58468   3.780   0.809   3.668 -0.4910  1.0966  0.4438
  434MOL0     C58469   3.873   0.922   3.621 -0.0034 -0.0408  0.1268
  434MOL0     C58470   3.831   1.066   3.645  0.9092  1.3965 -0.7170
  434MOL0     C58471   3.689   1.100   3.602  0.5509  0.1644  0.3720
  434MOL0     N58472   3.663   1.246   3.597 -0.1202  0.2589 -0.0477
  434MOL0     C58473   3.550   1.314   3.625  0.7481 -0.1874 -0.8655
  434MOL0     C58474   3.575   1.444   3.621  0.0890 -0.2888 -0.4232
  434MOL0     C58475   3.477   1.561   3.638  0.6794  0.3609  0.6766
  434MOL0     C58476   3.536   1.700   3.596  0.9701 -0.3393 -0.1541
  434MOL0     C58477   3.533   1.739   3.438  0.0474  0.0309 -0.1482
  434MOL0     C58478   3.546   1.886   3.397 -0.3732  0.0088  0.8700
  434MOL0     O58479   3.441   1.972   3.437 -0.2951 -0.1758 -0.8110
  434MOL0     C58480   3.422   2.095   3.370  0.5213 -1.6004 -0.8778
  434MOL0     C58481   3.290   2.140   3.348  0.4056 -0.6316  0.4934
  434MOL0     C58482   3.269   2.264   3.282 -0.5505 -0.7276 -0.0294
  434MOL0     C58483   3.124   2.297   3.250  0.0264 -0.1456  0.4417
  434MOL0     C58484   3.378   2.348   3.249  0.1210 -0.0098  0.0463
  434MOL0     C58485   3.373   2.493   3.199  0.2093  0.5656 -0.4935
  434MOL0     O58486   3.261   2.569   3.215  0.2418  0.4371 -0.3101
  434MOL0     C58487   3.246   2.697   3.180 -0.7974  0.4533 -0.6129
  434MOL0     C58488   3.120   2.760   3.209 -0.0330 -0.1830 -0.6385
  434MOL0     C58489   3.076   2.880   3.158 -0.3157  0.0995 -0.0499
  434MOL0     C58490   3.158   2.957   3.081 -0.4665 -0.5078  0.2813
  434MOL0     O58491   3.136   3.076   3.022 -0.4707  0.3563 -0.8706
  434MOL0     C58492   3.032   3.155   3.070 -0.2694  0.3542  0.2543
  434MOL0     C58493   2.989   3.254   2.969  0.5962 -0.5290  0.7822
  434MOL0     C58494   3.100   3.356   2.965 -0.3198  0.4006  0.0135
  434MOL0     C58495   3.070   3.465   2.860 -0.2567  0.6057  0.8852
  434MOL0     C58496   3.190   3.561   2.846 -0.5006  0.9065 -0.8420
  434MOL0     C58497   3.279   3.514   2.735  0.5859 -0.4694 -0.6081
  434MOL0     C58498   3.416   3.577   2.737  0.5149 -0.0156  0.7350
  434MOL0     C58499   3.500   3.501   2.628  0.0841  0.0294 -0.3378
  434MOL0    Cl58500   3.644   3.577   2.562 -0.0890  0.2335 -0.1589
  434MOL0     C58501   3.281   2.909   3.060 -0.2395  0.0641 -0.6410
  434MOL0     C58502   3.335   2.792   3.120 -0.2164  0.4787  0.9738
  434MOL0     O58503   3.479   2.543   3.169 -0.1791  0.6249  0.3588
  434MOL0     C58504   3.509   2.301   3.266 -0.0744 -0.2759 -0.1191
  434MOL0     C58505   3.525   2.175   3.322  0.1516 -0.3942 -0.6188
  434MOL0     N58506   3.701   1.450   3.576 -0.9021  0.0097  1.0909
  434MOL0     N58507   3.749   1.339   3.568 -0.5281  0.0492 -0.8853
  434MOL0     C58508   4.407   0.662   3.437  0.1197 -0.4851 -1.3510
  434MOL0     C58509   4.547   0.668   3.402  0.8012 -0.5790  0.8330
  434MOL0     C58510   4.920   0.608   3.146 -0.8873 -0.6889  0.2293
  434MOL0     C58511   5.001   0.690   3.231  0.4401 -0.1799  0.4559
  434MOL0     C58512   5.138   0.715   3.187 -0.5913 -0.0236 -1.0574
  434MOL0     C58513   5.195   0.661   3.064  0.5802  0.7007  0.0546
  434MOL0     O58514   5.316   0.677   3.011  0.9839 -0.4842  0.0650
  434MOL0     C58515   5.399   0.771   3.083 -1.0358 -0.5702  0.1690
  434MOL0     C58516   5.549   0.767   3.024  0.6158  0.1299  1.0081
  434MOL0     C58517   5.555   0.823   2.886  0.0448  1.1479  0.7688
  434MOL0     C58518   5.706   0.851   2.863  0.5806 -0.4122  0.1518
  434MOL0     C58519   5.747   0.911   2.737  0.1733 -0.2863  0.6303
  434MOL0     C58520   5.773   0.948   2.617  0.3269 -1.5752 -0.6821
  434MOL0     C58521   5.110   0.574   2.987 -0.0833 -0.4026 -0.0367
  434MOL0     C58522   4.976   0.562   3.027 -0.2215 -0.1844  0.3049
  434MOL0     H58523   4.568   0.378   3.251  0.0713 -0.0511 -0.4854
  434MOL0     H58524   4.340   0.348   3.351 -1.8482 -0.2395 -1.1408
  434MOL0     H58525   4.077   0.507   3.314  1.5086  1.2158  0.2361
  434MOL0     H58526   4.148   0.374   3.408  5.4689  2.2803 -1.1217
  434MOL0     H58527   3.897   0.443   3.444  0.8798  1.9573 -2.7106
  434MOL0     H58528   3.975   0.439   3.593 -0.4360 -2.8761 -2.2292
  434MOL0     H58529   4.029   0.700   3.549 -0.3658 -0.8059  0.4549
  434MOL0     H58530   3.893   0.679   3.441 -0.7003  1.7420  1.6209
  434MOL0     H58531   3.759   0.586   3.647  0.0004 -0.4324 -0.4685
  434MOL0     H58532   3.890   0.641   3.737 -0.9598 -1.8901 -0.4979
  434MOL0     H58533   3.684   0.810   3.616 -0.8323  0.4187  1.0405
  434MOL0     H58534   3.764   0.824   3.775  1.6443  0.5798  0.8755
  434MOL0     H58535   3.973   0.909   3.664 -0.9768 -0.4025  2.3773
  434MOL0     H58536   3.900   0.911   3.515 -0.0773 -1.0059  0.2035
  434MOL0     H58537   3.828   1.081   3.754 -1.3432  1.2550 -0.7049
  434MOL0     H58538   3.906   1.134   3.604  1.0384  0.7212 -1.6135
  434MOL0     H58539   3.614   1.044   3.658 -1.2773  0.7159 -1.3743
  434MOL0     H58540   3.675   1.067   3.498  1.4094 -1.9553  0.8707
  434MOL0     H58541   3.456   1.270   3.656  1.4984 -0.5779  0.9546
  434MOL0     H58542   3.389   1.533   3.579 -1.5489  0.8150  3.6105
  434MOL0     H58543   3.454   1.571   3.744 -0.1997 -0.3876  0.5686
  434MOL0     H58544   3.636   1.723   3.635  0.1940  1.1551  1.0443
  434MOL0     H58545   3.480   1.784   3.638 -2.1072 -0.9290 -2.7205
  434MOL0     H58546   3.441   1.701   3.393 -0.2421  2.2445 -1.5816
  434MOL0     H58547   3.619   1.686   3.396  0.9055  2.5442 -1.7866
  434MOL0     H58548   3.553   1.888   3.288  1.3937  0.1599  0.9639
  434MOL0     H58549   3.641   1.929   3.429  1.0351 -2.4777  0.2727
  434MOL0     H58550   3.205   2.078   3.375 -2.1049  2.5119  0.4333
  434MOL0     H58551   3.059   2.208   3.252 -1.5420  0.9683  1.3713
  434MOL0     H58552   3.081   2.370   3.319  0.9437  0.9530 -0.1136
  434MOL0     H58553   3.126   2.340   3.150  1.5333  0.7546  0.8190
  434MOL0     H58554   3.049   2.700   3.265 -0.5984  0.1114 -1.0205
  434MOL0     H58555   2.974   2.914   3.173  0.1961  2.4811 -1.4304
  434MOL0     H58556   2.945   3.095   3.099  1.1810 -1.1772  1.6457
  434MOL0     H58557   3.071   3.206   3.159  0.0324  0.8031 -0.1327
  434MOL0     H58558   2.978   3.205   2.872 -0.0150 -1.6441  1.4079
  434MOL0     H58559   2.891   3.293   2.997  1.3648  2.3359 -0.1320
  434MOL0     H58560   3.197   3.307   2.948  1.1557  2.5374  1.6982
  434MOL0     H58561   3.112   3.409   3.060 -0.2393  1.0739 -0.3660
  434MOL0     H58562   3.043   3.418   2.765  2.1139  0.1365  0.3708
  434MOL0     H58563   2.991   3.532   2.895 -0.5447  0.3731  0.6780
  434MOL0     H58564   3.249   3.560   2.938  2.4405 -1.7194 -2.5431
  434MOL0     H58565   3.162   3.666   2.830  0.7220  0.9643 -2.9618
  434MOL0     H58566   3.299   3.407   2.743  0.6836 -0.3860  0.3618
  434MOL0     H58567   3.228   3.529   2.639  1.4741 -3.3348 -1.6364
  434MOL0     H58568   3.466   3.571   2.835  0.9076  0.3549  0.5606
  434MOL0     H58569   3.411   3.680   2.702 -2.1827 -0.7767 -1.4647
  434MOL0     H58570   3.434   3.480   2.544 -1.4806 -0.0359  0.8638
  434MOL0     H58571   3.547   3.406   2.657  3.7783  1.7239 -0.1646
  434MOL0     H58572   3.346   2.979   3.009  1.4358  1.3040  2.8178
  434MOL0     H58573   3.441   2.773   3.111 -0.1113  1.6658 -0.6731
  434MOL0     H58574   3.595   2.366   3.251  0.3926 -0.1336  2.7615
  434MOL0     H58575   3.632   2.158   3.329 -0.3310 -3.3556  1.8505
  434MOL0     H58576   4.352   0.746   3.477 -0.3957 -0.2379 -2.5554
  434MOL0     H58577   4.604   0.760   3.413 -1.5071  0.9958  0.4154
  434MOL0     H58578   4.977   0.717   3.334  0.1515 -2.8660  1.1804
  434MOL0     H58579   5.188   0.781   3.256 -0.3198 -0.2037 -1.0809
  434MOL0     H58580   5.346   0.865   3.067  0.3470  0.0706 -0.8581
  434MOL0     H58581   5.406   0.754   3.191  0.8250 -0.4168  0.1190
  434MOL0     H58582   5.578   0.662   3.019  0.3121  0.1036 -0.5747
  434MOL0     H58583   5.610   0.825   3.094  3.6739 -1.0145 -0.5230
  434MOL0     H58584   5.496   0.914   2.873  1.5412  1.9033 -1.3044
  434MOL0     H58585   5.517   0.748   2.815 -0.4992  1.9997  0.1398
  434MOL0     H58586   5.774   0.766   2.878  0.9380 -0.8591 -3.3649
  434MOL0     H58587   5.715   0.929   2.939  0.6345 -0.5298  0.2676
  434MOL0     H58588   5.778   1.005   2.527  0.0683 -0.1418  0.1786
  434MOL0     H58589   5.153   0.541   2.893 -0.8154  0.7460 -0.7995
  434MOL0     H58590   4.911   0.518   2.953  0.1292 -0.6832  0.2852
  435MOL0     O58591  10.920   7.871   4.871 -0.3022 -0.4082 -0.1734
  435MOL0     C58592  10.951   7.820   4.981 -0.5615 -0.2257 -0.0108
  435MOL0     O58593  10.878   7.728   5.050  0.1663 -0.0337 -0.3071
  435MOL0     C58594  10.771   7.664   4.996  0.7283  0.3873 -0.1999
  435MOL0     C58595  10.641   7.712   5.030  0.2130  0.0468 -0.6994
  435MOL0     C58596  10.521   7.656   4.987 -0.6004 -0.2410  1.1800
  435MOL0     C58597  10.539   7.564   4.890  0.1469 -0.4503  0.5108
  435MOL0     O58598  10.429   7.533   4.826  0.1123  0.0015  0.0940
  435MOL0     C58599  10.326   7.483   4.910  0.2635  0.3769  0.3238
  435MOL0     C58600  10.249   7.372   4.838 -1.0046  0.5989  0.2784
  435MOL0     C58601  10.125   7.328   4.929  0.1777 -0.4108 -1.3693
  435MOL0     C58602  10.027   7.436   4.959 -0.2413 -0.1061 -0.8449
  435MOL0     C58603   9.901   7.387   5.035 -0.1111  0.6475  1.0224
  435MOL0     C58604   9.805   7.300   4.945  0.1878 -0.0976 -0.1112
  435MOL0     C58605   9.688   7.230   5.003 -0.3687  0.8887  0.1822
  435MOL0     C58606   9.739   7.128   5.109 -0.7044  0.1941 -0.2580
  435MOL0     N58607   9.839   7.032   5.063  0.1335 -0.6295 -0.6297
  435MOL0     C58608   9.981   7.041   5.080  0.0506  0.1067 -0.2672
  435MOL0     C58609  10.034   6.932   5.019  0.6753  0.8320  0.4121
  435MOL0     C58610  10.183   6.901   5.000  0.8999  0.4585 -0.1856
  435MOL0     C58611  10.207   6.799   4.890 -0.6516 -0.0110 -0.6658
  435MOL0     C58612  10.210   6.659   4.956 -0.7450  0.2248 -1.0040
  435MOL0     C58613  10.353   6.626   4.997 -0.3359 -0.0418 -0.4827
  435MOL0     O58614  10.433   6.606   4.880 -0.3455  0.0776  0.3245
  435MOL0     C58615  10.562   6.654   4.899 -0.0982  0.3518 -0.5991
  435MOL0     C58616  10.618   6.760   4.832  0.1737 -0.0642 -1.0173
  435MOL0     C58617  10.751   6.786   4.834 -0.2251 -0.2787  0.2174
  435MOL0     C58618  10.805   6.899   4.750  0.3536 -0.0984 -0.6638
  435MOL0     C58619  10.837   6.701   4.909 -1.0568 -0.1619  0.5591
  435MOL0     C58620  10.981   6.726   4.927  0.3227 -0.0188 -0.2018
  435MOL0     O58621  11.048   6.614   4.964 -0.1516  0.2226 -0.0387
  435MOL0     C58622  11.180   6.591   4.926 -0.2811 -0.4900  0.1012
  435MOL0     C58623  11.207   6.492   4.832 -0.0245  0.1160  0.1248
  435MOL0     C58624  11.341   6.468   4.793 -0.7536 -0.0836 -1.1044
  435MOL0     C58625  11.452   6.521   4.865  0.7592 -0.8658 -0.4427
  435MOL0     O58626  11.585   6.490   4.840  0.6295 -0.3853 -0.2173
  435MOL0     C58627  11.635   6.567   4.732  0.1916  0.2831 -0.0212
  435MOL0     C58628  11.790   6.553   4.741 -0.5075  0.1397  0.1178
  435MOL0     C58629  11.835   6.415   4.688  0.3947  0.2743 -0.1239
  435MOL0     C58630  11.973   6.416   4.625 -0.2079  0.1430  0.5661
  435MOL0     C58631  12.090   6.380   4.723  0.5017  0.5634 -0.4459
  435MOL0     C58632  12.104   6.481   4.833  0.9087  1.3193  0.1330
  435MOL0     C58633  12.232   6.461   4.924  0.1035  0.4766  0.2387
  435MOL0     C58634  12.246   6.324   4.978  0.4322  0.0009 -0.8031
  435MOL0    Cl58635  12.100   6.277   5.071 -0.0303  0.1579  0.1428
  435MOL0     C58636  11.419   6.626   4.954 -0.6990 -0.3282  0.4161
  435MOL0     C58637  11.285   6.665   4.972 -0.1433 -0.2559 -0.1619
  435MOL0     O58638  11.022   6.838   4.915 -0.2344  0.0848  0.2212
  435MOL0     C58639  10.776   6.602   4.981 -0.1818 -0.1868  0.0086
  435MOL0     C58640  10.645   6.578   4.985  0.7228  0.6184  0.5615
  435MOL0     N58641   9.928   6.869   4.959 -0.1918  0.7991 -0.1361
  435MOL0     N58642   9.814   6.922   4.991  0.2335  0.0110  0.0476
  435MOL0     C58643  10.659   7.499   4.853  0.4228  0.5555  0.1975
  435MOL0     C58644  10.778   7.557   4.904 -0.0588  0.9673 -0.4275
  435MOL0     C58645  11.053   7.879   5.060  0.4467  0.5910  0.0061
  435MOL0     C58646  11.114   7.799   5.159 -0.2137 -1.1337 -0.7362
  435MOL0     C58647  11.213   7.848   5.242 -0.4586  0.4280  0.0286
  435MOL0     C58648  11.262   7.979   5.229 -0.0991 -0.3162 -0.0593
  435MOL0     O58649  11.353   8.036   5.314 -0.7592  0.2214 -0.1785
  435MOL0     C58650  11.416   7.958   5.421 -0.6110 -0.0710  0.2003
  435MOL0     C58651  11.507   8.059   5.503 -0.3951  0.3704  1.2884
  435MOL0     C58652  11.577   7.998   5.618 -0.3915 -0.5588 -0.0097
  435MOL0     C58653  11.680   7.898   5.569  0.1741 -0.1111  0.7774
  435MOL0     C58654  11.771   7.886   5.684 -0.4734  0.2840 -1.1383
  435MOL0     C58655  11.825   7.880   5.800 -0.2235  0.2827 -0.0557
  435MOL0     C58656  11.205   8.058   5.123  0.5811  0.0152 -0.9908
  435MOL0     C58657  11.095   8.012   5.048  0.0852 -0.7417  0.0632
  435MOL0     H58658  10.637   7.767   5.123  1.5369 -0.6442 -0.2068
  435MOL0     H58659  10.423   7.688   5.020 -1.7351 -0.1740 -1.9435
  435MOL0     H58660  10.364   7.437   5.002 -1.8893  0.8322  1.5187
  435MOL0     H58661  10.259   7.560   4.948  3.3121  2.1510  2.5742
  435MOL0     H58662  10.223   7.404   4.737 -2.4711  0.8199  0.6887
  435MOL0     H58663  10.330   7.301   4.822 -0.4395  1.6425 -1.8255
  435MOL0     H58664  10.075   7.246   4.877 -0.6139 -0.2521 -0.8716
  435MOL0     H58665  10.157   7.284   5.024  1.3799  3.2821  0.1035
  435MOL0     H58666  10.079   7.500   5.032 -2.0109  0.7958 -0.3216
  435MOL0     H58667  10.000   7.500   4.875 -2.5856  0.9602  0.6410
  435MOL0     H58668   9.927   7.332   5.125  1.1157 -0.2460  0.1558
  435MOL0     H58669   9.847   7.472   5.078 -1.1833  0.0183  0.9607
  435MOL0     H58670   9.753   7.366   4.875  0.4422  1.1806  0.8873
  435MOL0     H58671   9.867   7.228   4.890  0.1247 -0.7450  0.6464
  435MOL0     H58672   9.632   7.303   5.063  1.5424  1.2080  1.6665
  435MOL0     H58673   9.636   7.174   4.925  3.1272 -0.2218 -1.5569
  435MOL0     H58674   9.656   7.075   5.157  0.6841 -0.1018  1.9375
  435MOL0     H58675   9.784   7.189   5.188  0.0512 -1.3268  0.5155
  435MOL0     H58676  10.038   7.116   5.134 -0.7281  2.0097 -1.9610
  435MOL0     H58677  10.223   7.000   4.976 -1.6795  1.6644  0.1085
  435MOL0     H58678  10.222   6.872   5.098 -2.2168 -1.9691  0.5179
  435MOL0     H58679  10.306   6.809   4.845 -0.1234 -0.4652  0.3410
  435MOL0     H58680  10.133   6.800   4.810 -1.4087 -1.8646 -0.0399
  435MOL0     H58681  10.175   6.578   4.891  1.6377 -0.9217 -0.9545
  435MOL0     H58682  10.137   6.660   5.038 -1.4579  1.0014 -1.6263
  435MOL0     H58683  10.360   6.527   5.043 -1.2448  0.7144  1.3807
  435MOL0     H58684  10.402   6.695   5.067 -1.7933  1.7893 -1.1805
  435MOL0     H58685  10.564   6.828   4.767 -0.1085 -0.1059 -0.8284
  435MOL0     H58686  10.856   6.858   4.662  2.6903  0.4884  0.3522
  435MOL0     H58687  10.726   6.953   4.698 -0.4111 -1.2752 -0.7625
  435MOL0     H58688  10.860   6.971   4.810 -2.8573  1.5639  0.5020
  435MOL0     H58689  11.126   6.443   4.779 -1.0766  1.2109  0.6796
  435MOL0     H58690  11.368   6.391   4.722  0.9578 -2.3836  1.8079
  435MOL0     H58691  11.601   6.541   4.631 -2.1381  2.3144  0.1425
  435MOL0     H58692  11.609   6.672   4.747 -1.4335  0.1274 -1.3339
  435MOL0     H58693  11.828   6.635   4.679  2.1109  1.2134  2.8619
  435MOL0     H58694  11.832   6.567   4.841 -1.0269  1.1434  0.2072
  435MOL0     H58695  11.768   6.363   4.619 -0.9484  0.6293  0.8543
  435MOL0     H58696  11.832   6.346   4.772 -2.3946  0.4133 -0.0113
  435MOL0     H58697  11.986   6.345   4.543 -0.1716  1.4120 -0.5665
  435MOL0     H58698  12.000   6.515   4.587 -0.4887  0.7938  1.9917
  435MOL0     H58699  12.182   6.366   4.666  1.2056 -2.3725  1.1887
  435MOL0     H58700  12.050   6.286   4.764 -3.0113  1.3696 -1.6295
  435MOL0     H58701  12.112   6.581   4.790  0.8226  0.1220 -2.9157
  435MOL0     H58702  12.017   6.497   4.898 -0.6750  3.5502 -2.3290
  435MOL0     H58703  12.224   6.528   5.011 -1.4963 -0.3803  0.7877
  435MOL0     H58704  12.317   6.502   4.869 -1.3092  0.5106 -2.0877
  435MOL0     H58705  12.338   6.326   5.037  0.4741  0.8334 -0.8796
  435MOL0     H58706  12.262   6.254   4.896  0.4001  1.8780 -2.4903
  435MOL0     H58707  11.504   6.666   5.009 -1.2004 -0.1201  1.0541
  435MOL0     H58708  11.257   6.732   5.052  0.0232 -1.0969  0.6181
  435MOL0     H58709  10.839   6.535   5.038 -2.0319 -2.9274 -0.9632
  435MOL0     H58710  10.596   6.504   5.047  1.0761  1.6590  2.1619
  435MOL0     H58711  10.657   7.432   4.767 -0.1646 -0.8141  1.2398
  435MOL0     H58712  10.876   7.537   4.861  0.6838  1.3999  1.0109
  435MOL0     H58713  11.096   7.694   5.181 -2.5446 -1.0890 -2.0793
  435MOL0     H58714  11.241   7.786   5.327  1.0936 -0.5615 -1.1413
  435MOL0     H58715  11.335   7.927   5.487 -0.2351 -2.4798 -0.3724
  435MOL0     H58716  11.471   7.871   5.383 -0.1319  0.0235  0.6663
  435MOL0     H58717  11.441   8.136   5.544  0.7307  1.8864  0.3270
  435MOL0     H58718  11.573   8.110   5.432 -0.9739  0.0657  0.5172
  435MOL0     H58719  11.500   7.952   5.682 -2.1454  2.3800  0.1577
  435MOL0     H58720  11.628   8.077   5.673 -1.6599 -1.8122  3.2465
  435MOL0     H58721  11.731   7.945   5.485 -1.5213 -1.2287 -0.9663
  435MOL0     H58722  11.630   7.805   5.539  0.1128  0.2167 -0.1476
  435MOL0     H58723  11.867   7.876   5.898  1.0971  1.9720 -0.5064
  435MOL0     H58724  11.231   8.163   5.108  3.0148 -0.7588 -2.8867
  435MOL0     H58725  11.047   8.078   4.976  1.6295  2.3008  1.6481
  436MOL0     O58726   5.523  10.386   5.104 -0.4374 -0.8948  1.0544
  436MOL0     C58727   5.642  10.379   5.125  0.2756  0.1847 -0.6849
  436MOL0     O58728   5.704  10.376   5.245 -0.5454 -0.3168 -0.7975
  436MOL0     C58729   5.652  10.406   5.366 -0.3012  0.2800  0.1223
  436MOL0     C58730   5.737  10.454   5.468  0.6224  0.6154 -0.1779
  436MOL0     C58731   5.682  10.517   5.585  0.1241  0.1129 -0.2332
  436MOL0     C58732   5.539  10.511   5.613  0.6015 -0.2257 -0.0562
  436MOL0     O58733   5.494  10.556   5.735 -0.2138 -0.3911 -0.2121
  436MOL0     C58734   5.354  10.575   5.755 -0.1140 -0.2341 -0.1846
  436MOL0     C58735   5.310  10.704   5.689 -0.3252  0.5009 -0.4423
  436MOL0     C58736   5.153  10.715   5.690 -0.8150  0.8701 -0.0647
  436MOL0     C58737   5.101  10.846   5.654 -0.0488 -0.5843 -0.4294
  436MOL0     C58738   5.087  10.943   5.767 -1.0448  0.4686 -0.7567
  436MOL0     C58739   5.037  11.086   5.737 -0.1125 -0.5917 -0.2241
  436MOL0     C58740   5.142  11.165   5.669 -0.3624  0.5902  0.5712
  436MOL0     C58741   5.096  11.297   5.609 -0.7970 -0.3700  0.2630
  436MOL0     N58742   4.990  11.289   5.513 -0.6250  0.1106  0.9021
  436MOL0     C58743   5.009  11.293   5.373 -0.0781 -0.2884  0.4549
  436MOL0     C58744   4.892  11.281   5.317  0.4297  0.5075 -0.7672
  436MOL0     C58745   4.852  11.278   5.177 -0.5907  0.3746  0.4273
  436MOL0     C58746   4.920  11.146   5.125 -0.3174  0.3176  0.1173
  436MOL0     C58747   4.864  11.124   4.980 -0.6011 -0.3326 -0.6090
  436MOL0     C58748   4.939  11.019   4.903 -0.8093  0.6782 -0.2858
  436MOL0     O58749   5.071  11.065   4.871 -0.2352 -0.2689 -0.7898
  436MOL0     C58750   5.152  10.967   4.820 -1.3556 -0.6874  0.2141
  436MOL0     C58751   5.286  11.004   4.793  0.6833  0.2668 -0.3414
  436MOL0     C58752   5.381  10.914   4.737  0.6114  0.9640  0.4190
  436MOL0     C58753   5.521  10.967   4.719 -0.5389 -0.7160 -0.2739
  436MOL0     C58754   5.334  10.780   4.706 -0.2834  0.4866  0.3228
  436MOL0     C58755   5.422  10.664   4.661  0.0956  0.8081 -0.2016
  436MOL0     O58756   5.358  10.568   4.593 -0.2076 -0.4909  0.0155
  436MOL0     C58757   5.432  10.458   4.560  0.2704  1.1228  0.3656
  436MOL0     C58758   5.385  10.327   4.596 -0.5593 -0.9698  0.3815
  436MOL0     C58759   5.450  10.210   4.555 -0.1622  0.4341  0.0080
  436MOL0     C58760   5.562  10.221   4.469  0.2694  0.2133 -0.9746
  436MOL0     O58761   5.630  10.113   4.421 -0.3397 -0.4299  0.2246
  436MOL0     C58762   5.664  10.113   4.281  0.7825 -0.1209  0.4771
  436MOL0     C58763   5.706   9.968   4.228  0.5101 -1.0150  0.3719
  436MOL0     C58764   5.865   9.950   4.225  0.0313 -0.2166  0.2347
  436MOL0     C58765   5.920   9.860   4.114  0.5671 -0.6755  0.7390
  436MOL0     C58766   6.072   9.884   4.091 -0.9262 -0.0490 -0.6343
  436MOL0     C58767   6.154   9.855   4.223 -0.8591  0.0421  0.0825
  436MOL0     C58768   6.293   9.897   4.197 -0.3268 -0.7393  0.4560
  436MOL0     C58769   6.375   9.872   4.316 -0.7928  0.1566 -0.5482
  436MOL0    Cl58770   6.338   9.964   4.462  0.0431 -0.1462 -0.1913
  436MOL0     C58771   5.604  10.347   4.433 -0.8211  0.2747  0.0145
  436MOL0     C58772   5.538  10.463   4.469 -0.2654 -0.0405 -0.2271
  436MOL0     O58773   5.543  10.669   4.673 -0.1335 -0.9451  0.0033
  436MOL0     C58774   5.202  10.739   4.750 -0.0966  0.8852 -0.6472
  436MOL0     C58775   5.112  10.837   4.801 -0.9947  0.2697  0.4178
  436MOL0     N58776   4.803  11.278   5.424  0.2910  0.2300 -0.0817
  436MOL0     N58777   4.858  11.277   5.534 -0.7140  0.0496 -0.2619
  436MOL0     C58778   5.459  10.469   5.507  1.0993 -0.5028 -0.1865
  436MOL0     C58779   5.514  10.420   5.391 -0.2715 -0.1757 -0.0252
  436MOL0     C58780   5.723  10.378   5.010 -0.1026 -0.2963  0.7435
  436MOL0     C58781   5.862  10.351   5.021 -0.0480 -0.2003  0.0565
  436MOL0     C58782   5.944  10.364   4.909 -0.2504 -0.4609  0.4799
  436MOL0     C58783   5.889  10.397   4.790 -0.4866 -0.2343  0.1043
  436MOL0     O58784   5.989  10.404   4.692  0.6185 -0.2872  0.0437
  436MOL0     C58785   5.956  10.469   4.566  0.0190 -0.2368 -0.1291
  436MOL0     C58786   6.083  10.478   4.474  0.2638  0.0869 -0.3655
  436MOL0     C58787   6.144  10.340   4.462 -1.3155  0.2681 -0.4643
  436MOL0     C58788   6.086  10.250   4.342  0.3525  0.2658 -0.5749
  436MOL0     C58789   6.164  10.273   4.228  0.2350 -0.2513 -0.2931
  436MOL0     C58790   6.234  10.283   4.127  0.0310 -0.7875  0.0297
  436MOL0     C58791   5.750  10.407   4.773 -1.2643 -0.3035 -0.5938
  436MOL0     C58792   5.674  10.406   4.883  0.2548  0.9383  0.4917
  436MOL0     H58793   5.843  10.455   5.448  0.8979 -1.6931  0.8717
  436MOL0     H58794   5.752  10.561   5.655 -0.1394  0.4605 -0.1870
  436MOL0     H58795   5.297  10.486   5.728 -0.3685 -0.0040 -0.4061
  436MOL0     H58796   5.334  10.584   5.862  0.2260  1.6340 -0.2486
  436MOL0     H58797   5.353  10.789   5.742  1.1094 -1.1880  1.2835
  436MOL0     H58798   5.350  10.713   5.588  0.6666 -1.2690 -0.2493
  436MOL0     H58799   5.097  10.639   5.634  1.1006  0.6759 -1.8350
  436MOL0     H58800   5.132  10.696   5.796  0.4358  1.0964  0.2340
  436MOL0     H58801   5.169  10.889   5.580 -1.2757  1.0474 -0.6645
  436MOL0     H58802   5.006  10.834   5.601 -0.7352 -2.8941  1.1830
  436MOL0     H58803   5.022  10.895   5.840 -0.0143 -0.8798 -0.6669
  436MOL0     H58804   5.190  10.953   5.803 -0.6479 -0.4986 -1.5590
  436MOL0     H58805   4.942  11.081   5.682 -1.4806  1.4198  1.7630
  436MOL0     H58806   5.011  11.126   5.836  0.7835 -0.5009 -0.0203
  436MOL0     H58807   5.230  11.183   5.731  1.5497 -1.1559 -1.4643
  436MOL0     H58808   5.181  11.112   5.581 -0.6923  0.0886  0.7238
  436MOL0     H58809   5.180  11.328   5.547 -1.5609  0.9282 -0.1593
  436MOL0     H58810   5.060  11.371   5.681 -0.2693  2.4044 -2.1353
  436MOL0     H58811   5.097  11.325   5.318  0.3208 -1.5725  0.3298
  436MOL0     H58812   4.743  11.273   5.174 -0.5278 -0.5179 -1.4149
  436MOL0     H58813   4.889  11.363   5.119  0.2104 -1.9793 -2.7869
  436MOL0     H58814   4.889  11.059   5.183  2.6997 -1.3951 -0.6134
  436MOL0     H58815   5.029  11.157   5.124 -0.4482  1.8057  0.0034
  436MOL0     H58816   4.871  11.218   4.925  1.1526 -0.8902 -1.3782
  436MOL0     H58817   4.764  11.087   5.007  0.3795 -2.0826  0.9356
  436MOL0     H58818   4.886  10.987   4.812 -0.9251 -1.4718  0.4726
  436MOL0     H58819   4.945  10.930   4.967  1.2253  0.4879 -0.6691
  436MOL0     H58820   5.315  11.103   4.829 -0.4683 -0.5116  3.1238
  436MOL0     H58821   5.573  10.954   4.814 -1.1669 -1.1724  0.0209
  436MOL0     H58822   5.590  10.921   4.648 -0.4039 -1.5455  0.3796
  436MOL0     H58823   5.516  11.068   4.679  1.7467 -0.1740  0.6636
  436MOL0     H58824   5.304  10.319   4.668  0.9949 -1.5125  2.1486
  436MOL0     H58825   5.421  10.109   4.579  1.4945  0.3233  1.7367
  436MOL0     H58826   5.578  10.157   4.230  0.8214 -1.3046 -0.6637
  436MOL0     H58827   5.754  10.175   4.268  0.5283  0.0028 -0.7854
  436MOL0     H58828   5.657   9.900   4.299 -0.3995 -0.4302  0.3262
  436MOL0     H58829   5.659   9.959   4.130  0.1974  0.6688  0.3348
  436MOL0     H58830   5.882   9.907   4.324 -1.6952 -0.9743  0.2364
  436MOL0     H58831   5.912  10.049   4.222 -0.7630  0.2229  1.4859
  436MOL0     H58832   5.893   9.756   4.132 -0.4126 -0.4218  0.7925
  436MOL0     H58833   5.876   9.888   4.018  2.6025  1.1982  0.2785
  436MOL0     H58834   6.082   9.991   4.072 -0.7254  0.5795  2.5253
  436MOL0     H58835   6.114   9.832   4.004  0.1004  1.1328 -0.8605
  436MOL0     H58836   6.123   9.926   4.300  1.0713 -0.4837  1.4096
  436MOL0     H58837   6.141   9.754   4.263 -0.5760 -0.4047 -0.9162
  436MOL0     H58838   6.305   9.999   4.161 -0.1454 -1.1413 -0.6628
  436MOL0     H58839   6.345   9.845   4.116 -1.0112 -1.8916  0.7196
  436MOL0     H58840   6.478   9.899   4.292 -0.9775  0.1336 -1.3802
  436MOL0     H58841   6.375   9.766   4.344 -2.3914  0.3895  0.5238
  436MOL0     H58842   5.683  10.358   4.359 -2.4223 -0.0962 -1.8257
  436MOL0     H58843   5.572  10.542   4.403  0.5180 -0.3151 -0.1617
  436MOL0     H58844   5.167  10.637   4.737 -2.7650  2.0964 -4.8434
  436MOL0     H58845   5.014  10.795   4.819 -0.6458 -1.5561 -1.4391
  436MOL0     H58846   5.351  10.463   5.517  1.1774 -0.9003  0.5196
  436MOL0     H58847   5.444  10.385   5.316  0.1925 -0.5364 -0.2929
  436MOL0     H58848   5.911  10.305   5.106  1.1878 -0.0640 -0.5497
  436MOL0     H58849   6.049  10.339   4.923  0.5044  2.5039  0.9598
  436MOL0     H58850   5.878  10.405   4.523  0.5983 -2.0681  1.3974
  436MOL0     H58851   5.931  10.573   4.590  1.3237 -0.2601  1.5118
  436MOL0     H58852   6.158  10.551   4.508 -0.4216  0.8802 -0.5262
  436MOL0     H58853   6.056  10.512   4.374  1.4639 -0.0457 -0.7562
  436MOL0     H58854   6.124  10.284   4.554 -1.7490 -0.5762 -1.0624
  436MOL0     H58855   6.252  10.351   4.447 -1.3144 -0.9575 -1.5167
  436MOL0     H58856   5.983  10.287   4.335  1.3809  3.3860 -0.9718
  436MOL0     H58857   6.073  10.145   4.366 -1.9571  0.8842  1.2527
  436MOL0     H58858   6.296  10.305   4.042  0.4454 -2.0976 -0.0233
  436MOL0     H58859   5.703  10.429   4.677  0.7367  1.1239 -1.3405
  436MOL0     H58860   5.567  10.424   4.878  0.3324  2.7246  3.2843
  437MOL0     O58861  10.947   6.119   7.457  0.1317  0.2019 -0.6978
  437MOL0     C58862  10.893   6.112   7.352 -0.6715  1.2323 -0.3976
  437MOL0     O58863  10.773   6.059   7.328  0.1381  0.0567  0.5423
  437MOL0     C58864  10.664   6.050   7.414 -0.3323 -0.0818  0.0094
  437MOL0     C58865  10.564   5.956   7.384  0.2396 -1.2381 -0.5518
  437MOL0     C58866  10.456   5.932   7.474 -0.2385 -0.4834  0.9215
  437MOL0     C58867  10.445   6.000   7.600  0.2995  0.3549  0.8346
  437MOL0     O58868  10.346   6.002   7.687  0.3581  0.0840  0.6388
  437MOL0     C58869  10.247   5.890   7.688 -0.4391 -0.6693  1.0410
  437MOL0     C58870  10.182   5.847   7.819  0.3994 -0.4589  0.0701
  437MOL0     C58871  10.284   5.825   7.941  0.0783  0.0481  0.4693
  437MOL0     C58872  10.228   5.880   8.073 -0.7181 -0.2413  0.4603
  437MOL0     C58873  10.305   5.866   8.207 -0.8021 -0.4173  0.0453
  437MOL0     C58874  10.250   5.940   8.321 -1.2231 -0.7045  0.0325
  437MOL0     C58875  10.336   5.904   8.447  0.1688 -0.0092 -0.5223
  437MOL0     C58876  10.293   5.981   8.579 -0.3575 -0.0828 -1.4118
  437MOL0     N58877  10.340   6.123   8.560  0.0518 -0.8322 -0.7595
  437MOL0     C58878  10.467   6.172   8.528 -0.2124 -0.5144  0.2897
  437MOL0     C58879  10.459   6.306   8.518  0.1360 -0.4974 -0.2985
  437MOL0     C58880  10.569   6.390   8.471 -0.0079 -0.4835 -0.2171
  437MOL0     C58881  10.617   6.381   8.327 -0.7666  0.3893 -0.4841
  437MOL0     C58882  10.511   6.422   8.229  0.2643  0.2033 -0.3664
  437MOL0     C58883  10.471   6.575   8.247 -0.3448  0.5192  1.2965
  437MOL0     O58884  10.570   6.680   8.236  0.5357  0.6308 -0.6804
  437MOL0     C58885  10.613   6.720   8.113  0.9210  0.9425  0.2204
  437MOL0     C58886  10.719   6.815   8.110  0.3482  0.0670 -0.7229
  437MOL0     C58887  10.758   6.883   7.993 -0.2267  0.6057 -0.6199
  437MOL0     C58888  10.865   6.985   8.009 -1.4711 -0.0917  0.2019
  437MOL0     C58889  10.696   6.850   7.869 -0.6127  0.0371 -0.0688
  437MOL0     C58890  10.742   6.909   7.744 -0.1781  1.0866  0.2240
  437MOL0     O58891  10.642   6.933   7.662 -0.2497 -0.3195 -0.1536
  437MOL0     C58892  10.675   6.943   7.529 -0.1467  0.7068  1.0381
  437MOL0     C58893  10.612   6.856   7.443  0.3048  0.3462  0.4068
  437MOL0     C58894  10.635   6.846   7.304 -0.4041 -0.3602 -0.0175
  437MOL0     C58895  10.721   6.939   7.248 -0.8318 -0.3689 -0.0823
  437MOL0     O58896  10.748   6.952   7.115  0.5969 -0.0093 -0.1132
  437MOL0     C58897  10.768   6.828   7.039 -0.4011  0.0941  0.0836
  437MOL0     C58898  10.845   6.863   6.908 -0.7738 -0.6666  1.0805
  437MOL0     C58899  10.971   6.946   6.918  0.0728 -0.2606 -0.6939
  437MOL0     C58900  11.054   6.950   6.782 -0.4912  0.5337 -0.5664
  437MOL0     C58901  11.175   7.048   6.790 -0.4889  0.1514  0.3130
  437MOL0     C58902  11.229   7.071   6.654  0.4721 -0.2469  0.9804
  437MOL0     C58903  11.360   7.159   6.658  0.1969  0.3966  0.3746
  437MOL0     C58904  11.344   7.293   6.721 -0.4945 -0.3095 -0.3821
  437MOL0    Cl58905  11.268   7.405   6.601 -0.2566 -0.0433 -0.1599
  437MOL0     C58906  10.789   7.031   7.337  0.6307  0.4749 -0.5327
  437MOL0     C58907  10.761   7.033   7.477 -0.2508  0.3748  0.4360
  437MOL0     O58908  10.861   6.929   7.728 -0.3722  0.5038  0.2859
  437MOL0     C58909  10.606   6.744   7.869 -0.2843 -0.4106  0.0889
  437MOL0     C58910  10.562   6.685   7.992  0.1681 -0.8159  0.2157
  437MOL0     N58911  10.321   6.344   8.538 -0.4540  0.4201 -0.0948
  437MOL0     N58912  10.252   6.235   8.554  0.3778 -0.2631  0.3014
  437MOL0     C58913  10.543   6.099   7.625  0.4082 -0.3578 -0.2589
  437MOL0     C58914  10.642   6.126   7.530  0.3720 -0.6834  0.3232
  437MOL0     C58915  10.966   6.159   7.230  0.4577  0.2485 -0.2456
  437MOL0     C58916  11.074   6.246   7.247  0.7658  0.2397  0.5124
  437MOL0     C58917  11.149   6.293   7.135  0.7712  0.4098  0.6182
  437MOL0     C58918  11.127   6.255   7.000  0.2445  0.0410  0.0719
  437MOL0     O58919  11.191   6.305   6.889 -0.6811  0.1135  0.2884
  437MOL0     C58920  11.180   6.237   6.767 -0.2110  0.1028  0.5445
  437MOL0     C58921  11.299   6.277   6.679  0.5940  0.1397 -0.2616
  437MOL0     C58922  11.292   6.429   6.630 -0.6283  1.5780 -0.1270
  437MOL0     C58923  11.173   6.443   6.530  0.4546 -0.4020 -0.5797
  437MOL0     C58924  11.168   6.583   6.499  0.8195 -0.1763  1.0781
  437MOL0     C58925  11.170   6.702   6.463  0.1436  0.0511 -0.3256
  437MOL0     C58926  11.011   6.165   6.989 -0.9078 -0.5598 -0.5365
  437MOL0     C58927  10.936   6.120   7.099  0.3984  0.9158 -0.2079
  437MOL0     H58928  10.573   5.909   7.286 -3.4036 -0.3236 -1.4937
  437MOL0     H58929  10.372   5.875   7.435 -1.5928  1.3663  1.0090
  437MOL0     H58930  10.166   5.912   7.617 -1.1823  1.2711  2.3807
  437MOL0     H58931  10.304   5.809   7.642 -0.2585  0.4409 -0.8066
  437MOL0     H58932  10.107   5.919   7.852 -1.5477 -2.3705  0.0057
  437MOL0     H58933  10.137   5.750   7.800  1.6582 -1.7059  2.8327
  437MOL0     H58934  10.313   5.720   7.952  1.2470  0.3157  0.1235
  437MOL0     H58935  10.381   5.868   7.915 -0.4607  1.0477  0.0643
  437MOL0     H58936  10.221   5.987   8.052 -0.4164 -0.4530 -0.8083
  437MOL0     H58937  10.129   5.836   8.087  0.6320 -3.1437  1.6175
  437MOL0     H58938  10.311   5.761   8.236 -1.6626 -0.3453  0.4934
  437MOL0     H58939  10.395   5.921   8.177 -0.1026 -0.4726  1.8696
  437MOL0     H58940  10.253   6.048   8.303  0.9946 -0.7698 -0.2481
  437MOL0     H58941  10.148   5.906   8.343 -0.6234 -1.3012  2.2037
  437MOL0     H58942  10.319   5.799   8.473  1.3160 -0.1010 -0.0859
  437MOL0     H58943  10.440   5.903   8.413 -0.2634  1.5520 -2.0282
  437MOL0     H58944  10.361   5.947   8.658  0.4541  0.8353 -1.6881
  437MOL0     H58945  10.186   5.980   8.602 -0.5589  3.2346 -1.6823
  437MOL0     H58946  10.547   6.101   8.509  0.9545  1.1265 -1.1725
  437MOL0     H58947  10.545   6.494   8.496  1.4956  0.1287 -1.1912
  437MOL0     H58948  10.655   6.364   8.534  0.5146 -0.7534 -1.0315
  437MOL0     H58949  10.646   6.278   8.305  1.9831  0.5882  1.7896
  437MOL0     H58950  10.706   6.440   8.306  0.3994 -1.5131 -1.1178
  437MOL0     H58951  10.424   6.358   8.247  2.2216 -1.4380  5.1400
  437MOL0     H58952  10.539   6.397   8.126  1.1819  0.6295 -0.2331
  437MOL0     H58953  10.426   6.598   8.344  1.2481  3.4565  1.4506
  437MOL0     H58954  10.395   6.583   8.169  0.0031 -1.5847  0.6784
  437MOL0     H58955  10.757   6.851   8.205 -2.0925 -2.3314  1.3404
  437MOL0     H58956  10.954   6.947   7.958 -2.5007 -1.2872 -0.7771
  437MOL0     H58957  10.836   7.082   7.967  1.4716  0.4764 -0.7651
  437MOL0     H58958  10.881   7.004   8.116 -1.0198  2.7273 -0.2759
  437MOL0     H58959  10.541   6.792   7.493  1.5987 -0.1672  1.6485
  437MOL0     H58960  10.567   6.791   7.240  1.7633  0.8162 -3.6458
  437MOL0     H58961  10.833   6.758   7.093  2.6668  0.8734 -2.2711
  437MOL0     H58962  10.669   6.788   7.020  0.0872 -1.5639  0.8363
  437MOL0     H58963  10.876   6.774   6.853  3.1882  2.3345 -2.2833
  437MOL0     H58964  10.775   6.904   6.834  0.7787 -2.1407 -1.3541
  437MOL0     H58965  11.024   6.906   7.005  0.8347 -0.8741 -1.4201
  437MOL0     H58966  10.941   7.049   6.937 -1.5219 -1.0301  1.3398
  437MOL0     H58967  11.087   6.850   6.752  1.4176  0.7313  0.7045
  437MOL0     H58968  10.989   6.998   6.708  0.0881  0.3786 -1.1941
  437MOL0     H58969  11.262   7.014   6.848 -1.6922 -0.9469  1.5248
  437MOL0     H58970  11.140   7.132   6.851 -3.1397  1.1347 -2.3138
  437MOL0     H58971  11.265   6.978   6.609  2.6369  0.0555  1.9351
  437MOL0     H58972  11.156   7.117   6.587  0.9823  1.8050  1.7736
  437MOL0     H58973  11.400   7.154   6.556 -0.5861 -1.6772  0.1129
  437MOL0     H58974  11.432   7.108   6.722 -0.5022 -1.4469 -0.2280
  437MOL0     H58975  11.442   7.336   6.745 -1.7864  3.9902 -1.9792
  437MOL0     H58976  11.291   7.289   6.816 -0.3513 -0.8179 -0.3167
  437MOL0     H58977  10.858   7.103   7.294  2.8415 -1.4944 -0.5030
  437MOL0     H58978  10.801   7.118   7.531 -0.8962  3.7452 -3.8566
  437MOL0     H58979  10.575   6.698   7.776  0.4610 -0.0599 -0.3414
  437MOL0     H58980  10.487   6.609   7.973  1.5487 -1.3784 -3.9259
  437MOL0     H58981  10.522   6.169   7.706 -3.0651 -1.0643 -0.4323
  437MOL0     H58982  10.714   6.207   7.544 -0.6980  0.0406  2.0146
  437MOL0     H58983  11.097   6.295   7.341  2.5139  3.2299 -1.3095
  437MOL0     H58984  11.222   6.371   7.155 -1.1331  1.9564  1.8726
  437MOL0     H58985  11.184   6.129   6.784 -3.9942 -0.0811  1.1481
  437MOL0     H58986  11.086   6.259   6.715  0.0545 -1.8368 -0.8823
  437MOL0     H58987  11.302   6.213   6.590  0.4185 -1.6397  0.9601
  437MOL0     H58988  11.382   6.256   6.747 -0.0782 -2.3375 -0.1333
  437MOL0     H58989  11.384   6.447   6.574 -0.1531 -3.2828 -1.3959
  437MOL0     H58990  11.278   6.487   6.721  1.8892  0.1181  1.3176
  437MOL0     H58991  11.078   6.418   6.578 -0.6701  0.1274 -2.4279
  437MOL0     H58992  11.189   6.379   6.443  2.3543 -2.0656  0.9183
  437MOL0     H58993  11.173   6.793   6.406 -1.1157 -0.1347 -0.7048
  437MOL0     H58994  10.966   6.136   6.895  0.1397  0.6417 -1.4439
  437MOL0     H58995  10.849   6.058   7.078  0.9656 -0.1857  0.5929
  438MOL0     O58996   4.867   0.155   7.968  0.6532 -0.1840 -0.3934
  438MOL0     C58997   4.936   0.186   8.067 -0.0360 -0.0214 -0.0161
  438MOL0     O58998   4.977   0.314   8.099 -0.9058 -0.0037 -0.1393
  438MOL0     C58999   4.899   0.419   8.057 -0.3808 -0.4893  0.0243
  438MOL0     C59000   4.759   0.421   8.074 -0.4989 -0.2144  0.7459
  438MOL0     C59001   4.682   0.536   8.025 -0.2100  1.3798  1.0504
  438MOL0     C59002   4.753   0.647   7.968  0.1642  0.1924  0.4818
  438MOL0     O59003   4.698   0.766   7.935  0.4905 -0.1941 -0.1298
  438MOL0     C59004   4.554   0.770   7.948 -0.2625 -0.9603  0.4639
  438MOL0     C59005   4.471   0.703   7.844 -0.5625 -0.6560 -0.0969
  438MOL0     C59006   4.538   0.705   7.702  0.8616 -0.4152  0.1371
  438MOL0     C59007   4.441   0.648   7.596  0.2722  0.1535 -0.2254
  438MOL0     C59008   4.501   0.671   7.456 -0.0270 -0.0106  0.2750
  438MOL0     C59009   4.386   0.650   7.353 -0.2003  0.0093 -0.2384
  438MOL0     C59010   4.409   0.664   7.207  0.0548 -0.8165 -0.9841
  438MOL0     C59011   4.503   0.572   7.136  0.9762  0.4469 -0.4542
  438MOL0     N59012   4.519   0.590   6.985  0.3040  0.1596 -0.0236
  438MOL0     C59013   4.428   0.532   6.896 -0.0882 -0.0658 -0.0198
  438MOL0     C59014   4.451   0.598   6.780  0.5941 -0.1127 -0.0516
  438MOL0     C59015   4.361   0.591   6.667 -1.2329  0.4630  0.1354
  438MOL0     C59016   4.363   0.457   6.592  0.5406  0.0065  0.0536
  438MOL0     C59017   4.285   0.456   6.465 -0.3090  0.2515 -0.5070
  438MOL0     C59018   4.297   0.322   6.394 -1.0248 -0.0259  0.0483
  438MOL0     O59019   4.203   0.231   6.444 -0.6166 -0.3559 -0.2529
  438MOL0     C59020   4.231   0.095   6.413  0.5663 -0.2676  0.6246
  438MOL0     C59021   4.121   0.009   6.420 -0.2427 -0.6102 -0.1830
  438MOL0     C59022   4.116  -0.126   6.387  0.1174 -0.8135 -0.8138
  438MOL0     C59023   3.984  -0.198   6.404  0.2285  0.0072 -0.0531
  438MOL0     C59024   4.234  -0.183   6.337 -0.5391  0.0962 -0.7030
  438MOL0     C59025   4.251  -0.322   6.285 -0.5587  0.1876  0.2400
  438MOL0     O59026   4.374  -0.355   6.237  0.7798 -0.2446 -0.2833
  438MOL0     C59027   4.398  -0.488   6.206  0.6413  0.3064  0.2639
  438MOL0     C59028   4.473  -0.573   6.291  0.6995  0.0123  0.1044
  438MOL0     C59029   4.476  -0.710   6.267 -0.2113  0.0949  0.5567
  438MOL0     C59030   4.430  -0.764   6.147  0.1809 -0.3678  0.0197
  438MOL0     O59031   4.439  -0.905   6.140  0.1622 -0.7581 -0.3432
  438MOL0     C59032   4.392  -0.956   6.015  0.9016  0.5387  0.7941
  438MOL0     C59033   4.241  -0.979   6.004  0.7825 -0.4991  0.7504
  438MOL0     C59034   4.190  -1.089   6.112  0.7669  0.2011  0.1819
  438MOL0     C59035   4.045  -1.128   6.079 -0.9248  0.5362 -0.3902
  438MOL0     C59036   3.966  -1.180   6.202  0.1506 -0.4683 -0.9680
  438MOL0     C59037   3.821  -1.208   6.188  0.1140 -0.3562  1.1964
  438MOL0     C59038   3.797  -1.272   6.058 -0.9091  0.4075 -1.1114
  438MOL0     C59039   3.669  -1.347   6.065 -0.9324 -0.2393  0.7022
  438MOL0    Cl59040   3.660  -1.507   6.146  0.2979  0.3466 -0.0573
  438MOL0     C59041   4.363  -0.672   6.058  0.5389 -0.2274 -1.0382
  438MOL0     C59042   4.344  -0.541   6.093  0.3114 -0.3399  0.5731
  438MOL0     O59043   4.152  -0.392   6.281  0.3164 -0.1469  1.0335
  438MOL0     C59044   4.352  -0.099   6.335  0.4592  0.5832  0.5314
  438MOL0     C59045   4.347   0.034   6.369 -0.6715  0.3073  0.3366
  438MOL0     N59046   4.549   0.692   6.800 -0.9068 -0.6309  0.3629
  438MOL0     N59047   4.593   0.684   6.919  0.6998 -0.1920 -0.0551
  438MOL0     C59048   4.893   0.644   7.967  0.3278 -0.6661  0.1421
  438MOL0     C59049   4.967   0.537   8.014  0.6373  1.0615 -0.9488
  438MOL0     C59050   4.974   0.081   8.163  0.3786 -0.1944 -0.2029
  438MOL0     C59051   5.082   0.092   8.261 -1.1476  0.4893  0.2193
  438MOL0     C59052   5.126  -0.016   8.332  0.1995  0.0614  0.3350
  438MOL0     C59053   5.062  -0.136   8.325  0.1739  1.0914 -0.3644
  438MOL0     O59054   5.093  -0.256   8.396 -0.0627 -0.3495 -0.2208
  438MOL0     C59055   5.187  -0.243   8.498 -0.3589  0.9451 -1.0682
  438MOL0     C59056   5.329  -0.265   8.451  0.7363  0.7931  0.8133
  438MOL0     C59057   5.404  -0.318   8.564 -0.7972  0.3283 -0.5898
  438MOL0     C59058   5.559  -0.299   8.539  0.1576  0.8929 -0.0276
  438MOL0     C59059   5.588  -0.409   8.441 -0.6645  0.3261 -1.0473
  438MOL0     C59060   5.598  -0.496   8.358 -0.0130 -1.1462 -0.1223
  438MOL0     C59061   4.946  -0.144   8.242 -0.4107  0.3253  1.3985
  438MOL0     C59062   4.904  -0.041   8.157 -0.3974  0.1800  0.1137
  438MOL0     H59063   4.705   0.341   8.123  1.0303 -1.6875  0.1318
  438MOL0     H59064   4.574   0.546   8.033 -0.6314  0.4020 -2.0362
  438MOL0     H59065   4.516   0.740   8.046 -2.9027  0.6713  0.0404
  438MOL0     H59066   4.519   0.873   7.954 -0.9723 -1.2025  0.6021
  438MOL0     H59067   4.429   0.604   7.866  2.6574 -2.1566 -0.1598
  438MOL0     H59068   4.384   0.769   7.833  1.8831  2.7216 -0.5360
  438MOL0     H59069   4.563   0.810   7.682  0.2518  0.1663  2.2086
  438MOL0     H59070   4.627   0.649   7.732  2.3112  2.2259  1.0460
  438MOL0     H59071   4.417   0.545   7.625 -0.7753  0.3426 -0.3718
  438MOL0     H59072   4.346   0.701   7.611 -0.2212 -1.4240  3.0850
  438MOL0     H59073   4.533   0.775   7.444  1.5241 -0.5961 -1.0741
  438MOL0     H59074   4.582   0.599   7.441 -1.8202 -1.8330 -1.3415
  438MOL0     H59075   4.335   0.554   7.361 -0.8589  0.4866  1.9028
  438MOL0     H59076   4.316   0.729   7.381  0.0934  0.2215 -0.0950
  438MOL0     H59077   4.312   0.681   7.160 -0.7847  0.4943  1.1225
  438MOL0     H59078   4.448   0.766   7.202  0.0070 -0.8275 -1.7582
  438MOL0     H59079   4.500   0.468   7.169 -2.0870  0.1523 -1.3383
  438MOL0     H59080   4.598   0.607   7.177 -0.0641 -0.4516  2.9747
  438MOL0     H59081   4.355   0.453   6.907  2.6670 -2.6944  0.8377
  438MOL0     H59082   4.256   0.602   6.697 -0.6014 -2.2128  4.0062
  438MOL0     H59083   4.389   0.676   6.604  1.3644 -0.7441 -0.4934
  438MOL0     H59084   4.337   0.373   6.656 -0.1349  2.6520  3.5113
  438MOL0     H59085   4.470   0.446   6.573  1.0274  0.4701  2.2683
  438MOL0     H59086   4.339   0.528   6.404  0.0172 -2.6152 -3.9165
  438MOL0     H59087   4.179   0.473   6.488  0.4738  0.4888  3.8778
  438MOL0     H59088   4.401   0.291   6.401 -1.1179 -0.0716  1.9976
  438MOL0     H59089   4.273   0.338   6.289  4.6766 -1.2003 -1.7522
  438MOL0     H59090   4.028   0.040   6.467 -0.8419 -0.0484 -1.6933
  438MOL0     H59091   3.996  -0.281   6.473 -1.3234  0.7419  1.1593
  438MOL0     H59092   3.900  -0.140   6.442  2.4205  2.1400  1.8731
  438MOL0     H59093   3.952  -0.259   6.319  0.4512 -1.9921  1.2457
  438MOL0     H59094   4.517  -0.531   6.381  0.1799 -0.1459  0.4389
  438MOL0     H59095   4.521  -0.784   6.332  0.2402 -0.0902  0.0356
  438MOL0     H59096   4.424  -0.899   5.927 -0.3927 -1.9631 -1.4793
  438MOL0     H59097   4.446  -1.050   5.999  1.4857  1.0453 -0.3246
  438MOL0     H59098   4.191  -0.883   6.014  0.1904 -0.6142 -0.8401
  438MOL0     H59099   4.205  -1.004   5.903 -0.3741  0.5576  0.8765
  438MOL0     H59100   4.205  -1.042   6.209 -0.1885  4.5596 -1.5435
  438MOL0     H59101   4.244  -1.184   6.108  1.2574  0.4926 -0.1944
  438MOL0     H59102   4.000  -1.043   6.028 -1.3145 -0.6966 -2.1910
  438MOL0     H59103   4.041  -1.197   5.994  0.6733  1.1762 -1.0426
  438MOL0     H59104   3.977  -1.098   6.273 -1.0173 -1.4023  0.3302
  438MOL0     H59105   4.017  -1.273   6.230  0.6530  0.3002  0.8205
  438MOL0     H59106   3.780  -1.253   6.279 -0.0738  1.9511  2.3317
  438MOL0     H59107   3.768  -1.112   6.182  0.8241  0.0215  0.8215
  438MOL0     H59108   3.871  -1.352   6.040 -0.6123  1.3394 -4.6963
  438MOL0     H59109   3.789  -1.194   5.982  1.2789  2.0049  0.1620
  438MOL0     H59110   3.640  -1.361   5.961  0.4121  0.5954  0.1792
  438MOL0     H59111   3.590  -1.284   6.107  0.0453  0.8582  0.9623
  438MOL0     H59112   4.310  -0.704   5.969 -2.6064  1.6002 -0.0038
  438MOL0     H59113   4.285  -0.484   6.021  2.5372 -0.9905 -1.9254
  438MOL0     H59114   4.434  -0.138   6.275  1.0920 -0.7463  2.1979
  438MOL0     H59115   4.442   0.085   6.357  1.1852 -3.0627 -0.7788
  438MOL0     H59116   4.947   0.734   7.941 -2.4572  0.1547 -3.4276
  438MOL0     H59117   5.075   0.537   8.017  0.6655 -0.1582  2.0219
  438MOL0     H59118   5.153   0.173   8.254 -0.4091 -0.0341  1.4087
  438MOL0     H59119   5.218   0.010   8.384  0.0618 -1.0415  1.1678
  438MOL0     H59120   5.182  -0.148   8.551 -0.0490  0.7407 -0.6660
  438MOL0     H59121   5.166  -0.333   8.557  1.7086  0.4922 -0.9380
  438MOL0     H59122   5.370  -0.175   8.405  2.3454 -0.6840 -0.7898
  438MOL0     H59123   5.322  -0.350   8.382  3.8837 -1.1138  2.6387
  438MOL0     H59124   5.387  -0.424   8.586  0.0758 -0.6220 -3.9823
  438MOL0     H59125   5.376  -0.273   8.660 -1.1362  0.2779 -0.6638
  438MOL0     H59126   5.611  -0.321   8.633 -2.1391 -0.8349  0.9612
  438MOL0     H59127   5.584  -0.201   8.499 -0.8812  0.9696 -0.5405
  438MOL0     H59128   5.590  -0.554   8.268 -2.4496 -0.3725 -0.4771
  438MOL0     H59129   4.895  -0.240   8.236  2.0837 -1.2591  3.4546
  438MOL0     H59130   4.807  -0.053   8.111  0.1965  1.4634 -1.5638
  439MOL0     O59131   1.935   5.618   4.260 -0.5005  0.0178 -0.3256
  439MOL0     C59132   1.959   5.735   4.215 -1.0256  0.6667 -0.1634
  439MOL0     O59133   1.870   5.810   4.141  0.4138  0.1282 -0.5100
  439MOL0     C59134   1.748   5.764   4.112 -0.2456  0.1566 -0.1880
  439MOL0     C59135   1.708   5.768   3.975  0.1192 -0.8893  0.2590
  439MOL0     C59136   1.594   5.703   3.939  0.5654  0.4832 -0.1208
  439MOL0     C59137   1.510   5.648   4.038  0.1703  0.8429  0.3346
  439MOL0     O59138   1.376   5.615   4.017  0.5517  0.6832  0.4490
  439MOL0     C59139   1.305   5.698   3.919  0.4760 -1.0069 -0.4115
  439MOL0     C59140   1.288   5.838   3.963 -1.1743 -0.3938  0.0902
  439MOL0     C59141   1.176   5.834   4.074  0.0671 -0.0232  1.1328
  439MOL0     C59142   1.201   5.961   4.167  0.4933  0.7538  0.1958
  439MOL0     C59143   1.094   5.981   4.275 -0.0180 -0.0958  0.5233
  439MOL0     C59144   1.108   6.118   4.340  1.5373 -1.1148  0.4824
  439MOL0     C59145   1.233   6.139   4.427  0.2649 -0.5496  0.4544
  439MOL0     C59146   1.247   6.046   4.545  0.1782  0.8345 -0.0954
  439MOL0     N59147   1.195   6.104   4.671 -0.6962 -0.1300  0.4163
  439MOL0     C59148   1.280   6.151   4.770  0.3043 -0.6300  0.5966
  439MOL0     C59149   1.206   6.229   4.843 -0.0601  0.3405 -0.4760
  439MOL0     C59150   1.273   6.330   4.944  0.5989  0.3693  0.5825
  439MOL0     C59151   1.339   6.260   5.057 -1.0540  0.3342 -0.7395
  439MOL0     C59152   1.253   6.155   5.125  0.5860 -0.8826  0.2681
  439MOL0     C59153   1.337   6.093   5.243 -0.1526  0.8961  0.4565
  439MOL0     O59154   1.366   6.179   5.355 -0.2039 -0.3037  0.1589
  439MOL0     C59155   1.459   6.144   5.458  0.0578 -0.3957  0.8026
  439MOL0     C59156   1.470   6.020   5.506 -0.6884  0.2371  0.0549
  439MOL0     C59157   1.576   5.992   5.592  0.2609  0.3551  0.3014
  439MOL0     C59158   1.583   5.846   5.622  0.0621  0.3305 -0.6359
  439MOL0     C59159   1.657   6.094   5.642  0.2952  0.6151 -0.5734
  439MOL0     C59160   1.775   6.062   5.722 -0.2182  0.4089 -0.4665
  439MOL0     O59161   1.809   6.140   5.829  0.4735  0.6416 -0.5923
  439MOL0     C59162   1.712   6.183   5.914  0.9693  0.1209 -0.5813
  439MOL0     C59163   1.607   6.106   5.972 -0.5552  0.5519 -0.9211
  439MOL0     C59164   1.517   6.155   6.064 -0.2122  0.2535 -0.0571
  439MOL0     C59165   1.534   6.284   6.121 -0.8768 -0.3423 -0.7474
  439MOL0     O59166   1.439   6.335   6.202 -0.6597 -0.5569  0.2908
  439MOL0     C59167   1.471   6.468   6.258 -0.0137  0.3375  0.6595
  439MOL0     C59168   1.376   6.476   6.382  0.0366 -0.7745 -0.6372
  439MOL0     C59169   1.230   6.489   6.336 -0.6325  0.6673  1.3102
  439MOL0     C59170   1.134   6.576   6.404  0.0737 -0.0303  0.0724
  439MOL0     C59171   1.130   6.553   6.562 -0.0274 -0.8446 -0.5012
  439MOL0     C59172   1.060   6.430   6.574  0.2382  0.3436 -0.9164
  439MOL0     C59173   1.026   6.380   6.711  0.5960 -0.0076 -0.0848
  439MOL0     C59174   0.924   6.466   6.774  0.3070 -0.8763  0.0016
  439MOL0    Cl59175   0.753   6.433   6.702 -0.0603  0.0375  0.2841
  439MOL0     C59176   1.639   6.354   6.065 -0.3461 -0.4481 -0.3614
  439MOL0     C59177   1.727   6.309   5.968  0.5699  0.3949 -0.2474
  439MOL0     O59178   1.850   5.975   5.680  0.5082 -0.1154 -0.0417
  439MOL0     C59179   1.635   6.222   5.602 -0.1387 -0.7600 -0.4382
  439MOL0     C59180   1.533   6.250   5.507  0.0152  0.3138 -0.2068
  439MOL0     N59181   1.067   6.213   4.811 -0.6534  0.4166  0.0864
  439MOL0     N59182   1.072   6.140   4.706 -0.2826 -0.4780  0.2091
  439MOL0     C59183   1.541   5.651   4.174 -0.3304 -0.0676 -0.0948
  439MOL0     C59184   1.659   5.712   4.219 -0.7291 -0.6868  0.5351
  439MOL0     C59185   2.078   5.815   4.250 -0.3580  0.2027 -0.3945
  439MOL0     C59186   2.192   5.747   4.271  0.0661  0.1264  0.0895
  439MOL0     C59187   2.318   5.807   4.284  1.3903  0.2040  0.0677
  439MOL0     C59188   2.317   5.947   4.283 -1.3911 -0.5159  0.4263
  439MOL0     O59189   2.439   6.005   4.296  0.1604 -0.0838  0.0992
  439MOL0     C59190   2.435   6.150   4.337 -0.4825  0.3293 -0.4529
  439MOL0     C59191   2.572   6.185   4.400  0.2565 -0.9648 -0.5193
  439MOL0     C59192   2.561   6.328   4.439 -0.7017 -0.5416 -0.5503
  439MOL0     C59193   2.686   6.379   4.502  0.6560 -0.3489  0.7354
  439MOL0     C59194   2.636   6.500   4.577 -0.2575 -0.6373 -0.3528
  439MOL0     C59195   2.614   6.578   4.668 -0.4825 -0.1371 -0.3588
  439MOL0     C59196   2.204   6.023   4.263  0.0117 -0.4963 -0.2806
  439MOL0     C59197   2.081   5.961   4.242 -0.0310  0.7490 -0.5658
  439MOL0     H59198   1.774   5.806   3.897  1.1805  0.7943  1.8747
  439MOL0     H59199   1.573   5.698   3.833 -1.3777 -0.6560  0.2700
  439MOL0     H59200   1.362   5.708   3.826  0.6469  4.0809 -0.0322
  439MOL0     H59201   1.215   5.651   3.878  0.8352 -2.5262  0.4408
  439MOL0     H59202   1.380   5.878   4.005 -0.9638  0.8913 -1.4745
  439MOL0     H59203   1.276   5.898   3.872  1.4393  0.8211  0.4612
  439MOL0     H59204   1.075   5.831   4.031 -1.4791 -3.6752  4.3854
  439MOL0     H59205   1.179   5.741   4.132  1.5147 -0.9440 -0.3504
  439MOL0     H59206   1.296   5.941   4.217 -0.2224  2.0182  2.2049
  439MOL0     H59207   1.221   6.053   4.111  3.7180  0.9881  1.5144
  439MOL0     H59208   0.993   5.973   4.234 -0.2201 -0.9702  1.1596
  439MOL0     H59209   1.107   5.897   4.343  0.8775  1.1473  1.9454
  439MOL0     H59210   1.110   6.192   4.260  3.5405  0.0377  1.5361
  439MOL0     H59211   1.019   6.142   4.400  1.7182  0.0324  0.3152
  439MOL0     H59212   1.317   6.120   4.361 -0.3026 -0.2798 -0.3568
  439MOL0     H59213   1.246   6.243   4.457  2.4942 -0.7392  0.3026
  439MOL0     H59214   1.353   6.021   4.557 -0.3413 -1.4145  0.3000
  439MOL0     H59215   1.183   5.958   4.535 -0.3902  1.1389  0.7753
  439MOL0     H59216   1.387   6.132   4.766  1.0967  2.6637  2.5879
  439MOL0     H59217   1.346   6.391   4.891  0.0138  0.4936 -0.0846
  439MOL0     H59218   1.192   6.385   4.991 -1.7481 -2.4559  0.1421
  439MOL0     H59219   1.365   6.334   5.133 -0.3070  0.0915 -0.7482
  439MOL0     H59220   1.436   6.226   5.019 -0.7343 -1.1868  1.2068
  439MOL0     H59221   1.227   6.078   5.051 -1.2204 -0.5939  0.5514
  439MOL0     H59222   1.159   6.199   5.159  0.6240  0.0019 -0.7370
  439MOL0     H59223   1.427   6.054   5.196 -0.4618  0.2838  0.3667
  439MOL0     H59224   1.275   6.014   5.286 -0.2513  0.8464  0.2213
  439MOL0     H59225   1.410   5.937   5.468 -2.1917 -1.0025  4.4502
  439MOL0     H59226   1.490   5.800   5.586  0.1224  0.5138 -1.0262
  439MOL0     H59227   1.678   5.801   5.594  2.2840  3.9053  0.5468
  439MOL0     H59228   1.588   5.832   5.730  2.1502  0.0620 -0.7305
  439MOL0     H59229   1.616   5.999   5.951 -1.1103 -0.3532  2.7971
  439MOL0     H59230   1.444   6.079   6.091 -1.2253  1.2573  0.0646
  439MOL0     H59231   1.578   6.480   6.280  0.3532  2.3536 -1.8110
  439MOL0     H59232   1.433   6.542   6.188  1.8312  0.2658 -0.4746
  439MOL0     H59233   1.385   6.394   6.455 -0.5771  0.0932  0.4400
  439MOL0     H59234   1.403   6.570   6.430 -1.6917  1.8892 -4.4085
  439MOL0     H59235   1.184   6.390   6.341 -2.2762  1.4568  3.5451
  439MOL0     H59236   1.235   6.517   6.230 -3.1228 -1.2061  0.5804
  439MOL0     H59237   1.164   6.682   6.398  1.1071 -0.0719  2.9154
  439MOL0     H59238   1.039   6.565   6.351 -0.8296  0.9424  1.4013
  439MOL0     H59239   1.092   6.643   6.611  3.9095  0.1176  1.1674
  439MOL0     H59240   1.230   6.538   6.605 -0.7206 -0.0570  1.5097
  439MOL0     H59241   0.970   6.431   6.512  0.5109  1.5571 -1.3156
  439MOL0     H59242   1.115   6.345   6.532 -1.2848 -0.0727 -2.2084
  439MOL0     H59243   1.114   6.375   6.776  1.4168  0.1428 -1.1580
  439MOL0     H59244   0.983   6.280   6.697  0.6362 -0.4222  2.3172
  439MOL0     H59245   0.947   6.573   6.770 -0.2077 -0.7479  0.3396
  439MOL0     H59246   0.917   6.440   6.880  2.2668  0.9812  0.6627
  439MOL0     H59247   1.652   6.459   6.090  0.5999 -0.7443  0.4604
  439MOL0     H59248   1.812   6.370   5.940  1.9181 -1.2517  0.1318
  439MOL0     H59249   1.685   6.312   5.638 -0.3797  0.2124 -2.4089
  439MOL0     H59250   1.535   6.355   5.481 -1.4439  0.2398 -0.6843
  439MOL0     H59251   1.474   5.605   4.247 -1.6665 -0.4339 -1.5039
  439MOL0     H59252   1.701   5.708   4.319  3.3935  2.8907 -0.7537
  439MOL0     H59253   2.194   5.638   4.268  1.0693  0.0059  2.4241
  439MOL0     H59254   2.411   5.756   4.308  1.5580  1.5696  2.6113
  439MOL0     H59255   2.417   6.213   4.249 -2.1221  0.0160 -0.3778
  439MOL0     H59256   2.360   6.164   4.415  0.1894 -0.9004  0.4414
  439MOL0     H59257   2.659   6.176   4.335  2.0282 -0.5558  1.6751
  439MOL0     H59258   2.590   6.118   4.484 -0.7239  0.5603  0.9586
  439MOL0     H59259   2.477   6.343   4.507 -1.5398 -0.0452 -1.6616
  439MOL0     H59260   2.526   6.397   4.362  1.3798  1.6459  0.3478
  439MOL0     H59261   2.748   6.427   4.425  2.7929  0.2725  2.7199
  439MOL0     H59262   2.760   6.315   4.551 -0.1890 -1.3212  0.7837
  439MOL0     H59263   2.576   6.641   4.746 -2.3405 -1.8116  0.2043
  439MOL0     H59264   2.207   6.131   4.254 -0.9894 -0.4648 -0.3268
  439MOL0     H59265   1.987   6.010   4.222 -0.4645  0.4105  0.5575
  440MOL0     O59266   5.128   9.532   8.416  0.1792  0.4064  0.2233
  440MOL0     C59267   5.199   9.628   8.439 -0.0660  0.5572 -0.0696
  440MOL0     O59268   5.157   9.737   8.521 -0.2544  0.8655  0.3166
  440MOL0     C59269   5.062   9.705   8.617 -0.0522  0.5438 -0.5748
  440MOL0     C59270   4.919   9.723   8.596  0.2397 -0.7049 -0.1243
  440MOL0     C59271   4.826   9.693   8.693 -0.8853  0.6087  0.6887
  440MOL0     C59272   4.873   9.629   8.813 -0.3725  0.5536  0.3715
  440MOL0     O59273   4.786   9.597   8.912 -0.1204 -0.1407 -0.1751
  440MOL0     C59274   4.735   9.464   8.914  0.4985  0.7353  0.1479
  440MOL0     C59275   4.814   9.355   8.973 -0.0412 -0.1475 -1.2056
  440MOL0     C59276   4.887   9.392   9.112  1.0205  1.0034 -0.1199
  440MOL0     C59277   4.780   9.394   9.221  0.6729  0.3321 -0.8446
  440MOL0     C59278   4.858   9.414   9.358  0.7343  0.1966 -0.4878
  440MOL0     C59279   4.766   9.407   9.474  0.8672 -0.3274  0.0809
  440MOL0     C59280   4.717   9.267   9.515 -0.3654 -1.5023  0.3222
  440MOL0     C59281   4.804   9.213   9.629 -0.5453  0.1844 -0.4802
  440MOL0     N59282   4.764   9.082   9.682 -0.2796 -0.8772 -0.7419
  440MOL0     C59283   4.629   9.034   9.703 -0.6315  0.0083  0.5125
  440MOL0     C59284   4.639   8.930   9.783 -1.1083  0.6509 -0.8406
  440MOL0     C59285   4.525   8.845   9.834 -0.4759 -0.4181  0.3559
  440MOL0     C59286   4.577   8.698   9.865  0.8060  0.6423  0.2581
  440MOL0     C59287   4.601   8.616   9.727  1.0794  0.1950  0.3659
  440MOL0     C59288   4.475   8.581   9.655 -0.0301  0.3966  0.1475
  440MOL0     O59289   4.376   8.537   9.752 -0.2927  0.4644  0.1486
  440MOL0     C59290   4.377   8.406   9.797  0.4449 -1.0676  0.2478
  440MOL0     C59291   4.280   8.382   9.896 -0.5432  0.4754  0.0693
  440MOL0     C59292   4.267   8.252   9.953  0.3372  0.0952 -0.2032
  440MOL0     C59293   4.185   8.251  10.078  0.5243 -0.2886  0.5164
  440MOL0     C59294   4.337   8.140   9.909 -0.7453 -0.5725  0.7340
  440MOL0     C59295   4.314   7.997   9.951 -0.1614 -0.1774  0.6076
  440MOL0     O59296   4.410   7.898   9.902 -0.2344  0.2912 -0.2195
  440MOL0     C59297   4.409   7.772   9.957  0.3094 -0.2811  0.0200
  440MOL0     C59298   4.362   7.741  10.092  0.5873 -0.2938 -0.2427
  440MOL0     C59299   4.366   7.611  10.132 -1.0394 -0.1866 -0.0215
  440MOL0     C59300   4.416   7.504  10.056 -0.0852  0.7066 -0.6443
  440MOL0     O59301   4.392   7.384  10.107 -0.0922  0.4116  0.0697
  440MOL0     C59302   4.440   7.254  10.056 -0.1525 -0.3902 -0.8346
  440MOL0     C59303   4.407   7.147  10.160 -0.2290  0.7621 -0.1761
  440MOL0     C59304   4.509   7.036  10.149  0.0533 -0.5538  0.3536
  440MOL0     C59305   4.472   6.925  10.254  0.4097  0.2267  0.3824
  440MOL0     C59306   4.594   6.840  10.275  1.2452  0.2719 -0.4103
  440MOL0     C59307   4.688   6.806  10.154 -0.1240  0.3569  0.0968
  440MOL0     C59308   4.612   6.740  10.042  0.4401  0.0608  0.9896
  440MOL0     C59309   4.697   6.719   9.915 -0.1289 -0.2568 -0.4152
  440MOL0    Cl59310   4.836   6.610   9.963  0.2214  0.2685 -0.3161
  440MOL0     C59311   4.460   7.530   9.927  0.8026 -1.2217  0.1458
  440MOL0     C59312   4.463   7.667   9.878  0.1983 -1.2421  0.3554
  440MOL0     O59313   4.217   7.969  10.013  0.4757 -0.2594 -0.1360
  440MOL0     C59314   4.433   8.168   9.807  0.0115  0.1042 -1.6338
  440MOL0     C59315   4.459   8.295   9.757 -0.5673 -0.6356 -0.6997
  440MOL0     N59316   4.777   8.902   9.799  0.2522  0.4500  0.3086
  440MOL0     N59317   4.855   9.001   9.746 -0.1692  0.8879  0.8701
  440MOL0     C59318   5.004   9.607   8.827 -1.1496  0.0857  0.3563
  440MOL0     C59319   5.101   9.650   8.739  0.2845 -0.5663 -0.0031
  440MOL0     C59320   5.326   9.625   8.381  0.1950 -0.0037 -0.1627
  440MOL0     C59321   5.387   9.513   8.325 -0.3262 -0.0339  0.3394
  440MOL0     C59322   5.511   9.522   8.258 -0.1988 -0.4431  0.4493
  440MOL0     C59323   5.578   9.642   8.246 -0.1433  0.0114 -1.3149
  440MOL0     O59324   5.698   9.651   8.189  0.1327  0.1288  0.6538
  440MOL0     C59325   5.807   9.568   8.225 -0.3607 -0.0710  0.4941
  440MOL0     C59326   5.895   9.577   8.108  0.0833 -0.6632 -0.6634
  440MOL0     C59327   5.862   9.458   8.010 -0.1549 -0.1257  0.5993
  440MOL0     C59328   5.938   9.467   7.877  0.4753 -0.0591 -0.0190
  440MOL0     C59329   6.087   9.469   7.899 -0.8901 -0.9361 -1.0330
  440MOL0     C59330   6.203   9.469   7.945  0.7425  0.1374 -0.7216
  440MOL0     C59331   5.514   9.755   8.292  1.0641  0.4758  0.2149
  440MOL0     C59332   5.393   9.751   8.363  0.3103  0.1872  0.0514
  440MOL0     H59333   4.877   9.747   8.499 -0.5063  0.3131  0.4349
  440MOL0     H59334   4.721   9.688   8.664 -0.7309 -1.6753  0.3170
  440MOL0     H59335   4.653   9.486   8.983  1.9656  2.1610  1.5097
  440MOL0     H59336   4.692   9.438   8.817 -0.5703  2.0904  0.2208
  440MOL0     H59337   4.741   9.276   8.989 -0.4656  0.8262  2.8482
  440MOL0     H59338   4.888   9.327   8.898  0.5351 -0.8392 -0.3982
  440MOL0     H59339   4.971   9.323   9.125  0.2131 -0.6422 -2.7374
  440MOL0     H59340   4.934   9.491   9.105  0.0597  1.7094  2.3890
  440MOL0     H59341   4.699   9.465   9.201  0.8339  0.7865  0.0332
  440MOL0     H59342   4.738   9.293   9.222  1.0531  0.1636  0.6138
  440MOL0     H59343   4.946   9.349   9.363  0.3447 -0.3065  0.1304
  440MOL0     H59344   4.888   9.518   9.347 -0.0020  0.4382 -0.2367
  440MOL0     H59345   4.821   9.460   9.551  2.7139 -0.7166 -0.8994
  440MOL0     H59346   4.678   9.466   9.445  0.8455 -1.2769 -2.0300
  440MOL0     H59347   4.620   9.290   9.561 -1.1122 -0.6157 -1.5647
  440MOL0     H59348   4.701   9.196   9.433  3.2151 -2.8244  0.6271
  440MOL0     H59349   4.807   9.275   9.719 -0.2793 -0.5717  0.0392
  440MOL0     H59350   4.904   9.202   9.587 -1.2046  0.9370 -2.3832
  440MOL0     H59351   4.539   9.078   9.661  0.3332  0.1402 -1.5467
  440MOL0     H59352   4.476   8.894   9.919  1.8091 -0.3070  1.6956
  440MOL0     H59353   4.452   8.834   9.753 -1.0937 -3.5379  1.2028
  440MOL0     H59354   4.507   8.649   9.934 -0.5026  1.7678 -0.2222
  440MOL0     H59355   4.675   8.700   9.912  0.7449 -3.4282  0.9452
  440MOL0     H59356   4.644   8.518   9.754  2.0444  0.3939 -0.3489
  440MOL0     H59357   4.669   8.670   9.660  1.3353  0.9397  1.2110
  440MOL0     H59358   4.477   8.523   9.563  2.0575  1.8638 -0.8187
  440MOL0     H59359   4.435   8.677   9.623 -0.8909  0.7456  2.0898
  440MOL0     H59360   4.233   8.473   9.932 -1.2227  0.4791 -0.7976
  440MOL0     H59361   4.129   8.344  10.094  0.6928 -0.0078 -0.4199
  440MOL0     H59362   4.114   8.169  10.079 -0.3029 -0.1221 -5.5604
  440MOL0     H59363   4.255   8.247  10.161 -0.8347  0.2465  1.7258
  440MOL0     H59364   4.328   7.817  10.161  1.9000  0.5566 -0.4958
  440MOL0     H59365   4.331   7.592  10.233  1.3298  2.5202  1.4863
  440MOL0     H59366   4.390   7.217   9.966 -1.7328 -1.4405  0.4361
  440MOL0     H59367   4.547   7.271  10.044 -0.2064  1.5574  0.8849
  440MOL0     H59368   4.409   7.198  10.257  1.8540  0.9792 -0.2923
  440MOL0     H59369   4.305   7.111  10.145 -0.7560  2.3179 -0.5579
  440MOL0     H59370   4.605   7.082  10.177 -0.1876  0.0804  0.1544
  440MOL0     H59371   4.520   6.999  10.047 -0.1958 -0.9307  0.4628
  440MOL0     H59372   4.439   6.978  10.344 -2.0114  1.6548 -1.2571
  440MOL0     H59373   4.390   6.864  10.215  0.3663  0.1005  0.6699
  440MOL0     H59374   4.570   6.749  10.331 -0.1170  1.4250  0.9846
  440MOL0     H59375   4.660   6.899  10.338  1.3021  2.7399 -2.5881
  440MOL0     H59376   4.731   6.901  10.122 -0.3749  0.1613 -0.8359
  440MOL0     H59377   4.766   6.739  10.192 -0.7668  0.4005  1.5715
  440MOL0     H59378   4.523   6.793  10.010 -0.4879 -1.2537  1.2907
  440MOL0     H59379   4.585   6.639  10.076  2.0438 -1.1174 -0.9422
  440MOL0     H59380   4.733   6.816   9.879 -2.1930  0.8704  0.3739
  440MOL0     H59381   4.636   6.690   9.830 -2.5576  4.9372 -0.8436
  440MOL0     H59382   4.491   7.452   9.858 -0.8039 -2.8174  1.1345
  440MOL0     H59383   4.491   7.698   9.778  0.7875  0.5007  1.0291
  440MOL0     H59384   4.482   8.083   9.761 -1.7229 -0.9189 -1.7086
  440MOL0     H59385   4.548   8.302   9.696  1.6442 -0.3645  2.3032
  440MOL0     H59386   5.029   9.556   8.920  0.8196 -1.2607 -0.8388
  440MOL0     H59387   5.206   9.651   8.768  1.6886 -1.2691 -4.2347
  440MOL0     H59388   5.338   9.416   8.322 -1.2291  0.3901 -3.2372
  440MOL0     H59389   5.546   9.424   8.229  1.9661  0.1364  0.8755
  440MOL0     H59390   5.863   9.622   8.302  2.1704  1.5760 -2.2750
  440MOL0     H59391   5.775   9.472   8.267 -1.4139  1.5676  3.8471
  440MOL0     H59392   6.000   9.567   8.137  0.2432 -0.7379 -1.2474
  440MOL0     H59393   5.881   9.673   8.057  1.3997  0.5370  1.0981
  440MOL0     H59394   5.755   9.454   7.987 -0.0024  1.8126 -0.7502
  440MOL0     H59395   5.881   9.364   8.062 -1.2835 -0.5563  0.2579
  440MOL0     H59396   5.899   9.559   7.831 -1.2908 -1.1349 -0.7952
  440MOL0     H59397   5.921   9.382   7.810  0.6430 -0.8153  0.8764
  440MOL0     H59398   6.292   9.477   8.004 -0.6338 -2.1615  1.8821
  440MOL0     H59399   5.548   9.857   8.286  0.8926  0.4363 -2.3831
  440MOL0     H59400   5.358   9.843   8.409  0.4204 -0.6858  1.9772
  441MOL0     O59401   4.010   2.577   9.264  0.0594 -0.6766 -0.7122
  441MOL0     C59402   4.104   2.506   9.294  0.3698 -1.1389 -0.3611
  441MOL0     O59403   4.091   2.394   9.368 -0.0936 -0.2019  0.1651
  441MOL0     C59404   3.970   2.350   9.417 -0.3259  0.9739 -0.0658
  441MOL0     C59405   3.991   2.225   9.478  0.4210 -0.1227 -0.4053
  441MOL0     C59406   3.881   2.153   9.513 -0.0765  1.2189  0.0340
  441MOL0     C59407   3.747   2.199   9.492  0.2894  0.9734  0.6075
  441MOL0     O59408   3.647   2.119   9.533  0.2258 -0.6129  0.1321
  441MOL0     C59409   3.512   2.167   9.538  0.6453  0.0034  0.7096
  441MOL0     C59410   3.419   2.048   9.543 -1.1773 -0.2022  0.1318
  441MOL0     C59411   3.276   2.075   9.558  0.4244 -0.2211  0.0364
  441MOL0     C59412   3.202   1.942   9.588  0.3925 -1.3804 -0.5723
  441MOL0     C59413   3.120   1.943   9.723  0.2385 -0.0099 -0.4765
  441MOL0     C59414   2.985   2.019   9.701  0.7488 -0.2517  0.2542
  441MOL0     C59415   2.901   2.015   9.831  0.8630 -0.1298  0.3503
  441MOL0     C59416   2.781   2.117   9.818  0.8948  0.4119 -0.0098
  441MOL0     N59417   2.684   2.071   9.720  0.3548 -0.5991 -1.1055
  441MOL0     C59418   2.555   2.049   9.754  0.2319 -0.2662  0.1151
  441MOL0     C59419   2.485   2.064   9.646 -0.0099  0.0835  0.9638
  441MOL0     C59420   2.338   2.076   9.636  0.1269  0.2499  0.1398
  441MOL0     C59421   2.246   1.946   9.627  0.7118 -0.1470 -0.1100
  441MOL0     C59422   2.317   1.824   9.675  0.3159  0.0441  0.0619
  441MOL0     C59423   2.221   1.710   9.663  0.8249 -0.5339 -0.3219
  441MOL0     O59424   2.300   1.593   9.687  1.0081 -0.0936  0.0606
  441MOL0     C59425   2.231   1.471   9.686 -0.1115 -0.2586 -1.1061
  441MOL0     C59426   2.289   1.363   9.741  0.7353 -0.1141 -0.7185
  441MOL0     C59427   2.225   1.239   9.756 -0.4134 -0.5087 -0.6457
  441MOL0     C59428   2.299   1.128   9.832  0.4434  0.2343  0.4417
  441MOL0     C59429   2.090   1.226   9.727 -0.1594 -0.5232 -0.1175
  441MOL0     C59430   2.007   1.103   9.721 -0.4882 -0.3298 -0.3460
  441MOL0     O59431   1.873   1.109   9.715 -0.6635  0.6711  0.9740
  441MOL0     C59432   1.796   0.997   9.689  0.3442  1.2104 -0.3759
  441MOL0     C59433   1.813   0.912   9.579 -0.9514 -0.5448 -0.3768
  441MOL0     C59434   1.730   0.803   9.550  0.0679  0.2041 -0.1195
  441MOL0     C59435   1.622   0.780   9.630 -0.5838 -0.5219 -0.8199
  441MOL0     O59436   1.545   0.669   9.591  0.1217  0.0400 -0.1014
  441MOL0     C59437   1.450   0.615   9.693  0.0599  0.1870  0.0067
  441MOL0     C59438   1.373   0.500   9.630  0.4938 -1.0558 -0.1248
  441MOL0     C59439   1.355   0.363   9.702 -0.7871  0.6105  0.5938
  441MOL0     C59440   1.229   0.285   9.664  0.5683 -0.2165  0.0308
  441MOL0     C59441   1.257   0.137   9.704 -0.0578  0.7158  0.5146
  441MOL0     C59442   1.133   0.041   9.699 -0.8706  0.3944  0.3523
  441MOL0     C59443   1.039   0.061   9.581 -1.0551 -0.2006  0.5194
  441MOL0     C59444   0.922  -0.036   9.587 -1.0622  0.9697 -0.0495
  441MOL0    Cl59445   0.814  -0.023   9.727  0.1799 -0.0388 -0.0864
  441MOL0     C59446   1.596   0.865   9.735  0.3170 -0.2547 -0.3419
  441MOL0     C59447   1.678   0.971   9.766 -0.2086 -0.1088 -0.1242
  441MOL0     O59448   2.071   0.995   9.727  0.4703 -0.1203 -0.5598
  441MOL0     C59449   2.018   1.337   9.669 -0.2105  0.3619 -0.4188
  441MOL0     C59450   2.093   1.458   9.646 -0.1384 -0.7241 -0.5670
  441MOL0     N59451   2.577   2.100   9.548 -0.4867  0.5584 -0.2301
  441MOL0     N59452   2.696   2.105   9.587 -0.2379 -0.3270 -0.6147
  441MOL0     C59453   3.729   2.320   9.431 -0.4025 -0.0841  0.2941
  441MOL0     C59454   3.838   2.391   9.391 -0.4654 -0.0644  0.8310
  441MOL0     C59455   4.245   2.549   9.271  0.2953 -0.0528 -0.2862
  441MOL0     C59456   4.350   2.469   9.316  0.1056 -0.0826 -0.8712
  441MOL0     C59457   4.481   2.519   9.311 -0.1095  0.7611 -0.5083
  441MOL0     C59458   4.506   2.649   9.264  0.4322  0.1576 -0.8102
  441MOL0     O59459   4.631   2.711   9.255  0.5866  0.1264 -0.1466
  441MOL0     C59460   4.757   2.640   9.268  0.5835  1.0250  0.2702
  441MOL0     C59461   4.867   2.716   9.204  0.3320 -0.2220 -0.3449
  441MOL0     C59462   4.854   2.710   9.049  0.7273  0.4465  0.3216
  441MOL0     C59463   4.928   2.584   8.991  0.9214 -0.1910  0.2803
  441MOL0     C59464   5.074   2.602   8.997 -0.2909  0.2169  0.0667
  441MOL0     C59465   5.189   2.632   8.980 -0.4362  0.2769 -0.1323
  441MOL0     C59466   4.398   2.728   9.222  0.5719 -0.9740 -0.0135
  441MOL0     C59467   4.268   2.680   9.227  0.2917  0.0896 -0.5946
  441MOL0     H59468   4.093   2.193   9.497  0.4936  0.9034  1.0862
  441MOL0     H59469   3.890   2.051   9.552 -3.7584 -0.0590 -1.9959
  441MOL0     H59470   3.503   2.236   9.622  2.0249  2.5713 -1.1244
  441MOL0     H59471   3.482   2.220   9.447 -0.5376 -2.6455 -0.5631
  441MOL0     H59472   3.436   1.996   9.449  1.4847  0.6644  0.0497
  441MOL0     H59473   3.445   1.986   9.629 -2.2108  1.8511  2.0369
  441MOL0     H59474   3.255   2.154   9.630 -0.9370  2.9141 -3.4634
  441MOL0     H59475   3.245   2.123   9.464 -0.1397 -1.0085 -0.1955
  441MOL0     H59476   3.127   1.917   9.513  1.6245 -1.5867 -1.7650
  441MOL0     H59477   3.265   1.854   9.581 -0.2796 -1.9879  0.5719
  441MOL0     H59478   3.097   1.839   9.746 -1.1143 -0.1116 -2.0224
  441MOL0     H59479   3.173   1.982   9.810 -3.4739  1.6670  1.2802
  441MOL0     H59480   2.997   2.127   9.684 -0.4389  0.2176  2.1298
  441MOL0     H59481   2.925   1.975   9.622  1.4329 -1.1495  0.2230
  441MOL0     H59482   2.876   1.909   9.847 -0.2010 -0.1766 -1.2798
  441MOL0     H59483   2.960   2.052   9.915  2.2060 -0.7286 -0.2928
  441MOL0     H59484   2.812   2.220   9.800 -0.7661  0.9601  0.0767
  441MOL0     H59485   2.733   2.126   9.916  0.7126  0.9409 -0.1407
  441MOL0     H59486   2.523   2.035   9.857  1.2632 -0.8834  0.3693
  441MOL0     H59487   2.304   2.124   9.729  1.2165  2.9242 -0.7360
  441MOL0     H59488   2.321   2.146   9.554 -0.8012 -0.2847 -0.1429
  441MOL0     H59489   2.233   1.932   9.520 -0.8961  2.9379 -0.4239
  441MOL0     H59490   2.153   1.968   9.680  1.1071  1.2452  0.0499
  441MOL0     H59491   2.329   1.831   9.784 -2.4141  0.8794  0.3844
  441MOL0     H59492   2.414   1.798   9.630  1.0351 -1.2294  2.1907
  441MOL0     H59493   2.175   1.709   9.564  0.4899  1.1013 -0.2021
  441MOL0     H59494   2.144   1.731   9.737 -1.5953  2.9166 -3.4191
  441MOL0     H59495   2.395   1.371   9.762  0.4339  1.1239  0.4111
  441MOL0     H59496   2.330   1.050   9.761 -1.2633  0.8188 -1.0376
  441MOL0     H59497   2.391   1.174   9.868  0.6344 -0.6026  1.0670
  441MOL0     H59498   2.239   1.070   9.903 -0.3794  1.2037  0.5577
  441MOL0     H59499   1.892   0.934   9.507 -0.3599  1.7187  0.8753
  441MOL0     H59500   1.733   0.745   9.458  2.9916  2.0592 -1.3498
  441MOL0     H59501   1.518   0.559   9.758 -0.6554 -1.5946 -0.7180
  441MOL0     H59502   1.379   0.684   9.738 -1.4742 -1.1553 -0.2788
  441MOL0     H59503   1.280   0.542   9.589 -0.5966 -0.5623  2.6188
  441MOL0     H59504   1.441   0.470   9.549  1.9786 -0.9332  1.0332
  441MOL0     H59505   1.345   0.373   9.811 -2.5528 -1.9114  0.7497
  441MOL0     H59506   1.445   0.304   9.682 -0.2331  2.1207 -1.8017
  441MOL0     H59507   1.145   0.326   9.721 -0.4262  2.6293 -3.1138
  441MOL0     H59508   1.196   0.285   9.560  2.0447 -3.4316 -0.5405
  441MOL0     H59509   1.294   0.118   9.805  0.4367 -0.0084  0.2045
  441MOL0     H59510   1.328   0.102   9.629 -2.5697  1.5943 -2.4808
  441MOL0     H59511   1.176  -0.060   9.696  1.7612  1.4403 -0.5360
  441MOL0     H59512   1.075   0.061   9.789 -0.3380  3.7515  0.0748
  441MOL0     H59513   1.099   0.053   9.489 -0.6811  2.5847  0.4205
  441MOL0     H59514   1.005   0.165   9.572  0.1285  0.3735  2.2122
  441MOL0     H59515   0.967  -0.136   9.588 -1.5427  0.7360 -0.5711
  441MOL0     H59516   0.868  -0.031   9.492 -1.1884 -3.7599 -0.5049
  441MOL0     H59517   1.502   0.860   9.790  0.1554  0.3386 -0.5587
  441MOL0     H59518   1.686   1.016   9.864  2.0887 -4.0266  1.7334
  441MOL0     H59519   1.920   1.333   9.622  0.5305  2.4027 -2.3270
  441MOL0     H59520   2.037   1.543   9.607  0.9459 -0.0215 -0.6464
  441MOL0     H59521   3.631   2.357   9.400  0.6149 -0.5087 -4.1455
  441MOL0     H59522   3.814   2.474   9.325  2.0308 -0.6413 -0.9338
  441MOL0     H59523   4.343   2.367   9.353  1.4875 -0.9960 -2.9074
  441MOL0     H59524   4.565   2.452   9.320  0.3445  1.3521 -0.2972
  441MOL0     H59525   4.783   2.627   9.373 -2.2734  0.6949  1.0117
  441MOL0     H59526   4.749   2.539   9.227  2.9794 -0.0343  2.1572
  441MOL0     H59527   4.968   2.688   9.235 -0.3046 -2.8712 -0.4627
  441MOL0     H59528   4.842   2.821   9.222  2.5508  0.0510  1.6734
  441MOL0     H59529   4.891   2.802   9.002 -0.3272  0.8614  0.2799
  441MOL0     H59530   4.750   2.696   9.019  0.0438  0.9195  2.3219
  441MOL0     H59531   4.893   2.558   8.890  2.9404  0.1630 -0.5592
  441MOL0     H59532   4.895   2.495   9.045  0.1348 -0.2018 -0.1939
  441MOL0     H59533   5.288   2.669   8.961 -1.1200  2.2760 -0.0867
  441MOL0     H59534   4.435   2.823   9.186  0.6762  0.3165  3.1607
  441MOL0     H59535   4.187   2.738   9.185  0.3081  1.3996  1.0578
  442MOL0     O59536   8.063   9.135   5.585  0.6564 -0.8971  0.2044
  442MOL0     C59537   8.029   9.232   5.650 -0.1030 -0.3957 -0.0585
  442MOL0     O59538   8.021   9.227   5.787 -0.2943 -0.8343 -0.2817
  442MOL0     C59539   7.991   9.110   5.851  0.0315 -0.2163 -0.6715
  442MOL0     C59540   7.884   9.021   5.823  0.0848 -0.4745  0.4506
  442MOL0     C59541   7.846   8.923   5.909  0.5132  0.0343  0.2911
  442MOL0     C59542   7.921   8.905   6.033 -0.2822 -0.1448 -0.6137
  442MOL0     O59543   7.889   8.797   6.105 -0.5802  0.4864  0.0897
  442MOL0     C59544   7.951   8.778   6.230 -0.1629 -1.3034 -0.5457
  442MOL0     C59545   7.899   8.649   6.293 -0.8142 -0.9914 -0.2604
  442MOL0     C59546   7.923   8.519   6.219 -0.4674  0.0678 -1.1565
  442MOL0     C59547   8.068   8.477   6.203  0.4828  0.0704  0.2221
  442MOL0     C59548   8.066   8.334   6.150  0.1617  0.1032  0.2323
  442MOL0     C59549   8.204   8.279   6.176  0.7841 -0.2459 -0.1386
  442MOL0     C59550   8.207   8.138   6.122  0.3051 -0.4474 -1.1263
  442MOL0     C59551   8.321   8.069   6.189 -0.2775 -0.1434 -0.4156
  442MOL0     N59552   8.449   8.127   6.162  0.8467 -0.0536 -0.6260
  442MOL0     C59553   8.537   8.088   6.065  0.6730  0.7979 -0.3060
  442MOL0     C59554   8.644   8.172   6.074  0.1944  0.7270 -0.1558
  442MOL0     C59555   8.779   8.180   6.010 -0.2911  0.5174  0.0020
  442MOL0     C59556   8.849   8.040   5.993 -0.0328  0.6327  0.0596
  442MOL0     C59557   8.820   7.977   5.861 -0.1070 -0.0979  0.4592
  442MOL0     C59558   8.899   8.051   5.754 -0.1826 -0.2590 -0.3417
  442MOL0     O59559   8.915   7.968   5.640 -0.0436  0.0488 -0.4897
  442MOL0     C59560   8.997   8.009   5.540 -0.2667 -0.6961 -0.1487
  442MOL0     C59561   9.023   7.903   5.452  0.0494  0.6918  0.8678
  442MOL0     C59562   9.096   7.928   5.330  0.2602  0.0763  1.5000
  442MOL0     C59563   9.107   7.810   5.237  0.2103  0.2681 -1.1682
  442MOL0     C59564   9.155   8.055   5.307 -0.5593 -0.2098 -0.8879
  442MOL0     C59565   9.234   8.086   5.183 -0.2692 -0.0378 -0.3120
  442MOL0     O59566   9.360   8.150   5.195  0.5545 -0.0338  0.0172
  442MOL0     C59567   9.419   8.203   5.085  0.1630  0.7613 -0.4669
  442MOL0     C59568   9.477   8.328   5.097 -0.2343 -0.1037 -0.5847
  442MOL0     C59569   9.558   8.381   4.997 -0.5869 -0.3263  0.5012
  442MOL0     C59570   9.580   8.311   4.877  1.0726  0.3070 -0.5936
  442MOL0     O59571   9.646   8.387   4.789  0.4659  0.2374  0.3877
  442MOL0     C59572   9.691   8.328   4.667 -1.1337  0.6246 -0.5898
  442MOL0     C59573   9.682   8.417   4.543  0.3975  0.0139 -0.1616
  442MOL0     C59574   9.741   8.364   4.404 -0.2410 -0.6312 -0.7455
  442MOL0     C59575   9.669   8.241   4.345 -0.0276 -0.8287  0.4991
  442MOL0     C59576   9.517   8.257   4.354  0.2811  0.0167 -0.2762
  442MOL0     C59577   9.453   8.148   4.268  0.6960  0.0289  0.7043
  442MOL0     C59578   9.300   8.166   4.260 -1.2512  0.4003 -0.0252
  442MOL0     C59579   9.235   8.052   4.186  0.0872 -0.2373 -0.6343
  442MOL0    Cl59580   9.240   8.052   4.006  0.1679 -0.8063 -0.0695
  442MOL0     C59581   9.535   8.176   4.871 -0.7403 -0.5041 -0.4283
  442MOL0     C59582   9.450   8.125   4.980 -0.2321  0.4008  0.0980
  442MOL0     O59583   9.176   8.071   5.076 -0.1414  0.1866 -0.5520
  442MOL0     C59584   9.143   8.159   5.406  0.1805  0.5283 -0.4205
  442MOL0     C59585   9.060   8.138   5.523 -0.4568 -0.3856 -0.5487
  442MOL0     N59586   8.615   8.258   6.181  0.8069 -0.5128  0.4860
  442MOL0     N59587   8.506   8.231   6.234  0.0275  0.1088  0.3662
  442MOL0     C59588   8.031   8.988   6.060  0.1660  0.2685 -0.3431
  442MOL0     C59589   8.063   9.091   5.975 -0.2792 -0.2836  0.5893
  442MOL0     C59590   8.023   9.361   5.582 -0.0115 -0.2665 -0.3670
  442MOL0     C59591   7.931   9.462   5.617 -0.9005  0.1716  0.0290
  442MOL0     C59592   7.911   9.581   5.543  0.8249  0.0138  0.3853
  442MOL0     C59593   7.979   9.601   5.422 -0.2218 -0.1514 -0.6830
  442MOL0     O59594   7.956   9.708   5.341 -0.6064  0.3761 -0.9841
  442MOL0     C59595   7.858   9.808   5.356 -0.1648 -0.1189 -0.5751
  442MOL0     C59596   7.846   9.904   5.232 -0.4278 -0.5073 -0.0464
  442MOL0     C59597   7.812  10.045   5.261 -0.0698 -0.0871 -0.5410
  442MOL0     C59598   7.769  10.110   5.128 -0.0255  0.0769 -0.3020
  442MOL0     C59599   7.687  10.232   5.138  0.3465  0.1010  0.6242
  442MOL0     C59600   7.617  10.331   5.141 -0.1730  0.0964  0.3268
  442MOL0     C59601   8.067   9.501   5.379 -0.5334  0.0418 -0.2533
  442MOL0     C59602   8.086   9.380   5.453 -0.6027  0.5595 -0.7233
  442MOL0     H59603   7.823   9.036   5.734 -0.6124  1.6860  1.2192
  442MOL0     H59604   7.769   8.850   5.887  1.7667 -1.9715  2.1136
  442MOL0     H59605   8.058   8.768   6.214 -0.1144 -4.2190  0.9471
  442MOL0     H59606   7.938   8.869   6.290 -2.6318 -2.1810  0.4236
  442MOL0     H59607   7.946   8.636   6.391 -1.1786 -2.7432 -0.2855
  442MOL0     H59608   7.792   8.660   6.314 -0.5060 -2.4948  2.4831
  442MOL0     H59609   7.877   8.437   6.276  1.3253  0.4728  1.0442
  442MOL0     H59610   7.871   8.521   6.123 -2.6162 -0.5197 -0.0780
  442MOL0     H59611   8.119   8.544   6.134 -0.1633  1.2688  0.8776
  442MOL0     H59612   8.124   8.470   6.297  1.2969  0.9555 -0.1833
  442MOL0     H59613   7.996   8.264   6.197  4.3383 -3.4336  1.8049
  442MOL0     H59614   8.038   8.337   6.045 -0.7058  0.2239  0.4551
  442MOL0     H59615   8.269   8.340   6.113  3.3634 -1.2877  1.3683
  442MOL0     H59616   8.232   8.291   6.281 -0.6680  1.9961  0.0835
  442MOL0     H59617   8.116   8.081   6.140  0.4000  0.4214  2.8509
  442MOL0     H59618   8.238   8.143   6.017  2.2940 -2.3823 -0.7146
  442MOL0     H59619   8.330   7.970   6.143 -0.5253  0.2168 -1.2544
  442MOL0     H59620   8.307   8.042   6.294  0.8784 -2.8955 -0.8705
  442MOL0     H59621   8.535   7.998   6.005  0.1223 -0.5933  1.6988
  442MOL0     H59622   8.763   8.227   5.912  1.0186 -1.3472 -1.1685
  442MOL0     H59623   8.837   8.237   6.083 -5.1015  4.5301  1.2420
  442MOL0     H59624   8.832   7.973   6.078  0.5147 -1.8897 -1.6884
  442MOL0     H59625   8.957   8.056   5.992  0.0289  0.7370  2.5433
  442MOL0     H59626   8.715   7.986   5.832 -0.2383  3.2200  1.5583
  442MOL0     H59627   8.858   7.875   5.863 -2.5532 -1.0521  1.5965
  442MOL0     H59628   8.994   8.092   5.789 -0.1428  1.4541 -2.1952
  442MOL0     H59629   8.859   8.151   5.732  3.8418  3.1426  5.2394
  442MOL0     H59630   8.988   7.803   5.476  0.4664  0.1820 -0.5541
  442MOL0     H59631   9.016   7.752   5.252 -0.4845  1.1396 -1.8453
  442MOL0     H59632   9.090   7.846   5.135 -2.8026 -2.6347 -1.8526
  442MOL0     H59633   9.196   7.748   5.251 -0.9353 -1.1721  0.1141
  442MOL0     H59634   9.472   8.390   5.186  1.4142 -2.0648  0.9795
  442MOL0     H59635   9.589   8.485   5.004  1.6790 -0.8824 -0.2666
  442MOL0     H59636   9.784   8.271   4.675  0.0655  2.4388 -1.0233
  442MOL0     H59637   9.631   8.240   4.639  1.3408 -1.7677  1.0674
  442MOL0     H59638   9.578   8.446   4.523  0.8999  0.4457 -2.3488
  442MOL0     H59639   9.743   8.503   4.571 -0.4690  0.8412 -0.7375
  442MOL0     H59640   9.846   8.341   4.425 -0.3690 -0.5553  0.0223
  442MOL0     H59641   9.743   8.447   4.332 -0.1795 -1.0999 -1.2922
  442MOL0     H59642   9.702   8.235   4.241 -1.3676 -2.2241  0.1134
  442MOL0     H59643   9.691   8.146   4.396  0.6025 -1.1405 -0.3360
  442MOL0     H59644   9.485   8.357   4.322  0.2180  0.9868  2.5462
  442MOL0     H59645   9.480   8.244   4.456 -2.7326  2.0358 -0.9597
  442MOL0     H59646   9.486   8.164   4.165  1.3630  0.2114  0.9427
  442MOL0     H59647   9.478   8.055   4.321  0.1472  1.0763  2.9197
  442MOL0     H59648   9.278   8.263   4.215 -2.2440 -0.0737 -0.5740
  442MOL0     H59649   9.256   8.173   4.360 -0.3326 -1.2854  0.5484
  442MOL0     H59650   9.136   8.061   4.233  0.3369  4.1197 -0.5409
  442MOL0     H59651   9.276   7.959   4.225 -3.3327 -0.5495  2.8558
  442MOL0     H59652   9.552   8.110   4.787  1.0611 -0.7258  0.0802
  442MOL0     H59653   9.412   8.023   4.979 -3.6985  1.3239  4.3265
  442MOL0     H59654   9.194   8.245   5.364 -1.1346  2.4764  1.7571
  442MOL0     H59655   9.046   8.213   5.600 -0.6698 -1.0553  0.0725
  442MOL0     H59656   8.096   8.975   6.145  1.1057 -3.0488 -1.4512
  442MOL0     H59657   8.141   9.161   6.000  1.7002 -2.5417  1.0901
  442MOL0     H59658   7.872   9.434   5.704 -3.2324 -0.0426 -1.5316
  442MOL0     H59659   7.834   9.651   5.575  0.2610 -0.1382 -0.6001
  442MOL0     H59660   7.762   9.757   5.365 -1.1364  1.8193  1.1187
  442MOL0     H59661   7.884   9.872   5.441 -0.5141 -0.1582 -0.4380
  442MOL0     H59662   7.765   9.857   5.176 -1.0614 -0.4047  0.7539
  442MOL0     H59663   7.943   9.909   5.183  1.1535  4.8425  2.7764
  442MOL0     H59664   7.895  10.101   5.304  0.9440 -1.0431 -1.1958
  442MOL0     H59665   7.727  10.038   5.330  0.0790 -3.7490 -0.5438
  442MOL0     H59666   7.703  10.048   5.066  1.6800 -0.2997 -1.8363
  442MOL0     H59667   7.864  10.136   5.080  1.2536 -1.2890  1.3667
  442MOL0     H59668   7.568  10.425   5.154 -0.6239  0.2224 -1.9947
  442MOL0     H59669   8.108   9.502   5.279  1.5611 -3.3534  0.4187
  442MOL0     H59670   8.155   9.301   5.426 -1.9447 -0.5449 -1.0623
  443MOL0     O59671   6.950   2.917   3.361  0.5171  0.1198  0.3770
  443MOL0     C59672   6.996   3.024   3.341 -0.4146  0.3421  0.3881
  443MOL0     O59673   6.917   3.136   3.324  0.1812  0.1310  0.5973
  443MOL0     C59674   6.792   3.107   3.296  0.3964 -0.7564 -0.9560
  443MOL0     C59675   6.703   3.103   3.403 -0.2667 -0.0508 -0.5900
  443MOL0     C59676   6.568   3.076   3.369 -0.3382 -0.1182 -0.0834
  443MOL0     C59677   6.521   3.066   3.241  0.3529  0.7121 -0.2135
  443MOL0     O59678   6.383   3.056   3.232  0.6713 -0.1221 -0.4870
  443MOL0     C59679   6.340   3.014   3.100 -0.3862 -0.1279 -0.2730
  443MOL0     C59680   6.198   2.968   3.117 -0.2160  0.9081 -0.1872
  443MOL0     C59681   6.133   2.905   2.993 -0.9272  0.4787 -0.4777
  443MOL0     C59682   5.991   2.852   3.023 -0.7333  0.7009 -0.5276
  443MOL0     C59683   5.994   2.701   3.074  0.2930 -0.7685  0.5452
  443MOL0     C59684   6.031   2.588   2.973  0.0609 -0.0040 -0.0076
  443MOL0     C59685   5.954   2.457   3.015 -0.0624  0.0861  0.8163
  443MOL0     C59686   6.006   2.334   2.922  1.0455 -0.1494 -1.0536
  443MOL0     N59687   5.917   2.219   2.959  0.7367  0.0661  0.1161
  443MOL0     C59688   5.925   2.151   3.081  0.4836  0.0511  0.0385
  443MOL0     C59689   5.846   2.033   3.063  0.2827 -0.2072 -0.1681
  443MOL0     C59690   5.831   1.912   3.155 -0.5008  0.3460  0.7336
  443MOL0     C59691   5.973   1.846   3.166 -0.5011  0.1968 -0.2348
  443MOL0     C59692   6.042   1.803   3.034 -0.2690 -0.0701  0.1207
  443MOL0     C59693   6.186   1.749   3.033  0.3197 -0.2873 -0.2673
  443MOL0     O59694   6.274   1.865   3.051 -0.3132  0.7694  0.1712
  443MOL0     C59695   6.365   1.861   3.148  0.4442 -0.4021  0.0657
  443MOL0     C59696   6.382   1.975   3.222  0.7472 -1.4299 -0.6279
  443MOL0     C59697   6.470   1.978   3.335  0.6432 -0.1072  0.2351
  443MOL0     C59698   6.484   2.100   3.418 -0.7537 -0.3323 -0.5465
  443MOL0     C59699   6.524   1.853   3.368 -1.0748  0.0975 -0.5242
  443MOL0     C59700   6.613   1.832   3.491 -0.6392  0.4565 -0.0080
  443MOL0     O59701   6.596   1.726   3.565 -0.3871 -1.1204  0.9517
  443MOL0     C59702   6.697   1.663   3.642 -0.2923  0.0971 -0.0094
  443MOL0     C59703   6.833   1.693   3.635  0.0638 -0.3460 -1.0588
  443MOL0     C59704   6.925   1.633   3.720 -0.2468  0.1065 -0.2429
  443MOL0     C59705   6.881   1.543   3.822 -0.3146  0.1021 -0.4843
  443MOL0     O59706   6.972   1.493   3.910 -0.2539 -0.3430 -0.1150
  443MOL0     C59707   6.990   1.348   3.903 -0.3317 -0.4908  0.3529
  443MOL0     C59708   7.097   1.314   3.800  0.0590 -0.1156  0.4873
  443MOL0     C59709   7.112   1.160   3.774 -0.3558  0.0715  0.8812
  443MOL0     C59710   7.206   1.124   3.657  0.2470  0.5343  0.1352
  443MOL0     C59711   7.202   0.973   3.648  0.4370 -0.8632 -0.5085
  443MOL0     C59712   7.271   0.917   3.525 -0.1630 -0.4926  0.1630
  443MOL0     C59713   7.270   0.760   3.520  0.1817 -0.4898  0.2212
  443MOL0     C59714   7.290   0.713   3.377 -0.1635  0.8341 -0.2688
  443MOL0    Cl59715   7.462   0.762   3.348 -0.0480  0.1171  0.2446
  443MOL0     C59716   6.746   1.508   3.826 -0.3658 -0.6259  0.2693
  443MOL0     C59717   6.656   1.561   3.730 -0.1926  0.8223  0.3554
  443MOL0     O59718   6.704   1.916   3.508  0.2512 -0.3945 -0.7173
  443MOL0     C59719   6.515   1.738   3.289  0.0096 -0.0462  0.1938
  443MOL0     C59720   6.439   1.743   3.175 -0.2859 -0.3950  0.1625
  443MOL0     N59721   5.791   2.057   2.937  0.2142 -0.1546 -0.3739
  443MOL0     N59722   5.826   2.162   2.877 -0.0101  0.7434  0.0229
  443MOL0     C59723   6.613   3.062   3.136 -1.1136 -1.1029  0.4081
  443MOL0     C59724   6.750   3.088   3.164 -0.3268  0.5895  0.4231
  443MOL0     C59725   7.136   3.022   3.333 -0.0428  0.4038 -0.2599
  443MOL0     C59726   7.206   3.143   3.354 -0.1673  0.3593 -0.0085
  443MOL0     C59727   7.349   3.151   3.362  0.3035  0.0139  0.0533
  443MOL0     C59728   7.421   3.032   3.364 -0.7548 -0.3561  0.2417
  443MOL0     O59729   7.568   3.035   3.365  0.4450 -0.1380 -0.2810
  443MOL0     C59730   7.635   2.997   3.247 -0.2568 -0.4383  0.5250
  443MOL0     C59731   7.755   2.915   3.280  0.9551 -0.2630 -0.0435
  443MOL0     C59732   7.717   2.801   3.366  0.5673  0.1422  0.8300
  443MOL0     C59733   7.831   2.707   3.372 -0.0731 -0.1311 -0.4779
  443MOL0     C59734   7.960   2.765   3.422  0.3156 -0.7840 -0.4936
  443MOL0     C59735   8.073   2.809   3.439  0.4712 -0.1731  0.2014
  443MOL0     C59736   7.349   2.913   3.336 -0.1865  0.1096 -1.4703
  443MOL0     C59737   7.209   2.902   3.325 -0.3478  0.7355 -0.2400
  443MOL0     H59738   6.739   3.097   3.505  0.1072 -1.2200 -0.7671
  443MOL0     H59739   6.498   3.082   3.453  1.0453  0.1383  1.0905
  443MOL0     H59740   6.363   3.092   3.027  0.9531  0.6761  0.9506
  443MOL0     H59741   6.407   2.933   3.073  3.5643  2.8948 -0.4479
  443MOL0     H59742   6.184   2.906   3.206 -2.2475  2.9091  0.9780
  443MOL0     H59743   6.122   3.043   3.140 -0.7331  0.3606 -0.0794
  443MOL0     H59744   6.135   2.975   2.908  1.1413  0.0805 -0.7975
  443MOL0     H59745   6.189   2.816   2.966 -2.3644 -0.5280 -0.2463
  443MOL0     H59746   5.947   2.918   3.099 -0.1468  0.3998  0.0880
  443MOL0     H59747   5.918   2.849   2.942 -1.0701 -2.2972 -0.2221
  443MOL0     H59748   6.061   2.713   3.160 -2.0402 -0.8832  2.4954
  443MOL0     H59749   5.897   2.682   3.122  0.8908 -0.7682  1.8108
  443MOL0     H59750   6.010   2.615   2.870 -0.0236 -2.7171 -0.7698
  443MOL0     H59751   6.139   2.575   2.972  0.0824 -0.1552  1.3194
  443MOL0     H59752   5.976   2.431   3.119 -1.3246 -1.8361  0.6608
  443MOL0     H59753   5.846   2.463   3.001 -0.1977  1.5970  2.3111
  443MOL0     H59754   6.112   2.330   2.949  1.1609  0.3780 -1.4092
  443MOL0     H59755   6.003   2.344   2.813 -0.6842 -1.8647 -1.2157
  443MOL0     H59756   5.988   2.176   3.166 -0.0340  0.6842  0.2516
  443MOL0     H59757   5.797   1.942   3.255 -1.7678 -0.1727  0.4737
  443MOL0     H59758   5.765   1.839   3.109 -1.2672  2.3034 -1.5063
  443MOL0     H59759   5.975   1.763   3.237  1.0107  1.0004  0.7206
  443MOL0     H59760   6.045   1.913   3.214  0.5817 -2.3886  1.9824
  443MOL0     H59761   6.052   1.891   2.971  1.9083  2.4101  3.5795
  443MOL0     H59762   5.980   1.721   2.995  0.8126 -1.7455  1.7412
  443MOL0     H59763   6.212   1.704   2.937  0.1501 -1.1037  0.0645
  443MOL0     H59764   6.188   1.669   3.108 -0.8564  0.0197  0.1151
  443MOL0     H59765   6.322   2.062   3.199  0.3586 -0.7413  2.5678
  443MOL0     H59766   6.433   2.083   3.514 -2.9269 -0.6744 -1.6986
  443MOL0     H59767   6.589   2.127   3.433 -0.9304 -0.4588  1.1817
  443MOL0     H59768   6.440   2.186   3.368 -0.1613 -0.4541 -1.2911
  443MOL0     H59769   6.865   1.763   3.558  1.3729  1.7111  1.2123
  443MOL0     H59770   7.029   1.656   3.699 -0.1596 -1.5923 -2.0023
  443MOL0     H59771   7.039   1.316   3.996  1.6528  1.0295 -0.1261
  443MOL0     H59772   6.902   1.284   3.891 -0.7269  0.3298 -1.4365
  443MOL0     H59773   7.078   1.361   3.703  2.5557  1.0415  0.4785
  443MOL0     H59774   7.196   1.354   3.825 -0.2640  0.8339  0.2679
  443MOL0     H59775   7.008   1.127   3.763  0.1775 -1.2074 -0.7022
  443MOL0     H59776   7.139   1.105   3.865 -0.5763  0.2253  1.0405
  443MOL0     H59777   7.160   1.160   3.565 -1.7034 -0.4449  0.6584
  443MOL0     H59778   7.309   1.157   3.669  0.6222 -1.0217  1.7393
  443MOL0     H59779   7.098   0.942   3.660 -0.5975  1.7492 -1.9969
  443MOL0     H59780   7.264   0.942   3.733  0.6452  1.1842  0.1456
  443MOL0     H59781   7.221   0.963   3.439  3.9125  0.8990 -1.7202
  443MOL0     H59782   7.372   0.957   3.510 -0.6641 -0.2400 -3.5863
  443MOL0     H59783   7.169   0.734   3.553 -0.2497 -0.4160 -0.9848
  443MOL0     H59784   7.343   0.710   3.585  0.0397 -0.0708  0.7036
  443MOL0     H59785   7.211   0.767   3.324 -0.9742  0.0435  0.0978
  443MOL0     H59786   7.282   0.604   3.367  0.7609  0.8068 -0.8434
  443MOL0     H59787   6.722   1.432   3.899  1.7877 -0.6902  0.9921
  443MOL0     H59788   6.551   1.537   3.718  0.3121 -2.0078  0.8229
  443MOL0     H59789   6.563   1.645   3.316 -2.2834 -1.3553 -0.0383
  443MOL0     H59790   6.428   1.648   3.122 -2.2700 -0.8334  1.2609
  443MOL0     H59791   6.583   3.065   3.032  1.8025 -0.0174 -0.4794
  443MOL0     H59792   6.827   3.072   3.089  1.8876 -1.5731  2.9222
  443MOL0     H59793   7.156   3.239   3.343 -3.8601 -1.3274  0.5722
  443MOL0     H59794   7.411   3.240   3.367  0.4534 -0.1428  1.1159
  443MOL0     H59795   7.573   2.946   3.172  0.2073 -0.0291 -0.1397
  443MOL0     H59796   7.664   3.093   3.205 -0.5732 -0.8278 -0.6403
  443MOL0     H59797   7.833   2.978   3.323  0.9662 -0.0021 -0.4396
  443MOL0     H59798   7.791   2.880   3.182  0.4513  0.2923 -0.4355
  443MOL0     H59799   7.634   2.745   3.323  0.6337  0.4708  0.2673
  443MOL0     H59800   7.679   2.828   3.464 -0.2048  2.6551 -0.0961
  443MOL0     H59801   7.846   2.649   3.280  1.6094 -3.6959  1.8463
  443MOL0     H59802   7.794   2.637   3.447 -1.3033  1.2140  0.2133
  443MOL0     H59803   8.169   2.851   3.462 -0.6236  1.9815  1.0854
  443MOL0     H59804   7.395   2.815   3.337 -1.7739 -0.6679  0.2739
  443MOL0     H59805   7.161   2.804   3.323  1.5229 -0.2361 -0.0049
  444MOL0     O59806  10.870   5.014   9.869  0.0804  0.4152  0.0217
  444MOL0     C59807  10.807   4.969   9.777 -0.2608 -0.4587 -0.3323
  444MOL0     O59808  10.677   4.993   9.763 -0.4667  0.2480  0.4083
  444MOL0     C59809  10.611   5.067   9.857 -0.4417 -0.1533  0.4269
  444MOL0     C59810  10.492   5.014   9.907  0.3999 -0.7101 -0.0109
  444MOL0     C59811  10.405   5.096   9.987  0.0993 -0.5766  0.0041
  444MOL0     C59812  10.446   5.235  10.012  0.3889 -0.1693  0.4499
  444MOL0     O59813  10.363   5.342  10.048  0.0074  0.7416  0.4096
  444MOL0     C59814  10.228   5.337   9.986 -0.8490 -0.5517 -0.0829
  444MOL0     C59815  10.144   5.464   9.996 -0.0845  0.1008 -0.7346
  444MOL0     C59816  10.025   5.452   9.898  0.1727  0.4903 -0.1573
  444MOL0     C59817   9.919   5.566   9.913 -0.1140 -0.6483  0.1524
  444MOL0     C59818   9.789   5.535   9.842  0.2691  0.8132  0.5756
  444MOL0     C59819   9.687   5.639   9.873  0.5103 -0.4092  0.6137
  444MOL0     C59820   9.561   5.604   9.793  0.0719 -0.0234 -0.8165
  444MOL0     C59821   9.425   5.610   9.878 -0.2728 -0.4090  0.3377
  444MOL0     N59822   9.311   5.586   9.779 -0.4874  0.3651  0.0827
  444MOL0     C59823   9.276   5.679   9.683 -0.2678  0.4382 -0.2953
  444MOL0     C59824   9.187   5.606   9.607 -0.2787  0.7953 -0.3534
  444MOL0     C59825   9.094   5.658   9.505  0.1197 -0.7294 -0.2331
  444MOL0     C59826   9.013   5.548   9.439  0.5296 -0.7603  0.2820
  444MOL0     C59827   8.925   5.610   9.320 -0.1187  0.0071 -0.1549
  444MOL0     C59828   8.789   5.660   9.379  0.1817  0.1881 -0.5420
  444MOL0     O59829   8.799   5.790   9.450 -0.2755 -0.1707  1.0746
  444MOL0     C59830   8.681   5.858   9.477 -0.3328 -0.0445 -0.1432
  444MOL0     C59831   8.550   5.818   9.436 -0.4400 -0.4305 -0.0914
  444MOL0     C59832   8.439   5.877   9.493  0.8553  0.0687 -0.2513
  444MOL0     C59833   8.304   5.827   9.453 -0.3985 -0.3454 -0.3995
  444MOL0     C59834   8.456   5.990   9.581 -0.5202  0.1405 -0.8244
  444MOL0     C59835   8.341   6.041   9.660  0.2128  0.4769  0.6956
  444MOL0     O59836   8.362   6.168   9.702 -0.1799 -0.4399 -0.1418
  444MOL0     C59837   8.265   6.212   9.793 -0.1530  1.1043  0.7566
  444MOL0     C59838   8.166   6.301   9.759  0.3064 -0.0170  0.1973
  444MOL0     C59839   8.059   6.326   9.843 -0.4139  0.2786 -0.7526
  444MOL0     C59840   8.049   6.282   9.970  0.0692 -1.2442 -0.8424
  444MOL0     O59841   7.936   6.309  10.041 -0.2155  0.0620 -0.1421
  444MOL0     C59842   7.902   6.218  10.146 -0.4447  0.8732 -0.1709
  444MOL0     C59843   7.917   6.301  10.282 -0.0120 -0.6701  0.0752
  444MOL0     C59844   7.802   6.396  10.273  0.4043 -0.0490  0.1959
  444MOL0     C59845   7.762   6.442  10.420  0.1838 -1.0531  0.6142
  444MOL0     C59846   7.664   6.564  10.404  1.2307 -0.1714 -0.1326
  444MOL0     C59847   7.606   6.583  10.549 -0.9737 -0.5149 -0.2723
  444MOL0     C59848   7.512   6.704  10.569 -1.2587 -0.6521  0.3981
  444MOL0     C59849   7.372   6.693  10.516  0.6129 -0.1205  0.1789
  444MOL0    Cl59850   7.287   6.835  10.543  0.2017 -0.7021 -0.5650
  444MOL0     C59851   8.155   6.192  10.007 -0.6802 -0.1315 -0.3050
  444MOL0     C59852   8.261   6.170   9.921 -0.2212 -0.3048 -0.9692
  444MOL0     O59853   8.243   5.973   9.691 -0.3758 -0.5574 -0.4436
  444MOL0     C59854   8.587   6.031   9.612  0.1181 -0.0829  0.0282
  444MOL0     C59855   8.695   5.967   9.558  0.6677 -0.3907  0.6243
  444MOL0     N59856   9.173   5.473   9.658 -0.7587 -0.9567 -0.2179
  444MOL0     N59857   9.240   5.470   9.772 -0.2260 -0.3404  0.3986
  444MOL0     C59858  10.569   5.282   9.959  0.4982  0.3989 -0.4542
  444MOL0     C59859  10.652   5.196   9.886  0.2773 -0.4463  0.3001
  444MOL0     C59860  10.870   4.903   9.660 -0.0346 -0.2057  1.4290
  444MOL0     C59861  11.009   4.887   9.650  0.6756 -0.3232  0.4137
  444MOL0     C59862  11.067   4.823   9.543 -0.0166  0.5516  0.4288
  444MOL0     C59863  10.996   4.788   9.432 -0.3276  0.5657  0.0733
  444MOL0     O59864  11.064   4.728   9.330  0.5646 -0.5510 -0.1940
  444MOL0     C59865  11.001   4.714   9.202 -0.5084  0.3707 -0.1821
  444MOL0     C59866  11.096   4.660   9.101 -0.8248  0.1816  0.1303
  444MOL0     C59867  11.241   4.717   9.097 -0.3743 -0.3092 -0.2855
  444MOL0     C59868  11.310   4.743   8.962  0.4599  0.2495 -0.1519
  444MOL0     C59869  11.360   4.615   8.912  0.1631 -0.5315 -0.4041
  444MOL0     C59870  11.374   4.514   8.848 -0.2789 -0.3581 -0.5200
  444MOL0     C59871  10.858   4.816   9.427 -0.1844  0.4910  0.0634
  444MOL0     C59872  10.797   4.868   9.543 -0.4254 -0.5078  0.4203
  444MOL0     H59873  10.467   4.910   9.886  2.0180 -1.3177  0.8770
  444MOL0     H59874  10.305   5.062  10.009 -1.8317  2.9607 -2.3326
  444MOL0     H59875  10.242   5.317   9.879  1.3127  0.4254 -0.0277
  444MOL0     H59876  10.170   5.257  10.034 -1.8522  0.2134  0.0228
  444MOL0     H59877  10.110   5.487  10.097 -1.7438  0.5952 -1.3639
  444MOL0     H59878  10.201   5.553   9.967 -1.6549  1.3396 -0.1909
  444MOL0     H59879  10.065   5.444   9.797  0.8092 -3.9427  0.2373
  444MOL0     H59880   9.977   5.356   9.920 -0.4457  0.1859 -2.6029
  444MOL0     H59881   9.905   5.577  10.021 -0.9543  2.8890 -0.1744
  444MOL0     H59882   9.952   5.664   9.875 -2.4924 -0.3006 -1.2585
  444MOL0     H59883   9.809   5.522   9.735 -0.1489  0.0762  0.5750
  444MOL0     H59884   9.759   5.434   9.872  4.4033 -0.5118  0.8704
  444MOL0     H59885   9.668   5.655   9.979  2.9997  3.4154  0.7137
  444MOL0     H59886   9.736   5.734   9.846  0.1558 -0.2244  0.6185
  444MOL0     H59887   9.553   5.658   9.698  2.1238 -1.0815 -1.6581
  444MOL0     H59888   9.573   5.499   9.765  0.7034 -0.0223 -0.5790
  444MOL0     H59889   9.423   5.699   9.941 -0.9694 -1.0804  1.2896
  444MOL0     H59890   9.406   5.521   9.939 -2.4022 -2.2729 -2.7567
  444MOL0     H59891   9.300   5.784   9.674 -1.4811  0.7105 -0.6185
  444MOL0     H59892   9.014   5.704   9.563  0.6894  1.6302 -1.2134
  444MOL0     H59893   9.136   5.735   9.440 -1.1343  1.0452  0.9616
  444MOL0     H59894   8.941   5.501   9.506  1.3721 -1.6082  0.6072
  444MOL0     H59895   9.081   5.471   9.402  3.2711  2.0752 -1.0534
  444MOL0     H59896   8.907   5.526   9.252  1.4449  0.7463 -1.5832
  444MOL0     H59897   8.984   5.682   9.263 -1.0270 -2.2246 -4.2955
  444MOL0     H59898   8.751   5.588   9.453  1.2603 -0.3276 -0.4742
  444MOL0     H59899   8.726   5.664   9.290 -0.3038 -0.7913 -0.2566
  444MOL0     H59900   8.529   5.726   9.382  0.2209 -2.2007  2.4939
  444MOL0     H59901   8.293   5.769   9.361 -0.3283 -2.2231  0.7211
  444MOL0     H59902   8.285   5.764   9.541  2.0360  0.8970  1.1501
  444MOL0     H59903   8.232   5.908   9.442  0.1279 -0.0932 -2.2893
  444MOL0     H59904   8.164   6.360   9.668  0.3751  0.4460  0.4920
  444MOL0     H59905   7.986   6.392   9.798 -0.4370  1.0973  0.4530
  444MOL0     H59906   7.806   6.167  10.140  0.4960 -0.7611 -3.0322
  444MOL0     H59907   7.957   6.124  10.141 -1.1929  0.3053  1.6320
  444MOL0     H59908   7.905   6.239  10.371  1.1579 -0.0680  0.6657
  444MOL0     H59909   8.014   6.349  10.292  0.6718 -2.0582  0.3891
  444MOL0     H59910   7.718   6.341  10.227  0.7999 -1.3235  0.9425
  444MOL0     H59911   7.822   6.484  10.211 -0.2660 -0.1183 -0.1365
  444MOL0     H59912   7.711   6.354  10.460 -0.9897 -0.9578 -0.5843
  444MOL0     H59913   7.852   6.468  10.476  1.0983 -1.3637 -0.6535
  444MOL0     H59914   7.583   6.551  10.330 -0.7080  3.5835  1.0793
  444MOL0     H59915   7.719   6.654  10.376 -0.0017 -0.0085 -2.2693
  444MOL0     H59916   7.541   6.501  10.581 -0.1046  0.0028  3.2935
  444MOL0     H59917   7.687   6.594  10.622  0.5629 -4.4908 -1.1252
  444MOL0     H59918   7.571   6.787  10.526  0.5995 -1.2020  1.7592
  444MOL0     H59919   7.506   6.729  10.675  4.1551  0.8036  0.6924
  444MOL0     H59920   7.319   6.605  10.554 -1.2236  1.0751  0.5362
  444MOL0     H59921   7.374   6.679  10.407  2.7579 -0.7358  0.2676
  444MOL0     H59922   8.159   6.142  10.103 -1.6521  1.0527  0.3668
  444MOL0     H59923   8.334   6.100   9.960  2.5945  2.2762 -1.2285
  444MOL0     H59924   8.592   6.111   9.685  0.8215 -0.7662  0.7380
  444MOL0     H59925   8.793   5.979   9.602  0.4030 -1.4875  1.5644
  444MOL0     H59926  10.599   5.385   9.978  0.5178  0.3021  0.0340
  444MOL0     H59927  10.743   5.233   9.841 -2.0291  4.1999 -1.1917
  444MOL0     H59928  11.068   4.919   9.735 -0.5627 -1.0809  1.5961
  444MOL0     H59929  11.173   4.801   9.532  0.3793  1.1444  2.6364
  444MOL0     H59930  10.916   4.644   9.203  0.5406 -1.1080 -3.1951
  444MOL0     H59931  10.965   4.807   9.158 -0.9401  1.0141  1.4653
  444MOL0     H59932  11.053   4.662   9.000  2.3913 -4.6583 -1.7021
  444MOL0     H59933  11.107   4.551   9.108 -3.3401 -0.1482 -0.1857
  444MOL0     H59934  11.305   4.643   9.148 -0.4330 -1.0890 -1.3102
  444MOL0     H59935  11.235   4.811   9.153 -2.6604 -0.5625 -0.0174
  444MOL0     H59936  11.392   4.812   8.983 -0.7900  0.9742  2.7149
  444MOL0     H59937  11.236   4.802   8.906 -0.3894 -0.7822 -0.1486
  444MOL0     H59938  11.394   4.424   8.792  1.1676 -0.9956  0.9399
  444MOL0     H59939  10.790   4.804   9.343  0.5786  1.7801 -0.7762
  444MOL0     H59940  10.689   4.881   9.550 -0.4289 -1.1937  2.0486
  445MOL0     O59941  10.480   5.150   5.290  0.4087 -0.1747 -0.1624
  445MOL0     C59942  10.495   5.062   5.208  0.7659 -0.6063 -0.8040
  445MOL0     O59943  10.415   4.954   5.190  0.1640 -0.4843  0.7310
  445MOL0     C59944  10.320   4.915   5.281  0.1836  0.0371  0.8839
  445MOL0     C59945  10.364   4.876   5.406  0.6623  0.7231  0.0009
  445MOL0     C59946  10.268   4.846   5.505  0.2622  0.3453 -0.9249
  445MOL0     C59947  10.132   4.833   5.475 -0.5577 -0.6145 -0.1900
  445MOL0     O59948  10.037   4.813   5.559 -0.0848 -0.0263  0.3633
  445MOL0     C59949  10.061   4.722   5.668  1.0493 -0.2407  0.0976
  445MOL0     C59950   9.933   4.722   5.751  0.2872  0.3843 -0.2235
  445MOL0     C59951   9.925   4.616   5.866  1.4429 -0.0680  0.0991
  445MOL0     C59952   9.795   4.632   5.938  0.6249 -0.5617 -0.6812
  445MOL0     C59953   9.786   4.540   6.052 -0.7570  0.2364  0.0221
  445MOL0     C59954   9.657   4.551   6.140 -0.5741 -0.1284  0.4709
  445MOL0     C59955   9.678   4.472   6.275 -0.1305 -0.4101 -0.5921
  445MOL0     C59956   9.555   4.487   6.365  1.4219  0.7371  0.7232
  445MOL0     N59957   9.570   4.454   6.512  0.5419  0.7521 -0.0177
  445MOL0     C59958   9.666   4.509   6.595 -1.1205  0.0288 -0.4158
  445MOL0     C59959   9.695   4.405   6.688 -0.1684 -0.0187  0.1782
  445MOL0     C59960   9.792   4.403   6.796 -0.7640  0.3017 -0.9114
  445MOL0     C59961   9.724   4.459   6.930  0.0277 -0.0031  0.4097
  445MOL0     C59962   9.695   4.604   6.923 -0.1370  0.4806 -0.1023
  445MOL0     C59963   9.710   4.668   7.062  0.3883 -0.6479 -0.9227
  445MOL0     O59964   9.690   4.573   7.162  1.1442  0.5088 -0.6669
  445MOL0     C59965   9.697   4.606   7.300  0.0207 -0.3673 -0.7095
  445MOL0     C59966   9.729   4.739   7.339 -0.5427  0.2276 -0.3590
  445MOL0     C59967   9.752   4.771   7.476  0.4904 -0.0943  0.7009
  445MOL0     C59968   9.782   4.916   7.517  0.4307 -0.6972 -0.5441
  445MOL0     C59969   9.752   4.664   7.572  0.8661  0.0564 -0.3452
  445MOL0     C59970   9.770   4.673   7.719  0.5106  0.1046  0.2862
  445MOL0     O59971   9.762   4.797   7.786  0.5830  0.8244 -0.1108
  445MOL0     C59972   9.852   4.804   7.900  0.5826  0.1125  0.0012
  445MOL0     C59973   9.964   4.890   7.906  0.0219 -1.0039  0.3008
  445MOL0     C59974  10.041   4.893   8.016  0.2601 -0.3134 -0.7855
  445MOL0     C59975  10.008   4.818   8.131 -0.2082  0.5599 -0.2275
  445MOL0     O59976  10.083   4.830   8.241 -0.3956  0.1214 -0.3963
  445MOL0     C59977  10.013   4.855   8.358 -0.7501  0.7009 -0.2741
  445MOL0     C59978  10.108   4.922   8.461 -0.4749 -0.6782 -0.2096
  445MOL0     C59979  10.226   4.832   8.490 -0.2606 -0.4848 -1.0397
  445MOL0     C59980  10.314   4.878   8.600 -0.3871  0.2548 -0.7945
  445MOL0     C59981  10.441   4.789   8.628  0.3822  0.2554 -1.1106
  445MOL0     C59982  10.524   4.851   8.738 -1.3516  0.1980  0.6422
  445MOL0     C59983  10.667   4.805   8.736 -0.7747 -0.1709 -0.3277
  445MOL0     C59984  10.744   4.827   8.862  0.0595  0.2836  0.2513
  445MOL0    Cl59985  10.690   4.691   8.964 -0.2564  0.6384 -0.5539
  445MOL0     C59986   9.901   4.716   8.127  0.3975 -0.6078  0.9255
  445MOL0     C59987   9.825   4.716   8.008  0.3264  0.1399 -0.4331
  445MOL0     O59988   9.797   4.564   7.765 -0.3797 -1.1121 -0.1634
  445MOL0     C59989   9.716   4.534   7.523  0.1461  0.6033 -0.1940
  445MOL0     C59990   9.690   4.503   7.389 -0.5454  0.1071 -0.4169
  445MOL0     N59991   9.605   4.305   6.666  0.3404  0.5787  0.5258
  445MOL0     N59992   9.540   4.331   6.557  0.1686  1.0640  0.1368
  445MOL0     C59993  10.094   4.866   5.345  0.2788  0.1007 -0.1990
  445MOL0     C59994  10.187   4.910   5.249 -0.7123 -0.3719 -0.4416
  445MOL0     C59995  10.608   5.079   5.107  0.2904  0.1015  0.2102
  445MOL0     C59996  10.734   5.108   5.152  0.8640  0.0467 -0.2820
  445MOL0     C59997  10.844   5.129   5.058  0.7284 -0.3564 -0.0209
  445MOL0     C59998  10.834   5.111   4.913  0.4980  0.3514 -0.9339
  445MOL0     O59999  10.933   5.130   4.817 -0.2900  0.7191  0.5150
  445MOL0     C60000  11.056   5.177   4.850 -0.7417 -0.0730  0.0146
  445MOL0     C60001  11.096   5.272   4.738 -0.0531 -0.1447  0.2295
  445MOL0     C60002  10.999   5.378   4.688  0.0988  0.1460  0.7544
  445MOL0     C60003  10.947   5.465   4.807  0.4207  0.9366  0.0694
  445MOL0     C60004  11.051   5.542   4.887  0.7473  0.5250 -0.1456
  445MOL0     C60005  11.145   5.607   4.925 -0.2061  0.3863 -0.3494
  445MOL0     C60006  10.712   5.067   4.866  0.9651  0.3834  0.0904
  445MOL0     C60007  10.596   5.066   4.961 -0.7929  0.0018  0.0843
  445MOL0     H60008  10.469   4.859   5.426  1.1689  2.8207 -0.6443
  445MOL0     H60009  10.299   4.836   5.608 -2.1583  3.9241  0.3453
  445MOL0     H60010  10.097   4.625   5.632  0.5143  0.3171 -2.0863
  445MOL0     H60011  10.138   4.774   5.726  1.0255 -0.2837  0.1687
  445MOL0     H60012   9.919   4.823   5.789  5.1068  1.5176 -0.8426
  445MOL0     H60013   9.857   4.691   5.679 -0.8035 -0.7697  1.3457
  445MOL0     H60014   9.931   4.519   5.816 -2.1711 -0.1265 -0.5176
  445MOL0     H60015  10.015   4.624   5.927  1.0828  0.7786  0.5338
  445MOL0     H60016   9.794   4.736   5.969  0.2398 -0.9459  0.6391
  445MOL0     H60017   9.709   4.613   5.873  1.5546 -1.4222 -1.7116
  445MOL0     H60018   9.789   4.438   6.013 -1.7550  0.0830  0.3347
  445MOL0     H60019   9.877   4.548   6.113  0.0201  1.2399 -1.2199
  445MOL0     H60020   9.645   4.658   6.155 -2.9812  0.4209 -3.8221
  445MOL0     H60021   9.574   4.513   6.081  0.1953  1.8129 -2.0318
  445MOL0     H60022   9.703   4.368   6.250 -3.8414 -1.1374 -1.9823
  445MOL0     H60023   9.766   4.507   6.328  2.3225 -0.5717 -4.1907
  445MOL0     H60024   9.473   4.426   6.324  3.2416 -0.6652 -1.0061
  445MOL0     H60025   9.526   4.591   6.348  1.4563  0.1298 -4.6399
  445MOL0     H60026   9.716   4.603   6.575 -1.1027 -0.0342 -0.6686
  445MOL0     H60027   9.826   4.306   6.832 -1.9906  0.2948  0.3367
  445MOL0     H60028   9.878   4.469   6.778 -0.1003 -0.4824 -0.6794
  445MOL0     H60029   9.796   4.427   7.007  1.4908  1.3468 -0.3497
  445MOL0     H60030   9.636   4.398   6.954  0.3649  0.3578  2.8992
  445MOL0     H60031   9.587   4.602   6.910 -0.4278  5.6500 -0.8263
  445MOL0     H60032   9.747   4.668   6.850  0.8232  0.6275  0.6851
  445MOL0     H60033   9.643   4.754   7.076 -0.1207 -0.8824 -1.7991
  445MOL0     H60034   9.815   4.698   7.073  0.4791 -1.5736  1.1311
  445MOL0     H60035   9.727   4.824   7.272  0.8105  0.4632 -0.1350
  445MOL0     H60036   9.808   4.959   7.419  0.3368 -1.3285 -0.8532
  445MOL0     H60037   9.698   4.965   7.567  2.1774 -0.3391  2.2431
  445MOL0     H60038   9.864   4.925   7.588 -1.6892 -1.9394  2.2337
  445MOL0     H60039   9.984   4.951   7.818 -1.7779  1.3056  1.3485
  445MOL0     H60040  10.120   4.967   8.019  2.5728 -2.6765 -0.5373
  445MOL0     H60041   9.925   4.915   8.331 -3.1845 -3.7730 -3.6253
  445MOL0     H60042   9.976   4.765   8.408  0.3437  1.2309  1.5954
  445MOL0     H60043  10.142   5.017   8.418  0.2603 -0.6700  0.3755
  445MOL0     H60044  10.048   4.948   8.548  0.0937  2.1761 -0.5594
  445MOL0     H60045  10.296   4.839   8.406  1.1597  3.2223  0.2230
  445MOL0     H60046  10.187   4.733   8.515  2.3280 -1.8256 -1.9154
  445MOL0     H60047  10.340   4.983   8.582 -0.6230  0.4023 -0.3077
  445MOL0     H60048  10.244   4.872   8.684 -1.4036  0.2126 -1.6306
  445MOL0     H60049  10.509   4.801   8.543  0.3546  2.4936 -0.8791
  445MOL0     H60050  10.412   4.687   8.656  0.2065  1.1095  2.3473
  445MOL0     H60051  10.521   4.958   8.720  0.0093 -0.0788 -1.6306
  445MOL0     H60052  10.477   4.831   8.835 -3.1505  1.7395  0.1517
  445MOL0     H60053  10.722   4.866   8.664 -1.3507  1.5494  0.6267
  445MOL0     H60054  10.673   4.704   8.695  1.2001  0.2544 -1.2129
  445MOL0     H60055  10.723   4.920   8.916 -0.4754 -0.5827  1.5810
  445MOL0     H60056  10.850   4.825   8.835 -0.1391 -0.1911 -0.4935
  445MOL0     H60057   9.892   4.659   8.219  1.4190  0.8231  1.9650
  445MOL0     H60058   9.739   4.651   7.997 -0.7980  0.8045  3.1503
  445MOL0     H60059   9.708   4.447   7.588 -1.3166 -0.1704 -1.3502
  445MOL0     H60060   9.674   4.406   7.342 -2.7897  0.6293 -0.8509
  445MOL0     H60061   9.993   4.865   5.305 -0.7603 -1.4302  2.2285
  445MOL0     H60062  10.145   4.933   5.152  0.1889  1.1405 -0.4990
  445MOL0     H60063  10.736   5.099   5.260  1.7135 -1.9209 -0.4278
  445MOL0     H60064  10.937   5.158   5.106 -0.0011  2.8621 -0.3552
  445MOL0     H60065  11.056   5.236   4.942 -1.4573  1.1858 -0.7630
  445MOL0     H60066  11.133   5.099   4.857 -2.3021 -1.6112  0.7299
  445MOL0     H60067  11.111   5.203   4.654  0.2947  0.6397 -0.3620
  445MOL0     H60068  11.197   5.312   4.754  0.2934 -0.8973 -0.0389
  445MOL0     H60069  10.908   5.332   4.647  0.3304  1.4618 -1.4133
  445MOL0     H60070  11.044   5.437   4.608 -1.0597  0.3704  0.2469
  445MOL0     H60071  10.901   5.391   4.873  0.3346 -0.9968 -2.0454
  445MOL0     H60072  10.863   5.525   4.770  0.4437  0.4177 -0.8528
  445MOL0     H60073  11.231   5.658   4.963 -1.8069  2.5210  0.6054
  445MOL0     H60074  10.697   5.038   4.762 -2.5868  1.1309  0.2714
  445MOL0     H60075  10.498   5.054   4.914 -1.3488  1.8955  0.6927
  446MOL0     O60076   4.896  10.739   1.667 -0.2285  0.1981  0.1963
  446MOL0     C60077   5.016  10.753   1.671  0.1916 -0.0158 -0.7730
  446MOL0     O60078   5.077  10.876   1.675  0.3374  0.3047 -0.7556
  446MOL0     C60079   5.007  10.987   1.712  0.3343  0.0076 -0.0528
  446MOL0     C60080   4.895  11.007   1.792  1.2090 -0.1059 -0.5244
  446MOL0     C60081   4.845  11.127   1.824 -0.1554 -0.1316  0.4730
  446MOL0     C60082   4.924  11.244   1.787 -0.0043 -0.7061  0.3683
  446MOL0     O60083   4.903  11.373   1.821  0.1790  0.4411  0.5457
  446MOL0     C60084   4.775  11.405   1.879 -0.6900  0.4394 -0.1399
  446MOL0     C60085   4.655  11.411   1.775 -0.6616  0.0379  0.2967
  446MOL0     C60086   4.689  11.503   1.657  0.7587  0.6693  0.4267
  446MOL0     C60087   4.565  11.530   1.561 -0.2335  0.1191 -0.0023
  446MOL0     C60088   4.583  11.647   1.459  0.1754  0.7942  0.3599
  446MOL0     C60089   4.443  11.696   1.407 -0.0527 -0.0596 -0.3842
  446MOL0     C60090   4.347  11.751   1.516  0.2642 -1.0708 -0.0740
  446MOL0     C60091   4.282  11.887   1.474  0.4888 -0.0096 -0.3239
  446MOL0     N60092   4.149  11.890   1.531 -0.1863  1.0841 -0.3248
  446MOL0     C60093   4.028  11.850   1.479 -0.2332  0.1153 -0.0176
  446MOL0     C60094   3.944  11.884   1.583  0.1883 -0.8123  0.0028
  446MOL0     C60095   3.787  11.860   1.586  0.0822 -0.3974  0.6537
  446MOL0     C60096   3.696  11.928   1.693 -0.1726 -0.1506  0.1926
  446MOL0     C60097   3.554  11.892   1.695 -0.8146 -0.0005 -0.1537
  446MOL0     C60098   3.470  11.959   1.798 -0.0986  0.3865  0.2373
  446MOL0     O60099   3.530  11.946   1.929  0.0454  0.3491  0.1597
  446MOL0     C60100   3.454  11.907   2.030  0.8357 -0.4363 -0.5591
  446MOL0     C60101   3.524  11.848   2.137 -0.9015  0.4827 -0.7309
  446MOL0     C60102   3.464  11.804   2.257  0.9751 -0.5429 -0.1359
  446MOL0     C60103   3.557  11.768   2.366  0.4578  0.3431 -0.2017
  446MOL0     C60104   3.321  11.809   2.262  0.5623  0.2826  0.6421
  446MOL0     C60105   3.222  11.763   2.375 -1.0683  0.1898  0.3331
  446MOL0     O60106   3.097  11.749   2.339 -0.4499  0.0486 -0.0111
  446MOL0     C60107   3.003  11.666   2.405 -0.9346 -0.0153 -0.9868
  446MOL0     C60108   3.035  11.551   2.475  0.4908 -0.1206  0.5117
  446MOL0     C60109   2.926  11.481   2.536  0.5940  0.2545  0.4221
  446MOL0     C60110   2.793  11.528   2.524 -0.0561  0.1683 -0.3588
  446MOL0     O60111   2.688  11.464   2.573  0.1813 -0.1527  0.1512
  446MOL0     C60112   2.697  11.339   2.646  0.0521 -0.1280  0.6281
  446MOL0     C60113   2.566  11.291   2.718  0.6756 -0.7737 -0.9347
  446MOL0     C60114   2.560  11.137   2.757 -0.1729  0.0193  0.2352
  446MOL0     C60115   2.413  11.102   2.795  0.1936 -0.2899 -0.2103
  446MOL0     C60116   2.382  10.958   2.793 -0.1382 -0.1545  0.4779
  446MOL0     C60117   2.242  10.941   2.837  0.7699 -0.1839 -0.3682
  446MOL0     C60118   2.204  10.795   2.835  0.0843 -0.3377  0.0677
  446MOL0     C60119   2.057  10.765   2.872 -0.4210 -0.2397  0.1078
  446MOL0    Cl60120   2.042  10.803   3.044 -0.0979  0.0604  0.1882
  446MOL0     C60121   2.762  11.644   2.443  0.0014  0.3360 -0.3483
  446MOL0     C60122   2.872  11.708   2.382  0.2735  0.0915 -0.1648
  446MOL0     O60123   3.268  11.763   2.490  0.6957 -0.2573 -0.0252
  446MOL0     C60124   3.252  11.867   2.147 -0.3082  0.3427 -0.3608
  446MOL0     C60125   3.313  11.900   2.030 -0.0151 -0.4337  0.4547
  446MOL0     N60126   4.017  11.926   1.692 -0.9202 -0.0685  1.1253
  446MOL0     N60127   4.141  11.937   1.658  0.1101 -0.1081 -0.2027
  446MOL0     C60128   5.043  11.220   1.710 -0.0033  0.6190 -0.3831
  446MOL0     C60129   5.080  11.094   1.675  0.7588 -0.7094 -0.2467
  446MOL0     C60130   5.106  10.632   1.648  0.6197 -0.4173  0.1595
  446MOL0     C60131   5.245  10.636   1.684  0.1294 -0.4230 -0.0361
  446MOL0     C60132   5.326  10.527   1.665  0.0949 -0.5917 -0.5763
  446MOL0     C60133   5.271  10.404   1.630  0.6047 -0.2729  0.1083
  446MOL0     O60134   5.336  10.284   1.615 -0.0865 -0.1429 -0.0109
  446MOL0     C60135   5.472  10.276   1.661  0.1327  0.2147 -0.0637
  446MOL0     C60136   5.537  10.143   1.619 -0.3825 -0.8559  0.5366
  446MOL0     C60137   5.464  10.020   1.681 -0.1777  0.1708 -1.0514
  446MOL0     C60138   5.552   9.896   1.703 -0.6889 -0.9153  0.2283
  446MOL0     C60139   5.465   9.779   1.718  0.3435 -0.0608  0.6903
  446MOL0     C60140   5.396   9.681   1.729  0.2318  0.3743  0.0746
  446MOL0     C60141   5.136  10.409   1.590 -0.6991 -0.3102  0.2027
  446MOL0     C60142   5.051  10.513   1.599 -0.0951  0.2992  0.2054
  446MOL0     H60143   4.852  10.911   1.818  3.3177 -0.5825  1.5122
  446MOL0     H60144   4.746  11.135   1.868 -1.3770  0.6075 -2.1697
  446MOL0     H60145   4.757  11.342   1.966  2.5131  1.0167  1.0900
  446MOL0     H60146   4.791  11.504   1.923 -1.6033  0.0238  1.1644
  446MOL0     H60147   4.652  11.309   1.734 -0.2678  0.2987 -0.4042
  446MOL0     H60148   4.558  11.424   1.823 -0.9835 -3.9123  1.0887
  446MOL0     H60149   4.722  11.599   1.698 -1.3106  2.0917 -1.0705
  446MOL0     H60150   4.772  11.476   1.591 -1.6042  0.1524 -2.5059
  446MOL0     H60151   4.535  11.441   1.505  1.5046  0.7041 -2.0011
  446MOL0     H60152   4.489  11.545   1.639  1.1136 -2.7875  2.0456
  446MOL0     H60153   4.631  11.730   1.512  0.9849  0.7220 -0.2406
  446MOL0     H60154   4.649  11.618   1.376 -0.7416  0.1756 -0.1722
  446MOL0     H60155   4.454  11.773   1.330  1.5411 -1.6355 -1.8299
  446MOL0     H60156   4.401  11.603   1.368  0.4291 -1.8185  2.9370
  446MOL0     H60157   4.264  11.691   1.554 -1.0048  1.5497  1.5585
  446MOL0     H60158   4.399  11.779   1.608 -2.7774 -0.1370  1.4764
  446MOL0     H60159   4.275  11.891   1.364 -0.2600 -0.3323 -0.2938
  446MOL0     H60160   4.343  11.975   1.497  1.2033 -0.1610 -1.5646
  446MOL0     H60161   3.990  11.813   1.385 -0.3358 -0.7211  0.3403
  446MOL0     H60162   3.759  11.913   1.495  2.0238  4.0504  2.3925
  446MOL0     H60163   3.753  11.756   1.598 -0.8243 -0.4624 -1.9417
  446MOL0     H60164   3.704  12.035   1.674  3.1042 -0.4991 -0.9485
  446MOL0     H60165   3.746  11.919   1.790  1.3473  1.2234 -0.4176
  446MOL0     H60166   3.557  11.783   1.705  0.2646  0.0402  0.1902
  446MOL0     H60167   3.519  11.918   1.595 -0.8341  2.3868  0.4306
  446MOL0     H60168   3.375  11.904   1.793  0.4933 -0.7071  0.6370
  446MOL0     H60169   3.472  12.066   1.779  0.4352  0.5391  1.1352
  446MOL0     H60170   3.629  11.835   2.114 -1.3130 -0.4137 -2.2021
  446MOL0     H60171   3.577  11.661   2.361  2.7417  0.6350  1.2823
  446MOL0     H60172   3.657  11.811   2.351  0.6885 -0.8091 -2.3694
  446MOL0     H60173   3.520  11.806   2.462 -0.8078  0.8690 -0.8777
  446MOL0     H60174   3.139  11.534   2.503  0.1243  0.4648  2.3467
  446MOL0     H60175   2.948  11.402   2.608 -1.3196 -2.3329 -1.6055
  446MOL0     H60176   2.746  11.271   2.575  0.2138  1.3599 -0.7608
  446MOL0     H60177   2.768  11.343   2.729  0.9736  0.6187 -0.1710
  446MOL0     H60178   2.530  11.346   2.806 -1.1582 -0.6904 -1.7031
  446MOL0     H60179   2.486  11.313   2.647 -1.0275 -1.5916  0.6369
  446MOL0     H60180   2.631  11.114   2.837  2.5778  2.4877 -1.2820
  446MOL0     H60181   2.597  11.074   2.676 -0.8793  2.6286 -2.2857
  446MOL0     H60182   2.396  11.150   2.892  1.4166  0.9630 -0.5856
  446MOL0     H60183   2.353  11.147   2.715  0.7687  0.2341 -0.3571
  446MOL0     H60184   2.438  10.904   2.869  0.1323  0.0461  0.4252
  446MOL0     H60185   2.400  10.922   2.691  1.3042 -0.8250  0.9429
  446MOL0     H60186   2.236  10.989   2.936  1.6345  0.1392 -0.4631
  446MOL0     H60187   2.182  10.999   2.766  0.0088  1.2260  1.3402
  446MOL0     H60188   2.253  10.726   2.904  1.9953  0.0691 -0.8206
  446MOL0     H60189   2.208  10.763   2.730 -1.9761 -1.4169  0.2640
  446MOL0     H60190   2.045  10.657   2.858  1.5615 -0.5419  0.4474
  446MOL0     H60191   1.986  10.814   2.805  2.0194 -1.9221 -4.1227
  446MOL0     H60192   2.665  11.691   2.448 -0.0545  0.1443  3.3760
  446MOL0     H60193   2.850  11.808   2.345  0.1478 -0.2784 -1.1153
  446MOL0     H60194   3.145  11.880   2.151 -1.1420 -4.8200  0.6309
  446MOL0     H60195   3.243  11.928   1.952 -2.2572 -1.9053  1.8275
  446MOL0     H60196   5.105  11.300   1.670 -0.7275  0.4747 -1.8875
  446MOL0     H60197   5.172  11.094   1.617  1.1436  2.8369  0.1373
  446MOL0     H60198   5.289  10.728   1.720  0.2525 -0.9160  1.1159
  446MOL0     H60199   5.434  10.529   1.679  0.1989 -1.6464 -1.1405
  446MOL0     H60200   5.529  10.346   1.599 -0.7130  1.5824  0.6609
  446MOL0     H60201   5.486  10.296   1.768  0.7923 -1.1107  0.1128
  446MOL0     H60202   5.644  10.144   1.642  0.2263  0.0099 -1.9818
  446MOL0     H60203   5.534  10.136   1.510 -2.2075  0.4094  0.4809
  446MOL0     H60204   5.382  10.003   1.611  0.1665  2.2411 -2.0468
  446MOL0     H60205   5.435  10.052   1.782  0.7418 -2.4332  0.1106
  446MOL0     H60206   5.629   9.914   1.779  0.3784  0.5996 -1.1317
  446MOL0     H60207   5.609   9.875   1.611  0.6634  2.4548  0.1657
  446MOL0     H60208   5.344   9.589   1.743 -0.7907  0.6356 -1.6323
  446MOL0     H60209   5.090  10.325   1.539  1.0236 -0.3567 -1.3732
  446MOL0     H60210   4.949  10.517   1.561  0.2171  1.6494 -0.5606
  447MOL0     O60211   9.267   9.196  10.223 -0.1309  0.4228 -0.2809
  447MOL0     C60212   9.291   9.210  10.102 -0.4682 -1.1484 -0.3166
  447MOL0     O60213   9.239   9.314  10.023 -0.4325 -0.7351 -0.7133
  447MOL0     C60214   9.122   9.370  10.069  0.1668  0.5403 -0.0706
  447MOL0     C60215   9.122   9.486  10.143 -0.2937  0.0486 -0.2446
  447MOL0     C60216   9.001   9.546  10.174 -0.2832 -1.3429 -0.3770
  447MOL0     C60217   8.879   9.492  10.143 -0.7661  0.4113 -0.4265
  447MOL0     O60218   8.769   9.560  10.196 -0.2927  0.0930  0.2344
  447MOL0     C60219   8.643   9.488  10.215 -0.2741  0.0864 -0.3194
  447MOL0     C60220   8.548   9.551  10.320  0.3097 -0.2243  0.9964
  447MOL0     C60221   8.429   9.451  10.348  0.5755  0.6031  0.2537
  447MOL0     C60222   8.303   9.538  10.366 -0.0965 -0.0750 -0.0608
  447MOL0     C60223   8.179   9.447  10.361  0.5526 -0.2439  0.1201
  447MOL0     C60224   8.138   9.381  10.231 -0.3222  0.0525  0.1650
  447MOL0     C60225   7.999   9.312  10.250  0.1159  0.3544 -0.0506
  447MOL0     C60226   8.000   9.184  10.335 -0.2821 -0.4558  0.2989
  447MOL0     N60227   7.861   9.154  10.386 -0.6130 -0.8656 -0.0153
  447MOL0     C60228   7.753   9.121  10.306  0.7087  0.2209 -0.2407
  447MOL0     C60229   7.652   9.098  10.396  0.2313 -0.4083  0.5615
  447MOL0     C60230   7.517   9.045  10.373  0.3688  0.1729  0.1341
  447MOL0     C60231   7.478   9.036  10.223  0.1062  1.0088 -0.4377
  447MOL0     C60232   7.341   8.975  10.189  0.1924  0.0671 -0.2541
  447MOL0     C60233   7.219   9.051  10.236  0.4752 -0.1592  0.6322
  447MOL0     O60234   7.231   9.193  10.219  0.4832 -0.6440 -0.1691
  447MOL0     C60235   7.116   9.258  10.186  0.5788 -0.0749  1.2052
  447MOL0     C60236   6.992   9.207  10.205 -0.4569  0.3095  0.3748
  447MOL0     C60237   6.873   9.273  10.170 -0.0254  0.4367  0.6708
  447MOL0     C60238   6.746   9.190  10.189 -0.7360  0.2065  0.3729
  447MOL0     C60239   6.879   9.396  10.091 -0.0013 -0.4911 -0.8971
  447MOL0     C60240   6.761   9.462  10.042 -0.6276  0.4272 -0.8564
  447MOL0     O60241   6.777   9.518   9.922  0.5032 -0.5185 -0.3532
  447MOL0     C60242   6.669   9.532   9.840  0.0695 -0.4440  1.0332
  447MOL0     C60243   6.666   9.642   9.752 -1.0839 -1.0166 -0.3878
  447MOL0     C60244   6.559   9.684   9.665  0.1991  0.5174  0.7483
  447MOL0     C60245   6.450   9.587   9.653  0.1847 -0.1566  0.5517
  447MOL0     O60246   6.348   9.592   9.565  0.4766  0.5555 -0.1267
  447MOL0     C60247   6.330   9.716   9.487 -0.4543 -0.6408  0.1135
  447MOL0     C60248   6.241   9.694   9.367  0.0361 -0.9780 -0.1995
  447MOL0     C60249   6.281   9.565   9.303  0.5389  0.0092  0.4043
  447MOL0     C60250   6.247   9.558   9.155 -0.6761 -0.1194  0.2223
  447MOL0     C60251   6.301   9.427   9.092  0.3423  0.0896 -1.2545
  447MOL0     C60252   6.317   9.432   8.946  0.1176  0.1299  0.8854
  447MOL0     C60253   6.362   9.298   8.899 -0.4920 -0.7238 -0.6134
  447MOL0     C60254   6.382   9.286   8.746  0.9563 -0.2177 -0.0110
  447MOL0    Cl60255   6.490   9.152   8.704  0.2840 -0.3614 -0.2127
  447MOL0     C60256   6.460   9.467   9.723  0.5849  0.2189  1.0536
  447MOL0     C60257   6.554   9.446   9.829 -1.1579 -0.0523 -0.3959
  447MOL0     O60258   6.660   9.453  10.110 -0.5907  0.5591 -0.3677
  447MOL0     C60259   7.010   9.442  10.065  0.3406 -0.0344 -0.9217
  447MOL0     C60260   7.122   9.375  10.117 -0.4818 -0.7536 -0.8387
  447MOL0     N60261   7.698   9.138  10.525 -0.6512  0.3434 -0.7056
  447MOL0     N60262   7.822   9.171  10.522 -0.2344 -0.2793  0.6204
  447MOL0     C60263   8.884   9.374  10.063  0.2951  0.3545 -0.5403
  447MOL0     C60264   9.001   9.312  10.029 -0.7384 -0.0004 -0.1646
  447MOL0     C60265   9.368   9.108  10.024  0.3646 -0.5243  0.3675
  447MOL0     C60266   9.342   9.101   9.891 -0.2382  0.4183 -0.3061
  447MOL0     C60267   9.419   9.006   9.811  0.4111  0.4656  0.2681
  447MOL0     C60268   9.507   8.916   9.869 -0.5660 -0.1636  1.4024
  447MOL0     O60269   9.584   8.822   9.799  0.1780 -0.2738  0.5591
  447MOL0     C60270   9.544   8.756   9.673 -0.3393 -1.3497 -0.2868
  447MOL0     C60271   9.668   8.691   9.610 -0.7060  0.3210  0.4704
  447MOL0     C60272   9.623   8.607   9.497  0.9038  0.0595  0.6580
  447MOL0     C60273   9.735   8.562   9.403  0.2863  0.7225  0.7285
  447MOL0     C60274   9.669   8.471   9.303  0.0382 -0.2253  0.3620
  447MOL0     C60275   9.605   8.388   9.240 -0.9894 -0.3538 -0.2776
  447MOL0     C60276   9.518   8.917  10.004 -0.3789  0.5781  0.1263
  447MOL0     C60277   9.450   9.008  10.087  0.5534 -0.5083 -0.0619
  447MOL0     H60278   9.217   9.526  10.177 -1.5277  2.5206  0.5846
  447MOL0     H60279   8.996   9.644  10.221  0.7692 -1.6844  0.4851
  447MOL0     H60280   8.604   9.475  10.114 -0.1059  1.6724 -0.6128
  447MOL0     H60281   8.676   9.394  10.260 -2.1642 -1.7503 -2.5204
  447MOL0     H60282   8.603   9.561  10.414  0.1228 -1.3966  1.2494
  447MOL0     H60283   8.512   9.644  10.276 -1.5048 -1.2865  0.1164
  447MOL0     H60284   8.420   9.378  10.267 -0.0102  3.1518 -2.1311
  447MOL0     H60285   8.449   9.400  10.442 -0.5006  2.7403  1.7291
  447MOL0     H60286   8.302   9.593  10.460 -2.3480 -0.0711 -0.0400
  447MOL0     H60287   8.302   9.602  10.277 -2.2921 -3.4744 -2.7690
  447MOL0     H60288   8.190   9.370  10.437 -0.1764 -2.6220 -2.0345
  447MOL0     H60289   8.089   9.498  10.397  0.7376 -1.2337  2.1027
  447MOL0     H60290   8.152   9.457  10.153 -1.8145  2.2058  1.8928
  447MOL0     H60291   8.218   9.307  10.224  1.5828  1.7517  2.4473
  447MOL0     H60292   7.947   9.390  10.307  3.7693 -0.4593  5.1502
  447MOL0     H60293   7.956   9.289  10.152 -1.7265  0.6142  0.6500
  447MOL0     H60294   8.071   9.192  10.418  1.6064 -2.4306 -1.0157
  447MOL0     H60295   8.030   9.093  10.282  1.3322  0.1862  0.0624
  447MOL0     H60296   7.756   9.094  10.201  1.3463  1.5476 -0.5804
  447MOL0     H60297   7.516   8.948  10.424 -1.0685  1.3345  2.5122
  447MOL0     H60298   7.437   9.095  10.429  0.7622  0.5821  0.3373
  447MOL0     H60299   7.553   8.988  10.160 -0.1045  0.4813 -0.2897
  447MOL0     H60300   7.487   9.137  10.182 -1.2446  0.6251 -1.7454
  447MOL0     H60301   7.336   8.871  10.222 -0.0384  0.2679  0.3696
  447MOL0     H60302   7.344   8.973  10.080 -0.7917  2.1738 -0.3693
  447MOL0     H60303   7.179   9.024  10.334 -2.2917  0.1859 -0.3396
  447MOL0     H60304   7.132   9.017  10.180  0.7149  0.8659 -0.4081
  447MOL0     H60305   6.970   9.114  10.255  1.0780 -0.6646 -0.6853
  447MOL0     H60306   6.760   9.088  10.226 -0.5070  0.8959  2.2764
  447MOL0     H60307   6.677   9.238  10.259  2.3949 -0.1224  4.0116
  447MOL0     H60308   6.693   9.181  10.094  2.1229 -1.1759 -1.2414
  447MOL0     H60309   6.743   9.714   9.776 -3.4715  0.8810  2.2024
  447MOL0     H60310   6.567   9.776   9.609  2.1589  1.0260  1.7677
  447MOL0     H60311   6.301   9.804   9.545  1.7473  1.1937 -1.4137
  447MOL0     H60312   6.429   9.734   9.445 -1.1084 -1.0912 -1.7082
  447MOL0     H60313   6.135   9.704   9.392  0.8317  3.5036  2.6291
  447MOL0     H60314   6.257   9.777   9.296 -0.9680 -1.8897 -1.5442
  447MOL0     H60315   6.230   9.484   9.356 -1.2711 -0.6754 -2.2239
  447MOL0     H60316   6.390   9.560   9.305  0.7295  1.3140 -2.3884
  447MOL0     H60317   6.139   9.572   9.145 -0.6641 -0.0121  0.2405
  447MOL0     H60318   6.298   9.647   9.117 -0.8420  1.0701  2.5392
  447MOL0     H60319   6.244   9.337   9.115 -0.5742  0.6119 -1.4251
  447MOL0     H60320   6.403   9.410   9.127 -0.0505 -0.4571 -0.3699
  447MOL0     H60321   6.222   9.452   8.895 -0.7516 -0.7076  2.1312
  447MOL0     H60322   6.390   9.510   8.924  1.2967 -0.4718  2.4435
  447MOL0     H60323   6.277   9.232   8.922 -1.6910  0.0982 -2.4470
  447MOL0     H60324   6.460   9.271   8.940 -0.3509  1.9233  1.0578
  447MOL0     H60325   6.433   9.382   8.729  1.1768  0.5078  3.8534
  447MOL0     H60326   6.291   9.275   8.687  0.1912 -2.8013  1.4789
  447MOL0     H60327   6.378   9.397   9.708 -0.1843  0.9101  1.8409
  447MOL0     H60328   6.543   9.361   9.896  2.6250 -1.3715 -1.1712
  447MOL0     H60329   7.030   9.536  10.015  1.4089 -0.6108 -1.5979
  447MOL0     H60330   7.223   9.411  10.099 -0.4834 -0.9957 -1.3604
  447MOL0     H60331   8.794   9.325  10.027  0.5897 -1.7332  1.3722
  447MOL0     H60332   8.994   9.222   9.970  0.2266  0.6555 -1.3231
  447MOL0     H60333   9.272   9.171   9.848 -0.4534  0.8046  0.6513
  447MOL0     H60334   9.409   9.013   9.703 -0.1243 -0.0816  0.2706
  447MOL0     H60335   9.454   8.695   9.685 -0.4261 -1.1567  0.0665
  447MOL0     H60336   9.512   8.832   9.601  1.9019  0.0989  0.1618
  447MOL0     H60337   9.712   8.626   9.686  1.5210 -0.3410 -1.2815
  447MOL0     H60338   9.749   8.760   9.585 -0.5598 -0.1471 -0.3899
  447MOL0     H60339   9.543   8.665   9.449 -0.8198 -3.0138 -0.4316
  447MOL0     H60340   9.578   8.523   9.551  0.4387  0.0048  0.1934
  447MOL0     H60341   9.807   8.501   9.457  2.3126 -0.5849 -3.0459
  447MOL0     H60342   9.794   8.636   9.348  0.9294 -1.1530 -1.2072
  447MOL0     H60343   9.544   8.311   9.199 -6.4872  2.2226  2.0202
  447MOL0     H60344   9.598   8.857  10.047  1.9420  2.5818 -1.1505
  447MOL0     H60345   9.472   9.009  10.193 -1.4452 -3.2015  0.4842
  448MOL0     O60346   8.828   3.888   0.224 -0.0087 -0.3871  0.1400
  448MOL0     C60347   8.949   3.897   0.239 -0.6385 -0.3545 -0.3588
  448MOL0     O60348   9.043   3.906   0.144  0.2183 -0.3387 -0.0999
  448MOL0     C60349   9.013   3.852   0.023 -0.7993  0.2679 -1.4024
  448MOL0     C60350   8.961   3.723  -0.014 -0.2800  0.3448 -0.0204
  448MOL0     C60351   8.939   3.690  -0.154 -0.4043 -0.7852 -0.6202
  448MOL0     C60352   8.968   3.776  -0.261  0.4586 -0.8428 -0.3488
  448MOL0     O60353   8.934   3.743  -0.387  0.7916  0.1068  0.7383
  448MOL0     C60354   8.788   3.748  -0.414  0.2747 -0.7385  0.3836
  448MOL0     C60355   8.733   3.606  -0.435  0.4347 -0.1312  0.1033
  448MOL0     C60356   8.584   3.597  -0.452  0.4806 -0.1341 -0.3613
  448MOL0     C60357   8.534   3.452  -0.461  0.1413  0.5784  0.4217
  448MOL0     C60358   8.404   3.457  -0.536  0.2776  0.0693 -0.0860
  448MOL0     C60359   8.373   3.324  -0.605 -0.5496  0.0159 -0.3881
  448MOL0     C60360   8.223   3.304  -0.626  0.1648  0.0805  0.6534
  448MOL0     C60361   8.121   3.308  -0.512  0.7682  0.0610  0.0816
  448MOL0     N60362   8.169   3.223  -0.397 -0.9295 -0.2929 -0.5199
  448MOL0     C60363   8.223   3.274  -0.278 -0.1671 -0.5977 -0.3134
  448MOL0     C60364   8.239   3.162  -0.203 -0.1444 -0.0898 -0.5211
  448MOL0     C60365   8.296   3.163  -0.063 -0.3014  0.5146 -0.2388
  448MOL0     C60366   8.352   3.031  -0.028 -0.9651 -0.0544  0.3917
  448MOL0     C60367   8.377   3.019   0.125  0.0932  0.1313  0.4378
  448MOL0     C60368   8.431   2.878   0.171 -0.1553 -0.6448 -0.3489
  448MOL0     O60369   8.429   2.852   0.313 -0.6982 -0.0425  0.8041
  448MOL0     C60370   8.425   2.720   0.356 -0.0440 -0.0065  0.1621
  448MOL0     C60371   8.479   2.604   0.290  0.8331 -0.2396  0.7091
  448MOL0     C60372   8.470   2.472   0.332  0.3131  0.0256 -0.6632
  448MOL0     C60373   8.544   2.372   0.257  0.7507  0.4549  0.5866
  448MOL0     C60374   8.389   2.445   0.448  0.6803 -0.2791  0.0596
  448MOL0     C60375   8.346   2.311   0.495  0.3296 -1.0534  0.6373
  448MOL0     O60376   8.229   2.304   0.570  0.2587  0.1512 -0.1473
  448MOL0     C60377   8.189   2.176   0.611 -0.2436  0.1375  0.4703
  448MOL0     C60378   8.055   2.148   0.608  0.1049  0.5413  0.5504
  448MOL0     C60379   8.004   2.040   0.678 -0.1613  0.3962 -0.3206
  448MOL0     C60380   8.092   1.958   0.752 -0.3790  0.2127 -0.6353
  448MOL0     O60381   8.051   1.877   0.856  0.8383 -0.7707 -0.0500
  448MOL0     C60382   7.930   1.795   0.835  0.3598  0.4987 -1.5122
  448MOL0     C60383   7.917   1.694   0.952 -0.0899  0.2219 -0.6106
  448MOL0     C60384   7.943   1.762   1.089  0.1661 -0.4395  0.4437
  448MOL0     C60385   7.933   1.654   1.195  0.3293  0.6041 -0.0039
  448MOL0     C60386   7.870   1.696   1.334 -0.2689 -0.5589 -0.5870
  448MOL0     C60387   7.972   1.783   1.408  0.4645  1.1229 -0.1609
  448MOL0     C60388   7.900   1.831   1.534  0.6615 -0.3813  0.0159
  448MOL0     C60389   7.982   1.923   1.621 -1.2846 -0.2462 -0.5360
  448MOL0    Cl60390   8.076   1.817   1.727  0.3852  0.6289  0.7029
  448MOL0     C60391   8.231   1.975   0.736 -0.1418  0.0091 -0.1398
  448MOL0     C60392   8.277   2.096   0.678 -0.6006  0.3458  0.4349
  448MOL0     O60393   8.411   2.217   0.457 -0.2258 -0.3318  0.2882
  448MOL0     C60394   8.339   2.560   0.520  0.8089  0.5296  0.4512
  448MOL0     C60395   8.363   2.690   0.479  0.8339  1.0437 -0.2021
  448MOL0     N60396   8.192   3.055  -0.271 -0.1239 -0.3396  0.1437
  448MOL0     N60397   8.145   3.085  -0.388 -0.0320 -0.6268  0.9409
  448MOL0     C60398   9.039   3.894  -0.218 -0.0564  0.1781 -0.6072
  448MOL0     C60399   9.060   3.926  -0.087 -0.4680  0.3357 -0.0908
  448MOL0     C60400   9.001   3.891   0.382  0.7450 -0.8129  0.6373
  448MOL0     C60401   9.134   3.906   0.406 -0.2800 -0.5944 -0.0986
  448MOL0     C60402   9.194   3.853   0.527  1.1543 -0.3612  0.5065
  448MOL0     C60403   9.113   3.786   0.624  0.8966  0.3019  0.2462
  448MOL0     O60404   9.172   3.742   0.754  0.7792 -0.7611  0.1923
  448MOL0     C60405   9.100   3.641   0.827  0.7965  0.8981 -0.5967
  448MOL0     C60406   9.039   3.696   0.958 -0.8016  0.6319  0.9728
  448MOL0     C60407   9.150   3.765   1.037 -0.1984  0.1036  0.2512
  448MOL0     C60408   9.131   3.765   1.184  0.6011 -0.0751 -0.0266
  448MOL0     C60409   9.020   3.849   1.230 -0.2851  0.4081 -0.5170
  448MOL0     C60410   8.928   3.919   1.266  0.2557 -0.2064  0.9579
  448MOL0     C60411   8.974   3.797   0.606 -0.5737 -0.5674  0.2203
  448MOL0     C60412   8.918   3.851   0.492  0.9217 -0.0020 -0.8143
  448MOL0     H60413   8.933   3.644   0.054  1.7015 -0.6270 -0.2719
  448MOL0     H60414   8.908   3.588  -0.176 -1.0449 -1.2178  2.0006
  448MOL0     H60415   8.748   3.810  -0.333  0.5813 -0.3884  0.2735
  448MOL0     H60416   8.773   3.808  -0.504 -2.2371 -1.7250  0.0746
  448MOL0     H60417   8.788   3.570  -0.522  0.8337 -0.7081  0.5788
  448MOL0     H60418   8.773   3.548  -0.350  3.1332 -1.4001 -1.8877
  448MOL0     H60419   8.529   3.648  -0.372 -0.0564  0.4200 -1.0704
  448MOL0     H60420   8.562   3.657  -0.541 -0.5781 -2.5225 -1.7986
  448MOL0     H60421   8.595   3.395  -0.531 -0.9932  0.4365 -0.4830
  448MOL0     H60422   8.504   3.399  -0.371 -0.3570  0.3055  0.1037
  448MOL0     H60423   8.324   3.469  -0.461 -2.1474  1.9446 -2.7387
  448MOL0     H60424   8.402   3.535  -0.612 -1.1218 -0.5604 -0.7346
  448MOL0     H60425   8.431   3.318  -0.698  0.3782 -0.5557  0.2043
  448MOL0     H60426   8.411   3.245  -0.540 -1.4408 -2.0004 -2.1716
  448MOL0     H60427   8.188   3.385  -0.690  1.2996  2.5282  2.9497
  448MOL0     H60428   8.217   3.212  -0.684  3.0562 -0.8767  1.6728
  448MOL0     H60429   8.028   3.260  -0.544  1.0336 -0.9332  0.7537
  448MOL0     H60430   8.104   3.410  -0.476  0.9260 -0.0987  0.6149
  448MOL0     H60431   8.227   3.379  -0.253 -4.1638  0.1433 -2.1363
  448MOL0     H60432   8.373   3.241  -0.056  1.8720 -1.0353 -4.0536
  448MOL0     H60433   8.209   3.176   0.002 -1.1571 -3.8352 -0.2431
  448MOL0     H60434   8.448   3.019  -0.079 -2.4380  3.1306 -3.7677
  448MOL0     H60435   8.280   2.956  -0.063 -0.1335  0.0466 -1.6300
  448MOL0     H60436   8.284   3.040   0.179 -0.4448  0.2819 -0.5022
  448MOL0     H60437   8.451   3.089   0.163 -0.3651  1.0900 -0.3781
  448MOL0     H60438   8.536   2.868   0.140  0.3695 -3.7502  1.9076
  448MOL0     H60439   8.368   2.805   0.119  1.9271 -0.8763 -2.7651
  448MOL0     H60440   8.533   2.620   0.197 -1.1784 -0.3126 -0.5180
  448MOL0     H60441   8.603   2.416   0.176  1.6254  0.4418  1.2044
  448MOL0     H60442   8.619   2.313   0.311  0.3068  0.2145  0.9532
  448MOL0     H60443   8.469   2.301   0.219 -1.7035  3.7044 -1.0939
  448MOL0     H60444   7.988   2.215   0.555 -1.7465 -2.9652 -1.9226
  448MOL0     H60445   7.896   2.026   0.677 -0.4962  2.5447  0.9166
  448MOL0     H60446   7.839   1.856   0.836  0.6860  1.0291 -2.4677
  448MOL0     H60447   7.925   1.752   0.734 -0.7789 -1.3488 -0.7311
  448MOL0     H60448   7.817   1.650   0.955 -0.0171 -0.2181 -3.0553
  448MOL0     H60449   7.992   1.619   0.927  0.4580  1.2569 -2.2407
  448MOL0     H60450   7.861   1.831   1.108  1.3942  1.2198 -0.0320
  448MOL0     H60451   8.041   1.809   1.102 -0.0890  0.8617 -1.8488
  448MOL0     H60452   7.865   1.574   1.161  1.8844 -1.5743  1.7298
  448MOL0     H60453   8.031   1.607   1.203 -0.5307 -1.0489  1.7258
  448MOL0     H60454   7.860   1.608   1.398  1.7827  0.1952  0.8912
  448MOL0     H60455   7.779   1.756   1.335  0.4314  0.6246  2.7480
  448MOL0     H60456   8.053   1.711   1.426 -0.9623 -0.8172 -1.1439
  448MOL0     H60457   7.996   1.869   1.346 -2.7072  2.2546  0.0184
  448MOL0     H60458   7.846   1.749   1.583 -2.5643 -0.4782 -3.2941
  448MOL0     H60459   7.807   1.880   1.503  0.4762 -0.7317  0.0115
  448MOL0     H60460   7.919   1.986   1.684 -0.0407  1.2576 -0.7434
  448MOL0     H60461   8.056   1.989   1.575 -0.0450  1.1070  3.0865
  448MOL0     H60462   8.315   1.918   0.773  0.4945  0.6435 -0.5691
  448MOL0     H60463   8.383   2.121   0.672 -1.1075  2.3612 -1.7119
  448MOL0     H60464   8.297   2.538   0.617 -1.3860 -0.1217 -0.5827
  448MOL0     H60465   8.335   2.773   0.543 -2.0738 -1.5102  2.1258
  448MOL0     H60466   9.068   3.975  -0.283  0.2035  0.7024  0.1557
  448MOL0     H60467   9.112   4.018  -0.060  1.0655 -0.6646  0.4816
  448MOL0     H60468   9.196   3.932   0.321  0.6020 -0.7843  0.4675
  448MOL0     H60469   9.300   3.830   0.529  0.4082 -4.8683 -0.3547
  448MOL0     H60470   9.017   3.598   0.770  0.4808  0.1976  0.3744
  448MOL0     H60471   9.175   3.565   0.847  1.3692  0.9338 -2.4529
  448MOL0     H60472   8.999   3.611   1.014 -1.2773 -0.4471 -0.9116
  448MOL0     H60473   8.953   3.762   0.939 -0.7909  0.4354  0.1839
  448MOL0     H60474   9.156   3.871   1.010  3.6120 -0.4448 -1.7365
  448MOL0     H60475   9.245   3.714   1.015 -1.1393 -0.6360 -2.4561
  448MOL0     H60476   9.221   3.814   1.223  1.2633  1.6350 -3.3387
  448MOL0     H60477   9.115   3.664   1.221 -0.4929  1.0732  2.9220
  448MOL0     H60478   8.861   3.997   1.295 -0.7120  2.1819 -5.8817
  448MOL0     H60479   8.907   3.749   0.677 -1.8388  0.1017 -0.5004
  448MOL0     H60480   8.812   3.830   0.490  0.4592  1.3726  2.8559
  449MOL0     O60481   7.110   2.230   1.427  0.0941 -0.0595 -0.4691
  449MOL0     C60482   7.183   2.180   1.348  0.2535 -0.0969  0.5820
  449MOL0     O60483   7.262   2.064   1.370 -0.0440  0.3925 -0.8552
  449MOL0     C60484   7.258   2.005   1.499 -0.1834 -0.4908  0.6505
  449MOL0     C60485   7.333   2.056   1.600 -1.0183  0.1430  0.4586
  449MOL0     C60486   7.338   1.990   1.727 -0.3617 -0.2617  0.9498
  449MOL0     C60487   7.248   1.885   1.753  0.8125 -0.4694  0.1953
  449MOL0     O60488   7.246   1.816   1.871  0.5938  0.1076  0.0688
  449MOL0     C60489   7.373   1.791   1.936  0.0522 -0.5735 -0.0924
  449MOL0     C60490   7.389   1.650   1.987 -0.2348 -0.3090  0.4321
  449MOL0     C60491   7.530   1.633   2.060  1.0387  1.4654 -0.1925
  449MOL0     C60492   7.640   1.583   1.958  0.5338 -0.0369 -0.0245
  449MOL0     C60493   7.772   1.556   2.033 -0.3244  0.3608 -0.3275
  449MOL0     C60494   7.855   1.460   1.955 -0.0884 -0.6859 -0.0352
  449MOL0     C60495   7.927   1.522   1.835  0.7828  0.9939  0.3077
  449MOL0     C60496   7.996   1.409   1.742  0.3296 -0.2741 -0.7300
  449MOL0     N60497   7.905   1.328   1.665  0.8627  0.6758  0.6725
  449MOL0     C60498   7.933   1.197   1.632 -0.7819 -0.3563 -0.7312
  449MOL0     C60499   7.836   1.165   1.547 -0.2654  0.1690 -0.0467
  449MOL0     C60500   7.826   1.033   1.474 -0.3738 -0.0784 -0.6685
  449MOL0     C60501   7.676   0.970   1.475  0.2250  0.7102 -0.6067
  449MOL0     C60502   7.613   0.924   1.606 -0.0868 -0.7528 -0.0647
  449MOL0     C60503   7.573   1.042   1.698 -0.0212  0.6773  0.4075
  449MOL0     O60504   7.468   1.003   1.786  0.1756  0.0599  0.3349
  449MOL0     C60505   7.344   1.002   1.740 -0.5638 -0.5571  1.2851
  449MOL0     C60506   7.294   1.024   1.609 -0.2015 -0.6891  1.0863
  449MOL0     C60507   7.152   1.026   1.576  0.0384 -0.3890  0.1280
  449MOL0     C60508   7.115   1.049   1.430 -0.4258 -0.1932  1.2076
  449MOL0     C60509   7.067   1.021   1.685  0.2651 -0.2246 -0.1018
  449MOL0     C60510   6.927   1.050   1.678 -0.4904 -0.0582 -0.5953
  449MOL0     O60511   6.846   1.020   1.791 -0.4240  0.3575  0.3994
  449MOL0     C60512   6.709   1.033   1.784  0.0784 -0.0162  0.3297
  449MOL0     C60513   6.645   0.971   1.679  0.2333  0.3427  0.1428
  449MOL0     C60514   6.504   0.975   1.667  0.6630 -0.7337 -0.2930
  449MOL0     C60515   6.431   1.054   1.761  0.0966 -0.4899  1.1955
  449MOL0     O60516   6.287   1.063   1.753  0.2000 -0.4627 -0.4291
  449MOL0     C60517   6.228   1.177   1.817 -0.6255  0.0819 -0.0952
  449MOL0     C60518   6.084   1.212   1.771 -0.3235  0.1277 -0.0147
  449MOL0     C60519   5.978   1.140   1.858 -0.0108 -0.2103  0.3939
  449MOL0     C60520   5.840   1.208   1.859  0.0901 -0.2756 -0.2269
  449MOL0     C60521   5.760   1.193   1.731 -0.0032  0.0436  1.0526
  449MOL0     C60522   5.610   1.154   1.752  0.4905 -0.0616 -0.7083
  449MOL0     C60523   5.525   1.210   1.871  0.2234 -0.1986 -0.4022
  449MOL0     C60524   5.533   1.368   1.872 -0.0435  1.0016 -0.5728
  449MOL0    Cl60525   5.453   1.435   1.730 -0.4875 -0.4127  0.0818
  449MOL0     C60526   6.501   1.113   1.869 -1.2459 -0.4400  0.3518
  449MOL0     C60527   6.639   1.099   1.883 -0.4704 -0.1219  0.5524
  449MOL0     O60528   6.884   1.116   1.582 -0.1672 -0.2551  0.4240
  449MOL0     C60529   7.116   0.995   1.816  0.0515 -1.0637  0.7219
  449MOL0     C60530   7.248   0.986   1.840  0.1767  0.5397  0.2002
  449MOL0     N60531   7.752   1.266   1.518 -0.2982  0.0916 -0.1612
  449MOL0     N60532   7.798   1.367   1.584 -0.6753 -0.5356 -0.4483
  449MOL0     C60533   7.165   1.837   1.654  0.3233  0.3779 -0.9508
  449MOL0     C60534   7.168   1.904   1.531  0.5178  0.7098 -0.0191
  449MOL0     C60535   7.221   2.259   1.224  0.4151 -0.5326 -0.2691
  449MOL0     C60536   7.147   2.373   1.189  0.2130 -1.1988  0.5804
  449MOL0     C60537   7.180   2.437   1.063 -0.2567  0.0450 -0.7044
  449MOL0     C60538   7.296   2.396   0.991  0.0017 -0.4015 -0.5127
  449MOL0     O60539   7.341   2.483   0.890 -0.2028 -0.2568 -0.0356
  449MOL0     C60540   7.469   2.470   0.825  0.1236  0.8961  0.1347
  449MOL0     C60541   7.584   2.520   0.925  0.0591  0.6250  0.9121
  449MOL0     C60542   7.551   2.658   0.997  0.0553  0.6149  0.0365
  449MOL0     C60543   7.504   2.772   0.899 -0.1341 -0.0052 -0.5519
  449MOL0     C60544   7.445   2.890   0.961 -0.0665 -0.0528  0.0824
  449MOL0     C60545   7.383   2.982   1.010  0.5675 -0.8424  0.0477
  449MOL0     C60546   7.354   2.275   1.032  0.2594 -0.3657 -0.0051
  449MOL0     C60547   7.315   2.208   1.141 -0.2951  1.1193  0.5079
  449MOL0     H60548   7.400   2.136   1.568 -3.0472  0.5765 -3.2869
  449MOL0     H60549   7.401   2.014   1.813  1.7804 -0.4753 -0.4756
  449MOL0     H60550   7.455   1.812   1.867 -0.1429  2.6769  0.4780
  449MOL0     H60551   7.384   1.855   2.024 -2.9650  0.7301 -0.5348
  449MOL0     H60552   7.312   1.644   2.065 -1.5080  2.1708 -0.5407
  449MOL0     H60553   7.380   1.576   1.907  1.2915  3.4332 -3.6065
  449MOL0     H60554   7.556   1.726   2.112 -1.2976  1.6270  0.8480
  449MOL0     H60555   7.510   1.553   2.132 -1.0052  0.7119 -1.4989
  449MOL0     H60556   7.604   1.492   1.908  0.8045  0.6425 -1.4816
  449MOL0     H60557   7.655   1.654   1.877 -0.7295  0.5487  0.2272
  449MOL0     H60558   7.819   1.654   2.037 -2.3978  1.5125 -1.8866
  449MOL0     H60559   7.753   1.524   2.136 -1.4880  2.7309  0.2611
  449MOL0     H60560   7.932   1.414   2.018 -1.6286 -1.2990  1.4787
  449MOL0     H60561   7.786   1.385   1.915 -0.2478 -2.0893  2.5742
  449MOL0     H60562   7.856   1.593   1.790  0.4097 -0.5652 -1.7460
  449MOL0     H60563   8.011   1.575   1.880  0.1394  2.3990 -0.0938
  449MOL0     H60564   8.030   1.341   1.821  0.0584 -2.1492 -2.1521
  449MOL0     H60565   8.079   1.447   1.682  1.2826 -0.0648  0.6862
  449MOL0     H60566   8.013   1.134   1.669  2.5656  1.3441 -4.3721
  449MOL0     H60567   7.858   1.057   1.372 -0.3948  1.9191 -0.2624
  449MOL0     H60568   7.901   0.960   1.502  1.2060  2.3142  1.8167
  449MOL0     H60569   7.662   0.880   1.414 -1.8459 -1.0295  2.1972
  449MOL0     H60570   7.606   1.046   1.437  0.2390  1.1931  0.3213
  449MOL0     H60571   7.677   0.847   1.652  1.5572 -0.2608 -1.4162
  449MOL0     H60572   7.523   0.864   1.591 -0.3670 -0.7710  1.5220
  449MOL0     H60573   7.546   1.132   1.642 -2.3197  0.4592  1.0479
  449MOL0     H60574   7.667   1.068   1.747  0.4477  2.4069 -1.2974
  449MOL0     H60575   7.362   1.034   1.525  1.9361 -1.7216  2.6106
  449MOL0     H60576   7.191   1.006   1.365 -1.0655 -2.2065  1.7244
  449MOL0     H60577   7.020   0.999   1.410 -0.5213  0.7875 -1.0720
  449MOL0     H60578   7.101   1.156   1.409 -0.9488 -0.4117  0.4392
  449MOL0     H60579   6.701   0.907   1.612  1.8860  1.0886  0.7576
  449MOL0     H60580   6.456   0.923   1.586 -1.4526 -2.3532  1.8742
  449MOL0     H60581   6.229   1.160   1.925 -0.8774  1.1549  0.0868
  449MOL0     H60582   6.292   1.265   1.805  0.2362 -0.8280 -2.8600
  449MOL0     H60583   6.068   1.317   1.794  1.0846 -0.0394  1.8824
  449MOL0     H60584   6.070   1.205   1.662 -2.3626  2.5435  0.0095
  449MOL0     H60585   6.015   1.140   1.961  3.4725 -1.7597 -0.7229
  449MOL0     H60586   5.980   1.037   1.821 -2.6154  0.6732 -2.6731
  449MOL0     H60587   5.794   1.166   1.949  4.0685 -0.9451  1.7109
  449MOL0     H60588   5.863   1.313   1.878  0.4560 -0.6718  1.6726
  449MOL0     H60589   5.793   1.123   1.654  1.0461  0.8200  0.7612
  449MOL0     H60590   5.769   1.288   1.676 -0.2362 -0.6676 -0.2622
  449MOL0     H60591   5.556   1.168   1.658 -0.4638 -2.6044 -0.6058
  449MOL0     H60592   5.601   1.047   1.771 -3.7890  0.5298  2.0503
  449MOL0     H60593   5.567   1.166   1.962 -0.2059  2.4737  1.1968
  449MOL0     H60594   5.425   1.168   1.859  0.6088 -0.6276 -2.6837
  449MOL0     H60595   5.635   1.407   1.875  1.2031 -1.9994 -0.5424
  449MOL0     H60596   5.487   1.396   1.968  0.5903 -0.3505  0.1547
  449MOL0     H60597   6.448   1.164   1.949 -0.9446 -0.9362  0.8837
  449MOL0     H60598   6.686   1.160   1.959  0.2383  0.6704 -0.4826
  449MOL0     H60599   7.048   0.994   1.901  0.1119 -2.3502  0.7687
  449MOL0     H60600   7.286   0.982   1.942  0.4396 -0.6548  0.0736
  449MOL0     H60601   7.111   1.744   1.666 -0.8118  1.1781  0.6502
  449MOL0     H60602   7.107   1.856   1.454  2.2618 -0.4161 -0.7705
  449MOL0     H60603   7.066   2.415   1.248 -1.6974 -0.5459 -2.2577
  449MOL0     H60604   7.121   2.523   1.032 -0.6568 -0.2106 -0.6575
  449MOL0     H60605   7.487   2.369   0.786  0.0421  1.5384 -1.6397
  449MOL0     H60606   7.469   2.535   0.738  0.2217 -0.3676 -0.8428
  449MOL0     H60607   7.677   2.543   0.873  0.1348 -0.9449  0.2966
  449MOL0     H60608   7.612   2.446   1.001 -1.3303  0.6965  1.5341
  449MOL0     H60609   7.638   2.691   1.054  0.7685  0.0881 -0.7244
  449MOL0     H60610   7.464   2.653   1.063  0.1494  3.5233  0.5235
  449MOL0     H60611   7.426   2.731   0.835 -0.7461 -0.2099  0.2984
  449MOL0     H60612   7.585   2.811   0.837 -1.6916  1.6743 -1.6370
  449MOL0     H60613   7.337   3.072   1.047  1.1420  0.0255 -1.2608
  449MOL0     H60614   7.421   2.224   0.964 -0.5585 -0.7128 -0.5664
  449MOL0     H60615   7.367   2.116   1.167  0.0176  1.7626  2.2740
  450MOL0     O60616   0.433   8.874   5.523  0.1321 -0.2645 -1.0833
  450MOL0     C60617   0.333   8.947   5.525 -0.0060 -0.0478  0.6050
  450MOL0     O60618   0.213   8.905   5.502  1.1746  0.0987  0.0533
  450MOL0     C60619   0.186   8.817   5.403  0.1765 -0.4944  0.7464
  450MOL0     C60620   0.101   8.870   5.297 -0.0633 -0.5485 -0.0506
  450MOL0     C60621   0.069   8.799   5.179  0.0601 -0.0397 -0.8074
  450MOL0     C60622   0.128   8.669   5.170 -0.0562 -0.3842  1.0615
  450MOL0     O60623   0.120   8.593   5.051 -0.3742 -0.0408  0.6579
  450MOL0     C60624   0.016   8.495   5.038  0.3973 -0.9959  0.2872
  450MOL0     C60625  -0.094   8.561   4.954  0.5117  0.1593 -0.0860
  450MOL0     C60626  -0.213   8.465   4.924  0.4416 -0.8656 -0.2087
  450MOL0     C60627  -0.221   8.421   4.782 -0.6248 -0.6289  0.5472
  450MOL0     C60628  -0.313   8.297   4.773  0.1908  0.5228  0.1547
  450MOL0     C60629  -0.383   8.277   4.638 -0.9009 -0.8004  0.2377
  450MOL0     C60630  -0.509   8.192   4.650  0.0823  0.1685  0.2696
  450MOL0     C60631  -0.569   8.152   4.512 -0.0388 -0.0809 -0.4460
  450MOL0     N60632  -0.705   8.095   4.518 -0.7071 -0.5456 -0.4527
  450MOL0     C60633  -0.733   7.964   4.525  0.4814  0.0046 -0.2819
  450MOL0     C60634  -0.867   7.940   4.515  0.6374 -1.3615 -0.0182
  450MOL0     C60635  -0.939   7.807   4.555  0.8556  0.7188 -0.0674
  450MOL0     C60636  -1.086   7.810   4.501 -0.0056 -0.1552  0.4580
  450MOL0     C60637  -1.105   7.721   4.376  0.2271 -1.0094 -0.4388
  450MOL0     C60638  -1.253   7.709   4.350  0.6483 -0.6730 -0.0566
  450MOL0     O60639  -1.314   7.614   4.445  0.7088  0.1999  1.0257
  450MOL0     C60640  -1.452   7.626   4.471 -0.0698 -0.5528 -0.2548
  450MOL0     C60641  -1.547   7.714   4.401  0.6132  0.8621  0.1255
  450MOL0     C60642  -1.679   7.727   4.451 -0.4683  0.1319 -1.2634
  450MOL0     C60643  -1.775   7.819   4.382 -0.0498 -1.1389  1.2018
  450MOL0     C60644  -1.720   7.651   4.567  0.2672  0.7614  0.1802
  450MOL0     C60645  -1.855   7.651   4.622  0.0340  0.7721  0.6923
  450MOL0     O60646  -1.889   7.535   4.698  0.2064 -0.2809  0.6116
  450MOL0     C60647  -2.003   7.539   4.778  0.0956 -0.2147 -0.7070
  450MOL0     C60648  -2.014   7.576   4.915 -0.4925  0.4180  0.8955
  450MOL0     C60649  -2.136   7.566   4.990  0.8640  1.2599  0.7831
  450MOL0     C60650  -2.243   7.504   4.925  0.1696 -0.0769 -0.4556
  450MOL0     O60651  -2.364   7.486   4.999 -0.2148 -0.1521  0.4515
  450MOL0     C60652  -2.480   7.530   4.932  0.0081  0.9356 -0.1541
  450MOL0     C60653  -2.568   7.625   5.014  0.2609  0.3582 -0.6824
  450MOL0     C60654  -2.691   7.555   5.069  0.3843 -0.2271  0.5824
  450MOL0     C60655  -2.709   7.580   5.217  0.0651 -0.0116 -0.5340
  450MOL0     C60656  -2.730   7.722   5.262 -0.0178 -0.3293 -0.3979
  450MOL0     C60657  -2.762   7.729   5.410 -0.2580 -0.4759  0.5074
  450MOL0     C60658  -2.791   7.874   5.448  0.1490  0.2722  0.4083
  450MOL0     C60659  -2.830   7.881   5.591  0.2250 -0.3931  0.0978
  450MOL0    Cl60660  -2.855   8.052   5.628 -0.2905  0.3684  0.0526
  450MOL0     C60661  -2.238   7.473   4.783  0.9258  0.3402 -0.3432
  450MOL0     C60662  -2.120   7.497   4.711 -0.9165  0.0403 -0.2313
  450MOL0     O60663  -1.927   7.749   4.607  0.2022 -0.4707 -0.4184
  450MOL0     C60664  -1.626   7.569   4.629 -0.0085  0.0111  0.1475
  450MOL0     C60665  -1.492   7.553   4.580 -0.2810 -0.6975 -0.1969
  450MOL0     N60666  -0.920   8.074   4.502  0.0454 -0.0594  0.3711
  450MOL0     N60667  -0.826   8.163   4.498  0.2429 -0.9110  0.3236
  450MOL0     C60668   0.201   8.606   5.270 -0.3286 -0.8423 -0.2347
  450MOL0     C60669   0.236   8.690   5.382 -0.8216  0.4393  0.6806
  450MOL0     C60670   0.349   9.094   5.561  0.9680  0.1436 -0.0740
  450MOL0     C60671   0.473   9.156   5.592 -0.2976 -0.5971  0.3389
  450MOL0     C60672   0.478   9.284   5.640 -0.1786  0.2025 -0.2940
  450MOL0     C60673   0.362   9.357   5.668 -1.6330  1.0389  0.1634
  450MOL0     O60674   0.361   9.473   5.739  0.1520  0.5336  0.1069
  450MOL0     C60675   0.480   9.537   5.784  0.2433  0.2349 -0.7961
  450MOL0     C60676   0.541   9.478   5.912 -0.6699  0.7662 -0.3872
  450MOL0     C60677   0.450   9.494   6.036  0.0567 -0.4991  0.2541
  450MOL0     C60678   0.445   9.628   6.109  0.0136 -0.2979 -0.1665
  450MOL0     C60679   0.577   9.694   6.112  0.4037 -0.5333  0.4447
  450MOL0     C60680   0.673   9.767   6.106  0.2344  0.1905  0.1977
  450MOL0     C60681   0.238   9.304   5.637  0.4079  0.7878  0.5354
  450MOL0     C60682   0.234   9.178   5.577  0.2262  0.1827  0.0892
  450MOL0     H60683   0.061   8.970   5.308  1.4841  0.1451 -0.4427
  450MOL0     H60684   0.011   8.852   5.104  1.6546  2.2051 -0.5667
  450MOL0     H60685   0.056   8.406   4.989 -0.3428 -0.3558 -1.5660
  450MOL0     H60686  -0.029   8.464   5.133 -3.5745 -0.3753 -1.1876
  450MOL0     H60687  -0.129   8.654   5.002 -1.7059  0.1284 -1.4985
  450MOL0     H60688  -0.059   8.600   4.858 -0.4513  1.8855  0.2085
  450MOL0     H60689  -0.204   8.378   4.990 -1.3606 -0.4579  0.6392
  450MOL0     H60690  -0.305   8.520   4.943  0.8831 -0.9780  2.9346
  450MOL0     H60691  -0.275   8.503   4.733  1.1920  0.1487 -0.2474
  450MOL0     H60692  -0.122   8.404   4.739 -0.3031  0.1677  0.9436
  450MOL0     H60693  -0.250   8.210   4.797 -0.5672  0.0712  0.5514
  450MOL0     H60694  -0.394   8.312   4.844 -2.1539  5.5356 -3.0543
  450MOL0     H60695  -0.410   8.374   4.595 -2.8564 -1.1563  0.5784
  450MOL0     H60696  -0.328   8.231   4.556  0.2292  1.1621 -0.1681
  450MOL0     H60697  -0.486   8.104   4.711 -0.1177  0.0883  0.2288
  450MOL0     H60698  -0.596   8.243   4.691  0.3337  0.0704  0.9375
  450MOL0     H60699  -0.503   8.081   4.461 -1.1701 -1.1456 -0.4848
  450MOL0     H60700  -0.575   8.240   4.448 -0.5948 -0.6354 -1.1767
  450MOL0     H60701  -0.663   7.887   4.556 -0.5098 -0.8260 -0.0120
  450MOL0     H60702  -0.879   7.736   4.496  1.6892  1.2975  0.0738
  450MOL0     H60703  -0.940   7.776   4.660 -0.1016  3.9818  1.0100
  450MOL0     H60704  -1.108   7.911   4.464  0.3668 -0.4316 -0.5410
  450MOL0     H60705  -1.151   7.798   4.589  0.8348 -1.8929  0.8827
  450MOL0     H60706  -1.060   7.626   4.408 -3.1765 -1.9331  2.2067
  450MOL0     H60707  -1.054   7.774   4.295 -1.5749 -0.9327 -1.5573
  450MOL0     H60708  -1.265   7.673   4.247 -0.7051 -1.3092  0.3007
  450MOL0     H60709  -1.308   7.804   4.357  2.2021  0.2284  0.2375
  450MOL0     H60710  -1.518   7.782   4.322  1.3320 -0.1148 -0.4783
  450MOL0     H60711  -1.745   7.843   4.280 -0.2088 -1.2175  1.1358
  450MOL0     H60712  -1.880   7.787   4.378 -0.5490  0.2800  2.0891
  450MOL0     H60713  -1.791   7.914   4.434  0.7565  0.4900 -1.3519
  450MOL0     H60714  -1.927   7.605   4.973 -0.2526 -0.3377  0.9361
  450MOL0     H60715  -2.133   7.581   5.097 -0.2711 -1.3738  1.2598
  450MOL0     H60716  -2.454   7.585   4.841 -0.2062 -1.1728 -1.5534
  450MOL0     H60717  -2.534   7.440   4.903  3.1712 -1.8567  1.8432
  450MOL0     H60718  -2.516   7.688   5.087 -1.7435 -0.6094  1.7333
  450MOL0     H60719  -2.611   7.698   4.945  1.1423 -0.0823 -1.7362
  450MOL0     H60720  -2.669   7.450   5.052  0.5199 -0.0334 -0.5355
  450MOL0     H60721  -2.786   7.579   5.019  0.7769  1.4201  0.5574
  450MOL0     H60722  -2.795   7.520   5.247  0.4834  0.0095  0.7392
  450MOL0     H60723  -2.617   7.549   5.268 -0.8079  3.4849  3.8081
  450MOL0     H60724  -2.815   7.764   5.206 -2.0915  0.2663  2.9285
  450MOL0     H60725  -2.638   7.776   5.236 -0.7492  0.6276 -1.0977
  450MOL0     H60726  -2.848   7.668   5.438 -0.7642 -0.2907 -0.5735
  450MOL0     H60727  -2.668   7.697   5.454  1.1748  1.4697 -0.9630
  450MOL0     H60728  -2.873   7.906   5.384  2.1812 -1.4240 -3.4340
  450MOL0     H60729  -2.705   7.939   5.433  0.3871 -0.4880 -1.8595
  450MOL0     H60730  -2.759   7.833   5.658 -1.6267 -0.0440  2.4750
  450MOL0     H60731  -2.926   7.832   5.610  0.8900 -1.6132  0.4195
  450MOL0     H60732  -2.322   7.445   4.720  1.0080 -2.7283  0.6947
  450MOL0     H60733  -2.113   7.474   4.605 -2.5768 -3.7573  0.3192
  450MOL0     H60734  -1.647   7.507   4.716  1.3402 -0.1277  0.3986
  450MOL0     H60735  -1.423   7.485   4.629  1.8161 -0.5197 -2.6918
  450MOL0     H60736   0.232   8.502   5.274 -3.9106 -2.0201  2.2217
  450MOL0     H60737   0.292   8.642   5.462  0.4270  0.8684  0.0953
  450MOL0     H60738   0.558   9.089   5.585  0.6936  0.6555  0.1381
  450MOL0     H60739   0.579   9.317   5.661 -0.8365  1.4847  0.9931
  450MOL0     H60740   0.553   9.536   5.703 -0.7807 -4.4021 -1.9570
  450MOL0     H60741   0.447   9.639   5.803 -2.3125 -1.0486  2.9069
  450MOL0     H60742   0.640   9.523   5.929 -0.6816  0.4339  0.6499
  450MOL0     H60743   0.556   9.370   5.902  2.3519  0.9333  1.1479
  450MOL0     H60744   0.485   9.421   6.109  0.3643  0.0933  0.7089
  450MOL0     H60745   0.347   9.460   6.022  0.3638 -2.1433  1.6255
  450MOL0     H60746   0.408   9.622   6.211  1.4668  0.8489  0.4593
  450MOL0     H60747   0.376   9.698   6.061 -0.6335 -1.3027 -0.7423
  450MOL0     H60748   0.751   9.841   6.099  0.1737  0.8526  4.1453
  450MOL0     H60749   0.147   9.358   5.664  0.2729  0.3737  0.9113
  450MOL0     H60750   0.135   9.144   5.548  0.3902 -1.2445  1.0806
  451MOL0     O60751   6.915   2.682   4.455 -0.3250 -0.5411  0.5462
  451MOL0     C60752   6.808   2.649   4.510 -0.5293 -0.5029 -0.0996
  451MOL0     O60753   6.707   2.588   4.444 -0.1521 -0.1232  0.3361
  451MOL0     C60754   6.726   2.569   4.312 -0.0586  0.5636  0.6501
  451MOL0     C60755   6.829   2.484   4.266 -0.0851  0.2762  1.1793
  451MOL0     C60756   6.857   2.472   4.126 -0.0188  0.1868  0.1676
  451MOL0     C60757   6.774   2.556   4.039 -0.4439  0.5311  0.6593
  451MOL0     O60758   6.792   2.572   3.899 -0.5529  0.8513  0.0164
  451MOL0     C60759   6.884   2.483   3.833  0.3593  0.1983  0.6100
  451MOL0     C60760   6.878   2.502   3.678 -0.4171 -0.3013  0.9478
  451MOL0     C60761   6.751   2.481   3.603 -0.1871  0.2943 -0.5162
  451MOL0     C60762   6.656   2.595   3.610 -0.0609 -0.6751 -0.1723
  451MOL0     C60763   6.554   2.602   3.490 -0.3057 -0.7565  0.4051
  451MOL0     C60764   6.473   2.733   3.495  0.5687  1.0171  0.0470
  451MOL0     C60765   6.343   2.708   3.421 -0.1652 -0.8172  0.0933
  451MOL0     C60766   6.225   2.653   3.493 -0.1593  0.1785  0.2197
  451MOL0     N60767   6.185   2.521   3.429 -0.0923  0.3758  0.3420
  451MOL0     C60768   6.184   2.402   3.507 -1.1440 -1.1058  0.6177
  451MOL0     C60769   6.132   2.304   3.419 -0.0711  0.6962 -0.6524
  451MOL0     C60770   6.127   2.160   3.446  0.6730  0.1917 -0.2744
  451MOL0     C60771   5.985   2.109   3.456  0.0846  0.4863  0.8288
  451MOL0     C60772   5.919   2.160   3.583  0.2063  0.3408  0.4683
  451MOL0     C60773   5.780   2.104   3.604  0.9004  0.2181  0.8393
  451MOL0     O60774   5.792   1.962   3.641  0.7237 -0.1964 -0.5450
  451MOL0     C60775   5.830   1.917   3.767 -0.3976 -0.3328  0.1137
  451MOL0     C60776   5.858   1.787   3.777 -0.4057 -0.1722 -0.0222
  451MOL0     C60777   5.898   1.727   3.906 -0.3166 -1.1151 -0.4880
  451MOL0     C60778   5.939   1.585   3.910  0.3941 -0.1253 -0.6498
  451MOL0     C60779   5.903   1.808   4.023 -0.6152 -0.8399  0.2275
  451MOL0     C60780   5.940   1.763   4.160 -0.1083  0.1973 -1.1166
  451MOL0     O60781   5.986   1.864   4.244 -0.4125  0.2653 -0.1553
  451MOL0     C60782   6.012   1.832   4.377  0.7944  0.4824  0.2673
  451MOL0     C60783   5.915   1.866   4.464  0.2922  0.2448 -0.3372
  451MOL0     C60784   5.935   1.848   4.599 -0.5315 -0.1243  0.1437
  451MOL0     C60785   6.057   1.805   4.648  0.4631 -0.1651 -0.2740
  451MOL0     O60786   6.085   1.791   4.782  1.4535  0.2078  0.2503
  451MOL0     C60787   6.067   1.905   4.862  0.3719  0.1115  0.3847
  451MOL0     C60788   6.206   1.980   4.863 -1.0233 -0.5257  0.4717
  451MOL0     C60789   6.192   2.132   4.908 -0.3084  0.5535  0.2050
  451MOL0     C60790   6.176   2.133   5.061  0.9575  0.1970  0.7160
  451MOL0     C60791   6.157   2.269   5.136  0.1181  0.5526 -0.2064
  451MOL0     C60792   6.146   2.248   5.284  0.0491 -0.1455 -0.7395
  451MOL0     C60793   6.005   2.193   5.343  0.2389  0.7007 -0.2998
  451MOL0     C60794   5.982   2.204   5.501 -0.1337  0.1731  0.1308
  451MOL0    Cl60795   5.953   2.378   5.551 -0.6693 -0.3232 -0.0146
  451MOL0     C60796   6.160   1.774   4.552 -0.0652  0.5538 -0.0978
  451MOL0     C60797   6.133   1.789   4.412  0.2519 -0.3361  0.9015
  451MOL0     O60798   5.918   1.651   4.200  0.4686 -0.1991  0.3798
  451MOL0     C60799   5.884   1.946   4.004 -0.3171  0.2489  0.1358
  451MOL0     C60800   5.847   1.999   3.881 -0.2984  0.6113  0.0046
  451MOL0     N60801   6.129   2.369   3.302  0.0559 -0.0769  0.8740
  451MOL0     N60802   6.156   2.495   3.304  0.1836  0.2953 -0.0435
  451MOL0     C60803   6.667   2.634   4.085 -0.6127 -0.7186  0.0548
  451MOL0     C60804   6.648   2.647   4.221 -0.3204  0.2130  0.0673
  451MOL0     C60805   6.782   2.668   4.663  0.4219 -0.2307 -0.2013
  451MOL0     C60806   6.869   2.744   4.740  0.2493 -0.5458 -0.1118
  451MOL0     C60807   6.849   2.775   4.872 -1.3365  0.7183  0.2721
  451MOL0     C60808   6.739   2.724   4.939 -0.0589  0.1992 -0.2305
  451MOL0     O60809   6.707   2.747   5.069 -0.8874  0.7263 -0.7697
  451MOL0     C60810   6.626   2.873   5.095  0.3019 -0.2634  0.3391
  451MOL0     C60811   6.563   2.854   5.237  0.1181 -0.1632 -0.4521
  451MOL0     C60812   6.440   2.756   5.242 -0.4880  0.1124  0.0271
  451MOL0     C60813   6.395   2.741   5.389 -0.0615  0.8595  0.1653
  451MOL0     C60814   6.254   2.708   5.410 -0.4304  0.2171 -0.7451
  451MOL0     C60815   6.138   2.676   5.419  0.5739  0.7678  0.1187
  451MOL0     C60816   6.654   2.639   4.876 -0.5636 -0.2629  1.2770
  451MOL0     C60817   6.670   2.610   4.737 -0.1055 -0.8144 -0.9011
  451MOL0     H60818   6.889   2.424   4.333  3.9361  2.4330 -0.1335
  451MOL0     H60819   6.925   2.403   4.077 -0.4394 -0.3565  0.3374
  451MOL0     H60820   6.985   2.506   3.868  0.9816 -2.7246  1.0203
  451MOL0     H60821   6.854   2.382   3.862 -2.0517  0.8366  0.5134
  451MOL0     H60822   6.936   2.591   3.650  2.3624 -2.2070  0.2741
  451MOL0     H60823   6.945   2.427   3.636 -1.0511 -0.8726  0.9447
  451MOL0     H60824   6.768   2.445   3.501  1.6349 -2.3208  0.5985
  451MOL0     H60825   6.698   2.393   3.642  1.4476 -0.8681 -0.8488
  451MOL0     H60826   6.609   2.588   3.709  1.1163 -1.1303  0.3629
  451MOL0     H60827   6.723   2.680   3.604  2.7355 -2.4160  3.2155
  451MOL0     H60828   6.605   2.589   3.395 -0.2889 -3.3828  0.6988
  451MOL0     H60829   6.491   2.516   3.515  0.7623 -2.0643 -1.2645
  451MOL0     H60830   6.459   2.767   3.598 -1.2977 -1.0649  0.5716
  451MOL0     H60831   6.526   2.815   3.446  0.1848 -0.3895 -2.9420
  451MOL0     H60832   6.318   2.812   3.395  0.9020 -0.8696 -1.2370
  451MOL0     H60833   6.348   2.654   3.326 -0.9657 -1.1238  0.2149
  451MOL0     H60834   6.144   2.725   3.505  0.1420  0.3508  1.3614
  451MOL0     H60835   6.263   2.620   3.590 -0.3136 -1.5923 -0.2801
  451MOL0     H60836   6.219   2.381   3.608  0.9592  2.8975  0.9136
  451MOL0     H60837   6.166   2.114   3.355  0.5074 -1.2361  0.3433
  451MOL0     H60838   6.192   2.121   3.525 -1.5264 -0.8421  1.1190
  451MOL0     H60839   5.992   2.000   3.463  1.6040  0.4466 -0.6353
  451MOL0     H60840   5.927   2.153   3.374  1.3518  2.3754  0.8809
  451MOL0     H60841   5.922   2.269   3.572 -2.9671  0.4237 -0.4242
  451MOL0     H60842   5.985   2.123   3.662 -0.3570  1.6392  1.5696
  451MOL0     H60843   5.722   2.106   3.511  1.8478 -2.3269  0.0945
  451MOL0     H60844   5.723   2.153   3.684 -0.9439 -1.8393  0.9008
  451MOL0     H60845   5.848   1.720   3.692 -2.3630  0.0346  0.0125
  451MOL0     H60846   6.017   1.556   3.840  1.1771 -2.6750  1.1269
  451MOL0     H60847   5.978   1.556   4.008  1.1416 -1.3318 -1.2751
  451MOL0     H60848   5.847   1.528   3.892  1.0532 -2.2281  1.9514
  451MOL0     H60849   5.830   1.910   4.414  1.8674  2.3467 -1.2880
  451MOL0     H60850   5.860   1.868   4.674 -0.2245 -2.0186  1.0183
  451MOL0     H60851   5.985   1.971   4.833 -2.3011 -3.1304 -0.0716
  451MOL0     H60852   6.035   1.862   4.958 -1.1025 -3.8962 -1.6575
  451MOL0     H60853   6.276   1.932   4.931  0.8425  0.1662 -0.8793
  451MOL0     H60854   6.251   1.998   4.765 -2.0250  0.2274  0.1229
  451MOL0     H60855   6.106   2.181   4.861 -0.4241 -0.7133 -0.9859
  451MOL0     H60856   6.289   2.175   4.883  0.6646 -2.7068 -2.3033
  451MOL0     H60857   6.090   2.069   5.085  0.4188  0.5285 -0.2498
  451MOL0     H60858   6.263   2.084   5.105  0.9277 -0.1002  0.4511
  451MOL0     H60859   6.080   2.331   5.090  0.3516  0.3555 -0.8800
  451MOL0     H60860   6.250   2.325   5.120  0.5110 -0.3364 -1.1307
  451MOL0     H60861   6.225   2.186   5.327 -2.1641 -2.4126  0.3379
  451MOL0     H60862   6.154   2.347   5.329 -0.3901  0.7932 -2.6181
  451MOL0     H60863   6.000   2.090   5.305 -1.0904  0.5527  0.2286
  451MOL0     H60864   5.919   2.241   5.297 -0.2902 -0.7866 -0.9024
  451MOL0     H60865   6.064   2.146   5.546  0.3178 -0.7120 -1.7429
  451MOL0     H60866   5.891   2.148   5.524 -0.3335 -0.7397 -2.5452
  451MOL0     H60867   6.263   1.748   4.576 -0.6845  0.4301  2.7177
  451MOL0     H60868   6.211   1.789   4.336 -0.3876 -0.1864  0.2283
  451MOL0     H60869   5.891   2.022   4.081 -1.2848  0.8242 -0.3259
  451MOL0     H60870   5.817   2.103   3.875 -0.4505  0.5348 -0.6479
  451MOL0     H60871   6.597   2.681   4.017  0.3421 -0.2964 -0.6491
  451MOL0     H60872   6.573   2.711   4.267  1.3897  0.5049  2.6322
  451MOL0     H60873   6.949   2.787   4.681 -0.0251  0.1401  0.0102
  451MOL0     H60874   6.931   2.828   4.920 -0.3453 -0.6662  0.1477
  451MOL0     H60875   6.678   2.969   5.086 -3.8443  2.3432  1.2075
  451MOL0     H60876   6.554   2.873   5.013  0.6803  1.3381 -0.0216
  451MOL0     H60877   6.522   2.952   5.264 -2.7348 -1.7437  1.5554
  451MOL0     H60878   6.639   2.814   5.305 -1.3693 -2.0070  0.2260
  451MOL0     H60879   6.458   2.654   5.207  0.6959  0.3318 -0.0204
  451MOL0     H60880   6.376   2.820   5.180  3.1821  1.7209 -2.4286
  451MOL0     H60881   6.401   2.840   5.435 -0.2841  1.6330 -1.4265
  451MOL0     H60882   6.464   2.670   5.436 -1.3997 -1.6250 -1.4563
  451MOL0     H60883   6.038   2.639   5.425  0.3573  1.3347 -0.0429
  451MOL0     H60884   6.565   2.596   4.921  0.6060 -2.9183  1.2280
  451MOL0     H60885   6.595   2.551   4.685 -0.2053  0.6226 -2.4841
  452MOL0     O60886   6.528   8.167   1.304 -0.4709 -0.0954  1.3291
  452MOL0     C60887   6.532   8.080   1.387  0.0412 -0.0176  0.3132
  452MOL0     O60888   6.565   7.951   1.363  0.6793  0.5576 -0.0711
  452MOL0     C60889   6.645   7.918   1.262  1.1920 -0.3280  0.0865
  452MOL0     C60890   6.763   7.995   1.246 -0.4006 -0.5619  0.7397
  452MOL0     C60891   6.837   7.971   1.129  1.1749 -0.6851 -0.1252
  452MOL0     C60892   6.814   7.865   1.044  0.2816 -0.7275 -0.3374
  452MOL0     O60893   6.895   7.865   0.932 -0.3590  0.4932 -0.2926
  452MOL0     C60894   6.870   7.767   0.829  0.5756 -0.2628 -0.3662
  452MOL0     C60895   6.960   7.798   0.712 -1.0079 -0.5349 -1.1141
  452MOL0     C60896   7.029   7.677   0.656  0.0160  0.9930  1.1562
  452MOL0     C60897   6.937   7.563   0.594 -0.3735 -0.3517  0.2058
  452MOL0     C60898   6.841   7.612   0.478 -0.1208 -1.1967  0.0420
  452MOL0     C60899   6.727   7.519   0.450  0.1974  0.7966 -0.5503
  452MOL0     C60900   6.597   7.526   0.539 -0.4656 -0.1317  0.0727
  452MOL0     C60901   6.534   7.392   0.595 -0.2705  0.1254 -0.2414
  452MOL0     N60902   6.600   7.332   0.711 -0.2918  0.4453  0.2565
  452MOL0     C60903   6.621   7.197   0.727  1.2257  0.0522  0.4050
  452MOL0     C60904   6.621   7.176   0.864  0.2703 -0.6204  0.3677
  452MOL0     C60905   6.633   7.048   0.936  0.5525  0.0212 -0.5359
  452MOL0     C60906   6.519   6.947   0.889  0.7698  0.7797 -1.0346
  452MOL0     C60907   6.379   7.013   0.914  0.9445  0.9085 -0.0385
  452MOL0     C60908   6.364   7.035   1.063 -0.2868  0.1962 -0.2351
  452MOL0     O60909   6.234   7.091   1.088  0.1762  0.1984 -0.2421
  452MOL0     C60910   6.229   7.218   1.129  0.1651 -0.5232 -0.2399
  452MOL0     C60911   6.277   7.322   1.043  0.2706  0.7368  0.0047
  452MOL0     C60912   6.266   7.459   1.083  0.2757  0.3467  1.2372
  452MOL0     C60913   6.319   7.563   0.984 -0.6780 -0.2487 -0.9457
  452MOL0     C60914   6.218   7.497   1.212  0.3167  0.4089  0.1550
  452MOL0     C60915   6.203   7.630   1.252 -0.6611  0.4021 -1.2460
  452MOL0     O60916   6.103   7.708   1.184 -0.0479 -0.6812 -0.7885
  452MOL0     C60917   6.090   7.836   1.234 -0.0419 -0.9071 -0.3166
  452MOL0     C60918   6.191   7.929   1.267 -0.6038 -0.3626 -0.1794
  452MOL0     C60919   6.164   8.051   1.323 -0.6234  0.0280 -1.0002
  452MOL0     C60920   6.034   8.087   1.348  0.4408  0.3833 -0.1474
  452MOL0     O60921   6.004   8.208   1.424 -0.5828  1.5173  0.4199
  452MOL0     C60922   6.006   8.193   1.574  0.7672 -0.1239  0.8377
  452MOL0     C60923   5.863   8.178   1.633 -0.0483  0.0209 -0.5510
  452MOL0     C60924   5.791   8.307   1.614  0.3142 -1.1328  0.4006
  452MOL0     C60925   5.651   8.302   1.670 -0.3020  0.4446  0.1225
  452MOL0     C60926   5.647   8.265   1.821  0.3324 -0.0470  0.9818
  452MOL0     C60927   5.538   8.348   1.885 -0.2267 -0.1054  0.1033
  452MOL0     C60928   5.537   8.326   2.035  0.4725 -0.6381 -0.4475
  452MOL0     C60929   5.530   8.452   2.123  0.3821  0.2609  0.0163
  452MOL0    Cl60930   5.507   8.425   2.293  0.5148  0.1104 -0.2151
  452MOL0     C60931   5.927   8.003   1.308 -0.4795  0.0743 -0.2462
  452MOL0     C60932   5.958   7.881   1.245  0.2594  0.1139  0.5959
  452MOL0     O60933   6.279   7.662   1.345 -0.7802  0.2619  0.3876
  452MOL0     C60934   6.173   7.391   1.298  0.0961  0.6843 -0.5327
  452MOL0     C60935   6.180   7.256   1.253  0.6715  0.1652  0.6928
  452MOL0     N60936   6.608   7.296   0.928 -0.8010 -0.4004 -0.3257
  452MOL0     N60937   6.610   7.392   0.830 -0.0942  0.2680 -0.4173
  452MOL0     C60938   6.719   7.773   1.081 -0.0100 -0.3895  0.3695
  452MOL0     C60939   6.638   7.800   1.187  0.1441 -0.0573  0.7356
  452MOL0     C60940   6.491   8.120   1.523 -0.6133  0.0090  0.6390
  452MOL0     C60941   6.522   8.038   1.629 -0.5025  0.5630 -0.9675
  452MOL0     C60942   6.504   8.090   1.763 -0.1469  0.1361 -0.0589
  452MOL0     C60943   6.416   8.198   1.791  1.0718  0.7385 -1.0765
  452MOL0     O60944   6.358   8.226   1.915 -0.1616 -0.0875 -0.0846
  452MOL0     C60945   6.400   8.163   2.042 -0.0282  1.1503 -0.8538
  452MOL0     C60946   6.301   8.212   2.148  0.8944  0.3404  1.7731
  452MOL0     C60947   6.152   8.180   2.113 -0.0795 -0.4405  0.8957
  452MOL0     C60948   6.090   8.289   2.027 -0.4980  0.1037  0.0016
  452MOL0     C60949   5.991   8.356   2.116  0.3943  1.5312  0.0307
  452MOL0     C60950   5.917   8.432   2.172 -1.1126 -1.0003  0.2117
  452MOL0     C60951   6.381   8.268   1.677 -0.1355 -0.1058 -0.0682
  452MOL0     C60952   6.425   8.233   1.550 -0.1742 -0.0070 -0.0388
  452MOL0     H60953   6.791   8.069   1.321 -0.6204 -0.1953  0.4616
  452MOL0     H60954   6.907   8.052   1.115  1.2729 -0.4470  1.5741
  452MOL0     H60955   6.890   7.665   0.863  0.3370 -0.6938 -1.4703
  452MOL0     H60956   6.766   7.758   0.796 -0.1553  0.9281  1.4254
  452MOL0     H60957   6.904   7.857   0.639 -2.9752 -1.7847 -0.6802
  452MOL0     H60958   7.028   7.880   0.738 -3.4054  0.8085  1.5499
  452MOL0     H60959   7.092   7.707   0.572  0.1589 -0.3770  0.7475
  452MOL0     H60960   7.099   7.636   0.730  0.0995 -4.5008 -1.4533
  452MOL0     H60961   6.997   7.482   0.552 -0.2538  0.4694 -1.2637
  452MOL0     H60962   6.867   7.534   0.673 -1.5486  1.2933 -0.1763
  452MOL0     H60963   6.790   7.708   0.493 -0.9568 -0.9282 -3.5330
  452MOL0     H60964   6.901   7.623   0.387  0.6068 -0.9516  0.5465
  452MOL0     H60965   6.692   7.533   0.347 -1.2327 -1.9486 -0.5387
  452MOL0     H60966   6.764   7.417   0.463  0.6665  0.8872 -1.1042
  452MOL0     H60967   6.606   7.598   0.621 -2.2671 -1.9441  1.9518
  452MOL0     H60968   6.516   7.576   0.484  0.6245  0.6517 -0.8961
  452MOL0     H60969   6.534   7.320   0.512  2.1027 -2.6787  1.9897
  452MOL0     H60970   6.436   7.422   0.635  0.5601  1.4694  0.8738
  452MOL0     H60971   6.625   7.123   0.648  0.3590  0.2487  0.1634
  452MOL0     H60972   6.721   6.990   0.905  0.6519  0.4149 -1.0040
  452MOL0     H60973   6.644   7.056   1.045 -0.2516 -2.5941 -0.2025
  452MOL0     H60974   6.522   6.849   0.937 -0.8784  0.4399 -1.5407
  452MOL0     H60975   6.541   6.924   0.784  2.1548 -1.9715 -0.2353
  452MOL0     H60976   6.298   6.953   0.871  1.4292  0.2834 -0.0987
  452MOL0     H60977   6.377   7.109   0.862 -0.8404  1.0963  0.3244
  452MOL0     H60978   6.438   7.103   1.107 -0.8679  1.1215 -0.6464
  452MOL0     H60979   6.371   6.935   1.107 -2.8273  0.6848  1.5145
  452MOL0     H60980   6.313   7.297   0.944  2.2019 -0.4284  0.9555
  452MOL0     H60981   6.403   7.625   1.018 -0.1120 -1.2704 -0.4140
  452MOL0     H60982   6.353   7.500   0.901 -0.8863  1.0492 -2.0507
  452MOL0     H60983   6.239   7.624   0.943 -2.5098 -1.6355  0.4097
  452MOL0     H60984   6.293   7.901   1.242 -0.2774 -0.8694  1.5553
  452MOL0     H60985   6.246   8.122   1.329  2.4437 -3.0221 -2.9083
  452MOL0     H60986   6.075   8.113   1.603 -0.7238 -2.5878 -1.7995
  452MOL0     H60987   6.039   8.291   1.609 -3.6085  2.1484 -0.6142
  452MOL0     H60988   5.816   8.091   1.585 -1.0159  0.6897 -0.8472
  452MOL0     H60989   5.878   8.145   1.737 -2.3138 -2.6989 -0.9693
  452MOL0     H60990   5.783   8.344   1.512 -1.6111  3.6471  1.9880
  452MOL0     H60991   5.843   8.382   1.675 -0.6456 -0.4848  0.4464
  452MOL0     H60992   5.614   8.404   1.655  0.0923  0.7914  1.4187
  452MOL0     H60993   5.584   8.236   1.613 -0.0321 -0.6427  1.0243
  452MOL0     H60994   5.746   8.288   1.861 -0.7959 -0.0407  4.0626
  452MOL0     H60995   5.632   8.158   1.839  2.5745 -0.4810  0.4898
  452MOL0     H60996   5.563   8.451   1.857  2.0113 -0.8199 -0.7023
  452MOL0     H60997   5.445   8.315   1.837 -0.0105 -0.7075  0.0957
  452MOL0     H60998   5.632   8.281   2.065  0.9546  1.7855  2.0842
  452MOL0     H60999   5.456   8.261   2.071 -0.0037 -0.4066 -1.0885
  452MOL0     H61000   5.450   8.514   2.081 -0.4864 -1.0057 -0.2486
  452MOL0     H61001   5.628   8.501   2.115 -0.5612  2.1858 -0.3008
  452MOL0     H61002   5.824   8.033   1.329 -1.7245 -2.5747 -2.0733
  452MOL0     H61003   5.885   7.810   1.209  1.5708 -0.4129 -1.1714
  452MOL0     H61004   6.128   7.416   1.394  1.1029 -0.1608  0.1876
  452MOL0     H61005   6.126   7.191   1.321 -1.1996  1.0509  0.0978
  452MOL0     H61006   6.703   7.683   1.023 -1.1880  0.8304 -1.2942
  452MOL0     H61007   6.549   7.743   1.212  0.4998 -2.1876 -2.3169
  452MOL0     H61008   6.576   7.944   1.625  0.4232  0.7711  3.0157
  452MOL0     H61009   6.550   8.023   1.835 -0.7013 -1.3611 -1.0338
  452MOL0     H61010   6.403   8.053   2.042 -3.2953  0.8690  1.9983
  452MOL0     H61011   6.497   8.204   2.071 -1.5439  3.7493  0.9893
  452MOL0     H61012   6.315   8.320   2.154 -0.9129  0.5995  1.9739
  452MOL0     H61013   6.322   8.159   2.242 -1.2638 -4.2722  0.0014
  452MOL0     H61014   6.102   8.168   2.209 -2.5349  1.3100 -0.0474
  452MOL0     H61015   6.142   8.086   2.057  0.3277  0.2813 -0.4552
  452MOL0     H61016   6.043   8.244   1.938 -2.6964  2.1982  0.0025
  452MOL0     H61017   6.161   8.369   2.006  1.9400 -1.6294  1.1061
  452MOL0     H61018   5.859   8.514   2.211 -1.7854 -1.9820  1.3772
  452MOL0     H61019   6.330   8.364   1.681  0.9791  0.6486 -2.4520
  452MOL0     H61020   6.412   8.311   1.476  1.8101  2.0668  1.6462
  453MOL0     O61021   2.913   5.980   1.543  0.2240 -0.0022  0.0783
  453MOL0     C61022   3.034   6.008   1.550 -0.1987  0.0526 -1.0613
  453MOL0     O61023   3.089   6.131   1.534  0.9258  0.3094  0.0080
  453MOL0     C61024   3.020   6.240   1.498  0.2389  0.0233  0.5411
  453MOL0     C61025   3.086   6.323   1.406 -0.1682  0.4675 -0.0526
  453MOL0     C61026   3.015   6.438   1.363 -0.0714  0.6012  0.2444
  453MOL0     C61027   2.888   6.468   1.414 -0.3072 -0.4475  0.0797
  453MOL0     O61028   2.816   6.573   1.377 -0.4894 -0.3014  0.9714
  453MOL0     C61029   2.874   6.678   1.298 -0.1945  0.3823  0.3183
  453MOL0     C61030   2.784   6.786   1.287 -0.0645 -0.1195 -0.1007
  453MOL0     C61031   2.827   6.906   1.215 -0.2226  0.1388 -0.3159
  453MOL0     C61032   2.725   7.012   1.175  0.9142  0.2343 -0.3648
  453MOL0     C61033   2.637   7.038   1.298  1.2083 -0.6266  0.0828
  453MOL0     C61034   2.637   7.194   1.318 -0.2788  0.4673  0.9483
  453MOL0     C61035   2.770   7.243   1.378 -0.5289 -0.2236  0.1228
  453MOL0     C61036   2.737   7.376   1.444  1.0667  0.6306 -0.2575
  453MOL0     N61037   2.852   7.417   1.524 -0.0485 -0.4636 -0.1442
  453MOL0     C61038   2.903   7.353   1.628  0.2554 -0.6952 -0.0262
  453MOL0     C61039   3.019   7.416   1.653 -0.1282 -0.2290  0.1600
  453MOL0     C61040   3.106   7.395   1.769 -0.1974 -0.1755 -0.3481
  453MOL0     C61041   3.057   7.504   1.875 -0.6183  0.2693 -0.1076
  453MOL0     C61042   3.162   7.526   1.985  0.1397  0.6499  0.2515
  453MOL0     C61043   3.126   7.647   2.057  0.2135 -0.0739 -0.4479
  453MOL0     O61044   3.219   7.674   2.176 -0.2391 -0.0747  0.4194
  453MOL0     C61045   3.344   7.700   2.138  0.2638 -0.0452  1.2897
  453MOL0     C61046   3.430   7.597   2.159 -0.8005  0.3982  0.8530
  453MOL0     C61047   3.570   7.607   2.141 -0.0317 -0.1108  0.0717
  453MOL0     C61048   3.656   7.493   2.193 -0.4438  0.1860  0.1144
  453MOL0     C61049   3.611   7.726   2.064 -0.0266 -1.0570 -0.4492
  453MOL0     C61050   3.753   7.744   2.030  1.2225  0.1849 -0.7712
  453MOL0     O61051   3.785   7.866   1.986  0.5089 -0.1847 -0.1003
  453MOL0     C61052   3.872   7.871   1.878  0.7804 -0.0401  0.1263
  453MOL0     C61053   3.884   7.775   1.778  0.8077 -0.0371  0.0355
  453MOL0     C61054   3.977   7.779   1.666 -0.5132  0.1956 -0.2397
  453MOL0     C61055   4.064   7.892   1.660  0.1787 -0.4736  0.1492
  453MOL0     O61056   4.150   7.924   1.558  0.0012  0.1546 -0.5358
  453MOL0     C61057   4.208   7.817   1.484  0.1265  0.0932  0.6325
  453MOL0     C61058   4.144   7.792   1.337  0.4191  0.4951  0.4639
  453MOL0     C61059   4.195   7.897   1.236  0.2200  1.0454  0.2252
  453MOL0     C61060   4.338   7.870   1.176 -0.3145 -0.1643  0.2961
  453MOL0     C61061   4.354   7.734   1.106  0.0688  0.4312  0.0451
  453MOL0     C61062   4.493   7.731   1.040  0.6275  0.6037  0.6339
  453MOL0     C61063   4.540   7.827   0.937 -0.4774 -1.1131  0.2167
  453MOL0     C61064   4.473   7.796   0.806 -0.2694  0.0940 -0.4209
  453MOL0    Cl61065   4.527   7.631   0.742 -0.0317 -0.1204  0.2450
  453MOL0     C61066   4.054   7.987   1.759  0.8290 -1.0683  0.0310
  453MOL0     C61067   3.959   7.980   1.862 -0.5081 -0.5634  0.3959
  453MOL0     O61068   3.822   7.646   2.047 -0.8011 -0.1617 -0.6621
  453MOL0     C61069   3.514   7.831   2.029  0.5959  0.2775 -0.0335
  453MOL0     C61070   3.386   7.827   2.078  0.5874 -0.2744  0.0193
  453MOL0     N61071   3.027   7.528   1.564 -0.2973 -0.0470 -0.0371
  453MOL0     N61072   2.935   7.517   1.477  0.6042 -0.6833  0.2660
  453MOL0     C61073   2.829   6.387   1.504  0.4946  0.5763 -0.5301
  453MOL0     C61074   2.899   6.277   1.556 -1.3538 -0.0636  0.2059
  453MOL0     C61075   3.128   5.904   1.603 -0.6831 -0.6450 -0.0759
  453MOL0     C61076   3.226   5.942   1.697 -0.1542 -0.1231 -0.2771
  453MOL0     C61077   3.317   5.853   1.754  0.2975  0.7138  0.0069
  453MOL0     C61078   3.312   5.722   1.720  0.4243 -0.6716  0.0059
  453MOL0     O61079   3.406   5.639   1.778 -0.7860 -0.2813  0.1944
  453MOL0     C61080   3.387   5.497   1.778  0.4017  0.5581 -0.0006
  453MOL0     C61081   3.475   5.448   1.897 -0.1063 -0.1508  0.7219
  453MOL0     C61082   3.504   5.298   1.894  0.5359  0.0989  0.7122
  453MOL0     C61083   3.653   5.258   1.917  0.2774  0.4825  0.1555
  453MOL0     C61084   3.662   5.108   1.885  0.0604  0.0735  0.0642
  453MOL0     C61085   3.650   4.988   1.868  0.7210  0.3720 -0.2211
  453MOL0     C61086   3.217   5.672   1.628  0.8617 -0.0089  0.6954
  453MOL0     C61087   3.136   5.765   1.570  0.4497 -0.7705  0.2322
  453MOL0     H61088   3.182   6.298   1.363  0.0815 -0.3253  0.9280
  453MOL0     H61089   3.060   6.492   1.280 -0.4459 -1.2761 -1.2531
  453MOL0     H61090   2.975   6.708   1.330 -0.3776  1.8214 -0.4024
  453MOL0     H61091   2.893   6.641   1.197  0.4491 -2.3802  1.3425
  453MOL0     H61092   2.692   6.754   1.237  0.2377 -0.5007 -0.4177
  453MOL0     H61093   2.768   6.806   1.393  2.1075 -1.8810  0.6291
  453MOL0     H61094   2.900   6.954   1.281 -0.6528  4.0782 -2.4207
  453MOL0     H61095   2.887   6.874   1.129 -0.0853  3.3564 -1.5406
  453MOL0     H61096   2.776   7.102   1.141  0.7823  0.4791  0.0756
  453MOL0     H61097   2.666   6.985   1.087  1.6673 -1.5312 -0.3737
  453MOL0     H61098   2.541   7.002   1.261  1.5080 -0.2712 -1.0875
  453MOL0     H61099   2.658   6.985   1.391  1.7226 -0.9137 -0.1870
  453MOL0     H61100   2.634   7.245   1.221  2.1844  3.3732  2.2544
  453MOL0     H61101   2.545   7.217   1.373  0.3910  1.7513  1.5633
  453MOL0     H61102   2.816   7.175   1.451 -1.4544  1.0828  2.0042
  453MOL0     H61103   2.836   7.257   1.292 -0.5214  1.5513  0.3802
  453MOL0     H61104   2.654   7.358   1.513  1.2078 -0.3641 -0.3259
  453MOL0     H61105   2.720   7.454   1.370 -1.5233  1.0513  0.6907
  453MOL0     H61106   2.867   7.263   1.677 -0.6703 -0.0083  0.5900
  453MOL0     H61107   3.096   7.290   1.795 -0.8255 -0.2182 -0.7567
  453MOL0     H61108   3.213   7.407   1.747 -0.7098  2.2791 -1.9678
  453MOL0     H61109   2.975   7.452   1.925  1.0744 -2.4522  0.0465
  453MOL0     H61110   3.036   7.598   1.822 -2.0754 -0.6305 -1.2027
  453MOL0     H61111   3.256   7.545   1.933 -0.5326  1.9850 -0.5179
  453MOL0     H61112   3.164   7.440   2.052  1.1713  3.4015  4.0748
  453MOL0     H61113   3.025   7.625   2.094 -0.6232 -1.2902 -3.2116
  453MOL0     H61114   3.118   7.731   1.988  0.6443  0.6911  0.4034
  453MOL0     H61115   3.386   7.501   2.184 -0.4522 -1.5042 -4.5936
  453MOL0     H61116   3.685   7.426   2.112  0.7427  0.5451  0.2373
  453MOL0     H61117   3.746   7.533   2.239  0.0086 -0.9665  0.2619
  453MOL0     H61118   3.614   7.430   2.272 -1.1670  1.3394  0.6870
  453MOL0     H61119   3.832   7.680   1.787  0.3978  0.1881  0.0647
  453MOL0     H61120   3.979   7.702   1.591  1.7999 -1.6216  1.5366
  453MOL0     H61121   4.307   7.857   1.462 -0.2130  0.5043 -0.1894
  453MOL0     H61122   4.212   7.727   1.547 -0.4974  0.0443  0.6059
  453MOL0     H61123   4.166   7.692   1.296 -0.8942 -0.6931  2.4866
  453MOL0     H61124   4.035   7.802   1.335  0.4074  0.2865 -0.6488
  453MOL0     H61125   4.195   7.986   1.300 -0.1651 -0.8272  3.0149
  453MOL0     H61126   4.114   7.887   1.164 -1.2326 -0.8561  1.9960
  453MOL0     H61127   4.361   7.951   1.107  0.7678 -1.8037 -1.3640
  453MOL0     H61128   4.415   7.871   1.255  0.1870 -0.4133 -0.1858
  453MOL0     H61129   4.272   7.705   1.040  1.0733  0.4979 -1.2683
  453MOL0     H61130   4.364   7.667   1.192 -2.2702 -0.1093 -0.0386
  453MOL0     H61131   4.571   7.738   1.116  1.3399 -0.6001  0.0336
  453MOL0     H61132   4.516   7.629   1.009 -0.5397 -0.1405  2.0684
  453MOL0     H61133   4.647   7.821   0.913 -0.4419 -1.7390  0.5221
  453MOL0     H61134   4.512   7.926   0.973  1.1891 -0.7117  0.5097
  453MOL0     H61135   4.507   7.869   0.732 -0.9920  2.7130  1.6724
  453MOL0     H61136   4.364   7.807   0.812 -0.4045 -1.1890  0.0209
  453MOL0     H61137   4.128   8.066   1.761 -0.3447  0.4000 -4.1610
  453MOL0     H61138   3.947   8.044   1.949 -0.1873 -1.6647  1.2809
  453MOL0     H61139   3.550   7.926   1.991  1.3789 -0.0531 -0.1368
  453MOL0     H61140   3.311   7.904   2.066  0.7811 -0.3597 -2.3890
  453MOL0     H61141   2.731   6.401   1.549  2.2538 -1.0576  4.4119
  453MOL0     H61142   2.843   6.220   1.629 -1.0113 -2.0085 -0.9943
  453MOL0     H61143   3.231   6.045   1.730  0.5659  0.0606 -0.9265
  453MOL0     H61144   3.386   5.892   1.829  0.4746  0.1137  0.1559
  453MOL0     H61145   3.284   5.468   1.799  0.3222  0.7751 -0.0779
  453MOL0     H61146   3.406   5.447   1.683  0.8601  0.1927  0.2840
  453MOL0     H61147   3.412   5.479   1.981 -0.6686  3.2840 -0.8072
  453MOL0     H61148   3.569   5.502   1.912  0.2618 -0.8132  0.8271
  453MOL0     H61149   3.471   5.264   1.795  2.9258  2.2390 -0.9342
  453MOL0     H61150   3.435   5.245   1.960  1.7326 -1.4991  0.7497
  453MOL0     H61151   3.682   5.274   2.022  0.1605 -3.1425  0.8793
  453MOL0     H61152   3.719   5.319   1.854  1.2238  0.9838  1.5702
  453MOL0     H61153   3.636   4.883   1.857  2.5541  0.3344 -3.2085
  453MOL0     H61154   3.207   5.567   1.603  0.2491  0.5708 -1.7780
  453MOL0     H61155   3.069   5.709   1.505  2.1679 -1.3723 -1.0744
  454MOL0     O61156   1.941   6.839   4.572 -0.4133  0.4904 -0.3011
  454MOL0     C61157   1.893   6.925   4.642  0.1509 -0.3210 -0.2695
  454MOL0     O61158   1.953   6.977   4.751  0.3903 -0.0170 -0.4685
  454MOL0     C61159   2.068   6.923   4.795  0.1763  0.2232  0.2785
  454MOL0     C61160   2.051   6.834   4.903 -0.3118  0.1847 -0.3198
  454MOL0     C61161   2.175   6.785   4.962 -0.5592 -0.4665  0.2993
  454MOL0     C61162   2.303   6.818   4.902  0.7073 -0.1641  1.0728
  454MOL0     O61163   2.419   6.771   4.944 -0.3308 -0.2472  0.7203
  454MOL0     C61164   2.426   6.660   5.035 -0.7906 -0.2561 -0.1438
  454MOL0     C61165   2.382   6.528   4.973 -0.6215  0.3152  0.3696
  454MOL0     C61166   2.430   6.407   5.056 -0.4821 -0.2051  1.5114
  454MOL0     C61167   2.384   6.411   5.203 -0.4984 -0.1159  0.2586
  454MOL0     C61168   2.444   6.280   5.275  0.1192 -0.4009 -0.1340
  454MOL0     C61169   2.431   6.288   5.430 -1.0009 -0.6163  0.9898
  454MOL0     C61170   2.462   6.154   5.495 -0.1092 -0.1053  0.0370
  454MOL0     C61171   2.492   6.160   5.641  0.4425  0.2874 -0.5893
  454MOL0     N61172   2.622   6.235   5.657 -1.2693  0.3077  0.5130
  454MOL0     C61173   2.635   6.345   5.734  0.4666 -0.6132  0.4028
  454MOL0     C61174   2.761   6.361   5.760 -0.7238 -0.1804 -0.9990
  454MOL0     C61175   2.835   6.473   5.836  0.1436  1.5911  0.4351
  454MOL0     C61176   2.892   6.570   5.730  0.5061  0.0033  0.2603
  454MOL0     C61177   2.938   6.709   5.799  1.0437  0.3314 -0.9535
  454MOL0     C61178   3.044   6.696   5.897 -0.1257  0.8224 -0.1260
  454MOL0     O61179   3.110   6.828   5.922 -0.3041 -0.0171  0.0758
  454MOL0     C61180   3.212   6.840   6.009 -0.0883  1.2246 -0.2306
  454MOL0     C61181   3.228   6.743   6.119 -0.8390 -0.2027 -0.2071
  454MOL0     C61182   3.340   6.750   6.201  0.0589 -0.3959 -0.2755
  454MOL0     C61183   3.358   6.633   6.290 -0.0451  0.4353 -0.9008
  454MOL0     C61184   3.420   6.869   6.209 -0.1726  0.2264 -0.4170
  454MOL0     C61185   3.514   6.906   6.308 -0.1033 -0.3527 -0.4913
  454MOL0     O61186   3.503   6.857   6.435 -0.8928  0.2463  0.4329
  454MOL0     C61187   3.597   6.883   6.536  0.2808 -0.2445  0.0447
  454MOL0     C61188   3.735   6.858   6.531 -0.2573 -0.7130 -0.0700
  454MOL0     C61189   3.825   6.880   6.641  0.4499  0.2454 -0.2356
  454MOL0     C61190   3.773   6.937   6.761 -0.3731 -0.4908  0.0077
  454MOL0     O61191   3.847   6.991   6.867  0.0446  0.4754  0.3297
  454MOL0     C61192   3.988   7.020   6.840  0.1571 -1.2139 -0.3254
  454MOL0     C61193   4.011   7.149   6.748  0.4308  0.1739 -0.1209
  454MOL0     C61194   3.943   7.278   6.805  0.6994  0.0780  0.3284
  454MOL0     C61195   3.797   7.298   6.753 -0.3171  0.4334 -0.0447
  454MOL0     C61196   3.722   7.420   6.810 -0.1018  0.4083  0.0755
  454MOL0     C61197   3.584   7.453   6.722 -0.3711  0.6999  0.7004
  454MOL0     C61198   3.503   7.565   6.786 -0.4664 -0.0039 -0.1753
  454MOL0     C61199   3.465   7.533   6.935  0.3018  0.6227  0.8227
  454MOL0    Cl61200   3.400   7.359   6.942 -0.3389  0.4282 -0.1810
  454MOL0     C61201   3.633   6.957   6.773  0.3424  0.5244  0.6289
  454MOL0     C61202   3.550   6.931   6.658 -0.6749 -0.3523 -0.4511
  454MOL0     O61203   3.614   6.969   6.274  0.1996 -0.0099 -1.0772
  454MOL0     C61204   3.396   6.955   6.107  0.4324  0.4591  0.4378
  454MOL0     C61205   3.309   6.932   5.996  0.8809 -0.4782 -0.2562
  454MOL0     N61206   2.838   6.253   5.711  0.8423  0.4743  0.1420
  454MOL0     N61207   2.748   6.176   5.652 -0.5535  0.2608 -0.4674
  454MOL0     C61208   2.306   6.899   4.780 -0.3069 -0.7756 -0.1822
  454MOL0     C61209   2.189   6.949   4.729 -0.3088  0.3825 -0.0662
  454MOL0     C61210   1.746   6.957   4.619  0.8158 -0.6294 -0.3926
  454MOL0     C61211   1.665   6.872   4.539  0.0189 -0.1421  0.7774
  454MOL0     C61212   1.528   6.900   4.505  0.1569  0.0712 -0.5058
  454MOL0     C61213   1.478   7.022   4.549 -0.0475 -0.4022  0.1218
  454MOL0     O61214   1.355   7.068   4.500  0.0266  0.1788 -0.5700
  454MOL0     C61215   1.255   6.991   4.420 -0.7096  0.1600 -0.1666
  454MOL0     C61216   1.277   7.030   4.275 -0.1415  1.0159  0.5320
  454MOL0     C61217   1.206   6.928   4.186 -0.1439 -0.2013 -0.0482
  454MOL0     C61218   1.056   6.961   4.196 -0.1684 -0.0023 -0.6884
  454MOL0     C61219   1.027   7.093   4.134 -0.4986  1.0042 -0.3115
  454MOL0     C61220   1.004   7.192   4.068 -0.0420 -0.3200 -0.7884
  454MOL0     C61221   1.553   7.104   4.639  1.2015  0.5936 -0.6152
  454MOL0     C61222   1.684   7.071   4.670  0.0572  0.4655 -0.5985
  454MOL0     H61223   1.957   6.815   4.953 -0.7506  0.5400 -1.0003
  454MOL0     H61224   2.174   6.728   5.054 -3.8064 -1.3591 -0.1578
  454MOL0     H61225   2.529   6.649   5.071 -1.0616 -2.9396  0.0101
  454MOL0     H61226   2.355   6.687   5.114 -0.7860  1.1664 -0.6023
  454MOL0     H61227   2.273   6.524   4.977 -0.9176 -1.1444 -3.9830
  454MOL0     H61228   2.400   6.527   4.865 -0.3306 -1.0335  0.4080
  454MOL0     H61229   2.400   6.312   5.012  1.1656 -0.1775  0.2535
  454MOL0     H61230   2.538   6.396   5.043 -0.9076 -1.8260 -1.7327
  454MOL0     H61231   2.410   6.509   5.244 -0.3635  1.3178 -2.9227
  454MOL0     H61232   2.275   6.419   5.205 -0.8468 -2.6472 -2.2160
  454MOL0     H61233   2.399   6.190   5.232  2.6312 -1.6034 -0.4291
  454MOL0     H61234   2.547   6.287   5.241 -0.3483  2.7274 -1.2825
  454MOL0     H61235   2.491   6.373   5.464 -2.2854  1.1490 -0.9215
  454MOL0     H61236   2.325   6.301   5.450 -1.3613  0.7899 -1.5030
  454MOL0     H61237   2.372   6.092   5.492 -0.8386  0.9191  0.0881
  454MOL0     H61238   2.546   6.098   5.455 -2.5963 -2.9849 -1.5656
  454MOL0     H61239   2.489   6.059   5.684  1.0620 -0.0256 -1.2578
  454MOL0     H61240   2.415   6.222   5.687  2.2073  1.7549  0.5523
  454MOL0     H61241   2.553   6.413   5.756  0.7089 -0.2060  0.0660
  454MOL0     H61242   2.756   6.515   5.899  1.2161 -1.2022  4.0165
  454MOL0     H61243   2.919   6.447   5.901 -0.1639  2.7200  1.3209
  454MOL0     H61244   2.811   6.590   5.660 -1.5281 -0.7057  2.2677
  454MOL0     H61245   2.980   6.532   5.678 -1.0362 -1.3998 -1.4887
  454MOL0     H61246   2.858   6.761   5.851  2.2547  3.6141 -2.0573
  454MOL0     H61247   2.974   6.782   5.726  4.0647  0.7461  0.7616
  454MOL0     H61248   3.121   6.634   5.851  1.3407  0.3780  2.7137
  454MOL0     H61249   3.015   6.642   5.988 -1.3019  1.4703 -0.0870
  454MOL0     H61250   3.166   6.655   6.134  2.9053 -3.3175 -1.6095
  454MOL0     H61251   3.466   6.619   6.299 -0.3006 -0.8869  0.5269
  454MOL0     H61252   3.298   6.650   6.380 -2.1302 -1.8947 -1.7391
  454MOL0     H61253   3.322   6.541   6.243  2.3878 -1.5591  0.8841
  454MOL0     H61254   3.780   6.832   6.436  0.8703  0.6468  0.0595
  454MOL0     H61255   3.932   6.871   6.631  0.6373  0.5405  1.2596
  454MOL0     H61256   4.044   7.045   6.930 -2.9515  1.8498  0.9938
  454MOL0     H61257   4.048   6.936   6.806  1.7636  0.8151 -2.8179
  454MOL0     H61258   4.119   7.165   6.744  0.6754 -0.4251  2.3922
  454MOL0     H61259   3.979   7.120   6.647  0.0893 -3.7728  0.9462
  454MOL0     H61260   3.998   7.368   6.779  2.0116 -1.0304 -0.9163
  454MOL0     H61261   3.950   7.284   6.914 -1.2061 -0.0160  0.4866
  454MOL0     H61262   3.811   7.311   6.645 -0.5710  3.8815  0.2320
  454MOL0     H61263   3.746   7.207   6.788 -3.1388  0.6190 -3.1305
  454MOL0     H61264   3.786   7.509   6.799 -0.3209  1.1009  3.3507
  454MOL0     H61265   3.702   7.411   6.917  0.5897 -2.4464  0.0603
  454MOL0     H61266   3.636   7.491   6.633  1.5363 -0.5870  1.1930
  454MOL0     H61267   3.527   7.361   6.707  0.0712  0.6803 -1.0619
  454MOL0     H61268   3.413   7.593   6.730 -0.3261  1.1576  0.1547
  454MOL0     H61269   3.563   7.656   6.789  0.4314 -0.5838 -0.2216
  454MOL0     H61270   3.382   7.597   6.967  0.6440  0.6167  1.7357
  454MOL0     H61271   3.553   7.547   6.998  0.8750  2.1553 -0.2298
  454MOL0     H61272   3.605   7.021   6.856  1.7247  0.5232  1.1311
  454MOL0     H61273   3.448   6.962   6.676 -0.8306 -1.3956  0.5386
  454MOL0     H61274   3.464   7.040   6.100 -1.0029  1.6383  0.2393
  454MOL0     H61275   3.284   7.002   5.917 -0.6035 -0.9128 -0.2111
  454MOL0     H61276   2.407   6.923   4.747  0.3612  2.0782  3.2761
  454MOL0     H61277   2.193   7.015   4.642  0.1167  2.2550  1.3019
  454MOL0     H61278   1.698   6.777   4.497 -0.7555  0.1866 -0.6421
  454MOL0     H61279   1.477   6.823   4.448 -0.4358 -0.3959  0.6332
  454MOL0     H61280   1.261   6.883   4.437 -0.9638 -0.0187 -1.1537
  454MOL0     H61281   1.154   7.015   4.453 -0.8074  0.4168 -0.6329
  454MOL0     H61282   1.385   7.034   4.254  0.2147 -0.7881  1.7450
  454MOL0     H61283   1.235   7.130   4.260 -0.1317  0.9758  0.2330
  454MOL0     H61284   1.220   6.832   4.236 -2.3976 -1.5235 -1.7875
  454MOL0     H61285   1.248   6.933   4.085 -0.4616  1.5997 -0.1308
  454MOL0     H61286   1.010   6.951   4.295  1.4272 -2.8924 -0.1391
  454MOL0     H61287   1.001   6.886   4.138  1.5050 -0.6759 -1.4470
  454MOL0     H61288   0.987   7.282   4.013  0.0370  0.4726  0.4583
  454MOL0     H61289   1.515   7.199   4.676  1.8399  0.3798  0.6401
  454MOL0     H61290   1.732   7.155   4.719 -0.9209  1.7925 -1.8537
  455MOL0     O61291   4.492   4.449   2.434  0.0507 -0.0800  0.7104
  455MOL0     C61292   4.422   4.505   2.344  0.2674 -0.0517 -0.6579
  455MOL0     O61293   4.308   4.582   2.366 -0.2118  0.1370 -0.2526
  455MOL0     C61294   4.247   4.587   2.494 -0.2379  0.0255  0.3121
  455MOL0     C61295   4.171   4.697   2.519  0.2142 -0.6080  0.1270
  455MOL0     C61296   4.104   4.715   2.635  0.0956 -0.6475  0.2558
  455MOL0     C61297   4.119   4.624   2.743 -0.1236 -0.1523  0.4482
  455MOL0     O61298   4.080   4.662   2.866  0.2899 -0.4354 -0.5600
  455MOL0     C61299   4.191   4.724   2.937  0.1574 -0.3754 -1.0763
  455MOL0     C61300   4.234   4.864   2.883 -0.7900  1.2610 -0.2888
  455MOL0     C61301   4.141   4.974   2.918 -0.1757 -0.0112  0.3823
  455MOL0     C61302   4.211   5.106   2.886  0.1476 -0.1308 -0.6065
  455MOL0     C61303   4.115   5.215   2.938  0.5222 -0.1777 -0.7019
  455MOL0     C61304   4.185   5.354   2.925 -0.0689 -0.2796  0.7667
  455MOL0     C61305   4.177   5.419   2.786  0.2085 -0.0302  0.8529
  455MOL0     C61306   4.225   5.556   2.777  0.5913  0.1423  0.4091
  455MOL0     N61307   4.366   5.567   2.783 -0.3743  0.3870 -0.3756
  455MOL0     C61308   4.453   5.575   2.671 -0.5231 -0.6580 -0.4501
  455MOL0     C61309   4.567   5.623   2.728 -0.5272 -0.2535  0.8539
  455MOL0     C61310   4.702   5.633   2.659  1.1583  1.1537  0.5530
  455MOL0     C61311   4.756   5.495   2.616  0.5365  0.8365  1.2135
  455MOL0     C61312   4.753   5.393   2.725  0.8240  0.1146  0.1333
  455MOL0     C61313   4.769   5.252   2.658 -0.0414 -1.3084 -0.1271
  455MOL0     O61314   4.899   5.239   2.596 -0.5796  0.6551 -0.0383
  455MOL0     C61315   4.909   5.128   2.509 -0.5103 -0.3617  0.1599
  455MOL0     C61316   4.805   5.053   2.459  0.7456 -0.6760  0.1360
  455MOL0     C61317   4.829   4.956   2.367 -0.1054 -1.2592  0.6127
  455MOL0     C61318   4.708   4.894   2.313  0.4200  0.4398  0.1883
  455MOL0     C61319   4.963   4.921   2.336  0.4119  0.2692  0.1353
  455MOL0     C61320   5.001   4.810   2.249 -0.6872 -0.6610  0.3599
  455MOL0     O61321   5.122   4.833   2.181 -0.8427 -0.0127  0.7186
  455MOL0     C61322   5.154   4.765   2.062 -0.2966  0.2837  1.0193
  455MOL0     C61323   5.180   4.836   1.941 -0.0823  0.1411 -0.2257
  455MOL0     C61324   5.204   4.780   1.813  0.2581  0.4974 -0.2739
  455MOL0     C61325   5.220   4.635   1.810 -0.6465 -0.5137  0.5967
  455MOL0     O61326   5.253   4.560   1.703 -0.0402 -0.3289 -0.1606
  455MOL0     C61327   5.332   4.626   1.612  0.2008 -0.6255  1.2029
  455MOL0     C61328   5.274   4.601   1.471 -0.6572 -0.1006 -0.3258
  455MOL0     C61329   5.135   4.662   1.451 -0.4714  0.1944  0.3809
  455MOL0     C61330   5.141   4.818   1.433  0.5249  0.0805  0.0119
  455MOL0     C61331   4.986   4.871   1.430 -0.5878  0.2473 -0.2520
  455MOL0     C61332   4.994   5.026   1.448 -0.0758  0.7414  0.2760
  455MOL0     C61333   4.860   5.092   1.471 -0.1475  0.6106 -0.3177
  455MOL0     C61334   4.746   5.057   1.381  0.4411 -0.6308  0.4242
  455MOL0    Cl61335   4.760   5.133   1.215  0.3606 -0.1802 -0.0370
  455MOL0     C61336   5.200   4.563   1.928  0.4076 -0.3566 -0.6717
  455MOL0     C61337   5.168   4.627   2.056  0.9087 -0.9690 -0.2767
  455MOL0     O61338   4.927   4.715   2.239 -0.1043  0.8350  0.1372
  455MOL0     C61339   5.069   4.997   2.395  0.2230 -0.2193 -0.3110
  455MOL0     C61340   5.040   5.105   2.473 -0.0910  0.8284  0.7955
  455MOL0     N61341   4.554   5.619   2.862  0.8698  0.2028  0.5273
  455MOL0     N61342   4.431   5.597   2.895 -0.5647 -0.1308  0.5646
  455MOL0     C61343   4.188   4.501   2.718 -0.4603  0.4442  0.5864
  455MOL0     C61344   4.252   4.488   2.590  0.1763  0.6605 -0.5717
  455MOL0     C61345   4.472   4.487   2.206 -0.6061  0.2007 -0.0470
  455MOL0     C61346   4.400   4.536   2.097 -0.0700  0.2442 -0.0768
  455MOL0     C61347   4.435   4.506   1.966 -0.2006  0.1081 -0.0309
  455MOL0     C61348   4.532   4.413   1.936 -1.2805  0.5604  1.3576
  455MOL0     O61349   4.576   4.394   1.807  0.0526  0.6995  0.3101
  455MOL0     C61350   4.714   4.394   1.781  0.7690 -0.3293 -0.3578
  455MOL0     C61351   4.783   4.523   1.824 -0.0813 -0.3205  0.8638
  455MOL0     C61352   4.726   4.663   1.785 -1.2413  0.0509 -0.2318
  455MOL0     C61353   4.692   4.664   1.630  0.0407 -0.1522 -0.1223
  455MOL0     C61354   4.612   4.780   1.602  0.4657 -0.0495 -0.1618
  455MOL0     C61355   4.547   4.874   1.569  0.5885 -0.5373  0.3215
  455MOL0     C61356   4.602   4.356   2.047 -0.5104 -0.8681 -0.2677
  455MOL0     C61357   4.581   4.392   2.181 -0.5781  0.0219 -0.9873
  455MOL0     H61358   4.155   4.777   2.447  1.8262  2.5438  2.9831
  455MOL0     H61359   4.063   4.813   2.660  0.6405 -0.6935  1.4137
  455MOL0     H61360   4.163   4.736   3.042  0.8817 -0.8480 -0.8172
  455MOL0     H61361   4.279   4.660   2.946 -0.8533 -1.5195  1.7672
  455MOL0     H61362   4.328   4.894   2.930 -0.9845  0.6400  0.5107
  455MOL0     H61363   4.259   4.854   2.777 -2.2523 -1.4310 -0.4812
  455MOL0     H61364   4.049   4.975   2.858 -0.7531 -1.7557  1.1841
  455MOL0     H61365   4.115   4.964   3.024 -0.1938 -2.1354  0.2036
  455MOL0     H61366   4.308   5.116   2.936 -0.1112  2.0324 -0.4263
  455MOL0     H61367   4.226   5.120   2.778  1.4507  3.3768 -0.0853
  455MOL0     H61368   4.019   5.215   2.885 -1.4489 -0.4416  2.5694
  455MOL0     H61369   4.085   5.199   3.042  1.7173 -2.6849 -0.6794
  455MOL0     H61370   4.145   5.424   2.998 -0.4420  1.7484 -1.2565
  455MOL0     H61371   4.290   5.334   2.951  0.8024 -1.6878 -3.1114
  455MOL0     H61372   4.238   5.376   2.706  0.6619  0.7424  0.7735
  455MOL0     H61373   4.072   5.422   2.755  0.4176  0.3321  0.1675
  455MOL0     H61374   4.176   5.604   2.862 -0.4520 -0.3732  0.1223
  455MOL0     H61375   4.199   5.606   2.683  1.0701  0.8358  0.6428
  455MOL0     H61376   4.447   5.540   2.569  2.4326  0.3987 -1.0915
  455MOL0     H61377   4.691   5.703   2.576  0.9627 -0.2364 -0.6359
  455MOL0     H61378   4.777   5.682   2.722  1.2136  1.5911  0.1533
  455MOL0     H61379   4.861   5.508   2.588  0.5977 -3.3545 -1.4062
  455MOL0     H61380   4.696   5.451   2.536  2.4416  0.8929 -0.2958
  455MOL0     H61381   4.659   5.386   2.781  2.2566  1.0631  2.8030
  455MOL0     H61382   4.832   5.420   2.796  0.2751  1.3929  0.2738
  455MOL0     H61383   4.691   5.247   2.582 -0.4782 -1.7567  0.3337
  455MOL0     H61384   4.743   5.173   2.730  0.5240 -0.4343  1.0833
  455MOL0     H61385   4.705   5.073   2.496  0.8271 -2.1237  1.2735
  455MOL0     H61386   4.629   4.969   2.324  1.3920  1.6453 -0.6993
  455MOL0     H61387   4.725   4.875   2.207  2.2656  0.1823  0.4853
  455MOL0     H61388   4.691   4.796   2.358 -0.1070 -0.2455 -1.4331
  455MOL0     H61389   5.176   4.945   1.937 -2.3140  0.1042 -0.2692
  455MOL0     H61390   5.221   4.844   1.727  1.2042  2.6586  1.4284
  455MOL0     H61391   5.342   4.735   1.611 -3.1771 -0.2098  0.3670
  455MOL0     H61392   5.425   4.568   1.604 -0.0158 -0.6989 -2.4466
  455MOL0     H61393   5.339   4.630   1.388 -0.5949 -0.4977 -0.4190
  455MOL0     H61394   5.270   4.495   1.443  0.5585 -0.7692  1.8060
  455MOL0     H61395   5.075   4.633   1.538 -0.7078  1.9175  0.8331
  455MOL0     H61396   5.084   4.620   1.364 -1.5393  1.0300  0.5905
  455MOL0     H61397   5.202   4.865   1.510  0.9431 -2.3726  1.2884
  455MOL0     H61398   5.187   4.843   1.336 -2.1168  3.5589 -0.5410
  455MOL0     H61399   4.926   4.823   1.507 -1.8969  1.2051 -0.6354
  455MOL0     H61400   4.937   4.842   1.337 -0.4060  0.9509 -0.5723
  455MOL0     H61401   5.061   5.040   1.533 -2.9506 -1.5224  3.1519
  455MOL0     H61402   5.043   5.066   1.358  1.5336  0.8288  1.1615
  455MOL0     H61403   4.872   5.201   1.474  2.9315  0.3834 -0.8112
  455MOL0     H61404   4.837   5.058   1.572 -1.0000  0.6390 -0.4908
  455MOL0     H61405   4.650   5.089   1.423  0.1772 -0.5803 -0.2013
  455MOL0     H61406   4.736   4.949   1.368 -1.1747 -0.4430 -0.0946
  455MOL0     H61407   5.211   4.455   1.930  2.7769 -0.1489 -0.1041
  455MOL0     H61408   5.142   4.554   2.132 -0.3090 -0.8195 -0.5354
  455MOL0     H61409   5.170   4.974   2.362  0.2689  0.9255 -0.9840
  455MOL0     H61410   5.127   5.162   2.506  1.7992 -3.3077  4.0402
  455MOL0     H61411   4.192   4.424   2.795  1.5375 -1.5519 -1.3508
  455MOL0     H61412   4.308   4.395   2.579 -0.5317  0.2632 -0.8952
  455MOL0     H61413   4.310   4.595   2.110 -0.7161 -1.1716  2.5886
  455MOL0     H61414   4.381   4.553   1.885 -0.1644  0.5836  0.2212
  455MOL0     H61415   4.759   4.307   1.828  0.9633 -1.3466 -2.3267
  455MOL0     H61416   4.715   4.380   1.673 -0.2048  2.5563 -0.8477
  455MOL0     H61417   4.886   4.515   1.788 -0.0713  1.3091  0.4239
  455MOL0     H61418   4.795   4.518   1.932 -1.5970 -0.6227  1.0396
  455MOL0     H61419   4.789   4.749   1.810 -2.8984  0.5359  2.7741
  455MOL0     H61420   4.638   4.685   1.846 -1.4137  4.6216 -1.7334
  455MOL0     H61421   4.633   4.575   1.610  0.7390 -0.4679 -0.8255
  455MOL0     H61422   4.790   4.658   1.582  0.9841 -2.0339  1.8729
  455MOL0     H61423   4.466   4.943   1.557  1.0736 -0.4729 -4.3945
  455MOL0     H61424   4.665   4.272   2.020 -1.8093 -1.9599 -0.0007
  455MOL0     H61425   4.637   4.358   2.267 -1.4764 -0.1480 -0.4547
  456MOL0     O61426   4.417  11.084   8.249 -0.3338 -0.2226 -0.0601
  456MOL0     C61427   4.528  11.102   8.300  0.5440  0.1538 -0.5950
  456MOL0     O61428   4.597  11.234   8.313  0.4902  0.3178  0.4649
  456MOL0     C61429   4.552  11.344   8.239 -0.5441  0.7800  0.4781
  456MOL0     C61430   4.542  11.472   8.297 -0.2161 -0.9764 -0.0172
  456MOL0     C61431   4.508  11.585   8.226 -0.5016 -1.1785  0.5968
  456MOL0     C61432   4.476  11.568   8.087  0.2994  0.3067 -0.1101
  456MOL0     O61433   4.437  11.673   8.018  0.1955 -0.5857  0.1439
  456MOL0     C61434   4.291  11.676   8.013  0.7963  0.0056 -0.6687
  456MOL0     C61435   4.229  11.774   7.905  0.8490  0.0094  0.1835
  456MOL0     C61436   4.260  11.746   7.758 -0.3949  0.7987  0.7081
  456MOL0     C61437   4.161  11.825   7.663  0.3738  0.0893  0.1080
  456MOL0     C61438   4.159  11.785   7.523 -0.8032  0.6385 -0.1904
  456MOL0     C61439   4.067  11.872   7.443  0.4796  0.5651  0.1138
  456MOL0     C61440   4.065  11.836   7.290  0.7339  0.3828 -0.7507
  456MOL0     C61441   3.976  11.931   7.204  0.1556  0.3653  0.1178
  456MOL0     N61442   3.834  11.933   7.247 -0.4579  0.6782 -0.6669
  456MOL0     C61443   3.757  11.825   7.252 -0.3325  0.1065 -0.4447
  456MOL0     C61444   3.648  11.861   7.315  0.3665  0.6831  0.0826
  456MOL0     C61445   3.544  11.764   7.358 -0.2257  1.1910 -0.2579
  456MOL0     C61446   3.430  11.768   7.254  0.1919  0.6797 -0.2146
  456MOL0     C61447   3.343  11.893   7.280 -0.3802 -0.9844 -0.2943
  456MOL0     C61448   3.229  11.902   7.177  1.4417 -0.9887 -0.2668
  456MOL0     O61449   3.137  11.793   7.203 -0.2538  0.0010 -0.3645
  456MOL0     C61450   3.016  11.797   7.139  0.5616 -0.0303 -0.3566
  456MOL0     C61451   2.913  11.729   7.202 -0.2331  0.5764 -0.2471
  456MOL0     C61452   2.779  11.731   7.181 -0.9766 -0.4592  0.6575
  456MOL0     C61453   2.677  11.651   7.267  0.1337 -0.5353  0.0117
  456MOL0     C61454   2.732  11.820   7.074  1.2877 -0.6257  0.0691
  456MOL0     C61455   2.587  11.833   7.035  0.5089 -0.0620 -0.5185
  456MOL0     O61456   2.544  11.943   6.984 -0.4097 -0.4187  0.1322
  456MOL0     C61457   2.438  11.944   6.895  0.5780 -0.2610  0.5892
  456MOL0     C61458   2.416  11.842   6.800 -0.5333  0.5971 -0.4003
  456MOL0     C61459   2.315  11.858   6.701 -0.0473  0.3810 -0.2327
  456MOL0     C61460   2.235  11.968   6.700 -0.9570  0.4865  0.1935
  456MOL0     O61461   2.142  11.972   6.602 -0.3556 -0.4217  0.4824
  456MOL0     C61462   2.015  12.018   6.644 -0.0643  0.0688 -0.0670
  456MOL0     C61463   1.978  12.152   6.571  0.6496 -0.2828 -0.6790
  456MOL0     C61464   1.843  12.210   6.638 -0.0135  0.4721 -0.3710
  456MOL0     C61465   1.715  12.148   6.582 -0.3790 -0.6476  0.3685
  456MOL0     C61466   1.595  12.152   6.671  0.3590 -0.5488 -0.0589
  456MOL0     C61467   1.532  12.290   6.702  0.3244  0.1175  0.1797
  456MOL0     C61468   1.392  12.267   6.773  0.4136 -0.1397  1.1093
  456MOL0     C61469   1.270  12.249   6.664 -0.2384  0.3514 -1.0194
  456MOL0    Cl61470   1.106  12.308   6.724 -0.0684 -0.3127 -0.5167
  456MOL0     C61471   2.247  12.065   6.801 -1.2868  0.5267  0.3331
  456MOL0     C61472   2.359  12.055   6.894 -0.0025 -0.2705  0.4150
  456MOL0     O61473   2.515  11.734   7.053 -0.4274 -0.3284  0.0667
  456MOL0     C61474   2.831  11.897   7.007 -0.0603  0.4515  0.5306
  456MOL0     C61475   2.972  11.885   7.041 -0.0541 -0.7765  0.3647
  456MOL0     N61476   3.646  11.998   7.332  0.7036 -0.3789 -0.1356
  456MOL0     N61477   3.759  12.040   7.280 -0.5010  0.1404  0.0247
  456MOL0     C61478   4.502  11.445   8.026 -0.0271 -0.3172 -0.4889
  456MOL0     C61479   4.535  11.327   8.098  0.3264 -0.1168  0.0356
  456MOL0     C61480   4.600  10.983   8.354  0.5363 -0.7413 -0.5594
  456MOL0     C61481   4.736  10.984   8.400 -0.1557 -0.6330 -0.7046
  456MOL0     C61482   4.795  10.857   8.433 -0.0699 -0.2141 -0.0892
  456MOL0     C61483   4.719  10.747   8.434  0.3979  0.9189  0.5401
  456MOL0     O61484   4.791  10.625   8.467  0.0771 -0.3840 -0.0692
  456MOL0     C61485   4.721  10.502   8.472 -0.6657  0.5160 -0.0061
  456MOL0     C61486   4.710  10.437   8.330  0.4040 -0.5464  0.3256
  456MOL0     C61487   4.846  10.392   8.291  0.1176 -0.4396  0.2955
  456MOL0     C61488   4.923  10.505   8.214  0.9839  0.4873  0.0459
  456MOL0     C61489   5.036  10.440   8.159 -0.5696  0.2418  0.1118
  456MOL0     C61490   5.145  10.388   8.122 -0.1561 -0.3816  0.1505
  456MOL0     C61491   4.587  10.750   8.398 -0.3377  0.4792  0.1982
  456MOL0     C61492   4.522  10.863   8.354  0.6121 -0.4192 -0.3087
  456MOL0     H61493   4.563  11.482   8.403  0.8108 -1.8857 -0.1178
  456MOL0     H61494   4.498  11.680   8.278  1.7569  0.1933 -1.2590
  456MOL0     H61495   4.245  11.577   7.996 -0.0837  0.1460  0.7732
  456MOL0     H61496   4.261  11.721   8.107  0.3068 -1.1060 -0.2671
  456MOL0     H61497   4.121  11.779   7.922  0.0870 -1.4393 -3.2509
  456MOL0     H61498   4.261  11.873   7.938 -1.8682  0.3361  2.1780
  456MOL0     H61499   4.363  11.779   7.739  0.5588 -1.4760  1.5232
  456MOL0     H61500   4.259  11.639   7.737  1.3073  0.5715  1.5786
  456MOL0     H61501   4.059  11.795   7.690  1.2121 -2.3758  0.7105
  456MOL0     H61502   4.167  11.933   7.681  0.9649 -0.1186  1.1870
  456MOL0     H61503   4.257  11.793   7.476 -0.1268 -1.3425  0.7877
  456MOL0     H61504   4.134  11.679   7.526 -0.7713  0.6468  2.5437
  456MOL0     H61505   3.965  11.880   7.483  0.6982 -0.3484  0.8825
  456MOL0     H61506   4.113  11.971   7.444  1.3680  0.1794 -0.6315
  456MOL0     H61507   4.168  11.847   7.255  0.8819  1.0493 -0.1169
  456MOL0     H61508   4.045  11.730   7.270  2.9556  0.3912 -3.6296
  456MOL0     H61509   3.972  11.905   7.098 -1.0215 -0.3377  0.3188
  456MOL0     H61510   4.028  12.027   7.217 -1.3036  1.4590 -1.5923
  456MOL0     H61511   3.787  11.722   7.240 -1.7521 -0.4029  0.0969
  456MOL0     H61512   3.583  11.661   7.352  0.1845  1.3720 -0.7377
  456MOL0     H61513   3.501  11.771   7.458  1.4701 -1.2084  0.7547
  456MOL0     H61514   3.371  11.676   7.251  1.6845 -0.2983 -1.7683
  456MOL0     H61515   3.482  11.770   7.158 -0.6862  1.3896 -0.6900
  456MOL0     H61516   3.398  11.987   7.275  0.3887 -1.2296  1.9954
  456MOL0     H61517   3.303  11.892   7.382 -1.2013  1.0964 -0.5449
  456MOL0     H61518   3.267  11.901   7.075 -0.1040 -0.8144 -0.8844
  456MOL0     H61519   3.176  11.996   7.197 -2.1579 -3.4917  3.8752
  456MOL0     H61520   2.937  11.654   7.277 -0.0329  1.5897  0.7311
  456MOL0     H61521   2.715  11.603   7.358 -0.9032  0.5086  1.0358
  456MOL0     H61522   2.587  11.709   7.290  0.9761  0.9657 -0.4017
  456MOL0     H61523   2.631  11.571   7.207 -2.3885 -0.5631  1.8063
  456MOL0     H61524   2.488  11.763   6.786  2.1840  2.7615  0.4502
  456MOL0     H61525   2.305  11.785   6.621 -0.2353 -2.0772  1.8919
  456MOL0     H61526   1.944  11.942   6.609 -0.5145  1.2834 -1.9648
  456MOL0     H61527   2.007  12.010   6.752  1.7069  0.7766  0.1377
  456MOL0     H61528   2.064  12.214   6.599  0.9333 -0.1490 -1.8151
  456MOL0     H61529   1.975  12.147   6.462 -0.3308  1.2414 -0.7406
  456MOL0     H61530   1.834  12.319   6.632  1.0346  0.7161  1.8579
  456MOL0     H61531   1.844  12.184   6.744  0.3221 -3.4249 -1.1995
  456MOL0     H61532   1.693  12.199   6.488 -1.1576 -1.5111  0.0609
  456MOL0     H61533   1.738  12.042   6.566 -0.2620 -0.6059  0.2594
  456MOL0     H61534   1.626  12.115   6.769 -0.3024  3.5773  1.9566
  456MOL0     H61535   1.518  12.085   6.632 -0.6533  0.4544  0.1267
  456MOL0     H61536   1.602  12.338   6.771  0.1704  2.0731 -0.9808
  456MOL0     H61537   1.518  12.349   6.612  1.0513  1.2954  0.8200
  456MOL0     H61538   1.394  12.365   6.819  3.1081 -0.2508  1.3905
  456MOL0     H61539   1.397  12.191   6.852  2.3910 -2.8323 -1.3560
  456MOL0     H61540   1.272  12.144   6.636 -1.9691 -0.1082  0.4647
  456MOL0     H61541   1.294  12.311   6.577 -0.3365  2.1221  0.1514
  456MOL0     H61542   2.187  12.156   6.799 -0.5888  1.0272  1.5060
  456MOL0     H61543   2.394  12.135   6.958  2.3356  1.6337 -2.8826
  456MOL0     H61544   2.810  11.972   6.932 -1.1074 -0.5111 -0.1689
  456MOL0     H61545   3.040  11.942   6.979 -0.0119 -0.4160  0.7347
  456MOL0     H61546   4.489  11.435   7.919 -1.2047 -0.2641 -0.3615
  456MOL0     H61547   4.521  11.227   8.059 -0.3747  0.1073 -0.3078
  456MOL0     H61548   4.797  11.071   8.382  1.4339 -1.3477  0.9761
  456MOL0     H61549   4.896  10.850   8.472 -0.7644  1.0798  2.1565
  456MOL0     H61550   4.765  10.434   8.545  0.3948  0.2474 -0.8676
  456MOL0     H61551   4.617  10.523   8.501 -1.9435 -2.1304 -2.1646
  456MOL0     H61552   4.663  10.510   8.263  0.3182 -0.0581  0.9151
  456MOL0     H61553   4.645  10.350   8.330 -0.4241  0.0602  0.0773
  456MOL0     H61554   4.844  10.300   8.231 -3.1034  0.2050 -0.7655
  456MOL0     H61555   4.914  10.377   8.376  2.2635 -2.0549 -1.5693
  456MOL0     H61556   4.966  10.582   8.278  1.6410 -0.6293  0.9922
  456MOL0     H61557   4.859  10.543   8.133  1.4925 -1.6727 -1.4617
  456MOL0     H61558   5.244  10.364   8.091 -0.2711  1.9024 -2.3463
  456MOL0     H61559   4.525  10.661   8.396  1.0090 -0.4779 -0.6660
  456MOL0     H61560   4.419  10.853   8.320 -1.1446 -0.9007  4.3870
  457MOL0     O61561  10.107   5.185   0.395 -0.3885 -0.4260 -0.5872
  457MOL0     C61562  10.155   5.198   0.283  0.9279  1.2870 -1.1954
  457MOL0     O61563  10.157   5.102   0.191  0.5207 -0.2474  1.2819
  457MOL0     C61564  10.106   4.970   0.191 -0.3294 -0.4858 -0.3203
  457MOL0     C61565   9.997   4.923   0.267 -0.7066 -0.7090 -1.5897
  457MOL0     C61566   9.941   4.796   0.260 -0.5635 -0.2421  0.1684
  457MOL0     C61567  10.003   4.707   0.165  0.0149 -1.1876 -1.0473
  457MOL0     O61568   9.964   4.583   0.131 -0.1721  0.2063  0.3283
  457MOL0     C61569   9.852   4.530   0.185  0.1604 -0.6747  0.5376
  457MOL0     C61570   9.725   4.580   0.117 -0.0933 -0.0577 -0.5244
  457MOL0     C61571   9.612   4.554   0.217  0.5608  0.0987  0.6568
  457MOL0     C61572   9.593   4.405   0.252 -1.0111  0.2637  0.1578
  457MOL0     C61573   9.445   4.363   0.249  0.2305 -0.1602  0.4240
  457MOL0     C61574   9.343   4.438   0.344 -0.3837  0.4650  0.3461
  457MOL0     C61575   9.205   4.412   0.297 -0.0102  0.0431 -0.6199
  457MOL0     C61576   9.170   4.269   0.315  0.4524 -0.1515 -0.1056
  457MOL0     N61577   9.145   4.230   0.456  0.3592 -0.6319 -0.4174
  457MOL0     C61578   9.017   4.238   0.513 -0.2902  0.0391 -0.2606
  457MOL0     C61579   9.030   4.211   0.646 -1.1424 -0.1226 -0.5546
  457MOL0     C61580   8.914   4.230   0.742  0.5279  0.4083  0.3538
  457MOL0     C61581   8.855   4.095   0.781 -0.4936 -0.9531  0.4734
  457MOL0     C61582   8.760   4.107   0.906  0.5720 -0.2229  0.3358
  457MOL0     C61583   8.644   4.205   0.870  1.0583 -0.8679 -0.2301
  457MOL0     O61584   8.522   4.181   0.948 -0.1446 -0.3384  0.1622
  457MOL0     C61585   8.530   4.212   1.082  0.6356  0.8129  0.7024
  457MOL0     C61586   8.436   4.133   1.150 -0.5393 -0.5063  0.5763
  457MOL0     C61587   8.405   4.166   1.282  0.5349 -0.5018 -0.4786
  457MOL0     C61588   8.274   4.124   1.327  0.2528  0.2885 -1.1863
  457MOL0     C61589   8.495   4.246   1.356  0.1489  0.0741  0.0582
  457MOL0     C61590   8.478   4.288   1.504  0.5605 -0.5075 -0.5761
  457MOL0     O61591   8.557   4.383   1.564 -0.8197 -0.0189 -0.1406
  457MOL0     C61592   8.549   4.394   1.695 -0.7587  0.4359 -0.7411
  457MOL0     C61593   8.597   4.306   1.790 -0.9645  0.6380  0.7039
  457MOL0     C61594   8.570   4.320   1.926  0.0262  0.3612  0.6118
  457MOL0     C61595   8.498   4.432   1.973  0.9728  0.4316 -0.3603
  457MOL0     O61596   8.459   4.442   2.103 -0.5050  0.2503 -0.0636
  457MOL0     C61597   8.438   4.326   2.184  0.2462 -0.4035  0.8746
  457MOL0     C61598   8.360   4.361   2.308  0.0299 -0.8089 -0.0222
  457MOL0     C61599   8.424   4.461   2.406 -0.0007  0.4648 -0.8197
  457MOL0     C61600   8.563   4.416   2.473  0.3522 -0.0583  1.1487
  457MOL0     C61601   8.547   4.306   2.573  0.4406  0.4606  0.1802
  457MOL0     C61602   8.677   4.270   2.647 -0.2391 -0.5078 -0.4672
  457MOL0     C61603   8.683   4.124   2.681 -0.6499  0.1091 -0.5234
  457MOL0     C61604   8.733   4.036   2.572 -0.1765  0.0856 -0.0458
  457MOL0    Cl61605   8.769   3.875   2.643  0.5125  0.4246 -0.2067
  457MOL0     C61606   8.445   4.525   1.880  0.3166 -0.1299 -0.6988
  457MOL0     C61607   8.471   4.497   1.744  0.6700 -0.7538  0.4728
  457MOL0     O61608   8.399   4.214   1.567  0.5136 -0.3198  0.8824
  457MOL0     C61609   8.602   4.303   1.292 -1.1727 -0.5252 -0.3345
  457MOL0     C61610   8.613   4.298   1.154  0.5602 -0.4876 -0.5339
  457MOL0     N61611   9.170   4.182   0.660 -0.1420  0.9947 -0.1887
  457MOL0     N61612   9.232   4.188   0.547 -0.0490  0.4257 -0.3932
  457MOL0     C61613  10.124   4.746   0.099  0.0936 -0.0199  0.5213
  457MOL0     C61614  10.168   4.874   0.114 -1.3523 -0.3461  0.6365
  457MOL0     C61615  10.239   5.317   0.261 -0.7098  0.1091 -0.4814
  457MOL0     C61616  10.285   5.395   0.372 -0.1558 -0.5424  0.1470
  457MOL0     C61617  10.371   5.505   0.343 -0.0365  0.0444 -0.2932
  457MOL0     C61618  10.411   5.537   0.215  0.9376 -0.6485 -0.8391
  457MOL0     O61619  10.499   5.643   0.197  0.1678 -0.2326 -0.0422
  457MOL0     C61620  10.589   5.679   0.304  0.3543  0.3558 -0.2284
  457MOL0     C61621  10.673   5.561   0.346  0.6261  0.6769 -0.0422
  457MOL0     C61622  10.737   5.503   0.226 -0.3246  0.1083 -0.2162
  457MOL0     C61623  10.858   5.407   0.260 -0.7959 -0.1932 -0.1952
  457MOL0     C61624  10.828   5.288   0.338 -1.1376  0.8767 -0.6945
  457MOL0     C61625  10.828   5.186   0.413  0.6040  0.5873 -0.0674
  457MOL0     C61626  10.362   5.465   0.108 -0.7856 -0.3599 -0.1728
  457MOL0     C61627  10.274   5.354   0.128 -0.6940 -0.9877 -0.3338
  457MOL0     H61628   9.946   4.994   0.332  0.1502 -0.6153 -1.0007
  457MOL0     H61629   9.849   4.781   0.316 -1.0860 -2.3291 -1.1573
  457MOL0     H61630   9.861   4.421   0.183 -1.4220 -1.1244 -6.2592
  457MOL0     H61631   9.844   4.557   0.291  0.4926  1.6124  0.0371
  457MOL0     H61632   9.737   4.686   0.092 -0.1744  0.0857  0.0299
  457MOL0     H61633   9.721   4.522   0.024  0.6025 -3.3903  1.3687
  457MOL0     H61634   9.623   4.618   0.305  1.4670 -0.3885  0.9084
  457MOL0     H61635   9.527   4.603   0.168  0.8853  1.8154  1.6926
  457MOL0     H61636   9.647   4.348   0.177 -1.2516 -0.6193  0.6454
  457MOL0     H61637   9.638   4.373   0.346 -0.8126 -1.9996 -0.6559
  457MOL0     H61638   9.413   4.362   0.145 -1.3764 -2.3669  0.8701
  457MOL0     H61639   9.450   4.256   0.274 -0.8047 -0.4508 -0.5559
  457MOL0     H61640   9.351   4.404   0.448 -0.9644  2.9992  1.2956
  457MOL0     H61641   9.362   4.546   0.342 -1.7256  0.7027 -1.1505
  457MOL0     H61642   9.149   4.481   0.360 -1.3839 -1.2803 -0.3494
  457MOL0     H61643   9.187   4.431   0.191  2.1311 -0.4659 -1.1378
  457MOL0     H61644   9.247   4.201   0.276 -0.4754 -1.5562  0.4542
  457MOL0     H61645   9.081   4.265   0.252 -0.6108 -0.1899  1.3683
  457MOL0     H61646   8.929   4.266   0.456  0.8309  0.9758 -1.6200
  457MOL0     H61647   8.952   4.273   0.835  2.2112  0.0060 -0.1171
  457MOL0     H61648   8.837   4.290   0.691  0.6150 -2.2072 -3.2564
  457MOL0     H61649   8.932   4.018   0.793  0.4872 -1.1641 -4.8310
  457MOL0     H61650   8.792   4.066   0.696 -1.6244  3.8538 -0.6320
  457MOL0     H61651   8.823   4.133   0.991  1.5338 -0.2786 -0.3425
  457MOL0     H61652   8.710   4.011   0.924 -0.6336  0.4315  0.6092
  457MOL0     H61653   8.631   4.201   0.761 -1.3513 -1.4255  0.0099
  457MOL0     H61654   8.667   4.307   0.903 -4.9001  1.2369 -1.3591
  457MOL0     H61655   8.364   4.066   1.104 -0.2201 -1.1096  0.9520
  457MOL0     H61656   8.207   4.209   1.345  0.7049  1.0347 -2.8701
  457MOL0     H61657   8.224   4.071   1.245  0.4547  3.2532 -3.3633
  457MOL0     H61658   8.287   4.063   1.417 -1.2472  0.3330 -0.9146
  457MOL0     H61659   8.650   4.216   1.760  2.9725  3.1940 -0.8101
  457MOL0     H61660   8.605   4.249   2.000  1.4119 -0.7581 -1.0523
  457MOL0     H61661   8.395   4.244   2.126  1.3581 -0.1547 -0.3518
  457MOL0     H61662   8.537   4.290   2.214  1.3053  0.5344 -1.2824
  457MOL0     H61663   8.274   4.405   2.258  0.4971  0.8026  0.5539
  457MOL0     H61664   8.332   4.270   2.363  0.2109  0.3270  2.0521
  457MOL0     H61665   8.358   4.492   2.487  1.0752 -1.1236  0.7325
  457MOL0     H61666   8.444   4.557   2.358 -5.2095  1.1596 -2.1170
  457MOL0     H61667   8.635   4.379   2.400  1.9129  2.0779  1.5005
  457MOL0     H61668   8.601   4.507   2.520 -0.8549  1.0702  0.0293
  457MOL0     H61669   8.516   4.212   2.526 -0.7457  2.4180 -3.3400
  457MOL0     H61670   8.466   4.334   2.641 -0.0425 -1.3497  0.4013
  457MOL0     H61671   8.762   4.298   2.585  0.2461  1.0562  0.8468
  457MOL0     H61672   8.687   4.324   2.742  0.8091 -1.4812  0.0135
  457MOL0     H61673   8.587   4.083   2.711 -1.9089  0.9637 -3.1106
  457MOL0     H61674   8.762   4.126   2.757 -3.5173  4.9334  2.9060
  457MOL0     H61675   8.832   4.067   2.536 -0.6808 -0.5538 -2.1202
  457MOL0     H61676   8.662   4.033   2.489  0.4343  1.2987 -0.6306
  457MOL0     H61677   8.376   4.606   1.900  2.1560  0.7104  3.0865
  457MOL0     H61678   8.438   4.568   1.669  1.0793  0.5569  1.5009
  457MOL0     H61679   8.665   4.372   1.346 -2.0542  0.7013 -0.8293
  457MOL0     H61680   8.692   4.354   1.105  1.5929 -0.3264  1.2320
  457MOL0     H61681  10.168   4.669   0.036 -0.3078 -0.2233  0.4795
  457MOL0     H61682  10.251   4.920   0.062 -1.6930 -0.2203  0.1989
  457MOL0     H61683  10.256   5.367   0.473 -0.3419 -0.8034  0.0228
  457MOL0     H61684  10.399   5.565   0.429 -0.8964 -1.0229  0.7695
  457MOL0     H61685  10.660   5.759   0.278 -0.2999  1.6104  1.6181
  457MOL0     H61686  10.530   5.715   0.389 -2.2663 -1.8533 -0.9788
  457MOL0     H61687  10.633   5.479   0.406  1.3460  0.1264 -0.2951
  457MOL0     H61688  10.754   5.600   0.409 -0.4717 -1.7762  3.1895
  457MOL0     H61689  10.774   5.583   0.161  2.6420 -2.1486 -1.5889
  457MOL0     H61690  10.655   5.444   0.185 -1.8851  1.4141  0.9129
  457MOL0     H61691  10.934   5.466   0.312 -2.7138  1.2022  1.2054
  457MOL0     H61692  10.897   5.381   0.161  2.0155 -0.7576  0.9618
  457MOL0     H61693  10.826   5.100   0.476 -1.9695  1.8517  1.7023
  457MOL0     H61694  10.394   5.488   0.007 -2.0514  2.0586 -0.0986
  457MOL0     H61695  10.238   5.292   0.046 -1.1761  2.2064 -2.7253
  458MOL0     O61696   5.338  11.398   9.455 -0.8668  0.0269  0.7918
  458MOL0     C61697   5.351  11.292   9.399  0.2222  0.4203  0.2207
  458MOL0     O61698   5.269  11.189   9.410  0.2742  0.7554 -0.6284
  458MOL0     C61699   5.139  11.190   9.471  0.3639  0.2497 -0.2589
  458MOL0     C61700   5.067  11.292   9.537  0.0112  0.6800 -0.7518
  458MOL0     C61701   4.952  11.262   9.608  0.2947  0.5036 -0.1767
  458MOL0     C61702   4.898  11.132   9.608  0.0483  0.5675 -0.7775
  458MOL0     O61703   4.780  11.122   9.677 -0.7117 -0.5996  0.6609
  458MOL0     C61704   4.708  10.995   9.691  0.4863 -0.9073 -0.3244
  458MOL0     C61705   4.573  11.037   9.754 -0.5432 -1.4040  0.2032
  458MOL0     C61706   4.512  11.165   9.680 -0.2449  1.0701  0.0103
  458MOL0     C61707   4.384  11.208   9.751 -0.3129 -0.0522  0.5740
  458MOL0     C61708   4.265  11.111   9.775 -0.2064 -0.3742 -0.0665
  458MOL0     C61709   4.206  11.048   9.645 -0.0048 -0.1996 -0.5452
  458MOL0     C61710   4.087  10.957   9.686  0.3713  0.2402  0.0196
  458MOL0     C61711   4.116  10.840   9.783 -0.0352  0.5180 -0.0788
  458MOL0     N61712   4.225  10.750   9.735 -0.2324  0.2748 -1.5011
  458MOL0     C61713   4.232  10.690   9.614  0.5934  0.0036 -0.5045
  458MOL0     C61714   4.350  10.628   9.612  0.4166 -0.2205  0.1345
  458MOL0     C61715   4.406  10.533   9.505 -0.7809  0.4301  0.8902
  458MOL0     C61716   4.502  10.604   9.412 -0.0778  0.0252 -0.1944
  458MOL0     C61717   4.433  10.701   9.315  1.1625 -0.1158  0.7947
  458MOL0     C61718   4.518  10.741   9.195 -0.1086  0.1873 -0.4471
  458MOL0     O61719   4.628  10.833   9.241 -0.3342 -0.2175 -0.8370
  458MOL0     C61720   4.717  10.890   9.149  1.1649  0.5978  0.0696
  458MOL0     C61721   4.747  10.848   9.020  0.0463 -0.0878 -0.9141
  458MOL0     C61722   4.839  10.918   8.939 -0.4205  0.0802  0.4551
  458MOL0     C61723   4.866  10.848   8.808 -0.4690  0.5936  0.0329
  458MOL0     C61724   4.906  11.035   8.988  0.4482 -0.2105  0.1618
  458MOL0     C61725   5.010  11.106   8.912 -0.0062  1.0608 -0.2987
  458MOL0     O61726   5.050  11.237   8.952  0.9444 -0.2486  0.2070
  458MOL0     C61727   5.174  11.288   8.915 -0.5033 -0.6243  0.5899
  458MOL0     C61728   5.191  11.386   8.808  1.8807  0.0055 -0.5077
  458MOL0     C61729   5.330  11.434   8.792  0.3846  0.2347 -0.1919
  458MOL0     C61730   5.445  11.375   8.850  0.1099 -0.2014  0.0211
  458MOL0     O61731   5.570  11.422   8.811  0.3804 -0.6475 -0.6168
  458MOL0     C61732   5.685  11.364   8.871  0.0131  0.1439 -0.2815
  458MOL0     C61733   5.803  11.433   8.820 -0.3878 -0.7422  1.1871
  458MOL0     C61734   5.843  11.406   8.671 -0.0849  0.2442  0.1060
  458MOL0     C61735   5.888  11.263   8.636  0.2681  0.7683  0.9100
  458MOL0     C61736   5.918  11.247   8.479 -1.1143 -0.3404  0.0415
  458MOL0     C61737   5.929  11.098   8.453 -0.4978 -0.5405  0.5534
  458MOL0     C61738   5.947  11.078   8.296  0.0482  0.7269 -0.0846
  458MOL0     C61739   6.011  10.942   8.247 -0.4508 -0.0647  0.3735
  458MOL0    Cl61740   6.186  10.964   8.297 -0.1692  0.7552  0.1784
  458MOL0     C61741   5.424  11.270   8.948 -0.4634  0.2350  0.8238
  458MOL0     C61742   5.291  11.231   8.983  0.3476  0.3985  0.4231
  458MOL0     O61743   5.081  11.038   8.833  0.8919 -0.6974  0.0881
  458MOL0     C61744   4.869  11.078   9.117  0.2085  0.0786 -0.2973
  458MOL0     C61745   4.777  11.002   9.193 -0.7921 -0.2336 -0.8897
  458MOL0     N61746   4.423  10.681   9.714  0.0349  0.4326 -0.2887
  458MOL0     N61747   4.343  10.740   9.798 -0.3316  0.4152 -0.1690
  458MOL0     C61748   4.969  11.021   9.555 -0.4969 -1.4098  0.3943
  458MOL0     C61749   5.088  11.058   9.485 -0.1777 -0.5600  0.0819
  458MOL0     C61750   5.487  11.262   9.341  0.9325 -0.6941 -0.7009
  458MOL0     C61751   5.497  11.138   9.285 -0.3955  0.0732  0.6431
  458MOL0     C61752   5.626  11.092   9.254 -0.2165  0.6129 -0.2980
  458MOL0     C61753   5.740  11.176   9.279 -0.8005  0.6302  0.0960
  458MOL0     O61754   5.865  11.139   9.232 -0.6081  0.4240 -0.6513
  458MOL0     C61755   5.875  11.035   9.134  0.4210  0.1596 -1.0912
  458MOL0     C61756   6.018  11.030   9.080 -0.6200  0.2901 -1.0751
  458MOL0     C61757   6.050  11.147   8.983  0.4565 -0.1827  0.4807
  458MOL0     C61758   6.194  11.149   8.929 -0.2120  0.2526 -0.0790
  458MOL0     C61759   6.222  11.073   8.805 -0.1386  0.0202  0.0326
  458MOL0     C61760   6.255  11.019   8.705 -0.5839 -0.0132  0.3497
  458MOL0     C61761   5.725  11.305   9.333  0.9917  0.0487 -0.3015
  458MOL0     C61762   5.594  11.348   9.356  0.6661 -0.7416 -0.9320
  458MOL0     H61763   5.109  11.392   9.533  2.2920 -0.2317 -3.0580
  458MOL0     H61764   4.898  11.340   9.661  0.5656 -0.5293  1.7283
  458MOL0     H61765   4.700  10.951   9.591  1.8882 -1.4632 -0.2135
  458MOL0     H61766   4.756  10.921   9.755  0.7272 -1.2830 -0.9286
  458MOL0     H61767   4.506  10.952   9.738  0.5671 -2.0465 -1.2669
  458MOL0     H61768   4.594  11.061   9.859  0.5019 -0.4938 -0.1934
  458MOL0     H61769   4.578  11.252   9.692  0.7536  0.5110 -1.1985
  458MOL0     H61770   4.495  11.147   9.573 -0.5757 -2.8521  0.5831
  458MOL0     H61771   4.415  11.262   9.841  2.8290  1.5152 -1.2801
  458MOL0     H61772   4.340  11.286   9.687  2.2519  0.2369 -0.9745
  458MOL0     H61773   4.299  11.026   9.835  3.2368  0.4268 -0.7003
  458MOL0     H61774   4.197  11.180   9.826  1.0090 -1.7962  3.8558
  458MOL0     H61775   4.165  11.128   9.583  0.9207  3.4400  3.0697
  458MOL0     H61776   4.294  11.000   9.601  0.7345  0.5372  0.0861
  458MOL0     H61777   4.012  11.024   9.728  0.8023  1.1007 -0.5721
  458MOL0     H61778   4.047  10.899   9.602 -0.1979 -1.4947  1.4160
  458MOL0     H61779   4.024  10.783   9.800  0.2685  0.9815  4.4849
  458MOL0     H61780   4.149  10.875   9.881  1.3682 -1.5157  0.2498
  458MOL0     H61781   4.155  10.675   9.540 -0.7463 -1.1476  1.0377
  458MOL0     H61782   4.460  10.459   9.566  0.8202  0.1116 -0.8276
  458MOL0     H61783   4.323  10.496   9.445  0.2174 -0.0082 -0.2608
  458MOL0     H61784   4.546  10.515   9.365 -1.0164 -0.4588 -0.1857
  458MOL0     H61785   4.580  10.664   9.457 -0.2833 -0.9146  1.4862
  458MOL0     H61786   4.414  10.797   9.364  2.3198  1.6766 -2.0034
  458MOL0     H61787   4.345  10.648   9.277  1.2313 -0.5374  1.2121
  458MOL0     H61788   4.453  10.801   9.130  1.2427  0.1909 -1.8266
  458MOL0     H61789   4.554  10.654   9.140  0.6000 -0.4593  0.9966
  458MOL0     H61790   4.699  10.758   8.983  4.1309 -3.6458  1.4812
  458MOL0     H61791   4.780  10.788   8.777 -0.9817  0.2334  1.9711
  458MOL0     H61792   4.900  10.911   8.726  1.5605 -1.6076 -0.9180
  458MOL0     H61793   4.947  10.775   8.822  2.2251  1.8145 -6.1252
  458MOL0     H61794   5.102  11.413   8.753  0.3858 -0.1205  1.7044
  458MOL0     H61795   5.346  11.516   8.723  0.3062 -0.1082 -0.6241
  458MOL0     H61796   5.679  11.364   8.980 -1.3326  1.5140 -0.3266
  458MOL0     H61797   5.700  11.257   8.848 -1.3637 -0.0097 -0.5138
  458MOL0     H61798   5.790  11.541   8.816  1.4660 -0.5099 -1.8120
  458MOL0     H61799   5.893  11.415   8.880 -0.2660  0.2239  1.3132
  458MOL0     H61800   5.925  11.475   8.650  0.0590  0.3928  1.0825
  458MOL0     H61801   5.753  11.432   8.615 -2.9829 -2.2313  3.1618
  458MOL0     H61802   5.978  11.233   8.689  0.1158 -1.9719 -0.1778
  458MOL0     H61803   5.812  11.188   8.662 -1.3807  0.2880 -4.1380
  458MOL0     H61804   6.008  11.300   8.445 -1.6230  0.3525 -0.2320
  458MOL0     H61805   5.841  11.289   8.414 -0.0449  1.3552 -0.1789
  458MOL0     H61806   6.009  11.044   8.506  0.3328  0.6057  0.4980
  458MOL0     H61807   5.838  11.051   8.492 -0.3884  0.4303  2.0790
  458MOL0     H61808   5.998  11.164   8.251 -2.3303  1.1346 -2.2411
  458MOL0     H61809   5.849  11.081   8.247  0.4446 -0.9099 -1.0534
  458MOL0     H61810   6.010  10.939   8.138 -2.9151  0.3006  0.3388
  458MOL0     H61811   5.967  10.865   8.310  0.4772 -0.1746  0.9154
  458MOL0     H61812   5.506  11.220   9.000  0.4058  0.4099 -0.3504
  458MOL0     H61813   5.276  11.164   9.067  1.7196 -1.2139 -0.5636
  458MOL0     H61814   4.907  11.166   9.169 -2.3109  0.9957  0.1406
  458MOL0     H61815   4.743  11.029   9.292 -1.6044 -0.2840 -1.1454
  458MOL0     H61816   4.949  10.916   9.572 -1.4628 -0.9107  2.6488
  458MOL0     H61817   5.154  10.983   9.444  2.0991  0.5211  1.5886
  458MOL0     H61818   5.407  11.079   9.266  0.3664 -1.0840  0.5000
  458MOL0     H61819   5.638  10.996   9.204  1.0754  1.6380 -2.0625
  458MOL0     H61820   5.847  10.933   9.165  2.7037  0.2404  1.6012
  458MOL0     H61821   5.814  11.066   9.049  0.2205  2.1978 -0.2406
  458MOL0     H61822   6.018  10.939   9.020 -0.1238 -1.1072  0.9377
  458MOL0     H61823   6.101  11.022   9.152  0.5408  2.1160 -2.1279
  458MOL0     H61824   6.023  11.241   9.033 -1.6886 -1.0195  0.9799
  458MOL0     H61825   5.983  11.148   8.897  2.1932  3.4264 -1.0416
  458MOL0     H61826   6.271  11.129   9.005 -0.8941 -2.5633 -0.0273
  458MOL0     H61827   6.215  11.253   8.902  1.3434  0.7085  2.5306
  458MOL0     H61828   6.279  10.978   8.608 -1.2412 -2.6866  1.2327
  458MOL0     H61829   5.808  11.372   9.351  0.0365  0.3942  3.8006
  458MOL0     H61830   5.556  11.446   9.384 -1.6576 -1.8730  0.1642
  459MOL0     O61831   9.190   3.409   1.674  0.3764 -0.0707  0.3485
  459MOL0     C61832   9.307   3.415   1.691  0.3873  0.4553 -0.5544
  459MOL0     O61833   9.410   3.405   1.596 -0.6698 -0.4045 -0.3595
  459MOL0     C61834   9.387   3.410   1.457  0.2072 -0.8505 -0.5872
  459MOL0     C61835   9.262   3.435   1.390 -0.5269 -0.0581 -0.2347
  459MOL0     C61836   9.263   3.446   1.247  0.3306  0.0338  0.5931
  459MOL0     C61837   9.373   3.447   1.175 -0.0880  0.0468 -0.4998
  459MOL0     O61838   9.358   3.430   1.042 -0.2353 -0.0692 -0.3038
  459MOL0     C61839   9.341   3.286   1.012 -0.3062 -0.4137  0.5147
  459MOL0     C61840   9.309   3.269   0.864  0.0254 -0.2096  0.1094
  459MOL0     C61841   9.429   3.299   0.774 -0.5687 -0.8258 -0.4027
  459MOL0     C61842   9.560   3.213   0.795 -0.0052 -0.4900 -0.0148
  459MOL0     C61843   9.667   3.319   0.766  0.2911 -0.4535  0.0112
  459MOL0     C61844   9.803   3.245   0.746  1.0325 -0.2295  0.0419
  459MOL0     C61845   9.927   3.330   0.700 -0.2644 -0.4161  0.0130
  459MOL0     C61846   9.916   3.371   0.554  0.1039  0.7273 -0.1466
  459MOL0     N61847  10.029   3.453   0.504 -0.9459  0.3483 -0.1514
  459MOL0     C61848  10.073   3.565   0.568 -0.4398  0.4249  0.5352
  459MOL0     C61849  10.177   3.612   0.489  0.1499 -0.6940 -0.5200
  459MOL0     C61850  10.270   3.726   0.521 -0.0273  0.0962 -0.2904
  459MOL0     C61851  10.291   3.842   0.428  0.0266  0.5472 -0.5654
  459MOL0     C61852  10.344   3.978   0.482  0.6945  0.5884 -0.0772
  459MOL0     C61853  10.479   3.972   0.554  0.1632 -1.1852  0.6704
  459MOL0     O61854  10.451   3.951   0.690 -0.2883  0.2527  0.1919
  459MOL0     C61855  10.554   3.895   0.758 -0.7916 -0.7293 -1.0643
  459MOL0     C61856  10.522   3.767   0.817 -0.6612 -0.2805 -0.2901
  459MOL0     C61857  10.627   3.694   0.883  0.4383  0.4802 -0.6013
  459MOL0     C61858  10.585   3.566   0.940 -0.1313  0.6189 -0.1678
  459MOL0     C61859  10.757   3.748   0.901 -0.1059  0.5900  0.0708
  459MOL0     C61860  10.876   3.684   0.971  0.0743  0.2505 -0.4591
  459MOL0     O61861  10.979   3.756   1.018  0.4319 -0.1379 -0.0310
  459MOL0     C61862  11.084   3.702   1.089 -0.6332 -0.0771  0.1616
  459MOL0     C61863  11.129   3.739   1.210 -0.5075 -0.2971 -0.7157
  459MOL0     C61864  11.245   3.691   1.278  0.3298  0.0405 -0.1871
  459MOL0     C61865  11.333   3.602   1.209  0.8343 -0.5494  0.4942
  459MOL0     O61866  11.443   3.545   1.248  0.1188  0.4375 -0.5104
  459MOL0     C61867  11.479   3.575   1.390  0.5343  0.4512  0.4836
  459MOL0     C61868  11.613   3.506   1.432  0.0395 -0.8843  0.1710
  459MOL0     C61869  11.630   3.526   1.584  0.4928  0.6643 -0.4276
  459MOL0     C61870  11.750   3.457   1.642  0.2354  0.1068 -0.2723
  459MOL0     C61871  11.764   3.450   1.790 -0.4217  0.0587 -0.9248
  459MOL0     C61872  11.734   3.587   1.855  0.7004 -0.3643  0.4057
  459MOL0     C61873  11.771   3.565   2.001 -0.4469  0.0876 -0.0831
  459MOL0     C61874  11.721   3.688   2.089  0.1595 -0.1899  0.0764
  459MOL0    Cl61875  11.533   3.712   2.089  0.1935 -0.3060 -0.3443
  459MOL0     C61876  11.287   3.556   1.083  0.7573  0.2343 -0.4437
  459MOL0     C61877  11.168   3.612   1.024  0.1405  0.7392 -0.2060
  459MOL0     O61878  10.865   3.567   0.987 -0.4440  0.2191  0.5927
  459MOL0     C61879  10.776   3.876   0.847 -0.6798 -0.4488  0.3449
  459MOL0     C61880  10.681   3.942   0.773  0.5885  0.5966  1.2071
  459MOL0     N61881  10.192   3.525   0.383 -0.1494  0.7742 -0.2445
  459MOL0     N61882  10.099   3.434   0.386 -0.0641  0.2676 -0.1887
  459MOL0     C61883   9.497   3.406   1.241 -0.0121 -0.2975  0.3323
  459MOL0     C61884   9.498   3.398   1.378 -0.7291 -0.8166  0.6423
  459MOL0     C61885   9.339   3.468   1.825  0.0489 -0.0839  0.6138
  459MOL0     C61886   9.240   3.537   1.905 -0.7191 -0.3622 -0.2434
  459MOL0     C61887   9.271   3.568   2.042 -0.0159  0.5343  0.4358
  459MOL0     C61888   9.392   3.541   2.094 -0.4045 -0.4103  0.2873
  459MOL0     O61889   9.426   3.630   2.199 -0.8256  1.0215 -0.3872
  459MOL0     C61890   9.525   3.724   2.179  0.9778  0.2282 -0.5036
  459MOL0     C61891   9.498   3.845   2.271  0.4242  0.0616  0.3793
  459MOL0     C61892   9.383   3.931   2.219  0.2509  1.0121 -0.2705
  459MOL0     C61893   9.432   4.036   2.116 -0.6322 -0.2297 -1.1348
  459MOL0     C61894   9.443   3.990   1.982  0.4812  0.9230  0.5790
  459MOL0     C61895   9.492   3.970   1.875  0.2246  0.8028 -0.5358
  459MOL0     C61896   9.493   3.486   2.009 -0.1187 -0.7904 -0.5200
  459MOL0     C61897   9.467   3.447   1.877 -0.3096  0.3730  0.0903
  459MOL0     H61898   9.175   3.452   1.453  0.3329 -3.2510  2.0795
  459MOL0     H61899   9.174   3.453   1.185  1.4391  1.0524 -0.9788
  459MOL0     H61900   9.436   3.241   1.044  0.7162  0.4253 -1.1824
  459MOL0     H61901   9.253   3.256   1.070 -1.9570  0.7971 -1.2288
  459MOL0     H61902   9.288   3.163   0.845  3.1893 -0.9118  0.0089
  459MOL0     H61903   9.222   3.325   0.827 -1.2340 -1.6449  0.7480
  459MOL0     H61904   9.399   3.279   0.670 -1.5461  0.8600 -0.4793
  459MOL0     H61905   9.448   3.406   0.778 -1.7565 -0.6212  0.1408
  459MOL0     H61906   9.578   3.184   0.899  0.0625  1.5278  0.5747
  459MOL0     H61907   9.574   3.130   0.725 -0.4318  1.9173 -3.1665
  459MOL0     H61908   9.637   3.380   0.680 -2.0661  0.1166  1.1322
  459MOL0     H61909   9.672   3.383   0.855 -0.4873  0.4031 -0.5458
  459MOL0     H61910   9.833   3.207   0.844  1.6775  2.0082  0.7807
  459MOL0     H61911   9.777   3.161   0.682 -1.1094 -0.5208  1.2032
  459MOL0     H61912   9.950   3.418   0.760 -2.2188 -0.8604  1.5046
  459MOL0     H61913  10.010   3.259   0.715 -0.4670 -0.0562  3.6995
  459MOL0     H61914   9.818   3.417   0.538 -0.5163 -0.3793  0.3988
  459MOL0     H61915   9.935   3.284   0.491 -1.6339  0.4782 -0.3775
  459MOL0     H61916  10.037   3.612   0.659 -0.2814 -0.5062  1.0866
  459MOL0     H61917  10.228   3.761   0.616  2.4086  1.3027  0.4154
  459MOL0     H61918  10.369   3.684   0.542 -1.2223 -2.7571  0.1358
  459MOL0     H61919  10.196   3.851   0.375  0.8636  0.0704 -2.2208
  459MOL0     H61920  10.365   3.812   0.354  4.5579  0.1032  3.6161
  459MOL0     H61921  10.273   4.019   0.554  0.4190  0.9604 -0.5592
  459MOL0     H61922  10.344   4.053   0.403 -0.3194  0.8173  0.1269
  459MOL0     H61923  10.528   4.070   0.556 -3.5579  1.0606 -2.5374
  459MOL0     H61924  10.525   3.889   0.500 -2.3209 -2.2727  0.1190
  459MOL0     H61925  10.424   3.720   0.822 -0.9310  0.3462  3.8887
  459MOL0     H61926  10.593   3.567   1.049  1.4267 -1.1203 -0.2191
  459MOL0     H61927  10.478   3.546   0.928 -0.0754  0.1918  0.0441
  459MOL0     H61928  10.641   3.482   0.898  1.1084  0.6314  1.4154
  459MOL0     H61929  11.070   3.804   1.272 -2.3391 -4.5295  2.4807
  459MOL0     H61930  11.240   3.723   1.381 -0.6065  0.5356 -0.3774
  459MOL0     H61931  11.478   3.683   1.406 -1.7397  0.4723  0.5677
  459MOL0     H61932  11.397   3.534   1.450 -0.5951  1.1478 -0.5374
  459MOL0     H61933  11.611   3.401   1.402 -1.8048 -0.2634 -2.1472
  459MOL0     H61934  11.701   3.549   1.383 -0.2351 -0.5221  0.0024
  459MOL0     H61935  11.546   3.479   1.637  0.8236  0.3381 -0.1881
  459MOL0     H61936  11.622   3.634   1.595 -2.3651  0.7292 -2.2023
  459MOL0     H61937  11.761   3.357   1.599 -1.9339  1.0796 -3.4053
  459MOL0     H61938  11.839   3.509   1.605  2.1515 -3.1412 -0.5705
  459MOL0     H61939  11.869   3.425   1.811 -0.5959  0.2797  0.2938
  459MOL0     H61940  11.699   3.378   1.840 -0.5345  2.0711  2.0990
  459MOL0     H61941  11.796   3.664   1.810 -1.2964  3.0214  2.9816
  459MOL0     H61942  11.632   3.621   1.831  1.5233  2.1683  0.2162
  459MOL0     H61943  11.879   3.558   2.016 -0.3398  0.6951 -0.5315
  459MOL0     H61944  11.740   3.470   2.045 -2.5208  1.2636  1.1594
  459MOL0     H61945  11.773   3.775   2.047  2.8114 -1.3802  0.7054
  459MOL0     H61946  11.759   3.670   2.190  1.7012  1.7590 -0.0723
  459MOL0     H61947  11.356   3.500   1.021  1.1631 -0.2564  0.4416
  459MOL0     H61948  11.149   3.589   0.919  2.2861  1.7074 -0.8689
  459MOL0     H61949  10.872   3.923   0.866  0.2746 -1.4314 -1.6855
  459MOL0     H61950  10.688   4.045   0.741 -1.4987  0.3235 -0.4076
  459MOL0     H61951   9.591   3.387   1.190 -1.7422 -1.7833 -2.5670
  459MOL0     H61952   9.597   3.395   1.423 -1.0842  0.8072  1.6151
  459MOL0     H61953   9.135   3.553   1.885 -0.7179 -0.8805 -0.6890
  459MOL0     H61954   9.196   3.619   2.101 -1.1750 -1.2256  0.5534
  459MOL0     H61955   9.625   3.682   2.192  1.4256  1.1752 -0.8053
  459MOL0     H61956   9.505   3.769   2.081 -0.4150  0.1156 -0.2962
  459MOL0     H61957   9.588   3.905   2.286  2.2688 -2.3989 -0.3375
  459MOL0     H61958   9.475   3.818   2.374  0.9186 -0.0084  0.4738
  459MOL0     H61959   9.328   3.971   2.305  1.7568 -0.7399  1.6105
  459MOL0     H61960   9.302   3.870   2.178  1.6294 -0.2022 -1.2611
  459MOL0     H61961   9.528   4.077   2.149 -0.0147 -3.8496  2.4236
  459MOL0     H61962   9.355   4.114   2.115 -1.9307 -1.4544 -0.6847
  459MOL0     H61963   9.537   3.954   1.779 -0.4059 -2.0584 -0.4551
  459MOL0     H61964   9.594   3.473   2.049 -0.4815 -0.0908  0.6909
  459MOL0     H61965   9.536   3.381   1.824 -0.3319  1.2063 -1.0206
  460MOL0     O61966   2.295   6.891   9.521 -0.3973  0.3480  0.4439
  460MOL0     C61967   2.346   7.002   9.496  0.6642 -0.0726  1.0996
  460MOL0     O61968   2.365   7.104   9.590  0.0732 -0.1035 -0.1242
  460MOL0     C61969   2.329   7.064   9.724  0.3390  0.1747  0.3404
  460MOL0     C61970   2.240   7.148   9.790 -1.0771 -0.8367 -0.4912
  460MOL0     C61971   2.203   7.124   9.929  0.5845 -0.1360  0.0055
  460MOL0     C61972   2.243   7.002   9.995 -0.3725 -0.1944  0.2505
  460MOL0     O61973   2.214   6.975  10.132 -0.1677  0.3422  0.2057
  460MOL0     C61974   2.152   7.068  10.219 -0.9292  0.0318 -0.3631
  460MOL0     C61975   2.179   7.062  10.372 -0.1537 -0.9217 -1.1152
  460MOL0     C61976   2.300   7.139  10.427 -0.0469  0.0743 -0.7283
  460MOL0     C61977   2.432   7.086  10.379  0.0319 -0.1819 -0.3607
  460MOL0     C61978   2.458   6.943  10.414 -0.4111 -0.5378 -0.4764
  460MOL0     C61979   2.600   6.928  10.459 -0.1066  0.8076  0.6728
  460MOL0     C61980   2.705   6.953  10.336 -0.7049 -0.1442 -0.1098
  460MOL0     C61981   2.855   6.939  10.362  0.1278 -0.3825 -0.5072
  460MOL0     N61982   2.887   6.805  10.390 -0.2845  0.1260  0.4009
  460MOL0     C61983   2.874   6.754  10.519  0.7059  0.5801  0.0644
  460MOL0     C61984   2.857   6.619  10.507  0.3895  0.4821  0.6861
  460MOL0     C61985   2.838   6.509  10.613 -0.3734  0.0335 -0.1690
  460MOL0     C61986   2.866   6.373  10.559  0.6554  0.3235  0.6301
  460MOL0     C61987   2.837   6.269  10.673  0.4864  0.1360  0.3385
  460MOL0     C61988   2.909   6.140  10.645  0.6919  0.4863  0.2530
  460MOL0     O61989   2.931   6.099  10.504 -0.8497  1.1435 -0.1598
  460MOL0     C61990   2.834   6.047  10.421 -0.1531 -0.0319 -0.5845
  460MOL0     C61991   2.881   6.030  10.294  0.7546 -0.0308  0.3876
  460MOL0     C61992   2.800   6.004  10.187 -0.1813 -0.7140  0.9520
  460MOL0     C61993   2.862   5.992  10.052  0.1422 -0.7337 -0.6676
  460MOL0     C61994   2.664   5.982  10.206  0.4780 -0.0348 -0.2769
  460MOL0     C61995   2.569   5.957  10.099 -0.1729  0.0779  0.0623
  460MOL0     O61996   2.604   5.865  10.007 -0.6208 -0.0525  0.6533
  460MOL0     C61997   2.527   5.808   9.917  0.7421  0.7180 -0.5426
  460MOL0     C61998   2.589   5.731   9.820 -0.3922 -0.2977  0.0085
  460MOL0     C61999   2.515   5.666   9.713 -0.0362 -0.2928  0.0475
  460MOL0     C62000   2.371   5.670   9.713  0.3282 -0.6003  0.3946
  460MOL0     O62001   2.282   5.612   9.625 -0.6978 -0.3296  0.2385
  460MOL0     C62002   2.303   5.468   9.609  0.1578 -0.2145  0.0029
  460MOL0     C62003   2.217   5.418   9.484 -1.0707  0.0722 -0.5577
  460MOL0     C62004   2.061   5.408   9.523 -0.1201  0.1588 -0.9061
  460MOL0     C62005   1.999   5.327   9.410  0.3068 -0.2736 -0.3745
  460MOL0     C62006   1.853   5.303   9.441  0.1938 -0.5024 -0.0017
  460MOL0     C62007   1.791   5.210   9.344  0.2477 -0.2779  0.5384
  460MOL0     C62008   1.636   5.201   9.354 -0.0686  0.3969  0.8137
  460MOL0     C62009   1.575   5.104   9.238 -0.4520  0.0421  0.1922
  460MOL0    Cl62010   1.637   4.934   9.245 -0.2555  0.4071 -0.0962
  460MOL0     C62011   2.309   5.754   9.808 -0.5046  0.0345  1.1004
  460MOL0     C62012   2.386   5.824   9.905  1.1774  0.4305 -0.7750
  460MOL0     O62013   2.458   6.010  10.117 -1.1742  0.2413 -0.6600
  460MOL0     C62014   2.616   5.989  10.338  1.1570 -0.9255 -0.2484
  460MOL0     C62015   2.700   6.014  10.443  0.3679 -0.2162 -0.1963
  460MOL0     N62016   2.866   6.594  10.374 -0.3429  0.0219 -0.8736
  460MOL0     N62017   2.884   6.698  10.307 -0.0796  0.0467  0.6152
  460MOL0     C62018   2.327   6.912   9.928 -0.1146 -1.3858 -1.1098
  460MOL0     C62019   2.361   6.938   9.793  0.0304  0.2696 -0.7641
  460MOL0     C62020   2.405   7.008   9.363 -1.1795  0.9887 -0.2663
  460MOL0     C62021   2.530   7.077   9.351 -0.2329 -0.1681  0.1005
  460MOL0     C62022   2.580   7.090   9.227 -0.1514 -0.5155  1.3073
  460MOL0     C62023   2.531   7.029   9.108  0.6320 -0.1137 -0.0903
  460MOL0     O62024   2.576   7.045   8.975  0.0247 -0.0885 -1.3971
  460MOL0     C62025   2.696   7.111   8.938  0.0535 -0.7443 -0.4638
  460MOL0     C62026   2.696   7.262   8.929 -0.2294  0.2666 -0.2055
  460MOL0     C62027   2.609   7.302   8.811 -0.7550 -0.4550 -0.1063
  460MOL0     C62028   2.626   7.230   8.669 -0.1168 -0.4094  0.9376
  460MOL0     C62029   2.752   7.258   8.611  0.4155  0.8673  0.2672
  460MOL0     C62030   2.854   7.274   8.551  0.5104  0.4347  0.6599
  460MOL0     C62031   2.418   6.942   9.124  0.2524 -0.3220 -1.1632
  460MOL0     C62032   2.352   6.933   9.254  0.2957 -0.1915  0.3351
  460MOL0     H62033   2.215   7.242   9.742  3.8568  0.1686 -1.6007
  460MOL0     H62034   2.144   7.203   9.975 -1.6392 -1.8401  0.2163
  460MOL0     H62035   2.170   7.170  10.184  1.6956 -0.3662 -0.3542
  460MOL0     H62036   2.044   7.048  10.224 -0.6666 -1.3605  0.3157
  460MOL0     H62037   2.092   7.097  10.427  0.1686 -3.6146  1.3441
  460MOL0     H62038   2.172   6.957  10.402 -1.8688 -1.2414 -2.5057
  460MOL0     H62039   2.302   7.244  10.398  1.5130  0.1630 -0.4317
  460MOL0     H62040   2.299   7.134  10.536  0.8598 -1.0643 -0.7443
  460MOL0     H62041   2.452   7.109  10.274  3.3995 -1.9800 -0.2658
  460MOL0     H62042   2.497   7.153  10.436 -0.1358 -0.9728  0.7936
  460MOL0     H62043   2.391   6.901  10.490 -1.6073  1.1474 -0.5515
  460MOL0     H62044   2.443   6.876  10.328 -1.7349  0.6741 -1.2259
  460MOL0     H62045   2.621   6.997  10.542  2.3145 -1.3000  1.9631
  460MOL0     H62046   2.624   6.828  10.498  0.3003  1.1727  1.3876
  460MOL0     H62047   2.679   6.878  10.261  0.9345 -1.6151  0.7081
  460MOL0     H62048   2.688   7.048  10.286  1.8116 -0.0592 -0.9862
  460MOL0     H62049   2.888   7.014  10.434  0.7831  0.3353 -1.5271
  460MOL0     H62050   2.910   6.966  10.271  0.3653  3.1871  0.5550
  460MOL0     H62051   2.870   6.810  10.612  0.2532  3.1540 -1.3830
  460MOL0     H62052   2.912   6.521  10.693 -1.2116  3.2056  0.2683
  460MOL0     H62053   2.741   6.510  10.662 -0.6729  1.4130 -0.7348
  460MOL0     H62054   2.973   6.371  10.532  0.0666 -2.3552 -2.0575
  460MOL0     H62055   2.813   6.342  10.469  2.4265  0.9956 -0.7183
  460MOL0     H62056   2.731   6.248  10.654  1.1075 -1.7731 -1.2911
  460MOL0     H62057   2.851   6.307  10.774  2.2482  1.1228 -0.2327
  460MOL0     H62058   2.863   6.055  10.696  1.2424 -0.1137 -0.2301
  460MOL0     H62059   3.009   6.142  10.690 -0.1735  0.8267  2.2756
  460MOL0     H62060   2.988   6.046  10.283  0.7808  0.6500  1.4406
  460MOL0     H62061   2.794   6.044   9.984 -0.4064 -1.7044 -0.8762
  460MOL0     H62062   2.957   6.046  10.052 -1.4698  2.2959 -0.6446
  460MOL0     H62063   2.876   5.888  10.022 -1.2630 -0.4380 -2.5158
  460MOL0     H62064   2.695   5.708   9.826 -0.4112 -0.8016 -1.3295
  460MOL0     H62065   2.571   5.613   9.637  0.4288  0.7373 -0.3492
  460MOL0     H62066   2.408   5.445   9.594  1.0587 -0.8435  5.3298
  460MOL0     H62067   2.269   5.428   9.705 -0.7426  2.5800  0.9582
  460MOL0     H62068   2.230   5.480   9.396 -1.2988 -0.3630 -0.9044
  460MOL0     H62069   2.252   5.317   9.462 -0.0039  0.3802 -0.3164
  460MOL0     H62070   2.005   5.500   9.542 -2.7273 -1.9250  2.6176
  460MOL0     H62071   2.046   5.358   9.619  3.9562  1.7131  0.7800
  460MOL0     H62072   2.018   5.377   9.314 -0.4771 -0.0554 -0.4244
  460MOL0     H62073   2.052   5.232   9.414 -0.2494 -0.5790 -0.2993
  460MOL0     H62074   1.794   5.394   9.428  1.7943  0.5860  0.0620
  460MOL0     H62075   1.842   5.258   9.540 -0.1953  0.1032  0.2359
  460MOL0     H62076   1.808   5.247   9.243  1.4068  1.5462  1.3516
  460MOL0     H62077   1.831   5.109   9.360 -0.3103 -0.5645  0.1618
  460MOL0     H62078   1.584   5.297   9.351 -4.8854 -1.7380  3.4882
  460MOL0     H62079   1.600   5.161   9.449  1.2038  3.1756  2.5948
  460MOL0     H62080   1.604   5.138   9.138  1.7518 -1.5793  0.1979
  460MOL0     H62081   1.466   5.108   9.243 -0.3850  0.6244  1.7946
  460MOL0     H62082   2.201   5.758   9.795 -0.7468 -2.0913  2.0197
  460MOL0     H62083   2.329   5.878   9.981  1.0701 -2.4212  1.3516
  460MOL0     H62084   2.509   5.999  10.356  1.3176  1.2634 -0.2580
  460MOL0     H62085   2.676   6.021  10.549  0.9843 -1.9686  0.0939
  460MOL0     H62086   2.350   6.824   9.987  1.6216 -0.1020  0.2073
  460MOL0     H62087   2.406   6.862   9.729 -1.1984 -2.0481  0.9726
  460MOL0     H62088   2.573   7.122   9.440 -1.0749  0.3401  0.2551
  460MOL0     H62089   2.662   7.160   9.222 -0.3195 -0.4205 -1.1021
  460MOL0     H62090   2.775   7.084   9.008 -2.1483 -1.3635  1.9242
  460MOL0     H62091   2.738   7.078   8.842  1.3866  2.1526 -0.9909
  460MOL0     H62092   2.798   7.297   8.916  0.3444 -0.4371  1.9858
  460MOL0     H62093   2.656   7.314   9.016  0.0624  1.1148 -0.5729
  460MOL0     H62094   2.631   7.409   8.798  3.5725 -1.4311 -3.1472
  460MOL0     H62095   2.502   7.297   8.831 -0.9794  1.6634 -0.4571
  460MOL0     H62096   2.555   7.282   8.604  1.7848  1.0762 -0.0533
  460MOL0     H62097   2.606   7.123   8.679 -0.5728 -0.2778  1.4651
  460MOL0     H62098   2.941   7.298   8.492 -1.2403  0.0298 -2.2992
  460MOL0     H62099   2.377   6.888   9.039 -0.2845 -1.4968 -0.1857
  460MOL0     H62100   2.269   6.864   9.256  2.0091 -2.4138 -0.4472
  461MOL0     O62101   0.214  11.407   2.562  0.0375 -0.1391  1.6526
  461MOL0     C62102   0.207  11.509   2.628  0.5752 -0.2015 -0.2288
  461MOL0     O62103   0.092  11.591   2.625  0.5285  0.3591  0.3767
  461MOL0     C62104  -0.015  11.558   2.548 -0.1724 -0.6604  0.4741
  461MOL0     C62105  -0.012  11.531   2.410 -0.0093 -0.3201 -0.6909
  461MOL0     C62106  -0.132  11.502   2.345  0.3477  0.1495  0.2528
  461MOL0     C62107  -0.257  11.490   2.411 -0.9442  0.9698  0.2503
  461MOL0     O62108  -0.377  11.449   2.351  0.0976  0.0289 -0.1701
  461MOL0     C62109  -0.378  11.383   2.220 -0.7316 -0.5519  1.0187
  461MOL0     C62110  -0.532  11.361   2.201  0.3816 -0.1865  0.8722
  461MOL0     C62111  -0.608  11.289   2.317 -0.9186 -0.0334  0.0062
  461MOL0     C62112  -0.706  11.170   2.283 -0.2547  0.3444  0.0139
  461MOL0     C62113  -0.761  11.084   2.400  0.2150  0.2999 -0.5144
  461MOL0     C62114  -0.861  10.979   2.341 -0.4210  0.1459 -0.5591
  461MOL0     C62115  -0.797  10.886   2.239  0.0556 -0.7361 -0.0652
  461MOL0     C62116  -0.684  10.806   2.304  0.3796  0.4156 -0.9109
  461MOL0     N62117  -0.633  10.696   2.216  0.2144  0.3668  0.0362
  461MOL0     C62118  -0.531  10.711   2.122  1.2876  0.2646  0.2050
  461MOL0     C62119  -0.520  10.594   2.060  0.3219 -0.7037  0.3237
  461MOL0     C62120  -0.426  10.570   1.942 -0.7750  0.1408 -0.2499
  461MOL0     C62121  -0.360  10.436   1.954 -0.3954 -0.6930 -1.0125
  461MOL0     C62122  -0.275  10.418   2.083  1.1509  0.2671  0.4330
  461MOL0     C62123  -0.144  10.490   2.065 -0.0108 -0.2568 -0.6904
  461MOL0     O62124  -0.130  10.603   2.167 -0.0978 -0.4462 -0.0672
  461MOL0     C62125   0.004  10.617   2.209 -0.8580 -0.8612 -0.9846
  461MOL0     C62126   0.036  10.624   2.346 -0.0661  0.5531  0.6069
  461MOL0     C62127   0.164  10.658   2.400  0.4784 -0.0571 -0.0731
  461MOL0     C62128   0.171  10.639   2.557 -0.3335  0.0932  0.8987
  461MOL0     C62129   0.263  10.709   2.320 -0.2453  0.5489 -1.0966
  461MOL0     C62130   0.398  10.752   2.358 -0.3387  0.0351  0.6673
  461MOL0     O62131   0.495  10.759   2.253 -0.5084  0.1884 -0.7853
  461MOL0     C62132   0.612  10.833   2.275  0.2438  0.2395  0.8776
  461MOL0     C62133   0.599  10.971   2.277  0.0164 -0.1018 -0.1635
  461MOL0     C62134   0.714  11.047   2.289 -0.0651 -0.6648  0.9485
  461MOL0     C62135   0.835  10.995   2.317  0.1797  0.5729 -0.6632
  461MOL0     O62136   0.961  11.052   2.346  0.0289 -0.1192  0.6324
  461MOL0     C62137   0.968  11.198   2.334  0.2204 -0.1530 -0.4163
  461MOL0     C62138   0.909  11.273   2.452 -0.5519  0.1894 -1.4058
  461MOL0     C62139   0.878  11.411   2.421 -0.2568 -0.7789  0.6752
  461MOL0     C62140   0.818  11.474   2.542 -1.1855  0.2131 -1.0457
  461MOL0     C62141   0.786  11.621   2.509  0.6920 -0.2255  0.2545
  461MOL0     C62142   0.677  11.639   2.401 -0.4005 -0.7309  0.2831
  461MOL0     C62143   0.553  11.545   2.433  0.0875 -0.5242  0.3998
  461MOL0     C62144   0.434  11.578   2.345  0.5149  0.6032 -1.1985
  461MOL0    Cl62145   0.366  11.729   2.409 -0.1141 -0.5980 -0.2446
  461MOL0     C62146   0.844  10.855   2.311 -0.1530 -0.2702 -0.3097
  461MOL0     C62147   0.730  10.774   2.287  0.1055  0.8237  0.0367
  461MOL0     O62148   0.402  10.810   2.466  0.4346  0.5801 -0.0994
  461MOL0     C62149   0.231  10.699   2.183 -0.2657 -0.2054  0.1056
  461MOL0     C62150   0.104  10.662   2.126 -0.3223 -0.3855  0.0360
  461MOL0     N62151  -0.605  10.502   2.117 -1.0245 -0.6817  0.0436
  461MOL0     N62152  -0.656  10.560   2.212  0.0187 -0.4176  0.9900
  461MOL0     C62153  -0.255  11.529   2.538 -0.1090  0.4273 -0.0607
  461MOL0     C62154  -0.143  11.571   2.603  0.2592  0.7703 -0.1792
  461MOL0     C62155   0.309  11.521   2.735 -0.0935  0.5084 -0.7383
  461MOL0     C62156   0.406  11.426   2.761 -0.2984  0.6645  0.0192
  461MOL0     C62157   0.495  11.461   2.865  0.6333  0.9833  0.9891
  461MOL0     C62158   0.492  11.575   2.939  0.6673  0.3516 -0.4815
  461MOL0     O62159   0.590  11.591   3.035 -0.1235  0.8071 -0.3059
  461MOL0     C62160   0.652  11.718   3.040 -0.2179  0.4573 -1.1027
  461MOL0     C62161   0.747  11.741   2.932  1.0251 -0.1538  0.0880
  461MOL0     C62162   0.865  11.648   2.929  0.6198  0.0542  0.4099
  461MOL0     C62163   0.969  11.692   2.826 -0.2274 -0.3769  0.4000
  461MOL0     C62164   1.071  11.772   2.899  0.0504  0.2286 -0.9434
  461MOL0     C62165   1.118  11.862   2.973 -0.5938  0.2676  0.0835
  461MOL0     C62166   0.380  11.661   2.915 -0.3084 -0.0176 -0.3662
  461MOL0     C62167   0.287  11.628   2.818  0.2046 -0.1034  0.2816
  461MOL0     H62168   0.079  11.534   2.352 -0.9344  0.7052 -2.1632
  461MOL0     H62169  -0.142  11.488   2.238  0.3104  0.4662  0.2114
  461MOL0     H62170  -0.332  11.443   2.141  1.7553  0.1493  2.8473
  461MOL0     H62171  -0.319  11.291   2.228  0.2487  0.2259  3.7828
  461MOL0     H62172  -0.563  11.465   2.197  0.4375 -0.1963  0.1635
  461MOL0     H62173  -0.541  11.309   2.105  3.0092  1.5506 -0.4248
  461MOL0     H62174  -0.532  11.245   2.381 -1.2071  1.1945  1.2371
  461MOL0     H62175  -0.657  11.367   2.375 -2.5969  0.2547 -1.6914
  461MOL0     H62176  -0.793  11.204   2.226  0.3647 -1.9604 -2.5480
  461MOL0     H62177  -0.657  11.097   2.217  0.5111  0.3067  0.6193
  461MOL0     H62178  -0.679  11.042   2.459 -2.7380 -0.5078  3.3874
  461MOL0     H62179  -0.809  11.153   2.470  0.5128 -1.4773  1.5526
  461MOL0     H62180  -0.905  10.917   2.420  0.1832  0.1035 -0.2494
  461MOL0     H62181  -0.945  11.028   2.290 -0.0907  1.3937  0.0447
  461MOL0     H62182  -0.873  10.816   2.203 -0.2093  0.7179 -2.5435
  461MOL0     H62183  -0.743  10.933   2.156  0.0637  1.5731  1.1664
  461MOL0     H62184  -0.721  10.766   2.398 -1.2350  0.6332 -1.4126
  461MOL0     H62185  -0.601  10.872   2.330  3.0671 -2.5227 -1.4254
  461MOL0     H62186  -0.471  10.800   2.112  3.4526 -1.1071  0.3039
  461MOL0     H62187  -0.485  10.576   1.850 -2.3698 -1.2919  0.6032
  461MOL0     H62188  -0.345  10.643   1.940  1.1469 -1.9107 -1.7511
  461MOL0     H62189  -0.291  10.428   1.869  0.5064  2.9820 -0.8052
  461MOL0     H62190  -0.432  10.354   1.950 -2.2833  0.6724  1.7475
  461MOL0     H62191  -0.258  10.312   2.102  1.5571 -0.1656 -2.0371
  461MOL0     H62192  -0.345  10.456   2.157  0.3766 -1.7799  0.8140
  461MOL0     H62193  -0.129  10.536   1.967  2.6570  1.4819  0.3896
  461MOL0     H62194  -0.074  10.410   2.091 -0.7511 -0.2854  1.4359
  461MOL0     H62195  -0.046  10.595   2.410 -1.5492  0.1674 -1.3933
  461MOL0     H62196   0.103  10.711   2.604  2.5554  3.7452 -0.0353
  461MOL0     H62197   0.131  10.543   2.590 -2.3244  1.9797  4.6494
  461MOL0     H62198   0.274  10.652   2.591  0.2902  0.4016 -0.9850
  461MOL0     H62199   0.500  11.014   2.279  0.0404 -0.0824  1.4878
  461MOL0     H62200   0.697  11.154   2.287 -2.8601 -1.0566 -0.2781
  461MOL0     H62201   1.072  11.229   2.322  1.2243 -1.6523  3.0250
  461MOL0     H62202   0.905  11.237   2.254 -0.8631  0.3789  0.6583
  461MOL0     H62203   0.822  11.215   2.484 -0.6777  1.0987 -0.0167
  461MOL0     H62204   0.977  11.271   2.538 -4.3563 -0.1381  1.8974
  461MOL0     H62205   0.810  11.416   2.336  3.3290  0.2425 -2.4322
  461MOL0     H62206   0.965  11.468   2.387  0.1881 -1.7952  0.0278
  461MOL0     H62207   0.730  11.422   2.581 -0.0449  1.1606  3.2955
  461MOL0     H62208   0.893  11.469   2.622 -0.0734  1.1147 -1.9896
  461MOL0     H62209   0.879  11.670   2.479  0.5461  1.5963  2.4738
  461MOL0     H62210   0.754  11.666   2.603  1.6996 -1.7736  1.3872
  461MOL0     H62211   0.641  11.742   2.409  2.6139  0.5755 -1.4359
  461MOL0     H62212   0.715  11.637   2.299 -2.6199  2.7386 -0.8153
  461MOL0     H62213   0.531  11.570   2.537  0.5309  0.5046  0.2520
  461MOL0     H62214   0.584  11.440   2.423 -0.2886 -0.8697  2.4137
  461MOL0     H62215   0.354  11.503   2.346 -0.9888  2.1151 -2.2599
  461MOL0     H62216   0.478  11.582   2.245  2.5323 -0.1991 -0.4000
  461MOL0     H62217   0.936  10.800   2.328  0.0939 -0.3153 -1.6823
  461MOL0     H62218   0.743  10.667   2.282  2.7369  0.5670  5.1954
  461MOL0     H62219   0.312  10.715   2.113  0.7336 -1.0976  1.0177
  461MOL0     H62220   0.085  10.662   2.019  0.2578 -0.6848 -0.0745
  461MOL0     H62221  -0.345  11.525   2.598  1.0559 -1.6390  1.7087
  461MOL0     H62222  -0.156  11.600   2.706  0.2579  0.7767 -0.1811
  461MOL0     H62223   0.416  11.331   2.709  1.1351  0.9860 -0.3616
  461MOL0     H62224   0.573  11.395   2.902  0.9902  0.6646 -0.2683
  461MOL0     H62225   0.577  11.798   3.043 -2.4579 -1.4626  2.0653
  461MOL0     H62226   0.711  11.719   3.133  0.3774 -3.7934 -1.2249
  461MOL0     H62227   0.778  11.846   2.935 -2.4153  0.9830  0.2116
  461MOL0     H62228   0.687  11.722   2.843  1.3067  2.2009 -0.6793
  461MOL0     H62229   0.840  11.548   2.891  1.7827  1.2288 -4.0557
  461MOL0     H62230   0.897  11.648   3.034 -3.8805  0.0591  1.9840
  461MOL0     H62231   0.927  11.753   2.745  2.7889  2.9150  1.0789
  461MOL0     H62232   1.013  11.602   2.782 -1.3929  1.0805 -4.3942
  461MOL0     H62233   1.160  11.934   3.041  0.9327  0.2012 -0.7328
  461MOL0     H62234   0.363  11.757   2.964 -1.3654  0.4154 -1.5225
  461MOL0     H62235   0.210  11.702   2.800  0.8460  0.3452 -0.7523
  462MOL0     O62236   2.664  10.431   6.918 -0.4307  0.3665  0.8109
  462MOL0     C62237   2.756  10.341   6.902  0.7509  0.3850  0.3439
  462MOL0     O62238   2.745  10.208   6.919 -0.2493 -0.2481  0.4118
  462MOL0     C62239   2.633  10.167   6.989 -1.0792  0.6229  0.4803
  462MOL0     C62240   2.565  10.225   7.100  0.2795 -0.5030 -0.4774
  462MOL0     C62241   2.451  10.162   7.155 -0.0926  0.7676 -0.1678
  462MOL0     C62242   2.403  10.043   7.092  0.1619 -0.4237 -0.5829
  462MOL0     O62243   2.290   9.967   7.130  0.1061  0.0285 -0.2920
  462MOL0     C62244   2.176  10.025   7.194  0.4436  0.3276 -0.0455
  462MOL0     C62245   2.063   9.925   7.167  0.1894  0.2252  0.5498
  462MOL0     C62246   1.942   9.951   7.256 -0.3551  0.3013 -0.2275
  462MOL0     C62247   1.937   9.863   7.387 -0.5604  1.0474 -0.1308
  462MOL0     C62248   2.012   9.916   7.503 -0.2437 -0.0628 -0.2417
  462MOL0     C62249   2.012   9.806   7.606 -0.2224 -1.1696 -0.7630
  462MOL0     C62250   2.062   9.862   7.750  0.1250  0.1393  1.0125
  462MOL0     C62251   2.079   9.746   7.840 -0.0956 -0.3189 -0.7281
  462MOL0     N62252   2.206   9.676   7.807  0.6136 -0.2154  0.6952
  462MOL0     C62253   2.328   9.714   7.840 -1.1585  0.2435 -0.5431
  462MOL0     C62254   2.406   9.619   7.786 -0.9338 -0.2835  1.4004
  462MOL0     C62255   2.555   9.624   7.788  0.1945 -0.0941 -0.0450
  462MOL0     C62256   2.625   9.563   7.905  0.3867  0.6220  0.4948
  462MOL0     C62257   2.580   9.433   7.955  0.5654  0.2257 -0.3834
  462MOL0     C62258   2.658   9.386   8.079  0.2351 -0.3000  0.4378
  462MOL0     O62259   2.796   9.388   8.060 -0.2706  0.7647 -0.0483
  462MOL0     C62260   2.850   9.275   8.000  0.5528 -0.2207  0.0871
  462MOL0     C62261   2.889   9.161   8.074 -0.5806 -0.0135 -0.0047
  462MOL0     C62262   2.966   9.058   8.018  0.6314 -0.0720  0.3626
  462MOL0     C62263   2.970   8.935   8.107  0.4063  0.0440  0.9120
  462MOL0     C62264   3.012   9.059   7.884  1.2109  0.2982  0.0578
  462MOL0     C62265   3.087   8.951   7.819  0.4290 -0.5297 -0.3087
  462MOL0     O62266   3.216   8.965   7.836 -0.0014  0.1384  0.2198
  462MOL0     C62267   3.311   8.880   7.789 -0.5803  0.3173  0.6494
  462MOL0     C62268   3.294   8.758   7.714 -0.1817 -0.8919 -0.4692
  462MOL0     C62269   3.409   8.681   7.681  0.2482  0.0434  0.1553
  462MOL0     C62270   3.541   8.719   7.718  0.0143  0.6028  0.8153
  462MOL0     O62271   3.637   8.637   7.665  0.4344 -0.6770 -1.2056
  462MOL0     C62272   3.759   8.655   7.726  0.7123  0.2280  0.2335
  462MOL0     C62273   3.848   8.537   7.697  1.2849  0.4545  0.3748
  462MOL0     C62274   3.985   8.554   7.742  0.4354  0.2535 -0.3501
  462MOL0     C62275   4.078   8.458   7.670 -0.7033  0.1767 -0.5350
  462MOL0     C62276   4.221   8.442   7.729 -0.5790  0.0576  0.0171
  462MOL0     C62277   4.313   8.378   7.609 -0.2037 -0.7398 -0.0116
  462MOL0     C62278   4.454   8.332   7.662  0.2857 -0.9734 -1.0655
  462MOL0     C62279   4.552   8.265   7.565  0.1999 -0.2621  0.0341
  462MOL0    Cl62280   4.607   8.397   7.461  0.3755  0.2086 -0.1868
  462MOL0     C62281   3.558   8.836   7.790 -0.0498 -0.1782  0.1387
  462MOL0     C62282   3.443   8.913   7.828 -0.0174  0.1181  1.4038
  462MOL0     O62283   3.028   8.860   7.762  0.2165  0.4983  0.0749
  462MOL0     C62284   2.967   9.165   7.804 -0.5177 -1.0147 -0.0086
  462MOL0     C62285   2.884   9.263   7.861  0.2334  0.2050  0.8663
  462MOL0     N62286   2.326   9.515   7.737  0.3507  0.0063  1.0304
  462MOL0     N62287   2.207   9.556   7.745 -0.1922  0.4850  0.7220
  462MOL0     C62288   2.468   9.994   6.979  0.2150  0.6190  0.1230
  462MOL0     C62289   2.581  10.057   6.927  0.2718  0.1090  0.1175
  462MOL0     C62290   2.878  10.382   6.833 -0.1326  0.8672  0.2907
  462MOL0     C62291   2.977  10.291   6.795 -0.5344  0.5181 -0.5301
  462MOL0     C62292   3.085  10.331   6.716 -0.4327 -0.4745  0.5915
  462MOL0     C62293   3.084  10.468   6.668 -0.2643 -0.0054 -0.5238
  462MOL0     O62294   3.189  10.513   6.594 -0.3909 -0.3914 -0.4987
  462MOL0     C62295   3.198  10.441   6.469  0.2954 -1.3691  0.8100
  462MOL0     C62296   3.333  10.466   6.409  0.5283 -0.2629  0.1048
  462MOL0     C62297   3.456  10.413   6.492 -0.1695  0.3663  0.9525
  462MOL0     C62298   3.468  10.258   6.475  0.5714  1.3592  0.9459
  462MOL0     C62299   3.609  10.242   6.519  0.4854 -0.0124  0.4678
  462MOL0     C62300   3.723  10.240   6.561  0.1153  0.2737  0.8123
  462MOL0     C62301   2.979  10.562   6.705  0.6712 -0.2237 -0.4550
  462MOL0     C62302   2.876  10.512   6.790  0.6776  0.3031  0.4172
  462MOL0     H62303   2.595  10.312   7.158 -2.6675  1.6688 -1.9142
  462MOL0     H62304   2.398  10.205   7.239 -2.2326 -0.1038 -1.0251
  462MOL0     H62305   2.213  10.047   7.295  0.6273  2.4375 -0.5117
  462MOL0     H62306   2.151  10.122   7.148  0.3841  0.9090  1.1769
  462MOL0     H62307   2.019   9.951   7.070 -4.7238  2.5056  3.0029
  462MOL0     H62308   2.099   9.823   7.159 -0.0277  0.2242 -0.7040
  462MOL0     H62309   1.945  10.059   7.276  0.8367  0.8158 -2.7985
  462MOL0     H62310   1.853   9.917   7.204 -1.0507  1.2719  0.2970
  462MOL0     H62311   1.832   9.863   7.419 -1.3135 -2.0820 -2.1922
  462MOL0     H62312   1.976   9.763   7.368 -0.5365  1.2875 -1.4661
  462MOL0     H62313   2.114   9.952   7.489  0.0728  0.3736  2.4846
  462MOL0     H62314   1.955  10.003   7.539  0.7698  0.1839  0.8417
  462MOL0     H62315   1.917   9.752   7.614 -1.1507  0.5689  0.3737
  462MOL0     H62316   2.080   9.729   7.567  0.3227 -0.3447 -1.4640
  462MOL0     H62317   2.150   9.922   7.723  0.1488  0.5999  2.0831
  462MOL0     H62318   1.982   9.927   7.785 -1.5208 -0.4456 -1.4423
  462MOL0     H62319   1.997   9.674   7.830 -0.1720 -0.2542 -0.5712
  462MOL0     H62320   2.078   9.778   7.945  2.7614  3.3625 -1.6050
  462MOL0     H62321   2.369   9.798   7.896 -0.2087  0.6732 -1.8477
  462MOL0     H62322   2.601   9.571   7.704  0.9294 -0.7946  0.7829
  462MOL0     H62323   2.584   9.729   7.787 -0.1939  0.3278  5.2006
  462MOL0     H62324   2.619   9.638   7.984  0.7297  1.6149 -0.4007
  462MOL0     H62325   2.723   9.544   7.860 -0.1086 -0.9607  0.0100
  462MOL0     H62326   2.593   9.353   7.882  0.7004  0.0820 -0.2020
  462MOL0     H62327   2.475   9.449   7.982  0.3960  1.0093 -1.4230
  462MOL0     H62328   2.622   9.286   8.104 -2.5022  0.0086 -1.8362
  462MOL0     H62329   2.636   9.452   8.164 -1.3317  1.1487 -1.0206
  462MOL0     H62330   2.882   9.168   8.182 -0.1757  0.1729  0.0112
  462MOL0     H62331   2.967   8.846   8.044  0.7938  0.8207 -0.2429
  462MOL0     H62332   3.050   8.923   8.180 -0.0298 -4.1967  0.9361
  462MOL0     H62333   2.877   8.921   8.163  0.1565 -0.8101  0.3009
  462MOL0     H62334   3.200   8.716   7.682  1.0768 -2.9609 -1.6974
  462MOL0     H62335   3.397   8.593   7.618  0.7460 -1.2167  1.7550
  462MOL0     H62336   3.798   8.753   7.698  0.9709 -0.7680 -3.5080
  462MOL0     H62337   3.744   8.659   7.834  0.3975  0.7318  0.1713
  462MOL0     H62338   3.798   8.466   7.763 -0.0810 -0.5502 -1.6120
  462MOL0     H62339   3.844   8.498   7.594  0.8878  2.6395 -0.4982
  462MOL0     H62340   3.998   8.542   7.849 -0.4434  1.2439 -0.1173
  462MOL0     H62341   4.009   8.659   7.723  1.2595  0.0554 -0.4430
  462MOL0     H62342   4.030   8.360   7.661  2.6179 -2.3481  4.7894
  462MOL0     H62343   4.086   8.508   7.573 -1.7839  2.0258  0.2694
  462MOL0     H62344   4.217   8.370   7.811 -0.0054  0.1878  0.1669
  462MOL0     H62345   4.267   8.531   7.773  0.5102 -0.5546  0.1707
  462MOL0     H62346   4.259   8.293   7.566 -2.7867  0.1706  1.2106
  462MOL0     H62347   4.325   8.456   7.534 -0.3370 -0.7086 -0.0011
  462MOL0     H62348   4.440   8.260   7.743  2.1664 -0.5552 -0.3196
  462MOL0     H62349   4.491   8.427   7.701 -1.1706  0.6338 -3.3049
  462MOL0     H62350   4.511   8.174   7.518 -0.6107 -0.6028  1.3379
  462MOL0     H62351   4.638   8.235   7.625 -0.8221  0.6015  2.0343
  462MOL0     H62352   3.654   8.880   7.813  0.0529  1.5304 -2.9866
  462MOL0     H62353   3.450   9.005   7.885 -0.4477 -1.4570  4.1734
  462MOL0     H62354   2.988   9.176   7.698 -0.2988  2.3867  0.2564
  462MOL0     H62355   2.854   9.349   7.802 -3.3549 -0.2714  1.8029
  462MOL0     H62356   2.429   9.915   6.916  2.7315 -1.1420  0.6317
  462MOL0     H62357   2.638  10.010   6.847 -1.1125 -1.8759  0.2256
  462MOL0     H62358   2.975  10.188   6.827  0.6918  0.7513  0.3574
  462MOL0     H62359   3.170  10.274   6.680 -0.1468  1.0503 -1.2918
  462MOL0     H62360   3.185  10.333   6.485 -3.6291 -1.0418  0.7201
  462MOL0     H62361   3.119  10.482   6.406 -0.5593 -0.4063  2.4343
  462MOL0     H62362   3.343  10.574   6.396  2.3262 -0.0284  2.6092
  462MOL0     H62363   3.332  10.419   6.310  0.5827  1.6282 -0.8212
  462MOL0     H62364   3.444  10.440   6.598  0.1271  5.1781 -0.0517
  462MOL0     H62365   3.540  10.465   6.446  1.6656  0.3352  3.9514
  462MOL0     H62366   3.445  10.222   6.374 -1.7942  2.5445  0.9941
  462MOL0     H62367   3.410  10.195   6.543  1.6028 -0.6425  0.0776
  462MOL0     H62368   3.811  10.241   6.621  0.3863  2.1318  0.4514
  462MOL0     H62369   2.979  10.669   6.686 -3.2354 -0.4727 -3.1651
  462MOL0     H62370   2.796  10.580   6.815  3.7429  4.3832  0.1633
  463MOL0     O62371   7.686   5.738   3.488 -0.4991 -0.9573 -0.5937
  463MOL0     C62372   7.573   5.754   3.534 -0.2352 -0.9972  0.3718
  463MOL0     O62373   7.544   5.805   3.658 -0.4781  0.0068  0.1019
  463MOL0     C62374   7.643   5.875   3.729 -0.1389  0.4012 -0.7713
  463MOL0     C62375   7.650   5.860   3.868  0.3285  1.8753  0.0760
  463MOL0     C62376   7.724   5.946   3.939 -0.3210  0.0325  0.2713
  463MOL0     C62377   7.811   6.041   3.887 -0.1848 -0.0222  1.0960
  463MOL0     O62378   7.889   6.111   3.979  0.2699  0.2967  0.2892
  463MOL0     C62379   7.933   6.246   3.945  0.3307 -0.2004 -0.6832
  463MOL0     C62380   7.996   6.298   4.080  0.3048  0.6409 -0.4918
  463MOL0     C62381   8.091   6.409   4.054  0.4883 -0.1467  0.0797
  463MOL0     C62382   8.192   6.437   4.178 -0.3102  0.6599 -0.1797
  463MOL0     C62383   8.233   6.590   4.190  0.1255  0.8353 -0.0704
  463MOL0     C62384   8.124   6.704   4.186 -0.3491  0.1435 -0.4091
  463MOL0     C62385   7.992   6.654   4.257 -0.3614  0.4558 -0.6390
  463MOL0     C62386   7.994   6.624   4.412  0.0603  0.4443  0.5172
  463MOL0     N62387   7.909   6.521   4.467 -0.4909 -0.7810 -0.1991
  463MOL0     C62388   7.808   6.456   4.400 -0.0987 -0.5377  0.1388
  463MOL0     C62389   7.753   6.373   4.496 -0.6733 -0.7450 -1.0918
  463MOL0     C62390   7.641   6.278   4.465  0.7702  0.0366 -0.3574
  463MOL0     C62391   7.646   6.190   4.347  0.7058 -0.0068  0.1793
  463MOL0     C62392   7.777   6.098   4.335 -0.2552 -0.7588  0.7693
  463MOL0     C62393   7.812   6.015   4.456  0.1351 -0.2602  0.0008
  463MOL0     O62394   7.929   5.933   4.435 -0.4762 -0.8056 -0.2351
  463MOL0     C62395   8.052   5.984   4.468  0.3966 -0.2653 -0.5781
  463MOL0     C62396   8.070   6.128   4.497 -0.1426  0.1610 -0.5803
  463MOL0     C62397   8.197   6.173   4.529 -1.5525  0.0345  0.2143
  463MOL0     C62398   8.219   6.327   4.548 -0.7818  0.6024 -0.2907
  463MOL0     C62399   8.306   6.087   4.493  0.1278  0.6124 -0.1799
  463MOL0     C62400   8.437   6.129   4.501  0.9368  0.2530 -0.1365
  463MOL0     O62401   8.526   6.069   4.412  0.8405 -0.8135 -0.0323
  463MOL0     C62402   8.659   6.114   4.418 -0.1435 -0.0502  0.7571
  463MOL0     C62403   8.688   6.244   4.376  0.0417  0.1075  0.4359
  463MOL0     C62404   8.814   6.294   4.375  0.2324  0.6995 -0.3636
  463MOL0     C62405   8.921   6.224   4.441  0.0690 -0.2543  0.8233
  463MOL0     O62406   9.055   6.253   4.422  0.0462  0.4358  0.2044
  463MOL0     C62407   9.102   6.369   4.346  0.4059  0.2983  0.5361
  463MOL0     C62408   9.255   6.412   4.362  0.2273  0.8944  0.5352
  463MOL0     C62409   9.350   6.294   4.365  0.5592 -0.8231 -0.4546
  463MOL0     C62410   9.487   6.350   4.416  0.5076 -0.0503  0.0071
  463MOL0     C62411   9.596   6.242   4.458  1.1602  0.1542  0.0684
  463MOL0     C62412   9.558   6.183   4.596 -0.6543 -0.1378  0.0916
  463MOL0     C62413   9.652   6.069   4.634  0.2395  0.3634  0.1484
  463MOL0     C62414   9.621   5.997   4.762 -0.5552  0.6189 -0.4218
  463MOL0    Cl62415   9.522   6.086   4.879  0.3062 -0.0492 -0.0597
  463MOL0     C62416   8.895   6.094   4.486 -0.1772 -0.5435 -0.5385
  463MOL0     C62417   8.768   6.038   4.478  0.4476 -0.5809  0.5015
  463MOL0     O62418   8.473   6.203   4.588  0.4425  0.2228  0.1949
  463MOL0     C62419   8.286   5.948   4.473 -0.1334 -0.2708  0.2768
  463MOL0     C62420   8.159   5.899   4.463 -0.6715  0.6014 -0.5968
  463MOL0     N62421   7.823   6.390   4.608  0.7474 -0.0214 -0.3608
  463MOL0     N62422   7.910   6.479   4.596 -0.6285 -0.1918  0.2551
  463MOL0     C62423   7.800   6.064   3.742 -0.0230 -0.3570 -0.6721
  463MOL0     C62424   7.717   5.982   3.665  0.6745  0.4330 -0.0270
  463MOL0     C62425   7.456   5.721   3.447 -1.1758 -1.2705 -0.3460
  463MOL0     C62426   7.488   5.667   3.319  0.0205  1.1590 -0.6962
  463MOL0     C62427   7.379   5.636   3.242  0.3081 -0.1257 -0.6164
  463MOL0     C62428   7.244   5.638   3.280 -1.2598 -0.6764  0.1807
  463MOL0     O62429   7.149   5.598   3.194  0.2875 -0.0097 -0.4886
  463MOL0     C62430   7.180   5.511   3.089 -0.3182 -0.4254 -0.0454
  463MOL0     C62431   7.055   5.443   3.049  0.3289 -0.4103  0.1630
  463MOL0     C62432   7.007   5.358   3.170 -0.2023  0.4450  1.1698
  463MOL0     C62433   6.887   5.420   3.233  0.3186  0.0092 -0.9909
  463MOL0     C62434   6.767   5.367   3.173 -0.0786  0.8685  0.2287
  463MOL0     C62435   6.665   5.305   3.139 -0.5746  0.3332 -0.4130
  463MOL0     C62436   7.218   5.691   3.409 -0.0836  0.5366  0.2964
  463MOL0     C62437   7.322   5.727   3.494 -0.9700 -0.2738 -0.2601
  463MOL0     H62438   7.573   5.797   3.911  0.0554  2.7616  0.9134
  463MOL0     H62439   7.726   5.935   4.047  0.6994 -0.8333  0.1765
  463MOL0     H62440   7.998   6.253   3.857 -0.7687  2.5891 -1.3922
  463MOL0     H62441   7.849   6.315   3.926  0.8290  0.8336  0.6873
  463MOL0     H62442   7.915   6.323   4.149 -0.8969  0.0324 -1.6251
  463MOL0     H62443   8.056   6.220   4.125  3.6861  4.7949  3.1043
  463MOL0     H62444   8.146   6.377   3.965 -2.0517 -1.9388 -0.9624
  463MOL0     H62445   8.044   6.500   4.015  1.9444  0.3992 -0.4596
  463MOL0     H62446   8.136   6.422   4.271 -1.7621  0.8113 -0.9894
  463MOL0     H62447   8.278   6.370   4.180  1.2389  2.4986  2.4811
  463MOL0     H62448   8.294   6.601   4.280 -1.1119  0.8958  0.7887
  463MOL0     H62449   8.300   6.611   4.107  0.2409  2.1542  0.3348
  463MOL0     H62450   8.156   6.801   4.222  1.8591 -1.7274  3.2010
  463MOL0     H62451   8.102   6.716   4.079 -1.1666  1.1815 -0.1447
  463MOL0     H62452   7.923   6.738   4.247  0.2161  1.4897  2.6673
  463MOL0     H62453   7.948   6.569   4.205  4.0026 -2.9865  0.6307
  463MOL0     H62454   7.987   6.714   4.473 -0.8576 -0.9196  2.5325
  463MOL0     H62455   8.094   6.584   4.433 -0.7208 -0.4087  2.8864
  463MOL0     H62456   7.776   6.467   4.297  1.1593  0.3918 -0.1764
  463MOL0     H62457   7.640   6.212   4.552  1.2600  3.2639  2.3051
  463MOL0     H62458   7.548   6.335   4.472  0.8765  0.4614 -1.9757
  463MOL0     H62459   7.633   6.242   4.252  0.9585 -2.4274 -1.2675
  463MOL0     H62460   7.573   6.109   4.351  0.6894 -0.1857 -2.2352
  463MOL0     H62461   7.868   6.152   4.308 -0.0527 -0.2123  2.4313
  463MOL0     H62462   7.759   6.021   4.259 -0.0623 -2.2838  2.2098
  463MOL0     H62463   7.718   5.962   4.474  0.2787 -1.1571 -1.6759
  463MOL0     H62464   7.824   6.085   4.539 -0.3200  2.6407 -2.2179
  463MOL0     H62465   7.991   6.202   4.494 -1.4787 -1.2148 -0.8965
  463MOL0     H62466   8.310   6.357   4.496  0.8390  0.1619  2.1170
  463MOL0     H62467   8.135   6.381   4.503  0.3573 -0.2076 -3.6720
  463MOL0     H62468   8.221   6.335   4.657  2.7785  0.5457 -0.2557
  463MOL0     H62469   8.605   6.298   4.333  0.2953  1.5603  1.6962
  463MOL0     H62470   8.825   6.395   4.336 -1.4920  0.7914 -0.6808
  463MOL0     H62471   9.076   6.349   4.242 -0.3790 -1.3686  1.0176
  463MOL0     H62472   9.039   6.454   4.372 -2.5637 -1.9542  1.2836
  463MOL0     H62473   9.275   6.481   4.280  1.5247  0.6611  0.6399
  463MOL0     H62474   9.263   6.461   4.460  1.1374 -0.2539  1.0509
  463MOL0     H62475   9.364   6.246   4.267  1.1322  1.5690 -1.6103
  463MOL0     H62476   9.300   6.221   4.430 -2.7591  0.4451 -1.3964
  463MOL0     H62477   9.522   6.411   4.332  1.1828 -0.0794  0.2626
  463MOL0     H62478   9.483   6.420   4.499  2.9815  0.2213 -0.0254
  463MOL0     H62479   9.689   6.300   4.449 -0.2705  2.3566 -1.8618
  463MOL0     H62480   9.589   6.171   4.375 -1.7075 -2.2396  2.1419
  463MOL0     H62481   9.552   6.258   4.675 -1.3931  1.0450 -1.0404
  463MOL0     H62482   9.455   6.147   4.597 -0.7362 -0.2312 -2.8862
  463MOL0     H62483   9.757   6.099   4.630  0.4336 -0.2605  0.3826
  463MOL0     H62484   9.633   5.993   4.559 -0.5711  0.5866  0.1208
  463MOL0     H62485   9.715   5.962   4.805  0.3070 -0.0789 -2.7363
  463MOL0     H62486   9.568   5.903   4.747  2.5669 -1.9233  2.7379
  463MOL0     H62487   8.972   6.027   4.522 -0.9501 -1.0986  0.1281
  463MOL0     H62488   8.755   5.933   4.501 -3.4045 -0.4634 -0.3822
  463MOL0     H62489   8.372   5.881   4.472  0.1860  0.0139  2.5379
  463MOL0     H62490   8.143   5.792   4.460 -2.9030  0.9135 -2.4669
  463MOL0     H62491   7.855   6.139   3.685  3.1018 -1.4948  0.6371
  463MOL0     H62492   7.713   5.992   3.557 -0.5271  0.3604 -0.0018
  463MOL0     H62493   7.588   5.654   3.278 -0.0717 -2.1674 -0.1435
  463MOL0     H62494   7.412   5.612   3.141  2.6367  2.7836 -0.6938
  463MOL0     H62495   7.217   5.565   3.001  1.2765 -1.9369 -0.3599
  463MOL0     H62496   7.257   5.440   3.122  0.7652  1.5806  2.0104
  463MOL0     H62497   7.087   5.373   2.971 -0.4427 -0.4949 -0.0836
  463MOL0     H62498   6.979   5.515   3.018  1.3299  1.3589  1.6111
  463MOL0     H62499   7.084   5.350   3.248  1.6191  0.2960 -0.5684
  463MOL0     H62500   6.985   5.257   3.134  0.6186  0.9399 -0.8473
  463MOL0     H62501   6.902   5.527   3.217  1.9028  0.0909  0.7248
  463MOL0     H62502   6.876   5.399   3.340  2.4853  0.5384 -0.6043
  463MOL0     H62503   6.564   5.273   3.119 -0.7788 -0.6600  1.8389
  463MOL0     H62504   7.113   5.708   3.433 -0.0710  1.1441 -0.0476
  463MOL0     H62505   7.306   5.786   3.583 -0.1958 -0.6290  0.1234
  464MOL0     O62506   0.727   3.469   0.967  0.0367 -0.5048 -0.8460
  464MOL0     C62507   0.656   3.440   1.062  0.4295  0.8835 -0.5660
  464MOL0     O62508   0.524   3.458   1.078 -0.2389  0.0087  0.8359
  464MOL0     C62509   0.456   3.496   0.969  0.0617 -0.3722  0.2062
  464MOL0     C62510   0.493   3.581   0.855 -0.0229 -0.4410  0.2170
  464MOL0     C62511   0.406   3.612   0.753 -0.0053  0.7334 -0.4126
  464MOL0     C62512   0.283   3.536   0.751  0.7946  0.9806 -0.6320
  464MOL0     O62513   0.203   3.577   0.641  0.5383  0.2529  0.1374
  464MOL0     C62514   0.060   3.531   0.652 -0.4030  0.3879 -0.6615
  464MOL0     C62515  -0.005   3.562   0.518  0.2386 -0.2809  0.6371
  464MOL0     C62516  -0.144   3.505   0.504 -0.8260 -0.9076  0.4596
  464MOL0     C62517  -0.250   3.563   0.610 -0.4732 -0.7360  0.5733
  464MOL0     C62518  -0.366   3.474   0.643 -1.1928 -0.6962 -1.0510
  464MOL0     C62519  -0.447   3.429   0.526 -0.6187 -0.7754  0.8802
  464MOL0     C62520  -0.578   3.348   0.569  0.0136 -0.4815 -0.2985
  464MOL0     C62521  -0.699   3.428   0.624 -0.6307 -0.0213  0.1456
  464MOL0     N62522  -0.762   3.496   0.515 -0.2057  0.3291 -0.0784
  464MOL0     C62523  -0.831   3.415   0.421  0.0101 -0.1334  0.2911
  464MOL0     C62524  -0.852   3.500   0.324 -0.1064  0.2394  0.4803
  464MOL0     C62525  -0.906   3.457   0.189 -0.2847  0.5718 -0.5328
  464MOL0     C62526  -1.003   3.560   0.135 -0.4405  0.0325  1.2568
  464MOL0     C62527  -1.059   3.519  -0.009 -0.5055  0.0125  0.6045
  464MOL0     C62528  -1.173   3.417  -0.001 -0.6706 -1.1745  0.1650
  464MOL0     O62529  -1.113   3.287   0.019  0.2097  0.2792 -0.4773
  464MOL0     C62530  -1.216   3.188   0.017 -0.4109  0.0712 -0.2112
  464MOL0     C62531  -1.170   3.055  -0.014 -0.1820 -0.7923 -0.5433
  464MOL0     C62532  -1.249   2.945  -0.008 -0.3543  1.3840 -0.9710
  464MOL0     C62533  -1.194   2.814  -0.052  0.2262  1.3805  0.0647
  464MOL0     C62534  -1.386   2.971   0.004  0.3722 -0.6200 -0.6623
  464MOL0     C62535  -1.494   2.872  -0.027  0.1555 -0.0399  0.3926
  464MOL0     O62536  -1.570   2.823   0.074 -0.4065  0.5781  0.0818
  464MOL0     C62537  -1.666   2.737   0.043  0.2664 -0.5095  0.3316
  464MOL0     C62538  -1.768   2.754  -0.047  0.0486 -0.2636  0.6109
  464MOL0     C62539  -1.865   2.655  -0.057  0.6269  0.7318 -0.1634
  464MOL0     C62540  -1.872   2.541   0.020 -0.9775 -0.3411  0.5579
  464MOL0     O62541  -1.973   2.449   0.015 -0.3404 -0.5364  0.1506
  464MOL0     C62542  -1.990   2.387  -0.106  0.0575  0.4938 -0.5523
  464MOL0     C62543  -2.088   2.267  -0.104  0.9123  0.2518 -0.7508
  464MOL0     C62544  -2.206   2.295  -0.011 -0.7226  0.0228 -0.1086
  464MOL0     C62545  -2.308   2.410  -0.048  0.2370 -0.6217 -0.5449
  464MOL0     C62546  -2.434   2.403   0.039  0.3150 -0.4771  0.1311
  464MOL0     C62547  -2.525   2.279   0.002 -0.5019  0.3965  0.5269
  464MOL0     C62548  -2.577   2.259  -0.141 -0.1685  0.1124  0.6973
  464MOL0     C62549  -2.726   2.284  -0.149  0.6145 -0.0438 -0.2699
  464MOL0    Cl62550  -2.771   2.330  -0.328  0.0687  0.1675  0.2468
  464MOL0     C62551  -1.761   2.525   0.109  0.0040  1.2491  0.1657
  464MOL0     C62552  -1.657   2.622   0.119  0.1480 -0.1228  0.5041
  464MOL0     O62553  -1.510   2.845  -0.150 -0.1863 -0.2060  0.1009
  464MOL0     C62554  -1.434   3.105   0.032  0.2909  0.4279  0.1974
  464MOL0     C62555  -1.353   3.210   0.039 -0.1461 -0.0872 -0.1514
  464MOL0     N62556  -0.807   3.622   0.360  0.0732  0.2102  0.3255
  464MOL0     N62557  -0.741   3.624   0.474 -0.6278 -0.1024 -0.4505
  464MOL0     C62558   0.254   3.447   0.852 -0.3475  0.4033  0.4443
  464MOL0     C62559   0.338   3.428   0.961  1.0743 -0.4052  0.3619
  464MOL0     C62560   0.726   3.384   1.177 -0.7353  0.7368  0.5555
  464MOL0     C62561   0.865   3.365   1.173 -0.2649  0.2060 -0.1454
  464MOL0     C62562   0.937   3.313   1.291 -0.2814 -0.5442 -0.5363
  464MOL0     C62563   0.866   3.295   1.418  0.6223  0.1823  0.7439
  464MOL0     O62564   0.924   3.254   1.535  0.3738 -0.7248 -0.3257
  464MOL0     C62565   1.063   3.255   1.555 -0.0602  1.3206 -0.3375
  464MOL0     C62566   1.100   3.391   1.617 -0.5190  0.1761 -0.2665
  464MOL0     C62567   1.006   3.454   1.713  0.0570 -0.4347 -0.0103
  464MOL0     C62568   1.036   3.599   1.738 -0.7769 -0.9351 -0.2676
  464MOL0     C62569   0.939   3.658   1.841 -1.0997 -0.0223  0.1806
  464MOL0     C62570   0.843   3.686   1.914 -0.1760  0.2019  0.1438
  464MOL0     C62571   0.729   3.306   1.408 -0.5653 -0.7212  0.2187
  464MOL0     C62572   0.662   3.352   1.294  0.0299  0.4029 -0.2646
  464MOL0     H62573   0.590   3.630   0.850 -0.3314  0.1713  0.1599
  464MOL0     H62574   0.429   3.671   0.665 -1.1861 -0.8772 -1.8698
  464MOL0     H62575   0.054   3.422   0.664  0.3025  0.2287 -1.5932
  464MOL0     H62576   0.008   3.582   0.733  1.2423  1.2399 -0.1050
  464MOL0     H62577  -0.020   3.669   0.502  0.7239 -0.3098 -0.0117
  464MOL0     H62578   0.069   3.531   0.444 -2.2365 -0.3546 -1.9892
  464MOL0     H62579  -0.180   3.522   0.402  1.1252  0.8464 -0.0129
  464MOL0     H62580  -0.123   3.398   0.512  0.8129 -0.9401 -2.7892
  464MOL0     H62581  -0.196   3.604   0.696  0.7407 -0.0025 -0.5066
  464MOL0     H62582  -0.291   3.650   0.558  3.3395  1.1729  0.4319
  464MOL0     H62583  -0.339   3.381   0.694  1.2071  0.5226  0.0591
  464MOL0     H62584  -0.433   3.537   0.703 -0.9291 -1.0310 -0.3874
  464MOL0     H62585  -0.468   3.517   0.465 -0.8340  0.0026  2.0486
  464MOL0     H62586  -0.387   3.357   0.469  2.7726  1.5446  1.2082
  464MOL0     H62587  -0.613   3.280   0.491 -0.4184 -1.1532  0.4693
  464MOL0     H62588  -0.539   3.282   0.646  3.2906  2.0763  0.4798
  464MOL0     H62589  -0.669   3.500   0.700 -2.5128 -0.4857  1.3994
  464MOL0     H62590  -0.762   3.354   0.674  1.3940 -0.6863  1.8222
  464MOL0     H62591  -0.841   3.307   0.415 -0.6394  0.0159 -2.7155
  464MOL0     H62592  -0.818   3.438   0.128 -1.0128 -0.2015 -1.3717
  464MOL0     H62593  -0.952   3.357   0.191  0.6079  0.0870 -2.2622
  464MOL0     H62594  -0.938   3.648   0.127  2.7824 -2.3355 -1.2404
  464MOL0     H62595  -1.086   3.587   0.201 -1.0007 -0.8134  0.9011
  464MOL0     H62596  -0.973   3.473  -0.058  1.6123  1.0863  3.0695
  464MOL0     H62597  -1.094   3.601  -0.072  0.2149  1.9704  2.6012
  464MOL0     H62598  -1.219   3.424  -0.099  2.1820  1.6766 -1.1277
  464MOL0     H62599  -1.247   3.447   0.074  0.2985  3.8543 -0.5212
  464MOL0     H62600  -1.064   3.045  -0.036 -0.4129 -1.5948 -1.3328
  464MOL0     H62601  -1.173   2.798  -0.158  3.8480 -0.2420  0.8909
  464MOL0     H62602  -1.091   2.799  -0.019  0.0712 -0.0183 -0.0103
  464MOL0     H62603  -1.267   2.739  -0.021  0.8100  1.1831  0.9867
  464MOL0     H62604  -1.785   2.841  -0.110  1.0725 -0.2469  0.3324
  464MOL0     H62605  -1.936   2.673  -0.137  0.2235  1.2508  0.3066
  464MOL0     H62606  -2.022   2.460  -0.181 -0.7368 -0.5163 -1.2283
  464MOL0     H62607  -1.891   2.359  -0.143  1.5347  2.6956  1.4613
  464MOL0     H62608  -2.138   2.249  -0.200 -1.1015 -2.6360  0.6562
  464MOL0     H62609  -2.043   2.173  -0.070  3.1339  1.3225 -0.6161
  464MOL0     H62610  -2.168   2.332   0.085 -0.2061  2.7853 -1.2718
  464MOL0     H62611  -2.263   2.204   0.009  0.5629 -1.0892 -1.3031
  464MOL0     H62612  -2.267   2.511  -0.035 -0.6284  0.0766 -2.6582
  464MOL0     H62613  -2.328   2.399  -0.155  2.6274  1.6357 -1.3294
  464MOL0     H62614  -2.504   2.484   0.019  0.4720 -0.1134  0.9873
  464MOL0     H62615  -2.405   2.409   0.145 -1.3701  0.9096  0.5499
  464MOL0     H62616  -2.478   2.184   0.031  1.7633  0.8136 -1.4365
  464MOL0     H62617  -2.609   2.288   0.071  0.5650  1.7224  1.6984
  464MOL0     H62618  -2.547   2.170  -0.195  3.2184  0.9407  0.9610
  464MOL0     H62619  -2.527   2.332  -0.206 -2.9014  1.3559 -0.1660
  464MOL0     H62620  -2.760   2.376  -0.100  0.9934 -1.1097  2.1814
  464MOL0     H62621  -2.780   2.194  -0.119 -0.2486 -0.4182 -2.7266
  464MOL0     H62622  -1.760   2.449   0.186  1.3786  1.5153  0.4431
  464MOL0     H62623  -1.574   2.614   0.189 -0.9839  0.7037  1.9826
  464MOL0     H62624  -1.541   3.119   0.044  0.1552  1.0113 -1.4138
  464MOL0     H62625  -1.410   3.298   0.068 -1.1897 -0.4759 -0.9744
  464MOL0     H62626   0.155   3.401   0.846 -0.9125  1.7468 -1.5786
  464MOL0     H62627   0.310   3.363   1.043  1.5859  1.0725  1.7578
  464MOL0     H62628   0.922   3.382   1.082  0.9963 -3.9550 -0.3290
  464MOL0     H62629   1.045   3.307   1.292 -0.1666  1.1383  0.4697
  464MOL0     H62630   1.085   3.166   1.614  1.3634 -0.0466 -2.7492
  464MOL0     H62631   1.131   3.236   1.471 -1.3148 -1.2586 -0.8814
  464MOL0     H62632   1.121   3.459   1.533  1.2572  0.3598  0.2950
  464MOL0     H62633   1.188   3.368   1.677 -1.5447 -2.9676  0.1882
  464MOL0     H62634   1.006   3.396   1.806 -1.5117 -2.5408 -1.2208
  464MOL0     H62635   0.903   3.450   1.677  0.0962  1.4780 -0.4484
  464MOL0     H62636   1.025   3.666   1.653  1.1312 -1.9617 -1.4048
  464MOL0     H62637   1.134   3.611   1.785 -1.6503  0.5095  1.2844
  464MOL0     H62638   0.755   3.705   1.971  0.4815  1.0415  0.9079
  464MOL0     H62639   0.662   3.297   1.492 -2.3668 -0.9127 -1.1770
  464MOL0     H62640   0.554   3.348   1.288  0.0579 -1.2036 -0.2047
  465MOL0     O62641  10.610  10.382   5.897  0.5191 -0.0948 -0.8655
  465MOL0     C62642  10.654  10.424   6.005  0.2708 -0.1600 -0.5753
  465MOL0     O62643  10.696  10.558   6.028  0.1005  0.7202 -0.4439
  465MOL0     C62644  10.667  10.657   5.936  0.8580 -0.4235 -1.3466
  465MOL0     C62645  10.744  10.681   5.816 -0.4967  0.4901 -0.2234
  465MOL0     C62646  10.697  10.765   5.712  0.4795  0.2920  0.2523
  465MOL0     C62647  10.571  10.832   5.724 -0.6443  0.3747 -0.1545
  465MOL0     O62648  10.546  10.920   5.621 -0.1389  0.0773  0.5837
  465MOL0     C62649  10.460  11.026   5.663  0.0353 -1.0225 -0.0929
  465MOL0     C62650  10.471  11.143   5.570  1.0067  0.2738  0.4643
  465MOL0     C62651  10.391  11.273   5.582  0.1271 -0.2223 -0.0938
  465MOL0     C62652  10.407  11.347   5.713  0.0328 -0.7064 -0.6336
  465MOL0     C62653  10.338  11.491   5.703 -0.4229 -0.3881 -0.3816
  465MOL0     C62654  10.364  11.569   5.826  0.7796 -0.1325 -0.3923
  465MOL0     C62655  10.320  11.520   5.967 -0.2746  1.3334 -0.6534
  465MOL0     C62656  10.171  11.490   5.976  0.6444 -0.4287 -0.3207
  465MOL0     N62657  10.086  11.611   5.949  0.6504  0.2197 -0.0627
  465MOL0     C62658  10.121  11.745   5.962  0.1441  0.1846  0.5469
  465MOL0     C62659   9.995  11.803   5.964  0.4786 -0.8571  0.0448
  465MOL0     C62660   9.977  11.953   5.977  0.2775  0.0759 -0.5355
  465MOL0     C62661  10.048  12.006   6.107 -0.0826 -0.9719 -0.6399
  465MOL0     C62662  10.013  12.150   6.147 -0.0370  0.8735 -0.1371
  465MOL0     C62663   9.866  12.172   6.177  0.7927 -0.5105 -0.1854
  465MOL0     O62664   9.792  12.211   6.067  0.3283 -0.7585 -0.1716
  465MOL0     C62665   9.689  12.296   6.093  0.1682 -0.0997  0.9421
  465MOL0     C62666   9.664  12.401   5.996 -0.4584  0.6779 -0.6920
  465MOL0     C62667   9.539  12.476   5.998 -0.3009  0.3020 -0.2624
  465MOL0     C62668   9.513  12.584   5.893 -0.7912 -0.4817  0.8884
  465MOL0     C62669   9.452  12.444   6.103 -0.1868  1.1763  0.6745
  465MOL0     C62670   9.313  12.504   6.119 -0.5616  0.3451  0.2366
  465MOL0     O62671   9.285  12.635   6.070  0.9101  0.2377  0.0767
  465MOL0     C62672   9.151  12.662   6.069 -0.3168 -0.0377 -0.2891
  465MOL0     C62673   9.101  12.723   6.183  0.1191  0.3840 -1.2060
  465MOL0     C62674   8.965  12.761   6.185  1.0093  0.1011  0.0788
  465MOL0     C62675   8.878  12.732   6.082  1.0043 -0.0202 -0.4741
  465MOL0     O62676   8.741  12.760   6.079 -0.0234 -0.2018  0.3779
  465MOL0     C62677   8.677  12.803   6.201  0.4782 -0.1403  0.3342
  465MOL0     C62678   8.545  12.874   6.165  0.0437 -0.7080 -0.4244
  465MOL0     C62679   8.490  12.951   6.291 -0.0828 -0.1492  0.0908
  465MOL0     C62680   8.344  12.984   6.272  0.3588  0.5882 -0.2787
  465MOL0     C62681   8.285  13.036   6.407  0.5071  0.2221  0.6641
  465MOL0     C62682   8.139  12.978   6.444 -1.1065 -0.0709 -0.6053
  465MOL0     C62683   8.117  13.013   6.586 -0.0412 -0.9278  0.3532
  465MOL0     C62684   7.985  12.975   6.637  0.5519 -0.0064 -0.2133
  465MOL0    Cl62685   7.978  13.021   6.817  0.4829  0.2693  0.2357
  465MOL0     C62686   8.929  12.672   5.972 -0.5883 -0.9010  0.5135
  465MOL0     C62687   9.071  12.647   5.967  0.9861  0.3353  0.1546
  465MOL0     O62688   9.229  12.427   6.171  1.0526 -1.1436 -0.2914
  465MOL0     C62689   9.482  12.344   6.199  0.1630  0.9161 -0.5135
  465MOL0     C62690   9.599  12.269   6.193  0.2089 -0.6615 -0.6564
  465MOL0     N62691   9.893  11.713   5.952  0.7769 -0.0324 -0.2558
  465MOL0     N62692   9.946  11.600   5.938  0.1698  1.2607 -0.5873
  465MOL0     C62693  10.495  10.814   5.843 -0.9262 -1.0687 -0.3183
  465MOL0     C62694  10.539  10.723   5.943 -1.1815  0.0529  0.0425
  465MOL0     C62695  10.653  10.323   6.117  0.0251 -0.7317 -0.2820
  465MOL0     C62696  10.696  10.352   6.245 -0.6924 -1.1167 -0.3917
  465MOL0     C62697  10.709  10.266   6.347 -0.0385  1.4181 -0.3790
  465MOL0     C62698  10.684  10.132   6.329 -0.4014 -0.9727 -0.3935
  465MOL0     O62699  10.695  10.045   6.436  0.7916  0.2931 -0.1355
  465MOL0     C62700  10.743   9.912   6.419  0.0476 -0.5309 -0.1318
  465MOL0     C62701  10.880   9.917   6.341  0.4449 -0.3363  0.7318
  465MOL0     C62702  10.979  10.011   6.406 -0.2184 -0.0676 -0.5973
  465MOL0     C62703  11.105  10.033   6.313  0.9359  0.1954 -0.3438
  465MOL0     C62704  11.223  10.079   6.389  0.9677 -0.3818  0.4232
  465MOL0     C62705  11.327  10.098   6.443 -0.1892  0.0568  0.1065
  465MOL0     C62706  10.641  10.093   6.214  0.8207 -1.2251  0.7579
  465MOL0     C62707  10.619  10.180   6.095 -0.9527  0.4072 -0.8693
  465MOL0     H62708  10.834  10.624   5.797 -0.4641  0.2825  0.5173
  465MOL0     H62709  10.761  10.788   5.627 -2.2441  2.3358 -1.4540
  465MOL0     H62710  10.354  10.996   5.661  0.0825 -1.3066  1.0042
  465MOL0     H62711  10.486  11.060   5.763 -0.6077  0.1550 -0.3055
  465MOL0     H62712  10.572  11.184   5.568  0.3432  1.9428 -1.4901
  465MOL0     H62713  10.450  11.103   5.471  1.6156  1.4023 -0.1301
  465MOL0     H62714  10.430  11.339   5.504 -1.1090  1.7759  0.8982
  465MOL0     H62715  10.287  11.244   5.564  0.6673 -1.5451 -1.2556
  465MOL0     H62716  10.349  11.295   5.790  1.6881  0.6091  1.6260
  465MOL0     H62717  10.514  11.349   5.736 -0.3663  1.2513  1.3439
  465MOL0     H62718  10.392  11.548   5.628  1.5179 -2.5417 -0.7489
  465MOL0     H62719  10.231  11.484   5.681 -0.4230  1.8790 -1.2978
  465MOL0     H62720  10.473  11.571   5.826  0.7977 -0.8988 -0.1928
  465MOL0     H62721  10.336  11.674   5.813 -1.1879 -0.5279  0.4046
  465MOL0     H62722  10.371  11.425   5.987 -1.2314  0.5906 -1.6303
  465MOL0     H62723  10.335  11.590   6.050 -3.3745  0.5688  0.6834
  465MOL0     H62724  10.150  11.458   6.078  4.3527  3.4219  2.0047
  465MOL0     H62725  10.153  11.416   5.898 -1.3933 -2.6462  2.0764
  465MOL0     H62726  10.213  11.800   5.977 -0.1810  0.5990  1.0770
  465MOL0     H62727  10.033  12.006   5.900 -0.2878  1.3323 -0.1084
  465MOL0     H62728   9.871  11.981   5.977  0.0825 -0.3607  2.1400
  465MOL0     H62729  10.155  12.011   6.088  0.7551  1.7832  3.3320
  465MOL0     H62730  10.027  11.937   6.189  0.9593  1.0947  1.4953
  465MOL0     H62731  10.032  12.225   6.069 -2.9699  3.8513  1.7055
  465MOL0     H62732  10.078  12.163   6.234 -2.0188 -1.5303  1.8750
  465MOL0     H62733   9.855  12.235   6.266  1.4632  0.1179 -0.5367
  465MOL0     H62734   9.819  12.075   6.195  0.0610 -0.0970  0.1588
  465MOL0     H62735   9.737  12.415   5.917  0.6126 -2.5843 -0.4487
  465MOL0     H62736   9.486  12.678   5.943  0.9285 -0.1639  1.2984
  465MOL0     H62737   9.614  12.607   5.856 -0.0516 -4.2805  0.1749
  465MOL0     H62738   9.436  12.555   5.822  0.3260 -2.4617  0.4120
  465MOL0     H62739   9.166  12.747   6.267  0.1347 -2.6235 -0.2238
  465MOL0     H62740   8.931  12.815   6.273  3.3860  0.7372  0.6964
  465MOL0     H62741   8.676  12.727   6.279  0.9343  0.3598  0.8424
  465MOL0     H62742   8.733  12.881   6.253  1.2025 -1.6697  1.9148
  465MOL0     H62743   8.569  12.957   6.097 -0.1018 -1.1668 -1.0391
  465MOL0     H62744   8.464  12.809   6.132 -2.2901  0.8769  1.7587
  465MOL0     H62745   8.544  13.044   6.308  0.2017 -0.0173 -1.4251
  465MOL0     H62746   8.509  12.891   6.381  4.3937 -0.8708 -1.0900
  465MOL0     H62747   8.318  13.055   6.194 -0.1393  0.3175 -0.3657
  465MOL0     H62748   8.283  12.897   6.245  0.3133 -0.5448  3.0609
  465MOL0     H62749   8.288  13.145   6.416  1.6930  0.3006 -0.4375
  465MOL0     H62750   8.350  13.004   6.490  1.1157 -1.1251 -0.2990
  465MOL0     H62751   8.071  13.031   6.376 -2.1485  0.6563  0.9350
  465MOL0     H62752   8.129  12.870   6.434  1.3960 -0.2475 -1.8278
  465MOL0     H62753   8.148  13.117   6.601  4.6917 -2.3981  2.6464
  465MOL0     H62754   8.189  12.954   6.642 -0.1035 -0.2557  1.1629
  465MOL0     H62755   7.984  12.866   6.640 -0.5318  0.0057  0.3279
  465MOL0     H62756   7.902  13.008   6.573  0.6593 -2.2204 -1.6057
  465MOL0     H62757   8.870  12.646   5.884  1.2534  1.0389 -1.4184
  465MOL0     H62758   9.108  12.605   5.874 -0.9278 -1.3394  0.0961
  465MOL0     H62759   9.412  12.314   6.276  0.5866 -1.9864 -1.1610
  465MOL0     H62760   9.631  12.196   6.267  0.6900  0.3941  0.2246
  465MOL0     H62761  10.407  10.875   5.860 -0.0037 -0.1772  1.4704
  465MOL0     H62762  10.475  10.714   6.030 -1.1334  0.7233  0.1584
  465MOL0     H62763  10.703  10.460   6.259  1.5446 -0.6738 -3.6485
  465MOL0     H62764  10.735  10.300   6.447  1.0697  1.3075 -0.6120
  465MOL0     H62765  10.760   9.875   6.521  1.5877 -0.7776 -0.4618
  465MOL0     H62766  10.668   9.845   6.376  0.3181 -0.1968 -1.1560
  465MOL0     H62767  10.876   9.954   6.239  1.4938 -1.3435  0.3015
  465MOL0     H62768  10.926   9.817   6.344 -1.3379 -1.1793  1.0841
  465MOL0     H62769  11.007   9.960   6.498  3.3058  1.2473 -0.7700
  465MOL0     H62770  10.929  10.106   6.427 -2.5148 -1.9497  3.5415
  465MOL0     H62771  11.079  10.093   6.225  2.2517  0.3982 -0.6048
  465MOL0     H62772  11.120   9.933   6.269 -1.9812  0.6135 -2.7020
  465MOL0     H62773  11.420  10.138   6.479  0.9041  2.8565 -4.8159
  465MOL0     H62774  10.610   9.994   6.183 -0.4849  0.0878 -2.5192
  465MOL0     H62775  10.579  10.144   6.001  1.7365 -2.9810 -0.8743
  466MOL0     O62776   3.825   1.531   8.410  0.6984  0.8536  0.1426
  466MOL0     C62777   3.894   1.532   8.508  0.2342  0.0446 -0.1686
  466MOL0     O62778   3.845   1.522   8.633  0.0973  0.1578 -0.7385
  466MOL0     C62779   3.708   1.513   8.654 -0.1697  0.4230 -0.9096
  466MOL0     C62780   3.603   1.571   8.584 -0.3043 -0.1069 -0.2962
  466MOL0     C62781   3.471   1.554   8.628 -0.4040 -0.0275  0.5606
  466MOL0     C62782   3.448   1.483   8.744 -0.7028  0.0157  0.0940
  466MOL0     O62783   3.320   1.459   8.796  0.3797 -0.5234  0.4554
  466MOL0     C62784   3.224   1.424   8.687 -0.1786  0.2403  0.2155
  466MOL0     C62785   3.081   1.398   8.758  0.4853  0.2469  0.6864
  466MOL0     C62786   3.088   1.295   8.883 -0.2772  0.8013 -0.1576
  466MOL0     C62787   2.941   1.276   8.916 -0.0814  0.4694 -0.4673
  466MOL0     C62788   2.928   1.175   9.031  0.3443 -0.6269  0.6538
  466MOL0     C62789   2.785   1.152   9.097 -0.6276 -0.6999 -0.1570
  466MOL0     C62790   2.682   1.095   8.997  0.2188 -0.9409  1.0338
  466MOL0     C62791   2.553   1.090   9.074  1.0085  0.3738 -0.2749
  466MOL0     N62792   2.441   1.022   9.003  0.5413 -0.0157 -1.0087
  466MOL0     C62793   2.311   1.035   9.037 -0.0316  0.2842  0.0726
  466MOL0     C62794   2.246   0.960   8.939  0.7040  0.1895  1.3219
  466MOL0     C62795   2.096   0.940   8.918  0.0745 -0.2474  0.6016
  466MOL0     C62796   2.010   0.994   9.033  0.4227  0.1758 -0.1008
  466MOL0     C62797   2.010   0.909   9.167 -0.3498 -0.9339 -1.2621
  466MOL0     C62798   1.910   0.790   9.152 -0.0718 -0.1727 -0.5825
  466MOL0     O62799   1.778   0.845   9.142 -0.2547  0.0749  0.4931
  466MOL0     C62800   1.671   0.760   9.142  0.2049 -1.0295 -0.9766
  466MOL0     C62801   1.661   0.624   9.131  0.3804  0.1331 -0.5669
  466MOL0     C62802   1.543   0.551   9.144  0.6648 -0.0681  0.0326
  466MOL0     C62803   1.544   0.396   9.158 -0.4463 -0.2305 -0.3005
  466MOL0     C62804   1.421   0.626   9.142  0.6057  0.0755 -0.2302
  466MOL0     C62805   1.287   0.569   9.182 -0.1201  0.0563 -0.2086
  466MOL0     O62806   1.278   0.446   9.249 -0.7441 -0.4201  0.0506
  466MOL0     C62807   1.157   0.384   9.248 -0.0485 -0.0670 -0.2626
  466MOL0     C62808   1.058   0.445   9.333  0.9048  0.6090  0.0236
  466MOL0     C62809   0.932   0.381   9.348  0.4457  0.5167  0.9601
  466MOL0     C62810   0.910   0.252   9.291 -0.5004 -0.0031 -0.5850
  466MOL0     O62811   0.790   0.185   9.306  0.7028  0.1114  0.7964
  466MOL0     C62812   0.742   0.073   9.227 -0.3110 -0.6995 -0.4762
  466MOL0     C62813   0.583   0.081   9.239  0.7773 -0.2153  0.3469
  466MOL0     C62814   0.512   0.087   9.380  0.6694  0.3460 -0.8412
  466MOL0     C62815   0.362   0.080   9.362 -0.0715  0.3476  0.7804
  466MOL0     C62816   0.294   0.044   9.491 -0.3996  0.1363 -0.3446
  466MOL0     C62817   0.143   0.060   9.472 -0.0279 -0.7305 -0.0149
  466MOL0     C62818   0.070  -0.022   9.587  0.4149  0.2346  0.5127
  466MOL0     C62819  -0.080  -0.021   9.551  1.1354 -0.2615 -0.0635
  466MOL0    Cl62820  -0.184  -0.113   9.660  0.6420 -0.6201 -0.6535
  466MOL0     C62821   1.008   0.195   9.204  0.9241 -0.4608  0.4388
  466MOL0     C62822   1.134   0.266   9.189  0.6372 -0.1713  0.1766
  466MOL0     O62823   1.188   0.635   9.144 -0.5918 -0.6847 -0.0190
  466MOL0     C62824   1.433   0.766   9.138  0.6450  0.2645 -0.0839
  466MOL0     C62825   1.551   0.829   9.140 -0.5604 -0.4130 -0.6465
  466MOL0     N62826   2.331   0.929   8.841 -0.9633  0.2875  0.2387
  466MOL0     N62827   2.451   0.954   8.886  0.2931  0.0525 -0.1906
  466MOL0     C62828   3.556   1.424   8.819  0.2269 -0.0745  0.1535
  466MOL0     C62829   3.685   1.436   8.772  1.3135 -0.2779  0.9823
  466MOL0     C62830   4.038   1.541   8.477 -0.0859  0.2442  0.4963
  466MOL0     C62831   4.087   1.600   8.363  0.4421 -0.5961 -0.5910
  466MOL0     C62832   4.228   1.598   8.339  0.2387  1.6195 -0.4386
  466MOL0     C62833   4.318   1.544   8.437  1.0249  0.3871 -0.3547
  466MOL0     O62834   4.456   1.539   8.418 -0.6541 -0.5128 -0.3401
  466MOL0     C62835   4.523   1.578   8.293  0.2404  0.0105  0.7187
  466MOL0     C62836   4.664   1.538   8.293 -0.2970 -0.0521 -0.7061
  466MOL0     C62837   4.753   1.568   8.421 -0.5893  0.3646  0.6533
  466MOL0     C62838   4.800   1.712   8.419  0.1478 -0.0120 -0.1630
  466MOL0     C62839   4.902   1.740   8.519 -0.2554  1.6568  0.4787
  466MOL0     C62840   4.979   1.769   8.603 -0.2769  0.3169 -0.8853
  466MOL0     C62841   4.253   1.468   8.547  0.2010  0.6837 -0.0345
  466MOL0     C62842   4.115   1.463   8.567 -0.9196  0.2511 -0.3588
  466MOL0     H62843   3.625   1.641   8.504 -0.6686  0.9833  0.5447
  466MOL0     H62844   3.390   1.592   8.567 -1.6010 -0.0235  2.0912
  466MOL0     H62845   3.212   1.524   8.643 -0.6963  1.2144  2.4000
  466MOL0     H62846   3.262   1.341   8.627  1.2607  1.4953 -0.6590
  466MOL0     H62847   3.046   1.497   8.788  0.6489  1.6469 -3.2486
  466MOL0     H62848   3.011   1.365   8.681  1.1213  2.1487 -0.7834
  466MOL0     H62849   3.118   1.195   8.850 -3.2813  0.3921 -1.9909
  466MOL0     H62850   3.145   1.328   8.970 -0.9418 -0.5124  0.8035
  466MOL0     H62851   2.905   1.373   8.953  1.5985  0.9811 -0.0993
  466MOL0     H62852   2.885   1.240   8.829 -0.8820 -1.8608  0.9253
  466MOL0     H62853   2.961   1.081   8.986 -0.1933  0.4561 -2.2032
  466MOL0     H62854   2.999   1.185   9.113 -2.2596 -0.3451  3.0043
  466MOL0     H62855   2.799   1.089   9.185  1.1456 -0.1041  0.0258
  466MOL0     H62856   2.752   1.251   9.130  2.1172  1.2796 -2.7292
  466MOL0     H62857   2.675   1.169   8.917  1.5334 -2.1706 -0.2832
  466MOL0     H62858   2.723   1.003   8.953  0.9876 -0.5104  0.8295
  466MOL0     H62859   2.520   1.191   9.100  0.5148 -0.1891  1.4216
  466MOL0     H62860   2.563   1.026   9.162  0.3067 -0.5218 -0.8228
  466MOL0     H62861   2.264   1.079   9.124 -0.0086 -0.1990  0.3336
  466MOL0     H62862   2.083   1.002   8.829 -0.7883 -3.2429 -1.5404
  466MOL0     H62863   2.073   0.835   8.895  1.0893 -0.8228  2.0435
  466MOL0     H62864   1.907   0.991   8.997  1.1082 -2.8667 -2.1989
  466MOL0     H62865   2.050   1.091   9.064 -1.2913  1.1656 -0.8844
  466MOL0     H62866   1.994   0.970   9.256 -0.6511  0.0536 -1.9724
  466MOL0     H62867   2.109   0.864   9.177  1.4834  2.4647 -2.3208
  466MOL0     H62868   1.917   0.730   9.243  0.2061  0.9414  0.1483
  466MOL0     H62869   1.941   0.737   9.061 -1.2971  0.0542 -1.1533
  466MOL0     H62870   1.753   0.567   9.118 -1.1891 -2.8370  0.4326
  466MOL0     H62871   1.623   0.351   9.098 -0.9808 -0.8221 -0.5769
  466MOL0     H62872   1.569   0.373   9.262 -0.7348 -1.3447 -0.4671
  466MOL0     H62873   1.449   0.345   9.140  0.4267 -1.6786 -0.9923
  466MOL0     H62874   1.065   0.543   9.380 -1.5640 -0.3567  2.7310
  466MOL0     H62875   0.852   0.433   9.399 -0.9164  0.7366 -1.2378
  466MOL0     H62876   0.772   0.083   9.122 -3.4982 -4.2560 -1.9361
  466MOL0     H62877   0.786  -0.019   9.266 -0.3797 -0.3577  0.4178
  466MOL0     H62878   0.556   0.169   9.179 -2.8360  0.1378  2.2140
  466MOL0     H62879   0.540  -0.006   9.188  0.8832 -0.5980  0.9037
  466MOL0     H62880   0.544   0.171   9.443 -1.9490  1.1890 -0.5271
  466MOL0     H62881   0.542  -0.005   9.431 -2.3290  1.6352  3.8946
  466MOL0     H62882   0.317   0.175   9.332 -4.6527 -0.5357  3.8156
  466MOL0     H62883   0.339   0.006   9.285  0.3046  0.9343  0.0984
  466MOL0     H62884   0.339   0.103   9.571 -2.4116 -1.3340  2.0152
  466MOL0     H62885   0.316  -0.058   9.524  0.8516  1.1278  2.1207
  466MOL0     H62886   0.107   0.163   9.459 -0.7564 -0.8820  0.6955
  466MOL0     H62887   0.105   0.022   9.377 -0.4032  0.9234 -0.5754
  466MOL0     H62888   0.094   0.040   9.674 -0.7581  0.9083  0.3669
  466MOL0     H62889   0.106  -0.125   9.584 -0.3370 -0.0463 -2.7333
  466MOL0     H62890  -0.081  -0.080   9.459 -1.6551 -0.9502  0.3326
  466MOL0     H62891  -0.120   0.079   9.535 -1.5054 -1.2100  0.1169
  466MOL0     H62892   0.987   0.102   9.152  0.9008  0.0217 -0.4331
  466MOL0     H62893   1.217   0.228   9.130  1.1714  1.5131 -0.2250
  466MOL0     H62894   1.345   0.829   9.134  1.4927  1.5339  0.3463
  466MOL0     H62895   1.540   0.937   9.134 -2.3705 -0.5591 -0.2760
  466MOL0     H62896   3.531   1.392   8.920  2.2924 -3.1148 -0.1710
  466MOL0     H62897   3.759   1.384   8.832 -1.9390 -3.6233  2.4785
  466MOL0     H62898   4.006   1.650   8.312 -1.1080 -2.6012 -0.2228
  466MOL0     H62899   4.247   1.667   8.257 -0.8134  2.1405 -0.2569
  466MOL0     H62900   4.482   1.521   8.209 -0.8368  2.7633 -0.7737
  466MOL0     H62901   4.510   1.686   8.277  1.2568  0.1033  0.4225
  466MOL0     H62902   4.716   1.581   8.207 -1.5101  1.4620 -0.7134
  466MOL0     H62903   4.652   1.429   8.284 -0.8452  0.1574 -3.2749
  466MOL0     H62904   4.842   1.506   8.440 -0.9733  0.5412  3.6069
  466MOL0     H62905   4.687   1.550   8.506 -1.2149  0.4161  0.1801
  466MOL0     H62906   4.720   1.787   8.422 -0.2038 -0.4064  0.5815
  466MOL0     H62907   4.854   1.725   8.325  0.1003  1.0226 -0.0614
  466MOL0     H62908   5.044   1.794   8.684 -0.7854  1.2120 -0.7383
  466MOL0     H62909   4.307   1.410   8.621 -3.2471  0.8933  2.8728
  466MOL0     H62910   4.069   1.399   8.641 -1.8750  0.1727 -1.0102
  467MOL0     O62911   1.704  11.078   6.306 -0.2437 -0.5438  0.5692
  467MOL0     C62912   1.687  11.159   6.214 -0.2993 -0.7471 -0.4255
  467MOL0     O62913   1.605  11.144   6.111  0.4300 -0.2449  0.1469
  467MOL0     C62914   1.523  11.034   6.106 -0.3040  0.5611  0.4224
  467MOL0     C62915   1.390  11.050   6.119  0.3221  0.3842 -0.6273
  467MOL0     C62916   1.309  10.948   6.139 -0.0454 -0.1791 -0.2235
  467MOL0     C62917   1.363  10.816   6.128 -1.0538  0.1488  0.3169
  467MOL0     O62918   1.291  10.708   6.164  0.0427 -0.0576  0.8449
  467MOL0     C62919   1.347  10.618   6.267 -0.2258  1.3609  0.2198
  467MOL0     C62920   1.248  10.517   6.320  1.2847 -0.0798 -0.1158
  467MOL0     C62921   1.101  10.575   6.341 -1.5402  0.6609 -0.7037
  467MOL0     C62922   1.017  10.473   6.397  0.0949  0.0833 -0.4765
  467MOL0     C62923   0.870  10.509   6.428 -0.2744 -1.0636 -0.1697
  467MOL0     C62924   0.795  10.531   6.285 -0.1626 -0.6103  0.0018
  467MOL0     C62925   0.641  10.560   6.301  0.0545  0.3045  0.3566
  467MOL0     C62926   0.610  10.709   6.282  0.1316  0.2078  1.2603
  467MOL0     N62927   0.464  10.735   6.312 -0.4861  0.6387 -0.0828
  467MOL0     C62928   0.419  10.780   6.429 -0.1621  0.5557  0.1863
  467MOL0     C62929   0.288  10.819   6.407  0.0747  0.8049 -0.2538
  467MOL0     C62930   0.196  10.835   6.518  0.0716 -0.3796  0.0149
  467MOL0     C62931   0.067  10.913   6.493  0.1796 -0.6915  0.4139
  467MOL0     C62932   0.061  11.068   6.517  0.2057 -0.4663  0.5340
  467MOL0     C62933  -0.043  11.131   6.421  0.1268 -0.0036  0.2737
  467MOL0     O62934  -0.175  11.061   6.427 -0.0769  0.6919 -0.1902
  467MOL0     C62935  -0.239  11.037   6.548 -0.0133 -0.9532 -0.0145
  467MOL0     C62936  -0.231  11.133   6.651  0.9111 -1.1283 -0.3118
  467MOL0     C62937  -0.287  11.103   6.776 -0.2266  0.1286 -0.0349
  467MOL0     C62938  -0.248  11.205   6.876  0.1314  0.0655 -0.1508
  467MOL0     C62939  -0.368  10.982   6.795 -0.5352  0.8515 -0.8340
  467MOL0     C62940  -0.438  10.950   6.919 -0.0250  0.9108  0.5593
  467MOL0     O62941  -0.478  10.815   6.925 -0.8415  0.9141 -0.2589
  467MOL0     C62942  -0.530  10.781   7.047 -0.1067 -0.9276 -0.0427
  467MOL0     C62943  -0.662  10.814   7.084  0.4882 -0.1001  0.0808
  467MOL0     C62944  -0.709  10.793   7.218 -0.4906  0.8851 -0.0613
  467MOL0     C62945  -0.634  10.717   7.311  0.2183 -0.4344  0.1941
  467MOL0     O62946  -0.690  10.700   7.439  0.2713  0.2285 -0.8808
  467MOL0     C62947  -0.594  10.664   7.546 -0.2651  0.3614 -0.3548
  467MOL0     C62948  -0.675  10.666   7.682  0.2226 -0.5673  0.0315
  467MOL0     C62949  -0.728  10.528   7.727  1.0257 -0.1014  0.0850
  467MOL0     C62950  -0.822  10.549   7.846 -0.2146  0.1131 -0.6832
  467MOL0     C62951  -0.874  10.414   7.907 -0.5970 -0.2457  0.8899
  467MOL0     C62952  -0.962  10.450   8.018 -0.2112  0.5056 -0.0404
  467MOL0     C62953  -0.889  10.502   8.152  0.0907 -0.1555  0.3450
  467MOL0     C62954  -0.989  10.557   8.254 -0.0869  0.0963 -0.3326
  467MOL0    Cl62955  -1.074  10.424   8.338  0.2929 -0.2822  0.4430
  467MOL0     C62956  -0.498  10.693   7.270  0.5448  0.6927 -0.9282
  467MOL0     C62957  -0.451  10.716   7.147  0.0318 -1.4081  0.0674
  467MOL0     O62958  -0.443  11.032   7.005 -0.2608  0.5581 -0.8017
  467MOL0     C62959  -0.379  10.898   6.686 -0.6714  0.7136 -0.1613
  467MOL0     C62960  -0.317  10.925   6.566 -0.2267 -0.3957  0.8818
  467MOL0     N62961   0.265  10.800   6.275 -0.1334 -0.6279  0.6973
  467MOL0     N62962   0.374  10.757   6.218  1.0246  0.6177  0.4000
  467MOL0     C62963   1.497  10.799   6.092  0.1098 -0.4335  0.0027
  467MOL0     C62964   1.580  10.906   6.084 -0.5510 -0.0177  0.0612
  467MOL0     C62965   1.761  11.286   6.219 -0.1167  0.5080 -0.8069
  467MOL0     C62966   1.808  11.338   6.337  0.8388  0.2948 -0.2131
  467MOL0     C62967   1.880  11.464   6.346  0.5126  0.4603 -0.1650
  467MOL0     C62968   1.880  11.548   6.232 -0.0859 -0.1161  0.0757
  467MOL0     O62969   1.945  11.669   6.239  0.5128 -0.0585  0.2330
  467MOL0     C62970   1.848  11.768   6.274 -0.1974 -0.7877  0.1521
  467MOL0     C62971   1.927  11.890   6.272  0.1066  0.9214 -0.2908
  467MOL0     C62972   1.948  11.962   6.126  0.1330  1.2777 -0.2898
  467MOL0     C62973   2.063  12.064   6.119 -0.6643 -0.8002  0.8445
  467MOL0     C62974   2.020  12.196   6.180 -0.2805 -0.2490  0.6003
  467MOL0     C62975   1.992  12.303   6.223  0.1201 -0.6891 -0.5719
  467MOL0     C62976   1.811  11.507   6.122  0.5249 -0.0172  0.0806
  467MOL0     C62977   1.760  11.372   6.110 -0.8510 -0.4026  0.1466
  467MOL0     H62978   1.346  11.148   6.134  0.4797  0.4529 -0.6117
  467MOL0     H62979   1.202  10.959   6.155 -0.6120 -4.6311  0.4511
  467MOL0     H62980   1.422  10.555   6.219  0.3818 -0.1283  2.8946
  467MOL0     H62981   1.391  10.681   6.345 -1.2819  0.1438  1.8880
  467MOL0     H62982   1.251  10.431   6.253 -0.9615  0.1870 -0.6279
  467MOL0     H62983   1.287  10.478   6.414 -1.0059 -0.0211  0.9234
  467MOL0     H62984   1.119  10.650   6.419 -0.0893  0.7179 -1.0624
  467MOL0     H62985   1.065  10.623   6.249  1.4699  2.0807 -1.2878
  467MOL0     H62986   1.025  10.381   6.338  2.2603  0.0486 -0.2283
  467MOL0     H62987   1.060  10.443   6.493 -0.3501  0.0261 -0.2942
  467MOL0     H62988   0.825  10.418   6.469 -3.0918  0.4298  0.3074
  467MOL0     H62989   0.862  10.594   6.496 -0.7837 -0.5545 -0.8418
  467MOL0     H62990   0.843  10.608   6.225  0.4470 -0.7557  0.2974
  467MOL0     H62991   0.812  10.442   6.225 -1.4317  0.8963 -2.7621
  467MOL0     H62992   0.593  10.520   6.211  1.1541  2.7658 -1.4148
  467MOL0     H62993   0.607  10.516   6.395  1.4929 -1.7454 -0.0056
  467MOL0     H62994   0.628  10.724   6.175  0.8583 -2.2484  0.9824
  467MOL0     H62995   0.667  10.777   6.347  0.2949  0.0986  1.2342
  467MOL0     H62996   0.468  10.778   6.526 -0.4601  1.6855  0.3680
  467MOL0     H62997   0.174  10.733   6.552  0.7375 -0.3561  0.5580
  467MOL0     H62998   0.242  10.879   6.608 -1.4219 -2.7232  2.0586
  467MOL0     H62999  -0.011  10.873   6.558 -0.3163  0.9659  0.9086
  467MOL0     H63000   0.044  10.888   6.389 -1.5588 -0.6232  0.7631
  467MOL0     H63001   0.166  11.096   6.503  0.4480 -1.4568  0.3442
  467MOL0     H63002   0.027  11.105   6.614 -1.9098  3.0032 -1.3052
  467MOL0     H63003  -0.008  11.121   6.318 -1.7366 -1.0090 -0.3176
  467MOL0     H63004  -0.061  11.237   6.438  0.2477  0.6799 -3.2276
  467MOL0     H63005  -0.160  11.215   6.641 -0.5874  0.7641  3.0343
  467MOL0     H63006  -0.197  11.152   6.957 -1.9872 -3.2513 -0.7981
  467MOL0     H63007  -0.183  11.289   6.850  0.0407 -0.0250 -0.6706
  467MOL0     H63008  -0.341  11.254   6.906 -1.5101 -1.9893 -1.5922
  467MOL0     H63009  -0.723  10.861   7.008  1.2488 -1.0696 -1.1743
  467MOL0     H63010  -0.810  10.813   7.253 -0.6999  0.7511 -0.5741
  467MOL0     H63011  -0.554  10.565   7.521 -1.6289  0.0644 -1.4743
  467MOL0     H63012  -0.516  10.740   7.556  2.1582 -1.6152 -2.6558
  467MOL0     H63013  -0.615  10.692   7.770 -3.5193 -2.4298  3.5011
  467MOL0     H63014  -0.759  10.736   7.678 -0.3037 -1.1667  0.3650
  467MOL0     H63015  -0.643  10.472   7.765  0.7496 -0.0428  0.7972
  467MOL0     H63016  -0.780  10.469   7.650  0.8738 -1.7633  1.4017
  467MOL0     H63017  -0.775  10.610   7.922 -0.1448  0.7249 -1.2051
  467MOL0     H63018  -0.909  10.593   7.795 -1.4234 -3.5259 -2.1397
  467MOL0     H63019  -0.793  10.347   7.938 -1.7356 -2.4005 -0.5023
  467MOL0     H63020  -0.930  10.351   7.837  1.6654 -1.1381 -0.2224
  467MOL0     H63021  -1.030  10.530   7.989  0.6500  2.1606  2.2396
  467MOL0     H63022  -1.026  10.368   8.051 -3.7523  3.0218 -0.1194
  467MOL0     H63023  -0.824  10.589   8.137 -2.2304  1.5598 -0.5223
  467MOL0     H63024  -0.823  10.427   8.194  3.0472  2.3309  0.5028
  467MOL0     H63025  -1.059  10.627   8.207  1.2208  0.9743 -1.0179
  467MOL0     H63026  -0.939  10.619   8.329  0.5564  0.0179 -0.6887
  467MOL0     H63027  -0.426  10.664   7.346 -1.4579  2.4796  1.8281
  467MOL0     H63028  -0.350  10.690   7.118  0.2941 -0.0727 -0.3142
  467MOL0     H63029  -0.437  10.807   6.694 -2.1766  1.6994  0.6941
  467MOL0     H63030  -0.311  10.851   6.486  1.4364  1.0283 -0.4072
  467MOL0     H63031   1.532  10.696   6.095 -0.4456 -0.6635 -0.9518
  467MOL0     H63032   1.688  10.907   6.070 -0.5905  0.1596 -0.2524
  467MOL0     H63033   1.797  11.282   6.430  2.0351  0.5103  0.0667
  467MOL0     H63034   1.927  11.493   6.439 -0.3008  1.1590  0.0323
  467MOL0     H63035   1.772  11.767   6.195 -3.1437 -1.3215  2.7570
  467MOL0     H63036   1.799  11.754   6.371  1.7856  0.1974  1.3599
  467MOL0     H63037   2.030  11.885   6.309  0.0752  1.3258 -0.1369
  467MOL0     H63038   1.878  11.963   6.338  0.8804  0.9820  0.2384
  467MOL0     H63039   1.859  12.026   6.118 -1.0532  1.0151  5.9981
  467MOL0     H63040   1.950  11.887   6.046 -2.0242  1.9709 -1.0722
  467MOL0     H63041   2.070  12.086   6.012 -1.4192  3.6741  1.5117
  467MOL0     H63042   2.150  12.022   6.172  0.1123 -0.9611 -0.5213
  467MOL0     H63043   1.964  12.402   6.254 -2.4991 -1.9062  1.3399
  467MOL0     H63044   1.805  11.580   6.042 -1.8110 -1.4549 -1.1877
  467MOL0     H63045   1.731  11.336   6.011  0.9809 -0.4612 -0.3979
  468MOL0     O63046   8.648   4.778  10.085 -0.0923 -0.6347 -0.5261
  468MOL0     C63047   8.733   4.700  10.042  0.0203 -0.1795 -0.4564
  468MOL0     O63048   8.779   4.605  10.115  0.7541  0.0404  0.0754
  468MOL0     C63049   8.720   4.567  10.234  0.3208 -0.4361 -0.0667
  468MOL0     C63050   8.689   4.641  10.348 -0.7071 -0.3764 -0.2177
  468MOL0     C63051   8.651   4.586  10.473  0.3151 -0.5762 -0.2428
  468MOL0     C63052   8.650   4.449  10.487 -0.3082 -0.1353  0.2878
  468MOL0     O63053   8.649   4.372  10.599  0.3948 -0.2887 -0.4362
  468MOL0     C63054   8.608   4.445  10.717  0.5025  0.5173 -1.2051
  468MOL0     C63055   8.566   4.335  10.823 -0.1805  0.5905  0.0046
  468MOL0     C63056   8.422   4.273  10.804 -0.4232  1.4635 -0.4011
  468MOL0     C63057   8.314   4.346  10.877 -0.4975  0.4178 -1.3805
  468MOL0     C63058   8.164   4.300  10.851 -0.4507 -0.0703 -0.3805
  468MOL0     C63059   8.125   4.346  10.699 -0.3216  0.4838  0.3769
  468MOL0     C63060   8.074   4.500  10.688 -0.5295  0.1348  0.7290
  468MOL0     C63061   8.061   4.525  10.538  0.7175  0.1446  0.9512
  468MOL0     N63062   7.975   4.641  10.506 -0.1538  0.3277 -0.7366
  468MOL0     C63063   7.918   4.664  10.382 -0.0487  0.1555  0.0069
  468MOL0     C63064   7.831   4.762  10.395 -0.0817 -0.9642 -0.4593
  468MOL0     C63065   7.752   4.837  10.298  0.5659  0.4675  0.0460
  468MOL0     C63066   7.608   4.867  10.351 -0.1091 -0.1966 -0.6024
  468MOL0     C63067   7.518   4.946  10.260 -0.6165 -0.1856  0.6728
  468MOL0     C63068   7.542   4.928  10.112 -0.3789  0.7165  0.8662
  468MOL0     O63069   7.439   4.981  10.022 -0.4245 -0.1878 -0.9206
  468MOL0     C63070   7.418   5.127  10.026  0.1769  0.6550  0.3136
  468MOL0     C63071   7.298   5.177   9.963 -0.6408  0.2124  0.3753
  468MOL0     C63072   7.277   5.312   9.947  0.0344  0.0223 -0.1837
  468MOL0     C63073   7.170   5.353   9.848  0.5620  0.6367 -0.8162
  468MOL0     C63074   7.359   5.406  10.016 -0.6209 -0.1317  0.3465
  468MOL0     C63075   7.337   5.556  10.021 -0.8340 -0.2299  0.8615
  468MOL0     O63076   7.452   5.633  10.049 -0.0443  0.0121  0.6992
  468MOL0     C63077   7.435   5.769  10.034  0.5843 -0.5815  0.6773
  468MOL0     C63078   7.508   5.836   9.936 -0.0390 -0.8133  0.8501
  468MOL0     C63079   7.491   5.978   9.915 -0.2022 -0.3820 -0.3029
  468MOL0     C63080   7.405   6.052  10.011  0.1759 -1.3897  0.1926
  468MOL0     O63081   7.377   6.187  10.000  0.5518  0.3073 -0.6365
  468MOL0     C63082   7.426   6.260   9.893  0.3576  0.0547 -0.7257
  468MOL0     C63083   7.563   6.306   9.950  1.1253  0.8041 -0.2552
  468MOL0     C63084   7.652   6.379   9.844 -0.4868 -0.1263  0.1001
  468MOL0     C63085   7.582   6.491   9.767  0.5143  0.2254 -0.5847
  468MOL0     C63086   7.664   6.573   9.669  0.0456 -0.5822  0.1402
  468MOL0     C63087   7.779   6.654   9.734 -0.3541  0.4036  0.7633
  468MOL0     C63088   7.817   6.781   9.652 -0.5345 -0.2838 -0.0807
  468MOL0     C63089   7.967   6.820   9.647 -0.4779  0.2333 -1.1204
  468MOL0    Cl63090   8.029   6.865   9.816 -0.5041 -0.2156  0.3337
  468MOL0     C63091   7.330   5.982  10.108  0.3037 -0.4798 -0.1273
  468MOL0     C63092   7.349   5.839  10.124  0.1131 -0.8668 -0.9903
  468MOL0     O63093   7.220   5.604  10.017  0.2549  0.3146  0.7265
  468MOL0     C63094   7.478   5.354  10.073 -0.8850  0.9828  0.2385
  468MOL0     C63095   7.504   5.217  10.095 -0.5285 -0.1427  0.3828
  468MOL0     N63096   7.829   4.795  10.528 -0.3990 -0.6153  0.2722
  468MOL0     N63097   7.923   4.730  10.596  0.1728  0.2159  0.7839
  468MOL0     C63098   8.683   4.374  10.372 -0.2816  0.4221 -0.0885
  468MOL0     C63099   8.717   4.428  10.242 -0.7893  1.1167 -0.3158
  468MOL0     C63100   8.763   4.714   9.901 -0.0235  0.0161  0.1103
  468MOL0     C63101   8.684   4.797   9.817  0.1774 -0.3200 -0.6659
  468MOL0     C63102   8.702   4.802   9.683  0.1669  0.2815  0.0899
  468MOL0     C63103   8.804   4.736   9.616  0.0719 -0.4817 -0.5397
  468MOL0     O63104   8.837   4.743   9.478  0.0480  0.4237  0.0568
  468MOL0     C63105   8.744   4.774   9.382 -0.2181  0.1477  0.0374
  468MOL0     C63106   8.746   4.918   9.350  0.0300  0.1237 -0.3589
  468MOL0     C63107   8.649   4.945   9.239 -0.0219 -0.6441  1.1644
  468MOL0     C63108   8.669   5.088   9.155  0.6453 -0.0506  0.2950
  468MOL0     C63109   8.803   5.107   9.108  0.2521 -0.9068 -0.7247
  468MOL0     C63110   8.913   5.136   9.070 -0.1043 -0.7247 -0.7449
  468MOL0     C63111   8.863   4.636   9.699 -0.8596  0.1216 -0.3422
  468MOL0     C63112   8.838   4.616   9.832  0.3013 -0.8424 -0.4175
  468MOL0     H63113   8.689   4.750  10.349 -0.6839 -0.3589  1.7698
  468MOL0     H63114   8.626   4.659  10.550  0.1762 -0.8278 -0.0456
  468MOL0     H63115   8.689   4.508  10.754 -0.4780  1.3838 -0.4869
  468MOL0     H63116   8.526   4.513  10.693  1.9868  2.6619 -0.4635
  468MOL0     H63117   8.637   4.252  10.827 -0.5129  0.2781 -0.3910
  468MOL0     H63118   8.559   4.383  10.921  0.9864 -1.3946  1.1291
  468MOL0     H63119   8.402   4.281  10.697 -1.4052 -0.6103 -0.4135
  468MOL0     H63120   8.418   4.170  10.840 -2.1589  0.5821 -2.8592
  468MOL0     H63121   8.339   4.320  10.980  3.3063  1.0078 -2.0203
  468MOL0     H63122   8.317   4.455  10.874  1.6970  0.7719  3.7815
  468MOL0     H63123   8.156   4.191  10.853  0.7100 -0.1558  0.6633
  468MOL0     H63124   8.091   4.335  10.923  2.3499  2.6663  1.3767
  468MOL0     H63125   8.213   4.329  10.636  1.0222  2.2035  1.6841
  468MOL0     H63126   8.044   4.283  10.661 -0.7663  2.1934 -1.6870
  468MOL0     H63127   7.988   4.516  10.754 -0.0677  5.7109  0.4483
  468MOL0     H63128   8.151   4.561  10.736  0.0700  0.5234 -0.6897
  468MOL0     H63129   8.018   4.438  10.489  1.7403 -0.0140  0.3195
  468MOL0     H63130   8.164   4.531  10.502  0.7260  0.4126  1.0124
  468MOL0     H63131   7.938   4.617  10.287 -1.2033 -0.0964 -0.1300
  468MOL0     H63132   7.800   4.933  10.278 -1.0637  0.7425 -3.2760
  468MOL0     H63133   7.744   4.770  10.212  0.3588  2.0962 -1.2586
  468MOL0     H63134   7.611   4.925  10.444 -0.0998 -2.0737  0.6151
  468MOL0     H63135   7.582   4.767  10.387  0.6782  0.1729  1.1007
  468MOL0     H63136   7.523   5.048  10.299  4.1613 -0.4909  1.5536
  468MOL0     H63137   7.423   4.899  10.286 -0.9782 -1.6440 -2.7832
  468MOL0     H63138   7.548   4.820  10.098 -1.9090  0.4637  1.9140
  468MOL0     H63139   7.640   4.967  10.081 -0.3280  0.3060  0.4986
  468MOL0     H63140   7.229   5.103   9.924 -0.9882  0.4965  0.4420
  468MOL0     H63141   7.092   5.391   9.914  2.1278 -0.1721  1.6102
  468MOL0     H63142   7.223   5.416   9.776  2.3166 -2.0479 -2.0640
  468MOL0     H63143   7.140   5.266   9.788 -0.4049  1.4901 -1.6118
  468MOL0     H63144   7.572   5.781   9.867 -0.5019  0.6086 -0.8015
  468MOL0     H63145   7.539   6.029   9.833  1.7471 -0.4510  0.7451
  468MOL0     H63146   7.431   6.224   9.790  1.0126  1.5133 -1.2304
  468MOL0     H63147   7.368   6.351   9.875  2.9054  2.8693  3.5188
  468MOL0     H63148   7.544   6.364  10.041 -0.5301 -2.5523  1.7272
  468MOL0     H63149   7.611   6.210   9.968  2.0801  1.7018  2.5936
  468MOL0     H63150   7.691   6.296   9.784 -4.9018 -3.1873  1.0199
  468MOL0     H63151   7.729   6.430   9.903  0.8285 -2.2295  0.3176
  468MOL0     H63152   7.503   6.431   9.720  2.3480 -1.4920 -1.6326
  468MOL0     H63153   7.533   6.561   9.835 -0.4833  0.3947 -1.4423
  468MOL0     H63154   7.598   6.652   9.632  0.4559  0.1479  0.9045
  468MOL0     H63155   7.696   6.508   9.587 -1.2209 -0.6652 -0.3134
  468MOL0     H63156   7.759   6.669   9.840  1.7576  1.1472  1.1028
  468MOL0     H63157   7.865   6.587   9.734 -0.3117  0.4588  0.8296
  468MOL0     H63158   7.771   6.869   9.698  1.9679  1.0093  0.1463
  468MOL0     H63159   7.787   6.765   9.548  1.3023 -2.0206 -0.4005
  468MOL0     H63160   7.978   6.904   9.577 -0.8443  0.7188 -0.6062
  468MOL0     H63161   8.009   6.731   9.598 -0.5198  0.2250 -1.1419
  468MOL0     H63162   7.254   6.033  10.166 -1.7728 -2.8452 -0.6001
  468MOL0     H63163   7.310   5.774  10.201  2.5717 -1.7349 -0.3963
  468MOL0     H63164   7.553   5.430  10.092  0.5085 -0.5476  1.1671
  468MOL0     H63165   7.603   5.184  10.127 -0.3649 -0.1023 -0.0809
  468MOL0     H63166   8.704   4.268  10.380 -2.3641 -0.1816 -1.7241
  468MOL0     H63167   8.738   4.372  10.152 -2.5139 -0.2151  0.0661
  468MOL0     H63168   8.611   4.865   9.861  1.7549  0.4187  0.9232
  468MOL0     H63169   8.631   4.846   9.614 -0.0490 -0.8606 -0.4285
  468MOL0     H63170   8.792   4.719   9.301  1.3585  1.1149  0.2711
  468MOL0     H63171   8.648   4.729   9.404 -0.0053 -2.2895 -3.3042
  468MOL0     H63172   8.845   4.950   9.317 -0.4342  1.6309 -0.3536
  468MOL0     H63173   8.712   4.978   9.435 -1.6294 -1.8657  0.4762
  468MOL0     H63174   8.557   4.961   9.296  0.7445  1.3356  1.9594
  468MOL0     H63175   8.643   4.864   9.167  1.3805 -0.5239  0.8860
  468MOL0     H63176   8.641   5.172   9.219 -1.8163 -0.1192 -0.6058
  468MOL0     H63177   8.601   5.079   9.070  0.5795 -0.5958  0.3990
  468MOL0     H63178   9.018   5.155   9.062 -0.2005  1.2779  1.5820
  468MOL0     H63179   8.948   4.581   9.658 -0.3050  0.2377  0.6196
  468MOL0     H63180   8.892   4.545   9.894  3.5741  2.0255  0.3356
  469MOL0     O63181   2.911   2.692   3.622 -0.0597 -0.3256 -0.9314
  469MOL0     C63182   2.982   2.704   3.716 -0.4934  0.2733 -0.7732
  469MOL0     O63183   2.949   2.691   3.849  0.1204 -0.0185 -0.2536
  469MOL0     C63184   2.821   2.651   3.873 -0.1196  0.5225  0.1783
  469MOL0     C63185   2.796   2.538   3.955 -0.9146  0.9645  0.9987
  469MOL0     C63186   2.660   2.485   3.969 -0.2819  0.1857 -0.1944
  469MOL0     C63187   2.558   2.552   3.905 -0.4852  0.0208 -0.3328
  469MOL0     O63188   2.429   2.506   3.911  0.6424 -0.2247  0.1999
  469MOL0     C63189   2.334   2.596   3.979 -0.4793 -0.0884 -0.3599
  469MOL0     C63190   2.203   2.538   4.030 -0.0368 -0.3677 -0.0251
  469MOL0     C63191   2.136   2.460   3.923  1.0108  0.3280  0.0032
  469MOL0     C63192   1.991   2.451   3.968 -0.6403  0.1590 -0.2741
  469MOL0     C63193   1.959   2.338   4.047 -0.2852  0.3058  0.6612
  469MOL0     C63194   1.830   2.355   4.135  0.1500  0.9675  0.4417
  469MOL0     C63195   1.801   2.235   4.222 -0.2427  1.4438 -0.2210
  469MOL0     C63196   1.666   2.254   4.292 -0.6820 -0.2776 -1.0111
  469MOL0     N63197   1.554   2.188   4.216  0.0149  0.4503 -0.3705
  469MOL0     C63198   1.452   2.121   4.289 -0.7153 -0.1586  0.5610
  469MOL0     C63199   1.341   2.141   4.224  0.8469 -0.3674 -0.0156
  469MOL0     C63200   1.207   2.097   4.262  0.9867  0.4512  0.3166
  469MOL0     C63201   1.098   2.080   4.158  0.0546 -0.2303 -0.8869
  469MOL0     C63202   1.075   1.945   4.116 -0.4428  0.2010 -0.2679
  469MOL0     C63203   1.003   1.851   4.210  0.5636 -0.4218 -0.2308
  469MOL0     O63204   0.869   1.899   4.217  1.2833 -0.4819 -0.0633
  469MOL0     C63205   0.783   1.827   4.291  0.1417  0.0410 -1.2751
  469MOL0     C63206   0.651   1.856   4.298  0.6266  0.3131  0.0077
  469MOL0     C63207   0.556   1.786   4.375  0.0844  1.0205  1.1561
  469MOL0     C63208   0.420   1.824   4.339 -0.6824 -0.2332 -1.0063
  469MOL0     C63209   0.602   1.693   4.472 -0.1256  0.7124  0.1985
  469MOL0     C63210   0.523   1.612   4.562  0.7687  0.4521 -0.1985
  469MOL0     O63211   0.386   1.627   4.544 -0.3888 -0.3413  0.5215
  469MOL0     C63212   0.295   1.572   4.630 -0.5595 -0.6297 -0.7632
  469MOL0     C63213   0.291   1.440   4.661  0.7453 -0.2467  0.0489
  469MOL0     C63214   0.174   1.380   4.710 -1.4688 -1.1106  0.0632
  469MOL0     C63215   0.059   1.460   4.743 -0.1966 -0.0568  0.4247
  469MOL0     O63216  -0.050   1.394   4.800  0.2182 -0.0693  0.0862
  469MOL0     C63217  -0.104   1.459   4.917  0.4627  0.0495  1.2074
  469MOL0     C63218  -0.239   1.390   4.941 -0.0580  0.3330 -0.2272
  469MOL0     C63219  -0.311   1.446   5.069 -0.1111  0.1064 -0.1648
  469MOL0     C63220  -0.293   1.382   5.213  0.3405  0.2331 -0.5384
  469MOL0     C63221  -0.144   1.397   5.262 -0.4763 -0.2589 -0.2587
  469MOL0     C63222  -0.098   1.538   5.270 -0.2230  0.2090  0.0173
  469MOL0     C63223   0.036   1.521   5.351  0.1189  0.4440  0.6268
  469MOL0     C63224   0.131   1.637   5.325 -0.0192 -0.5005  0.2860
  469MOL0    Cl63225   0.186   1.655   5.155 -0.1111 -0.0047 -0.0621
  469MOL0     C63226   0.063   1.595   4.706  0.7482 -0.1774  0.2919
  469MOL0     C63227   0.183   1.654   4.653  0.9414 -0.3548  0.7666
  469MOL0     O63228   0.569   1.525   4.637  0.1994  0.7602  0.7600
  469MOL0     C63229   0.736   1.658   4.468  0.1720 -0.1795  0.4277
  469MOL0     C63230   0.819   1.725   4.383 -0.1246 -0.5257  0.1956
  469MOL0     N63231   1.365   2.222   4.114 -0.2210  0.2339  0.2093
  469MOL0     N63232   1.491   2.237   4.107  0.7796 -1.1096 -0.3331
  469MOL0     C63233   2.581   2.665   3.818 -0.3752 -0.4850  0.5459
  469MOL0     C63234   2.710   2.714   3.812  0.3089 -0.8397  0.4241
  469MOL0     C63235   3.124   2.726   3.682 -0.0243 -1.0763  0.8460
  469MOL0     C63236   3.216   2.769   3.781  0.4038  0.4870  1.2435
  469MOL0     C63237   3.346   2.787   3.754 -0.1215 -0.4512  0.4861
  469MOL0     C63238   3.398   2.774   3.627  0.2688  1.1423 -0.1897
  469MOL0     O63239   3.530   2.801   3.598  0.0648  0.2757  0.0304
  469MOL0     C63240   3.589   2.790   3.463  0.3853 -0.4912  0.8658
  469MOL0     C63241   3.625   2.647   3.425  0.0662 -0.9634 -0.0686
  469MOL0     C63242   3.729   2.594   3.526 -1.2628 -0.2249  0.1114
  469MOL0     C63243   3.759   2.443   3.518  0.5821 -0.1197  0.5592
  469MOL0     C63244   3.872   2.403   3.608  0.8177  0.5923 -0.1344
  469MOL0     C63245   3.955   2.373   3.692 -0.1966 -0.1881  0.2676
  469MOL0     C63246   3.316   2.730   3.524 -0.6011  1.0319  0.2414
  469MOL0     C63247   3.179   2.713   3.542  0.9655 -1.1142 -0.8344
  469MOL0     H63248   2.885   2.491   3.994  0.1881 -0.2823 -2.6355
  469MOL0     H63249   2.634   2.392   4.020 -3.4950  0.1311 -1.6925
  469MOL0     H63250   2.388   2.638   4.065  0.0443 -0.4703 -0.4963
  469MOL0     H63251   2.320   2.676   3.905 -3.8565  0.4135  0.6388
  469MOL0     H63252   2.222   2.487   4.125  2.9389 -1.6826 -1.2426
  469MOL0     H63253   2.140   2.622   4.061  0.0340 -0.2402 -0.2291
  469MOL0     H63254   2.147   2.496   3.820 -1.8881  2.7598  0.3937
  469MOL0     H63255   2.167   2.356   3.934 -1.7981 -0.4764  1.0688
  469MOL0     H63256   1.958   2.542   4.018 -0.8925  0.6559 -1.3188
  469MOL0     H63257   1.923   2.452   3.882 -2.2681  3.1808  0.9024
  469MOL0     H63258   1.964   2.254   3.978  0.2122  1.3851 -0.6610
  469MOL0     H63259   2.047   2.328   4.112 -0.2170  1.4295  0.7578
  469MOL0     H63260   1.829   2.450   4.190  0.5813  1.5590 -0.5471
  469MOL0     H63261   1.745   2.380   4.070 -0.0974 -0.0349  0.3660
  469MOL0     H63262   1.806   2.135   4.178  1.1214  1.9043 -1.1550
  469MOL0     H63263   1.880   2.236   4.298 -0.0865  0.5724 -0.3667
  469MOL0     H63264   1.648   2.361   4.307 -0.6835  0.0537 -3.1097
  469MOL0     H63265   1.667   2.208   4.391  0.6121  1.0092 -0.3758
  469MOL0     H63266   1.456   2.067   4.383  0.2888 -1.1462 -0.0163
  469MOL0     H63267   1.215   2.008   4.325 -1.8699 -1.7127 -2.1042
  469MOL0     H63268   1.162   2.181   4.316 -0.4861  1.3726 -2.1766
  469MOL0     H63269   1.134   2.124   4.064  1.6332 -4.5706 -2.6026
  469MOL0     H63270   1.008   2.121   4.204 -2.4523 -2.8695 -3.0153
  469MOL0     H63271   1.173   1.901   4.095 -1.7373 -4.1332  1.6233
  469MOL0     H63272   1.019   1.941   4.022  0.9985 -3.8635 -1.1552
  469MOL0     H63273   1.050   1.853   4.309  1.7557 -1.6256 -0.7482
  469MOL0     H63274   1.010   1.745   4.187  1.1713 -0.2974 -0.6244
  469MOL0     H63275   0.614   1.941   4.241  2.2721  0.6604 -0.6107
  469MOL0     H63276   0.362   1.735   4.312  0.2348 -1.0291 -0.4240
  469MOL0     H63277   0.378   1.867   4.430  3.5473 -0.0545  1.0857
  469MOL0     H63278   0.414   1.887   4.250 -0.7731  2.2273  0.6682
  469MOL0     H63279   0.377   1.374   4.647  0.4907 -1.4731  3.3903
  469MOL0     H63280   0.180   1.274   4.730 -1.0430 -0.4099  4.8083
  469MOL0     H63281  -0.034   1.454   5.000  0.1788 -0.0828  1.4416
  469MOL0     H63282  -0.127   1.566   4.905 -0.9671 -0.0894  2.3494
  469MOL0     H63283  -0.303   1.417   4.857  1.2827  2.3061 -0.6992
  469MOL0     H63284  -0.228   1.282   4.941 -0.3640  0.1600 -3.9560
  469MOL0     H63285  -0.416   1.421   5.054 -0.3817  0.9025  0.3486
  469MOL0     H63286  -0.302   1.555   5.070  0.6974  0.0471 -0.0521
  469MOL0     H63287  -0.365   1.438   5.274 -0.1549  2.2318 -2.8184
  469MOL0     H63288  -0.310   1.274   5.208  3.9911 -0.4205 -1.9672
  469MOL0     H63289  -0.079   1.333   5.202 -0.6213 -0.5293 -0.1317
  469MOL0     H63290  -0.138   1.354   5.362 -1.4553  1.2029  0.4747
  469MOL0     H63291  -0.064   1.587   5.178  0.1889  4.3498  2.1271
  469MOL0     H63292  -0.163   1.612   5.318  0.2123  0.4964  0.1818
  469MOL0     H63293   0.092   1.436   5.312  1.3480  2.0837 -1.4148
  469MOL0     H63294   0.009   1.513   5.457  1.8336 -1.6204  0.9574
  469MOL0     H63295   0.222   1.617   5.383  0.3515 -1.3646 -0.5740
  469MOL0     H63296   0.081   1.729   5.355 -2.0010 -1.2089 -0.6808
  469MOL0     H63297  -0.016   1.666   4.728  2.4412  2.0796 -0.5054
  469MOL0     H63298   0.187   1.757   4.619 -0.0855  0.1395  2.0874
  469MOL0     H63299   0.776   1.567   4.513  1.9494 -1.5929 -3.5522
  469MOL0     H63300   0.922   1.691   4.382 -0.0860 -0.4111  0.2908
  469MOL0     H63301   2.505   2.714   3.758  1.3293 -0.7110 -1.9611
  469MOL0     H63302   2.721   2.804   3.753 -1.8089 -0.9891 -0.2735
  469MOL0     H63303   3.189   2.786   3.885  0.9110 -0.1587  1.4868
  469MOL0     H63304   3.409   2.823   3.834 -2.1352 -0.6693  2.2505
  469MOL0     H63305   3.517   2.832   3.392 -2.2177 -2.2675  2.2948
  469MOL0     H63306   3.670   2.863   3.453 -0.7987  0.5540 -2.0225
  469MOL0     H63307   3.670   2.655   3.325 -0.1572  3.2636 -0.0068
  469MOL0     H63308   3.541   2.577   3.433 -1.8727  1.4044  3.0017
  469MOL0     H63309   3.713   2.631   3.628  1.7795  2.6431 -0.2768
  469MOL0     H63310   3.824   2.640   3.497 -1.7173  0.5747 -0.1307
  469MOL0     H63311   3.793   2.421   3.416  2.5036 -0.1260  1.1674
  469MOL0     H63312   3.668   2.385   3.535  0.9669 -1.6705 -2.0129
  469MOL0     H63313   4.036   2.350   3.758 -0.0618 -1.8410 -0.4199
  469MOL0     H63314   3.358   2.695   3.430  3.8555 -0.6065  2.5598
  469MOL0     H63315   3.121   2.689   3.453  1.2812 -1.7302 -0.8832
  470MOL0     O63316   3.064   4.660   5.877  0.0456  0.2308 -0.1792
  470MOL0     C63317   3.132   4.647   5.783 -0.8011 -0.1678 -0.2271
  470MOL0     O63318   3.127   4.536   5.706  0.1982  0.0341 -0.4108
  470MOL0     C63319   3.017   4.456   5.713  1.0959 -0.2171  0.5494
  470MOL0     C63320   3.029   4.315   5.733  1.0314 -0.7026 -0.3865
  470MOL0     C63321   2.925   4.228   5.744  0.8153 -0.1458 -0.2511
  470MOL0     C63322   2.794   4.283   5.723  0.6847  0.0328 -0.1261
  470MOL0     O63323   2.685   4.199   5.739  0.3148 -1.1023  0.3245
  470MOL0     C63324   2.555   4.263   5.758 -0.0376 -0.2541  0.9649
  470MOL0     C63325   2.465   4.176   5.853 -0.2259  0.5935  0.2572
  470MOL0     C63326   2.461   4.020   5.822 -0.3396  0.0553 -0.3072
  470MOL0     C63327   2.444   3.998   5.670  0.0853  0.5359  0.2431
  470MOL0     C63328   2.411   3.839   5.639 -0.1932  0.6743 -0.2576
  470MOL0     C63329   2.354   3.817   5.498  0.3982 -0.7578  0.4113
  470MOL0     C63330   2.207   3.845   5.474 -0.2869  0.1477 -0.1337
  470MOL0     C63331   2.166   3.853   5.335 -0.3841 -0.1288  0.7025
  470MOL0     N63332   2.198   3.733   5.266  0.4344  0.0420 -0.2530
  470MOL0     C63333   2.108   3.646   5.218  0.4831 -0.2295 -0.0547
  470MOL0     C63334   2.175   3.585   5.122  0.1816  0.2245  0.5180
  470MOL0     C63335   2.126   3.469   5.044 -0.7097 -0.2992 -0.0430
  470MOL0     C63336   2.211   3.343   5.079  0.1636 -0.2843  0.7233
  470MOL0     C63337   2.175   3.281   5.221  0.1801 -0.1345  0.4951
  470MOL0     C63338   2.045   3.203   5.215 -0.5895  0.2169 -0.4849
  470MOL0     O63339   1.927   3.292   5.217 -0.8000  0.0466  0.2638
  470MOL0     C63340   1.811   3.250   5.158 -0.2893 -0.2806 -0.9622
  470MOL0     C63341   1.732   3.349   5.099  0.5434  0.0043 -0.4767
  470MOL0     C63342   1.616   3.319   5.022 -0.7965 -0.5057 -0.0574
  470MOL0     C63343   1.553   3.440   4.960  0.0511  0.5991 -1.0963
  470MOL0     C63344   1.577   3.189   5.000 -0.2972  0.4204 -0.1540
  470MOL0     C63345   1.468   3.139   4.913  1.1445 -0.1615  0.6629
  470MOL0     O63346   1.440   3.005   4.917  0.4913  0.5972  0.6849
  470MOL0     C63347   1.362   2.932   4.823 -0.2190  1.2932 -1.4299
  470MOL0     C63348   1.326   2.967   4.698  0.0308 -0.5973  0.4367
  470MOL0     C63349   1.262   2.878   4.611  0.1498 -0.3406 -0.4076
  470MOL0     C63350   1.206   2.751   4.654  0.4300 -0.7237 -1.1588
  470MOL0     O63351   1.133   2.671   4.576  0.3490  0.6752  0.6926
  470MOL0     C63352   1.037   2.740   4.484 -0.5923  0.0701 -0.1649
  470MOL0     C63353   0.930   2.829   4.549 -0.2857  0.5969 -1.0497
  470MOL0     C63354   0.853   2.740   4.664 -0.8174 -0.4244  0.1719
  470MOL0     C63355   0.713   2.788   4.708  0.0311  0.9752  0.0141
  470MOL0     C63356   0.602   2.803   4.593 -1.0393 -0.2631 -0.3039
  470MOL0     C63357   0.568   2.663   4.533 -0.0766  0.4635 -0.3174
  470MOL0     C63358   0.428   2.680   4.473 -0.3601 -0.4069 -0.4769
  470MOL0     C63359   0.328   2.660   4.584 -0.5354  0.4268 -0.1030
  470MOL0    Cl63360   0.319   2.484   4.629 -0.3782  0.1261  0.0153
  470MOL0     C63361   1.238   2.715   4.788 -0.4365 -0.0066 -0.0171
  470MOL0     C63362   1.313   2.802   4.869 -0.4353 -0.2556  0.2948
  470MOL0     O63363   1.406   3.219   4.839  0.6808  0.3161 -0.3697
  470MOL0     C63364   1.651   3.092   5.067 -0.0214  0.4726 -0.1146
  470MOL0     C63365   1.761   3.118   5.147  0.5047  0.8901  0.0776
  470MOL0     N63366   2.309   3.625   5.123 -0.1896 -0.4944 -0.3652
  470MOL0     N63367   2.321   3.724   5.202  0.2015  0.0734  0.1370
  470MOL0     C63368   2.780   4.424   5.695 -0.3516 -0.5587  0.0357
  470MOL0     C63369   2.887   4.511   5.687 -0.2654  0.2976  0.2704
  470MOL0     C63370   3.238   4.742   5.746 -0.6160 -0.1080 -0.5154
  470MOL0     C63371   3.249   4.865   5.807 -0.8512 -0.4180  0.5936
  470MOL0     C63372   3.350   4.964   5.772  0.3809  0.1066  0.3702
  470MOL0     C63373   3.444   4.939   5.666  0.0033 -0.1252  0.0912
  470MOL0     O63374   3.538   5.029   5.614  0.6427  0.7948  0.5679
  470MOL0     C63375   3.568   5.146   5.683 -0.2010  0.6793 -0.5749
  470MOL0     C63376   3.707   5.201   5.647  0.4779 -0.1780 -0.4500
  470MOL0     C63377   3.810   5.111   5.714 -0.1936  0.8813  0.1423
  470MOL0     C63378   3.948   5.115   5.643 -0.0448  0.2678  0.9576
  470MOL0     C63379   4.047   5.020   5.699 -0.0797  0.5213  0.1185
  470MOL0     C63380   4.121   4.939   5.752 -0.3087  0.3962 -0.0545
  470MOL0     C63381   3.431   4.817   5.595  0.6716 -0.2908 -0.2480
  470MOL0     C63382   3.333   4.719   5.641 -0.1441  0.4976  0.2456
  470MOL0     H63383   3.130   4.280   5.750  1.3648  0.8449  1.1247
  470MOL0     H63384   2.931   4.125   5.776  0.7538 -0.7029 -1.9223
  470MOL0     H63385   2.554   4.360   5.809  0.9688  0.1553  0.2412
  470MOL0     H63386   2.508   4.276   5.660  1.1171  1.0088  0.5539
  470MOL0     H63387   2.512   4.188   5.951  2.8690 -1.2850 -0.8547
  470MOL0     H63388   2.359   4.206   5.851 -1.0272 -2.0231  0.0958
  470MOL0     H63389   2.559   3.980   5.851 -0.9404 -1.1338  0.1284
  470MOL0     H63390   2.392   3.958   5.879 -0.5433  0.4411 -0.1291
  470MOL0     H63391   2.367   4.067   5.633  0.6550  0.5694 -0.9325
  470MOL0     H63392   2.527   4.028   5.606 -0.8344  0.6424 -0.9398
  470MOL0     H63393   2.498   3.776   5.661 -1.6697 -1.9897 -1.5415
  470MOL0     H63394   2.329   3.799   5.699 -2.1205 -0.6624 -3.4923
  470MOL0     H63395   2.410   3.889   5.439  0.6113  0.8690  2.4762
  470MOL0     H63396   2.393   3.721   5.463 -1.0366 -0.3133 -2.7036
  470MOL0     H63397   2.143   3.772   5.524 -0.3941  0.1632 -0.2468
  470MOL0     H63398   2.191   3.945   5.515 -1.9725  0.8632 -2.3562
  470MOL0     H63399   2.220   3.933   5.285  0.6420 -1.1207  0.1737
  470MOL0     H63400   2.060   3.878   5.321 -0.9012 -2.4817 -0.1740
  470MOL0     H63401   2.003   3.635   5.243  0.8823  0.4057  2.0689
  470MOL0     H63402   2.019   3.446   5.046 -0.0781 -3.8139 -0.4406
  470MOL0     H63403   2.141   3.497   4.940  1.3466 -1.1616 -0.0145
  470MOL0     H63404   2.318   3.366   5.073 -0.1169  1.2187  1.1336
  470MOL0     H63405   2.199   3.264   5.004  0.2849  2.1868 -2.0649
  470MOL0     H63406   2.174   3.356   5.300 -0.2129  1.5804 -1.0748
  470MOL0     H63407   2.259   3.213   5.242  2.3911  1.5768 -2.1489
  470MOL0     H63408   2.033   3.131   5.296  0.2804 -0.0018 -0.5366
  470MOL0     H63409   2.040   3.150   5.119  0.5609  1.9465 -1.5628
  470MOL0     H63410   1.750   3.453   5.123 -0.3850  0.4307 -1.5626
  470MOL0     H63411   1.444   3.443   4.961  0.0240  0.3677  1.3058
  470MOL0     H63412   1.596   3.528   5.010  1.5269 -0.8702  0.3565
  470MOL0     H63413   1.573   3.442   4.852  0.8328 -2.7373 -1.1116
  470MOL0     H63414   1.358   3.063   4.659  1.2916 -0.4872  1.6603
  470MOL0     H63415   1.241   2.915   4.511 -1.3148  1.8112  0.6354
  470MOL0     H63416   1.092   2.798   4.409 -0.5834 -1.2295 -1.2013
  470MOL0     H63417   0.991   2.655   4.434  2.8357 -1.2792 -1.3709
  470MOL0     H63418   0.978   2.923   4.577 -0.3433  0.5855 -0.9147
  470MOL0     H63419   0.861   2.868   4.473 -1.2828  2.3656  0.6885
  470MOL0     H63420   0.901   2.755   4.761 -3.3984  1.7311  1.2237
  470MOL0     H63421   0.862   2.632   4.654 -3.8225 -0.8561  1.2771
  470MOL0     H63422   0.662   2.709   4.764 -1.6691 -0.8652 -3.7564
  470MOL0     H63423   0.726   2.879   4.767  4.1504  0.4287  0.2338
  470MOL0     H63424   0.636   2.866   4.511 -2.1634  0.2258 -0.4236
  470MOL0     H63425   0.524   2.860   4.645  3.8412  5.2518  2.0957
  470MOL0     H63426   0.639   2.643   4.452 -1.5478 -0.6714 -1.3817
  470MOL0     H63427   0.575   2.587   4.611 -2.3362  0.6694  0.1352
  470MOL0     H63428   0.393   2.608   4.398 -1.0078 -1.1357  0.4970
  470MOL0     H63429   0.423   2.776   4.421 -1.7766 -2.2259 -4.0233
  470MOL0     H63430   0.228   2.689   4.547  0.6706  2.2253 -2.2712
  470MOL0     H63431   0.353   2.729   4.665 -2.4274  1.7798 -0.5938
  470MOL0     H63432   1.203   2.623   4.834  0.4202  0.2882  1.2842
  470MOL0     H63433   1.332   2.781   4.974 -1.7422  2.5331  1.1736
  470MOL0     H63434   1.631   2.988   5.042 -1.5257  1.2460 -2.3775
  470MOL0     H63435   1.821   3.038   5.189 -0.5587  0.5436  0.9601
  470MOL0     H63436   2.684   4.469   5.672  0.7830  1.6761 -0.6810
  470MOL0     H63437   2.882   4.610   5.643  1.5449 -0.1352 -1.0593
  470MOL0     H63438   3.185   4.882   5.894 -0.3135 -4.1071  1.8882
  470MOL0     H63439   3.354   5.062   5.820  1.6718 -0.3989  1.3464
  470MOL0     H63440   3.492   5.223   5.669 -0.1625  1.1921  1.6380
  470MOL0     H63441   3.554   5.125   5.790 -3.0090  1.5170 -0.6934
  470MOL0     H63442   3.712   5.305   5.683 -1.2981 -0.4305  0.6924
  470MOL0     H63443   3.729   5.194   5.541 -0.2326  0.7359 -0.6758
  470MOL0     H63444   3.775   5.007   5.722  3.1046 -0.9228 -4.3815
  470MOL0     H63445   3.820   5.143   5.818 -1.2941  1.0896  0.1937
  470MOL0     H63446   3.989   5.216   5.653 -0.4297  0.6577 -0.9839
  470MOL0     H63447   3.930   5.088   5.538  0.3872 -3.6911  1.7571
  470MOL0     H63448   4.164   4.858   5.808 -1.0846 -0.5460 -0.7730
  470MOL0     H63449   3.497   4.787   5.514  1.1425 -0.1349  0.0732
  470MOL0     H63450   3.330   4.623   5.591 -0.1076  2.3706 -3.7728
  471MOL0     O63451  10.325   4.266   1.274  0.1684 -0.3332  0.1952
  471MOL0     C63452  10.349   4.382   1.320 -0.4354 -0.0569 -0.0556
  471MOL0     O63453  10.265   4.458   1.406 -0.1095  0.3842  0.2213
  471MOL0     C63454  10.137   4.410   1.437  0.7144 -0.6465  0.7379
  471MOL0     C63455  10.083   4.451   1.560  0.0890  0.0292  0.4878
  471MOL0     C63456   9.956   4.416   1.610  1.2934  0.0176 -0.0308
  471MOL0     C63457   9.876   4.332   1.526  0.6990  0.1302 -0.1910
  471MOL0     O63458   9.744   4.297   1.566 -0.2670 -1.0599 -0.2411
  471MOL0     C63459   9.695   4.329   1.701 -0.5975  0.4645 -0.2425
  471MOL0     C63460   9.545   4.300   1.696  0.2356 -0.3755  0.2357
  471MOL0     C63461   9.466   4.406   1.600 -0.1631  0.6031  0.5344
  471MOL0     C63462   9.324   4.420   1.639 -0.1800 -1.0007 -0.6675
  471MOL0     C63463   9.245   4.294   1.604 -0.6859  0.1718  0.2746
  471MOL0     C63464   9.097   4.314   1.631 -0.0400  0.0456 -0.1174
  471MOL0     C63465   8.997   4.210   1.578  0.1544 -0.2530  0.2800
  471MOL0     C63466   8.915   4.251   1.449  0.7902 -0.4283  1.1165
  471MOL0     N63467   8.993   4.284   1.331  0.2449  0.3820  1.0068
  471MOL0     C63468   9.082   4.201   1.272 -0.1916  1.2328  0.0848
  471MOL0     C63469   9.116   4.263   1.152  1.2131 -0.3442  0.1689
  471MOL0     C63470   9.221   4.219   1.058 -0.9834  0.6866  0.1462
  471MOL0     C63471   9.350   4.280   1.109  0.0455 -0.3265 -0.4808
  471MOL0     C63472   9.473   4.195   1.073 -0.4723  0.8210 -0.2247
  471MOL0     C63473   9.611   4.270   1.082  1.4068  0.1881  0.0914
  471MOL0     O63474   9.708   4.186   1.038 -0.3103 -0.1247  0.5910
  471MOL0     C63475   9.839   4.232   1.021  0.0711  0.2168  0.0981
  471MOL0     C63476   9.934   4.134   1.003 -0.0958  0.4988 -0.4919
  471MOL0     C63477  10.067   4.154   0.982 -0.4188  0.4914  0.3120
  471MOL0     C63478  10.154   4.024   0.969  0.8700 -0.2131  0.2203
  471MOL0     C63479  10.111   4.289   0.969  0.1934  0.6428 -0.1054
  471MOL0     C63480  10.254   4.323   0.938  0.2119 -0.8679 -0.5738
  471MOL0     O63481  10.340   4.227   0.893 -0.0044 -0.3493  0.0861
  471MOL0     C63482  10.458   4.275   0.834  1.0338  0.9671  0.3839
  471MOL0     C63483  10.447   4.349   0.716  0.5641 -0.3002 -0.0152
  471MOL0     C63484  10.559   4.422   0.675  0.1300  0.7462 -0.7924
  471MOL0     C63485  10.680   4.415   0.750  0.2140  0.0279  0.7017
  471MOL0     O63486  10.791   4.481   0.701 -0.4339 -0.0829 -0.7500
  471MOL0     C63487  10.915   4.467   0.769 -0.0343  0.0987 -0.1052
  471MOL0     C63488  11.011   4.560   0.700  0.8151  0.2065  0.6748
  471MOL0     C63489  11.152   4.554   0.751  0.8427 -0.8675  0.2054
  471MOL0     C63490  11.211   4.412   0.749 -0.7527  0.5173 -0.9542
  471MOL0     C63491  11.345   4.383   0.819  0.2104 -0.3353  0.5111
  471MOL0     C63492  11.464   4.448   0.732  0.7186 -1.7092  0.4224
  471MOL0     C63493  11.505   4.373   0.594  0.9100  0.1702  0.5825
  471MOL0     C63494  11.608   4.257   0.611 -0.5163 -0.2145  0.7795
  471MOL0    Cl63495  11.779   4.291   0.633 -0.0461 -0.0411 -0.1435
  471MOL0     C63496  10.678   4.339   0.865  0.3775 -0.1840 -0.8921
  471MOL0     C63497  10.570   4.264   0.906  0.1616  0.2978 -0.3967
  471MOL0     O63498  10.278   4.445   0.948 -0.9198 -0.4942 -0.4910
  471MOL0     C63499  10.012   4.387   0.971  0.0532 -0.9301  0.1987
  471MOL0     C63500   9.880   4.364   1.006 -0.8667  0.1316  0.1585
  471MOL0     N63501   9.060   4.385   1.155  0.9436 -0.9677 -0.2278
  471MOL0     N63502   8.980   4.393   1.258  0.5808  0.3171  0.0211
  471MOL0     C63503   9.925   4.285   1.403 -0.1936  0.2311 -0.0081
  471MOL0     C63504  10.049   4.327   1.359  0.0371  0.1096 -0.3282
  471MOL0     C63505  10.476   4.449   1.298  0.1024 -0.3516  0.2906
  471MOL0     C63506  10.576   4.386   1.233 -0.2341 -0.9375 -0.1913
  471MOL0     C63507  10.702   4.446   1.219 -0.0896 -0.7093  1.3551
  471MOL0     C63508  10.734   4.579   1.269  0.3082 -0.4061  0.0091
  471MOL0     O63509  10.862   4.632   1.260  0.4886 -0.6733  0.0489
  471MOL0     C63510  10.908   4.744   1.337 -0.4679 -1.3114 -0.4109
  471MOL0     C63511  10.983   4.840   1.240  0.2291  0.1901 -0.5948
  471MOL0     C63512  11.104   4.771   1.155 -0.0530  0.4863 -0.0131
  471MOL0     C63513  11.226   4.854   1.157 -1.2839 -0.1319  0.9011
  471MOL0     C63514  11.333   4.778   1.090  0.1975 -0.5836 -0.5138
  471MOL0     C63515  11.427   4.733   1.026 -0.2485 -1.2692 -0.1095
  471MOL0     C63516  10.626   4.638   1.339 -0.3821 -0.3846  0.5474
  471MOL0     C63517  10.502   4.572   1.352 -0.7727  0.5153  0.1405
  471MOL0     H63518  10.153   4.496   1.630  0.7439  0.4394 -0.4135
  471MOL0     H63519   9.938   4.448   1.712  0.3401 -0.9001  0.1094
  471MOL0     H63520   9.728   4.261   1.780 -1.4496  0.2070 -0.0941
  471MOL0     H63521   9.703   4.432   1.736 -1.7383 -0.0709  1.7897
  471MOL0     H63522   9.543   4.195   1.663  3.0883 -0.1155 -1.0544
  471MOL0     H63523   9.505   4.322   1.795 -2.0551  1.0343 -0.9185
  471MOL0     H63524   9.517   4.502   1.598 -1.6377  1.3923 -0.7160
  471MOL0     H63525   9.472   4.370   1.497  0.5622  0.7513  0.5205
  471MOL0     H63526   9.311   4.433   1.747  0.2411 -1.2735 -0.5826
  471MOL0     H63527   9.292   4.513   1.591  0.7745  0.6903  1.7752
  471MOL0     H63528   9.254   4.271   1.497 -1.3255 -1.3832  0.5273
  471MOL0     H63529   9.284   4.209   1.660 -1.0585 -0.0193  0.2444
  471MOL0     H63530   9.087   4.306   1.740  1.5425 -2.7227 -0.0661
  471MOL0     H63531   9.071   4.413   1.594  2.8335  0.5460 -1.0769
  471MOL0     H63532   9.045   4.113   1.560 -0.0952 -0.3599  0.1862
  471MOL0     H63533   8.923   4.194   1.657  1.6920  0.7093  1.9898
  471MOL0     H63534   8.853   4.338   1.474 -0.4527 -0.7915 -0.5621
  471MOL0     H63535   8.847   4.170   1.421  2.2816 -0.8208 -1.6985
  471MOL0     H63536   9.108   4.100   1.304  1.0478  1.1589 -1.0745
  471MOL0     H63537   9.226   4.111   1.075  1.7271  0.4480 -1.5075
  471MOL0     H63538   9.184   4.256   0.962 -2.4305  1.1720  0.8550
  471MOL0     H63539   9.350   4.303   1.216 -0.0883  0.3892 -0.6282
  471MOL0     H63540   9.354   4.381   1.067  2.3787 -0.2376 -0.1514
  471MOL0     H63541   9.475   4.155   0.971  0.0136 -0.2415  0.1864
  471MOL0     H63542   9.479   4.107   1.138 -1.2054  1.1677  0.3354
  471MOL0     H63543   9.615   4.301   1.186 -2.4786  1.7079 -0.0612
  471MOL0     H63544   9.604   4.360   1.019 -4.5444  2.5981  3.4650
  471MOL0     H63545   9.895   4.034   1.021 -0.7031  0.8931  0.4874
  471MOL0     H63546  10.254   4.049   1.005  0.3364  2.2728  0.1607
  471MOL0     H63547  10.113   3.949   1.036 -0.2338  0.9399  0.8956
  471MOL0     H63548  10.161   3.989   0.865 -2.8876  0.6218 -0.4656
  471MOL0     H63549  10.356   4.360   0.657  0.3785  0.9042  0.4583
  471MOL0     H63550  10.557   4.483   0.586  0.7679 -1.3756 -2.3357
  471MOL0     H63551  10.903   4.490   0.875  0.9270 -2.8328  0.7446
  471MOL0     H63552  10.948   4.363   0.762 -0.8143 -0.2125  0.5724
  471MOL0     H63553  11.014   4.544   0.591 -1.3417 -1.7145  0.8279
  471MOL0     H63554  10.974   4.662   0.713 -2.5164 -0.2444 -3.2412
  471MOL0     H63555  11.139   4.592   0.853  0.2919  0.4078 -0.3255
  471MOL0     H63556  11.219   4.623   0.700  0.0317  0.2477  0.6242
  471MOL0     H63557  11.146   4.350   0.812  2.2843  0.5816  2.5563
  471MOL0     H63558  11.216   4.374   0.647  0.0171 -0.2474 -0.6454
  471MOL0     H63559  11.364   4.276   0.832  1.3029 -0.0778  1.2203
  471MOL0     H63560  11.337   4.421   0.921 -0.0648 -0.3582  0.4974
  471MOL0     H63561  11.435   4.550   0.704  2.7043 -0.9729  0.8446
  471MOL0     H63562  11.544   4.454   0.806  2.1340 -1.0286 -1.0979
  471MOL0     H63563  11.541   4.438   0.514 -0.1360  0.5951  0.4356
  471MOL0     H63564  11.417   4.325   0.550  1.3448 -0.8864  0.8152
  471MOL0     H63565  11.610   4.195   0.521 -0.5526  3.9213 -2.3579
  471MOL0     H63566  11.580   4.199   0.700  0.9496  0.1138  1.4913
  471MOL0     H63567  10.764   4.329   0.931 -1.0832  1.1931  1.3784
  471MOL0     H63568  10.564   4.208   0.999 -0.0931 -0.1917 -0.7008
  471MOL0     H63569  10.052   4.486   0.960 -2.0126  0.4866  3.6770
  471MOL0     H63570   9.810   4.444   1.030 -0.3942  1.1550 -1.6413
  471MOL0     H63571   9.865   4.213   1.348 -1.1776 -0.1301  1.4892
  471MOL0     H63572  10.085   4.286   1.265  1.0780  2.8028 -1.2058
  471MOL0     H63573  10.562   4.285   1.196  0.8453 -0.3495 -2.3482
  471MOL0     H63574  10.792   4.406   1.173 -0.8204 -0.7538 -0.0803
  471MOL0     H63575  10.837   4.808   1.391  1.2806  1.3152 -1.0121
  471MOL0     H63576  10.967   4.694   1.414 -1.5982  0.8509  2.0148
  471MOL0     H63577  11.031   4.915   1.303  3.2394 -0.2863 -2.0999
  471MOL0     H63578  10.910   4.886   1.174 -0.5683 -0.1883  0.0106
  471MOL0     H63579  11.066   4.750   1.055 -1.8853  0.2117  0.7020
  471MOL0     H63580  11.115   4.673   1.203  1.7775  0.8721  0.4343
  471MOL0     H63581  11.258   4.861   1.262  0.1253  0.5659  0.4461
  471MOL0     H63582  11.215   4.950   1.106 -3.0420 -0.7084  0.1372
  471MOL0     H63583  11.513   4.686   0.983  0.7700 -0.3570  0.8938
  471MOL0     H63584  10.624   4.740   1.376 -1.8887 -0.1388 -0.1276
  471MOL0     H63585  10.433   4.634   1.408  1.0671  0.8031  2.2339
  472MOL0     O63586   2.674   1.548   3.294 -0.0755 -0.2535 -0.4733
  472MOL0     C63587   2.779   1.585   3.268 -1.7898  0.2205  0.5904
  472MOL0     O63588   2.859   1.537   3.162 -0.4477 -0.6631  0.2706
  472MOL0     C63589   2.836   1.411   3.105  0.9021  0.0320  0.9715
  472MOL0     C63590   2.758   1.305   3.146 -0.7200 -0.5162 -0.6173
  472MOL0     C63591   2.747   1.185   3.074  0.0612  0.1478  0.0334
  472MOL0     C63592   2.822   1.160   2.958 -0.5462 -0.3616  0.7146
  472MOL0     O63593   2.820   1.047   2.887 -0.0437  0.1127 -0.2198
  472MOL0     C63594   2.923   1.000   2.805 -0.3544  0.2678 -0.3589
  472MOL0     C63595   2.880   0.876   2.738  0.5839  1.5332  0.2337
  472MOL0     C63596   2.781   0.897   2.626 -0.8234  0.0440  0.1303
  472MOL0     C63597   2.827   0.952   2.492 -0.9001 -0.3520  0.5291
  472MOL0     C63598   2.979   0.934   2.456 -0.0591  1.4520  0.2978
  472MOL0     C63599   3.022   0.790   2.434 -0.3440  0.3216  0.3064
  472MOL0     C63600   3.165   0.772   2.353 -0.4282 -0.7307  0.5704
  472MOL0     C63601   3.288   0.829   2.420  0.5356 -0.7658  0.5159
  472MOL0     N63602   3.288   0.786   2.550  0.4807 -0.1057  0.1548
  472MOL0     C63603   3.367   0.686   2.599  0.2310 -0.1101  0.2969
  472MOL0     C63604   3.360   0.688   2.728  0.4206  0.0532 -0.6267
  472MOL0     C63605   3.412   0.586   2.813 -0.4905  0.1219 -0.2203
  472MOL0     C63606   3.569   0.600   2.827  0.3341  0.4395 -0.7771
  472MOL0     C63607   3.640   0.484   2.893  0.6228  0.6415 -0.2606
  472MOL0     C63608   3.787   0.524   2.931 -0.3362 -0.6141 -0.4312
  472MOL0     O63609   3.785   0.617   3.036  0.3103 -0.3532  0.0447
  472MOL0     C63610   3.901   0.674   3.080  0.1284 -0.4609  0.5924
  472MOL0     C63611   4.029   0.654   3.022  0.0754 -0.8035 -1.3772
  472MOL0     C63612   4.131   0.747   3.052  0.0410 -0.4831 -0.3735
  472MOL0     C63613   4.271   0.702   3.004 -0.0081 -0.8253  0.8190
  472MOL0     C63614   4.122   0.846   3.146 -0.8465 -0.5365 -0.4459
  472MOL0     C63615   4.236   0.937   3.200 -0.2243  0.8120 -0.5044
  472MOL0     O63616   4.356   0.958   3.130  0.1596  0.0180 -0.2248
  472MOL0     C63617   4.466   1.029   3.169 -0.1337 -0.4809 -1.0827
  472MOL0     C63618   4.597   0.995   3.119  0.1660 -0.3832 -0.0395
  472MOL0     C63619   4.709   1.074   3.154 -0.1499  0.0817 -0.9567
  472MOL0     C63620   4.697   1.185   3.232 -0.4106  0.1971  0.8962
  472MOL0     O63621   4.813   1.241   3.272  0.1451  0.2705 -0.2386
  472MOL0     C63622   4.823   1.369   3.334 -0.4271  0.3863  0.3119
  472MOL0     C63623   4.977   1.406   3.329  0.4938 -1.1834  0.3438
  472MOL0     C63624   4.990   1.532   3.423 -0.3338  0.8669 -0.3955
  472MOL0     C63625   5.116   1.618   3.422  1.7118  0.2612 -0.0487
  472MOL0     C63626   5.138   1.711   3.297 -1.2839 -0.7200 -0.1159
  472MOL0     C63627   5.245   1.822   3.302 -0.9181  0.0922 -0.7055
  472MOL0     C63628   5.392   1.763   3.333 -0.0753  0.4365  0.1500
  472MOL0     C63629   5.503   1.868   3.353 -0.1199  0.4053  0.4558
  472MOL0    Cl63630   5.462   1.995   3.474 -0.0375  0.2247  0.0550
  472MOL0     C63631   4.572   1.231   3.272  0.3196  0.3994  0.6843
  472MOL0     C63632   4.459   1.151   3.245 -0.2898  0.2321  0.7764
  472MOL0     O63633   4.217   0.985   3.313  0.8342 -0.4055 -0.1176
  472MOL0     C63634   3.992   0.868   3.200 -0.4131  0.7872  0.1286
  472MOL0     C63635   3.889   0.776   3.171 -0.2876 -0.4639 -0.3093
  472MOL0     N63636   3.276   0.792   2.771 -0.1043 -0.1864 -0.7379
  472MOL0     N63637   3.233   0.851   2.662 -0.3762  0.3881  0.5636
  472MOL0     C63638   2.906   1.263   2.919 -0.3567 -0.1708 -0.2238
  472MOL0     C63639   2.909   1.385   2.988  0.9941 -0.3505 -0.0842
  472MOL0     C63640   2.820   1.718   3.317  0.6743 -0.3768  0.4408
  472MOL0     C63641   2.758   1.768   3.439  0.8692 -0.0767  0.3299
  472MOL0     C63642   2.794   1.890   3.487  1.6347  0.6947  0.3416
  472MOL0     C63643   2.904   1.965   3.426  0.6187 -0.7821  0.5499
  472MOL0     O63644   2.940   2.087   3.483  0.0438  0.7807 -0.4687
  472MOL0     C63645   2.853   2.166   3.560 -0.2552 -0.6471 -1.0962
  472MOL0     C63646   2.866   2.312   3.522 -0.7393 -0.3900 -0.0030
  472MOL0     C63647   2.809   2.336   3.377 -0.1994 -1.2063  0.1111
  472MOL0     C63648   2.812   2.484   3.337  0.3371  0.5852  0.1677
  472MOL0     C63649   2.737   2.510   3.213  0.7445 -0.1430  0.6029
  472MOL0     C63650   2.683   2.533   3.106  0.8037 -0.0702  0.0702
  472MOL0     C63651   2.961   1.913   3.311 -0.1091  0.5736  0.4541
  472MOL0     C63652   2.923   1.787   3.264  0.1356 -0.6209 -0.3661
  472MOL0     H63653   2.701   1.312   3.238 -0.4290 -0.8483 -0.4087
  472MOL0     H63654   2.684   1.104   3.109  0.6818  0.8914  3.1076
  472MOL0     H63655   2.956   1.075   2.733 -0.8028  2.9520  2.0415
  472MOL0     H63656   3.013   0.985   2.866  0.6999 -0.1282 -1.9603
  472MOL0     H63657   2.957   0.810   2.698  0.1633  1.0744  0.1617
  472MOL0     H63658   2.826   0.809   2.806 -1.6340  0.1128 -2.6909
  472MOL0     H63659   2.741   0.797   2.603  2.9623 -1.6131  0.0202
  472MOL0     H63660   2.702   0.960   2.668 -0.8939 -0.4330  0.7301
  472MOL0     H63661   2.775   0.895   2.414  3.1167 -1.9771 -1.2940
  472MOL0     H63662   2.810   1.059   2.477 -1.1980 -0.3028  1.1869
  472MOL0     H63663   2.997   0.981   2.359 -0.7016 -0.8661 -1.0284
  472MOL0     H63664   3.037   0.989   2.531 -1.0508  5.3713 -1.5697
  472MOL0     H63665   3.028   0.726   2.523  1.3713 -0.5137 -0.3556
  472MOL0     H63666   2.946   0.741   2.373 -0.9983  0.7574  0.7710
  472MOL0     H63667   3.197   0.668   2.341  0.5778 -0.1474 -3.2167
  472MOL0     H63668   3.153   0.812   2.252 -3.0607 -1.5118  0.5169
  472MOL0     H63669   3.283   0.938   2.413  1.9593 -0.8139 -2.8036
  472MOL0     H63670   3.387   0.799   2.386  0.0958 -2.4271  0.6041
  472MOL0     H63671   3.433   0.623   2.541  2.1910  0.3648  1.9051
  472MOL0     H63672   3.373   0.608   2.913  0.3129  0.5861  0.0008
  472MOL0     H63673   3.386   0.489   2.770 -4.0681  2.1960 -3.2998
  472MOL0     H63674   3.587   0.695   2.880  2.1247 -1.0733  1.5205
  472MOL0     H63675   3.607   0.626   2.728 -0.7124 -0.3759 -1.4054
  472MOL0     H63676   3.656   0.393   2.834  0.6798  1.1196 -1.0036
  472MOL0     H63677   3.587   0.457   2.984 -0.4856 -0.6962 -1.2653
  472MOL0     H63678   3.831   0.567   2.841  0.8646 -1.5806 -0.3234
  472MOL0     H63679   3.850   0.442   2.968  0.1760 -1.2855 -2.6402
  472MOL0     H63680   4.044   0.577   2.946 -1.6209 -1.2002 -1.3616
  472MOL0     H63681   4.325   0.780   2.950 -1.8170  0.3624  0.6358
  472MOL0     H63682   4.324   0.681   3.098  1.8859 -0.1795 -0.0626
  472MOL0     H63683   4.275   0.610   2.945  1.8236 -1.1215  1.3246
  472MOL0     H63684   4.611   0.897   3.074  1.7645 -0.2882  0.1916
  472MOL0     H63685   4.804   1.054   3.104  0.1464  0.0170 -0.3821
  472MOL0     H63686   4.752   1.445   3.300 -1.4552 -0.3623  0.7491
  472MOL0     H63687   4.803   1.351   3.440 -1.1001  2.3212  0.5485
  472MOL0     H63688   5.044   1.325   3.362  0.8679 -0.4711  1.3916
  472MOL0     H63689   5.003   1.430   3.226  4.0108  0.1975  1.4004
  472MOL0     H63690   4.977   1.486   3.522  1.1928  0.2499 -0.4637
  472MOL0     H63691   4.899   1.592   3.410 -0.6379  0.3949 -0.4520
  472MOL0     H63692   5.120   1.682   3.510 -3.2249  0.8510 -0.0054
  472MOL0     H63693   5.197   1.544   3.434  2.5224  1.5324  3.7641
  472MOL0     H63694   5.046   1.761   3.265  0.0499  0.1610 -2.9494
  472MOL0     H63695   5.175   1.654   3.211  1.3694  0.1274  0.3820
  472MOL0     H63696   5.248   1.886   3.213  1.0179  0.2235 -0.5892
  472MOL0     H63697   5.220   1.890   3.383  2.3626  0.4260  0.1581
  472MOL0     H63698   5.415   1.679   3.267  1.8516 -0.0838  1.3934
  472MOL0     H63699   5.381   1.710   3.429 -0.4501 -1.4952 -0.9065
  472MOL0     H63700   5.524   1.913   3.255 -1.7718 -1.9983 -1.1272
  472MOL0     H63701   5.589   1.807   3.380 -0.8487 -2.6740 -3.2954
  472MOL0     H63702   4.564   1.325   3.326 -1.8868  1.4545 -1.3060
  472MOL0     H63703   4.363   1.182   3.286 -0.3389 -0.5998  1.3144
  472MOL0     H63704   3.987   0.944   3.277 -2.5442  2.9502 -1.9615
  472MOL0     H63705   3.797   0.793   3.226 -0.9612 -0.4606 -1.4152
  472MOL0     H63706   2.967   1.263   2.830  0.5003  1.0647  0.3216
  472MOL0     H63707   2.976   1.459   2.946  0.8026 -0.3282 -0.3564
  472MOL0     H63708   2.702   1.701   3.504 -0.4737 -0.9223 -1.5946
  472MOL0     H63709   2.735   1.920   3.574  0.6445  1.7786 -0.6583
  472MOL0     H63710   2.748   2.135   3.560 -0.6271  0.1230  2.5314
  472MOL0     H63711   2.885   2.141   3.662 -1.0150 -3.7419 -1.5151
  472MOL0     H63712   2.973   2.334   3.528  0.2689 -3.8936 -2.2950
  472MOL0     H63713   2.809   2.368   3.598 -2.7209 -0.4272 -1.3968
  472MOL0     H63714   2.706   2.301   3.376 -1.0533  1.0884  0.7501
  472MOL0     H63715   2.858   2.282   3.295 -2.1403  0.9599 -2.6924
  472MOL0     H63716   2.914   2.523   3.332  1.1386 -1.4978 -3.2634
  472MOL0     H63717   2.763   2.542   3.416  0.0678  1.0813 -0.3562
  472MOL0     H63718   2.640   2.570   3.015  1.4109  0.3384 -0.0563
  472MOL0     H63719   3.021   1.976   3.247 -2.0186 -0.9240 -3.1428
  472MOL0     H63720   2.974   1.755   3.174  0.9698 -1.4056  0.3632
  473MOL0     O63721   7.420   7.688   5.365 -0.2893 -0.1517  0.7200
  473MOL0     C63722   7.296   7.682   5.352 -1.0821  0.8212 -0.1508
  473MOL0     O63723   7.225   7.616   5.452  0.7363  0.3886 -0.1514
  473MOL0     C63724   7.282   7.558   5.563  0.0579  0.4930 -0.4049
  473MOL0     C63725   7.254   7.613   5.690  0.5560 -0.3515  0.2852
  473MOL0     C63726   7.323   7.575   5.809  1.2052 -0.1204 -0.2152
  473MOL0     C63727   7.418   7.476   5.792  0.6335 -0.1020  0.4531
  473MOL0     O63728   7.495   7.420   5.897 -0.7186  0.0369  0.8648
  473MOL0     C63729   7.472   7.461   6.029 -0.2206  0.7602 -0.3373
  473MOL0     C63730   7.554   7.375   6.125  0.0952  0.3556  0.1273
  473MOL0     C63731   7.496   7.233   6.131 -0.0504  0.5785  0.1972
  473MOL0     C63732   7.535   7.185   6.269  0.0966 -0.3548 -0.4112
  473MOL0     C63733   7.486   7.043   6.276 -0.2842 -0.3107  0.4701
  473MOL0     C63734   7.500   7.005   6.421  0.5097  0.6155 -0.4471
  473MOL0     C63735   7.455   6.855   6.447  0.3192 -0.1047 -0.2778
  473MOL0     C63736   7.518   6.792   6.572 -0.3438  0.4736 -0.5357
  473MOL0     N63737   7.482   6.651   6.600 -0.1712  0.3488 -0.1308
  473MOL0     C63738   7.566   6.559   6.670  1.4881 -0.2958  0.2175
  473MOL0     C63739   7.480   6.453   6.695  0.7446  0.1737 -0.2836
  473MOL0     C63740   7.513   6.334   6.777 -0.0284  0.4886 -0.0551
  473MOL0     C63741   7.551   6.361   6.921  0.2465 -0.3380 -0.2410
  473MOL0     C63742   7.643   6.246   6.962 -1.0808  0.8755 -0.2706
  473MOL0     C63743   7.666   6.221   7.117 -0.2502  0.2503  0.4391
  473MOL0     O63744   7.538   6.198   7.172 -0.4658 -0.1623 -0.7746
  473MOL0     C63745   7.509   6.064   7.205 -0.7357 -0.8393  1.0510
  473MOL0     C63746   7.578   5.994   7.304 -0.3837  0.4039 -0.5389
  473MOL0     C63747   7.542   5.858   7.334  0.7587 -0.7196  1.0334
  473MOL0     C63748   7.611   5.791   7.455 -0.1968 -0.5512 -0.5682
  473MOL0     C63749   7.452   5.790   7.249 -0.0204 -0.4160  0.0997
  473MOL0     C63750   7.410   5.648   7.262 -0.6159  0.7401 -0.6355
  473MOL0     O63751   7.279   5.608   7.228  0.4853 -1.2929  0.5685
  473MOL0     C63752   7.242   5.475   7.218  0.7715  0.5376 -0.1109
  473MOL0     C63753   7.320   5.365   7.186  0.4175  1.1539 -0.0635
  473MOL0     C63754   7.266   5.238   7.163 -0.8146 -0.4667 -0.6733
  473MOL0     C63755   7.123   5.220   7.156  0.2690 -0.5979 -0.2638
  473MOL0     O63756   7.065   5.104   7.123 -0.7529  0.3453 -0.2021
  473MOL0     C63757   7.129   5.030   7.024 -0.5198  0.1035 -0.1753
  473MOL0     C63758   7.052   4.903   7.004 -0.6443  0.0416 -0.5597
  473MOL0     C63759   6.904   4.929   6.962 -0.7982 -0.2417 -0.1930
  473MOL0     C63760   6.808   4.815   6.925 -0.0609  0.5573 -0.2492
  473MOL0     C63761   6.663   4.871   6.895  0.4160 -0.4720  0.3792
  473MOL0     C63762   6.567   4.754   6.896 -0.8019  0.5943 -0.6192
  473MOL0     C63763   6.446   4.763   6.802 -0.2586  0.1516 -0.3665
  473MOL0     C63764   6.347   4.657   6.836 -0.1034  0.5667  0.3299
  473MOL0    Cl63765   6.207   4.725   6.752  0.0399 -0.1367 -0.0560
  473MOL0     C63766   7.042   5.324   7.195 -0.6172 -0.7917  0.6912
  473MOL0     C63767   7.099   5.452   7.226 -0.2691  0.1615  0.6262
  473MOL0     O63768   7.492   5.573   7.315 -0.2539 -0.3367 -0.9779
  473MOL0     C63769   7.374   5.866   7.155 -0.1042 -1.0254  0.0241
  473MOL0     C63770   7.404   6.002   7.135 -0.0442  0.5165  0.6261
  473MOL0     N63771   7.357   6.482   6.649  0.1248  0.2778  0.6440
  473MOL0     N63772   7.361   6.592   6.594 -0.2584  0.2982 -0.0837
  473MOL0     C63773   7.438   7.399   5.671  0.0412  0.7932 -0.3094
  473MOL0     C63774   7.377   7.450   5.563  0.5966  0.4079  0.5980
  473MOL0     C63775   7.234   7.748   5.239 -0.1470 -0.2650 -0.2716
  473MOL0     C63776   7.120   7.821   5.255  0.5479  0.1681 -0.1959
  473MOL0     C63777   7.062   7.887   5.147 -0.6074  0.1831  0.9793
  473MOL0     C63778   7.108   7.879   5.019 -0.6993 -0.7889  1.1836
  473MOL0     O63779   7.048   7.950   4.916  0.2491 -0.3599 -0.2187
  473MOL0     C63780   7.105   7.996   4.797  0.1632  0.5534  0.4117
  473MOL0     C63781   7.090   7.881   4.686 -0.2429 -0.2065  0.2316
  473MOL0     C63782   7.065   7.932   4.541  0.1657 -0.1682  0.0914
  473MOL0     C63783   7.104   7.815   4.451  0.0905  0.3338  0.0976
  473MOL0     C63784   7.099   7.834   4.310 -0.2523 -0.2757  0.4681
  473MOL0     C63785   7.087   7.862   4.189  0.6951 -0.0322  0.1079
  473MOL0     C63786   7.222   7.797   4.996 -0.0044 -0.1290  0.1403
  473MOL0     C63787   7.278   7.726   5.109 -0.4578 -0.3546 -0.3074
  473MOL0     H63788   7.189   7.700   5.685 -0.2772 -0.9742 -4.3322
  473MOL0     H63789   7.299   7.614   5.907  0.9170  3.8136 -1.6618
  473MOL0     H63790   7.482   7.566   6.061 -0.1071  0.1859  1.6193
  473MOL0     H63791   7.366   7.440   6.047  0.5253 -1.2729  2.2126
  473MOL0     H63792   7.659   7.369   6.092  0.3288  1.3935  0.6432
  473MOL0     H63793   7.559   7.432   6.218 -0.9264  3.3510 -1.5068
  473MOL0     H63794   7.388   7.247   6.117 -0.1619  2.1170  2.1184
  473MOL0     H63795   7.539   7.161   6.061  0.8431  3.2275 -2.1497
  473MOL0     H63796   7.644   7.193   6.276 -0.0837  1.0572  1.7279
  473MOL0     H63797   7.493   7.250   6.345 -0.4163 -0.8839 -0.2305
  473MOL0     H63798   7.382   7.030   6.245 -0.1587  2.2698 -1.3123
  473MOL0     H63799   7.541   6.985   6.202  0.3043 -0.2296  0.8352
  473MOL0     H63800   7.606   7.003   6.449 -0.1724 -0.4353  2.4220
  473MOL0     H63801   7.444   7.077   6.480 -0.8350  0.2661 -1.2556
  473MOL0     H63802   7.346   6.846   6.445 -0.1088  3.4101 -2.2456
  473MOL0     H63803   7.489   6.812   6.352  1.1407  0.4827 -0.2635
  473MOL0     H63804   7.491   6.845   6.663  3.3818 -0.7302  1.4902
  473MOL0     H63805   7.627   6.802   6.567 -0.4515  2.4637  0.2932
  473MOL0     H63806   7.670   6.561   6.700  1.9684 -1.1768 -1.2839
  473MOL0     H63807   7.439   6.254   6.766  1.5881 -1.4416  2.1278
  473MOL0     H63808   7.594   6.295   6.715 -1.8194 -2.2298 -0.8696
  473MOL0     H63809   7.456   6.369   6.975  0.4814  1.6813 -0.0363
  473MOL0     H63810   7.603   6.455   6.940 -1.0133 -0.1716  3.0597
  473MOL0     H63811   7.739   6.257   6.910 -0.9582  0.9463 -0.0337
  473MOL0     H63812   7.604   6.153   6.919 -0.5558  0.6236 -0.2135
  473MOL0     H63813   7.694   6.322   7.149 -2.2484  1.4178 -1.1925
  473MOL0     H63814   7.749   6.155   7.142 -0.5521  0.5950  2.5850
  473MOL0     H63815   7.658   6.045   7.357 -0.7164 -0.0323  0.3893
  473MOL0     H63816   7.665   5.862   7.519  0.1950 -0.2911 -1.1772
  473MOL0     H63817   7.544   5.736   7.521  2.0211  0.7946  3.1548
  473MOL0     H63818   7.677   5.713   7.416  0.9790  1.4506 -2.8371
  473MOL0     H63819   7.429   5.369   7.183  0.4680  0.8561  1.1093
  473MOL0     H63820   7.333   5.153   7.154 -2.3642 -1.9654  1.1221
  473MOL0     H63821   7.136   5.094   6.935  0.1154 -0.2331 -0.3673
  473MOL0     H63822   7.232   5.009   7.054 -1.0692 -2.3750  0.1891
  473MOL0     H63823   7.109   4.848   6.928  0.8612 -0.3111  0.7833
  473MOL0     H63824   7.051   4.858   7.104 -3.7476  2.9027  0.8960
  473MOL0     H63825   6.902   5.009   6.887  3.9921 -0.4306 -0.8455
  473MOL0     H63826   6.863   4.978   7.051  2.5035  1.5975  0.4648
  473MOL0     H63827   6.848   4.762   6.838  0.7830 -2.5130  1.8819
  473MOL0     H63828   6.804   4.746   7.009  0.0038  1.7140  0.7295
  473MOL0     H63829   6.662   4.921   6.798 -2.7613 -1.4585 -0.2240
  473MOL0     H63830   6.635   4.942   6.973  0.8954 -0.5735  0.6506
  473MOL0     H63831   6.619   4.663   6.865 -0.3633  0.9501 -0.9427
  473MOL0     H63832   6.527   4.747   6.997 -3.2344 -1.3348 -1.6122
  473MOL0     H63833   6.479   4.757   6.698 -0.6309 -2.5235 -0.4192
  473MOL0     H63834   6.406   4.863   6.818 -0.2790  0.2957 -1.2571
  473MOL0     H63835   6.322   4.643   6.941  0.6131 -1.6505  0.2729
  473MOL0     H63836   6.378   4.565   6.785  1.8286  0.5344  1.4507
  473MOL0     H63837   6.936   5.302   7.204 -0.3389 -2.0923  1.0828
  473MOL0     H63838   7.047   5.539   7.265 -2.9606 -0.4557 -1.2805
  473MOL0     H63839   7.295   5.816   7.099  0.0025  1.3571 -2.4877
  473MOL0     H63840   7.351   6.047   7.052 -0.1127 -1.6444 -0.5753
  473MOL0     H63841   7.499   7.310   5.669 -0.7014  0.2721 -0.1126
  473MOL0     H63842   7.385   7.404   5.465 -4.6685 -2.1257  0.9840
  473MOL0     H63843   7.078   7.803   5.353 -1.1826  1.8667 -0.5690
  473MOL0     H63844   6.970   7.945   5.155 -1.3189 -0.8547  0.5711
  473MOL0     H63845   7.047   8.084   4.767 -0.5747 -0.1180 -0.1743
  473MOL0     H63846   7.207   8.027   4.821 -0.2332  1.6038  0.7893
  473MOL0     H63847   6.996   7.835   4.717 -1.8445  2.1351 -0.8491
  473MOL0     H63848   7.170   7.807   4.689  0.0655  0.0073 -1.5679
  473MOL0     H63849   7.121   8.025   4.532 -2.6912  1.5844 -1.1695
  473MOL0     H63850   6.958   7.956   4.533 -0.1303 -1.2423  0.7703
  473MOL0     H63851   7.038   7.735   4.485 -0.5550  1.2356  1.0102
  473MOL0     H63852   7.206   7.784   4.474  0.2639  0.1145 -0.9010
  473MOL0     H63853   7.078   7.892   4.086  1.3889 -2.8829 -0.8717
  473MOL0     H63854   7.279   7.784   4.904  0.4469 -2.6434  0.6874
  473MOL0     H63855   7.368   7.668   5.089 -1.2634 -1.5761 -0.4973
  474MOL0     O63856   7.234   9.960   7.279  0.2709  0.0323 -0.1612
  474MOL0     C63857   7.282   9.928   7.165  0.3256  0.8375 -0.3203
  474MOL0     O63858   7.412   9.954   7.121 -0.6987 -0.0888 -0.1973
  474MOL0     C63859   7.502  10.030   7.191 -0.0882 -0.4062  0.7014
  474MOL0     C63860   7.453  10.146   7.250 -0.1821 -0.4872 -0.2738
  474MOL0     C63861   7.538  10.226   7.333 -0.2903  0.3589  0.4382
  474MOL0     C63862   7.671  10.178   7.358  0.3125 -0.4439  0.5994
  474MOL0     O63863   7.763  10.227   7.453  0.0081  0.1674  0.3890
  474MOL0     C63864   7.747  10.365   7.478 -0.1182  0.2061 -0.0795
  474MOL0     C63865   7.863  10.416   7.564 -0.4186 -0.4734 -1.0927
  474MOL0     C63866   7.857  10.367   7.711 -0.2638  0.1089  0.7239
  474MOL0     C63867   7.950  10.446   7.807 -0.3324 -0.1963  0.3412
  474MOL0     C63868   8.087  10.468   7.735  0.3882 -0.5125  0.3307
  474MOL0     C63869   8.185  10.518   7.838 -0.2725 -0.8033  0.3791
  474MOL0     C63870   8.268  10.644   7.777  0.3402  0.4788 -0.3180
  474MOL0     C63871   8.372  10.670   7.877 -0.1906 -0.8183 -0.2278
  474MOL0     N63872   8.483  10.752   7.823 -0.0968  0.0688 -0.8126
  474MOL0     C63873   8.601  10.702   7.799 -0.3082  0.1415 -0.4996
  474MOL0     C63874   8.677  10.815   7.770  0.6998  0.1001 -0.5749
  474MOL0     C63875   8.811  10.800   7.711 -0.0766  0.1945 -0.1162
  474MOL0     C63876   8.919  10.875   7.782  0.3636  0.3331  0.3181
  474MOL0     C63877   9.053  10.845   7.715 -0.5220 -0.3816 -0.8567
  474MOL0     C63878   9.153  10.950   7.769  1.0338  0.1997 -0.3131
  474MOL0     O63879   9.257  10.955   7.675 -0.6330  0.4303 -1.0167
  474MOL0     C63880   9.384  10.942   7.740  0.7504  0.0709 -0.7834
  474MOL0     C63881   9.455  10.826   7.743 -0.1516  0.5101 -0.2556
  474MOL0     C63882   9.582  10.826   7.807  0.4269  0.2382  0.0325
  474MOL0     C63883   9.663  10.699   7.793  0.4320  0.1754 -0.4329
  474MOL0     C63884   9.637  10.937   7.868  0.5285 -0.6681 -0.1034
  474MOL0     C63885   9.776  10.937   7.925 -0.0316  0.3548 -0.1442
  474MOL0     O63886   9.881  10.865   7.881 -0.7497  0.4665  0.1007
  474MOL0     C63887  10.010  10.894   7.919  0.4300  0.1566 -0.4767
  474MOL0     C63888  10.092  10.782   7.946  0.3912  0.8309 -0.5576
  474MOL0     C63889  10.220  10.798   7.991  0.5419  0.7769  0.2365
  474MOL0     C63890  10.273  10.920   8.009  0.3719 -0.0490 -1.0803
  474MOL0     O63891  10.398  10.945   8.053 -0.0736  0.3059 -0.5002
  474MOL0     C63892  10.499  10.855   8.055  0.4064 -0.3902 -0.8762
  474MOL0     C63893  10.629  10.925   8.021 -0.9686 -0.2504 -0.6861
  474MOL0     C63894  10.664  11.036   8.119  0.5348  0.1175 -0.2217
  474MOL0     C63895  10.689  10.982   8.258  0.1276 -0.0291  0.0671
  474MOL0     C63896  10.775  11.083   8.346  0.5110 -0.1020 -0.7050
  474MOL0     C63897  10.805  11.019   8.482 -0.6218  0.3309 -0.6179
  474MOL0     C63898  10.939  11.075   8.546 -0.5634 -0.3999 -0.5254
  474MOL0     C63899  11.067  11.031   8.466 -0.5510 -1.0138  0.1041
  474MOL0    Cl63900  11.062  10.852   8.458  0.0453 -0.4673 -0.1268
  474MOL0     C63901  10.197  11.032   7.995 -0.3667  0.1361 -0.2598
  474MOL0     C63902  10.071  11.020   7.938  0.4515  0.4519  0.8682
  474MOL0     O63903   9.782  11.031   8.001 -0.3882  0.3263 -0.2972
  474MOL0     C63904   9.555  11.051   7.873  0.1207 -0.9943  0.2094
  474MOL0     C63905   9.430  11.056   7.810 -0.0228  0.7934  0.5699
  474MOL0     N63906   8.597  10.920   7.773 -0.1074 -0.0726  1.3025
  474MOL0     N63907   8.483  10.882   7.802  0.5637  0.5177 -0.8152
  474MOL0     C63908   7.717  10.066   7.290 -0.1522  0.0022 -0.4441
  474MOL0     C63909   7.631   9.997   7.204 -0.8753 -0.9075  1.0854
  474MOL0     C63910   7.208   9.846   7.076 -0.1675  0.2637 -0.3792
  474MOL0     C63911   7.089   9.787   7.127 -0.5585  0.4214  0.1695
  474MOL0     C63912   7.013   9.705   7.038  0.4189  1.0324 -0.7062
  474MOL0     C63913   7.060   9.687   6.898  0.2558 -0.1367  0.1805
  474MOL0     O63914   6.973   9.620   6.813 -0.6306 -0.3774  0.5883
  474MOL0     C63915   6.949   9.481   6.853 -0.5586 -0.4804  0.1272
  474MOL0     C63916   7.045   9.398   6.767 -0.2695 -0.7615  1.1622
  474MOL0     C63917   7.005   9.353   6.622  1.0527  0.4798  0.5487
  474MOL0     C63918   6.864   9.292   6.619  0.3105  0.4740 -0.3263
  474MOL0     C63919   6.837   9.206   6.505  0.7154  1.4774  0.0370
  474MOL0     C63920   6.814   9.128   6.411  0.0873 -0.0066  0.0781
  474MOL0     C63921   7.167   9.760   6.852 -0.0906  0.2635 -0.0070
  474MOL0     C63922   7.234   9.838   6.944  0.2738  0.6818 -0.3688
  474MOL0     H63923   7.350  10.174   7.230  1.0800  3.4552 -2.3583
  474MOL0     H63924   7.498  10.320   7.370 -1.2474  1.2718 -2.5723
  474MOL0     H63925   7.769  10.412   7.382  0.3800 -1.6889 -0.9251
  474MOL0     H63926   7.649  10.390   7.521  0.8641  2.3427  1.1042
  474MOL0     H63927   7.960  10.395   7.518  0.2583 -1.8047  0.8587
  474MOL0     H63928   7.849  10.524   7.576 -2.1301 -0.6863 -0.8195
  474MOL0     H63929   7.760  10.387   7.758  0.3332  1.2942  1.4913
  474MOL0     H63930   7.876  10.260   7.712 -0.9488 -0.0549 -0.5993
  474MOL0     H63931   7.909  10.546   7.822  1.4886  1.0217 -2.0305
  474MOL0     H63932   7.962  10.387   7.898  3.7718 -2.8906 -1.6321
  474MOL0     H63933   8.129  10.381   7.684 -1.0433 -3.0497  3.1608
  474MOL0     H63934   8.074  10.548   7.661 -0.0130 -0.1159  0.8183
  474MOL0     H63935   8.133  10.567   7.921  3.8256  0.3670  2.5411
  474MOL0     H63936   8.252  10.437   7.867 -0.3965 -1.3322 -0.7630
  474MOL0     H63937   8.319  10.622   7.682  2.9335  0.2336  1.0417
  474MOL0     H63938   8.207  10.732   7.754  2.0315  2.3046  1.7615
  474MOL0     H63939   8.413  10.579   7.921  0.9166  0.2550  1.0405
  474MOL0     H63940   8.318  10.720   7.957 -0.1600 -0.0105 -0.7023
  474MOL0     H63941   8.630  10.597   7.796 -1.3078 -0.1493 -3.4766
  474MOL0     H63942   8.840  10.694   7.718 -0.1720  0.2898  3.2896
  474MOL0     H63943   8.803  10.826   7.605  0.0582  1.6807  0.2206
  474MOL0     H63944   8.923  10.847   7.887  2.7115  1.1853  0.5260
  474MOL0     H63945   8.899  10.982   7.774  4.9854  1.3430 -0.6418
  474MOL0     H63946   9.036  10.861   7.608 -4.5464  1.7791 -0.1253
  474MOL0     H63947   9.084  10.743   7.742  1.1335  0.8609  2.4268
  474MOL0     H63948   9.184  10.924   7.870  2.0435 -1.0876 -0.9226
  474MOL0     H63949   9.109  11.050   7.772  1.3519  0.3145  1.8947
  474MOL0     H63950   9.418  10.735   7.699 -4.9861  2.6806 -1.3647
  474MOL0     H63951   9.593  10.616   7.775  0.8809 -0.4535  0.6106
  474MOL0     H63952   9.736  10.717   7.713  0.9534  1.5975  0.3381
  474MOL0     H63953   9.709  10.679   7.890 -0.6022  1.6432  0.3987
  474MOL0     H63954  10.054  10.680   7.946  2.0092  0.1785 -1.8952
  474MOL0     H63955  10.279  10.707   7.994 -0.9723 -0.2849 -0.7955
  474MOL0     H63956  10.517  10.810   8.153  1.8295  3.7600  1.0120
  474MOL0     H63957  10.492  10.774   7.982 -0.3805 -0.8577 -0.3034
  474MOL0     H63958  10.709  10.852   8.006 -0.2600  0.6170 -1.1835
  474MOL0     H63959  10.607  10.962   7.921 -0.4407  0.6793 -0.4653
  474MOL0     H63960  10.575  11.099   8.131 -0.9760 -2.0272  0.4155
  474MOL0     H63961  10.748  11.094   8.078 -0.0442  0.6627 -0.6582
  474MOL0     H63962  10.599  10.975   8.319 -1.3704  0.9920 -1.8897
  474MOL0     H63963  10.734  10.882   8.253 -1.6122 -0.7837 -3.0712
  474MOL0     H63964  10.714  11.171   8.368  0.7876 -0.4427  1.7450
  474MOL0     H63965  10.874  11.098   8.301  1.7618 -0.6036  1.7242
  474MOL0     H63966  10.723  11.044   8.552  0.5128 -2.2691  1.8477
  474MOL0     H63967  10.813  10.910   8.477 -1.3144 -0.0609  3.2863
  474MOL0     H63968  10.946  11.044   8.651  4.2088 -2.2644 -1.1689
  474MOL0     H63969  10.942  11.183   8.532  3.4088 -0.1584  1.1100
  474MOL0     H63970  11.156  11.071   8.515  0.0330 -0.3264 -1.4742
  474MOL0     H63971  11.059  11.064   8.362 -0.7207 -3.2538 -0.6499
  474MOL0     H63972  10.235  11.133   8.008 -2.4051  1.1457 -1.5975
  474MOL0     H63973  10.013  11.108   7.912  0.2074 -0.2797 -1.3217
  474MOL0     H63974   9.574  11.141   7.929  0.8650 -0.3178 -1.0744
  474MOL0     H63975   9.378  11.151   7.811  1.2236  1.5230  3.0273
  474MOL0     H63976   7.811  10.020   7.317 -0.7886 -2.6101 -2.3268
  474MOL0     H63977   7.658   9.909   7.147 -0.8039  0.0089 -0.3372
  474MOL0     H63978   7.064   9.804   7.231  0.1507 -1.1933  0.6417
  474MOL0     H63979   6.928   9.651   7.079  0.4214 -0.5172 -2.5925
  474MOL0     H63980   6.975   9.463   6.958 -1.1171 -0.9706  0.1880
  474MOL0     H63981   6.851   9.435   6.833  0.0829 -1.6466 -0.4921
  474MOL0     H63982   7.065   9.306   6.823 -1.4010 -0.3481  2.2935
  474MOL0     H63983   7.141   9.449   6.754 -1.6139  1.2766 -1.7965
  474MOL0     H63984   7.073   9.288   6.567 -0.4851 -0.2001 -0.6205
  474MOL0     H63985   7.005   9.452   6.575  1.1915 -0.3240 -1.1787
  474MOL0     H63986   6.786   9.368   6.609 -1.5386 -1.1280  0.9501
  474MOL0     H63987   6.845   9.229   6.707 -0.5545  0.2330 -0.6730
  474MOL0     H63988   6.803   9.048   6.341 -1.4298 -1.1737  1.5595
  474MOL0     H63989   7.227   9.741   6.763  1.2255 -0.2148  0.9386
  474MOL0     H63990   7.317   9.893   6.901 -0.4184  2.2494  0.1865
  475MOL0     O63991   9.880   2.556   2.779  0.4378  1.1380 -0.0733
  475MOL0     C63992   9.857   2.678   2.782 -0.1754 -0.2025  0.4556
  475MOL0     O63993   9.763   2.744   2.856 -0.0554 -0.1754  0.0431
  475MOL0     C63994   9.684   2.669   2.932 -0.1429 -0.9866 -0.1972
  475MOL0     C63995   9.732   2.571   3.033 -0.7780  0.3548  0.4414
  475MOL0     C63996   9.646   2.503   3.113  1.1862 -0.1200 -0.3395
  475MOL0     C63997   9.506   2.535   3.093 -0.7155 -0.4114  0.4534
  475MOL0     O63998   9.413   2.494   3.183 -0.5164  1.0472  0.5052
  475MOL0     C63999   9.439   2.441   3.309 -0.9511 -0.8450  0.4731
  475MOL0     C64000   9.334   2.409   3.398 -0.4388 -1.1138 -0.2457
  475MOL0     C64001   9.387   2.374   3.540 -0.0136  0.7333  0.7760
  475MOL0     C64002   9.266   2.329   3.626  0.1470 -0.8276  0.8350
  475MOL0     C64003   9.194   2.202   3.580 -0.0815 -0.6488 -0.2184
  475MOL0     C64004   9.076   2.160   3.668  0.4311  0.6741  0.2177
  475MOL0     C64005   9.016   2.029   3.605  0.1241  1.1363 -0.5472
  475MOL0     C64006   9.103   1.907   3.638  0.7506 -0.2166 -0.3224
  475MOL0     N64007   9.089   1.807   3.534 -0.0027  0.4443 -0.4103
  475MOL0     C64008   8.972   1.733   3.514 -0.5384  0.1652  0.4056
  475MOL0     C64009   9.015   1.634   3.434 -0.1038  0.4020  0.7321
  475MOL0     C64010   8.925   1.518   3.408  0.2619  0.6049  0.4610
  475MOL0     C64011   8.779   1.541   3.369 -0.5618 -0.2071  0.1795
  475MOL0     C64012   8.703   1.408   3.356 -0.2515  0.4655 -0.6105
  475MOL0     C64013   8.554   1.444   3.357 -0.2929  0.3119 -0.3202
  475MOL0     O64014   8.475   1.334   3.307  0.6480 -0.0218 -0.0731
  475MOL0     C64015   8.338   1.327   3.320  0.0680  1.0519 -0.9891
  475MOL0     C64016   8.260   1.405   3.410 -0.2752 -0.5202 -0.3717
  475MOL0     C64017   8.121   1.406   3.402  0.0755 -0.4561 -0.2052
  475MOL0     C64018   8.049   1.491   3.501 -0.2513  0.3409  0.3299
  475MOL0     C64019   8.060   1.327   3.305  0.1443  0.4289 -0.0458
  475MOL0     C64020   7.913   1.319   3.296  0.3331  0.7998 -0.6941
  475MOL0     O64021   7.866   1.209   3.223 -0.0396 -0.6703  0.0311
  475MOL0     C64022   7.734   1.203   3.200  1.1339  1.1096 -0.0379
  475MOL0     C64023   7.654   1.138   3.291 -0.6843 -0.1712 -0.2657
  475MOL0     C64024   7.518   1.135   3.268 -0.1914 -0.4250  0.2231
  475MOL0     C64025   7.457   1.197   3.153 -0.2148  0.1733 -0.3668
  475MOL0     O64026   7.324   1.190   3.124 -0.3863 -0.5780 -0.0347
  475MOL0     C64027   7.225   1.171   3.227 -0.5738 -0.7361  0.6172
  475MOL0     C64028   7.098   1.103   3.177  0.2306  0.2478 -0.2180
  475MOL0     C64029   6.971   1.128   3.261 -0.5476  1.0329  0.6250
  475MOL0     C64030   6.880   0.999   3.268  0.0599  0.6572 -0.2000
  475MOL0     C64031   6.828   0.944   3.140 -0.2358  0.4892  1.1776
  475MOL0     C64032   6.709   0.840   3.154  0.0548 -0.7977  0.4624
  475MOL0     C64033   6.593   0.899   3.228 -0.4846  0.6925 -0.6882
  475MOL0     C64034   6.465   0.815   3.202 -0.6970 -0.8679  0.3474
  475MOL0    Cl64035   6.315   0.887   3.290 -0.0685 -0.0202 -0.2089
  475MOL0     C64036   7.546   1.243   3.057  0.0523 -0.0797  0.1839
  475MOL0     C64037   7.681   1.248   3.080  0.2245  0.1882  0.4436
  475MOL0     O64038   7.839   1.404   3.349  0.1986 -0.0713 -0.0411
  475MOL0     C64039   8.136   1.227   3.235  0.2107  0.1034  0.1536
  475MOL0     C64040   8.274   1.239   3.232 -0.5169  0.1252  0.9015
  475MOL0     N64041   9.145   1.650   3.389 -0.3810  0.6158  0.1687
  475MOL0     N64042   9.188   1.768   3.443  1.2735 -0.2541 -0.4143
  475MOL0     C64043   9.467   2.630   3.005 -0.0723 -1.0025  1.1942
  475MOL0     C64044   9.555   2.702   2.925 -0.2661 -0.1276 -1.0695
  475MOL0     C64045   9.939   2.772   2.698  0.0971 -0.5748  0.5006
  475MOL0     C64046  10.050   2.725   2.625  0.5533 -0.5580 -0.2580
  475MOL0     C64047  10.127   2.810   2.556  0.0691 -0.6093 -0.2381
  475MOL0     C64048  10.098   2.942   2.535  0.0993  0.1200 -0.3577
  475MOL0     O64049  10.161   3.030   2.453 -0.5566  0.1852 -0.6692
  475MOL0     C64050  10.233   2.983   2.341 -0.5957  0.6753 -0.0314
  475MOL0     C64051  10.376   3.005   2.377 -0.1399  0.0031 -0.0207
  475MOL0     C64052  10.456   2.951   2.256  1.0006  0.1113  0.2738
  475MOL0     C64053  10.608   2.979   2.260 -0.2891 -0.0282 -0.3090
  475MOL0     C64054  10.651   3.113   2.245 -0.2337  0.1116  0.7845
  475MOL0     C64055  10.684   3.227   2.235 -0.0747 -0.3478 -1.4285
  475MOL0     C64056   9.988   2.999   2.600  0.2503  0.2672  0.1975
  475MOL0     C64057   9.906   2.916   2.676  0.0327 -0.0548 -0.4926
  475MOL0     H64058   9.834   2.535   3.035 -1.3381 -1.3575 -0.1054
  475MOL0     H64059   9.684   2.439   3.192  2.0551  0.4745 -0.2586
  475MOL0     H64060   9.495   2.350   3.288  2.3888  1.1408 -0.0667
  475MOL0     H64061   9.511   2.510   3.355  1.7600 -0.2017 -4.1474
  475MOL0     H64062   9.270   2.497   3.413  0.1813 -0.6908 -0.0307
  475MOL0     H64063   9.273   2.331   3.353 -1.9058 -0.1661  0.0388
  475MOL0     H64064   9.450   2.285   3.542  0.0153  0.6117 -2.1208
  475MOL0     H64065   9.438   2.453   3.595  0.8464  0.8992 -0.2339
  475MOL0     H64066   9.302   2.304   3.726 -1.1658 -0.1319  1.5147
  475MOL0     H64067   9.190   2.408   3.627 -1.0984 -1.9880  0.2145
  475MOL0     H64068   9.149   2.227   3.484 -1.2368 -0.5393  0.3330
  475MOL0     H64069   9.257   2.113   3.585  1.4507  0.4505  4.1585
  475MOL0     H64070   9.110   2.137   3.770  3.4065  3.9681  0.1631
  475MOL0     H64071   8.997   2.235   3.657 -1.1630 -1.2781 -3.1750
  475MOL0     H64072   8.926   2.009   3.663  0.2277 -0.1581 -0.8016
  475MOL0     H64073   8.984   2.038   3.500  1.2056  0.8103 -0.9215
  475MOL0     H64074   9.072   1.856   3.729  1.7520 -1.4130 -0.6153
  475MOL0     H64075   9.208   1.934   3.655  0.6335 -0.7875  1.5450
  475MOL0     H64076   8.874   1.738   3.560 -1.3681 -1.6871 -0.9797
  475MOL0     H64077   8.969   1.463   3.324 -2.2452 -1.3512  0.2952
  475MOL0     H64078   8.931   1.455   3.497  0.6515 -0.7059 -0.4666
  475MOL0     H64079   8.775   1.610   3.284  4.1070  1.3156  0.8901
  475MOL0     H64080   8.733   1.605   3.445 -3.3069 -1.7241 -0.0677
  475MOL0     H64081   8.728   1.339   3.436  0.8124  1.6160  0.0888
  475MOL0     H64082   8.740   1.362   3.264 -0.8906 -1.7419  0.1872
  475MOL0     H64083   8.525   1.525   3.289 -1.8220  1.5281  1.6785
  475MOL0     H64084   8.520   1.471   3.457 -1.1439 -0.2717 -0.4390
  475MOL0     H64085   8.308   1.465   3.486 -0.6453 -2.4142  1.4572
  475MOL0     H64086   8.001   1.567   3.438  3.3078  0.1915 -2.9308
  475MOL0     H64087   7.972   1.427   3.545 -0.4837  0.5347  0.2090
  475MOL0     H64088   8.099   1.545   3.582 -1.0979 -0.8287  1.6732
  475MOL0     H64089   7.712   1.110   3.379  3.3864  2.3453 -1.8294
  475MOL0     H64090   7.456   1.078   3.336 -3.2643  0.8635 -1.3242
  475MOL0     H64091   7.267   1.131   3.319  1.8062 -1.7350 -0.8235
  475MOL0     H64092   7.192   1.274   3.244 -2.4342 -1.6385  2.8996
  475MOL0     H64093   7.064   1.140   3.080 -0.8869  0.5205  0.2599
  475MOL0     H64094   7.121   0.997   3.161  1.4541  0.7457 -2.0953
  475MOL0     H64095   6.919   1.216   3.220  0.1390  1.5441  0.8260
  475MOL0     H64096   6.998   1.145   3.366 -0.5031 -4.6795  1.8595
  475MOL0     H64097   6.934   0.913   3.308 -1.0765  0.3900  0.8244
  475MOL0     H64098   6.802   1.019   3.342 -0.4750  0.2361 -0.6330
  475MOL0     H64099   6.913   0.890   3.095 -1.4296 -0.0553 -0.5447
  475MOL0     H64100   6.803   1.026   3.072  2.1099 -1.0042 -1.7013
  475MOL0     H64101   6.674   0.829   3.051  0.5321  0.9648  0.0705
  475MOL0     H64102   6.746   0.750   3.205  0.9414 -0.9961 -0.4862
  475MOL0     H64103   6.584   1.004   3.197  3.7220  1.0889 -1.0919
  475MOL0     H64104   6.619   0.893   3.334 -0.9043 -0.8118 -0.6421
  475MOL0     H64105   6.472   0.712   3.237 -0.0613 -0.9412  0.0181
  475MOL0     H64106   6.445   0.816   3.095  0.8212  1.5075  0.0097
  475MOL0     H64107   7.508   1.285   2.965  0.6254  4.3610  1.7409
  475MOL0     H64108   7.750   1.305   3.019 -1.2578  0.2841 -1.2342
  475MOL0     H64109   8.097   1.146   3.175  3.4933 -1.7581  0.2950
  475MOL0     H64110   8.322   1.170   3.163 -0.7094  1.3342 -0.4926
  475MOL0     H64111   9.362   2.656   2.992  0.9157  3.0028 -0.0753
  475MOL0     H64112   9.513   2.767   2.849  0.6068  0.5075 -1.0322
  475MOL0     H64113  10.090   2.624   2.633  0.2698 -0.5681  1.3851
  475MOL0     H64114  10.221   2.778   2.513  1.0369  0.5976  0.8988
  475MOL0     H64115  10.209   2.877   2.331  3.3989 -0.1075 -4.2737
  475MOL0     H64116  10.203   3.038   2.252 -1.1669  1.7229  0.7778
  475MOL0     H64117  10.408   2.944   2.462 -0.2745  0.3686  0.2921
  475MOL0     H64118  10.391   3.112   2.391 -2.3988  0.4236 -0.3909
  475MOL0     H64119  10.424   3.012   2.171  0.0239 -2.8783 -1.6891
  475MOL0     H64120  10.428   2.850   2.224  1.1830  0.2306 -0.2699
  475MOL0     H64121  10.657   2.932   2.174 -1.3042 -0.1449 -0.8490
  475MOL0     H64122  10.651   2.920   2.341 -5.0896  0.0243  2.6502
  475MOL0     H64123  10.713   3.330   2.222 -1.9191  0.9546  2.8294
  475MOL0     H64124   9.968   3.105   2.585  2.3675  0.7985  0.8693
  475MOL0     H64125   9.822   2.963   2.725  0.0777 -1.0552  0.6018
  476MOL0     O64126   1.963   5.081  11.172  0.3372  0.2740  1.3315
  476MOL0     C64127   2.013   5.069  11.052  1.0469 -0.0125 -0.4784
  476MOL0     O64128   1.976   5.139  10.937 -0.3550  0.1151 -0.3086
  476MOL0     C64129   1.871   5.224  10.949 -0.6122  0.6199  0.1699
  476MOL0     C64130   1.781   5.223  10.843  0.6772 -0.2056 -0.1240
  476MOL0     C64131   1.672   5.313  10.841  0.6288 -0.6114 -0.3181
  476MOL0     C64132   1.654   5.408  10.940  0.1741  0.4598  0.3292
  476MOL0     O64133   1.540   5.478  10.936  0.2746 -0.0091  0.3909
  476MOL0     C64134   1.540   5.606  11.009  0.4559  0.6730  0.3242
  476MOL0     C64135   1.416   5.681  10.967  0.1551  0.2750  0.1318
  476MOL0     C64136   1.419   5.718  10.819 -0.7442 -0.1112  0.9075
  476MOL0     C64137   1.285   5.798  10.783  0.1209  0.1884 -0.4117
  476MOL0     C64138   1.267   5.855  10.646  0.2066 -0.7665 -0.3901
  476MOL0     C64139   1.155   5.958  10.629  0.0250  1.0637 -0.1127
  476MOL0     C64140   1.131   6.006  10.486 -0.3074  0.8112  0.5712
  476MOL0     C64141   1.251   6.057  10.410 -0.4394 -0.0515  0.0493
  476MOL0     N64142   1.231   6.140  10.290  0.1826  0.3071  0.8014
  476MOL0     C64143   1.120   6.212  10.264 -0.8336 -0.2991 -0.3760
  476MOL0     C64144   1.141   6.289  10.155  1.1312 -0.5106 -0.4718
  476MOL0     C64145   1.024   6.370  10.088  0.3119 -0.9567  0.8657
  476MOL0     C64146   1.093   6.443   9.971 -0.5502 -0.3998  0.0495
  476MOL0     C64147   1.008   6.549   9.902 -1.0501 -0.3419 -0.0527
  476MOL0     C64148   1.083   6.595   9.768 -0.3485 -0.4738 -0.8948
  476MOL0     O64149   1.079   6.483   9.673  0.3495 -0.1029  0.5718
  476MOL0     C64150   1.076   6.495   9.536  0.1003 -0.1803  0.0268
  476MOL0     C64151   1.080   6.618   9.470 -1.0434  0.6616 -0.6637
  476MOL0     C64152   1.082   6.626   9.328  0.1600 -0.0762 -0.7756
  476MOL0     C64153   1.119   6.745   9.253 -0.9140  0.3040 -0.1685
  476MOL0     C64154   1.059   6.509   9.256 -0.2864 -0.4642 -0.5286
  476MOL0     C64155   1.057   6.506   9.103 -0.3517 -0.5798  0.7327
  476MOL0     O64156   1.060   6.616   9.017  0.2582 -0.3284  0.0831
  476MOL0     C64157   1.006   6.601   8.890 -0.3118  0.2151  0.3409
  476MOL0     C64158   0.872   6.555   8.876  0.1641  0.1316  0.3689
  476MOL0     C64159   0.807   6.545   8.757  0.1804 -0.9255  0.4893
  476MOL0     C64160   0.877   6.556   8.638 -0.1166 -0.2034 -0.6421
  476MOL0     O64161   0.817   6.544   8.522 -0.0402 -0.1631 -0.3226
  476MOL0     C64162   0.887   6.543   8.398 -0.0110  1.0489  0.1451
  476MOL0     C64163   0.801   6.454   8.302 -0.2580  0.2887  0.0482
  476MOL0     C64164   0.858   6.423   8.162  0.8457 -0.9627  0.4054
  476MOL0     C64165   0.759   6.359   8.075  0.0546  0.3574  0.3301
  476MOL0     C64166   0.795   6.358   7.937 -0.2481  0.4917  0.4408
  476MOL0     C64167   0.689   6.304   7.837  0.0838  0.3832 -1.0664
  476MOL0     C64168   0.762   6.286   7.700 -0.4285  0.0069  0.7869
  476MOL0     C64169   0.656   6.227   7.604  0.4352 -0.5573  0.6205
  476MOL0    Cl64170   0.515   6.338   7.586 -0.1874 -0.0039 -0.5395
  476MOL0     C64171   1.011   6.603   8.646 -0.4385  0.0191 -0.1400
  476MOL0     C64172   1.073   6.630   8.768  0.3732  0.1689  0.2889
  476MOL0     O64173   1.042   6.401   9.057 -0.3693 -0.4901  0.0519
  476MOL0     C64174   1.038   6.387   9.320  0.1856  0.0364 -0.6439
  476MOL0     C64175   1.050   6.378   9.459 -0.2007 -0.4782  0.3758
  476MOL0     N64176   1.268   6.255  10.113 -0.3196 -0.2106 -0.0605
  476MOL0     N64177   1.319   6.167  10.189  0.8577  0.0971 -0.0843
  476MOL0     C64178   1.749   5.414  11.044 -0.3343 -0.5776 -0.5708
  476MOL0     C64179   1.864   5.327  11.047  1.0664 -1.1469 -0.2402
  476MOL0     C64180   2.129   4.972  11.043  0.9677  0.1366  0.1833
  476MOL0     C64181   2.174   4.925  10.917 -1.0933  0.1759 -0.0126
  476MOL0     C64182   2.301   4.863  10.896  0.9342 -0.4837  0.6497
  476MOL0     C64183   2.376   4.824  11.009  0.6217 -0.5112 -0.1342
  476MOL0     O64184   2.491   4.746  11.004 -0.8435 -0.0016  0.1415
  476MOL0     C64185   2.530   4.682  10.878  0.7119 -0.2839 -0.3779
  476MOL0     C64186   2.438   4.564  10.858  0.3301  0.0093  0.1785
  476MOL0     C64187   2.451   4.497  10.720  0.5234 -0.3087  0.1307
  476MOL0     C64188   2.310   4.473  10.657  0.3496 -0.2873 -0.0650
  476MOL0     C64189   2.222   4.589  10.640  0.6446 -0.4472  0.4045
  476MOL0     C64190   2.144   4.684  10.644 -0.2200  0.5513  0.3404
  476MOL0     C64191   2.331   4.880  11.133 -0.4822 -0.7852 -0.3153
  476MOL0     C64192   2.206   4.940  11.151 -0.2360  0.2146  0.3764
  476MOL0     H64193   1.770   5.149  10.764 -0.8442  2.7785 -2.9655
  476MOL0     H64194   1.604   5.316  10.756 -1.3627  0.2865  1.2250
  476MOL0     H64195   1.529   5.591  11.116  0.6446  2.5731  0.6509
  476MOL0     H64196   1.633   5.661  10.991 -1.0127  3.0412 -0.4265
  476MOL0     H64197   1.325   5.628  10.999  2.0746 -1.3450  3.4536
  476MOL0     H64198   1.425   5.781  11.009  2.2519  0.0536  0.2913
  476MOL0     H64199   1.506   5.778  10.792  1.1382 -2.0525  2.3272
  476MOL0     H64200   1.417   5.622  10.767 -3.7726 -0.4582  1.4636
  476MOL0     H64201   1.200   5.731  10.799  2.5815 -3.5160 -1.6819
  476MOL0     H64202   1.262   5.862  10.869  1.6282 -0.7845  0.7519
  476MOL0     H64203   1.366   5.894  10.622  0.8001  0.4931  3.4246
  476MOL0     H64204   1.247   5.775  10.574 -1.0687 -0.9164  0.1002
  476MOL0     H64205   1.062   5.918  10.670  0.1604  3.2737  2.6464
  476MOL0     H64206   1.174   6.047  10.690 -0.5839 -0.6725  2.8008
  476MOL0     H64207   1.084   5.926  10.429  0.8750  0.5157 -0.0213
  476MOL0     H64208   1.049   6.078  10.484 -0.2522  0.8562 -0.3456
  476MOL0     H64209   1.310   5.968  10.383 -0.4696  0.0279 -0.2803
  476MOL0     H64210   1.298   6.123  10.483 -1.8709  2.1425 -0.9086
  476MOL0     H64211   1.033   6.209  10.329 -0.3184  3.1901  0.7130
  476MOL0     H64212   0.951   6.305  10.040 -0.6809  2.3684 -2.6559
  476MOL0     H64213   0.976   6.439  10.158 -1.9267 -2.7429  1.2051
  476MOL0     H64214   1.093   6.366   9.893 -2.0790  0.5759 -0.9692
  476MOL0     H64215   1.192   6.483   9.993 -1.1089 -0.4008  2.9015
  476MOL0     H64216   0.987   6.631   9.970  1.6502 -0.1193  0.6164
  476MOL0     H64217   0.924   6.493   9.860  0.6875 -3.0492 -0.1934
  476MOL0     H64218   1.189   6.608   9.789 -0.5672 -0.9251  0.5620
  476MOL0     H64219   1.040   6.689   9.733  1.0133  0.5976  0.2267
  476MOL0     H64220   1.099   6.704   9.533 -0.2814 -0.4115  0.6314
  476MOL0     H64221   1.166   6.810   9.327  1.3057 -1.0598 -0.2926
  476MOL0     H64222   1.198   6.730   9.179 -1.8701  0.8556 -1.3567
  476MOL0     H64223   1.028   6.792   9.213 -2.0442 -0.0744  1.8401
  476MOL0     H64224   0.818   6.543   8.970  2.4675  0.9064  1.8968
  476MOL0     H64225   0.710   6.496   8.755 -0.6670  0.6099  1.6063
  476MOL0     H64226   0.911   6.643   8.360  0.5711  1.6260  1.9234
  476MOL0     H64227   0.984   6.493   8.402 -0.8894 -1.6966 -4.4471
  476MOL0     H64228   0.794   6.353   8.344 -3.8586  0.9076  1.3495
  476MOL0     H64229   0.698   6.492   8.299 -1.6532 -2.3870  4.4606
  476MOL0     H64230   0.945   6.357   8.167 -0.2613 -2.4788  0.2261
  476MOL0     H64231   0.902   6.513   8.117  0.4424 -0.5412  0.8365
  476MOL0     H64232   0.748   6.259   8.117  3.1406 -0.2855 -0.1796
  476MOL0     H64233   0.663   6.411   8.085  0.8436  1.7575  1.0647
  476MOL0     H64234   0.880   6.289   7.929 -1.4958 -1.2362  1.4713
  476MOL0     H64235   0.820   6.461   7.910  1.2290 -0.2410 -1.1714
  476MOL0     H64236   0.655   6.204   7.865  1.2490 -1.0734 -4.4329
  476MOL0     H64237   0.606   6.375   7.845 -1.4393 -1.3666 -0.7010
  476MOL0     H64238   0.844   6.213   7.702 -1.4308 -1.3410 -2.1280
  476MOL0     H64239   0.813   6.378   7.673 -0.2550 -0.6160 -1.1245
  476MOL0     H64240   0.623   6.132   7.648  2.3928 -0.8167  1.6605
  476MOL0     H64241   0.701   6.197   7.510  0.9546  1.3009  0.2346
  476MOL0     H64242   1.071   6.612   8.556  0.4460 -3.9490 -0.1677
  476MOL0     H64243   1.174   6.669   8.783 -0.2282  2.5877 -1.2834
  476MOL0     H64244   1.022   6.295   9.266 -0.5240 -0.8285  0.9616
  476MOL0     H64245   1.051   6.275   9.493 -1.9194 -0.0734  1.8238
  476MOL0     H64246   1.747   5.492  11.119  0.8390  1.8716 -2.9292
  476MOL0     H64247   1.927   5.332  11.135 -2.1643 -3.2856  2.4984
  476MOL0     H64248   2.109   4.955  10.836 -2.1439 -0.7178  0.4722
  476MOL0     H64249   2.327   4.827  10.797 -0.3035 -0.2280  0.2184
  476MOL0     H64250   2.530   4.752  10.794  0.3085  0.0939 -0.0692
  476MOL0     H64251   2.632   4.647  10.896  0.4824  0.1266  2.1168
  476MOL0     H64252   2.340   4.610  10.867  0.8689  1.0437  0.9830
  476MOL0     H64253   2.457   4.483  10.929 -1.0424  0.3654  0.9783
  476MOL0     H64254   2.504   4.403  10.736  0.0444 -0.5040  0.5951
  476MOL0     H64255   2.509   4.561  10.651 -0.6663 -0.5988 -1.1830
  476MOL0     H64256   2.251   4.401  10.715 -2.3612 -0.5988 -2.9886
  476MOL0     H64257   2.323   4.431  10.557  1.2508  0.5630 -0.3234
  476MOL0     H64258   2.062   4.752  10.647  0.0921  1.0389 -1.3394
  476MOL0     H64259   2.400   4.876  11.217  0.1917 -0.5977 -0.8481
  476MOL0     H64260   2.167   4.959  11.250 -1.4074 -3.8523  0.9044
  477MOL0     O64261   2.528  10.964   5.055 -0.1155 -0.0168 -0.1150
  477MOL0     C64262   2.436  10.887   5.045  0.2371  1.2310 -0.4828
  477MOL0     O64263   2.433  10.754   5.083 -0.2933  0.3843 -0.7322
  477MOL0     C64264   2.547  10.698   5.135 -0.2501 -0.5717  0.8095
  477MOL0     C64265   2.596  10.591   5.057  0.4496 -0.6952 -0.0589
  477MOL0     C64266   2.719  10.541   5.098  0.6081 -0.4473 -0.0556
  477MOL0     C64267   2.769  10.577   5.232 -0.8307 -0.2176 -0.1267
  477MOL0     O64268   2.884  10.509   5.265  0.4163 -0.1172 -0.4044
  477MOL0     C64269   2.893  10.495   5.410 -0.9940  0.4653 -0.2166
  477MOL0     C64270   3.008  10.402   5.432 -0.4064 -0.4769  0.3161
  477MOL0     C64271   3.030  10.372   5.579 -0.4943  0.0990  0.0460
  477MOL0     C64272   3.167  10.316   5.610 -1.2900 -1.0547  0.0430
  477MOL0     C64273   3.170  10.237   5.741  0.0085  0.0415  0.4744
  477MOL0     C64274   3.298  10.162   5.773 -0.1491  1.3178 -0.3870
  477MOL0     C64275   3.282  10.074   5.901 -0.2839 -0.0253 -0.4536
  477MOL0     C64276   3.277  10.172   6.029 -0.4645  0.4429 -0.2388
  477MOL0     N64277   3.253  10.092   6.147 -0.3809  1.1934 -0.1344
  477MOL0     C64278   3.128  10.086   6.215  0.5189  0.0097 -0.3061
  477MOL0     C64279   3.156  10.008   6.319  1.3029  0.2547 -1.3434
  477MOL0     C64280   3.068   9.972   6.443  0.1214 -0.2440  0.0187
  477MOL0     C64281   2.930   9.903   6.409  0.0100 -0.8009 -0.2106
  477MOL0     C64282   2.838   9.892   6.535 -0.6197  0.2029  0.0244
  477MOL0     C64283   2.731   9.795   6.501 -0.1633 -0.0451 -0.3897
  477MOL0     O64284   2.668   9.832   6.374  0.4628  0.6581 -0.2004
  477MOL0     C64285   2.600   9.733   6.306 -0.6499 -0.3016  0.6102
  477MOL0     C64286   2.509   9.778   6.223 -0.4657  0.1429  0.5379
  477MOL0     C64287   2.438   9.700   6.137  0.1648 -0.0402  0.3437
  477MOL0     C64288   2.342   9.770   6.040  0.3345 -0.3453 -1.1637
  477MOL0     C64289   2.457   9.559   6.145  0.0987 -0.1005  0.1890
  477MOL0     C64290   2.385   9.456   6.054 -0.0262  0.6059 -0.3609
  477MOL0     O64291   2.297   9.498   5.953  0.6481  0.2567 -0.3952
  477MOL0     C64292   2.201   9.407   5.906  0.2250 -0.1137  1.0904
  477MOL0     C64293   2.110   9.342   5.993 -0.0479  0.2926  0.3108
  477MOL0     C64294   2.010   9.253   5.944  0.0731  0.6970 -0.2785
  477MOL0     C64295   1.990   9.236   5.809  0.1463 -0.0923  0.1026
  477MOL0     O64296   1.878   9.165   5.766  0.3746  0.3992 -0.2321
  477MOL0     C64297   1.877   9.111   5.637 -0.1416  0.1004  0.5362
  477MOL0     C64298   1.740   9.051   5.611  0.4758  0.7516 -0.6957
  477MOL0     C64299   1.637   9.155   5.579  0.1928  0.8504 -0.2914
  477MOL0     C64300   1.536   9.095   5.477 -0.9534  0.7310  0.1080
  477MOL0     C64301   1.427   9.176   5.435  0.1632  0.5672 -0.5380
  477MOL0     C64302   1.319   9.088   5.369 -0.5496 -0.1055  0.4624
  477MOL0     C64303   1.220   9.170   5.296  0.4359  0.0699 -0.3109
  477MOL0     C64304   1.114   9.245   5.385 -0.3289  0.1843  0.3296
  477MOL0    Cl64305   1.057   9.171   5.534 -0.3346  0.4739  0.0586
  477MOL0     C64306   2.080   9.296   5.712  0.2507 -0.1353 -0.7002
  477MOL0     C64307   2.184   9.377   5.769  0.2644  0.1241  0.0199
  477MOL0     O64308   2.388   9.337   6.096 -0.1648  0.2258  0.2618
  477MOL0     C64309   2.554   9.512   6.232  1.1410  0.6257 -0.1147
  477MOL0     C64310   2.633   9.599   6.306  0.9672  0.0118 -0.7313
  477MOL0     N64311   3.288   9.959   6.313 -0.1033 -0.0181 -0.0342
  477MOL0     N64312   3.347  10.014   6.211  0.3533 -0.9506 -0.5299
  477MOL0     C64313   2.723  10.688   5.307  1.1805 -0.6001 -0.5658
  477MOL0     C64314   2.611  10.745   5.256  0.0722 -0.5474  0.2010
  477MOL0     C64315   2.295  10.942   5.020 -0.5379 -0.3152 -1.4236
  477MOL0     C64316   2.183  10.867   5.007  0.2999  0.0861 -0.7332
  477MOL0     C64317   2.055  10.924   5.000  0.8754  0.2578 -0.7057
  477MOL0     C64318   2.037  11.071   5.001 -0.3965 -0.7310  0.5832
  477MOL0     O64319   1.911  11.125   4.990 -0.5431 -0.4929  1.0737
  477MOL0     C64320   1.874  11.245   5.047 -0.4776  0.2651 -0.5727
  477MOL0     C64321   1.722  11.271   5.024  0.0010 -0.6730  0.1827
  477MOL0     C64322   1.632  11.134   5.020 -0.1057  0.4797  0.1905
  477MOL0     C64323   1.484  11.156   4.994  0.7426 -0.0731  0.5910
  477MOL0     C64324   1.424  11.216   5.118 -0.8609  0.6606 -0.3119
  477MOL0     C64325   1.351  11.266   5.204 -0.0749  1.2614  0.5128
  477MOL0     C64326   2.157  11.147   4.998 -0.5324  0.3332  0.4586
  477MOL0     C64327   2.282  11.086   5.014  0.8035 -0.6171 -0.4849
  477MOL0     H64328   2.534  10.550   4.979  0.3302 -2.1098  0.7500
  477MOL0     H64329   2.776  10.469   5.040 -1.6219 -1.6335 -0.9105
  477MOL0     H64330   2.923  10.585   5.464  2.0434 -0.6590  0.1756
  477MOL0     H64331   2.806  10.448   5.456 -1.6306  3.0466  1.3817
  477MOL0     H64332   3.001  10.302   5.387  0.6701 -1.2439  1.7553
  477MOL0     H64333   3.099  10.446   5.390 -0.0896 -1.1016  0.3285
  477MOL0     H64334   3.007  10.461   5.639 -1.0732  2.0048 -2.8033
  477MOL0     H64335   2.946  10.304   5.594 -0.9507  0.3058 -1.4101
  477MOL0     H64336   3.189  10.249   5.527 -2.6090  0.6343 -1.7752
  477MOL0     H64337   3.231  10.404   5.622  1.4975 -3.0663  0.8385
  477MOL0     H64338   3.146  10.314   5.816 -3.8224 -0.5079  0.0111
  477MOL0     H64339   3.083  10.171   5.738  0.1099 -0.0906  0.4303
  477MOL0     H64340   3.319  10.091   5.692  0.7031  0.7676  0.2961
  477MOL0     H64341   3.377  10.237   5.784  1.7525 -0.0814 -3.3335
  477MOL0     H64342   3.192  10.012   5.900  1.3634 -2.5225 -0.4274
  477MOL0     H64343   3.361  10.004   5.930 -0.5167  1.1082  3.6598
  477MOL0     H64344   3.189  10.236   6.039 -1.4748 -1.0510  1.0864
  477MOL0     H64345   3.368  10.230   6.044 -3.1609  4.4074  3.1260
  477MOL0     H64346   3.037  10.142   6.195  0.2704  0.8959  2.6771
  477MOL0     H64347   3.129   9.903   6.503  0.7206 -0.5055 -0.8715
  477MOL0     H64348   3.044  10.068   6.489  0.2965  0.0555 -0.5093
  477MOL0     H64349   2.953   9.802   6.374 -1.6886 -0.4333 -2.6045
  477MOL0     H64350   2.879   9.954   6.327  0.6013 -3.0259 -2.0602
  477MOL0     H64351   2.799   9.986   6.574 -0.1210  0.3108  0.2632
  477MOL0     H64352   2.895   9.850   6.618 -0.9898  1.2757  0.8297
  477MOL0     H64353   2.652   9.797   6.576 -3.6310 -3.0743 -3.5543
  477MOL0     H64354   2.770   9.693   6.506 -1.8242 -0.7092 -0.5473
  477MOL0     H64355   2.491   9.885   6.228 -1.4662 -0.0858  3.0585
  477MOL0     H64356   2.244   9.725   6.020 -2.4678  4.3023  0.5147
  477MOL0     H64357   2.325   9.866   6.089 -1.1328 -1.6344  1.0345
  477MOL0     H64358   2.399   9.774   5.947 -2.7957 -0.6096 -3.2503
  477MOL0     H64359   2.132   9.351   6.099  2.2751 -0.6836 -0.0205
  477MOL0     H64360   1.959   9.199   6.023  1.8957  0.3884  0.7548
  477MOL0     H64361   1.899   9.180   5.556  3.8085 -1.6330 -0.1243
  477MOL0     H64362   1.938   9.021   5.623 -1.1883 -0.3813 -1.1867
  477MOL0     H64363   1.746   8.971   5.537 -1.0594  0.4018 -0.4796
  477MOL0     H64364   1.703   8.990   5.694 -2.9513  0.1074 -2.5068
  477MOL0     H64365   1.691   9.238   5.534  1.1650  0.5081  0.2037
  477MOL0     H64366   1.586   9.197   5.666  0.0438  1.1870 -0.5411
  477MOL0     H64367   1.577   9.080   5.377 -1.4215 -2.3474  0.2830
  477MOL0     H64368   1.503   8.994   5.502  1.2811 -0.6837 -2.2536
  477MOL0     H64369   1.459   9.247   5.358  1.3500  1.1553  0.4737
  477MOL0     H64370   1.381   9.212   5.527 -2.3137 -3.8034  0.2182
  477MOL0     H64371   1.372   9.039   5.286 -0.6452  1.1600 -0.3709
  477MOL0     H64372   1.270   9.012   5.430  0.2890 -1.0941 -0.0504
  477MOL0     H64373   1.167   9.109   5.222 -0.6483  4.0530 -3.1071
  477MOL0     H64374   1.274   9.243   5.235  1.6690  0.6028  1.3504
  477MOL0     H64375   1.028   9.277   5.325 -1.7160 -0.1972  2.0420
  477MOL0     H64376   1.160   9.338   5.419  0.7415  0.2541 -1.1787
  477MOL0     H64377   2.069   9.286   5.604  0.8070  1.9507 -0.9757
  477MOL0     H64378   2.262   9.408   5.699  0.1328 -2.2914 -1.3160
  477MOL0     H64379   2.593   9.410   6.227  1.9058  0.8597  0.6998
  477MOL0     H64380   2.723   9.562   6.355  0.1883 -0.4247  0.4152
  477MOL0     H64381   2.769  10.733   5.394 -0.5637  1.0513 -0.4230
  477MOL0     H64382   2.554  10.815   5.316 -0.8797 -2.0482  1.1338
  477MOL0     H64383   2.190  10.758   5.002 -3.0470 -0.1994 -2.0654
  477MOL0     H64384   1.969  10.859   4.990  3.2673 -3.2190 -0.4052
  477MOL0     H64385   1.890  11.232   5.154 -0.9851 -2.3648 -0.7691
  477MOL0     H64386   1.934  11.326   5.002 -0.4903  1.5732  1.6132
  477MOL0     H64387   1.720  11.322   4.927  1.0634  0.3169  0.6570
  477MOL0     H64388   1.685  11.341   5.100 -0.6382  0.0002 -0.7199
  477MOL0     H64389   1.648  11.081   5.115 -1.4784  0.6847  0.5484
  477MOL0     H64390   1.678  11.082   4.935 -0.9554 -0.0236  0.0291
  477MOL0     H64391   1.432  11.061   4.982  1.5419 -0.2948 -1.5149
  477MOL0     H64392   1.471  11.215   4.903 -0.2925 -0.7129  0.3102
  477MOL0     H64393   1.296  11.306   5.286  1.1495  0.2974  1.8560
  477MOL0     H64394   2.148  11.255   4.989 -1.9477  0.2075 -0.0159
  477MOL0     H64395   2.378  11.133   4.995  1.9191 -3.0742 -1.3348
  478MOL0     O64396   1.694  10.282   6.039 -0.6484  0.4122  0.5063
  478MOL0     C64397   1.621  10.193   5.993  0.3052 -0.2171 -0.9073
  478MOL0     O64398   1.641  10.120   5.876 -0.0587  0.5601  0.3449
  478MOL0     C64399   1.754  10.159   5.804  0.1895 -0.0427 -0.7609
  478MOL0     C64400   1.880  10.099   5.840 -0.3303  0.7386 -0.1174
  478MOL0     C64401   2.000  10.122   5.772  1.0819 -0.0727 -0.4463
  478MOL0     C64402   2.007  10.213   5.668 -0.0529  0.0022  0.8175
  478MOL0     O64403   2.121  10.238   5.601 -0.4375  0.2864 -0.0777
  478MOL0     C64404   2.246  10.207   5.654  0.0727  0.1173  0.0511
  478MOL0     C64405   2.270  10.280   5.781 -0.0278 -0.7438 -0.5769
  478MOL0     C64406   2.327  10.435   5.766  0.7052  0.2037 -0.9708
  478MOL0     C64407   2.238  10.513   5.669  0.6746  0.0688 -0.0591
  478MOL0     C64408   2.276  10.657   5.687  0.2855 -0.3551  0.1827
  478MOL0     C64409   2.199  10.716   5.799 -0.8004 -0.5578  1.1594
  478MOL0     C64410   2.228  10.866   5.830 -0.7109  0.2730 -0.7537
  478MOL0     C64411   2.191  10.947   5.717 -0.2948 -0.6414  0.0407
  478MOL0     N64412   2.057  10.997   5.746 -0.2772  0.4744 -0.7691
  478MOL0     C64413   1.939  10.928   5.728 -0.4062 -0.3364 -1.0583
  478MOL0     C64414   1.843  11.018   5.732 -0.0229 -1.5751 -0.3243
  478MOL0     C64415   1.702  10.997   5.705  1.1597 -0.1781  0.2359
  478MOL0     C64416   1.629  11.133   5.691 -0.8135 -0.3426  0.2562
  478MOL0     C64417   1.481  11.121   5.641  0.5056  0.6118 -0.4584
  478MOL0     C64418   1.404  11.008   5.694 -0.3117  0.2780  0.3298
  478MOL0     O64419   1.271  11.020   5.643 -0.4138 -0.2614 -0.1800
  478MOL0     C64420   1.173  10.951   5.705 -0.1977  0.0285  0.7819
  478MOL0     C64421   1.039  10.989   5.689  0.4293 -0.2295 -0.3853
  478MOL0     C64422   0.924  10.925   5.747  0.4241  0.2121  0.4353
  478MOL0     C64423   0.776  10.969   5.708  0.1725  0.0053  0.6181
  478MOL0     C64424   0.954  10.807   5.823  0.8955  0.2696 -0.2281
  478MOL0     C64425   0.849  10.736   5.890 -0.4071  0.6123 -0.2631
  478MOL0     O64426   0.770  10.649   5.811 -0.1734  0.1341  1.2041
  478MOL0     C64427   0.673  10.576   5.864 -0.0868  0.3186 -1.1887
  478MOL0     C64428   0.674  10.448   5.829 -0.1801  0.4362  0.4135
  478MOL0     C64429   0.572  10.367   5.874  0.8474  0.1489  0.7013
  478MOL0     C64430   0.460  10.412   5.945 -0.0167 -0.4747  0.7350
  478MOL0     O64431   0.374  10.323   6.007 -1.5913 -0.5927  0.1404
  478MOL0     C64432   0.306  10.362   6.125  0.3765  1.6769 -0.2255
  478MOL0     C64433   0.158  10.383   6.085 -0.3213  0.5698 -0.1432
  478MOL0     C64434   0.093  10.264   6.035  0.3859 -0.7696  0.4101
  478MOL0     C64435  -0.028  10.312   5.958  1.1081 -0.0106 -0.6069
  478MOL0     C64436  -0.141  10.218   5.967 -0.0437 -0.2359 -0.7451
  478MOL0     C64437  -0.128  10.095   5.882 -0.0133  0.3759 -0.5966
  478MOL0     C64438  -0.264  10.057   5.825 -0.2832 -0.6315  0.9455
  478MOL0     C64439  -0.380  10.041   5.919 -0.1366  0.2876 -0.0175
  478MOL0    Cl64440  -0.545  10.031   5.838 -0.5117  0.2199 -0.4480
  478MOL0     C64441   0.448  10.548   5.952  0.7384 -0.0780 -0.3422
  478MOL0     C64442   0.561  10.634   5.927 -0.3865  0.5029  0.1968
  478MOL0     O64443   0.864  10.731   6.011 -0.0319  0.1348  0.8101
  478MOL0     C64444   1.091  10.780   5.848 -0.0714  1.2348 -0.5527
  478MOL0     C64445   1.200  10.845   5.786  0.0071 -1.7459  0.5617
  478MOL0     N64446   1.904  11.142   5.749 -0.1431 -0.0993  0.6468
  478MOL0     N64447   2.040  11.128   5.765  0.3868 -0.7459  0.3742
  478MOL0     C64448   1.888  10.279   5.630  0.1075 -0.1739 -0.1062
  478MOL0     C64449   1.760  10.243   5.691 -0.0371 -0.8186 -1.1336
  478MOL0     C64450   1.515  10.135   6.081  0.9424  0.2258  0.9830
  478MOL0     C64451   1.487  10.196   6.209 -1.2103 -0.1150  0.2365
  478MOL0     C64452   1.397  10.131   6.294 -0.3052 -0.1723  0.5122
  478MOL0     C64453   1.328  10.020   6.251  0.3228 -0.6091 -0.0260
  478MOL0     O64454   1.232   9.977   6.339  0.7852  0.5145  0.5595
  478MOL0     C64455   1.170   9.845   6.312  0.0459 -0.7019 -0.0053
  478MOL0     C64456   1.095   9.805   6.438 -0.7404  0.4499  0.1446
  478MOL0     C64457   1.188   9.787   6.567 -0.0601 -0.3858  0.2548
  478MOL0     C64458   1.239   9.646   6.587  0.1411  0.3439  0.6711
  478MOL0     C64459   1.124   9.550   6.598 -0.2769 -0.3385 -0.6794
  478MOL0     C64460   1.029   9.480   6.614  0.8726 -0.6693  0.4324
  478MOL0     C64461   1.361   9.960   6.130 -0.3887  0.0277  0.9013
  478MOL0     C64462   1.460  10.015   6.043  0.0384 -0.1571 -0.4034
  478MOL0     H64463   1.876  10.020   5.914 -0.8500  0.4521 -0.4391
  478MOL0     H64464   2.089  10.066   5.800  1.1247  0.4302  0.4614
  478MOL0     H64465   2.269  10.100   5.653  4.9280  0.8985  0.1121
  478MOL0     H64466   2.315  10.252   5.581  0.9555  0.8643  1.2966
  478MOL0     H64467   2.195  10.272   5.859  1.1755  0.1210  0.7148
  478MOL0     H64468   2.358  10.228   5.820 -1.3175 -0.3508  3.2219
  478MOL0     H64469   2.315  10.480   5.865 -0.8203  0.2492 -1.1482
  478MOL0     H64470   2.430  10.435   5.728  0.9432  1.4201 -0.3533
  478MOL0     H64471   2.265  10.479   5.568 -1.2486 -1.8553 -0.0026
  478MOL0     H64472   2.131  10.506   5.689  0.0472  1.2954 -2.5402
  478MOL0     H64473   2.382  10.674   5.708  0.1793  1.0177 -0.2982
  478MOL0     H64474   2.252  10.710   5.594 -0.4023  2.8633  2.0672
  478MOL0     H64475   2.096  10.699   5.765 -0.8108  2.1721 -0.5238
  478MOL0     H64476   2.217  10.659   5.890 -0.8570 -1.2533  0.7424
  478MOL0     H64477   2.185  10.889   5.928 -1.7308 -0.8017 -0.9369
  478MOL0     H64478   2.333  10.896   5.842 -0.7480  1.7505 -3.2899
  478MOL0     H64479   2.207  10.901   5.619  2.5155  1.1734 -0.4519
  478MOL0     H64480   2.249  11.039   5.727 -3.7147  1.5906  1.5997
  478MOL0     H64481   1.928  10.820   5.723 -0.6050 -0.4476  0.7900
  478MOL0     H64482   1.683  10.922   5.628 -0.8175 -0.0591  0.5625
  478MOL0     H64483   1.642  10.943   5.778  0.1422 -0.6493 -0.9216
  478MOL0     H64484   1.680  11.195   5.616 -0.7133 -1.9296 -1.0525
  478MOL0     H64485   1.635  11.179   5.790  1.9893  1.2055 -0.5193
  478MOL0     H64486   1.482  11.116   5.532 -0.3771 -0.4045 -0.4331
  478MOL0     H64487   1.423  11.210   5.669 -1.5858 -1.0023  0.6874
  478MOL0     H64488   1.405  11.017   5.803 -1.8713  0.3127  0.3615
  478MOL0     H64489   1.451  10.915   5.660  2.9912  0.6532  3.2369
  478MOL0     H64490   1.023  11.072   5.621 -1.1341 -0.0404  0.1688
  478MOL0     H64491   0.748  11.068   5.746  0.1276 -0.2759  1.3317
  478MOL0     H64492   0.766  10.967   5.599  0.9185  4.1326  0.2849
  478MOL0     H64493   0.705  10.903   5.757 -0.8154  0.7207  0.1827
  478MOL0     H64494   0.758  10.407   5.774 -1.8090 -3.6208  0.5381
  478MOL0     H64495   0.575  10.261   5.849  0.1717  0.3065 -0.1038
  478MOL0     H64496   0.307  10.280   6.197  1.1444  2.7516  1.0610
  478MOL0     H64497   0.348  10.453   6.170 -0.9160  1.2053  2.1162
  478MOL0     H64498   0.092  10.415   6.166  0.0449  2.1824 -0.4320
  478MOL0     H64499   0.157  10.471   6.019 -0.5914  0.7004  0.0353
  478MOL0     H64500   0.074  10.186   6.109  2.9783  0.8197  2.9476
  478MOL0     H64501   0.150  10.215   5.956 -1.4037 -2.6906  0.2228
  478MOL0     H64502  -0.073  10.402   6.002 -1.4972 -1.4540 -0.1356
  478MOL0     H64503  -0.001  10.329   5.854 -0.9734 -5.1333 -2.2683
  478MOL0     H64504  -0.232  10.274   5.941 -0.8948 -0.6827  1.1329
  478MOL0     H64505  -0.167  10.178   6.065  4.2212 -2.6201 -0.3607
  478MOL0     H64506  -0.048  10.099   5.807  1.4899 -0.4935  0.8658
  478MOL0     H64507  -0.102  10.014   5.951  3.7300  1.8079 -0.0783
  478MOL0     H64508  -0.252   9.965   5.767  0.2647 -0.0444  0.1075
  478MOL0     H64509  -0.295  10.137   5.757  0.6417 -0.1961  1.0195
  478MOL0     H64510  -0.375  10.122   5.991  1.5143  0.5282 -0.3590
  478MOL0     H64511  -0.373   9.955   5.987  2.2975  0.7688  0.4408
  478MOL0     H64512   0.354  10.595   5.976  0.7482 -0.3709  0.2690
  478MOL0     H64513   0.554  10.743   5.928 -1.0007  0.5216 -1.8686
  478MOL0     H64514   1.116  10.690   5.904 -1.3107  0.9384 -0.4420
  478MOL0     H64515   1.301  10.818   5.812  1.5205  0.2172 -2.6430
  478MOL0     H64516   1.862  10.357   5.560  2.3982 -0.2141 -1.0973
  478MOL0     H64517   1.678  10.312   5.672 -0.0222 -0.4263  0.1453
  478MOL0     H64518   1.542  10.278   6.255  0.0888 -1.8389  1.9232
  478MOL0     H64519   1.372  10.168   6.393 -0.3323 -0.4383  0.6055
  478MOL0     H64520   1.093   9.854   6.235  0.0509 -0.9294 -0.0353
  478MOL0     H64521   1.241   9.767   6.286  2.1084  1.3121 -0.7668
  478MOL0     H64522   1.054   9.707   6.415  4.0012 -1.4721 -1.2949
  478MOL0     H64523   1.015   9.880   6.441  0.1374  1.4739 -0.6161
  478MOL0     H64524   1.137   9.836   6.650  0.9475 -0.0539  0.6954
  478MOL0     H64525   1.279   9.848   6.555 -0.5080  0.3009  0.2736
  478MOL0     H64526   1.297   9.649   6.680  0.2492  1.0698  0.5886
  478MOL0     H64527   1.313   9.620   6.512  0.8566 -1.0692  1.8215
  478MOL0     H64528   0.942   9.417   6.614  0.3788 -0.0854 -1.6637
  478MOL0     H64529   1.309   9.870   6.100 -2.6065  1.6400 -0.3696
  478MOL0     H64530   1.478   9.955   5.955 -1.8912 -1.0619 -0.2454
  479MOL0     O64531   5.385   3.416   4.859  0.2348 -0.7129 -0.4233
  479MOL0     C64532   5.404   3.305   4.900 -0.1636  1.4149 -0.7066
  479MOL0     O64533   5.310   3.227   4.967  0.2444  0.3159 -0.0206
  479MOL0     C64534   5.195   3.285   5.009  0.1860 -0.0735 -0.1948
  479MOL0     C64535   5.074   3.236   4.953  0.4644  0.1429  1.0901
  479MOL0     C64536   4.957   3.302   4.994  0.3274  0.9626  0.3204
  479MOL0     C64537   4.957   3.412   5.082  0.3941 -0.5046 -0.2789
  479MOL0     O64538   4.850   3.478   5.140 -1.1875  0.4511  0.3164
  479MOL0     C64539   4.715   3.418   5.143 -0.1914 -0.1014  0.0746
  479MOL0     C64540   4.625   3.499   5.054 -0.1951  0.3193  0.4596
  479MOL0     C64541   4.586   3.637   5.113 -0.2696  0.0032  0.3460
  479MOL0     C64542   4.711   3.734   5.132  0.3950  0.6545 -1.0478
  479MOL0     C64543   4.695   3.883   5.100 -0.5314 -0.4619  0.8699
  479MOL0     C64544   4.647   3.903   4.963  0.2377 -0.3106  0.3540
  479MOL0     C64545   4.618   4.048   4.922 -0.0762  0.6884 -0.3541
  479MOL0     C64546   4.614   4.067   4.768 -0.4631 -0.3749  0.2408
  479MOL0     N64547   4.485   4.117   4.731  0.4680 -0.5538 -0.3011
  479MOL0     C64548   4.359   4.053   4.743 -0.4538  0.4914 -0.7563
  479MOL0     C64549   4.274   4.157   4.718 -0.9107 -0.2301 -0.1897
  479MOL0     C64550   4.122   4.144   4.706 -0.2112  0.7619  0.4828
  479MOL0     C64551   4.070   4.165   4.563 -0.2340  0.5543  1.0714
  479MOL0     C64552   4.106   4.057   4.455  0.2500  1.1165 -0.8354
  479MOL0     C64553   4.048   3.918   4.491  0.8811  0.2449 -0.9212
  479MOL0     O64554   3.915   3.917   4.519  0.4107  0.2565 -0.6022
  479MOL0     C64555   3.877   3.816   4.600 -0.4847 -0.2899  0.0763
  479MOL0     C64556   3.839   3.845   4.724  0.5431 -0.7980 -0.1908
  479MOL0     C64557   3.794   3.748   4.806  0.3744  0.1674 -1.2459
  479MOL0     C64558   3.734   3.769   4.947 -0.2371 -0.0370 -0.1763
  479MOL0     C64559   3.794   3.611   4.755 -0.5274 -0.0301  0.7587
  479MOL0     C64560   3.765   3.486   4.832 -0.3666  0.7523 -0.5762
  479MOL0     O64561   3.707   3.373   4.774  0.3211 -0.5347  0.3971
  479MOL0     C64562   3.703   3.249   4.835 -0.4159 -0.7673 -0.1676
  479MOL0     C64563   3.696   3.138   4.746  0.1366 -0.2196  0.0735
  479MOL0     C64564   3.712   3.011   4.795  0.4363  0.0677  1.0260
  479MOL0     C64565   3.738   2.981   4.929 -0.3695 -0.0038  0.0635
  479MOL0     O64566   3.756   2.852   4.969  0.4965  0.3290 -0.6449
  479MOL0     C64567   3.637   2.790   5.034  0.6405  1.0881 -0.2560
  479MOL0     C64568   3.699   2.658   5.097  0.5997 -0.1150  0.0503
  479MOL0     C64569   3.742   2.566   4.991  0.7328 -0.7043 -0.3937
  479MOL0     C64570   3.808   2.436   5.052  0.2225 -0.6446 -0.7031
  479MOL0     C64571   3.906   2.371   4.954 -0.0835  0.9172  0.2589
  479MOL0     C64572   3.833   2.339   4.818 -0.6387  0.2496 -0.7567
  479MOL0     C64573   3.933   2.293   4.704  0.3472  0.0428  1.0213
  479MOL0     C64574   3.852   2.246   4.586  0.7078  0.8770 -0.1252
  479MOL0    Cl64575   3.971   2.195   4.465 -0.1048  0.6735 -0.2400
  479MOL0     C64576   3.726   3.087   5.021 -0.7853  0.7233  0.5185
  479MOL0     C64577   3.724   3.221   4.980  0.1047  1.0329 -0.3148
  479MOL0     O64578   3.802   3.494   4.943 -0.2566 -0.3042  1.2612
  479MOL0     C64579   3.824   3.588   4.613 -0.0823 -0.3621 -0.4053
  479MOL0     C64580   3.881   3.692   4.536  0.1874  0.2514  0.1778
  479MOL0     N64581   4.339   4.276   4.695 -0.7402 -0.6005 -0.8574
  479MOL0     N64582   4.466   4.249   4.691  0.6892  0.5273 -0.8509
  479MOL0     C64583   5.085   3.460   5.128  0.3719  0.5848  0.3035
  479MOL0     C64584   5.199   3.396   5.089  0.0227 -0.3077  0.1256
  479MOL0     C64585   5.527   3.241   4.878 -0.4745 -0.6652  0.4491
  479MOL0     C64586   5.630   3.287   4.794 -0.4748 -0.7700 -0.4526
  479MOL0     C64587   5.758   3.221   4.792 -0.3933  0.0436 -0.3369
  479MOL0     C64588   5.781   3.099   4.859 -0.4721  0.0399 -0.4677
  479MOL0     O64589   5.899   3.030   4.862  0.0678  0.4010  1.0826
  479MOL0     C64590   6.023   3.081   4.830  0.2227  0.1483 -0.4755
  479MOL0     C64591   6.123   2.978   4.881  0.1392 -0.3395 -0.0939
  479MOL0     C64592   6.116   2.847   4.798  0.0072  0.6359 -0.1591
  479MOL0     C64593   6.218   2.750   4.863  0.6386 -0.9910  0.4038
  479MOL0     C64594   6.171   2.679   4.984  0.1696  0.0212  0.5639
  479MOL0     C64595   6.142   2.622   5.089  0.4583 -0.7114  0.4730
  479MOL0     C64596   5.670   3.049   4.927  0.3345  0.6449 -0.2221
  479MOL0     C64597   5.552   3.119   4.943  0.1406  0.3904 -0.3746
  479MOL0     H64598   5.076   3.150   4.886  1.2607  0.0821  1.1843
  479MOL0     H64599   4.862   3.263   4.957  1.2638 -0.1839 -0.9746
  479MOL0     H64600   4.724   3.315   5.109  1.5330  0.8788 -2.9415
  479MOL0     H64601   4.682   3.419   5.247  1.1447 -2.9387  0.6197
  479MOL0     H64602   4.670   3.500   4.954 -0.1417 -0.7841  0.4614
  479MOL0     H64603   4.535   3.438   5.044 -0.5751  1.2488 -2.8338
  479MOL0     H64604   4.505   3.682   5.055  1.3618  0.6014 -1.5971
  479MOL0     H64605   4.537   3.610   5.207 -0.4471 -0.3308  0.1609
  479MOL0     H64606   4.743   3.722   5.236 -1.4221 -1.2871 -0.6614
  479MOL0     H64607   4.794   3.698   5.071  1.7861  2.2905 -0.2321
  479MOL0     H64608   4.634   3.931   5.177 -1.3973 -0.0370 -0.0592
  479MOL0     H64609   4.793   3.928   5.116 -1.1116  0.6220  1.5062
  479MOL0     H64610   4.718   3.859   4.893 -1.7980 -1.2741 -1.2321
  479MOL0     H64611   4.551   3.850   4.956 -0.3463  0.7049  0.3915
  479MOL0     H64612   4.529   4.090   4.970 -2.4837 -0.5382 -3.4217
  479MOL0     H64613   4.710   4.103   4.947 -0.0395  0.9864 -1.1275
  479MOL0     H64614   4.658   3.991   4.703  1.5089  0.8631  0.0448
  479MOL0     H64615   4.671   4.159   4.752  2.6096 -1.6397  2.9093
  479MOL0     H64616   4.334   3.951   4.772  2.9680 -0.8079 -1.8104
  479MOL0     H64617   4.102   4.045   4.747 -0.7749  1.3666  1.7370
  479MOL0     H64618   4.079   4.225   4.767  2.9176  2.4627  0.6226
  479MOL0     H64619   4.106   4.265   4.538 -0.3771  0.5406  0.7978
  479MOL0     H64620   3.960   4.161   4.570 -0.4182 -3.6133 -0.7802
  479MOL0     H64621   4.215   4.050   4.445  0.5190 -1.5650  2.4498
  479MOL0     H64622   4.071   4.094   4.358  1.9117 -0.7022 -2.2130
  479MOL0     H64623   4.101   3.889   4.582 -1.1902  1.3594  0.7358
  479MOL0     H64624   4.091   3.856   4.412  3.7322  1.7451 -0.6798
  479MOL0     H64625   3.841   3.951   4.748 -1.3347 -0.4147 -1.5027
  479MOL0     H64626   3.640   3.716   4.966 -1.8851  3.3386  2.0697
  479MOL0     H64627   3.799   3.766   5.036  0.6240 -0.4956 -0.8003
  479MOL0     H64628   3.689   3.868   4.934 -0.7093 -0.6115 -3.7220
  479MOL0     H64629   3.693   3.159   4.640  1.7036  0.8059  0.1968
  479MOL0     H64630   3.714   2.926   4.726  2.4284 -0.2117  1.3814
  479MOL0     H64631   3.606   2.861   5.112 -0.7186  1.3145 -0.9682
  479MOL0     H64632   3.564   2.790   4.953 -0.3106  3.3936  0.5034
  479MOL0     H64633   3.779   2.688   5.165  1.4521 -0.8520 -0.6115
  479MOL0     H64634   3.614   2.612   5.149 -1.0226  0.7927 -1.6573
  479MOL0     H64635   3.817   2.610   4.925  1.0687  1.9026  1.5531
  479MOL0     H64636   3.654   2.549   4.929  1.2483 -0.1393 -1.3115
  479MOL0     H64637   3.858   2.470   5.143 -2.6442  4.2425 -0.5502
  479MOL0     H64638   3.738   2.360   5.088 -1.3465  1.2609  0.4710
  479MOL0     H64639   3.951   2.282   4.999  2.3654 -0.3497 -4.1762
  479MOL0     H64640   3.988   2.438   4.931  1.0401 -0.7119 -0.7220
  479MOL0     H64641   3.753   2.267   4.837  0.2988 -0.6065 -0.0380
  479MOL0     H64642   3.784   2.433   4.789 -1.8858  0.4423  1.6969
  479MOL0     H64643   3.987   2.205   4.740  0.4640 -1.1942 -1.9135
  479MOL0     H64644   3.992   2.382   4.679  1.0460 -1.3351 -2.8816
  479MOL0     H64645   3.793   2.319   4.530  0.3774 -0.5613 -1.7665
  479MOL0     H64646   3.783   2.163   4.606 -0.2354  1.4194 -1.0027
  479MOL0     H64647   3.710   3.056   5.124  0.9778  2.0539  1.2427
  479MOL0     H64648   3.726   3.296   5.058  0.6471 -1.9862  2.7905
  479MOL0     H64649   3.794   3.491   4.573  1.1124 -0.5755 -0.8422
  479MOL0     H64650   3.905   3.687   4.430  1.7465 -0.3044  0.5374
  479MOL0     H64651   5.091   3.536   5.205  2.1606 -1.1219  1.9407
  479MOL0     H64652   5.291   3.425   5.139 -1.2576 -1.9820  3.8110
  479MOL0     H64653   5.614   3.383   4.744 -1.9409 -0.2225  0.9759
  479MOL0     H64654   5.841   3.259   4.732 -1.0493 -0.7812 -1.8357
  479MOL0     H64655   6.021   3.104   4.723  3.5034  0.4265 -0.5882
  479MOL0     H64656   6.033   3.179   4.877  1.4413  0.3214 -1.0533
  479MOL0     H64657   6.126   2.953   4.987  1.0195 -2.0386 -0.4918
  479MOL0     H64658   6.219   3.029   4.866  0.8114 -0.2713  3.5693
  479MOL0     H64659   6.153   2.851   4.695  0.6134 -1.7451 -0.0809
  479MOL0     H64660   6.021   2.794   4.785  1.7915 -2.5048 -1.6735
  479MOL0     H64661   6.301   2.814   4.895  2.9009 -1.6479 -3.5452
  479MOL0     H64662   6.247   2.673   4.792  0.8456  0.9443 -1.7298
  479MOL0     H64663   6.135   2.563   5.178 -1.2216  0.1632  0.9486
  479MOL0     H64664   5.687   2.956   4.981  0.0604 -0.7873 -2.4670
  479MOL0     H64665   5.491   3.072   5.019  0.2998  0.0893 -0.4285
  480MOL0     O64666   9.476   2.898  10.277  0.3747 -0.6406 -0.7145
  480MOL0     C64667   9.470   2.810  10.361 -1.2439  0.6208  0.8282
  480MOL0     O64668   9.575   2.731  10.403 -0.4961  0.3678 -0.5505
  480MOL0     C64669   9.707   2.767  10.383  0.7069 -0.5619  0.2088
  480MOL0     C64670   9.753   2.896  10.381 -0.1473 -0.9145  0.9311
  480MOL0     C64671   9.890   2.926  10.370 -1.2310 -0.7846  0.2213
  480MOL0     C64672   9.983   2.826  10.358 -0.5592 -0.5270  0.1289
  480MOL0     O64673  10.125   2.843  10.363 -0.2328 -0.3588 -0.2613
  480MOL0     C64674  10.182   2.973  10.381  0.0136  0.3708 -0.0053
  480MOL0     C64675  10.329   2.961  10.348 -0.0968  0.2783 -1.3629
  480MOL0     C64676  10.357   2.909  10.212 -0.0427 -0.9182 -0.1715
  480MOL0     C64677  10.264   2.966  10.100 -0.4642 -0.1139  0.3354
  480MOL0     C64678  10.309   2.914   9.960 -0.1459 -0.1042 -0.4165
  480MOL0     C64679  10.436   2.981   9.907  0.2129 -0.3374 -0.3703
  480MOL0     C64680  10.472   2.921   9.772  0.1126 -1.0109 -0.1811
  480MOL0     C64681  10.511   2.773   9.769 -0.3891 -0.1917 -0.1370
  480MOL0     N64682  10.581   2.743   9.644  0.7380  0.3397  0.8708
  480MOL0     C64683  10.717   2.739   9.628 -0.6844  1.0498  0.5292
  480MOL0     C64684  10.734   2.728   9.493 -0.8566 -0.5372  0.5373
  480MOL0     C64685  10.870   2.731   9.428  0.7013 -0.2853 -0.1631
  480MOL0     C64686  10.909   2.598   9.372 -0.1259  0.2341  0.4532
  480MOL0     C64687  10.930   2.493   9.480 -0.1384 -0.0790 -0.4573
  480MOL0     C64688  10.966   2.354   9.417 -0.3995  0.2172  0.3860
  480MOL0     O64689  10.957   2.259   9.527  0.5767 -0.0006 -0.1371
  480MOL0     C64690  11.020   2.141   9.523 -0.2018  0.4332  0.1810
  480MOL0     C64691  11.025   2.058   9.632  0.1658  0.5377  0.5545
  480MOL0     C64692  11.089   1.926   9.636  0.5625 -0.1653 -0.6591
  480MOL0     C64693  11.092   1.872   9.776  0.1418  0.0436 -0.5046
  480MOL0     C64694  11.147   1.880   9.510 -0.5996 -0.3821  0.4938
  480MOL0     C64695  11.211   1.743   9.499  0.8312  0.2454 -0.2528
  480MOL0     O64696  11.280   1.730   9.375 -0.0922  0.0676 -0.2897
  480MOL0     C64697  11.328   1.604   9.344 -0.5700 -0.3439 -0.0286
  480MOL0     C64698  11.466   1.596   9.338  0.8575  0.5097  0.7017
  480MOL0     C64699  11.521   1.467   9.331 -0.2304 -0.9599 -0.2085
  480MOL0     C64700  11.444   1.345   9.315  0.1306  0.4328  0.8811
  480MOL0     O64701  11.526   1.240   9.291 -0.0222  0.0702  0.0697
  480MOL0     C64702  11.491   1.126   9.379  0.5172  0.3899  0.2606
  480MOL0     C64703  11.554   1.144   9.521  0.6968  0.0181  0.3448
  480MOL0     C64704  11.603   0.998   9.555 -0.6415 -0.5175  0.5797
  480MOL0     C64705  11.593   0.967   9.706 -0.2785  0.1944 -0.0854
  480MOL0     C64706  11.687   0.853   9.750  0.2115 -0.1838  0.4345
  480MOL0     C64707  11.648   0.811   9.890  1.6065 -0.1934  0.9766
  480MOL0     C64708  11.756   0.730   9.953  0.1341 -0.4591  0.6813
  480MOL0     C64709  11.710   0.664  10.089  0.2076 -0.0135 -0.2917
  480MOL0    Cl64710  11.639   0.785  10.213  0.3489  0.2637 -0.7018
  480MOL0     C64711  11.300   1.357   9.319 -0.4348 -0.2587  0.3393
  480MOL0     C64712  11.248   1.487   9.338 -0.7835  0.9494 -0.7442
  480MOL0     O64713  11.211   1.665   9.594  0.0253 -0.2382 -0.0761
  480MOL0     C64714  11.131   1.960   9.398  0.6287 -0.6032  1.1583
  480MOL0     C64715  11.076   2.086   9.407 -0.8569  0.0881  0.4638
  480MOL0     N64716  10.612   2.694   9.436 -0.5337  0.2418  0.4276
  480MOL0     N64717  10.521   2.700   9.530 -0.9998  0.1289  0.2375
  480MOL0     C64718   9.939   2.690  10.363  0.4380 -0.1007  0.0411
  480MOL0     C64719   9.801   2.664  10.380  0.6113 -0.3386 -0.1213
  480MOL0     C64720   9.333   2.782  10.408 -0.3048 -0.0211  1.2129
  480MOL0     C64721   9.218   2.848  10.361 -0.4828  0.2277 -0.2052
  480MOL0     C64722   9.085   2.815  10.407  0.0370  0.0716  0.1355
  480MOL0     C64723   9.074   2.727  10.517 -0.5112  0.1981 -0.5715
  480MOL0     O64724   8.947   2.710  10.578  0.3410  0.6315  0.1744
  480MOL0     C64725   8.941   2.642  10.703  0.2468  0.0958 -1.0185
  480MOL0     C64726   8.795   2.613  10.736 -0.1744  0.5507 -0.0396
  480MOL0     C64727   8.701   2.731  10.701  0.1177  0.3301 -0.2204
  480MOL0     C64728   8.559   2.716  10.759 -0.5484 -0.8607  0.2301
  480MOL0     C64729   8.487   2.829  10.712  0.5134  0.7033  0.8242
  480MOL0     C64730   8.419   2.926  10.690  0.4305 -0.1587 -1.0320
  480MOL0     C64731   9.189   2.675  10.579  0.2161 -0.2461  0.2882
  480MOL0     C64732   9.314   2.700  10.520 -0.5129 -0.5586  0.4322
  480MOL0     H64733   9.681   2.976  10.373  2.5264  1.5113 -1.5137
  480MOL0     H64734   9.921   3.031  10.369  0.0251 -1.1288  0.6227
  480MOL0     H64735  10.131   3.050  10.322  2.6288  1.7241 -0.6449
  480MOL0     H64736  10.178   3.006  10.486 -1.9611  1.8775 -0.5028
  480MOL0     H64737  10.381   3.056  10.367 -1.4037  1.7890 -4.5108
  480MOL0     H64738  10.376   2.895  10.421  0.6034  1.9705 -0.2070
  480MOL0     H64739  10.458   2.936  10.179  0.5954 -0.5229  1.9157
  480MOL0     H64740  10.357   2.800  10.210 -0.7939 -0.9386  0.4645
  480MOL0     H64741  10.159   2.944  10.121 -0.6206  0.8869  0.6900
  480MOL0     H64742  10.270   3.075  10.109 -0.5319 -0.0952  0.1503
  480MOL0     H64743  10.325   2.805   9.962  1.8434  0.1111  2.9833
  480MOL0     H64744  10.237   2.936   9.881 -0.3337 -1.7557 -0.7392
  480MOL0     H64745  10.427   3.089   9.889  1.3692 -0.5643 -2.6597
  480MOL0     H64746  10.529   2.971   9.964  0.5667  0.6186 -0.7527
  480MOL0     H64747  10.393   2.951   9.702  0.3970 -1.5367 -0.7378
  480MOL0     H64748  10.564   2.975   9.745 -0.2340  0.1413  0.8658
  480MOL0     H64749  10.427   2.704   9.778 -0.9092  0.2236 -1.5900
  480MOL0     H64750  10.588   2.755   9.846  0.6861 -0.5081 -1.2472
  480MOL0     H64751  10.788   2.746   9.709 -1.4480  0.2608  1.2897
  480MOL0     H64752  10.854   2.806   9.350 -0.4858 -0.8265 -0.4534
  480MOL0     H64753  10.933   2.767   9.510  2.9422 -1.0195 -1.4551
  480MOL0     H64754  10.990   2.609   9.299  0.9015  0.3292  1.5812
  480MOL0     H64755  10.825   2.568   9.309 -0.0885  1.6274 -0.3070
  480MOL0     H64756  10.836   2.480   9.534  2.4116 -2.5342  4.0112
  480MOL0     H64757  10.998   2.537   9.553 -0.1965  1.8835 -1.5194
  480MOL0     H64758  11.068   2.353   9.378 -0.1025 -2.1700  1.0448
  480MOL0     H64759  10.891   2.331   9.341  0.9519 -0.8128 -0.6967
  480MOL0     H64760  10.975   2.098   9.720 -0.4803 -1.3748  1.0981
  480MOL0     H64761  11.177   1.916   9.830 -1.7020  0.9143  1.8176
  480MOL0     H64762  11.003   1.888   9.837 -1.8774  1.3910 -3.5548
  480MOL0     H64763  11.108   1.763   9.773 -0.5009 -0.0547 -2.9237
  480MOL0     H64764  11.530   1.684   9.335 -2.2809  2.9638  0.3421
  480MOL0     H64765  11.629   1.454   9.328 -0.1869 -0.4372 -1.2850
  480MOL0     H64766  11.382   1.121   9.382  0.5109 -1.2928 -1.0688
  480MOL0     H64767  11.522   1.034   9.328 -1.5203 -0.0763 -0.2285
  480MOL0     H64768  11.637   1.213   9.540 -0.0025  0.0930  3.5570
  480MOL0     H64769  11.475   1.173   9.590 -0.8007 -0.8580 -0.9136
  480MOL0     H64770  11.701   0.980   9.512  0.2968  0.0898  2.3694
  480MOL0     H64771  11.539   0.925   9.503 -1.5527  0.7111 -0.1029
  480MOL0     H64772  11.618   1.053   9.769 -1.9492  1.4658 -1.0535
  480MOL0     H64773  11.490   0.940   9.733 -0.7089 -0.1948 -1.9567
  480MOL0     H64774  11.790   0.889   9.749  0.5541 -0.8719 -2.8837
  480MOL0     H64775  11.674   0.769   9.681 -0.4596  0.6558 -0.5113
  480MOL0     H64776  11.622   0.903   9.942 -2.7090 -1.5311  1.5478
  480MOL0     H64777  11.556   0.753   9.880  0.9748  0.8313  0.7821
  480MOL0     H64778  11.844   0.793   9.969 -1.2827  1.3145  1.9482
  480MOL0     H64779  11.787   0.641   9.898 -0.5768  0.6388 -1.6573
  480MOL0     H64780  11.795   0.619  10.141  0.1854  2.2093  1.8062
  480MOL0     H64781  11.636   0.590  10.056 -1.0502  1.8917 -2.0122
  480MOL0     H64782  11.244   1.271   9.285 -2.5172  2.1979 -3.0529
  480MOL0     H64783  11.140   1.489   9.339 -1.0620 -3.6514  1.1544
  480MOL0     H64784  11.171   1.941   9.299  1.4235 -0.2733  1.4120
  480MOL0     H64785  11.053   2.136   9.314 -2.2457  2.2792  1.8900
  480MOL0     H64786  10.013   2.610  10.360 -0.8163 -1.3906  1.9180
  480MOL0     H64787   9.744   2.572  10.378  0.4126 -0.2035 -0.8264
  480MOL0     H64788   9.227   2.920  10.280  1.3565 -0.6015 -0.8140
  480MOL0     H64789   8.996   2.866  10.374  1.4892  2.7681  0.1126
  480MOL0     H64790   8.991   2.545  10.695  0.8849 -0.0830  3.0242
  480MOL0     H64791   8.995   2.689  10.786 -1.9863 -1.4679  1.4906
  480MOL0     H64792   8.786   2.579  10.839 -1.4185  2.4582  0.5276
  480MOL0     H64793   8.762   2.540  10.661  1.1148 -0.1487  0.0502
  480MOL0     H64794   8.705   2.751  10.593  0.5922  2.0037  0.0784
  480MOL0     H64795   8.739   2.817  10.756  0.7191  1.9286 -2.9270
  480MOL0     H64796   8.554   2.720  10.868  1.1990  0.5753  0.2988
  480MOL0     H64797   8.529   2.614  10.734  1.1420 -1.6188  1.0602
  480MOL0     H64798   8.353   3.006  10.665  0.1569  0.9174  2.5238
  480MOL0     H64799   9.196   2.613  10.668  2.5077  0.6777  0.8189
  480MOL0     H64800   9.407   2.649  10.545  1.0432 -0.2754 -3.9065
  481MOL0     O64801   1.011  11.219   1.548 -0.3777  0.2134 -0.0876
  481MOL0     C64802   0.965  11.216   1.433  0.7402 -0.5765  0.2036
  481MOL0     O64803   1.037  11.233   1.312  0.1993  1.1098 -0.5518
  481MOL0     C64804   1.169  11.213   1.315 -0.1291  0.0948 -0.0643
  481MOL0     C64805   1.236  11.101   1.375  1.0149  0.3701 -0.2577
  481MOL0     C64806   1.370  11.081   1.362 -0.3175 -0.7802 -0.2336
  481MOL0     C64807   1.455  11.174   1.299  0.6325 -0.6214  0.0915
  481MOL0     O64808   1.583  11.148   1.298  0.5034 -0.1371  0.1452
  481MOL0     C64809   1.670  11.222   1.218  0.2927  0.6765  0.0170
  481MOL0     C64810   1.688  11.371   1.264  0.1484  0.3234 -0.0025
  481MOL0     C64811   1.799  11.433   1.178 -0.0168 -0.6184 -1.0125
  481MOL0     C64812   1.779  11.590   1.176 -0.1787  0.0332 -0.3203
  481MOL0     C64813   1.689  11.659   1.075 -0.2535 -0.1917  0.8036
  481MOL0     C64814   1.711  11.615   0.931  0.0174  0.4504 -1.1903
  481MOL0     C64815   1.669  11.718   0.821  0.3749 -0.5040 -1.0979
  481MOL0     C64816   1.769  11.821   0.788 -0.3179  0.6785 -0.2162
  481MOL0     N64817   1.700  11.919   0.688  0.2759  0.0936 -0.2136
  481MOL0     C64818   1.660  12.052   0.697 -0.2782 -0.3283  0.0582
  481MOL0     C64819   1.649  12.100   0.574 -0.9033  0.1179  0.5889
  481MOL0     C64820   1.619  12.244   0.532 -0.5959  0.5624  0.4088
  481MOL0     C64821   1.478  12.263   0.495  0.7989  0.6825 -0.3576
  481MOL0     C64822   1.427  12.411   0.497 -0.6987 -1.2488  0.7295
  481MOL0     C64823   1.284  12.411   0.444  0.2521 -0.6324  0.9045
  481MOL0     O64824   1.282  12.363   0.310  0.7504  0.3691 -0.0427
  481MOL0     C64825   1.164  12.369   0.240 -0.7181 -0.3622  0.2757
  481MOL0     C64826   1.172  12.324   0.107  0.6349  0.4946  0.0572
  481MOL0     C64827   1.063  12.322   0.017 -0.1355 -0.3656  0.2085
  481MOL0     C64828   1.096  12.265  -0.127  0.0089 -0.4081 -0.0710
  481MOL0     C64829   0.940  12.385   0.059  0.0782 -0.2730  0.3259
  481MOL0     C64830   0.810  12.387  -0.021  0.9314 -0.1556  0.3753
  481MOL0     O64831   0.801  12.289  -0.109 -0.5394 -0.4088  0.5273
  481MOL0     C64832   0.680  12.275  -0.184 -0.4325 -0.3241  0.5699
  481MOL0     C64833   0.558  12.264  -0.119  0.1209 -0.0066  0.4615
  481MOL0     C64834   0.435  12.278  -0.181 -0.6430  1.7438 -0.3306
  481MOL0     C64835   0.428  12.263  -0.326  0.1891  0.6207  0.0906
  481MOL0     O64836   0.303  12.239  -0.383 -0.4361  0.8108  0.3761
  481MOL0     C64837   0.287  12.177  -0.515  0.4515 -1.0654 -0.1802
  481MOL0     C64838   0.151  12.104  -0.524 -0.2888  0.3033  0.9039
  481MOL0     C64839   0.101  12.130  -0.670  0.4632 -0.6013 -0.3070
  481MOL0     C64840  -0.029  12.057  -0.693 -0.2454  0.0650 -0.3153
  481MOL0     C64841  -0.085  12.109  -0.833 -0.5936  0.2592 -0.3302
  481MOL0     C64842  -0.009  12.048  -0.961  0.8498 -0.3770 -0.4478
  481MOL0     C64843  -0.024  11.898  -0.970 -0.6270 -0.0263 -1.2031
  481MOL0     C64844   0.033  11.854  -1.104 -1.1177 -0.0804 -0.1841
  481MOL0    Cl64845   0.220  11.857  -1.104  0.3594  0.0398 -0.1698
  481MOL0     C64846   0.554  12.258  -0.386 -0.2741 -0.3107 -0.2758
  481MOL0     C64847   0.674  12.284  -0.323 -0.2022  0.4899 -0.0801
  481MOL0     O64848   0.725  12.476   0.000  0.1624 -0.1565  0.3513
  481MOL0     C64849   0.938  12.454   0.181 -0.5165  0.8563 -0.5391
  481MOL0     C64850   1.044  12.441   0.273  0.0151  0.0067  0.1496
  481MOL0     N64851   1.685  11.998   0.487  0.1546 -0.3391  0.4399
  481MOL0     N64852   1.716  11.891   0.554  0.2632 -0.3262 -0.0915
  481MOL0     C64853   1.386  11.279   1.226 -0.1747  0.0263 -0.0737
  481MOL0     C64854   1.253  11.295   1.234 -0.2439 -0.1216 -0.9520
  481MOL0     C64855   0.818  11.215   1.412  0.1789 -0.1284 -0.1371
  481MOL0     C64856   0.760  11.222   1.286  0.2122 -0.3969 -0.3403
  481MOL0     C64857   0.618  11.224   1.269 -0.4448 -0.4806  0.6223
  481MOL0     C64858   0.528  11.227   1.386 -1.4513 -0.1632  0.4114
  481MOL0     O64859   0.394  11.233   1.356 -0.2262  0.7921  0.0540
  481MOL0     C64860   0.302  11.247   1.467  0.0121  0.5655  0.5469
  481MOL0     C64861   0.268  11.396   1.458  0.5460  0.5801 -0.1606
  481MOL0     C64862   0.208  11.432   1.324 -0.0071 -0.2138 -0.1088
  481MOL0     C64863   0.091  11.528   1.349 -0.0036  1.0511 -0.2666
  481MOL0     C64864   0.075  11.619   1.234 -0.1945  0.1209 -0.4149
  481MOL0     C64865   0.081  11.683   1.125 -0.0455 -0.4859  0.7551
  481MOL0     C64866   0.590  11.218   1.513  0.5965  0.8271 -0.4658
  481MOL0     C64867   0.730  11.212   1.520 -0.0205 -0.6234  0.1279
  481MOL0     H64868   1.178  11.021   1.422  0.5386  0.2194 -1.0698
  481MOL0     H64869   1.412  10.994   1.412 -0.6523  0.9592  3.3499
  481MOL0     H64870   1.767  11.171   1.217 -0.4616 -1.1688  3.6872
  481MOL0     H64871   1.626  11.212   1.119 -2.0303 -1.2938  1.1658
  481MOL0     H64872   1.595  11.429   1.262  0.5703  1.0209  0.2451
  481MOL0     H64873   1.723  11.372   1.367  1.9882  0.7619 -0.5816
  481MOL0     H64874   1.899  11.417   1.218  0.2173  0.1491 -1.2692
  481MOL0     H64875   1.803  11.390   1.078  1.4747 -3.3558  0.1283
  481MOL0     H64876   1.758  11.627   1.277 -1.1901  1.5503 -1.0488
  481MOL0     H64877   1.879  11.626   1.152 -0.4244 -0.5879 -2.4660
  481MOL0     H64878   1.584  11.633   1.093 -0.5902  1.2167  1.0151
  481MOL0     H64879   1.710  11.767   1.074  5.1277 -0.9688  0.2251
  481MOL0     H64880   1.815  11.592   0.906  0.8369  2.6988 -0.1140
  481MOL0     H64881   1.658  11.520   0.920  1.2041 -0.1216 -2.2102
  481MOL0     H64882   1.637  11.670   0.728 -3.7032 -1.2301  0.4545
  481MOL0     H64883   1.576  11.758   0.863  0.5748 -0.4674 -0.6840
  481MOL0     H64884   1.863  11.780   0.751  0.2496  0.5225  1.3203
  481MOL0     H64885   1.786  11.878   0.880 -1.8455 -0.9270  1.1081
  481MOL0     H64886   1.643  12.107   0.789  1.4752 -1.5106  1.1586
  481MOL0     H64887   1.641  12.305   0.620 -1.5812  1.3669  0.1208
  481MOL0     H64888   1.687  12.259   0.448  1.9776 -5.2207  0.9711
  481MOL0     H64889   1.416  12.209   0.567 -2.2229  4.2328  0.0391
  481MOL0     H64890   1.460  12.213   0.400  3.7333 -0.1611 -0.5589
  481MOL0     H64891   1.492  12.479   0.441  0.5111 -1.7910  1.4376
  481MOL0     H64892   1.421  12.456   0.597  1.3779  0.1838  0.2647
  481MOL0     H64893   1.249  12.514   0.433  0.2394 -0.7556 -0.2560
  481MOL0     H64894   1.222  12.361   0.520 -2.3524  2.4046  0.9876
  481MOL0     H64895   1.272  12.288   0.084  0.6462  1.0971 -0.8846
  481MOL0     H64896   1.034  12.178  -0.152 -0.2011 -0.1278 -0.5367
  481MOL0     H64897   1.085  12.334  -0.211 -1.7595 -0.2529  0.2482
  481MOL0     H64898   1.199  12.230  -0.140  0.0312 -0.5071  0.3665
  481MOL0     H64899   0.560  12.273  -0.011 -0.5692  1.5381  0.3721
  481MOL0     H64900   0.343  12.267  -0.126  0.0162 -0.7793  0.4360
  481MOL0     H64901   0.287  12.259  -0.587  1.5262 -2.2134 -1.5335
  481MOL0     H64902   0.367  12.108  -0.542  2.0051  1.0251 -1.1659
  481MOL0     H64903   0.159  11.999  -0.495 -1.8880  0.6522  2.8614
  481MOL0     H64904   0.084  12.149  -0.451 -1.6605 -2.3544  1.4143
  481MOL0     H64905   0.185  12.099  -0.733  1.9711  3.2395 -0.4490
  481MOL0     H64906   0.096  12.237  -0.691 -1.1125 -0.5771  0.0659
  481MOL0     H64907  -0.018  11.949  -0.696 -0.1911  0.0564 -3.5715
  481MOL0     H64908  -0.095  12.076  -0.608  0.3056 -1.5886  0.5050
  481MOL0     H64909  -0.065  12.216  -0.838 -1.1512  0.5395  2.3168
  481MOL0     H64910  -0.192  12.091  -0.844 -0.1634 -2.9383 -0.5087
  481MOL0     H64911  -0.047  12.108  -1.044 -0.3757  0.3470  0.6131
  481MOL0     H64912   0.098  12.057  -0.940  0.3730 -0.4147  2.4405
  481MOL0     H64913  -0.124  11.856  -0.958 -0.0328 -1.1764 -0.1598
  481MOL0     H64914   0.039  11.848  -0.896  0.6232 -1.3262 -3.0430
  481MOL0     H64915   0.002  11.928  -1.178  1.5349  0.8316 -0.5103
  481MOL0     H64916  -0.003  11.755  -1.133 -0.3942  0.0867 -1.7622
  481MOL0     H64917   0.541  12.259  -0.494 -0.2362  0.0722 -0.2798
  481MOL0     H64918   0.770  12.286  -0.374  1.3921  3.8969  2.6479
  481MOL0     H64919   0.852  12.514   0.207 -1.7224 -0.2055 -1.9127
  481MOL0     H64920   1.042  12.491   0.369  1.3850  1.1195 -0.3660
  481MOL0     H64921   1.442  11.350   1.166  0.8320 -0.5775  0.1308
  481MOL0     H64922   1.206  11.382   1.190 -2.1214 -0.1148  0.8959
  481MOL0     H64923   0.823  11.227   1.197  0.1850 -0.6779 -0.3759
  481MOL0     H64924   0.583  11.223   1.166  0.6586 -1.5586  0.2276
  481MOL0     H64925   0.214  11.186   1.444  1.8552 -0.5577 -4.8135
  481MOL0     H64926   0.333  11.212   1.566 -1.9767 -0.7824  0.7764
  481MOL0     H64927   0.354  11.460   1.481 -0.9019  3.0070 -1.0970
  481MOL0     H64928   0.198  11.403   1.542 -0.5074 -0.5691 -0.9051
  481MOL0     H64929   0.179  11.344   1.266  1.5493  0.1614 -1.5186
  481MOL0     H64930   0.286  11.488   1.272 -2.5216  3.2991 -0.4464
  481MOL0     H64931   0.107  11.582   1.443  1.6020 -0.0617  0.1391
  481MOL0     H64932   0.003  11.465   1.364  2.0612 -1.8326  0.4676
  481MOL0     H64933   0.090  11.735   1.032  1.4832 -1.1690  0.4976
  481MOL0     H64934   0.534  11.216   1.606  2.4137  1.1574  0.6963
  481MOL0     H64935   0.779  11.197   1.616  1.8173  1.0591 -0.4788
  482MOL0     O64936   7.770   3.497   0.163 -0.1523 -0.2339 -0.7280
  482MOL0     C64937   7.806   3.420   0.070 -1.0882 -1.1579  0.3645
  482MOL0     O64938   7.808   3.460  -0.060  0.6492 -0.3865  0.1564
  482MOL0     C64939   7.742   3.575  -0.102  0.2282  0.4387  0.4519
  482MOL0     C64940   7.754   3.691  -0.032 -0.1944  0.6380  0.3129
  482MOL0     C64941   7.672   3.797  -0.081 -1.2396 -0.3043 -0.7922
  482MOL0     C64942   7.602   3.789  -0.202  0.4601 -0.4172  1.0629
  482MOL0     O64943   7.539   3.902  -0.254 -0.6663 -0.4871  0.0876
  482MOL0     C64944   7.587   3.965  -0.372  0.3888 -0.2923 -0.3890
  482MOL0     C64945   7.490   4.079  -0.407  0.0443 -0.5943  0.1689
  482MOL0     C64946   7.532   4.166  -0.528  0.2864 -0.0495 -0.5755
  482MOL0     C64947   7.657   4.260  -0.505 -0.0591  0.7348 -0.1930
  482MOL0     C64948   7.669   4.367  -0.620  0.0636  0.0834  1.1174
  482MOL0     C64949   7.723   4.310  -0.754  0.7177  0.2880  0.3727
  482MOL0     C64950   7.648   4.381  -0.866 -0.0254 -0.6452  0.0103
  482MOL0     C64951   7.704   4.349  -1.006  0.1895  0.2272 -0.3816
  482MOL0     N64952   7.634   4.423  -1.109  0.5433 -1.5690  0.2154
  482MOL0     C64953   7.498   4.444  -1.125  0.0818  0.1118  1.0273
  482MOL0     C64954   7.489   4.522  -1.238  0.4431 -0.1423  0.3914
  482MOL0     C64955   7.375   4.557  -1.317  0.7210 -0.4761 -0.5512
  482MOL0     C64956   7.341   4.461  -1.430  0.5070 -0.4271  0.8210
  482MOL0     C64957   7.411   4.495  -1.557  0.1331  0.1359  0.6207
  482MOL0     C64958   7.360   4.424  -1.689 -0.2386 -0.3140  0.3287
  482MOL0     O64959   7.362   4.281  -1.684  0.2223  0.2938  0.6084
  482MOL0     C64960   7.320   4.209  -1.793  0.4067 -0.0897  1.1012
  482MOL0     C64961   7.359   4.080  -1.800  0.1712 -1.0002  0.0157
  482MOL0     C64962   7.316   3.996  -1.903  0.0304 -0.1347  0.1035
  482MOL0     C64963   7.353   3.845  -1.907 -0.3606  0.5444  0.1421
  482MOL0     C64964   7.231   4.046  -2.006 -0.5621  0.8927  0.2227
  482MOL0     C64965   7.174   3.958  -2.119  0.1014  0.3958 -0.3516
  482MOL0     O64966   7.147   3.816  -2.090 -0.1148  0.2483 -0.5569
  482MOL0     C64967   7.084   3.740  -2.186  0.3234 -0.0112  0.5295
  482MOL0     C64968   7.114   3.728  -2.322  0.6723 -0.3372 -0.2453
  482MOL0     C64969   7.043   3.639  -2.409 -0.2254  0.0966 -0.1309
  482MOL0     C64970   6.928   3.570  -2.362 -0.6161  0.8268  0.1752
  482MOL0     O64971   6.862   3.482  -2.452  0.0447 -0.9719  0.4219
  482MOL0     C64972   6.728   3.444  -2.437  0.5064 -0.2130 -0.2136
  482MOL0     C64973   6.698   3.326  -2.526 -0.6268  0.8201 -0.1191
  482MOL0     C64974   6.554   3.290  -2.508  0.6727 -0.0280  0.0579
  482MOL0     C64975   6.536   3.146  -2.556  0.1503  0.2132 -0.1112
  482MOL0     C64976   6.401   3.095  -2.497  0.6056  0.1384 -0.2800
  482MOL0     C64977   6.280   3.174  -2.533 -0.1453 -0.0967  0.0983
  482MOL0     C64978   6.155   3.103  -2.476 -0.3657 -0.9278  0.3952
  482MOL0     C64979   6.018   3.152  -2.531 -1.0886  0.2876  0.0165
  482MOL0    Cl64980   5.980   3.313  -2.470 -0.2027 -0.6752 -0.2477
  482MOL0     C64981   6.881   3.597  -2.229 -0.3037 -0.1344 -0.3720
  482MOL0     C64982   6.967   3.669  -2.144 -0.1206  0.9024  0.1389
  482MOL0     O64983   7.162   4.010  -2.228 -0.7450  0.5722  0.0292
  482MOL0     C64984   7.207   4.187  -2.013 -0.2936  0.2645 -0.6385
  482MOL0     C64985   7.243   4.265  -1.905  0.6227  0.9531  0.1982
  482MOL0     N64986   7.619   4.547  -1.281 -0.1749 -0.9267  0.7235
  482MOL0     N64987   7.707   4.499  -1.201 -0.4618  0.5802 -0.6264
  482MOL0     C64988   7.594   3.673  -0.278 -0.2771 -1.1735 -0.2633
  482MOL0     C64989   7.674   3.563  -0.225 -0.5231  0.2856  0.9636
  482MOL0     C64990   7.836   3.275   0.098 -0.0033 -0.2120  0.1895
  482MOL0     C64991   7.925   3.214   0.014 -0.6205  1.0727  0.1408
  482MOL0     C64992   7.961   3.073   0.037 -0.2238 -0.3133  0.0737
  482MOL0     C64993   7.900   3.004   0.140  0.8460  0.5751  0.4105
  482MOL0     O64994   7.942   2.876   0.175 -0.1161  0.5561 -0.5916
  482MOL0     C64995   7.897   2.779   0.084 -0.0693  0.9182 -0.0348
  482MOL0     C64996   7.951   2.644   0.137 -0.2758  0.0428  0.5449
  482MOL0     C64997   8.100   2.634   0.117  0.7851  0.8404  0.9870
  482MOL0     C64998   8.123   2.481   0.148  0.3571  0.4264  0.6184
  482MOL0     C64999   8.100   2.384   0.032 -0.7955 -0.5555 -0.1671
  482MOL0     C65000   8.088   2.331  -0.073 -0.1955 -0.0556 -0.1390
  482MOL0     C65001   7.813   3.070   0.229  0.4054  0.9018 -0.4922
  482MOL0     C65002   7.779   3.205   0.206 -0.5643 -0.1495 -0.0806
  482MOL0     H65003   7.820   3.706   0.053 -1.2063  3.2456  0.7547
  482MOL0     H65004   7.663   3.890  -0.027 -0.7512 -0.9462  0.4312
  482MOL0     H65005   7.692   3.994  -0.363 -0.0129  1.4053 -0.7327
  482MOL0     H65006   7.576   3.899  -0.459 -4.6206 -1.1033  0.5585
  482MOL0     H65007   7.398   4.026  -0.432 -0.1473  0.7212 -2.2557
  482MOL0     H65008   7.469   4.145  -0.322  0.8847  3.4883 -2.4989
  482MOL0     H65009   7.542   4.095  -0.610 -3.3924  1.5867 -2.6899
  482MOL0     H65010   7.440   4.222  -0.546 -0.5403 -0.6526  1.5006
  482MOL0     H65011   7.648   4.311  -0.408 -2.5793  2.3279 -1.1634
  482MOL0     H65012   7.751   4.203  -0.500 -0.1707  0.5288 -0.4411
  482MOL0     H65013   7.576   4.423  -0.628  0.4746  0.5788 -0.5634
  482MOL0     H65014   7.749   4.434  -0.587  2.6083 -0.7613 -2.7276
  482MOL0     H65015   7.831   4.323  -0.768  0.4079  0.3841 -2.4886
  482MOL0     H65016   7.712   4.202  -0.761  4.5215 -0.1407 -1.4027
  482MOL0     H65017   7.544   4.350  -0.849  0.8195 -2.4894  2.2883
  482MOL0     H65018   7.656   4.489  -0.852 -2.5335 -0.7291  3.4272
  482MOL0     H65019   7.688   4.243  -1.026  3.3992 -0.0574 -2.1332
  482MOL0     H65020   7.812   4.366  -1.016  0.3610 -1.1001 -0.9461
  482MOL0     H65021   7.413   4.430  -1.059  0.2258  2.0369  1.6863
  482MOL0     H65022   7.288   4.567  -1.252  0.7348 -0.8444 -0.4761
  482MOL0     H65023   7.408   4.651  -1.362  1.1409  0.1647  1.0228
  482MOL0     H65024   7.234   4.477  -1.448  0.6832  2.9018  1.9847
  482MOL0     H65025   7.366   4.358  -1.403 -0.7642 -1.5069 -1.7348
  482MOL0     H65026   7.514   4.460  -1.546  0.3824 -0.4418 -2.7084
  482MOL0     H65027   7.409   4.602  -1.583 -0.6145 -0.3107 -1.3491
  482MOL0     H65028   7.431   4.449  -1.768  0.8041 -1.4043  0.8972
  482MOL0     H65029   7.261   4.466  -1.710 -1.3931 -3.3654 -0.7710
  482MOL0     H65030   7.405   4.034  -1.713 -0.4696  0.2375  1.0437
  482MOL0     H65031   7.440   3.819  -1.847  0.7806  2.9863 -0.3197
  482MOL0     H65032   7.264   3.782  -1.895  0.1667 -1.0270 -3.1453
  482MOL0     H65033   7.376   3.810  -2.008  4.3171  2.1089  0.4208
  482MOL0     H65034   7.200   3.786  -2.353 -2.2764  3.8127 -1.4980
  482MOL0     H65035   7.068   3.615  -2.512 -2.0748  3.4654 -1.5036
  482MOL0     H65036   6.702   3.416  -2.335 -2.3089  1.0519 -0.4703
  482MOL0     H65037   6.663   3.527  -2.465 -0.9557 -1.8959 -2.1777
  482MOL0     H65038   6.723   3.363  -2.626 -0.7682  2.2922  0.3585
  482MOL0     H65039   6.774   3.254  -2.495 -0.3974  1.2989  0.4637
  482MOL0     H65040   6.487   3.355  -2.566 -2.0794 -2.1750  0.6120
  482MOL0     H65041   6.528   3.306  -2.403  2.2473  3.6066  0.0450
  482MOL0     H65042   6.534   3.134  -2.665  1.2240 -1.7274  0.0525
  482MOL0     H65043   6.619   3.084  -2.522  1.3260  1.4919 -0.5774
  482MOL0     H65044   6.409   3.090  -2.388  0.6651  0.9552 -0.2383
  482MOL0     H65045   6.384   2.997  -2.541 -1.4331  1.3225 -2.3751
  482MOL0     H65046   6.277   3.278  -2.499  0.3734  0.9177 -2.6434
  482MOL0     H65047   6.262   3.181  -2.641  1.1837 -2.0684 -0.2999
  482MOL0     H65048   6.148   3.103  -2.367 -0.8409  2.8481  0.5093
  482MOL0     H65049   6.170   3.003  -2.518  0.2156  0.0136 -1.7982
  482MOL0     H65050   5.941   3.080  -2.502  0.3187 -0.7136  1.3984
  482MOL0     H65051   6.021   3.146  -2.640 -0.3124 -1.1167  0.0970
  482MOL0     H65052   6.800   3.542  -2.183  1.3090 -3.4516 -1.1877
  482MOL0     H65053   6.943   3.677  -2.038 -2.6295 -1.6553 -0.1146
  482MOL0     H65054   7.137   4.233  -2.082 -3.0471  2.7138  3.3465
  482MOL0     H65055   7.207   4.367  -1.915 -2.5206 -0.0934 -0.3296
  482MOL0     H65056   7.542   3.658  -0.372  0.2234  0.2096 -0.7820
  482MOL0     H65057   7.685   3.466  -0.271  0.9581  2.3030 -3.4611
  482MOL0     H65058   7.978   3.274  -0.060  2.3900  1.8725  2.7367
  482MOL0     H65059   8.028   3.018  -0.028  1.6944  0.3546  1.4033
  482MOL0     H65060   7.788   2.769   0.089  0.2222 -3.8565  2.0468
  482MOL0     H65061   7.930   2.792  -0.020 -1.1798 -0.4787 -0.5990
  482MOL0     H65062   7.904   2.559   0.085  2.8345 -0.7637 -1.2167
  482MOL0     H65063   7.927   2.634   0.243 -2.5897 -2.1994 -0.0647
  482MOL0     H65064   8.163   2.697   0.181  2.1228 -0.2909  0.8438
  482MOL0     H65065   8.135   2.655   0.015  0.4805  2.8479  1.2577
  482MOL0     H65066   8.055   2.452   0.228 -0.3321  0.7039  0.1470
  482MOL0     H65067   8.224   2.462   0.187  0.1809  1.6508  1.7606
  482MOL0     H65068   8.074   2.259  -0.152 -0.7636 -0.7803  0.6130
  482MOL0     H65069   7.777   3.014   0.314  1.4868  0.1609 -0.5075
  482MOL0     H65070   7.713   3.262   0.272  2.3544  4.3730 -0.5938
  483MOL0     O65071   8.597   5.552   1.960  0.2285  0.2748 -0.2157
  483MOL0     C65072   8.506   5.575   1.876 -0.6961 -0.2301  1.5573
  483MOL0     O65073   8.489   5.504   1.756 -0.7405  0.0888 -0.0459
  483MOL0     C65074   8.588   5.416   1.710  0.1969 -0.4913 -0.2473
  483MOL0     C65075   8.558   5.285   1.739  0.1048 -0.1841 -0.1604
  483MOL0     C65076   8.665   5.194   1.720 -0.6607  1.0972  0.5919
  483MOL0     C65077   8.784   5.223   1.653 -0.6795 -0.3787  0.6652
  483MOL0     O65078   8.865   5.118   1.611 -0.5132  0.0391 -1.1027
  483MOL0     C65079   8.996   5.149   1.556  1.0645 -0.3772  0.0527
  483MOL0     C65080   8.983   5.186   1.407  1.2911  1.0747  0.0428
  483MOL0     C65081   9.120   5.182   1.332 -1.0549  0.4004  0.7520
  483MOL0     C65082   9.094   5.261   1.201  0.6086 -0.0707 -1.3538
  483MOL0     C65083   9.216   5.293   1.136  0.2469 -0.6502  0.0929
  483MOL0     C65084   9.275   5.175   1.062 -0.7523  0.1642 -0.1923
  483MOL0     C65085   9.191   5.144   0.934  0.2993  1.0637  0.6871
  483MOL0     C65086   9.238   5.037   0.839 -0.4875 -0.4405  0.0076
  483MOL0     N65087   9.368   5.068   0.784 -0.0329 -0.1653  0.8277
  483MOL0     C65088   9.456   4.974   0.736  0.2716  0.0301  0.0095
  483MOL0     C65089   9.564   5.042   0.684  0.0329 -0.5873 -0.7682
  483MOL0     C65090   9.674   4.978   0.602 -0.0045  0.0052  0.0217
  483MOL0     C65091   9.817   5.036   0.617 -0.2569  0.1271 -0.8414
  483MOL0     C65092   9.896   4.971   0.738 -0.5118 -0.3148 -0.2498
  483MOL0     C65093  10.003   5.065   0.794  0.7272 -0.4353 -0.0110
  483MOL0     O65094   9.935   5.171   0.870 -0.1084 -0.5944  0.0268
  483MOL0     C65095  10.026   5.259   0.917 -0.0692 -0.1626 -0.3003
  483MOL0     C65096  10.060   5.259   1.054 -0.3217  0.1173 -0.0872
  483MOL0     C65097  10.148   5.350   1.113 -0.5224 -0.1455  0.1689
  483MOL0     C65098  10.156   5.329   1.265 -0.3521  0.4756 -0.0742
  483MOL0     C65099  10.211   5.445   1.021  0.6629  0.1286 -0.7715
  483MOL0     C65100  10.311   5.543   1.075 -0.4790 -0.4218  0.5769
  483MOL0     O65101  10.412   5.595   0.998  0.5070  0.4723 -0.4393
  483MOL0     C65102  10.518   5.665   1.043  1.3631 -0.0450 -0.4018
  483MOL0     C65103  10.585   5.731   0.942 -0.0424 -0.1347  0.1804
  483MOL0     C65104  10.700   5.804   0.978 -0.7355 -0.2135  0.6543
  483MOL0     C65105  10.758   5.795   1.105 -1.0560  0.0265 -0.0362
  483MOL0     O65106  10.875   5.869   1.123 -0.2970 -0.0754  0.3621
  483MOL0     C65107  10.979   5.815   1.207  0.5620  0.6259 -0.6789
  483MOL0     C65108  11.109   5.890   1.191 -0.0671 -0.1292 -0.4675
  483MOL0     C65109  11.224   5.846   1.287  0.7293  0.4270  0.3503
  483MOL0     C65110  11.197   5.863   1.433  0.7485  0.8801 -0.1583
  483MOL0     C65111  11.310   5.836   1.525 -0.0285 -0.0378  0.3590
  483MOL0     C65112  11.364   5.693   1.523 -0.1080  0.1789  0.1927
  483MOL0     C65113  11.437   5.663   1.659  0.1413  0.5911  0.7113
  483MOL0     C65114  11.515   5.523   1.634  0.0313 -0.9000  0.0005
  483MOL0    Cl65115  11.668   5.564   1.559 -0.5971  0.2237 -0.1756
  483MOL0     C65116  10.700   5.701   1.194  0.8809  0.0667 -0.5093
  483MOL0     C65117  10.578   5.639   1.164  0.6879 -0.4800  0.6171
  483MOL0     O65118  10.293   5.568   1.195 -0.3374  0.6496 -0.5484
  483MOL0     C65119  10.188   5.435   0.889  0.1014 -0.3433 -0.4301
  483MOL0     C65120  10.090   5.349   0.842  0.3408 -0.0121  0.5339
  483MOL0     N65121   9.537   5.175   0.714  0.0554 -0.0124  0.3092
  483MOL0     N65122   9.421   5.192   0.764  0.3426 -0.5890 -0.5524
  483MOL0     C65123   8.797   5.354   1.609 -0.3587  0.1310  0.5561
  483MOL0     C65124   8.700   5.451   1.639 -0.7658 -0.0946 -0.9613
  483MOL0     C65125   8.404   5.664   1.911  1.3019 -0.3526  0.1938
  483MOL0     C65126   8.274   5.659   1.853 -0.3539  0.0755 -0.0821
  483MOL0     C65127   8.169   5.750   1.897  0.0508  0.6483  1.1076
  483MOL0     C65128   8.197   5.844   1.997 -0.0932  0.3868 -0.3914
  483MOL0     O65129   8.098   5.929   2.033 -0.2167  0.0711  0.2306
  483MOL0     C65130   8.025   5.889   2.144  0.1028  0.5629 -0.1251
  483MOL0     C65131   8.081   5.956   2.268 -0.3128  0.3168 -0.3594
  483MOL0     C65132   7.995   5.927   2.399  0.0037  1.2270  0.0818
  483MOL0     C65133   8.038   6.044   2.499  0.7091 -0.4388  0.5261
  483MOL0     C65134   7.977   6.031   2.631 -0.2978 -0.1675 -0.9047
  483MOL0     C65135   7.922   6.017   2.737  0.6871  0.5964 -0.4885
  483MOL0     C65136   8.322   5.843   2.059 -1.5555  0.0987  0.1243
  483MOL0     C65137   8.423   5.753   2.019 -0.5556  0.0235 -0.6882
  483MOL0     H65138   8.460   5.252   1.774  0.7947 -2.8927 -0.5378
  483MOL0     H65139   8.642   5.096   1.759 -0.1067  0.6200 -0.2547
  483MOL0     H65140   9.045   5.237   1.599 -0.4203  1.4616 -1.8111
  483MOL0     H65141   9.062   5.062   1.567  0.5751 -1.4706 -3.8477
  483MOL0     H65142   8.928   5.102   1.364  0.0786  2.4525 -1.1864
  483MOL0     H65143   8.923   5.276   1.395 -1.6540 -0.5547  1.5768
  483MOL0     H65144   9.210   5.222   1.379  0.2762 -0.7400 -0.7153
  483MOL0     H65145   9.147   5.081   1.300  1.6965  0.9940  0.9312
  483MOL0     H65146   9.033   5.200   1.135 -0.1022 -1.3278  0.3908
  483MOL0     H65147   9.026   5.342   1.230  0.6754 -1.1078  2.0720
  483MOL0     H65148   9.204   5.372   1.061 -0.2064 -0.8413 -0.0356
  483MOL0     H65149   9.289   5.327   1.211 -1.3206 -0.5331  1.6337
  483MOL0     H65150   9.377   5.186   1.024  0.7855 -1.9143  2.9400
  483MOL0     H65151   9.291   5.087   1.126 -0.1999  0.1484 -0.3446
  483MOL0     H65152   9.086   5.120   0.949  0.3211 -0.4397 -1.1754
  483MOL0     H65153   9.188   5.243   0.888 -0.0228  1.5055  1.6362
  483MOL0     H65154   9.169   5.029   0.755 -1.1975 -2.6822  0.7412
  483MOL0     H65155   9.245   4.938   0.883  1.8002 -0.3055  0.0988
  483MOL0     H65156   9.442   4.867   0.728 -1.0629  0.3198 -4.9252
  483MOL0     H65157   9.692   4.874   0.629  2.3052  0.1461 -0.7831
  483MOL0     H65158   9.658   4.990   0.494 -0.1922  0.9293  0.1440
  483MOL0     H65159   9.804   5.143   0.632 -5.1773 -0.2760 -0.5559
  483MOL0     H65160   9.874   5.002   0.530  1.4284 -0.9206  0.6036
  483MOL0     H65161   9.952   4.883   0.707  2.1663 -0.7877  4.8088
  483MOL0     H65162   9.822   4.943   0.814  0.2913 -2.0403 -0.0708
  483MOL0     H65163  10.061   5.112   0.714 -0.0178  0.0438 -0.2755
  483MOL0     H65164  10.053   5.002   0.869 -1.9489 -1.0434  1.4094
  483MOL0     H65165  10.012   5.176   1.105  2.4685 -0.7720  1.2786
  483MOL0     H65166  10.105   5.239   1.301  0.2190 -0.4451 -1.4837
  483MOL0     H65167  10.262   5.317   1.288 -0.4207 -1.1055 -0.4559
  483MOL0     H65168  10.113   5.415   1.316 -0.8496 -0.7476  1.6535
  483MOL0     H65169  10.542   5.743   0.842 -0.1239  2.5646  0.4538
  483MOL0     H65170  10.751   5.870   0.909 -1.0637 -0.1330  0.4890
  483MOL0     H65171  10.939   5.820   1.309  2.2132 -0.3974  0.0555
  483MOL0     H65172  11.007   5.715   1.174 -0.2604  0.0377  0.3537
  483MOL0     H65173  11.134   5.889   1.084 -0.5684  0.6434 -0.6040
  483MOL0     H65174  11.074   5.992   1.211 -0.5998  0.1498 -2.5407
  483MOL0     H65175  11.302   5.908   1.241  0.8588 -1.1107 -1.6249
  483MOL0     H65176  11.257   5.743   1.274 -3.0092 -0.6794 -2.0769
  483MOL0     H65177  11.158   5.960   1.467 -0.7867  0.0983  0.3905
  483MOL0     H65178  11.130   5.784   1.468  0.7139  0.5722 -0.9206
  483MOL0     H65179  11.271   5.857   1.625  2.1054  0.1299  1.2078
  483MOL0     H65180  11.397   5.903   1.515  0.3247 -0.6241 -0.6602
  483MOL0     H65181  11.286   5.617   1.510 -0.0971  0.6670 -4.2404
  483MOL0     H65182  11.429   5.679   1.436 -1.9308 -0.1550 -1.1868
  483MOL0     H65183  11.368   5.648   1.743 -0.4738 -2.1676 -0.1855
  483MOL0     H65184  11.502   5.746   1.687  0.7059  0.6829 -0.8013
  483MOL0     H65185  11.449   5.454   1.582 -2.4574  2.6962 -2.0737
  483MOL0     H65186  11.536   5.485   1.735 -2.2269 -2.1442  0.0626
  483MOL0     H65187  10.744   5.675   1.290 -2.0830  1.5086  1.3748
  483MOL0     H65188  10.525   5.577   1.235 -1.5448  1.5603  0.8890
  483MOL0     H65189  10.259   5.492   0.830  1.1309  1.3606  2.2649
  483MOL0     H65190  10.075   5.350   0.735  0.5273  0.2478  0.5075
  483MOL0     H65191   8.882   5.389   1.551  1.2949 -2.7022  1.0292
  483MOL0     H65192   8.699   5.555   1.608 -2.4247  0.0672 -0.4619
  483MOL0     H65193   8.246   5.582   1.781  1.4201 -0.5243 -0.1932
  483MOL0     H65194   8.069   5.746   1.855  0.7983  1.4547 -0.8826
  483MOL0     H65195   7.917   5.897   2.124 -0.0677  0.6032  0.7931
  483MOL0     H65196   8.037   5.781   2.162 -1.4096  0.3526 -0.2179
  483MOL0     H65197   8.085   6.065   2.255 -0.8552  0.7630  2.5213
  483MOL0     H65198   8.181   5.914   2.285 -1.0632 -1.1972  0.5643
  483MOL0     H65199   8.007   5.826   2.440 -0.5078 -0.1959 -3.0118
  483MOL0     H65200   7.893   5.940   2.363 -0.2672  0.7064  0.6409
  483MOL0     H65201   8.013   6.141   2.455  1.0149 -1.1474 -1.2794
  483MOL0     H65202   8.145   6.037   2.521  0.5775 -2.4934  0.7103
  483MOL0     H65203   7.870   6.015   2.831 -1.5321  2.0288 -1.5987
  483MOL0     H65204   8.345   5.910   2.142  0.2985 -1.1986  0.7062
  483MOL0     H65205   8.522   5.760   2.064 -2.4749 -1.0184  4.3171
  484MOL0     O65206   2.243   8.572   3.685 -0.4341  0.7153 -0.6313
  484MOL0     C65207   2.174   8.630   3.604 -0.9119  0.0226 -0.6993
  484MOL0     O65208   2.148   8.575   3.479  0.9421  0.8106 -1.0235
  484MOL0     C65209   2.226   8.468   3.444  1.0265 -0.0524  0.3740
  484MOL0     C65210   2.307   8.466   3.328  0.3053  0.1009 -1.0662
  484MOL0     C65211   2.383   8.355   3.294 -0.0737 -0.4533  0.2158
  484MOL0     C65212   2.381   8.235   3.369 -0.3133  0.5480  0.7062
  484MOL0     O65213   2.454   8.126   3.329 -0.0744 -0.2677  0.3525
  484MOL0     C65214   2.493   8.028   3.429 -0.4089  0.2544  0.3682
  484MOL0     C65215   2.404   7.902   3.433 -0.8484  0.1394  0.5657
  484MOL0     C65216   2.399   7.852   3.290 -0.0542  0.5806  0.0784
  484MOL0     C65217   2.290   7.741   3.273  0.2244  0.4384 -0.5610
  484MOL0     C65218   2.284   7.682   3.142  0.1677 -0.2396  1.2652
  484MOL0     C65219   2.174   7.578   3.107  0.3475  0.3694 -0.0680
  484MOL0     C65220   2.171   7.535   2.960 -0.2524  0.0336  0.0971
  484MOL0     C65221   2.054   7.437   2.930 -0.4569 -0.0706 -0.5508
  484MOL0     N65222   1.927   7.496   2.967 -0.1126 -0.6172 -0.4941
  484MOL0     C65223   1.871   7.623   2.945 -1.1809 -0.4257 -0.6655
  484MOL0     C65224   1.746   7.615   2.990  0.3405 -0.3124 -0.8952
  484MOL0     C65225   1.650   7.724   2.974 -0.1509  0.0321 -0.2249
  484MOL0     C65226   1.601   7.762   3.116  0.4107 -0.6071  0.3864
  484MOL0     C65227   1.488   7.868   3.115  0.2451  0.6615 -0.0391
  484MOL0     C65228   1.505   7.965   3.226 -0.1355 -0.5873  0.6453
  484MOL0     O65229   1.421   8.071   3.221  0.0778  0.4114 -0.5455
  484MOL0     C65230   1.448   8.195   3.159 -1.0803  0.6191  0.6093
  484MOL0     C65231   1.372   8.300   3.203  0.0561 -0.0235 -0.0260
  484MOL0     C65232   1.375   8.430   3.143 -0.8400  0.0505  0.6349
  484MOL0     C65233   1.258   8.517   3.181  0.4010 -0.4205  0.6580
  484MOL0     C65234   1.463   8.451   3.034  0.5776 -0.0426 -0.2967
  484MOL0     C65235   1.482   8.583   2.969  1.0876 -0.7330  0.7874
  484MOL0     O65236   1.563   8.580   2.857 -0.3529  0.1665 -0.6105
  484MOL0     C65237   1.588   8.707   2.805  0.1080  0.1894  0.8693
  484MOL0     C65238   1.520   8.748   2.683  0.7025  0.3554  0.1524
  484MOL0     C65239   1.564   8.872   2.627 -0.3124  0.2018  0.5843
  484MOL0     C65240   1.653   8.958   2.685  0.2471  0.3823 -0.0380
  484MOL0     O65241   1.669   9.085   2.637 -0.2996 -0.7238  0.4252
  484MOL0     C65242   1.758   9.182   2.706 -0.3787  0.3386 -0.0278
  484MOL0     C65243   1.768   9.289   2.600 -0.6866  0.2470  0.2630
  484MOL0     C65244   1.869   9.400   2.635  0.2660  1.4017 -0.2062
  484MOL0     C65245   2.014   9.383   2.575 -0.6423 -0.0299 -0.0932
  484MOL0     C65246   2.100   9.507   2.570 -0.1267 -1.0216 -0.0780
  484MOL0     C65247   2.242   9.470   2.530 -0.4030  0.4594 -0.4709
  484MOL0     C65248   2.326   9.598   2.513  0.3985  0.4261  0.9596
  484MOL0     C65249   2.476   9.557   2.513  0.1868  0.1789 -1.2289
  484MOL0    Cl65250   2.580   9.695   2.534  0.4396  0.2493 -0.1815
  484MOL0     C65251   1.712   8.912   2.801 -0.3361 -0.0672 -0.9348
  484MOL0     C65252   1.670   8.795   2.861  0.3491 -0.8868 -1.0464
  484MOL0     O65253   1.418   8.682   3.013 -0.3091  0.8677  0.6451
  484MOL0     C65254   1.543   8.338   2.989  0.5160  0.1594  0.4213
  484MOL0     C65255   1.541   8.220   3.057 -0.2607  0.0728  1.0410
  484MOL0     N65256   1.735   7.499   3.053  0.7764 -1.1668 -0.6205
  484MOL0     N65257   1.834   7.428   3.040  0.0630  0.7943 -0.3317
  484MOL0     C65258   2.301   8.238   3.488  0.2108 -0.6526  0.4847
  484MOL0     C65259   2.221   8.348   3.513  0.4530 -0.7625  0.7687
  484MOL0     C65260   2.128   8.772   3.640 -0.1859  0.2027 -0.5932
  484MOL0     C65261   2.171   8.838   3.757  0.4044  0.9804  0.7083
  484MOL0     C65262   2.131   8.969   3.786 -0.1393 -0.1122 -0.2667
  484MOL0     C65263   2.055   9.040   3.700  0.3393  0.1042 -0.0029
  484MOL0     O65264   2.015   9.165   3.740 -0.0430 -0.4857  0.0380
  484MOL0     C65265   2.069   9.269   3.654  0.2742 -0.0495 -0.5137
  484MOL0     C65266   2.032   9.405   3.726 -0.2823  0.4503 -0.1910
  484MOL0     C65267   1.879   9.423   3.729  0.4855  0.2140 -0.5095
  484MOL0     C65268   1.837   9.570   3.738  0.4781 -0.8481  0.7508
  484MOL0     C65269   1.780   9.624   3.613 -0.9244  0.0945 -0.0198
  484MOL0     C65270   1.726   9.665   3.516  0.2364  0.5737  0.9300
  484MOL0     C65271   2.000   8.979   3.586 -0.6432  0.0973 -0.1506
  484MOL0     C65272   2.039   8.844   3.556  0.4090  0.1309 -0.8565
  484MOL0     H65273   2.320   8.551   3.262 -0.6927 -1.6312 -3.6534
  484MOL0     H65274   2.440   8.361   3.202 -2.7060  1.0756 -1.4484
  484MOL0     H65275   2.594   7.997   3.401  0.5548  4.2777 -1.2747
  484MOL0     H65276   2.495   8.068   3.531 -0.2523  0.3444  0.3299
  484MOL0     H65277   2.452   7.827   3.498 -2.0927  0.8590  2.4134
  484MOL0     H65278   2.303   7.931   3.463 -1.1586  0.5744 -0.8425
  484MOL0     H65279   2.375   7.929   3.216  2.5304  2.5881  1.1623
  484MOL0     H65280   2.498   7.824   3.251  1.0042  2.9779  0.8884
  484MOL0     H65281   2.298   7.666   3.352 -4.5375 -0.3014 -0.5102
  484MOL0     H65282   2.197   7.794   3.297  0.4347 -0.0472  1.5326
  484MOL0     H65283   2.300   7.766   3.074  3.0164 -1.3849  0.3680
  484MOL0     H65284   2.378   7.629   3.126  0.3802  0.0952  1.3824
  484MOL0     H65285   2.185   7.486   3.166  0.1530 -1.0022 -2.0892
  484MOL0     H65286   2.080   7.628   3.132  0.2728  1.1687 -1.8561
  484MOL0     H65287   2.161   7.624   2.898 -1.5192 -0.0996  0.0963
  484MOL0     H65288   2.270   7.503   2.927  0.0286  0.0100  0.9271
  484MOL0     H65289   2.070   7.342   2.982 -0.7416  1.4855  2.6496
  484MOL0     H65290   2.060   7.405   2.826 -1.2108 -1.9476 -0.0549
  484MOL0     H65291   1.910   7.706   2.886  1.5977 -0.4701  0.9110
  484MOL0     H65292   1.696   7.818   2.943 -1.3735  0.8203  0.2712
  484MOL0     H65293   1.569   7.694   2.907  0.0627 -1.4710  0.1462
  484MOL0     H65294   1.686   7.795   3.175  1.9645 -1.9914 -0.9913
  484MOL0     H65295   1.562   7.673   3.167 -0.5007 -0.2265  0.3804
  484MOL0     H65296   1.392   7.816   3.122 -0.3487  1.5198 -1.3840
  484MOL0     H65297   1.469   7.906   3.014 -3.9386 -2.3797 -0.6316
  484MOL0     H65298   1.608   8.002   3.230 -0.2230 -0.2579 -0.0686
  484MOL0     H65299   1.483   7.921   3.324 -1.4349  0.1721  0.7193
  484MOL0     H65300   1.292   8.280   3.274 -0.4723  2.0131  0.0309
  484MOL0     H65301   1.201   8.554   3.096 -2.2777 -1.8011  1.7333
  484MOL0     H65302   1.188   8.468   3.248 -1.7466  0.1088 -1.0797
  484MOL0     H65303   1.298   8.603   3.234 -2.9548  2.0773 -0.5208
  484MOL0     H65304   1.462   8.674   2.629 -0.8169  0.8172  1.1078
  484MOL0     H65305   1.511   8.910   2.541 -0.7954 -1.1240  0.2609
  484MOL0     H65306   1.728   9.235   2.797  2.5346  0.8484  0.7340
  484MOL0     H65307   1.853   9.130   2.719 -0.6820 -0.8205 -2.0721
  484MOL0     H65308   1.808   9.240   2.511  0.6760  0.0237  0.9662
  484MOL0     H65309   1.671   9.335   2.579 -1.2488 -0.5713  1.0347
  484MOL0     H65310   1.859   9.405   2.744 -0.7619 -2.4011  0.0100
  484MOL0     H65311   1.815   9.483   2.590 -1.5718 -0.8432 -2.4606
  484MOL0     H65312   2.067   9.299   2.620 -1.2679  0.0422  0.7936
  484MOL0     H65313   1.988   9.353   2.473  1.8874 -2.7080 -0.0678
  484MOL0     H65314   2.094   9.574   2.655  1.0619  2.8847 -2.7732
  484MOL0     H65315   2.064   9.556   2.478  2.9405 -3.3517 -2.7762
  484MOL0     H65316   2.286   9.406   2.607  0.5358  0.9167 -0.6142
  484MOL0     H65317   2.246   9.415   2.436  2.4111  0.9105 -0.7044
  484MOL0     H65318   2.307   9.662   2.600  3.6113 -1.0362  2.9305
  484MOL0     H65319   2.301   9.639   2.415  2.1747  2.3557  1.2538
  484MOL0     H65320   2.506   9.509   2.419 -0.4430  0.6626 -1.6833
  484MOL0     H65321   2.493   9.482   2.591 -0.2569 -1.4301 -2.6104
  484MOL0     H65322   1.778   8.976   2.859 -0.2350 -2.5222  1.9093
  484MOL0     H65323   1.709   8.774   2.960  3.5507  1.4789 -1.6492
  484MOL0     H65324   1.620   8.351   2.914  0.1145  2.2163  0.3033
  484MOL0     H65325   1.613   8.152   3.014  0.2165  2.0206 -1.5121
  484MOL0     H65326   2.298   8.160   3.564  1.6990 -0.9050  0.3189
  484MOL0     H65327   2.156   8.344   3.600 -0.0917 -3.7120  0.3283
  484MOL0     H65328   2.242   8.791   3.825  0.9313  0.4333 -0.2088
  484MOL0     H65329   2.174   9.015   3.875 -2.2685 -2.0032  1.8915
  484MOL0     H65330   2.176   9.249   3.641  0.3989  0.2525  0.0177
  484MOL0     H65331   2.024   9.266   3.554  0.3763 -0.0465 -0.5599
  484MOL0     H65332   2.074   9.494   3.679  1.3482  0.3923  1.0504
  484MOL0     H65333   2.076   9.406   3.826 -1.2733 -0.8653  0.2882
  484MOL0     H65334   1.849   9.361   3.814  1.8939  0.1380 -0.0420
  484MOL0     H65335   1.833   9.371   3.644 -0.9183 -0.5119  0.6422
  484MOL0     H65336   1.916   9.632   3.779  0.1562  1.3601 -1.6681
  484MOL0     H65337   1.765   9.586   3.818 -2.3470  0.0568 -1.7819
  484MOL0     H65338   1.694   9.690   3.417  1.0207 -1.8016  0.0147
  484MOL0     H65339   1.921   9.034   3.537  2.0045  2.3409 -2.2772
  484MOL0     H65340   1.985   8.792   3.477  0.7066 -2.9247  0.7908
  485MOL0     O65341   9.962   5.838   2.064 -0.5937 -0.7437  0.1576
  485MOL0     C65342   9.935   5.827   1.946  0.4194 -0.7906 -0.6574
  485MOL0     O65343  10.006   5.874   1.842 -0.2365  0.1974 -0.3607
  485MOL0     C65344  10.136   5.913   1.863 -0.7880 -0.6814 -0.3852
  485MOL0     C65345  10.229   5.820   1.897 -0.2592  0.5226 -0.2277
  485MOL0     C65346  10.366   5.841   1.899 -0.4822 -0.5166  0.0731
  485MOL0     C65347  10.414   5.977   1.882  0.2894  0.1430 -0.7974
  485MOL0     O65348  10.541   6.020   1.886  0.4336  0.5431 -0.0800
  485MOL0     C65349  10.608   5.982   2.008 -0.9615  0.0178 -0.2320
  485MOL0     C65350  10.750   6.038   2.010  0.0200  0.2819 -0.5864
  485MOL0     C65351  10.823   6.003   2.136  0.0476  0.5046  0.3649
  485MOL0     C65352  10.980   6.011   2.128  1.2694 -0.4148  0.3226
  485MOL0     C65353  11.050   5.896   2.055 -0.5067  0.6887  0.4193
  485MOL0     C65354  11.198   5.921   2.069 -0.0087  0.3530  0.7275
  485MOL0     C65355  11.288   5.827   1.994  0.2749 -0.2684 -0.5110
  485MOL0     C65356  11.296   5.685   2.056  0.9252  0.8516  0.1342
  485MOL0     N65357  11.432   5.643   2.093 -0.2850  1.6265 -0.5886
  485MOL0     C65358  11.500   5.708   2.189  0.2751 -0.6597 -0.2283
  485MOL0     C65359  11.627   5.655   2.192 -0.8095 -0.1475 -0.7794
  485MOL0     C65360  11.724   5.699   2.288  0.4992 -0.7054 -0.0572
  485MOL0     C65361  11.819   5.585   2.307 -0.7834 -0.3502 -0.3054
  485MOL0     C65362  11.921   5.623   2.421  0.6057 -0.4101  0.3961
  485MOL0     C65363  12.027   5.517   2.438 -0.1597 -0.0964 -0.2474
  485MOL0     O65364  11.987   5.457   2.563  0.1620  0.1782 -0.1076
  485MOL0     C65365  12.068   5.344   2.588  0.7628  0.2158 -0.0692
  485MOL0     C65366  12.200   5.318   2.536 -0.0675  0.6332  0.1522
  485MOL0     C65367  12.274   5.202   2.571 -0.7947 -0.3222  0.5047
  485MOL0     C65368  12.411   5.187   2.504 -1.2312 -0.1698 -0.3779
  485MOL0     C65369  12.221   5.118   2.672 -1.0271  0.2479  0.8251
  485MOL0     C65370  12.286   4.997   2.713  0.4055  0.4186  0.3975
  485MOL0     O65371  12.286   4.974   2.845 -0.1238 -0.6348 -0.6722
  485MOL0     C65372  12.341   4.855   2.888 -0.3587 -0.5716 -0.7060
  485MOL0     C65373  12.477   4.837   2.886  0.2989 -0.6969 -0.0774
  485MOL0     C65374  12.524   4.707   2.912 -0.2205  0.1407 -1.2684
  485MOL0     C65375  12.439   4.597   2.951  0.1666 -0.4814  0.0819
  485MOL0     O65376  12.496   4.476   2.976  0.1091 -0.2953 -0.1658
  485MOL0     C65377  12.614   4.426   2.894  0.4114  0.0390 -1.2479
  485MOL0     C65378  12.719   4.413   3.005  0.0451  0.1586 -0.1005
  485MOL0     C65379  12.846   4.342   2.952 -0.1186 -0.0502  0.0197
  485MOL0     C65380  12.970   4.381   3.033 -0.1478  0.4740  0.4220
  485MOL0     C65381  13.015   4.518   2.985  0.0937  0.9491  0.8379
  485MOL0     C65382  13.066   4.517   2.842  0.8692  0.8321  0.4212
  485MOL0     C65383  13.157   4.641   2.805 -1.1121  0.5909 -0.0545
  485MOL0     C65384  13.087   4.725   2.694 -0.3912  0.9458  0.4915
  485MOL0    Cl65385  13.072   4.630   2.538 -0.0129  0.1097 -0.6468
  485MOL0     C65386  12.302   4.630   2.977  0.4664  0.2808 -0.4645
  485MOL0     C65387  12.255   4.756   2.946 -0.0216 -0.8764  1.0060
  485MOL0     O65388  12.333   4.925   2.626  0.3788 -1.1384  0.5888
  485MOL0     C65389  12.108   5.152   2.734 -0.4924 -0.0711  0.5002
  485MOL0     C65390  12.024   5.260   2.687  0.6958 -0.1860  0.4290
  485MOL0     N65391  11.631   5.549   2.096  0.4755  0.3343 -0.0731
  485MOL0     N65392  11.518   5.540   2.035  0.8038 -0.8918  0.2422
  485MOL0     C65393  10.320   6.074   1.847  1.3889  0.0229 -0.1572
  485MOL0     C65394  10.184   6.040   1.824 -0.5971 -0.3992 -0.0903
  485MOL0     C65395   9.793   5.784   1.920 -0.6724 -0.6997 -0.6262
  485MOL0     C65396   9.708   5.750   2.030 -0.4427 -0.6930 -0.1296
  485MOL0     C65397   9.575   5.710   1.997  0.6877 -0.3842 -0.3291
  485MOL0     C65398   9.526   5.709   1.866 -0.0431  1.0159 -0.3777
  485MOL0     O65399   9.405   5.661   1.818  0.2161 -0.1996 -0.2126
  485MOL0     C65400   9.306   5.643   1.919  0.7463  0.1412 -0.3587
  485MOL0     C65401   9.175   5.593   1.868  0.4019 -0.2442 -0.1096
  485MOL0     C65402   9.088   5.706   1.798 -0.3462  0.3056 -0.6666
  485MOL0     C65403   8.946   5.669   1.784 -0.2457  0.0751 -0.3949
  485MOL0     C65404   8.880   5.784   1.729 -0.9274 -0.3469 -0.5997
  485MOL0     C65405   8.817   5.868   1.671 -0.5729  0.0665 -0.6184
  485MOL0     C65406   9.612   5.742   1.763 -0.5977 -0.1224  0.8878
  485MOL0     C65407   9.738   5.789   1.789  0.3334 -0.1845  0.6983
  485MOL0     H65408  10.210   5.714   1.907  0.2378  0.5070  0.6613
  485MOL0     H65409  10.433   5.764   1.934  0.0988 -0.2251 -0.3681
  485MOL0     H65410  10.551   6.010   2.097 -1.6787 -1.0215 -0.3462
  485MOL0     H65411  10.619   5.874   2.017 -2.1210 -0.0720  0.3456
  485MOL0     H65412  10.793   5.996   1.918 -2.6782  0.5089 -2.0609
  485MOL0     H65413  10.742   6.147   2.006  1.6491  0.5806  1.9638
  485MOL0     H65414  10.794   6.077   2.210 -0.7070  0.9414 -0.3464
  485MOL0     H65415  10.779   5.908   2.167  1.7132  0.0513  1.4921
  485MOL0     H65416  11.008   6.098   2.067  2.4978 -2.2441 -1.8798
  485MOL0     H65417  11.018   6.015   2.230 -0.9024  0.5124  1.1771
  485MOL0     H65418  11.014   5.798   2.090 -0.5499 -0.1550 -1.7828
  485MOL0     H65419  11.035   5.911   1.947 -0.3613  2.2631  0.5954
  485MOL0     H65420  11.209   6.023   2.030  0.6411  0.1718  0.4379
  485MOL0     H65421  11.218   5.934   2.176 -3.0067  4.7439  1.0542
  485MOL0     H65422  11.253   5.817   1.891 -1.5624  0.3571  0.0129
  485MOL0     H65423  11.386   5.875   1.998 -0.7142  1.8278  1.3793
  485MOL0     H65424  11.252   5.611   1.988 -1.1964  0.7608  1.4979
  485MOL0     H65425  11.235   5.670   2.145  1.6419 -2.1288  0.2361
  485MOL0     H65426  11.468   5.798   2.241  0.6104  0.9692 -2.6878
  485MOL0     H65427  11.778   5.789   2.256  0.1715 -0.0195  1.2582
  485MOL0     H65428  11.675   5.722   2.383 -1.3295 -1.9277 -0.6580
  485MOL0     H65429  11.872   5.555   2.216  1.1319 -0.4739  0.8029
  485MOL0     H65430  11.768   5.495   2.344  0.5824 -0.7202  0.7535
  485MOL0     H65431  11.875   5.650   2.516 -1.1310 -0.3883 -0.4250
  485MOL0     H65432  11.967   5.716   2.386 -1.6206  1.5872  2.4600
  485MOL0     H65433  12.125   5.566   2.446  0.8765 -2.3873  3.9176
  485MOL0     H65434  12.033   5.448   2.354 -0.8746 -0.0959 -0.3016
  485MOL0     H65435  12.252   5.391   2.475 -1.8953  1.6687 -0.2197
  485MOL0     H65436  12.487   5.142   2.568 -0.0574  3.4413  1.0341
  485MOL0     H65437  12.403   5.121   2.418 -0.6527  0.1640 -0.6954
  485MOL0     H65438  12.456   5.282   2.473  0.3504  0.1053  2.3982
  485MOL0     H65439  12.542   4.908   2.835 -1.6053  0.0631 -1.5403
  485MOL0     H65440  12.631   4.696   2.930 -0.6181  0.2037  1.6743
  485MOL0     H65441  12.604   4.331   2.840 -2.2127  0.5957 -1.9163
  485MOL0     H65442  12.637   4.493   2.810 -0.9446 -0.7865 -2.3290
  485MOL0     H65443  12.736   4.507   3.057  0.9557 -0.6208  1.0428
  485MOL0     H65444  12.673   4.351   3.082 -2.1858  0.7208 -0.8971
  485MOL0     H65445  12.850   4.349   2.843 -2.3168  0.0980 -0.0793
  485MOL0     H65446  12.839   4.234   2.966 -3.3912  0.0978  0.1989
  485MOL0     H65447  12.957   4.377   3.141 -2.2943 -3.5917  0.2206
  485MOL0     H65448  13.060   4.321   3.014 -0.5438 -0.3150  1.0136
  485MOL0     H65449  13.103   4.542   3.047  0.5436  0.8763  0.2360
  485MOL0     H65450  12.937   4.593   2.996  1.3649  2.1561  2.1080
  485MOL0     H65451  13.124   4.427   2.819 -2.6627 -1.3639 -0.8693
  485MOL0     H65452  12.985   4.510   2.768  0.2482 -0.6683  1.1913
  485MOL0     H65453  13.250   4.595   2.771  0.1571  1.7653  1.6462
  485MOL0     H65454  13.175   4.701   2.895 -1.2435 -0.9634  1.0468
  485MOL0     H65455  13.148   4.815   2.686 -0.4738  0.8722 -1.6976
  485MOL0     H65456  12.987   4.754   2.725  0.6167  3.3858  1.7166
  485MOL0     H65457  12.250   4.544   3.018  3.1308  0.3135  3.4790
  485MOL0     H65458  12.149   4.780   2.944  0.4441  1.3707  0.8846
  485MOL0     H65459  12.075   5.092   2.818 -0.3249  0.8828  1.2648
  485MOL0     H65460  11.943   5.290   2.752  2.5790  4.7387  0.9318
  485MOL0     H65461  10.356   6.173   1.822  1.8021 -0.7827 -3.1288
  485MOL0     H65462  10.114   6.099   1.765  1.6841 -0.6371 -3.3056
  485MOL0     H65463   9.732   5.760   2.135 -1.3139 -4.7782  0.6114
  485MOL0     H65464   9.504   5.679   2.073 -2.4351  2.9298 -1.5759
  485MOL0     H65465   9.317   5.558   1.987 -1.9617  1.6386  2.2503
  485MOL0     H65466   9.308   5.728   1.988  0.8062 -2.0309  2.5510
  485MOL0     H65467   9.120   5.565   1.958 -0.5060 -0.7913 -0.8224
  485MOL0     H65468   9.189   5.505   1.806  0.0854 -0.0310 -0.4898
  485MOL0     H65469   9.123   5.726   1.696 -1.1096 -1.0377 -1.2192
  485MOL0     H65470   9.095   5.794   1.862  0.6218 -0.6558  0.6223
  485MOL0     H65471   8.899   5.644   1.880 -1.9865  2.4303 -0.5594
  485MOL0     H65472   8.937   5.584   1.715 -0.5288  0.3293 -0.6736
  485MOL0     H65473   8.756   5.936   1.616 -0.8261  0.4871  0.1648
  485MOL0     H65474   9.581   5.732   1.659  0.8103 -0.3190  0.4717
  485MOL0     H65475   9.800   5.813   1.703 -1.1798  2.2365  0.1944
  486MOL0     O65476   2.057   4.402   3.957  0.2845  0.9894  0.2645
  486MOL0     C65477   2.169   4.349   3.981 -0.3309 -0.6882 -0.7814
  486MOL0     O65478   2.215   4.314   4.105  0.7407  0.5616  0.7681
  486MOL0     C65479   2.186   4.397   4.208  0.1416  0.5008  0.8100
  486MOL0     C65480   2.300   4.457   4.271  0.4493 -0.3839 -0.5852
  486MOL0     C65481   2.290   4.544   4.376 -0.7854 -0.7897 -0.9252
  486MOL0     C65482   2.162   4.586   4.413  0.1451 -0.1781  0.3111
  486MOL0     O65483   2.140   4.654   4.528  0.2367 -0.8409 -0.0662
  486MOL0     C65484   2.252   4.714   4.597  0.3527 -0.9255 -0.5726
  486MOL0     C65485   2.190   4.806   4.701  0.6017 -0.2091  0.5062
  486MOL0     C65486   2.294   4.864   4.790 -0.7266  0.0510  0.1110
  486MOL0     C65487   2.362   4.997   4.732 -0.0571 -0.0101  0.6255
  486MOL0     C65488   2.426   5.092   4.827 -0.9705  0.2443  0.4509
  486MOL0     C65489   2.501   5.027   4.934  0.8620  0.1127  0.5060
  486MOL0     C65490   2.618   5.117   4.988 -0.6354 -0.7315  1.1567
  486MOL0     C65491   2.676   5.052   5.106  0.9947  0.5600 -0.0685
  486MOL0     N65492   2.757   5.151   5.184  0.1884  0.2977  0.2616
  486MOL0     C65493   2.893   5.169   5.154 -0.2706  0.7705 -0.1298
  486MOL0     C65494   2.931   5.245   5.257  0.6341 -0.1091  0.8052
  486MOL0     C65495   3.076   5.255   5.277  0.0552 -0.3687  0.1308
  486MOL0     C65496   3.154   5.125   5.310  0.7404  0.7583 -0.7206
  486MOL0     C65497   3.310   5.140   5.309  0.4220  0.9699 -0.4083
  486MOL0     C65498   3.375   5.248   5.387 -0.2841  0.5649 -1.3476
  486MOL0     O65499   3.356   5.374   5.334 -0.1132 -0.1532 -1.0625
  486MOL0     C65500   3.464   5.455   5.365 -0.5862  0.1864  0.0162
  486MOL0     C65501   3.543   5.510   5.262 -0.2915  0.0241 -0.5625
  486MOL0     C65502   3.662   5.583   5.296  0.7036 -0.0786  0.4818
  486MOL0     C65503   3.757   5.607   5.182  0.0186  1.0781 -0.9028
  486MOL0     C65504   3.707   5.610   5.429  0.1976  0.3932 -0.2290
  486MOL0     C65505   3.834   5.665   5.483  0.6134 -0.2209  0.6505
  486MOL0     O65506   3.917   5.744   5.405  0.0987 -0.2643  0.3757
  486MOL0     C65507   4.021   5.806   5.469  0.3028  0.3652  0.6637
  486MOL0     C65508   4.155   5.753   5.466 -0.0346 -0.9328  0.6518
  486MOL0     C65509   4.260   5.823   5.539  0.6356 -0.9907  0.8968
  486MOL0     C65510   4.224   5.943   5.605  0.3759 -0.6601 -0.7631
  486MOL0     O65511   4.327   5.997   5.681  0.1853 -0.9796 -0.3580
  486MOL0     C65512   4.363   5.942   5.804 -0.1610  0.0941  0.3224
  486MOL0     C65513   4.387   6.060   5.895 -0.3617 -0.4785 -0.5440
  486MOL0     C65514   4.432   6.018   6.044 -0.2441  0.2641  0.1896
  486MOL0     C65515   4.493   6.140   6.118  0.2206  0.1294  0.2920
  486MOL0     C65516   4.539   6.117   6.259  0.1064  0.0215 -0.4220
  486MOL0     C65517   4.418   6.099   6.351 -0.1870 -0.1504 -0.3760
  486MOL0     C65518   4.462   6.113   6.498  0.6441 -0.3654  0.0064
  486MOL0     C65519   4.339   6.099   6.586  0.2883  0.2336 -1.3277
  486MOL0    Cl65520   4.208   6.221   6.541  0.4076  0.3532 -0.0690
  486MOL0     C65521   4.094   6.001   5.590 -0.1253  0.2995 -0.4575
  486MOL0     C65522   3.996   5.926   5.531  0.8043  0.0223  0.0679
  486MOL0     O65523   3.867   5.620   5.588  0.6851 -0.1858 -0.6452
  486MOL0     C65524   3.606   5.578   5.522  0.8592  0.3562 -0.3939
  486MOL0     C65525   3.486   5.502   5.496 -0.6098  0.0781 -0.2529
  486MOL0     N65526   2.831   5.267   5.348  0.7952  0.6845  0.8613
  486MOL0     N65527   2.727   5.216   5.299 -0.0501 -0.2745 -0.1133
  486MOL0     C65528   2.049   4.542   4.351  0.3608  0.2442  0.3326
  486MOL0     C65529   2.059   4.438   4.254  0.0604  0.5313  0.4727
  486MOL0     C65530   2.261   4.312   3.868  0.1858  0.7199  1.8390
  486MOL0     C65531   2.221   4.285   3.738 -0.4797 -0.0821  1.0911
  486MOL0     C65532   2.308   4.249   3.635 -0.2585 -0.2029  0.8068
  486MOL0     C65533   2.443   4.260   3.656  0.9666 -0.4412  0.0474
  486MOL0     O65534   2.525   4.207   3.558  0.4592 -0.3489 -0.2184
  486MOL0     C65535   2.512   4.249   3.424  0.1058  0.5172 -1.6612
  486MOL0     C65536   2.585   4.155   3.325  0.9879  0.2056 -0.6256
  486MOL0     C65537   2.488   4.029   3.302 -0.3406  0.5306 -0.6011
  486MOL0     C65538   2.486   3.936   3.431  0.1677  0.9634 -0.4561
  486MOL0     C65539   2.468   3.795   3.396  0.1661  1.2287  1.3106
  486MOL0     C65540   2.453   3.674   3.374  0.0928  0.3070  0.2875
  486MOL0     C65541   2.484   4.282   3.782  0.8017  0.0354  0.1184
  486MOL0     C65542   2.393   4.307   3.884 -0.5053  0.2234 -0.5241
  486MOL0     H65543   2.396   4.424   4.233  0.5733 -2.5914  1.4482
  486MOL0     H65544   2.382   4.579   4.420 -1.8194  2.1958 -0.9145
  486MOL0     H65545   2.317   4.647   4.654 -1.1774 -0.7422  1.5115
  486MOL0     H65546   2.315   4.769   4.526  0.3159  1.3902  1.0799
  486MOL0     H65547   2.128   4.884   4.656  1.9072  0.5426 -0.0421
  486MOL0     H65548   2.139   4.735   4.766  4.4568 -1.5314  2.4041
  486MOL0     H65549   2.250   4.876   4.889 -1.4229 -0.9185 -0.0721
  486MOL0     H65550   2.375   4.792   4.807  0.4146  0.5579 -2.6167
  486MOL0     H65551   2.434   4.966   4.656  1.4701  2.3002  1.0399
  486MOL0     H65552   2.275   5.047   4.687 -0.9374 -1.9279  0.0972
  486MOL0     H65553   2.484   5.162   4.765 -1.2330  0.6654  0.6748
  486MOL0     H65554   2.351   5.157   4.873 -4.1775 -1.7453 -1.5398
  486MOL0     H65555   2.428   4.992   5.007 -0.5975 -0.8069 -1.2944
  486MOL0     H65556   2.538   4.935   4.887 -1.5547 -0.3674 -0.6526
  486MOL0     H65557   2.693   5.138   4.912 -0.1403  2.5717  2.4153
  486MOL0     H65558   2.581   5.217   5.012 -1.0914 -0.5219 -0.2990
  486MOL0     H65559   2.751   4.981   5.072  1.4445  0.3692  1.2584
  486MOL0     H65560   2.600   4.996   5.162  1.7997 -0.7783 -0.2851
  486MOL0     H65561   2.951   5.124   5.074 -1.2725  0.3152 -0.6250
  486MOL0     H65562   3.122   5.303   5.190  0.9728 -0.4384  0.5753
  486MOL0     H65563   3.092   5.319   5.364  0.0899 -0.2287  0.0205
  486MOL0     H65564   3.129   5.049   5.236  0.4551  0.6960 -0.5610
  486MOL0     H65565   3.135   5.096   5.414  1.9802  0.5549 -0.5350
  486MOL0     H65566   3.345   5.141   5.206  0.2427 -2.4631 -0.6167
  486MOL0     H65567   3.352   5.050   5.355  0.3608  0.5104 -1.2390
  486MOL0     H65568   3.479   5.213   5.395 -0.6184 -0.2633 -0.4621
  486MOL0     H65569   3.346   5.232   5.491 -1.7724 -0.7216 -1.9160
  486MOL0     H65570   3.507   5.483   5.163 -0.4074  0.5464 -0.6658
  486MOL0     H65571   3.704   5.593   5.087 -1.9335 -5.0210  0.6240
  486MOL0     H65572   3.801   5.707   5.180  1.0711  0.7397  1.7040
  486MOL0     H65573   3.837   5.533   5.177 -0.4485  0.2489  1.8576
  486MOL0     H65574   4.163   5.650   5.432 -2.0075 -1.2434  1.0454
  486MOL0     H65575   4.355   5.776   5.564  1.8462  1.0942  0.4257
  486MOL0     H65576   4.289   5.871   5.844  3.0035 -3.4776  0.4369
  486MOL0     H65577   4.457   5.887   5.797 -1.1163 -1.5752 -0.1012
  486MOL0     H65578   4.458   6.134   5.859  0.7086 -0.2355  1.8839
  486MOL0     H65579   4.295   6.119   5.901  0.1510  0.5096 -2.0625
  486MOL0     H65580   4.491   5.926   6.037 -3.2425 -1.7739  0.0796
  486MOL0     H65581   4.348   5.979   6.102 -0.2252 -2.4916 -1.4553
  486MOL0     H65582   4.581   6.180   6.066 -1.3193  3.7849  0.2706
  486MOL0     H65583   4.423   6.223   6.129 -1.4254 -1.0311 -0.8972
  486MOL0     H65584   4.599   6.203   6.290  0.7080 -0.5847  0.1133
  486MOL0     H65585   4.595   6.024   6.263 -1.3598 -1.1938 -4.2289
  486MOL0     H65586   4.349   6.178   6.320  1.4006  0.4584 -2.6200
  486MOL0     H65587   4.372   6.001   6.340 -0.2197  0.0561 -2.2787
  486MOL0     H65588   4.512   6.210   6.506  1.1418 -0.4986 -1.2335
  486MOL0     H65589   4.526   6.027   6.520 -0.0667 -0.8547  0.1574
  486MOL0     H65590   4.358   6.101   6.694  0.1823 -0.1947 -1.2978
  486MOL0     H65591   4.307   5.995   6.575  1.5382 -0.3175 -0.1094
  486MOL0     H65592   4.065   6.091   5.643  0.2675  0.1522  0.0073
  486MOL0     H65593   3.903   5.982   5.524  1.4219  0.9836 -0.9371
  486MOL0     H65594   3.620   5.623   5.620  1.3113  2.4483 -1.3645
  486MOL0     H65595   3.419   5.473   5.577 -0.3156 -1.0370 -0.3928
  486MOL0     H65596   1.950   4.562   4.390  0.7830  0.6126  1.2439
  486MOL0     H65597   1.967   4.398   4.213  0.8573 -0.5664 -0.3174
  486MOL0     H65598   2.119   4.300   3.704 -0.0243 -0.7105 -0.6780
  486MOL0     H65599   2.255   4.207   3.550 -1.7648  0.8334  1.1900
  486MOL0     H65600   2.407   4.259   3.395 -0.2022  4.0496  0.2096
  486MOL0     H65601   2.566   4.343   3.411 -1.3001  1.3635 -1.5431
  486MOL0     H65602   2.674   4.110   3.372 -0.7907 -2.6231  0.2919
  486MOL0     H65603   2.612   4.202   3.229  1.4889 -0.0399 -0.6098
  486MOL0     H65604   2.546   3.987   3.219  1.5458  2.8626 -0.5872
  486MOL0     H65605   2.389   4.054   3.261 -1.3399  1.3958  2.1245
  486MOL0     H65606   2.406   3.964   3.499  1.6224  1.2382  1.2114
  486MOL0     H65607   2.577   3.943   3.491  0.1063 -1.3265 -0.0025
  486MOL0     H65608   2.448   3.568   3.362 -1.0290 -0.1007  3.3862
  486MOL0     H65609   2.590   4.267   3.803  0.9176 -1.8358 -1.4717
  486MOL0     H65610   2.438   4.325   3.982  2.6840  0.2020 -1.8606
  487MOL0     O65611   2.923  10.134   3.267  0.4927  0.4376 -1.0473
  487MOL0     C65612   2.889  10.044   3.349  0.9716 -0.0407 -1.0374
  487MOL0     O65613   2.895  10.059   3.492 -0.7677  0.1673  0.1401
  487MOL0     C65614   2.971  10.164   3.527  0.0189 -0.7660  0.3310
  487MOL0     C65615   3.111  10.159   3.525 -0.4217 -0.3058  0.2328
  487MOL0     C65616   3.176  10.285   3.534  0.2906 -0.0560 -0.2544
  487MOL0     C65617   3.106  10.407   3.550 -0.4836 -0.0910 -0.9380
  487MOL0     O65618   3.174  10.526   3.581 -0.1772  0.0815 -0.8216
  487MOL0     C65619   3.287  10.525   3.676 -0.0622  0.6963 -0.6708
  487MOL0     C65620   3.330  10.653   3.737 -0.2144 -1.2369 -0.0256
  487MOL0     C65621   3.464  10.646   3.804 -0.3067 -0.1501  0.2933
  487MOL0     C65622   3.457  10.590   3.948 -0.1758 -0.2469 -0.5700
  487MOL0     C65623   3.584  10.599   4.039 -0.0963 -0.0825  0.3251
  487MOL0     C65624   3.699  10.534   3.970  0.2638  0.5702 -0.2375
  487MOL0     C65625   3.814  10.513   4.071 -0.0345  0.5417 -0.3098
  487MOL0     C65626   3.914  10.624   4.077  0.2734 -0.1626  0.2796
  487MOL0     N65627   4.031  10.609   4.163 -0.2924  0.7105  0.2142
  487MOL0     C65628   4.023  10.612   4.298  0.1425 -0.3178 -1.0567
  487MOL0     C65629   4.145  10.589   4.344 -1.1243  0.7672  0.0874
  487MOL0     C65630   4.188  10.591   4.490 -0.8181 -0.1838  0.6558
  487MOL0     C65631   4.236  10.445   4.531 -0.0966  0.8757 -0.7130
  487MOL0     C65632   4.255  10.435   4.681 -1.6989  0.1438  0.3213
  487MOL0     C65633   4.298  10.298   4.724  0.8997  0.0921  0.2861
  487MOL0     O65634   4.279  10.278   4.860  0.0183 -0.5081  0.4264
  487MOL0     C65635   4.386  10.231   4.926  0.2950  0.3939  0.6478
  487MOL0     C65636   4.445  10.287   5.030  0.9379  0.2316  0.0372
  487MOL0     C65637   4.542  10.229   5.108 -0.3290  0.3628 -0.0272
  487MOL0     C65638   4.577  10.317   5.227 -2.0302  0.4416 -0.3592
  487MOL0     C65639   4.582  10.099   5.093  0.3581  0.3643  0.3119
  487MOL0     C65640   4.677  10.018   5.175  0.4727 -0.2455  0.9121
  487MOL0     O65641   4.718   9.892   5.118  0.0366 -0.3644  0.2385
  487MOL0     C65642   4.804   9.808   5.186 -1.1453 -0.4595 -0.5403
  487MOL0     C65643   4.766   9.729   5.298 -0.6994  0.1707 -0.8871
  487MOL0     C65644   4.862   9.636   5.352  0.5621 -0.8602  0.2081
  487MOL0     C65645   4.981   9.617   5.289 -0.1993  0.8823  0.2021
  487MOL0     O65646   5.084   9.544   5.333 -0.4143  0.2414 -0.4953
  487MOL0     C65647   5.084   9.457   5.449  0.6290 -1.3403  0.0931
  487MOL0     C65648   5.151   9.321   5.421 -0.4840  0.3296  0.2941
  487MOL0     C65649   5.069   9.208   5.363  0.1960  0.0828  1.2139
  487MOL0     C65650   4.980   9.147   5.464 -0.0059 -0.6012  0.1734
  487MOL0     C65651   4.903   9.036   5.399 -0.3594 -0.7551 -0.2025
  487MOL0     C65652   4.982   8.896   5.412  0.0118 -0.3165 -0.3741
  487MOL0     C65653   4.906   8.801   5.322  0.1831  0.1791  0.4514
  487MOL0     C65654   4.960   8.659   5.333  0.4802 -0.4927  0.0191
  487MOL0    Cl65655   4.836   8.537   5.266  0.3399 -0.2371 -0.2011
  487MOL0     C65656   5.010   9.684   5.172  0.3238 -0.1382 -0.1119
  487MOL0     C65657   4.928   9.784   5.126 -0.8897  0.7579 -0.2928
  487MOL0     O65658   4.724  10.071   5.276 -0.4048 -0.1839  0.0285
  487MOL0     C65659   4.513  10.037   4.983  0.5199  0.0631  0.7887
  487MOL0     C65660   4.414  10.096   4.897 -0.1700 -0.3206 -1.5576
  487MOL0     N65661   4.229  10.562   4.227  0.2717  0.0609 -0.2881
  487MOL0     N65662   4.156  10.583   4.125  0.2997 -0.0953  0.1832
  487MOL0     C65663   2.971  10.405   3.549  0.6489  0.8153 -0.1047
  487MOL0     C65664   2.902  10.282   3.541  0.1064  0.9277 -0.5912
  487MOL0     C65665   2.864   9.902   3.295  0.3667 -0.5440 -0.0777
  487MOL0     C65666   2.835   9.797   3.381  0.4430  0.2880  0.1746
  487MOL0     C65667   2.803   9.668   3.336  0.2378  0.1296 -0.3220
  487MOL0     C65668   2.808   9.632   3.200 -0.1942 -1.1014  0.0605
  487MOL0     O65669   2.762   9.517   3.143  0.7618  0.2042 -0.1245
  487MOL0     C65670   2.712   9.401   3.221 -0.1112 -0.9119  0.7131
  487MOL0     C65671   2.788   9.276   3.178  1.5891 -0.1123  0.3410
  487MOL0     C65672   2.728   9.161   3.253  0.3584  1.4098  0.2220
  487MOL0     C65673   2.797   9.021   3.207  0.8785  0.1885  1.0583
  487MOL0     C65674   2.777   8.996   3.071 -0.1795 -0.1728 -0.1495
  487MOL0     C65675   2.774   8.984   2.950 -0.5742 -0.1847 -0.1677
  487MOL0     C65676   2.847   9.737   3.111 -0.9095  0.2387  0.0911
  487MOL0     C65677   2.879   9.866   3.160  0.0194  0.3593 -0.9142
  487MOL0     H65678   3.160  10.063   3.507  0.0699  0.5934 -4.5983
  487MOL0     H65679   3.284  10.293   3.529  0.5973 -2.3800  1.0953
  487MOL0     H65680   3.280  10.441   3.745 -0.2143 -0.4161 -2.0131
  487MOL0     H65681   3.368  10.499   3.608 -0.0257  0.9616 -0.7308
  487MOL0     H65682   3.340  10.732   3.663  1.0392 -2.3244 -1.0455
  487MOL0     H65683   3.247  10.684   3.802 -0.6422 -0.4081 -0.9587
  487MOL0     H65684   3.520  10.575   3.741  1.7265  2.4414 -1.0130
  487MOL0     H65685   3.521  10.739   3.804 -0.7577  0.1460  1.9055
  487MOL0     H65686   3.371  10.643   3.992  1.3595 -0.0171  2.4080
  487MOL0     H65687   3.441  10.482   3.942  0.1959 -0.3320 -0.0272
  487MOL0     H65688   3.608  10.704   4.059 -2.2518  0.0751  2.6157
  487MOL0     H65689   3.554  10.548   4.131 -1.0612  1.8517  1.1391
  487MOL0     H65690   3.662  10.437   3.934  1.3164  0.1684 -0.2955
  487MOL0     H65691   3.727  10.588   3.878  0.1230 -1.4508 -1.5447
  487MOL0     H65692   3.782  10.480   4.171  1.1399 -0.2753 -0.1750
  487MOL0     H65693   3.869  10.426   4.033 -2.4356 -0.5300 -1.5130
  487MOL0     H65694   3.852  10.706   4.115 -0.2505 -0.5666  0.3135
  487MOL0     H65695   3.958  10.652   3.981  0.2961  0.7767  0.5555
  487MOL0     H65696   3.936  10.640   4.356 -1.7456 -1.5699 -3.0807
  487MOL0     H65697   4.271  10.662   4.491  0.0736 -0.9626 -2.7085
  487MOL0     H65698   4.111  10.628   4.558 -0.6730  3.3348 -0.8806
  487MOL0     H65699   4.329  10.424   4.477  2.3719  0.4955  3.3053
  487MOL0     H65700   4.159  10.376   4.497  0.7938  0.2185 -1.4657
  487MOL0     H65701   4.160  10.458   4.730 -0.8294  2.6096  0.9882
  487MOL0     H65702   4.334  10.503   4.714  3.7090 -2.7498 -4.7304
  487MOL0     H65703   4.398  10.273   4.687 -0.0682 -0.9468 -1.7971
  487MOL0     H65704   4.222  10.232   4.683  0.8769  0.7960 -0.8699
  487MOL0     H65705   4.412  10.385   5.063  2.6977  0.2117  2.1251
  487MOL0     H65706   4.682  10.347   5.219 -0.5220 -3.5404  1.7779
  487MOL0     H65707   4.515  10.406   5.243 -1.0222  1.0344  0.3755
  487MOL0     H65708   4.572  10.268   5.325 -2.7093  0.7497 -0.2383
  487MOL0     H65709   4.670   9.747   5.344 -1.1663  1.6733 -2.3579
  487MOL0     H65710   4.840   9.596   5.451 -2.6294  1.9286  0.8026
  487MOL0     H65711   5.124   9.507   5.538 -1.6515 -1.8828  1.5074
  487MOL0     H65712   4.983   9.434   5.483 -0.0735  1.9721  0.5918
  487MOL0     H65713   5.228   9.350   5.348 -0.1821 -1.0261  0.0415
  487MOL0     H65714   5.196   9.283   5.513  1.4348  0.6686 -0.4351
  487MOL0     H65715   5.137   9.140   5.310  0.7037  0.6397  1.1497
  487MOL0     H65716   4.995   9.240   5.289  0.0576  2.5176  2.3411
  487MOL0     H65717   5.040   9.100   5.543  1.0378  0.6247  0.1395
  487MOL0     H65718   4.907   9.221   5.498 -0.0870  0.7624 -2.7248
  487MOL0     H65719   4.884   9.047   5.291 -0.6724  0.1183 -0.0604
  487MOL0     H65720   4.809   9.018   5.452 -0.4685 -4.0583 -1.2865
  487MOL0     H65721   5.081   8.916   5.372 -0.3721  0.7797 -0.8146
  487MOL0     H65722   4.978   8.860   5.515  0.4393 -0.3949 -0.3853
  487MOL0     H65723   4.894   8.841   5.221 -0.3075  0.6293  0.6829
  487MOL0     H65724   4.802   8.801   5.356  0.3553 -0.7837  1.0370
  487MOL0     H65725   4.984   8.625   5.434 -0.4187  3.5747  1.7870
  487MOL0     H65726   5.056   8.659   5.279  0.2231  0.0291 -0.4514
  487MOL0     H65727   5.095   9.652   5.112  0.5424 -1.4060  0.8193
  487MOL0     H65728   4.964   9.843   5.042 -0.1556  0.7829  0.0359
  487MOL0     H65729   4.543   9.935   4.962 -0.7469 -0.2806  0.5402
  487MOL0     H65730   4.365  10.036   4.821 -0.6321 -1.3814 -0.4516
  487MOL0     H65731   2.915  10.494   3.574 -0.8337  0.0355 -0.5551
  487MOL0     H65732   2.794  10.292   3.539 -0.3064 -0.0382  4.3642
  487MOL0     H65733   2.827   9.814   3.488  1.3851  0.9406  0.1509
  487MOL0     H65734   2.771   9.610   3.422  0.3230  0.0353 -0.3543
  487MOL0     H65735   2.730   9.429   3.325 -2.0091 -0.4108  0.9408
  487MOL0     H65736   2.605   9.382   3.208  0.1300 -0.9121 -1.7197
  487MOL0     H65737   2.897   9.286   3.188  1.4818  0.0604  1.4566
  487MOL0     H65738   2.760   9.264   3.073 -0.3690 -0.4286  0.8608
  487MOL0     H65739   2.619   9.159   3.248  0.3942  1.0975 -0.9383
  487MOL0     H65740   2.745   9.170   3.360  0.6078  0.2569  0.2892
  487MOL0     H65741   2.768   8.927   3.255 -1.6146 -0.8912 -2.1726
  487MOL0     H65742   2.905   9.031   3.215  0.7436  0.8042  2.4479
  487MOL0     H65743   2.785   8.972   2.844  1.2342 -0.3684  0.0029
  487MOL0     H65744   2.863   9.715   3.006 -0.3134 -0.6777  0.3630
  487MOL0     H65745   2.906   9.930   3.076  2.2194 -0.0426 -0.5654
  488MOL0     O65746   9.914   1.755   1.333 -0.6417 -0.7246 -0.7726
  488MOL0     C65747   9.981   1.742   1.436 -0.8024 -0.1256  0.5399
  488MOL0     O65748   9.927   1.719   1.560  0.6369 -0.4238  0.5897
  488MOL0     C65749   9.797   1.732   1.582  0.4305 -0.2962  0.5259
  488MOL0     C65750   9.700   1.667   1.506 -0.3473 -0.5258 -0.0889
  488MOL0     C65751   9.569   1.682   1.549 -0.0177  0.4549  0.2413
  488MOL0     C65752   9.530   1.776   1.639  0.0599  0.3062  0.9810
  488MOL0     O65753   9.398   1.807   1.663 -0.6800  0.3306 -0.3090
  488MOL0     C65754   9.299   1.715   1.611 -0.6566 -0.4917  0.1471
  488MOL0     C65755   9.165   1.741   1.664  0.0987  0.0694  0.4584
  488MOL0     C65756   9.047   1.641   1.600 -0.4360 -0.3329  1.0070
  488MOL0     C65757   8.939   1.624   1.707  0.3401 -0.2009 -0.3310
  488MOL0     C65758   8.815   1.537   1.661  0.4124  0.3884  1.5032
  488MOL0     C65759   8.723   1.604   1.559 -0.4249  0.0964 -0.0507
  488MOL0     C65760   8.677   1.747   1.592 -0.9738  0.6833 -0.1105
  488MOL0     C65761   8.613   1.762   1.727  0.0640  0.1777 -0.7875
  488MOL0     N65762   8.575   1.901   1.751  0.0554 -0.0745  0.6097
  488MOL0     C65763   8.667   1.990   1.771  0.1467 -0.1670 -0.7301
  488MOL0     C65764   8.606   2.078   1.856 -0.0754  0.4413  0.8642
  488MOL0     C65765   8.666   2.195   1.927  1.0921  0.6801 -0.3776
  488MOL0     C65766   8.704   2.172   2.076 -0.0778  0.5867  0.6235
  488MOL0     C65767   8.597   2.210   2.178 -0.0646  0.4475  0.7159
  488MOL0     C65768   8.456   2.155   2.155 -0.6098 -0.1874 -0.0170
  488MOL0     O65769   8.365   2.183   2.260 -0.0334  0.7445  0.4410
  488MOL0     C65770   8.232   2.143   2.233 -1.0296  0.5775 -0.9610
  488MOL0     C65771   8.174   2.110   2.112 -1.3073  0.4621  0.0938
  488MOL0     C65772   8.044   2.060   2.096  0.0283 -0.3857 -0.2023
  488MOL0     C65773   7.984   2.034   1.960  0.0382  0.1000 -0.2869
  488MOL0     C65774   7.959   2.059   2.210 -0.5113  0.7587 -0.3766
  488MOL0     C65775   7.814   2.020   2.208  0.5317 -0.9818  1.0333
  488MOL0     O65776   7.733   2.111   2.266 -1.1614 -0.4330 -0.0069
  488MOL0     C65777   7.600   2.085   2.285  0.6484 -0.0257  0.6633
  488MOL0     C65778   7.544   1.952   2.305 -0.5222  0.2698  0.1347
  488MOL0     C65779   7.401   1.938   2.336  0.4164  0.2450 -0.0886
  488MOL0     C65780   7.322   2.049   2.345  0.3562 -0.8397 -0.0898
  488MOL0     O65781   7.194   2.040   2.392 -0.5250 -0.1679 -0.4139
  488MOL0     C65782   7.132   2.139   2.476 -0.2976  0.0155 -0.3179
  488MOL0     C65783   6.998   2.070   2.507 -0.8861 -0.2355 -0.2958
  488MOL0     C65784   6.942   2.120   2.641  0.5028  0.3089  0.0573
  488MOL0     C65785   6.798   2.055   2.665 -0.0954 -0.2496 -0.5230
  488MOL0     C65786   6.740   2.104   2.801 -0.1037  0.0406  0.3274
  488MOL0     C65787   6.829   2.086   2.924  0.1424  0.0631  1.0015
  488MOL0     C65788   6.758   2.131   3.058  0.2812  0.8865  0.3481
  488MOL0     C65789   6.705   2.276   3.044 -0.0110  0.6591 -0.1696
  488MOL0    Cl65790   6.642   2.324   3.200  0.6427 -0.1535 -0.1285
  488MOL0     C65791   7.377   2.182   2.328 -0.4749  0.1794 -0.1116
  488MOL0     C65792   7.513   2.198   2.313  0.8839  0.5843  0.8913
  488MOL0     O65793   7.780   1.924   2.141  0.1269 -0.0445  0.1843
  488MOL0     C65794   8.021   2.098   2.331 -0.7145 -0.7691 -0.0741
  488MOL0     C65795   8.157   2.133   2.346  0.1136 -0.4477 -0.5736
  488MOL0     N65796   8.467   2.061   1.838 -0.6673  0.2716 -0.5920
  488MOL0     N65797   8.449   1.952   1.777  0.1822 -0.2088 -0.2505
  488MOL0     C65798   9.630   1.852   1.700  0.6282 -0.2628 -1.0250
  488MOL0     C65799   9.765   1.825   1.685 -0.6210  0.1741  0.7137
  488MOL0     C65800  10.128   1.754   1.430 -0.8133 -0.3367 -0.6915
  488MOL0     C65801  10.173   1.788   1.298 -0.6120 -0.4374 -0.2573
  488MOL0     C65802  10.308   1.789   1.267 -0.3615  0.0897  0.3939
  488MOL0     C65803  10.399   1.768   1.370 -0.3188 -0.5529 -0.3636
  488MOL0     O65804  10.533   1.786   1.358 -0.2749  0.1506  0.6628
  488MOL0     C65805  10.613   1.704   1.279  0.5655 -0.1410 -0.4380
  488MOL0     C65806  10.749   1.755   1.290 -0.0867  0.8835  0.0335
  488MOL0     C65807  10.816   1.711   1.159 -0.5724  0.6270 -0.3292
  488MOL0     C65808  10.975   1.723   1.190  0.5129  0.7314 -0.1336
  488MOL0     C65809  11.052   1.740   1.062  0.7372 -0.6789  0.0449
  488MOL0     C65810  11.114   1.739   0.959  0.8753 -0.3798  0.4170
  488MOL0     C65811  10.354   1.740   1.503  0.7621  0.1422  0.2338
  488MOL0     C65812  10.218   1.727   1.535 -0.0157 -0.0697 -0.1131
  488MOL0     H65813   9.739   1.602   1.428  1.3155  1.1262 -0.6862
  488MOL0     H65814   9.501   1.615   1.497  0.9733  0.4093 -1.0630
  488MOL0     H65815   9.294   1.733   1.503  1.3903 -0.5206 -0.0014
  488MOL0     H65816   9.337   1.616   1.635  2.4152  0.6318  0.4328
  488MOL0     H65817   9.162   1.736   1.773  4.4677 -2.8453  0.6895
  488MOL0     H65818   9.145   1.846   1.643  3.0133  0.4014 -1.0674
  488MOL0     H65819   9.003   1.691   1.513 -0.0029  0.1414  1.0532
  488MOL0     H65820   9.096   1.548   1.571  1.3927  1.6990 -3.4242
  488MOL0     H65821   8.991   1.580   1.793 -1.0576 -0.6769  0.2981
  488MOL0     H65822   8.902   1.719   1.745  2.6260  0.9524 -0.8228
  488MOL0     H65823   8.848   1.440   1.625 -0.5757  1.2416 -2.1058
  488MOL0     H65824   8.750   1.516   1.747 -1.2102 -0.0645  0.2154
  488MOL0     H65825   8.778   1.617   1.466 -2.2620  0.9614 -1.0607
  488MOL0     H65826   8.634   1.544   1.538 -0.9028  0.5692  0.5811
  488MOL0     H65827   8.762   1.815   1.581  0.6534 -1.4213 -1.5502
  488MOL0     H65828   8.603   1.778   1.519 -0.2965  1.9124 -0.3002
  488MOL0     H65829   8.689   1.740   1.803 -0.5910  2.4600  0.6180
  488MOL0     H65830   8.515   1.716   1.742 -1.0951  2.2554 -1.6355
  488MOL0     H65831   8.775   1.985   1.760  0.1842 -1.3873  0.0309
  488MOL0     H65832   8.761   2.220   1.879  1.0358 -0.4348 -1.1069
  488MOL0     H65833   8.608   2.284   1.901 -1.2523 -0.9954 -1.1843
  488MOL0     H65834   8.797   2.225   2.099  1.2711 -1.1223 -0.6609
  488MOL0     H65835   8.721   2.065   2.089  1.6698  0.4428 -2.0106
  488MOL0     H65836   8.593   2.319   2.187  1.2979  0.6434 -0.6483
  488MOL0     H65837   8.630   2.171   2.275 -0.0998  1.8929  1.3290
  488MOL0     H65838   8.465   2.047   2.142  0.8894 -0.0592 -0.1645
  488MOL0     H65839   8.428   2.208   2.063 -0.2814  1.3898  0.7463
  488MOL0     H65840   8.237   2.118   2.025 -1.9677 -0.6928 -0.5175
  488MOL0     H65841   8.048   2.073   1.881  0.0183 -0.0044 -0.3553
  488MOL0     H65842   7.972   1.926   1.947  1.2647  0.0120 -0.8329
  488MOL0     H65843   7.887   2.084   1.958  0.4480  0.8927 -2.6212
  488MOL0     H65844   7.612   1.870   2.287 -1.2911 -0.4009  0.2029
  488MOL0     H65845   7.352   1.844   2.362  2.8819 -0.4937  2.3154
  488MOL0     H65846   7.184   2.154   2.571  1.1851 -0.7948 -0.9699
  488MOL0     H65847   7.120   2.235   2.424 -4.4056  0.0126  0.3415
  488MOL0     H65848   6.936   2.082   2.417 -0.7006  2.2216 -0.1586
  488MOL0     H65849   7.014   1.962   2.512 -2.0219 -0.5588 -2.3486
  488MOL0     H65850   6.930   2.228   2.630 -0.5075  0.1093 -1.0153
  488MOL0     H65851   7.007   2.093   2.725  0.2231  1.7382  0.7480
  488MOL0     H65852   6.733   2.074   2.579 -0.2694 -0.2591 -0.3945
  488MOL0     H65853   6.806   1.946   2.670 -1.1173 -0.4169 -1.9901
  488MOL0     H65854   6.648   2.047   2.820 -1.2443  1.2015 -1.4469
  488MOL0     H65855   6.712   2.210   2.802 -1.6890 -0.3460  0.1243
  488MOL0     H65856   6.873   1.986   2.929  2.5474  1.0242  0.2008
  488MOL0     H65857   6.914   2.151   2.902 -0.5251  0.7870  0.4968
  488MOL0     H65858   6.836   2.127   3.135 -1.5562 -1.2224  2.2281
  488MOL0     H65859   6.673   2.066   3.082  2.0393 -2.3053 -1.3710
  488MOL0     H65860   6.626   2.289   2.970 -0.1610 -0.3329 -0.1908
  488MOL0     H65861   6.792   2.338   3.019  2.6186 -1.3306  3.0979
  488MOL0     H65862   7.308   2.266   2.328  2.2290  2.5502 -0.6020
  488MOL0     H65863   7.553   2.298   2.318  1.4588  0.5704 -1.9899
  488MOL0     H65864   7.952   2.119   2.412  0.5802  1.9605  0.4604
  488MOL0     H65865   8.198   2.163   2.442 -2.0892  0.5881  0.0898
  488MOL0     H65866   9.593   1.940   1.753 -4.1727 -2.0436 -0.8774
  488MOL0     H65867   9.841   1.889   1.728  0.7845  0.8222 -2.4768
  488MOL0     H65868  10.108   1.801   1.212 -0.2514  1.1059 -0.3157
  488MOL0     H65869  10.337   1.823   1.169 -1.8823  0.2282 -0.0321
  488MOL0     H65870  10.609   1.598   1.306 -0.2953  0.6697  3.0802
  488MOL0     H65871  10.579   1.722   1.176  1.0001  0.4381 -0.4849
  488MOL0     H65872  10.804   1.717   1.377  1.8991 -0.5295 -1.7392
  488MOL0     H65873  10.752   1.864   1.297  0.0656  0.7987  2.0404
  488MOL0     H65874  10.793   1.781   1.079  0.1702  0.8031 -0.3937
  488MOL0     H65875  10.788   1.610   1.126 -1.2368  0.3572  0.9804
  488MOL0     H65876  10.996   1.624   1.232 -4.2571 -1.1064 -1.4730
  488MOL0     H65877  10.993   1.806   1.259  0.0902 -0.7680  1.8842
  488MOL0     H65878  11.157   1.722   0.862 -1.7187 -0.1213 -0.8623
  488MOL0     H65879  10.434   1.730   1.576  2.1449  0.1142 -1.2439
  488MOL0     H65880  10.184   1.699   1.634  0.5735 -0.9221 -0.1437
  489MOL0     O65881   7.532   0.681   9.499 -0.4530 -0.0497  0.0517
  489MOL0     C65882   7.428   0.746   9.518  0.0506 -0.1111 -0.4265
  489MOL0     O65883   7.383   0.849   9.438 -0.1518  0.3993 -0.1351
  489MOL0     C65884   7.436   0.884   9.315  0.4309  0.1478  0.0163
  489MOL0     C65885   7.465   1.019   9.305 -0.4859  0.3158  0.6398
  489MOL0     C65886   7.509   1.067   9.179  0.7894 -0.7908 -0.4600
  489MOL0     C65887   7.522   0.980   9.073  0.7637 -0.5820  0.1948
  489MOL0     O65888   7.565   1.028   8.945  0.0352 -0.6871  0.0184
  489MOL0     C65889   7.539   0.960   8.826  0.1360  0.4436 -0.3277
  489MOL0     C65890   7.578   1.028   8.704 -0.6299 -0.5874  0.1648
  489MOL0     C65891   7.524   0.960   8.577 -0.3623 -1.1169 -0.6692
  489MOL0     C65892   7.597   0.998   8.447  0.0570 -0.2891  0.0468
  489MOL0     C65893   7.579   1.150   8.415 -1.1778 -0.0269 -0.3193
  489MOL0     C65894   7.636   1.191   8.278  0.1788 -0.5413 -0.3225
  489MOL0     C65895   7.786   1.172   8.284  1.0714 -0.4770  0.3074
  489MOL0     C65896   7.851   1.202   8.151  0.8233 -0.3250  0.0203
  489MOL0     N65897   7.999   1.192   8.158 -0.3585  0.8463  0.7970
  489MOL0     C65898   8.079   1.286   8.207 -0.5793 -0.7525 -0.3299
  489MOL0     C65899   8.198   1.239   8.186 -0.0907 -0.1042  0.0229
  489MOL0     C65900   8.328   1.308   8.221  0.8521 -0.1400 -0.5293
  489MOL0     C65901   8.349   1.424   8.114 -0.3609  1.1599 -0.8307
  489MOL0     C65902   8.499   1.456   8.082  0.0272  0.8060 -0.3237
  489MOL0     C65903   8.509   1.566   7.978  0.0656 -0.2435 -1.1341
  489MOL0     O65904   8.645   1.585   7.928 -0.3016  0.3218 -0.3365
  489MOL0     C65905   8.692   1.708   7.872 -0.1626  0.9188 -0.0557
  489MOL0     C65906   8.616   1.823   7.885  0.0449 -0.8810 -1.0717
  489MOL0     C65907   8.644   1.947   7.823  0.0708  0.3888 -0.7856
  489MOL0     C65908   8.573   2.071   7.860  0.4114 -0.2002 -0.1552
  489MOL0     C65909   8.755   1.956   7.732  0.1860  0.1765 -0.0545
  489MOL0     C65910   8.793   2.081   7.656  0.2214 -1.1532 -0.1310
  489MOL0     O65911   8.868   2.051   7.539  0.8354  0.0755 -0.5147
  489MOL0     C65912   8.968   2.133   7.503 -0.0716 -1.1754 -0.3822
  489MOL0     C65913   8.944   2.264   7.460  0.6734  0.4097  0.5882
  489MOL0     C65914   9.047   2.352   7.423  0.0677  0.3470  0.3999
  489MOL0     C65915   9.177   2.309   7.428 -0.3252 -0.7445 -0.3117
  489MOL0     O65916   9.271   2.395   7.368 -0.0020 -0.2160  0.1154
  489MOL0     C65917   9.410   2.361   7.365  0.0376  0.5917 -0.5977
  489MOL0     C65918   9.487   2.476   7.303 -0.4867  0.3176 -0.3616
  489MOL0     C65919   9.507   2.482   7.151  0.4552 -1.1000 -0.1934
  489MOL0     C65920   9.627   2.408   7.091 -0.1218  0.3420  0.0453
  489MOL0     C65921   9.626   2.409   6.935 -0.4270  0.5362  0.0151
  489MOL0     C65922   9.745   2.331   6.877 -0.9615 -0.3741 -0.4028
  489MOL0     C65923   9.744   2.333   6.725 -0.5789 -0.0978 -0.4683
  489MOL0     C65924   9.873   2.281   6.657  0.8110  0.2838 -0.0330
  489MOL0    Cl65925   9.883   2.093   6.677  0.0117  0.0100 -0.0771
  489MOL0     C65926   9.208   2.170   7.469 -0.2341  0.2483  0.1781
  489MOL0     C65927   9.098   2.091   7.502  0.0469  0.1172  0.0610
  489MOL0     O65928   8.785   2.186   7.714 -0.1900  0.1378 -0.7167
  489MOL0     C65929   8.836   1.836   7.722 -0.0354  0.0524  0.2849
  489MOL0     C65930   8.807   1.713   7.785 -0.0970 -0.4126 -0.3885
  489MOL0     N65931   8.189   1.119   8.133 -0.4501  0.5047  0.3663
  489MOL0     N65932   8.068   1.088   8.112  0.4040  0.8703  0.1594
  489MOL0     C65933   7.491   0.841   9.091  0.6486 -0.3996 -0.5662
  489MOL0     C65934   7.452   0.794   9.214  0.4330  0.8229  0.8935
  489MOL0     C65935   7.353   0.714   9.637 -1.0940 -0.4013 -0.5076
  489MOL0     C65936   7.215   0.727   9.638  0.8855 -0.6209 -0.4454
  489MOL0     C65937   7.137   0.687   9.754  0.3170  0.1028  0.8970
  489MOL0     C65938   7.203   0.640   9.868  0.6604  0.1258  0.0306
  489MOL0     O65939   7.120   0.612   9.974 -0.3516  0.2336  0.2237
  489MOL0     C65940   7.122   0.480  10.024 -0.0285  0.7150 -0.1198
  489MOL0     C65941   7.072   0.491  10.169 -0.2090 -0.2331 -0.0061
  489MOL0     C65942   7.047   0.345  10.225  0.1776 -0.4214  0.6558
  489MOL0     C65943   6.901   0.287  10.203  0.6128  0.1956  0.4124
  489MOL0     C65944   6.896   0.189  10.093 -0.7511 -0.2368 -0.3371
  489MOL0     C65945   6.898   0.112   9.999  0.3425  0.3854  0.0212
  489MOL0     C65946   7.340   0.620   9.852  0.1891  0.2770  0.0842
  489MOL0     C65947   7.417   0.663   9.750 -0.5900  0.5233  0.6884
  489MOL0     H65948   7.455   1.083   9.392 -0.5711  0.4731  0.5149
  489MOL0     H65949   7.543   1.170   9.176 -0.9030 -0.1477  0.7304
  489MOL0     H65950   7.579   0.858   8.830  1.7366  1.0482 -0.4240
  489MOL0     H65951   7.431   0.939   8.828  0.6126 -2.7144  3.3350
  489MOL0     H65952   7.538   1.130   8.702 -2.6364 -1.2591  2.1295
  489MOL0     H65953   7.687   1.016   8.697 -0.8248 -1.8491 -1.0406
  489MOL0     H65954   7.530   0.851   8.584 -0.0320 -1.0210  0.8991
  489MOL0     H65955   7.418   0.984   8.569 -0.5958 -1.5687  0.8437
  489MOL0     H65956   7.703   0.976   8.463  0.4087  0.4975 -1.1035
  489MOL0     H65957   7.566   0.938   8.360 -2.2095 -0.5936  0.9997
  489MOL0     H65958   7.471   1.168   8.416 -1.4455 -1.2970 -1.9983
  489MOL0     H65959   7.623   1.218   8.489  0.2208 -1.0166 -0.2026
  489MOL0     H65960   7.597   1.143   8.188  2.2656 -1.4773 -0.7746
  489MOL0     H65961   7.617   1.299   8.282 -0.7970 -0.7265  0.2419
  489MOL0     H65962   7.829   1.235   8.362 -0.3308 -0.5534  1.1652
  489MOL0     H65963   7.814   1.069   8.307 -2.1297 -0.9993  2.4853
  489MOL0     H65964   7.830   1.309   8.137 -0.0965 -0.1389  2.3512
  489MOL0     H65965   7.805   1.137   8.076 -0.2614 -1.9682  2.0135
  489MOL0     H65966   8.064   1.383   8.252  3.0043 -0.4427  0.4515
  489MOL0     H65967   8.317   1.358   8.317 -1.7221  2.3943 -1.9752
  489MOL0     H65968   8.404   1.230   8.217 -1.4739 -2.5456 -3.7373
  489MOL0     H65969   8.310   1.519   8.152 -0.4820  1.2809 -1.2527
  489MOL0     H65970   8.296   1.387   8.026 -3.1811  0.8198  0.8899
  489MOL0     H65971   8.548   1.364   8.048 -0.1373 -0.3640  2.3721
  489MOL0     H65972   8.553   1.489   8.170 -0.4714 -0.2645  0.4094
  489MOL0     H65973   8.470   1.650   8.036 -0.9959 -1.4114 -0.0650
  489MOL0     H65974   8.446   1.538   7.893  0.7588 -0.8134 -1.4643
  489MOL0     H65975   8.540   1.825   7.963  0.5275 -1.8894 -0.5593
  489MOL0     H65976   8.550   2.141   7.779  3.4517  1.3416  0.1513
  489MOL0     H65977   8.476   2.052   7.909 -0.7186 -1.1702 -2.6298
  489MOL0     H65978   8.635   2.127   7.931  0.5107 -1.3098  0.6554
  489MOL0     H65979   8.844   2.304   7.447  0.2248 -0.7648  0.3145
  489MOL0     H65980   9.008   2.448   7.393 -4.4370 -0.9110  1.4520
  489MOL0     H65981   9.451   2.336   7.464  1.4594  1.3322 -0.9649
  489MOL0     H65982   9.424   2.274   7.301 -1.5602 -0.6571  0.6643
  489MOL0     H65983   9.447   2.568   7.346 -2.5360 -1.1376  1.0467
  489MOL0     H65984   9.588   2.462   7.343 -0.4022  2.3675  0.2296
  489MOL0     H65985   9.506   2.585   7.114 -1.5596 -2.2635 -3.8984
  489MOL0     H65986   9.422   2.447   7.092 -0.8084  3.0345 -1.1685
  489MOL0     H65987   9.720   2.459   7.115  2.3283 -2.2511 -3.1270
  489MOL0     H65988   9.636   2.307   7.133  1.9690  1.1723  1.7562
  489MOL0     H65989   9.617   2.508   6.891  0.3637 -0.0024 -1.4085
  489MOL0     H65990   9.542   2.350   6.899 -0.1919  0.2217 -0.0240
  489MOL0     H65991   9.832   2.373   6.928 -1.0517 -1.8231  1.0244
  489MOL0     H65992   9.741   2.226   6.908 -2.6725 -0.5283 -1.0450
  489MOL0     H65993   9.727   2.434   6.685 -1.5750 -1.5147 -3.9914
  489MOL0     H65994   9.664   2.266   6.693  1.3069 -2.0919 -1.3330
  489MOL0     H65995   9.965   2.314   6.706  0.6326  0.0193  0.4895
  489MOL0     H65996   9.881   2.309   6.552  0.0635 -1.2030 -0.5202
  489MOL0     H65997   9.312   2.140   7.462 -0.6521 -0.7569 -2.9237
  489MOL0     H65998   9.114   1.994   7.548 -1.2923 -0.2515 -0.2011
  489MOL0     H65999   8.932   1.822   7.672  0.6867  1.5318  1.1916
  489MOL0     H66000   8.866   1.623   7.786  2.6747  1.2895 -0.1650
  489MOL0     H66001   7.485   0.772   9.007  0.6496 -1.1769  0.0559
  489MOL0     H66002   7.411   0.694   9.226  1.6422 -0.3664 -3.2252
  489MOL0     H66003   7.157   0.762   9.553 -0.0621  1.3823  0.9521
  489MOL0     H66004   7.030   0.703   9.762  0.3424 -0.5332  3.3432
  489MOL0     H66005   7.031   0.437   9.981 -0.8743  0.4203  1.8430
  489MOL0     H66006   7.208   0.418   9.996 -0.8065 -0.3472 -0.2341
  489MOL0     H66007   6.989   0.562  10.163 -0.1643 -0.1541  0.3049
  489MOL0     H66008   7.139   0.545  10.235  0.6666 -2.9126  1.4556
  489MOL0     H66009   7.066   0.354  10.333 -0.3990  0.9418  0.6640
  489MOL0     H66010   7.111   0.264  10.191  0.5074  0.5356 -1.0979
  489MOL0     H66011   6.812   0.350  10.215  0.0364 -0.3381 -0.9097
  489MOL0     H66012   6.891   0.229  10.296 -1.9591 -1.5931 -0.8685
  489MOL0     H66013   6.899   0.044   9.916  0.3986  0.6538 -0.1999
  489MOL0     H66014   7.390   0.572   9.935 -1.5271 -4.0708 -1.1501
  489MOL0     H66015   7.525   0.654   9.748 -0.5746  0.4006  1.6111
  490MOL0     O66016   2.927  11.171  10.095 -0.2779  0.9565 -0.4924
  490MOL0     C66017   2.843  11.257  10.128 -0.0427  0.4516  0.0922
  490MOL0     O66018   2.716  11.224  10.145  0.4802 -0.8429 -0.1729
  490MOL0     C66019   2.663  11.102  10.149 -0.3339 -0.3547  0.1905
  490MOL0     C66020   2.527  11.091  10.188  0.3291  0.8032  0.2585
  490MOL0     C66021   2.457  10.973  10.198  0.6307 -0.5642  0.5658
  490MOL0     C66022   2.511  10.859  10.162 -0.2958 -0.7231 -0.4613
  490MOL0     O66023   2.444  10.742  10.177  0.3464 -0.8065 -0.0782
  490MOL0     C66024   2.376  10.705  10.049 -0.6409  0.1120 -0.0290
  490MOL0     C66025   2.226  10.707  10.093  0.5002  0.6987 -0.1410
  490MOL0     C66026   2.157  10.833  10.034 -0.7806  0.0647  0.4048
  490MOL0     C66027   2.032  10.845  10.113  0.6366  0.0339 -0.5750
  490MOL0     C66028   1.912  10.755  10.065  0.4808  0.0423  0.2739
  490MOL0     C66029   1.784  10.806  10.130  0.2103  0.0400  0.4076
  490MOL0     C66030   1.785  10.817  10.284 -0.5209  0.0739 -0.0910
  490MOL0     C66031   1.648  10.869  10.337 -0.4222  0.7867  0.6100
  490MOL0     N66032   1.531  10.783  10.286 -0.2509 -0.6492 -0.0298
  490MOL0     C66033   1.441  10.808  10.183  0.2882 -0.1105  0.4654
  490MOL0     C66034   1.334  10.729  10.217  0.4527  1.6801 -0.4384
  490MOL0     C66035   1.204  10.694  10.133 -0.8520  0.1531 -0.9202
  490MOL0     C66036   1.103  10.610  10.214  0.5824 -0.1720 -1.0676
  490MOL0     C66037   0.968  10.575  10.132  0.1317 -1.3070  0.1132
  490MOL0     C66038   0.900  10.706  10.086 -0.5724 -0.0013  0.3291
  490MOL0     O66039   0.877  10.795  10.192 -0.5561 -0.3449  0.5872
  490MOL0     C66040   0.777  10.887  10.191 -0.1467 -0.3333 -0.7179
  490MOL0     C66041   0.718  10.936  10.068  0.7886  0.6362  0.6281
  490MOL0     C66042   0.620  11.032  10.073  0.5678  0.1114  0.1482
  490MOL0     C66043   0.554  11.080   9.932 -1.2411  0.9805 -0.0683
  490MOL0     C66044   0.567  11.084  10.199 -0.3805  0.7330  0.6396
  490MOL0     C66045   0.450  11.169  10.211  0.0922  0.8528 -0.6401
  490MOL0     O66046   0.428  11.232  10.332  0.5158  0.0822  0.3641
  490MOL0     C66047   0.306  11.290  10.362 -0.2264 -0.2194 -0.2394
  490MOL0     C66048   0.181  11.218  10.363  0.5224  0.0562  0.4572
  490MOL0     C66049   0.060  11.282  10.392  1.0278 -0.1756  0.0418
  490MOL0     C66050   0.060  11.411  10.448  0.3621 -0.8990  0.2288
  490MOL0     O66051  -0.044  11.492  10.490  0.9942  0.7344  0.3475
  490MOL0     C66052  -0.159  11.438  10.552 -0.4895 -0.5615  0.9967
  490MOL0     C66053  -0.135  11.356  10.671  0.9321  0.9886  1.0779
  490MOL0     C66054  -0.074  11.417  10.795  0.7515 -1.8086 -0.3789
  490MOL0     C66055   0.063  11.482  10.778 -0.2830 -0.2662  0.5158
  490MOL0     C66056   0.124  11.554  10.898 -0.6223 -0.2414 -0.4552
  490MOL0     C66057   0.279  11.579  10.896 -0.6866  0.4150  0.3340
  490MOL0     C66058   0.322  11.696  10.807  0.6857 -0.2902  0.2975
  490MOL0     C66059   0.447  11.679  10.719 -0.4043  0.3720 -1.0454
  490MOL0    Cl66060   0.483  11.836  10.640  0.0596  0.3150  0.2310
  490MOL0     C66061   0.179  11.479  10.449 -0.5990  0.0444  0.2242
  490MOL0     C66062   0.298  11.417  10.407 -0.7600 -0.4176 -0.0179
  490MOL0     O66063   0.375  11.175  10.116  0.3521  0.5727 -0.0040
  490MOL0     C66064   0.635  11.046  10.311  0.1225  0.0418 -0.0109
  490MOL0     C66065   0.744  10.953  10.310 -0.3575 -0.5835 -0.1382
  490MOL0     N66066   1.355  10.670  10.338 -0.0313  0.1181 -0.0914
  490MOL0     N66067   1.470  10.704  10.375 -0.3653  0.4338 -0.5757
  490MOL0     C66068   2.643  10.863  10.115 -0.6719 -0.1037  0.3297
  490MOL0     C66069   2.720  10.978  10.100 -0.3203  0.1640 -0.2102
  490MOL0     C66070   2.884  11.400  10.119  0.7343  0.1859 -0.6439
  490MOL0     C66071   2.788  11.499  10.142 -0.4175 -0.8694 -0.4484
  490MOL0     C66072   2.815  11.634  10.133  0.0657 -0.0040  0.1611
  490MOL0     C66073   2.945  11.680  10.113 -0.4762 -0.9033 -0.8229
  490MOL0     O66074   2.981  11.816  10.136  0.2464  0.1622 -0.6454
  490MOL0     C66075   2.875  11.910  10.180 -0.6991  0.2872  0.0315
  490MOL0     C66076   2.925  12.047  10.156  0.4103 -0.8216 -0.2816
  490MOL0     C66077   2.823  12.162  10.192 -0.3860 -0.8779 -0.2347
  490MOL0     C66078   2.787  12.162  10.347  0.0378  1.0330  0.1225
  490MOL0     C66079   2.904  12.184  10.434 -0.2321 -0.3676  0.0541
  490MOL0     C66080   3.010  12.222  10.492  0.3435  0.1774  0.1846
  490MOL0     C66081   3.044  11.590  10.086  0.4259  0.2467  0.5500
  490MOL0     C66082   3.012  11.446  10.089  0.0475  0.0106  0.4162
  490MOL0     H66083   2.470  11.181  10.210  1.4589  1.4069  0.8001
  490MOL0     H66084   2.356  10.969  10.238  0.2887  1.1692 -0.0707
  490MOL0     H66085   2.392  10.779   9.970 -4.3323 -0.4333 -1.5076
  490MOL0     H66086   2.407  10.606  10.013 -0.9894 -0.1599  0.4135
  490MOL0     H66087   2.181  10.617  10.050  2.2647  0.0439 -0.7223
  490MOL0     H66088   2.225  10.692  10.202  0.0395 -0.4608 -0.2846
  490MOL0     H66089   2.219  10.917  10.067 -2.2995  1.7121 -0.7597
  490MOL0     H66090   2.150  10.812   9.927 -0.5650 -1.6422  0.7028
  490MOL0     H66091   2.054  10.812  10.215  1.1467 -0.6797 -0.9077
  490MOL0     H66092   2.004  10.949  10.094  0.7542  0.0478 -0.6685
  490MOL0     H66093   1.908  10.766   9.956  0.1064  2.9317  0.5178
  490MOL0     H66094   1.941  10.653  10.095 -2.8292 -0.7829  1.1029
  490MOL0     H66095   1.772  10.901  10.078  1.0695 -0.2187 -0.2840
  490MOL0     H66096   1.703  10.740  10.095  0.6178 -0.9395  1.2339
  490MOL0     H66097   1.810  10.726  10.340 -0.1554  1.4274  2.0538
  490MOL0     H66098   1.865  10.881  10.322  0.6616 -0.5041 -1.5088
  490MOL0     H66099   1.640  10.975  10.310 -3.8527  0.2372 -1.1015
  490MOL0     H66100   1.651  10.860  10.446  2.3759 -3.3008  0.3841
  490MOL0     H66101   1.453  10.873  10.096  2.4845  3.2133  2.9923
  490MOL0     H66102   1.162  10.788  10.098 -0.0825 -0.0810 -2.5843
  490MOL0     H66103   1.232  10.647  10.038  1.3916  2.2739 -1.4211
  490MOL0     H66104   1.074  10.670  10.301  6.5431  3.4127 -0.9866
  490MOL0     H66105   1.149  10.517  10.248 -0.5802 -1.4744 -2.8758
  490MOL0     H66106   0.900  10.520  10.199 -2.8424  2.4469  0.5087
  490MOL0     H66107   0.999  10.524  10.041  2.4939  1.3047 -0.6859
  490MOL0     H66108   0.814  10.679  10.025 -1.2643 -1.2294  1.7956
  490MOL0     H66109   0.967  10.758  10.016 -1.1306 -1.1320 -1.0766
  490MOL0     H66110   0.752  10.889   9.976  3.5566 -0.1389  1.9297
  490MOL0     H66111   0.477  11.004   9.917  0.8861 -1.6515  1.5811
  490MOL0     H66112   0.520  11.184   9.929 -0.4806  1.4323  3.0706
  490MOL0     H66113   0.636  11.071   9.861  1.1531  0.4857  2.5836
  490MOL0     H66114   0.202  11.114  10.342  2.6188  0.7260 -1.1211
  490MOL0     H66115  -0.036  11.232  10.391 -0.2826  2.1771 -0.9767
  490MOL0     H66116  -0.225  11.523  10.570 -2.7356 -1.3665 -2.6311
  490MOL0     H66117  -0.212  11.389  10.470  0.6352  2.3961 -1.7145
  490MOL0     H66118  -0.233  11.320  10.703  0.3091  0.2840 -1.4103
  490MOL0     H66119  -0.083  11.267  10.632 -0.4717  0.8282 -0.5451
  490MOL0     H66120  -0.058  11.350  10.880  2.7605 -0.2792  0.5629
  490MOL0     H66121  -0.155  11.479  10.835 -0.6429 -3.3037 -0.8036
  490MOL0     H66122   0.128  11.399  10.750  1.4381  1.0725  0.3419
  490MOL0     H66123   0.068  11.547  10.690  1.6146  1.6395  1.9134
  490MOL0     H66124   0.105  11.509  10.996  0.6435  2.1311  0.9584
  490MOL0     H66125   0.076  11.652  10.908  0.2954  0.2106 -0.3699
  490MOL0     H66126   0.310  11.598  10.999 -0.8381  1.2144  0.2362
  490MOL0     H66127   0.328  11.490  10.856  1.1391  1.6985 -0.3807
  490MOL0     H66128   0.333  11.785  10.869 -4.0946 -0.4309  1.7979
  490MOL0     H66129   0.243  11.725  10.737  0.5781  0.7784  0.8471
  490MOL0     H66130   0.428  11.601  10.645  3.6842 -1.3154 -0.5831
  490MOL0     H66131   0.532  11.644  10.779  2.9387  2.3750 -4.1481
  490MOL0     H66132   0.183  11.584  10.476 -1.4394  0.1667 -0.1024
  490MOL0     H66133   0.390  11.474  10.416 -2.2903  2.1563  0.0065
  490MOL0     H66134   0.612  11.091  10.407  1.4543  1.6346 -0.4040
  490MOL0     H66135   0.805  10.918  10.393  0.1748 -0.5105 -0.4950
  490MOL0     H66136   2.698  10.773  10.090  0.0422  0.5871 -0.6310
  490MOL0     H66137   2.815  10.960  10.049  0.7032  1.7825  1.0374
  490MOL0     H66138   2.690  11.474  10.182 -0.4996  0.3241  0.1299
  490MOL0     H66139   2.730  11.702  10.135  0.3292  0.3433 -0.1273
  490MOL0     H66140   2.791  11.904  10.111  0.8622  0.2207 -1.9724
  490MOL0     H66141   2.846  11.881  10.282 -0.5585 -0.9437 -0.2600
  490MOL0     H66142   2.965  12.051  10.054 -2.4233 -3.4366 -1.6570
  490MOL0     H66143   3.018  12.068  10.210  1.4019  0.1117 -2.2660
  490MOL0     H66144   2.732  12.156  10.130  0.2987 -2.8377 -1.1396
  490MOL0     H66145   2.873  12.258  10.183 -1.0949 -0.3155  1.4469
  490MOL0     H66146   2.746  12.062  10.363  4.0363 -0.4522  2.8460
  490MOL0     H66147   2.707  12.230  10.377 -0.6919 -0.3626  1.5096
  490MOL0     H66148   3.094  12.264  10.542 -0.2416  1.7613 -0.1156
  490MOL0     H66149   3.145  11.627  10.073  0.3791  0.2257  0.1162
  490MOL0     H66150   3.084  11.370  10.064 -4.2006 -3.9878 -1.1791
  491MOL0     O66151   8.169   0.708   9.285 -0.1001 -0.1714 -0.1010
  491MOL0     C66152   8.236   0.807   9.319 -0.8615 -0.3268 -0.7979
  491MOL0     O66153   8.327   0.817   9.428  0.4325  0.1152 -0.0708
  491MOL0     C66154   8.342   0.704   9.496 -0.2832  0.3829  1.0377
  491MOL0     C66155   8.310   0.687   9.628 -0.1548  0.0671  0.1501
  491MOL0     C66156   8.331   0.570   9.693 -0.2374  0.1725 -0.9197
  491MOL0     C66157   8.397   0.465   9.627 -0.4071 -0.1640  0.4406
  491MOL0     O66158   8.413   0.352   9.697  0.6881  0.7833  0.4102
  491MOL0     C66159   8.363   0.237   9.625 -0.4297 -0.0705  0.1124
  491MOL0     C66160   8.371   0.109   9.714  0.3723 -0.9802 -0.4645
  491MOL0     C66161   8.321  -0.001   9.625  0.2039  0.3276  0.1312
  491MOL0     C66162   8.340  -0.143   9.696  0.1538 -0.7575 -0.1069
  491MOL0     C66163   8.486  -0.189   9.715 -0.1551  0.3323 -0.4553
  491MOL0     C66164   8.575  -0.203   9.585  1.2003 -0.1032  0.3881
  491MOL0     C66165   8.723  -0.214   9.628  0.3199  0.1233  0.6218
  491MOL0     C66166   8.795  -0.093   9.698  0.9823 -0.5101  0.6877
  491MOL0     N66167   8.935  -0.123   9.738 -0.3433 -0.2424 -0.4735
  491MOL0     C66168   9.047  -0.139   9.665 -0.2057  0.3784 -1.2886
  491MOL0     C66169   9.145  -0.118   9.754 -0.7519  0.0075  0.4677
  491MOL0     C66170   9.288  -0.100   9.716 -0.1372 -0.1904 -0.3276
  491MOL0     C66171   9.374  -0.073   9.840  0.5413 -0.0797  0.0785
  491MOL0     C66172   9.520  -0.033   9.797  0.6380  1.5491 -0.1635
  491MOL0     C66173   9.527   0.096   9.725 -0.1290 -0.0859  0.3723
  491MOL0     O66174   9.649   0.163   9.735 -0.0608 -0.4985 -0.4599
  491MOL0     C66175   9.749   0.129   9.633 -0.4228 -0.5843 -0.4057
  491MOL0     C66176   9.776  -0.004   9.579 -0.0503 -0.0952  0.1687
  491MOL0     C66177   9.885  -0.035   9.498 -0.3075 -0.1894 -0.1332
  491MOL0     C66178   9.899  -0.177   9.454 -0.0070  0.3016  0.2356
  491MOL0     C66179   9.969   0.075   9.457 -0.1088  0.2292 -0.0162
  491MOL0     C66180  10.087   0.056   9.374 -0.5574 -0.0190 -0.2148
  491MOL0     O66181  10.124   0.157   9.296 -0.0548 -0.5389 -0.6563
  491MOL0     C66182  10.199   0.129   9.187 -0.6676 -0.5183 -0.5064
  491MOL0     C66183  10.173   0.041   9.084  0.5997  0.3677 -0.0338
  491MOL0     C66184  10.266   0.042   8.976 -0.2275  0.8046 -0.8237
  491MOL0     C66185  10.385   0.123   8.975  0.2625 -0.1522  0.7398
  491MOL0     O66186  10.477   0.128   8.875 -0.4844 -0.3429  0.2500
  491MOL0     C66187  10.553  -0.004   8.872 -0.3585 -0.4924 -0.0937
  491MOL0     C66188  10.572  -0.064   8.729 -0.0613 -0.7112  0.3197
  491MOL0     C66189  10.438  -0.127   8.684 -0.5828 -0.4267  0.9552
  491MOL0     C66190  10.438  -0.147   8.539  0.9924  0.3012  0.2924
  491MOL0     C66191  10.314  -0.218   8.484 -0.8384  0.3568 -0.3112
  491MOL0     C66192  10.318  -0.364   8.525  0.0727 -0.1520 -0.2349
  491MOL0     C66193  10.224  -0.448   8.427 -0.3458 -0.9639 -0.1566
  491MOL0     C66194  10.245  -0.595   8.433  0.0583  0.2535  1.0662
  491MOL0    Cl66195  10.209  -0.644   8.600  0.5701  0.0200 -0.1062
  491MOL0     C66196  10.398   0.217   9.072  0.2716 -0.8866  0.9474
  491MOL0     C66197  10.308   0.219   9.179 -0.1553 -0.7316 -0.3924
  491MOL0     O66198  10.143  -0.055   9.376 -0.2082  0.6403 -0.0952
  491MOL0     C66199   9.961   0.199   9.516 -0.8132  0.0257 -0.4242
  491MOL0     C66200   9.848   0.222   9.595  1.0682 -0.1690 -0.1111
  491MOL0     N66201   9.095  -0.110   9.880  0.2738 -0.3259 -0.3249
  491MOL0     N66202   8.966  -0.123   9.868 -0.1747  0.2627  0.4308
  491MOL0     C66203   8.444   0.480   9.494 -0.2878  0.9569  0.2108
  491MOL0     C66204   8.409   0.597   9.421  0.2677 -0.0799  0.1844
  491MOL0     C66205   8.218   0.928   9.248 -0.5179 -0.2639 -0.2263
  491MOL0     C66206   8.116   0.922   9.154  0.1549 -0.5385 -1.1940
  491MOL0     C66207   8.092   1.028   9.066 -0.0828  0.0313 -0.0965
  491MOL0     C66208   8.162   1.149   9.083  0.6005  0.5724 -0.1423
  491MOL0     O66209   8.115   1.258   9.020  0.7953 -0.3446  0.9485
  491MOL0     C66210   8.022   1.255   8.907 -0.4550  0.0819  0.0556
  491MOL0     C66211   7.891   1.330   8.952  0.6017  0.2117 -1.0614
  491MOL0     C66212   7.768   1.301   8.855 -0.9159 -0.1548 -0.1212
  491MOL0     C66213   7.658   1.406   8.835  0.4878 -0.4286 -0.2487
  491MOL0     C66214   7.585   1.453   8.955 -0.5938  0.6980 -0.1454
  491MOL0     C66215   7.548   1.494   9.062  0.4556  0.1911  0.3846
  491MOL0     C66216   8.269   1.152   9.170  0.9925  0.0167  0.1791
  491MOL0     C66217   8.294   1.043   9.256 -0.4044 -0.3420  0.4135
  491MOL0     H66218   8.272   0.780   9.671  2.6271  1.0059  0.7977
  491MOL0     H66219   8.312   0.554   9.799  0.0193 -0.0770 -0.9103
  491MOL0     H66220   8.259   0.245   9.593  0.4819 -0.9494 -3.4652
  491MOL0     H66221   8.429   0.226   9.539 -0.7155 -1.4762  0.0632
  491MOL0     H66222   8.478   0.092   9.732 -0.0747 -3.2987  0.3488
  491MOL0     H66223   8.312   0.103   9.806 -0.7176 -1.1991 -1.1529
  491MOL0     H66224   8.218   0.019   9.594  0.0174 -1.8468 -0.7910
  491MOL0     H66225   8.387  -0.000   9.537  0.6544  2.2662  0.4334
  491MOL0     H66226   8.292  -0.141   9.794 -2.7689  0.6050 -1.4289
  491MOL0     H66227   8.290  -0.212   9.627  0.1679 -0.7685 -0.1052
  491MOL0     H66228   8.535  -0.125   9.789  2.3426 -1.3475 -0.5478
  491MOL0     H66229   8.484  -0.288   9.762 -1.0411 -0.7316 -2.6209
  491MOL0     H66230   8.555  -0.279   9.508  2.0327  0.6735 -0.6180
  491MOL0     H66231   8.561  -0.112   9.526 -3.7033  1.9680  4.1102
  491MOL0     H66232   8.740  -0.300   9.693 -4.5202 -0.1940  1.8865
  491MOL0     H66233   8.771  -0.220   9.530 -2.3397  3.2646 -1.0562
  491MOL0     H66234   8.729  -0.055   9.776 -1.0576  3.1553 -2.4932
  491MOL0     H66235   8.794  -0.004   9.635 -1.7061 -0.6327  0.4192
  491MOL0     H66236   9.054  -0.170   9.562  0.2691 -1.9295 -0.6210
  491MOL0     H66237   9.326  -0.186   9.660  2.5932  1.9669 -2.0827
  491MOL0     H66238   9.311  -0.026   9.638  4.7510 -0.7149  0.2931
  491MOL0     H66239   9.364  -0.165   9.900 -2.5991  1.3331  1.9436
  491MOL0     H66240   9.343   0.010   9.903  1.6630  2.7106 -2.8092
  491MOL0     H66241   9.564  -0.117   9.743 -2.8005  0.4841 -1.5856
  491MOL0     H66242   9.560  -0.014   9.897  0.6714 -0.6385  0.2859
  491MOL0     H66243   9.443   0.160   9.753 -1.9698 -1.5238 -1.5854
  491MOL0     H66244   9.497   0.083   9.621 -1.7349  1.0937  0.6524
  491MOL0     H66245   9.707  -0.085   9.599 -2.5267  1.5276 -1.3491
  491MOL0     H66246   9.810  -0.236   9.478 -0.7134  1.0103 -0.5952
  491MOL0     H66247   9.926  -0.189   9.349  1.2341  1.0739  0.4470
  491MOL0     H66248   9.976  -0.228   9.513  0.8746  1.3162 -0.0096
  491MOL0     H66249  10.078  -0.011   9.088 -0.0835  1.6593  2.3381
  491MOL0     H66250  10.235  -0.035   8.906 -2.0263 -0.3134  1.0621
  491MOL0     H66251  10.650   0.024   8.915 -0.0721  0.4800 -1.3129
  491MOL0     H66252  10.516  -0.080   8.941  0.7225 -0.8414  0.1246
  491MOL0     H66253  10.605   0.008   8.654  0.9623 -1.9966 -0.5054
  491MOL0     H66254  10.654  -0.136   8.739  2.2213  1.8013  0.7428
  491MOL0     H66255  10.358  -0.057   8.709 -0.8008 -1.2567  2.7701
  491MOL0     H66256  10.427  -0.215   8.747 -0.3787  0.3609  2.1308
  491MOL0     H66257  10.440  -0.048   8.493 -0.0797  0.8265  1.3380
  491MOL0     H66258  10.519  -0.205   8.493 -0.8367 -1.9838 -0.2723
  491MOL0     H66259  10.337  -0.212   8.377  3.3653 -1.4677  0.2937
  491MOL0     H66260  10.218  -0.169   8.497  0.3656  2.8279 -0.1014
  491MOL0     H66261  10.422  -0.396   8.520  0.6356  1.3196  1.2232
  491MOL0     H66262  10.277  -0.374   8.626 -1.0072  0.6166 -0.5800
  491MOL0     H66263  10.256  -0.424   8.325 -3.0364 -1.9969 -1.3380
  491MOL0     H66264  10.119  -0.431   8.451  0.4668  0.2722  2.9610
  491MOL0     H66265  10.345  -0.622   8.397 -0.4721 -1.3968  0.7239
  491MOL0     H66266  10.167  -0.637   8.368 -0.0905  0.3740  1.1652
  491MOL0     H66267  10.477   0.292   9.069 -0.1039 -0.5140 -0.7072
  491MOL0     H66268  10.330   0.290   9.258  1.1095 -1.8170  0.2737
  491MOL0     H66269  10.038   0.274   9.501 -1.8647  1.5113  1.1693
  491MOL0     H66270   9.818   0.326   9.594  0.4530 -0.2347  2.6689
  491MOL0     H66271   8.498   0.402   9.442  0.0973  1.5316 -0.2707
  491MOL0     H66272   8.434   0.621   9.318 -3.6448 -0.2674 -0.9599
  491MOL0     H66273   8.054   0.834   9.138  2.2743 -2.1186 -1.1708
  491MOL0     H66274   8.013   1.009   8.994  0.4656 -0.4964 -0.5629
  491MOL0     H66275   8.064   1.318   8.828 -0.2139 -0.5332 -0.3090
  491MOL0     H66276   7.991   1.157   8.871  3.1329 -2.6121  3.5323
  491MOL0     H66277   7.904   1.438   8.960 -1.6629  0.3916  1.6509
  491MOL0     H66278   7.862   1.302   9.053 -0.8318  1.9076 -0.9503
  491MOL0     H66279   7.733   1.203   8.886  1.1937 -1.3586 -1.2489
  491MOL0     H66280   7.813   1.285   8.756 -2.5827 -0.8223 -0.8097
  491MOL0     H66281   7.595   1.365   8.756 -0.8233  0.6401  0.2055
  491MOL0     H66282   7.708   1.494   8.793 -0.2576  1.3044  2.2799
  491MOL0     H66283   7.527   1.543   9.155  0.1561 -0.3613  0.6150
  491MOL0     H66284   8.323   1.247   9.178 -0.1864  1.0196 -2.6369
  491MOL0     H66285   8.384   1.048   9.317 -0.6390  1.6550  0.6555
  492MOL0     O66286   8.823  10.899   7.378  0.1748  0.4502 -0.2136
  492MOL0     C66287   8.778  10.798   7.325  0.1321  0.2098 -1.0836
  492MOL0     O66288   8.843  10.710   7.236 -0.3556  0.0105  0.0425
  492MOL0     C66289   8.974  10.736   7.184  1.2564  0.0597  0.7585
  492MOL0     C66290   9.060  10.842   7.200  0.1480  0.5328 -1.0082
  492MOL0     C66291   9.174  10.859   7.110  0.3513  0.0518 -0.1034
  492MOL0     C66292   9.206  10.766   7.011  0.1598  0.2965  0.2583
  492MOL0     O66293   9.314  10.754   6.929  0.2094 -0.3447 -0.3962
  492MOL0     C66294   9.348  10.872   6.851 -1.3877  0.9602 -0.0731
  492MOL0     C66295   9.459  10.822   6.763 -0.4994 -0.1033  0.3509
  492MOL0     C66296   9.511  10.920   6.651 -0.0001  0.2319 -0.7653
  492MOL0     C66297   9.643  10.866   6.593 -0.1994  0.2881 -0.9383
  492MOL0     C66298   9.702  10.962   6.502 -0.7631 -0.6884  0.1543
  492MOL0     C66299   9.824  10.903   6.433 -0.3153 -0.0052 -0.1590
  492MOL0     C66300   9.844  10.978   6.301  0.8648  0.1547  0.4536
  492MOL0     C66301   9.971  10.938   6.227 -0.3723  0.4897 -1.2514
  492MOL0     N66302  10.004  11.022   6.109  0.2687 -0.7212  0.0853
  492MOL0     C66303   9.967  11.002   5.980  0.0216  0.6755  0.2379
  492MOL0     C66304  10.004  11.102   5.905 -0.5225 -0.5076  0.2361
  492MOL0     C66305   9.993  11.123   5.759  0.4362 -0.0697  0.9823
  492MOL0     C66306   9.854  11.097   5.705  0.3583  0.4635 -0.4316
  492MOL0     C66307   9.803  11.213   5.622  0.5801 -1.0219  0.1912
  492MOL0     C66308   9.664  11.185   5.585 -0.5452  0.3535 -0.3165
  492MOL0     O66309   9.597  11.279   5.500  0.1856 -0.0022 -0.8639
  492MOL0     C66310   9.483  11.243   5.437  0.2217  1.1041 -0.2291
  492MOL0     C66311   9.363  11.255   5.496  0.5226  0.0711  0.7252
  492MOL0     C66312   9.245  11.209   5.431  0.1243  0.0468 -0.5216
  492MOL0     C66313   9.129  11.254   5.509 -0.3852  0.0442 -0.1992
  492MOL0     C66314   9.253  11.128   5.312  0.5264  0.1196  0.5156
  492MOL0     C66315   9.134  11.061   5.250 -0.1385 -0.0709 -0.0350
  492MOL0     O66316   9.171  10.964   5.150 -0.0522 -0.4504 -0.0180
  492MOL0     C66317   9.073  10.919   5.074 -0.7261  1.1934 -0.6095
  492MOL0     C66318   9.112  10.890   4.950 -0.3553  0.1277  0.0721
  492MOL0     C66319   9.031  10.829   4.856 -0.0790 -0.1905  0.0281
  492MOL0     C66320   8.899  10.795   4.886 -0.0515 -0.4123  0.4536
  492MOL0     O66321   8.798  10.760   4.793 -0.8408 -0.5394  0.1789
  492MOL0     C66322   8.848  10.745   4.655 -0.0009  0.3000 -0.6153
  492MOL0     C66323   8.731  10.671   4.591 -0.3145  0.2966  0.2415
  492MOL0     C66324   8.793  10.588   4.475  0.1760 -0.5857  0.1603
  492MOL0     C66325   8.684  10.492   4.407 -0.9006  0.8883  0.1318
  492MOL0     C66326   8.742  10.407   4.302 -0.4173 -0.3965  0.3394
  492MOL0     C66327   8.818  10.281   4.357 -0.0498  1.1103 -0.4287
  492MOL0     C66328   8.866  10.192   4.244  0.0081 -0.5420 -0.1711
  492MOL0     C66329   8.984  10.242   4.163 -0.3864  0.3593 -0.5186
  492MOL0    Cl66330   9.139  10.248   4.262  0.0828 -0.6553 -0.0652
  492MOL0     C66331   8.859  10.811   5.019  0.3893  0.4412 -0.4310
  492MOL0     C66332   8.949  10.860   5.115 -0.1265 -0.0586  0.3926
  492MOL0     O66333   9.018  11.088   5.280  0.2622  0.8251  0.4388
  492MOL0     C66334   9.384  11.119   5.257 -0.6266  0.7065 -0.1215
  492MOL0     C66335   9.491  11.180   5.318 -0.4107  0.6599 -0.1904
  492MOL0     N66336  10.063  11.191   5.996  0.1381 -0.5645 -0.1232
  492MOL0     N66337  10.052  11.148   6.119  0.4199 -0.0592 -0.5142
  492MOL0     C66338   9.121  10.656   6.995  0.6751 -0.2426  0.0416
  492MOL0     C66339   9.008  10.649   7.075  0.8113 -0.1906 -0.1967
  492MOL0     C66340   8.639  10.756   7.352 -0.3580  0.0203 -0.3636
  492MOL0     C66341   8.555  10.839   7.431 -0.3737  0.5262  0.2614
  492MOL0     C66342   8.416  10.817   7.445  0.5802 -0.0841 -0.1796
  492MOL0     C66343   8.357  10.713   7.372  0.5408  0.6995  0.3040
  492MOL0     O66344   8.229  10.661   7.382  0.2800 -0.1700  0.9227
  492MOL0     C66345   8.124  10.742   7.419 -0.8615  0.0542 -0.0238
  492MOL0     C66346   7.986  10.686   7.358 -0.1550 -0.2424 -0.0058
  492MOL0     C66347   7.988  10.666   7.205 -0.2885 -0.9255 -0.6728
  492MOL0     C66348   7.863  10.609   7.144 -0.0881  0.1551  0.3533
  492MOL0     C66349   7.774  10.713   7.127  0.2228 -0.2760  0.8735
  492MOL0     C66350   7.701  10.810   7.124 -0.2728 -0.3300 -0.2658
  492MOL0     C66351   8.436  10.630   7.298 -0.1103 -0.4448  0.1339
  492MOL0     C66352   8.573  10.645   7.286 -0.4156 -0.9202  0.0525
  492MOL0     H66353   9.047  10.912   7.281 -0.0461  1.4003 -1.7813
  492MOL0     H66354   9.243  10.941   7.128  0.9402  0.4426 -3.4822
  492MOL0     H66355   9.255  10.900   6.800 -2.6831  1.1862  2.2557
  492MOL0     H66356   9.375  10.966   6.900 -0.8944  1.9225 -2.0867
  492MOL0     H66357   9.541  10.796   6.830  1.9040  1.7784 -1.6273
  492MOL0     H66358   9.438  10.732   6.705  0.1265 -0.0202 -0.0257
  492MOL0     H66359   9.427  10.928   6.581 -2.1157 -0.1809  1.5553
  492MOL0     H66360   9.535  11.016   6.698  1.0228 -0.2243 -0.3317
  492MOL0     H66361   9.705  10.841   6.679  0.4014 -5.8709 -2.7112
  492MOL0     H66362   9.638  10.771   6.539  1.1605 -0.0204 -0.5677
  492MOL0     H66363   9.623  10.988   6.430 -1.1651  1.5688  1.3079
  492MOL0     H66364   9.743  11.054   6.545  2.6607 -1.2343 -1.6090
  492MOL0     H66365   9.910  10.923   6.497 -1.9895  1.7487  1.6888
  492MOL0     H66366   9.810  10.796   6.414 -0.2975  0.3903 -2.7735
  492MOL0     H66367   9.766  10.947   6.230  1.7982 -0.7247 -0.2304
  492MOL0     H66368   9.840  11.087   6.306 -0.7264  0.0732  2.3527
  492MOL0     H66369   9.954  10.835   6.194  1.3379 -0.8819  1.6712
  492MOL0     H66370  10.059  10.931   6.292 -1.5471 -0.8377  0.2863
  492MOL0     H66371   9.919  10.912   5.943 -1.7909  0.9059  1.8851
  492MOL0     H66372  10.016  11.229   5.744  2.1967 -0.5617 -0.0582
  492MOL0     H66373  10.056  11.058   5.697 -1.3886 -2.5767  1.5626
  492MOL0     H66374   9.783  11.080   5.786  0.6731  3.6296  0.6277
  492MOL0     H66375   9.854  11.015   5.632 -0.9866 -0.2852  0.3644
  492MOL0     H66376   9.863  11.216   5.530 -3.1023 -3.2751 -2.5607
  492MOL0     H66377   9.799  11.300   5.688  0.3775  1.3197 -2.6835
  492MOL0     H66378   9.611  11.167   5.679 -0.2592  1.3145  0.0338
  492MOL0     H66379   9.663  11.093   5.527 -2.0569  0.8208 -1.0693
  492MOL0     H66380   9.369  11.303   5.593 -0.8159 -1.5458  1.6610
  492MOL0     H66381   9.138  11.350   5.561 -0.1839 -0.8044  1.4070
  492MOL0     H66382   9.039  11.271   5.450 -1.3226  3.4852  1.9052
  492MOL0     H66383   9.102  11.181   5.586 -0.5699  0.0570 -0.2508
  492MOL0     H66384   9.214  10.903   4.913 -0.9949 -2.0827 -2.8974
  492MOL0     H66385   9.066  10.816   4.754 -2.4770  1.8149 -1.1784
  492MOL0     H66386   8.862  10.840   4.602  1.1252  0.6845  0.3253
  492MOL0     H66387   8.941  10.688   4.646 -1.1751 -1.9233  0.5979
  492MOL0     H66388   8.688  10.600   4.663 -2.7887 -0.1375 -1.5470
  492MOL0     H66389   8.663  10.747   4.553  0.1090  1.9687  2.6097
  492MOL0     H66390   8.880  10.526   4.499  0.7635 -0.3319 -1.2116
  492MOL0     H66391   8.822  10.662   4.400 -0.4327  3.6106  3.6787
  492MOL0     H66392   8.640  10.425   4.481 -0.2474  0.0926 -0.1864
  492MOL0     H66393   8.615  10.562   4.359 -0.7717  1.7871  1.2212
  492MOL0     H66394   8.813  10.457   4.235  0.7538 -2.9279 -0.4127
  492MOL0     H66395   8.658  10.380   4.238  1.6270 -1.2781 -2.1276
  492MOL0     H66396   8.899  10.307   4.426  2.4871  2.1351 -3.5784
  492MOL0     H66397   8.746  10.221   4.414  1.5491  0.5356  1.0798
  492MOL0     H66398   8.783  10.203   4.173 -0.1878 -0.4891  0.0666
  492MOL0     H66399   8.885  10.090   4.278 -1.1950 -0.8773 -0.4485
  492MOL0     H66400   8.960  10.344   4.129  1.9697  2.0931  2.4918
  492MOL0     H66401   8.999  10.177   4.076 -0.5218 -0.4927  0.0889
  492MOL0     H66402   8.757  10.797   5.055  0.6804 -0.1332  0.1900
  492MOL0     H66403   8.914  10.865   5.217 -1.2352  1.9979 -0.0275
  492MOL0     H66404   9.395  11.067   5.163  0.3799  0.4942  0.0961
  492MOL0     H66405   9.582  11.154   5.264  1.8307  1.2970  2.9310
  492MOL0     H66406   9.137  10.583   6.917 -3.1389 -3.2253  1.7164
  492MOL0     H66407   8.945  10.565   7.049  1.2324 -0.0198 -1.8815
  492MOL0     H66408   8.584  10.934   7.474  0.8047  0.8202 -1.0887
  492MOL0     H66409   8.356  10.883   7.507 -0.1679  1.5605 -2.4919
  492MOL0     H66410   8.110  10.743   7.527  2.5051  2.7162  0.5436
  492MOL0     H66411   8.143  10.844   7.385  0.0539 -0.3601 -0.8061
  492MOL0     H66412   7.912  10.757   7.395  1.4365  0.8640  1.2111
  492MOL0     H66413   7.967  10.588   7.402 -0.6023 -0.5747 -0.9066
  492MOL0     H66414   8.057  10.583   7.192 -1.2334 -2.0367  0.9970
  492MOL0     H66415   8.023  10.756   7.152  0.1872 -0.5287  0.2866
  492MOL0     H66416   7.816  10.533   7.208 -0.7776 -0.6368 -1.0447
  492MOL0     H66417   7.884  10.557   7.050 -0.8360 -3.4024  1.9703
  492MOL0     H66418   7.642  10.897   7.143 -1.8870 -1.7934  2.1266
  492MOL0     H66419   8.389  10.550   7.242 -2.5455  0.8148  0.2597
  492MOL0     H66420   8.629  10.592   7.210 -2.8574  0.2204 -2.7932
  493MOL0     O66421   0.607   9.687  10.425 -0.1819  0.6190 -0.2827
  493MOL0     C66422   0.680   9.729  10.512 -0.2123  0.2796 -0.9846
  493MOL0     O66423   0.687   9.858  10.548  0.4677 -0.2785 -0.6677
  493MOL0     C66424   0.578   9.946  10.537 -0.1908 -0.0970  0.3458
  493MOL0     C66425   0.439   9.911  10.514  0.7679 -0.0554 -0.1178
  493MOL0     C66426   0.340  10.007  10.499 -0.4719  0.4036 -0.5756
  493MOL0     C66427   0.370  10.134  10.499 -0.3782 -0.1592 -0.0898
  493MOL0     O66428   0.280  10.229  10.478  0.0358 -0.0414 -0.1369
  493MOL0     C66429   0.152  10.193  10.403 -0.4649 -0.4245 -0.3208
  493MOL0     C66430   0.079  10.330  10.377 -0.0157  0.5465  0.2630
  493MOL0     C66431   0.124  10.400  10.245 -0.6081  0.1174 -0.0439
  493MOL0     C66432   0.042  10.517  10.219 -1.0336  0.1310 -0.5346
  493MOL0     C66433  -0.091  10.478  10.160 -0.5012  0.2829  1.1928
  493MOL0     C66434  -0.179  10.591  10.112  0.7042  0.0529  0.1961
  493MOL0     C66435  -0.319  10.587  10.165 -0.5659  0.5416 -0.1950
  493MOL0     C66436  -0.310  10.648  10.305  0.0804 -0.7086  0.1962
  493MOL0     N66437  -0.286  10.550  10.411  0.9064  0.4830 -0.0851
  493MOL0     C66438  -0.200  10.575  10.515 -0.2600  1.1485 -0.1837
  493MOL0     C66439  -0.211  10.466  10.591 -0.4450  0.7593  1.7931
  493MOL0     C66440  -0.130  10.413  10.709  0.1233  0.4032  0.3182
  493MOL0     C66441  -0.115  10.500  10.837  0.0817  0.4149 -0.3190
  493MOL0     C66442  -0.023  10.438  10.940  0.4701  0.4828  0.2360
  493MOL0     C66443   0.052  10.542  11.031  0.5174  0.3674  0.7401
  493MOL0     O66444  -0.042  10.608  11.120  0.2721  0.2414 -0.2347
  493MOL0     C66445  -0.072  10.535  11.237 -0.0591 -0.4876  0.4453
  493MOL0     C66446  -0.144  10.609  11.338 -0.1716 -0.3314 -0.0079
  493MOL0     C66447  -0.200  10.544  11.446  0.4376  0.4407 -0.6437
  493MOL0     C66448  -0.271  10.629  11.550  0.1132 -0.4191 -0.3117
  493MOL0     C66449  -0.199  10.397  11.454  0.2389 -0.3616 -0.3215
  493MOL0     C66450  -0.264  10.318  11.564 -0.0608  0.5525  0.3446
  493MOL0     O66451  -0.296  10.192  11.529 -0.4206  0.3079  0.2111
  493MOL0     C66452  -0.366  10.124  11.629  0.0526  0.4259  0.0623
  493MOL0     C66453  -0.299  10.033  11.716  0.1721  0.0233  0.5913
  493MOL0     C66454  -0.381   9.954  11.808  0.0819 -0.2245  0.4444
  493MOL0     C66455  -0.518   9.974  11.825  0.2477  0.1557  0.1495
  493MOL0     O66456  -0.592   9.881  11.909 -0.5319  0.1301  0.4777
  493MOL0     C66457  -0.713   9.936  11.961 -0.3589 -0.4309  0.4270
  493MOL0     C66458  -0.784   9.835  12.054 -1.0228 -0.0128 -0.6778
  493MOL0     C66459  -0.836   9.701  12.001  0.3982 -0.2003 -0.1258
  493MOL0     C66460  -0.892   9.608  12.117 -0.5763  0.9400 -0.6654
  493MOL0     C66461  -0.947   9.482  12.050  1.4282 -1.3421  0.4120
  493MOL0     C66462  -1.055   9.414  12.130 -0.3699 -0.1421  0.1276
  493MOL0     C66463  -1.117   9.278  12.077  1.1929 -0.2264  0.3599
  493MOL0     C66464  -1.164   9.289  11.927 -0.4757  0.4899 -0.5936
  493MOL0    Cl66465  -1.197   9.123  11.855 -0.0293 -0.1536  0.0841
  493MOL0     C66466  -0.573  10.071  11.731  0.7092  0.7762  0.1635
  493MOL0     C66467  -0.506  10.147  11.636  0.0254  0.8639 -0.1822
  493MOL0     O66468  -0.291  10.369  11.671  0.6781  0.1372  0.2776
  493MOL0     C66469  -0.126  10.329  11.357 -0.4672 -0.4531 -0.5330
  493MOL0     C66470  -0.055  10.394  11.255 -0.2825 -0.7486 -0.2187
  493MOL0     N66471  -0.306  10.375  10.543 -0.2086  0.5651 -0.0755
  493MOL0     N66472  -0.353  10.433  10.435 -0.4208  0.1694  0.4100
  493MOL0     C66473   0.503  10.175  10.521 -0.6961  1.6193  1.1342
  493MOL0     C66474   0.603  10.080  10.543  0.3937 -0.5017 -0.4466
  493MOL0     C66475   0.785   9.638  10.567 -0.1575  0.7890  0.4327
  493MOL0     C66476   0.795   9.502  10.528  0.2985  1.0387  0.4583
  493MOL0     C66477   0.904   9.420  10.557  0.3991  0.3313 -0.7097
  493MOL0     C66478   1.003   9.463  10.630  0.4081  0.1091  0.2764
  493MOL0     O66479   1.108   9.379  10.651  0.9068  0.3995 -0.3830
  493MOL0     C66480   1.195   9.410  10.766 -0.0994 -0.4158  0.5952
  493MOL0     C66481   1.310   9.320  10.782  0.2540 -0.0371 -1.2101
  493MOL0     C66482   1.397   9.298  10.659 -1.4003 -1.0157  0.1973
  493MOL0     C66483   1.509   9.191  10.659  0.5136 -0.3085 -0.3824
  493MOL0     C66484   1.604   9.183  10.550 -0.0464 -0.3467 -0.0678
  493MOL0     C66485   1.680   9.185  10.458  0.2250  0.2942  0.4919
  493MOL0     C66486   1.004   9.603  10.676  0.0578  1.1673  0.1427
  493MOL0     C66487   0.898   9.685  10.643  0.0014  0.2580 -0.3073
  493MOL0     H66488   0.404   9.809  10.506 -0.6185  0.4448 -0.6434
  493MOL0     H66489   0.237   9.978  10.488  0.1947 -2.4317  0.0687
  493MOL0     H66490   0.162  10.135  10.310  0.0931 -0.0238 -0.5183
  493MOL0     H66491   0.091  10.144  10.479  0.7081  0.0757  0.9737
  493MOL0     H66492  -0.023  10.298  10.356  0.2095  0.7907 -1.3522
  493MOL0     H66493   0.095  10.397  10.462  0.7435  1.1974 -0.3757
  493MOL0     H66494   0.221  10.444  10.267 -1.2513  0.8653  1.4195
  493MOL0     H66495   0.121  10.341  10.152  1.4822  1.2933 -0.9297
  493MOL0     H66496   0.038  10.585  10.305 -2.2821  0.8282 -1.1332
  493MOL0     H66497   0.093  10.571  10.139  0.0046 -0.8588 -0.5700
  493MOL0     H66498  -0.068  10.405  10.081  0.1551  1.7900 -0.0617
  493MOL0     H66499  -0.150  10.414  10.227 -0.7248 -0.6261  0.1715
  493MOL0     H66500  -0.141  10.691  10.134 -2.0050  1.0269  0.9397
  493MOL0     H66501  -0.182  10.601  10.004 -0.5962  1.9689  0.3667
  493MOL0     H66502  -0.387  10.644  10.100 -1.5767  0.2903  0.6003
  493MOL0     H66503  -0.362  10.486  10.170  0.4050 -0.0517 -2.5965
  493MOL0     H66504  -0.410  10.693  10.314  1.7149  3.3201  0.0879
  493MOL0     H66505  -0.227  10.718  10.318  1.8482 -2.6257 -0.2966
  493MOL0     H66506  -0.132  10.658  10.533  0.8145 -0.3537  3.4987
  493MOL0     H66507  -0.195  10.332  10.743  1.0034 -0.5062 -0.1071
  493MOL0     H66508  -0.032  10.381  10.670  0.8530  1.3795  1.2879
  493MOL0     H66509  -0.208  10.530  10.887  0.4444  2.4035 -0.7603
  493MOL0     H66510  -0.074  10.598  10.811 -2.9015  1.7258 -0.4454
  493MOL0     H66511   0.050  10.386  10.878  0.7391  3.4038 -2.0907
  493MOL0     H66512  -0.078  10.363  10.999  3.2249 -1.3390  0.6950
  493MOL0     H66513   0.089  10.622  10.966 -1.5604  0.0069 -1.0150
  493MOL0     H66514   0.135  10.498  11.086  2.4085  3.1336  0.3160
  493MOL0     H66515  -0.158  10.715  11.316 -4.1793 -0.7619 -0.2794
  493MOL0     H66516  -0.373  10.595  11.568  0.4166 -0.0181  2.7368
  493MOL0     H66517  -0.210  10.615  11.640  0.9954  0.7369 -0.6914
  493MOL0     H66518  -0.261  10.733  11.516 -1.6720 -0.2403 -0.3470
  493MOL0     H66519  -0.191  10.022  11.726  0.2113  0.8721  1.2294
  493MOL0     H66520  -0.333   9.883  11.875  0.8569  1.7561  2.0852
  493MOL0     H66521  -0.665  10.022  12.008  2.6731 -0.9058 -1.4948
  493MOL0     H66522  -0.788   9.978  11.892 -1.0334 -1.7509  0.3242
  493MOL0     H66523  -0.717   9.815  12.138  1.1007 -3.6975 -2.9633
  493MOL0     H66524  -0.868   9.893  12.091 -0.2511  0.3801  0.4980
  493MOL0     H66525  -0.753   9.654  11.946 -0.6520 -2.3228 -0.0058
  493MOL0     H66526  -0.923   9.711  11.935 -0.1282 -3.1958 -0.0214
  493MOL0     H66527  -0.825   9.586  12.201  0.1957 -0.5137 -1.6289
  493MOL0     H66528  -0.985   9.653  12.153 -2.0731 -1.1225 -1.7271
  493MOL0     H66529  -0.880   9.400  12.022  1.5148 -0.1240 -3.5279
  493MOL0     H66530  -0.985   9.522  11.956  1.7752  2.6352  1.7364
  493MOL0     H66531  -1.011   9.394  12.228 -0.6454 -1.3145  0.0197
  493MOL0     H66532  -1.140   9.480  12.148 -0.6025 -1.1723  3.2226
  493MOL0     H66533  -1.199   9.241  12.140  0.0854 -0.7631 -1.3370
  493MOL0     H66534  -1.047   9.195  12.087  0.2451 -1.1199 -0.3288
  493MOL0     H66535  -1.094   9.347  11.865 -1.2752  1.7563 -0.3329
  493MOL0     H66536  -1.254   9.348  11.912 -1.7589 -0.1097  3.5438
  493MOL0     H66537  -0.681  10.085  11.733  0.2444 -1.6175 -2.3630
  493MOL0     H66538  -0.563  10.205  11.564 -1.3222  0.4696  0.5219
  493MOL0     H66539  -0.117  10.221  11.353  0.6983 -0.3556 -0.7924
  493MOL0     H66540   0.003  10.336  11.184 -1.2124  0.9217 -2.4769
  493MOL0     H66541   0.529  10.279  10.532  0.9521  1.4757 -0.7374
  493MOL0     H66542   0.706  10.101  10.569 -0.0406  2.7612 -0.9936
  493MOL0     H66543   0.717   9.446  10.479  1.7151  0.1083 -0.8172
  493MOL0     H66544   0.893   9.314  10.537 -1.8470  0.3475  0.1407
  493MOL0     H66545   1.235   9.507  10.734  0.4950  0.0569  2.5842
  493MOL0     H66546   1.137   9.424  10.858 -0.5046 -0.3161  0.3299
  493MOL0     H66547   1.263   9.222  10.800 -1.6867  1.1745  0.9998
  493MOL0     H66548   1.365   9.343  10.873 -1.0526  0.1489 -0.4366
  493MOL0     H66549   1.455   9.390  10.644  2.8455 -2.8305  3.5746
  493MOL0     H66550   1.334   9.265  10.576  0.8256 -0.0646 -2.0123
  493MOL0     H66551   1.462   9.092  10.657  1.1826 -0.6243 -2.0188
  493MOL0     H66552   1.568   9.203  10.751 -1.7223  0.5522  1.0360
  493MOL0     H66553   1.731   9.181  10.364 -2.7252 -0.3118 -1.1682
  493MOL0     H66554   1.089   9.652  10.724 -1.4535  1.5161  2.6793
  493MOL0     H66555   0.893   9.788  10.676 -1.2601  0.1577 -0.1633
  494MOL0     O66556   2.978   3.814   5.895  0.4305 -0.1701 -0.6317
  494MOL0     C66557   3.077   3.792   5.820  0.0700 -0.3038  0.9539
  494MOL0     O66558   3.095   3.670   5.746 -0.1117 -0.2514  0.6206
  494MOL0     C66559   2.991   3.586   5.760  0.1783  0.4710  0.3694
  494MOL0     C66560   2.878   3.593   5.677 -1.2516 -0.1469 -0.0164
  494MOL0     C66561   2.763   3.526   5.711 -0.7105 -0.3559  0.3865
  494MOL0     C66562   2.759   3.438   5.819 -0.1650  0.4470 -1.3540
  494MOL0     O66563   2.644   3.371   5.859 -0.1757 -0.4750  0.5162
  494MOL0     C66564   2.636   3.230   5.829 -0.1088 -0.4025 -0.2017
  494MOL0     C66565   2.571   3.156   5.954  0.2104 -0.7904  1.0579
  494MOL0     C66566   2.671   3.135   6.064  0.1840 -0.1612 -0.4452
  494MOL0     C66567   2.651   3.255   6.152  0.1535  0.3855  0.5522
  494MOL0     C66568   2.748   3.241   6.272 -1.1127  0.0423  0.4331
  494MOL0     C66569   2.732   3.358   6.365  0.9843  0.2761  0.0642
  494MOL0     C66570   2.855   3.434   6.397  0.1475  0.8420 -0.3952
  494MOL0     C66571   2.899   3.542   6.292 -0.5578 -0.0049  0.3231
  494MOL0     N66572   2.806   3.656   6.300 -0.5532  0.0493  0.6389
  494MOL0     C66573   2.790   3.749   6.200 -0.8648  0.2830 -0.3563
  494MOL0     C66574   2.715   3.845   6.259 -0.2574 -0.0321 -0.1432
  494MOL0     C66575   2.678   3.971   6.195  0.3443 -0.0618 -0.6819
  494MOL0     C66576   2.778   4.082   6.218 -0.3715  0.1290 -1.0148
  494MOL0     C66577   2.865   4.109   6.100 -0.1773  0.6070  0.4318
  494MOL0     C66578   2.961   4.228   6.116 -0.5516 -0.0526 -0.0745
  494MOL0     O66579   3.071   4.192   6.199 -0.2023 -0.4371  0.8571
  494MOL0     C66580   3.177   4.285   6.186 -0.6785 -0.4461  0.2527
  494MOL0     C66581   3.167   4.429   6.180 -0.6708  0.3105 -0.1749
  494MOL0     C66582   3.286   4.512   6.172 -0.1241 -0.4759 -0.0746
  494MOL0     C66583   3.264   4.659   6.153 -0.1827  0.5766  0.3550
  494MOL0     C66584   3.414   4.455   6.173 -0.0907  0.2001 -1.2405
  494MOL0     C66585   3.539   4.534   6.168  1.2791  0.7581  0.1701
  494MOL0     O66586   3.539   4.661   6.220 -0.5635 -0.3673  0.7698
  494MOL0     C66587   3.656   4.729   6.206  0.3493  1.0695  0.0590
  494MOL0     C66588   3.774   4.685   6.269  0.0972 -0.4334 -0.0707
  494MOL0     C66589   3.894   4.768   6.242  0.3652  0.6281  0.8390
  494MOL0     C66590   3.882   4.874   6.153  0.9032 -0.1015  0.7744
  494MOL0     O66591   3.997   4.953   6.131 -0.4270 -0.6928  0.1843
  494MOL0     C66592   4.032   5.022   6.258  0.4023  0.4118 -0.5036
  494MOL0     C66593   4.154   5.105   6.231  0.0075  0.2277  0.3551
  494MOL0     C66594   4.198   5.169   6.361  1.0526 -0.5726  0.0487
  494MOL0     C66595   4.209   5.325   6.328 -0.2400 -0.3361 -0.7662
  494MOL0     C66596   4.321   5.349   6.230  0.6835  0.3336  0.9826
  494MOL0     C66597   4.326   5.493   6.183  0.2608  0.3685 -0.0558
  494MOL0     C66598   4.439   5.519   6.080  0.0491  0.1357  1.2454
  494MOL0     C66599   4.436   5.656   6.019 -0.0506 -0.1726  0.7343
  494MOL0    Cl66600   4.568   5.671   5.899 -0.2878 -0.0626 -0.1800
  494MOL0     C66601   3.755   4.921   6.103 -0.1199  0.5623  0.3328
  494MOL0     C66602   3.642   4.851   6.140 -0.4316  1.1591  0.0696
  494MOL0     O66603   3.636   4.472   6.124 -0.3056 -0.2305 -0.1072
  494MOL0     C66604   3.422   4.310   6.182 -0.1116  0.1850  0.1984
  494MOL0     C66605   3.309   4.230   6.181  0.0239  0.4950  0.1798
  494MOL0     N66606   2.666   3.802   6.378  0.5548 -0.3411  0.2081
  494MOL0     N66607   2.711   3.688   6.394 -0.4474  0.5722 -0.2450
  494MOL0     C66608   2.869   3.432   5.895 -0.5131  0.3731 -0.1496
  494MOL0     C66609   2.979   3.512   5.873 -0.4959  1.4143 -0.1787
  494MOL0     C66610   3.183   3.890   5.808  0.3721 -1.6172 -0.4733
  494MOL0     C66611   3.290   3.876   5.718  1.2593 -0.5312  0.8181
  494MOL0     C66612   3.376   3.984   5.706 -0.1599 -0.1182  0.9050
  494MOL0     C66613   3.363   4.097   5.775 -0.3061  0.6058 -0.6671
  494MOL0     O66614   3.465   4.185   5.754 -0.5585  0.1336 -0.0129
  494MOL0     C66615   3.474   4.304   5.837  0.3746 -0.2656  0.4226
  494MOL0     C66616   3.573   4.395   5.773 -0.0130  0.7496  0.2590
  494MOL0     C66617   3.717   4.333   5.769 -0.3019  0.5585  0.1964
  494MOL0     C66618   3.810   4.432   5.687  0.4411 -0.1451 -0.1187
  494MOL0     C66619   3.837   4.558   5.764 -0.2637 -0.6292 -0.4917
  494MOL0     C66620   3.872   4.645   5.841  0.3584 -0.6893 -1.4472
  494MOL0     C66621   3.254   4.113   5.864  0.1664  0.1201  0.2937
  494MOL0     C66622   3.173   4.007   5.882 -0.6881  0.5976 -0.1656
  494MOL0     H66623   2.884   3.678   5.610  1.8503 -0.4555 -0.2582
  494MOL0     H66624   2.669   3.533   5.658 -0.2450  0.0146 -0.3944
  494MOL0     H66625   2.574   3.213   5.741 -0.3341 -1.3445  0.1280
  494MOL0     H66626   2.737   3.192   5.811 -0.4096 -0.9327 -0.8265
  494MOL0     H66627   2.480   3.205   5.988  2.3172  2.7709  2.1057
  494MOL0     H66628   2.540   3.056   5.922 -0.0587 -0.2754 -0.3571
  494MOL0     H66629   2.652   3.050   6.130  1.1312  0.7166  1.0412
  494MOL0     H66630   2.773   3.126   6.026  0.4241 -1.9575  0.5015
  494MOL0     H66631   2.671   3.351   6.104 -1.9051  1.2032  1.2577
  494MOL0     H66632   2.549   3.251   6.191  0.7234 -1.2346  2.0154
  494MOL0     H66633   2.722   3.148   6.322 -0.6420 -0.5728 -0.4320
  494MOL0     H66634   2.853   3.232   6.241 -1.9754 -1.3207 -2.5631
  494MOL0     H66635   2.654   3.424   6.327  0.4718 -0.5361 -0.3080
  494MOL0     H66636   2.693   3.321   6.460 -0.6309  2.0516  0.1575
  494MOL0     H66637   2.829   3.476   6.495 -3.5639 -2.2855  0.2437
  494MOL0     H66638   2.937   3.362   6.409 -0.1370  0.8269  2.0588
  494MOL0     H66639   2.908   3.492   6.195  0.8186 -1.2560  1.0451
  494MOL0     H66640   2.990   3.593   6.325  1.2024 -2.0793 -1.0487
  494MOL0     H66641   2.826   3.760   6.098 -0.6272  0.3767 -0.2637
  494MOL0     H66642   2.685   3.958   6.086 -2.2342  3.8799 -1.5220
  494MOL0     H66643   2.574   3.998   6.214  0.3476 -0.9540  0.7544
  494MOL0     H66644   2.837   4.058   6.307 -1.6715  2.3704  0.5565
  494MOL0     H66645   2.726   4.176   6.236 -1.5364  0.0410 -3.5444
  494MOL0     H66646   2.794   4.122   6.018 -3.1934 -2.4370  2.3427
  494MOL0     H66647   2.917   4.015   6.078  0.1869  0.6897  0.9179
  494MOL0     H66648   2.912   4.317   6.158 -1.1630  0.6372 -2.0962
  494MOL0     H66649   3.006   4.263   6.023  2.1989  1.3405  1.6319
  494MOL0     H66650   3.080   4.493   6.190  1.4212  3.3383  0.3966
  494MOL0     H66651   3.161   4.691   6.135 -1.1437 -1.1094  2.4414
  494MOL0     H66652   3.295   4.709   6.245  4.2315 -0.9840 -0.0350
  494MOL0     H66653   3.332   4.702   6.079 -2.6325  3.4685 -0.4052
  494MOL0     H66654   3.780   4.592   6.325  1.6474  0.9479  2.2753
  494MOL0     H66655   3.993   4.735   6.270  0.7769  3.0617  2.5551
  494MOL0     H66656   3.948   5.085   6.287 -0.4319  0.4349 -2.7122
  494MOL0     H66657   4.047   4.949   6.337 -4.1612 -1.0044 -0.6587
  494MOL0     H66658   4.232   5.044   6.184  1.3856  1.0607  1.4754
  494MOL0     H66659   4.119   5.178   6.157  0.8925 -0.4594 -0.7778
  494MOL0     H66660   4.293   5.124   6.393 -0.0070 -1.4828  2.0900
  494MOL0     H66661   4.123   5.149   6.438 -1.1097  0.1708 -1.7569
  494MOL0     H66662   4.113   5.355   6.286 -1.8457 -0.2432  2.6201
  494MOL0     H66663   4.214   5.384   6.420 -2.1650 -1.6196  0.2204
  494MOL0     H66664   4.305   5.289   6.140 -1.1917  0.0930  1.4455
  494MOL0     H66665   4.421   5.335   6.274  0.9485 -1.5935 -0.1457
  494MOL0     H66666   4.235   5.528   6.135 -0.3633 -1.4152 -0.2297
  494MOL0     H66667   4.340   5.559   6.269  4.9108  1.9350 -1.7151
  494MOL0     H66668   4.435   5.449   5.995  3.1762  1.3606 -0.0735
  494MOL0     H66669   4.535   5.498   6.129 -0.6463 -1.4056  1.9858
  494MOL0     H66670   4.429   5.741   6.087 -0.7311  0.3538  0.0282
  494MOL0     H66671   4.344   5.662   5.960  1.3974  1.1654 -1.5392
  494MOL0     H66672   3.755   5.006   6.036  0.4602  1.6078  1.6178
  494MOL0     H66673   3.541   4.875   6.107 -1.8398 -1.5778  1.9918
  494MOL0     H66674   3.520   4.263   6.178 -0.4821 -0.6732  0.9195
  494MOL0     H66675   3.321   4.122   6.183 -1.3774  0.3213  1.2926
  494MOL0     H66676   2.871   3.371   5.985  0.5750  1.3327  0.5116
  494MOL0     H66677   3.067   3.504   5.936 -0.2114 -1.5574 -0.7906
  494MOL0     H66678   3.303   3.788   5.656  0.7253  1.4791 -2.3763
  494MOL0     H66679   3.466   3.973   5.646 -0.1960  1.3656  0.5431
  494MOL0     H66680   3.375   4.349   5.839  0.0942 -0.6591 -2.0222
  494MOL0     H66681   3.509   4.284   5.939 -1.7226 -2.2977  0.8205
  494MOL0     H66682   3.594   4.485   5.832  2.5154 -0.2047  0.9580
  494MOL0     H66683   3.544   4.415   5.669 -2.3685 -0.3559  0.6371
  494MOL0     H66684   3.708   4.239   5.713 -3.2795 -0.1271  1.5716
  494MOL0     H66685   3.749   4.315   5.872  0.5649  0.6424 -0.0523
  494MOL0     H66686   3.757   4.465   5.597  0.1996 -2.3265 -0.8336
  494MOL0     H66687   3.899   4.375   5.662 -0.6049 -1.3418 -1.2514
  494MOL0     H66688   3.899   4.725   5.906 -2.1081 -0.7335 -0.2407
  494MOL0     H66689   3.234   4.207   5.915 -3.7693  1.4048 -3.0353
  494MOL0     H66690   3.097   4.007   5.959  1.5140 -0.6345  2.1800
  495MOL0     O66691   6.644   4.925   4.238 -0.1488 -0.1820 -0.6208
  495MOL0     C66692   6.684   4.996   4.327 -0.8840  0.5379  0.2199
  495MOL0     O66693   6.814   5.023   4.339 -0.0217 -0.0829 -0.7718
  495MOL0     C66694   6.924   4.997   4.263 -0.2050 -0.0893  0.8349
  495MOL0     C66695   6.929   4.969   4.124 -1.3586  0.0398  0.7317
  495MOL0     C66696   7.060   4.937   4.067 -0.0970  0.0636 -0.8303
  495MOL0     C66697   7.179   4.943   4.153  0.1235 -0.4172 -0.0640
  495MOL0     O66698   7.305   4.943   4.103  0.1466 -0.1109  0.3074
  495MOL0     C66699   7.330   4.936   3.961 -0.4204  0.6586 -0.4752
  495MOL0     C66700   7.464   4.994   3.939  0.4505  0.1790  0.4760
  495MOL0     C66701   7.506   4.957   3.796 -0.0493 -0.7940  0.4614
  495MOL0     C66702   7.645   5.008   3.766 -0.6584 -1.2253 -0.0881
  495MOL0     C66703   7.681   5.001   3.616 -0.6359  1.5536 -0.4030
  495MOL0     C66704   7.839   4.978   3.593 -0.1299  0.1859  1.4093
  495MOL0     C66705   7.857   4.917   3.453 -0.3682  0.1561 -0.3380
  495MOL0     C66706   7.999   4.860   3.415 -0.6522 -0.5605  0.2184
  495MOL0     N66707   8.106   4.964   3.429 -0.0778  0.2174 -0.2805
  495MOL0     C66708   8.115   5.076   3.360  0.8367  0.0532 -0.2595
  495MOL0     C66709   8.222   5.140   3.405 -0.6388 -0.2706  0.1113
  495MOL0     C66710   8.290   5.264   3.356 -0.5670  0.4381  0.0883
  495MOL0     C66711   8.427   5.239   3.303  0.0158  0.7219 -0.4558
  495MOL0     C66712   8.534   5.246   3.415 -0.9959 -0.3358 -0.3819
  495MOL0     C66713   8.672   5.258   3.358  0.8951  0.3711  0.1423
  495MOL0     O66714   8.772   5.251   3.455  0.3518 -0.4050  0.5533
  495MOL0     C66715   8.887   5.204   3.396 -0.0202 -0.4033 -0.1386
  495MOL0     C66716   8.924   5.228   3.267  0.8648  0.7353  0.4868
  495MOL0     C66717   9.038   5.182   3.211 -0.4013  0.9441 -0.2564
  495MOL0     C66718   9.074   5.240   3.069 -0.7685 -0.0640 -0.6128
  495MOL0     C66719   9.128   5.105   3.291  0.1350  0.1384 -0.7773
  495MOL0     C66720   9.257   5.048   3.242  0.2308  0.1694  0.8334
  495MOL0     O66721   9.269   5.040   3.104 -0.3021  0.1936  0.0239
  495MOL0     C66722   9.390   4.998   3.049 -0.7761  0.2013 -0.1892
  495MOL0     C66723   9.506   5.074   3.073  0.1611 -0.2933  0.8890
  495MOL0     C66724   9.634   5.027   3.029 -0.1421 -0.2161  0.7832
  495MOL0     C66725   9.644   4.904   2.959  0.7397 -0.1465 -0.2915
  495MOL0     O66726   9.766   4.876   2.915  0.8478 -0.6634  0.3416
  495MOL0     C66727   9.869   4.848   3.009  0.1532  1.0812 -0.4480
  495MOL0     C66728   9.985   4.777   2.942  0.4754 -0.3173 -0.3953
  495MOL0     C66729  10.053   4.850   2.827  0.1020 -0.4940 -0.0261
  495MOL0     C66730  10.132   4.971   2.879  0.5990  0.4351  0.2807
  495MOL0     C66731  10.248   5.004   2.780 -0.3055 -0.8738  0.2198
  495MOL0     C66732  10.373   4.920   2.810 -0.5660 -0.5558 -0.3896
  495MOL0     C66733  10.506   4.964   2.744 -0.0489 -0.5672 -0.2152
  495MOL0     C66734  10.497   4.963   2.595  0.5027  0.9851  0.1967
  495MOL0    Cl66735  10.498   4.786   2.551 -0.6335  0.0929 -0.0294
  495MOL0     C66736   9.523   4.834   2.932 -0.6153 -0.2012 -0.3773
  495MOL0     C66737   9.399   4.889   2.966  0.0911 -0.4461 -0.0474
  495MOL0     O66738   9.343   5.005   3.316 -0.1494 -1.0829  0.4306
  495MOL0     C66739   9.089   5.069   3.418  0.0896  0.2601 -0.5235
  495MOL0     C66740   8.969   5.119   3.470  0.0475 -0.4586 -1.4408
  495MOL0     N66741   8.277   5.060   3.512 -0.1514 -0.4960  0.6585
  495MOL0     N66742   8.202   4.957   3.521 -0.0373 -0.7905 -0.6164
  495MOL0     C66743   7.164   4.960   4.288  0.2428 -0.7928  0.1110
  495MOL0     C66744   7.036   4.986   4.345 -0.0886  0.9514  0.9643
  495MOL0     C66745   6.585   5.060   4.411 -0.2933 -0.3015  0.4243
  495MOL0     C66746   6.621   5.141   4.524 -0.1433  0.0573  0.9076
  495MOL0     C66747   6.518   5.209   4.594  0.7467 -0.3950 -0.5768
  495MOL0     C66748   6.384   5.200   4.556  0.2821 -0.3974  0.3316
  495MOL0     O66749   6.301   5.287   4.625  0.1264  0.4288 -0.0725
  495MOL0     C66750   6.163   5.250   4.639  0.3581 -0.3148 -0.2911
  495MOL0     C66751   6.134   5.117   4.718 -0.0397  1.0577  0.9395
  495MOL0     C66752   5.994   5.054   4.682  0.6083 -0.0404 -0.6818
  495MOL0     C66753   6.002   4.902   4.689  0.0328 -0.9739 -0.5145
  495MOL0     C66754   6.076   4.849   4.570 -0.7628 -0.3234  1.0711
  495MOL0     C66755   6.120   4.798   4.469 -0.4895  0.7350  0.3814
  495MOL0     C66756   6.348   5.112   4.450  0.1688 -0.5063 -0.1478
  495MOL0     C66757   6.449   5.049   4.377 -0.0100  0.4231  0.4052
  495MOL0     H66758   6.832   4.971   4.076 -2.8439  1.2534  3.5655
  495MOL0     H66759   7.056   4.929   3.959 -0.1436 -0.7221 -0.7749
  495MOL0     H66760   7.328   4.827   3.952 -0.4390  0.4832  1.2018
  495MOL0     H66761   7.256   4.979   3.893 -1.7937 -1.1617 -0.2200
  495MOL0     H66762   7.451   5.101   3.956 -0.9070 -0.3631  3.4712
  495MOL0     H66763   7.538   4.956   4.011  0.5156 -3.1717 -1.1773
  495MOL0     H66764   7.513   4.848   3.793 -1.6705 -0.9150 -2.3945
  495MOL0     H66765   7.436   5.003   3.725 -0.4438 -1.6131  0.3124
  495MOL0     H66766   7.651   5.112   3.799  0.9878 -1.4404  0.3939
  495MOL0     H66767   7.724   4.961   3.826 -0.5423  0.8419  1.4988
  495MOL0     H66768   7.638   4.915   3.565  1.3211 -0.4507  1.1377
  495MOL0     H66769   7.641   5.090   3.566 -1.5080  2.0856  1.1598
  495MOL0     H66770   7.904   5.066   3.596 -1.7648  1.5061  0.0321
  495MOL0     H66771   7.888   4.910   3.663  1.4340  1.0045  1.1432
  495MOL0     H66772   7.790   4.831   3.451 -3.3168  2.3285 -2.0311
  495MOL0     H66773   7.813   4.979   3.375 -2.2904  1.3073  1.5625
  495MOL0     H66774   8.010   4.827   3.311  3.2174 -2.3838  0.9981
  495MOL0     H66775   8.023   4.773   3.477 -2.0454 -0.2970  1.1652
  495MOL0     H66776   8.058   5.117   3.278  3.7175  2.0218 -1.4176
  495MOL0     H66777   8.228   5.298   3.273 -0.7776  2.2162  0.9345
  495MOL0     H66778   8.302   5.340   3.435  1.8690 -1.0301  1.2546
  495MOL0     H66779   8.457   5.315   3.230  0.3992 -0.2672 -1.3537
  495MOL0     H66780   8.426   5.144   3.248 -3.1312  0.4229 -0.0967
  495MOL0     H66781   8.534   5.153   3.473 -0.2129 -0.5975 -0.7789
  495MOL0     H66782   8.514   5.334   3.476 -0.6139  1.5598 -2.8160
  495MOL0     H66783   8.681   5.357   3.312 -0.7715  1.1840  1.4648
  495MOL0     H66784   8.678   5.175   3.288 -0.6823 -0.6258  1.1195
  495MOL0     H66785   8.865   5.297   3.207  1.8045  0.7582 -0.4478
  495MOL0     H66786   9.090   5.165   2.991  1.2309  1.8293 -2.1291
  495MOL0     H66787   9.001   5.311   3.030 -1.1262 -1.2156 -2.1294
  495MOL0     H66788   9.172   5.288   3.079 -0.9267 -0.2385  3.6347
  495MOL0     H66789   9.499   5.164   3.133 -2.4260  1.3978 -1.6637
  495MOL0     H66790   9.728   5.078   3.048 -0.1216  0.4524 -0.9211
  495MOL0     H66791   9.913   4.937   3.056  1.0959  0.7043 -0.6004
  495MOL0     H66792   9.830   4.790   3.093  1.3401  2.6324  1.2706
  495MOL0     H66793  10.058   4.764   3.023 -2.2654 -1.0865  2.1352
  495MOL0     H66794   9.950   4.679   2.907 -3.3181 -0.3512  2.7388
  495MOL0     H66795   9.973   4.882   2.760  0.3905 -0.3782 -0.3171
  495MOL0     H66796  10.125   4.785   2.777  1.0167 -0.5689  1.3148
  495MOL0     H66797  10.062   5.052   2.905 -1.9495 -0.6216 -2.6098
  495MOL0     H66798  10.181   4.940   2.972  1.1807 -0.5996 -0.3543
  495MOL0     H66799  10.266   5.111   2.795 -1.0425 -0.6572 -0.3990
  495MOL0     H66800  10.209   4.992   2.679 -0.0763 -0.6460  0.1035
  495MOL0     H66801  10.390   4.906   2.917 -2.5535 -4.7736 -0.4183
  495MOL0     H66802  10.353   4.817   2.779 -3.2671 -0.0035 -0.7340
  495MOL0     H66803  10.596   4.907   2.767  0.7421 -1.0709 -3.9129
  495MOL0     H66804  10.525   5.064   2.786  0.3420 -0.4614 -0.6368
  495MOL0     H66805  10.584   5.014   2.554 -0.8693  2.4051 -1.1042
  495MOL0     H66806  10.400   5.007   2.569 -0.6124 -0.3811  1.8058
  495MOL0     H66807   9.520   4.748   2.865  1.4856  0.9336 -2.0633
  495MOL0     H66808   9.314   4.826   2.942 -0.1624 -0.3235  0.5225
  495MOL0     H66809   9.162   5.017   3.479 -0.3752  2.2975  1.9740
  495MOL0     H66810   8.932   5.094   3.568  1.5713  4.7592  0.8148
  495MOL0     H66811   7.244   4.963   4.361 -1.4499  2.9588  2.0860
  495MOL0     H66812   7.025   4.989   4.453 -3.0031 -3.3482  1.0521
  495MOL0     H66813   6.725   5.153   4.552 -0.3405  0.5906  1.4345
  495MOL0     H66814   6.538   5.282   4.672  1.1314 -0.9229 -0.1820
  495MOL0     H66815   6.125   5.336   4.696  1.6224  0.0919 -0.0132
  495MOL0     H66816   6.113   5.253   4.542  2.3937 -2.4535 -1.5227
  495MOL0     H66817   6.141   5.129   4.827  0.8523  2.7771  0.7189
  495MOL0     H66818   6.219   5.052   4.695 -0.7915  0.3907 -0.0254
  495MOL0     H66819   5.973   5.086   4.579  0.1481  2.7681  0.2063
  495MOL0     H66820   5.922   5.083   4.758  1.5631 -0.4184  0.3932
  495MOL0     H66821   5.900   4.865   4.697  0.0838 -0.8570  0.9715
  495MOL0     H66822   6.055   4.872   4.781 -1.0569 -3.3927 -0.5877
  495MOL0     H66823   6.164   4.760   4.379  0.5168 -1.5498  1.7561
  495MOL0     H66824   6.243   5.093   4.427  0.4502  0.5421 -2.6536
  495MOL0     H66825   6.420   4.988   4.292 -1.0087  0.2136  0.8792
  496MOL0     O66826   2.763   4.869   1.167  0.6504  0.1550 -0.1985
  496MOL0     C66827   2.693   4.957   1.206  0.2082 -0.0913  0.6210
  496MOL0     O66828   2.742   5.083   1.234  0.1700  0.1569  0.0633
  496MOL0     C66829   2.870   5.126   1.208 -0.2775 -0.6285 -0.4352
  496MOL0     C66830   2.916   5.230   1.290  0.4860 -0.3588 -0.8602
  496MOL0     C66831   3.045   5.279   1.267  0.7244 -0.8388 -0.4064
  496MOL0     C66832   3.122   5.235   1.158 -0.0109 -0.1376  0.1291
  496MOL0     O66833   3.237   5.289   1.123  0.0003  1.1530 -0.2863
  496MOL0     C66834   3.236   5.378   1.011 -0.0313 -0.7177  0.4664
  496MOL0     C66835   3.358   5.473   1.007  0.6436  0.7754  0.2433
  496MOL0     C66836   3.310   5.605   1.062 -0.2115  0.5692 -0.1973
  496MOL0     C66837   3.227   5.686   0.977 -0.0522 -0.2401 -0.3617
  496MOL0     C66838   3.180   5.822   1.023 -0.5308 -1.2283  0.1683
  496MOL0     C66839   3.101   5.839   1.154  0.6816  1.2173  0.1307
  496MOL0     C66840   2.954   5.790   1.125  0.0562  0.7362  0.3756
  496MOL0     C66841   2.855   5.811   1.232 -0.0349 -0.2922  0.5980
  496MOL0     N66842   2.737   5.719   1.218  0.4795  0.0731  0.1320
  496MOL0     C66843   2.744   5.582   1.241  0.9054  0.9325 -0.3919
  496MOL0     C66844   2.621   5.533   1.204 -0.0784 -0.0856 -0.0581
  496MOL0     C66845   2.583   5.388   1.184  0.0284 -0.0961 -0.2643
  496MOL0     C66846   2.639   5.333   1.052  0.0630  0.2335  0.1036
  496MOL0     C66847   2.626   5.408   0.917  0.0568 -0.7124 -0.1839
  496MOL0     C66848   2.707   5.355   0.798  0.0117  1.5530 -0.7017
  496MOL0     O66849   2.851   5.371   0.810 -0.7726  0.1650 -0.0809
  496MOL0     C66850   2.930   5.303   0.716 -0.0328 -0.6233  0.8250
  496MOL0     C66851   3.056   5.363   0.694 -0.3233 -0.2467  0.6989
  496MOL0     C66852   3.143   5.313   0.601  0.2562  0.7378 -0.0004
  496MOL0     C66853   3.258   5.405   0.560 -0.0401  0.2044 -0.1809
  496MOL0     C66854   3.115   5.203   0.523 -0.0176  0.8082  0.1591
  496MOL0     C66855   3.222   5.139   0.431  0.0505  0.3046 -0.0294
  496MOL0     O66856   3.172   5.032   0.368 -0.6233 -0.0883 -0.4888
  496MOL0     C66857   3.216   5.007   0.239 -0.0523 -0.1913 -0.0658
  496MOL0     C66858   3.243   4.878   0.205  0.1368 -0.6465 -0.2608
  496MOL0     C66859   3.292   4.843   0.074 -0.7413  0.2348 -0.2948
  496MOL0     C66860   3.320   4.947  -0.019  0.1244  0.6146 -0.1770
  496MOL0     O66861   3.371   4.919  -0.141  0.1510  0.2052 -0.5889
  496MOL0     C66862   3.503   4.867  -0.144 -0.5277  0.5003  0.4722
  496MOL0     C66863   3.565   4.923  -0.274 -0.6171  0.4592 -0.5662
  496MOL0     C66864   3.709   4.892  -0.284 -0.5349 -0.3122 -0.5059
  496MOL0     C66865   3.788   4.991  -0.201 -0.4103  0.9030  0.4742
  496MOL0     C66866   3.944   4.990  -0.206  0.4817 -0.1003  0.4090
  496MOL0     C66867   3.994   5.020  -0.343 -0.2134 -0.3129  0.3481
  496MOL0     C66868   4.042   4.881  -0.383  0.7181  0.1604  0.7106
  496MOL0     C66869   4.113   4.880  -0.515 -0.1121  0.1755  0.2304
  496MOL0    Cl66870   4.272   4.962  -0.493  0.4630  0.1588 -0.2940
  496MOL0     C66871   3.276   5.072   0.011  0.4383  0.2054  0.3943
  496MOL0     C66872   3.216   5.104   0.139 -0.3404  0.3756  0.1505
  496MOL0     O66873   3.334   5.185   0.403  0.4384  0.7584 -0.1878
  496MOL0     C66874   2.994   5.136   0.541  0.1291 -0.8082  0.2075
  496MOL0     C66875   2.900   5.185   0.636 -0.7218  0.4974 -0.8189
  496MOL0     N66876   2.539   5.645   1.171 -0.3014  0.0645  0.2680
  496MOL0     N66877   2.610   5.748   1.180 -0.0701 -0.2657 -0.3002
  496MOL0     C66878   3.063   5.137   1.071 -0.5003 -0.0985  0.4548
  496MOL0     C66879   2.946   5.079   1.103  0.7558  0.7349 -0.1742
  496MOL0     C66880   2.549   4.927   1.257  0.2152  0.0957 -0.8306
  496MOL0     C66881   2.468   5.040   1.282  0.3044 -0.1928 -0.4273
  496MOL0     C66882   2.336   5.015   1.332 -0.2165 -0.0618 -0.0152
  496MOL0     C66883   2.293   4.884   1.348 -0.3580  0.6222  0.3582
  496MOL0     O66884   2.174   4.859   1.409  0.7051 -0.8015  0.4000
  496MOL0     C66885   2.138   4.733   1.474 -0.6931 -0.3237 -0.1050
  496MOL0     C66886   2.048   4.658   1.378  0.1050  0.3962  0.4139
  496MOL0     C66887   1.938   4.567   1.452  0.3390  0.3707  0.0143
  496MOL0     C66888   1.826   4.535   1.359 -0.0336 -0.4033  1.5156
  496MOL0     C66889   1.754   4.657   1.327 -0.1820  0.2801  0.4838
  496MOL0     C66890   1.705   4.767   1.317  1.5564  0.1197  0.0139
  496MOL0     C66891   2.374   4.772   1.309  0.0395  1.4541  0.9302
  496MOL0     C66892   2.506   4.798   1.269 -0.7260  0.2555  0.0674
  496MOL0     H66893   2.864   5.277   1.373  4.8576  0.1530  1.9384
  496MOL0     H66894   3.081   5.353   1.338  2.3942  0.0701 -2.0986
  496MOL0     H66895   3.258   5.320   0.921  0.4921  1.3074 -0.7851
  496MOL0     H66896   3.145   5.438   0.996  1.0278  0.6073 -1.1385
  496MOL0     H66897   3.429   5.415   1.067 -1.0286 -1.4404  0.2285
  496MOL0     H66898   3.401   5.476   0.907 -1.5604 -0.3651 -0.8072
  496MOL0     H66899   3.260   5.600   1.159 -4.8626  2.1686 -2.2707
  496MOL0     H66900   3.404   5.661   1.069  1.0158 -1.0045 -2.4941
  496MOL0     H66901   3.287   5.710   0.888 -0.1048  2.1210  0.1750
  496MOL0     H66902   3.134   5.639   0.943 -1.0283  1.5693 -0.3317
  496MOL0     H66903   3.273   5.871   1.050 -1.0613 -1.1909  2.0445
  496MOL0     H66904   3.139   5.873   0.935  1.9011 -2.9251 -2.1104
  496MOL0     H66905   3.153   5.782   1.231 -1.0468  0.2479  0.6492
  496MOL0     H66906   3.099   5.945   1.178 -0.6173  1.3200 -0.3181
  496MOL0     H66907   2.919   5.839   1.034 -3.0521  1.7607  1.9751
  496MOL0     H66908   2.954   5.683   1.103  0.1193  0.2867  2.3454
  496MOL0     H66909   2.823   5.915   1.240 -1.7091 -0.7400  0.0337
  496MOL0     H66910   2.891   5.777   1.330 -1.7732 -1.6202  0.8262
  496MOL0     H66911   2.829   5.522   1.270 -1.3810 -1.9253  0.8848
  496MOL0     H66912   2.621   5.330   1.269 -2.6721  0.0478  1.1351
  496MOL0     H66913   2.475   5.369   1.188 -0.3659  1.9004 -0.6331
  496MOL0     H66914   2.602   5.231   1.037  2.3990 -0.4358 -1.5455
  496MOL0     H66915   2.744   5.315   1.072  0.1860  0.2177 -0.5136
  496MOL0     H66916   2.649   5.513   0.934  1.1187 -1.1065  0.9873
  496MOL0     H66917   2.521   5.401   0.887  0.7362 -1.3161 -2.6743
  496MOL0     H66918   2.670   5.392   0.702  2.3602 -0.0932 -2.3735
  496MOL0     H66919   2.689   5.247   0.789  2.7537  0.9048  0.3506
  496MOL0     H66920   3.071   5.455   0.750  1.0038  1.0632 -1.6775
  496MOL0     H66921   3.273   5.482   0.636  0.0075 -0.7736  0.8340
  496MOL0     H66922   3.354   5.354   0.556  0.2770  0.3098  3.4109
  496MOL0     H66923   3.229   5.456   0.468 -0.7911 -0.5458 -0.3735
  496MOL0     H66924   3.215   4.798   0.273 -1.9130 -0.9394 -1.3726
  496MOL0     H66925   3.334   4.745   0.055  0.1870  0.5289  0.1745
  496MOL0     H66926   3.572   4.907  -0.068  0.2359  1.1567 -0.5497
  496MOL0     H66927   3.502   4.757  -0.138 -2.0175  0.4952  0.3040
  496MOL0     H66928   3.503   4.881  -0.354  1.5127 -2.3924 -0.8679
  496MOL0     H66929   3.537   5.029  -0.272  0.8299  0.8631 -0.4712
  496MOL0     H66930   3.759   4.898  -0.381  0.7945  0.9720  0.2234
  496MOL0     H66931   3.724   4.792  -0.243  0.8169  0.5497  1.1820
  496MOL0     H66932   3.750   5.089  -0.232 -1.0980  1.0781  1.7763
  496MOL0     H66933   3.759   4.969  -0.098  0.2752  2.5157  1.0446
  496MOL0     H66934   3.979   4.899  -0.157  0.7781 -1.3500 -1.9857
  496MOL0     H66935   3.972   5.077  -0.145  2.1049 -1.1984  1.2956
  496MOL0     H66936   3.914   5.071  -0.398  0.4265  0.7000  0.3372
  496MOL0     H66937   4.081   5.086  -0.356 -1.4178  1.1094 -0.8331
  496MOL0     H66938   3.957   4.812  -0.391  1.1330 -0.4472  1.4184
  496MOL0     H66939   4.112   4.840  -0.310  0.9285  1.1221  1.0664
  496MOL0     H66940   4.055   4.933  -0.591 -2.3109 -0.4834  1.3681
  496MOL0     H66941   4.130   4.777  -0.550 -0.5732  0.9809 -2.6426
  496MOL0     H66942   3.258   5.146  -0.066 -3.3567 -0.2794  0.5992
  496MOL0     H66943   3.171   5.201   0.154 -0.8341 -0.0138  1.2570
  496MOL0     H66944   2.957   5.047   0.490 -3.1545  1.0935 -1.0271
  496MOL0     H66945   2.804   5.140   0.657 -1.3938  1.8526 -0.8392
  496MOL0     H66946   3.117   5.106   0.982 -0.6454  2.8856 -0.8138
  496MOL0     H66947   2.912   5.008   1.028 -1.0428  2.0103 -0.6386
  496MOL0     H66948   2.504   5.142   1.293 -0.9014 -0.0189  3.3938
  496MOL0     H66949   2.273   5.099   1.360  1.6585  0.6903  2.2571
  496MOL0     H66950   2.225   4.675   1.505 -1.0872 -1.2148 -0.6181
  496MOL0     H66951   2.091   4.758   1.569 -1.1311  1.8345 -0.8274
  496MOL0     H66952   2.120   4.598   1.321  1.0746 -1.7323  3.6261
  496MOL0     H66953   2.005   4.731   1.308 -1.1114  0.8828  1.6286
  496MOL0     H66954   1.912   4.614   1.547 -0.9145  0.5034 -0.3757
  496MOL0     H66955   1.988   4.472   1.471 -0.8049 -0.7726 -2.2598
  496MOL0     H66956   1.764   4.454   1.398  1.8422 -1.6337  2.0758
  496MOL0     H66957   1.871   4.489   1.271  0.6202  2.9527 -0.0729
  496MOL0     H66958   1.655   4.861   1.312  1.4066  0.1243  1.2817
  496MOL0     H66959   2.345   4.668   1.323 -1.2227  0.8789 -4.0950
  496MOL0     H66960   2.578   4.720   1.246 -2.1311 -1.4796  1.2865
  497MOL0     O66961   0.954   8.201   5.770 -0.4221  0.2486  0.2240
  497MOL0     C66962   0.979   8.229   5.649  0.2529 -0.7968 -0.8670
  497MOL0     O66963   1.096   8.286   5.601  0.0037 -0.8600 -1.3380
  497MOL0     C66964   1.213   8.277   5.669  0.0518 -0.7834  0.0864
  497MOL0     C66965   1.244   8.335   5.801  1.2126 -0.1739  0.1177
  497MOL0     C66966   1.367   8.308   5.858  1.4323 -0.1177  0.6794
  497MOL0     C66967   1.475   8.251   5.796 -0.2091  0.7893 -0.6200
  497MOL0     O66968   1.594   8.251   5.856 -0.2488 -0.3160 -0.2974
  497MOL0     C66969   1.685   8.141   5.834  0.2418 -1.2908  0.0731
  497MOL0     C66970   1.800   8.143   5.937  0.1957 -0.8816 -0.7131
  497MOL0     C66971   1.879   8.276   5.928  0.6659  0.2245 -0.5087
  497MOL0     C66972   1.997   8.250   6.018  0.4064  0.2949  0.1434
  497MOL0     C66973   1.960   8.233   6.167  0.1350  0.2941 -0.6741
  497MOL0     C66974   2.086   8.240   6.250 -0.7752  0.1943 -0.7326
  497MOL0     C66975   2.053   8.269   6.401 -1.0339 -0.0090 -0.3259
  497MOL0     C66976   2.027   8.413   6.434 -0.0724 -0.4071  0.9009
  497MOL0     N66977   1.890   8.443   6.430 -0.1426  0.5036 -0.0881
  497MOL0     C66978   1.819   8.511   6.341  1.3845  0.1597 -0.0214
  497MOL0     C66979   1.689   8.526   6.398 -0.2182 -0.1204 -0.2654
  497MOL0     C66980   1.572   8.605   6.350 -0.0778  0.3690 -0.3182
  497MOL0     C66981   1.619   8.751   6.333  0.8822  0.2942 -0.0445
  497MOL0     C66982   1.502   8.846   6.306  0.4698  0.8752 -0.5000
  497MOL0     C66983   1.531   8.990   6.270 -0.0328 -0.7766 -0.2592
  497MOL0     O66984   1.418   9.052   6.210 -1.0109  0.5127 -1.1248
  497MOL0     C66985   1.436   9.159   6.126  0.5783  0.6610  0.0063
  497MOL0     C66986   1.331   9.185   6.030 -0.5453  0.0029 -0.4977
  497MOL0     C66987   1.346   9.282   5.932  0.2616  0.6910 -0.4400
  497MOL0     C66988   1.230   9.275   5.838  0.0664 -0.9887  0.5860
  497MOL0     C66989   1.454   9.374   5.934  0.1183  0.3701  1.0531
  497MOL0     C66990   1.468   9.478   5.840 -0.5327 -0.3419  0.0572
  497MOL0     O66991   1.589   9.485   5.784 -0.1991  0.6977  0.1339
  497MOL0     C66992   1.614   9.591   5.703 -0.9544 -0.1670 -0.1853
  497MOL0     C66993   1.664   9.559   5.575 -0.8177  0.3868 -0.7572
  497MOL0     C66994   1.707   9.657   5.486 -0.1518 -1.0538 -0.8709
  497MOL0     C66995   1.704   9.790   5.522  0.4384  0.0509 -0.6080
  497MOL0     O66996   1.741   9.871   5.420  0.4954 -0.1911  0.5652
  497MOL0     C66997   1.771  10.012   5.440  0.4200  0.3032  0.0147
  497MOL0     C66998   1.839  10.080   5.326 -0.6571  0.4614  0.4148
  497MOL0     C66999   1.935   9.995   5.233  0.7010 -0.4441  0.2315
  497MOL0     C67000   2.081  10.016   5.286  0.2062  0.0305  0.8085
  497MOL0     C67001   2.154  10.108   5.182 -0.8822 -0.0631 -0.3063
  497MOL0     C67002   2.284  10.154   5.241  0.1171  0.7961  0.0424
  497MOL0     C67003   2.358  10.244   5.147 -0.2463  0.8773 -0.1152
  497MOL0     C67004   2.485  10.297   5.210 -0.4259 -0.1891  0.5275
  497MOL0    Cl67005   2.581  10.185   5.304 -0.6175 -0.2687  0.0611
  497MOL0     C67006   1.665   9.827   5.651  0.0889  0.3594 -0.7217
  497MOL0     C67007   1.616   9.729   5.739  0.4003  0.1515  1.3543
  497MOL0     O67008   1.379   9.562   5.828  0.1731  0.2862  0.8346
  497MOL0     C67009   1.561   9.353   6.019 -0.2035 -0.1843 -0.4262
  497MOL0     C67010   1.556   9.252   6.111  0.6193 -0.1203 -0.0191
  497MOL0     N67011   1.682   8.449   6.512 -0.3472  0.4535  0.2792
  497MOL0     N67012   1.803   8.402   6.529 -1.1406  0.1566 -0.2137
  497MOL0     C67013   1.450   8.209   5.663  1.0782 -0.7640  0.1026
  497MOL0     C67014   1.323   8.217   5.597 -0.1367  0.3645  0.1243
  497MOL0     C67015   0.868   8.224   5.560 -0.5349  0.4976 -1.0922
  497MOL0     C67016   0.867   8.293   5.439  0.4463  0.5136 -0.1420
  497MOL0     C67017   0.755   8.286   5.355 -0.2220  0.1211  0.5001
  497MOL0     C67018   0.648   8.199   5.387 -0.5156  0.2480  0.7084
  497MOL0     O67019   0.542   8.160   5.305  0.1519 -0.5177  0.2002
  497MOL0     C67020   0.532   8.222   5.180  1.0611  0.0046 -0.5329
  497MOL0     C67021   0.427   8.157   5.093 -0.0113  0.1060  0.2237
  497MOL0     C67022   0.283   8.204   5.125  0.4870 -0.2786 -0.1564
  497MOL0     C67023   0.179   8.123   5.046  0.1042 -0.5938 -0.2697
  497MOL0     C67024   0.175   8.180   4.912 -0.4820 -0.0159 -0.6188
  497MOL0     C67025   0.186   8.207   4.790  0.5366 -0.5082 -0.1992
  497MOL0     C67026   0.651   8.134   5.509  0.3270  0.6554  0.3845
  497MOL0     C67027   0.760   8.149   5.596  0.5207 -0.0698 -0.5601
  497MOL0     H67028   1.160   8.382   5.853  1.5590  0.7733 -0.1610
  497MOL0     H67029   1.370   8.337   5.963  0.5772  2.0651  0.1683
  497MOL0     H67030   1.637   8.043   5.847  0.2657 -1.6839 -2.3616
  497MOL0     H67031   1.727   8.140   5.733  0.6870  2.9144  0.0518
  497MOL0     H67032   1.751   8.136   6.035  0.0516 -0.2400 -0.7350
  497MOL0     H67033   1.866   8.061   5.910 -3.2736 -2.8980 -3.9145
  497MOL0     H67034   1.894   8.292   5.821 -0.3082 -1.1802 -0.8939
  497MOL0     H67035   1.814   8.351   5.974  2.8106  1.4826  0.6132
  497MOL0     H67036   2.058   8.165   5.988  0.5682 -0.2857  2.0191
  497MOL0     H67037   2.059   8.338   5.998 -0.7506  0.9799 -0.5688
  497MOL0     H67038   1.903   8.322   6.194 -1.8753 -1.1892  0.1577
  497MOL0     H67039   1.911   8.140   6.198  1.9990 -1.0514 -1.5528
  497MOL0     H67040   2.139   8.144   6.252  2.5048  1.8191 -1.5777
  497MOL0     H67041   2.145   8.321   6.205 -0.4743 -0.0208 -0.7290
  497MOL0     H67042   1.971   8.205   6.435 -1.6303  1.4993  1.2438
  497MOL0     H67043   2.140   8.243   6.462 -0.3062  1.1798 -0.8236
  497MOL0     H67044   2.076   8.473   6.357  0.3467  1.3027  2.4416
  497MOL0     H67045   2.052   8.444   6.536 -2.5433  0.5570  1.2668
  497MOL0     H67046   1.865   8.558   6.255  1.6290 -0.4334 -0.2181
  497MOL0     H67047   1.537   8.558   6.258  1.1314 -1.6236  0.1794
  497MOL0     H67048   1.490   8.590   6.421 -0.6808 -1.4914 -1.3561
  497MOL0     H67049   1.687   8.754   6.248  2.8538  4.1023  1.4137
  497MOL0     H67050   1.672   8.783   6.424  0.9276 -0.3033  0.1427
  497MOL0     H67051   1.428   8.845   6.387  0.0908  0.5043 -0.8457
  497MOL0     H67052   1.449   8.799   6.223  2.0397 -4.8299  1.2651
  497MOL0     H67053   1.618   8.992   6.204  0.0969 -0.4922 -0.0796
  497MOL0     H67054   1.557   9.048   6.359 -3.0040  2.4780 -1.2763
  497MOL0     H67055   1.242   9.122   6.033  0.1873 -1.0453  0.1011
  497MOL0     H67056   1.138   9.225   5.871 -3.9237  1.0631 -5.6770
  497MOL0     H67057   1.192   9.373   5.809  1.8157 -0.8217 -1.3341
  497MOL0     H67058   1.247   9.227   5.741 -0.9758 -3.1579  1.4087
  497MOL0     H67059   1.670   9.452   5.555  1.1146 -0.3514  2.8631
  497MOL0     H67060   1.735   9.638   5.382 -2.8631 -0.7944 -1.7127
  497MOL0     H67061   1.682  10.073   5.459  0.0302 -0.0806 -0.5399
  497MOL0     H67062   1.833  10.022   5.529  1.3614 -1.9606 -0.3154
  497MOL0     H67063   1.761  10.122   5.261 -2.8380 -1.1686  1.8479
  497MOL0     H67064   1.897  10.161   5.370  2.6920 -2.3316  1.5560
  497MOL0     H67065   1.928  10.026   5.128 -0.0358 -1.0769  0.0826
  497MOL0     H67066   1.907   9.889   5.236 -0.5280 -0.2215 -1.6197
  497MOL0     H67067   2.082  10.064   5.384 -1.9654  0.2243  0.7868
  497MOL0     H67068   2.141   9.924   5.285  1.2837  0.6885 -0.8847
  497MOL0     H67069   2.093  10.193   5.153  0.1243 -0.0039 -2.4514
  497MOL0     H67070   2.181  10.052   5.092  1.2488  1.9360 -0.9976
  497MOL0     H67071   2.256  10.215   5.327 -2.0186  2.0977 -1.4681
  497MOL0     H67072   2.345  10.066   5.263  0.3209  1.1189  0.7978
  497MOL0     H67073   2.297  10.329   5.114 -1.3560 -0.2056 -1.0036
  497MOL0     H67074   2.385  10.191   5.055  2.9383  1.8881  0.1289
  497MOL0     H67075   2.446  10.377   5.275 -0.2630  2.2199 -2.1437
  497MOL0     H67076   2.551  10.345   5.137 -0.4963 -0.4126  0.3198
  497MOL0     H67077   1.657   9.928   5.691 -0.6920 -0.6660  1.9103
  497MOL0     H67078   1.573   9.760   5.834 -1.4487  3.8069 -0.4732
  497MOL0     H67079   1.646   9.416   5.993 -2.7300  3.0563 -1.5899
  497MOL0     H67080   1.638   9.231   6.179  1.9022  2.0801 -0.7698
  497MOL0     H67081   1.536   8.164   5.614  0.8559 -0.8475 -0.2081
  497MOL0     H67082   1.291   8.163   5.509  0.0352  1.4952 -0.6509
  497MOL0     H67083   0.939   8.363   5.398 -0.2625  1.7148  0.5918
  497MOL0     H67084   0.768   8.353   5.271  4.2342 -0.2409  0.6428
  497MOL0     H67085   0.514   8.328   5.196  1.2539  0.0080 -0.3320
  497MOL0     H67086   0.630   8.217   5.130  0.1140 -2.5232 -2.3581
  497MOL0     H67087   0.427   8.049   5.114  1.0786  0.1680  0.6090
  497MOL0     H67088   0.448   8.180   4.988  2.5990  1.3072  0.9224
  497MOL0     H67089   0.257   8.309   5.109  0.9939  0.1265  1.5163
  497MOL0     H67090   0.268   8.204   5.233 -1.0767  0.2140 -0.3525
  497MOL0     H67091   0.084   8.117   5.100  2.0240 -1.3836  3.3386
  497MOL0     H67092   0.194   8.015   5.034  0.9517 -0.2951 -2.3035
  497MOL0     H67093   0.188   8.223   4.684 -1.5123  0.7818 -0.1065
  497MOL0     H67094   0.566   8.073   5.537  0.5147  0.7572  1.1960
  497MOL0     H67095   0.756   8.110   5.697 -0.3951 -0.8542 -0.8828
  498MOL0     O67096   5.460   1.411  11.129 -0.4398 -0.1787 -0.3452
  498MOL0     C67097   5.402   1.345  11.207  0.4348  0.3034 -0.4420
  498MOL0     O67098   5.454   1.302  11.320  0.1269  0.1866 -0.3112
  498MOL0     C67099   5.585   1.317  11.362 -0.4325  0.1349 -0.9734
  498MOL0     C67100   5.621   1.214  11.451 -0.0019 -0.6670 -0.1560
  498MOL0     C67101   5.749   1.203  11.500 -0.4062  0.4284  0.2823
  498MOL0     C67102   5.846   1.292  11.476 -0.2982  0.5116 -0.0351
  498MOL0     O67103   5.970   1.275  11.537  0.2478 -0.5159 -0.2848
  498MOL0     C67104   6.041   1.389  11.589  0.2250  0.3798  0.6927
  498MOL0     C67105   5.961   1.444  11.707 -0.0755  0.5304  1.5695
  498MOL0     C67106   6.014   1.571  11.779 -0.3053 -0.6539  0.0145
  498MOL0     C67107   6.014   1.708  11.699  0.8302  0.0415 -0.6295
  498MOL0     C67108   6.082   1.815  11.792 -0.1688 -0.6446  0.9981
  498MOL0     C67109   6.082   1.951  11.716 -0.1748  0.2971  0.6923
  498MOL0     C67110   5.946   1.999  11.676  0.0752 -0.8497  0.3169
  498MOL0     C67111   5.957   2.151  11.637 -0.2454  0.7758 -0.0347
  498MOL0     N67112   5.862   2.206  11.546  0.2644  0.0926  0.3164
  498MOL0     C67113   5.733   2.176  11.544 -0.1875 -0.3341 -0.2312
  498MOL0     C67114   5.663   2.270  11.476  0.1802  0.0247 -0.6710
  498MOL0     C67115   5.515   2.293  11.434  0.7417  0.7303 -0.0854
  498MOL0     C67116   5.492   2.334  11.293 -0.5291 -0.2022 -0.0380
  498MOL0     C67117   5.524   2.481  11.270 -0.0484 -0.2399  0.1823
  498MOL0     C67118   5.411   2.580  11.242 -0.4067  0.8256  1.1947
  498MOL0     O67119   5.318   2.573  11.342 -0.0212 -0.7550  0.7261
  498MOL0     C67120   5.208   2.655  11.348 -0.2134  0.0272 -0.1119
  498MOL0     C67121   5.141   2.640  11.466  0.3335  0.0330  0.8925
  498MOL0     C67122   5.013   2.694  11.480 -0.3746  0.1758 -0.8826
  498MOL0     C67123   4.954   2.659  11.615  1.0774 -0.3456  0.2675
  498MOL0     C67124   4.947   2.743  11.368 -0.5341  0.2444  0.9815
  498MOL0     C67125   4.798   2.779  11.351 -0.4047  0.2698 -0.0205
  498MOL0     O67126   4.732   2.798  11.232  0.3102 -0.1449 -0.3623
  498MOL0     C67127   4.606   2.855  11.255 -0.0914 -0.3038  0.0615
  498MOL0     C67128   4.581   2.988  11.288  0.4715 -0.0262  0.5526
  498MOL0     C67129   4.448   3.038  11.286  0.7422  0.2759 -1.1847
  498MOL0     C67130   4.342   2.946  11.290  1.3899 -0.4478 -0.5541
  498MOL0     O67131   4.217   3.003  11.309 -0.7515  0.3448  0.5644
  498MOL0     C67132   4.097   2.926  11.334  0.2564 -0.7527 -0.4978
  498MOL0     C67133   3.981   3.023  11.331 -0.6552 -0.7554  0.7707
  498MOL0     C67134   3.855   2.931  11.347 -0.5876 -0.4633  0.5946
  498MOL0     C67135   3.797   2.928  11.494 -0.2945 -0.5768 -0.5208
  498MOL0     C67136   3.668   2.845  11.501  0.1590  0.3953  0.1380
  498MOL0     C67137   3.600   2.873  11.632 -0.6253  0.5621  0.5910
  498MOL0     C67138   3.470   2.803  11.628  0.6287  0.1434 -1.2080
  498MOL0     C67139   3.409   2.792  11.768  0.9269 -0.1060  0.4339
  498MOL0    Cl67140   3.234   2.739  11.772  0.0492 -0.4670  0.5331
  498MOL0     C67141   4.367   2.812  11.262 -0.7959 -0.4793 -0.1387
  498MOL0     C67142   4.496   2.772  11.228 -0.0684 -0.6800  0.5796
  498MOL0     O67143   4.741   2.778  11.459  0.0134 -0.5647  0.6396
  498MOL0     C67144   5.025   2.747  11.249  0.3097 -0.8394  0.6345
  498MOL0     C67145   5.156   2.707  11.231 -0.6334 -0.5855 -0.8236
  498MOL0     N67146   5.768   2.345  11.432 -0.3886  0.1951  0.4437
  498MOL0     N67147   5.879   2.314  11.468  0.3581  0.8023  0.0580
  498MOL0     C67148   5.811   1.406  11.387 -0.5017 -0.1186  0.4631
  498MOL0     C67149   5.686   1.417  11.338 -0.2328 -0.0265  0.1390
  498MOL0     C67150   5.271   1.285  11.180 -0.0229  0.8007 -0.2089
  498MOL0     C67151   5.201   1.199  11.277 -0.2770 -0.0210  0.6401
  498MOL0     C67152   5.080   1.143  11.235  0.2922 -0.0480 -0.2488
  498MOL0     C67153   5.022   1.157  11.109 -0.1616  0.0037 -0.0076
  498MOL0     O67154   4.898   1.103  11.086 -0.2962 -0.3328 -0.3564
  498MOL0     C67155   4.793   1.140  10.999 -0.8817 -0.8937  0.3703
  498MOL0     C67156   4.671   1.172  11.070  0.0793 -0.0235  0.2177
  498MOL0     C67157   4.699   1.276  11.187  0.8516 -0.7450  0.7475
  498MOL0     C67158   4.566   1.307  11.268  0.5760  1.0856 -0.1423
  498MOL0     C67159   4.499   1.195  11.330 -0.1618  0.8273 -0.3312
  498MOL0     C67160   4.454   1.097  11.393  0.1912 -0.5251  1.1741
  498MOL0     C67161   5.091   1.239  11.021  0.6682  0.1658  0.6667
  498MOL0     C67162   5.214   1.308  11.051  0.6250  0.7981  0.5055
  498MOL0     H67163   5.562   1.129  11.485 -2.0196  0.4929 -0.5978
  498MOL0     H67164   5.763   1.106  11.547 -5.2946 -1.7447 -1.9893
  498MOL0     H67165   6.135   1.342  11.621  0.3743  0.0041 -0.2586
  498MOL0     H67166   6.058   1.468  11.516  0.3825 -0.7557 -0.5364
  498MOL0     H67167   5.858   1.468  11.678 -0.1920 -0.6456  0.9569
  498MOL0     H67168   5.954   1.363  11.780 -2.8495 -0.3104  0.5140
  498MOL0     H67169   5.963   1.582  11.875  0.1387 -0.1233  0.1970
  498MOL0     H67170   6.118   1.551  11.808  0.2398  0.5450 -1.0433
  498MOL0     H67171   6.060   1.705  11.599 -0.8088  1.1911 -1.4599
  498MOL0     H67172   5.910   1.738  11.690  0.0365 -2.4404 -0.3326
  498MOL0     H67173   6.031   1.821  11.888 -1.5301 -3.7885  0.5911
  498MOL0     H67174   6.186   1.791  11.817  0.4816 -0.5396 -1.3534
  498MOL0     H67175   6.143   2.019  11.775  3.5697 -1.2279 -1.0699
  498MOL0     H67176   6.139   1.946  11.622  1.0991  2.8397  1.2652
  498MOL0     H67177   5.908   1.949  11.587  1.5691 -0.9919 -0.2587
  498MOL0     H67178   5.879   1.979  11.760 -0.9377  0.1153 -0.2353
  498MOL0     H67179   6.056   2.170  11.594  0.1197 -0.0047  0.4371
  498MOL0     H67180   5.947   2.207  11.731 -1.5598  0.0622  0.2744
  498MOL0     H67181   5.686   2.095  11.599  1.7605  0.8250  3.4550
  498MOL0     H67182   5.469   2.194  11.447  0.7241  0.5776 -1.2282
  498MOL0     H67183   5.472   2.368  11.501  1.1571  0.8929  0.0078
  498MOL0     H67184   5.393   2.302  11.260 -0.1460  2.0348 -4.0917
  498MOL0     H67185   5.554   2.286  11.216 -1.3188  1.0884 -1.5253
  498MOL0     H67186   5.597   2.485  11.189  2.0094 -0.8268  1.8921
  498MOL0     H67187   5.579   2.518  11.357 -1.0475  0.8874  0.3610
  498MOL0     H67188   5.360   2.570  11.145  1.2504  4.1749 -0.1851
  498MOL0     H67189   5.454   2.680  11.235 -1.4283  1.2906  1.4070
  498MOL0     H67190   5.195   2.593  11.548 -0.8006 -0.3812  1.4183
  498MOL0     H67191   4.902   2.749  11.650 -3.1682 -1.3502 -2.7363
  498MOL0     H67192   4.875   2.583  11.615 -1.3686  1.9915  1.8421
  498MOL0     H67193   5.031   2.631  11.688 -1.6144  1.0582  3.9600
  498MOL0     H67194   4.663   3.058  11.296  2.2572 -1.8154 -1.1083
  498MOL0     H67195   4.427   3.143  11.309 -1.4859  0.3217 -3.1136
  498MOL0     H67196   4.082   2.848  11.259  0.0297 -1.0186 -0.1823
  498MOL0     H67197   4.103   2.874  11.430  0.3607 -0.3259 -0.2701
  498MOL0     H67198   3.989   3.092  11.416  2.0624  3.1346 -2.2880
  498MOL0     H67199   3.978   3.085  11.241 -1.6878 -0.2639  1.1289
  498MOL0     H67200   3.871   2.825  11.326  0.6223 -0.2347  0.2862
  498MOL0     H67201   3.777   2.966  11.278 -0.2111  1.9868  1.2899
  498MOL0     H67202   3.858   2.885  11.573  1.4707 -0.6022 -1.8340
  498MOL0     H67203   3.784   3.033  11.522  0.7814 -0.2538 -1.1643
  498MOL0     H67204   3.688   2.738  11.495  0.2760  0.1485  3.4861
  498MOL0     H67205   3.611   2.898  11.423  0.9654  4.1652  1.8919
  498MOL0     H67206   3.666   2.845  11.714  2.4038  0.9750 -1.5175
  498MOL0     H67207   3.586   2.982  11.637  0.4669  0.9037 -1.9593
  498MOL0     H67208   3.473   2.705  11.579 -2.3033 -0.5540 -0.1641
  498MOL0     H67209   3.394   2.859  11.573 -0.8958 -0.0549  0.6175
  498MOL0     H67210   3.405   2.897  11.799  1.6137  1.3001 -3.5991
  498MOL0     H67211   3.480   2.750  11.839 -0.8268  0.1474  2.4257
  498MOL0     H67212   4.285   2.741  11.264  0.4694 -2.0493 -1.2605
  498MOL0     H67213   4.500   2.672  11.186 -1.1646 -0.3273 -0.3986
  498MOL0     H67214   4.977   2.780  11.158  0.5960  2.0975  1.4605
  498MOL0     H67215   5.216   2.706  11.140 -0.4392 -1.2163 -0.6883
  498MOL0     H67216   5.892   1.471  11.355  0.3398 -1.4889 -0.3043
  498MOL0     H67217   5.658   1.490  11.262 -0.9721 -2.4108 -2.0364
  498MOL0     H67218   5.259   1.176  11.365  2.2189 -0.7625 -1.0748
  498MOL0     H67219   5.024   1.077  11.300 -1.1891  0.3097 -1.1048
  498MOL0     H67220   4.818   1.222  10.930 -2.9146  0.4596  1.1734
  498MOL0     H67221   4.761   1.058  10.934 -2.1630  0.4750 -0.7903
  498MOL0     H67222   4.627   1.081  11.112 -1.0529  1.3970  2.2897
  498MOL0     H67223   4.601   1.221  11.002  0.1019  0.4988  0.5657
  498MOL0     H67224   4.742   1.370  11.150  0.2674  0.3659  2.7428
  498MOL0     H67225   4.752   1.233  11.272 -2.1716 -2.3186  2.0006
  498MOL0     H67226   4.494   1.340  11.193 -1.6889  0.1731  1.5032
  498MOL0     H67227   4.585   1.377  11.350 -1.2026  0.6829  0.6625
  498MOL0     H67228   4.410   1.010  11.436  0.7115 -0.9911  0.7836
  498MOL0     H67229   5.048   1.240  10.921 -1.1472 -1.0825  1.3806
  498MOL0     H67230   5.273   1.353  10.972 -0.4516  1.1270 -0.1335
  499MOL0     O67231   1.627   0.834   2.148  0.2175 -0.2261 -0.3774
  499MOL0     C67232   1.722   0.780   2.209  0.1559  0.3094  0.1367
  499MOL0     O67233   1.713   0.669   2.291  0.2709  0.1404 -0.7266
  499MOL0     C67234   1.593   0.605   2.305  0.4666  0.0419 -0.5169
  499MOL0     C67235   1.538   0.598   2.447 -0.4987  0.3276  0.4637
  499MOL0     C67236   1.412   0.545   2.474 -0.3689 -0.0718  0.8376
  499MOL0     C67237   1.338   0.490   2.371 -0.6284 -0.0676  0.0696
  499MOL0     O67238   1.215   0.438   2.400  0.0991  0.2389 -0.2827
  499MOL0     C67239   1.209   0.360   2.523 -0.0221  0.4639 -0.1397
  499MOL0     C67240   1.313   0.249   2.540 -0.0520 -0.0913  0.7150
  499MOL0     C67241   1.299   0.195   2.680 -0.1359  0.2749 -0.5782
  499MOL0     C67242   1.392   0.076   2.722  0.4584 -0.4970 -0.8998
  499MOL0     C67243   1.387   0.065   2.877 -0.6993 -0.7348  0.2158
  499MOL0     C67244   1.262  -0.021   2.928  0.9048  0.2882  0.3689
  499MOL0     C67245   1.220  -0.003   3.078 -0.5640 -0.6779  0.3020
  499MOL0     C67246   1.297  -0.106   3.174  0.2422  0.1370 -0.5615
  499MOL0     N67247   1.439  -0.075   3.211  0.2819 -0.1527  0.8056
  499MOL0     C67248   1.546  -0.120   3.147 -0.9230 -0.5256 -0.5967
  499MOL0     C67249   1.651  -0.072   3.218 -0.8594  0.5013 -1.0723
  499MOL0     C67250   1.792  -0.106   3.173 -0.1874  0.4858  0.1571
  499MOL0     C67251   1.867  -0.214   3.266 -0.1173 -0.8968 -0.1038
  499MOL0     C67252   1.967  -0.305   3.195 -0.2955 -0.4074  0.0639
  499MOL0     C67253   2.068  -0.374   3.280 -0.0808  0.4786 -0.6946
  499MOL0     O67254   2.150  -0.278   3.356 -0.1642 -0.4698 -0.6659
  499MOL0     C67255   2.250  -0.223   3.285 -0.3765 -0.3999  0.2670
  499MOL0     C67256   2.253  -0.087   3.262  0.4873  1.1025  0.4428
  499MOL0     C67257   2.359  -0.021   3.192 -0.1322  0.1588  0.9113
  499MOL0     C67258   2.331   0.135   3.194 -0.2506 -0.4333  0.1067
  499MOL0     C67259   2.473  -0.093   3.148  1.1882 -0.2213  0.2705
  499MOL0     C67260   2.607  -0.022   3.106  1.6168 -0.0016 -0.3719
  499MOL0     O67261   2.711  -0.101   3.118  0.2427  0.5947 -0.4038
  499MOL0     C67262   2.837  -0.058   3.098 -0.8633  0.1473 -0.4783
  499MOL0     C67263   2.912   0.031   3.184 -0.9004  0.6684  0.0843
  499MOL0     C67264   3.044   0.074   3.152  0.5228  0.1832  0.1667
  499MOL0     C67265   3.103   0.018   3.037  0.9510  0.4364  0.1990
  499MOL0     O67266   3.225   0.068   3.010 -0.2138  0.1688 -0.2727
  499MOL0     C67267   3.299  -0.010   2.917 -0.3694 -0.5526  0.2552
  499MOL0     C67268   3.436   0.065   2.911  0.4430 -0.4611 -0.7515
  499MOL0     C67269   3.529   0.018   3.028  0.2725  0.5629  0.1237
  499MOL0     C67270   3.667   0.091   3.027  0.0783  0.6574  1.1987
  499MOL0     C67271   3.762   0.024   3.131  0.6798  0.4088  0.6915
  499MOL0     C67272   3.902   0.095   3.131  0.3370 -0.9680 -0.4614
  499MOL0     C67273   4.001   0.037   3.241  0.2299 -0.5580 -0.3229
  499MOL0     C67274   4.152   0.022   3.203  0.1191 -0.0968  0.1606
  499MOL0    Cl67275   4.202   0.175   3.123 -0.1409  0.2652 -0.3173
  499MOL0     C67276   3.025  -0.068   2.949 -0.4305 -0.2523 -0.8446
  499MOL0     C67277   2.895  -0.106   2.981 -0.1917  0.1920  0.2648
  499MOL0     O67278   2.602   0.092   3.069  0.0022 -1.2562 -0.3199
  499MOL0     C67279   2.477  -0.230   3.179  0.0969  0.1024  0.6756
  499MOL0     C67280   2.361  -0.291   3.232 -0.3498  0.6062 -0.5149
  499MOL0     N67281   1.604   0.024   3.310 -0.3372 -0.2131 -0.1018
  499MOL0     N67282   1.471   0.021   3.310 -0.7578 -0.4535  0.1262
  499MOL0     C67283   1.384   0.487   2.235 -0.3461 -0.1820  0.0845
  499MOL0     C67284   1.507   0.553   2.202  0.9738  0.1437  0.0862
  499MOL0     C67285   1.860   0.826   2.190 -0.2589 -1.0109 -0.5274
  499MOL0     C67286   1.909   0.870   2.070 -0.5241 -0.1141 -0.6554
  499MOL0     C67287   2.040   0.931   2.062 -0.3141 -0.4053  0.3267
  499MOL0     C67288   2.118   0.912   2.173  0.0195  1.3033  0.4047
  499MOL0     O67289   2.252   0.927   2.172  0.1406 -0.5375  0.3661
  499MOL0     C67290   2.322   0.815   2.123 -0.2435  0.9447 -0.5627
  499MOL0     C67291   2.449   0.871   2.061 -0.6024  0.6804  0.6618
  499MOL0     C67292   2.528   0.981   2.128  0.3115 -0.2756 -0.5734
  499MOL0     C67293   2.671   1.008   2.060  0.5585 -0.5971  0.0108
  499MOL0     C67294   2.663   1.032   1.914 -0.7083  0.3194  0.0715
  499MOL0     C67295   2.679   1.036   1.794  0.3958 -0.0975 -1.0378
  499MOL0     C67296   2.081   0.859   2.296  0.2151 -0.0043  1.1434
  499MOL0     C67297   1.948   0.809   2.298  0.8962 -0.2960 -0.0913
  499MOL0     H67298   1.603   0.643   2.522  0.5936  0.9285 -0.8024
  499MOL0     H67299   1.383   0.538   2.578  4.4028 -1.2941  2.3507
  499MOL0     H67300   1.215   0.426   2.609  0.0397 -0.5957  0.6856
  499MOL0     H67301   1.112   0.310   2.513  0.0633  0.2086  0.3114
  499MOL0     H67302   1.303   0.171   2.464 -1.4866  0.9398 -0.2136
  499MOL0     H67303   1.418   0.278   2.534 -0.0384 -0.4872 -1.5750
  499MOL0     H67304   1.318   0.273   2.755 -1.5749 -0.2584  0.3824
  499MOL0     H67305   1.197   0.157   2.684  0.0809 -0.2445  0.4664
  499MOL0     H67306   1.362  -0.014   2.667 -2.9002 -1.4768  2.1410
  499MOL0     H67307   1.496   0.098   2.696  0.8824 -0.9707  0.3665
  499MOL0     H67308   1.479   0.022   2.916  1.4881  3.7587  0.6325
  499MOL0     H67309   1.385   0.167   2.917 -0.3020 -0.6707  0.0784
  499MOL0     H67310   1.172   0.002   2.870  0.3028  0.3408  1.3058
  499MOL0     H67311   1.283  -0.127   2.911  2.0434  0.3839  1.0427
  499MOL0     H67312   1.240   0.098   3.115 -0.4500 -0.8902  0.8255
  499MOL0     H67313   1.113  -0.024   3.078 -0.5340 -1.4099 -2.9062
  499MOL0     H67314   1.277  -0.207   3.136 -2.7173 -0.1990  1.5513
  499MOL0     H67315   1.239  -0.097   3.267  0.3025  1.5714 -0.6509
  499MOL0     H67316   1.558  -0.178   3.056 -0.3447 -1.3547  0.0000
  499MOL0     H67317   1.774  -0.164   3.082 -1.0092 -1.8656  1.7396
  499MOL0     H67318   1.849  -0.012   3.165  2.2176 -0.9848 -0.9715
  499MOL0     H67319   1.796  -0.276   3.322  0.1057 -2.5724 -1.5670
  499MOL0     H67320   1.912  -0.157   3.347  0.4578  1.7803 -2.1506
  499MOL0     H67321   2.026  -0.248   3.122  2.3705 -2.7386  0.2183
  499MOL0     H67322   1.900  -0.381   3.155 -0.1733 -1.9729  2.6181
  499MOL0     H67323   2.133  -0.433   3.215 -0.1555  1.8884 -2.0982
  499MOL0     H67324   2.014  -0.438   3.350  2.8789 -1.3170  0.1544
  499MOL0     H67325   2.165  -0.035   3.297  0.5291 -0.7078  3.6870
  499MOL0     H67326   2.398   0.186   3.124 -1.1646 -1.4831 -1.5890
  499MOL0     H67327   2.230   0.165   3.165  1.0274  2.0884 -2.2404
  499MOL0     H67328   2.352   0.180   3.292 -2.8405  1.2997 -0.0337
  499MOL0     H67329   2.854   0.058   3.272 -3.0098 -1.8959 -0.3848
  499MOL0     H67330   3.106   0.133   3.219  2.5508 -0.6318 -0.9075
  499MOL0     H67331   3.308  -0.116   2.944 -0.5776 -0.5492  0.3402
  499MOL0     H67332   3.259  -0.002   2.816  1.7517 -0.0919 -0.5989
  499MOL0     H67333   3.490   0.044   2.818 -0.0296 -0.6282 -0.9951
  499MOL0     H67334   3.410   0.171   2.917 -1.9261 -1.0225 -0.1639
  499MOL0     H67335   3.539  -0.091   3.023  0.9225  0.5648  1.1836
  499MOL0     H67336   3.482   0.045   3.123  3.0702  0.4497  1.6682
  499MOL0     H67337   3.713   0.080   2.929  0.1932 -2.2526  1.4996
  499MOL0     H67338   3.637   0.195   3.048 -1.6713 -0.0590  2.5323
  499MOL0     H67339   3.769  -0.084   3.113  3.1818  0.2307  2.2226
  499MOL0     H67340   3.707   0.036   3.225  0.4100  0.0240  0.5859
  499MOL0     H67341   3.946   0.086   3.031  0.6943 -0.0342 -0.3965
  499MOL0     H67342   3.890   0.200   3.159 -2.9037 -1.1461 -0.8203
  499MOL0     H67343   3.952  -0.054   3.276 -0.3258  0.2715  1.1623
  499MOL0     H67344   4.014   0.104   3.327  1.9555 -2.1947  0.7804
  499MOL0     H67345   4.180  -0.070   3.151 -2.6426 -1.3196  0.6421
  499MOL0     H67346   4.208   0.015   3.297  1.9012  1.4329 -0.7282
  499MOL0     H67347   3.064  -0.101   2.853  0.9197 -2.9001  0.5372
  499MOL0     H67348   2.832  -0.167   2.917  0.1417 -0.4861  0.5801
  499MOL0     H67349   2.568  -0.286   3.165 -0.9356 -2.3282  2.8086
  499MOL0     H67350   2.353  -0.399   3.245 -2.8151  0.8610  0.6024
  499MOL0     H67351   1.317   0.454   2.156 -0.7879 -0.8474  0.7233
  499MOL0     H67352   1.533   0.560   2.097  0.1060 -1.4529 -0.2683
  499MOL0     H67353   1.840   0.871   1.987 -2.6377  0.0222  1.0147
  499MOL0     H67354   2.084   0.971   1.972  0.9414  0.2826  1.2229
  499MOL0     H67355   2.341   0.741   2.201  1.0019  2.4581  0.6447
  499MOL0     H67356   2.259   0.766   2.049 -0.5726 -0.7075  0.7722
  499MOL0     H67357   2.415   0.906   1.963  1.3838  0.6875 -0.0829
  499MOL0     H67358   2.517   0.786   2.052 -1.2936  0.2383 -0.8043
  499MOL0     H67359   2.548   0.964   2.234 -2.0486  1.7301  0.2979
  499MOL0     H67360   2.471   1.074   2.132  0.3956 -0.2494  0.1808
  499MOL0     H67361   2.744   0.931   2.087  1.7065  0.4941  0.1492
  499MOL0     H67362   2.710   1.099   2.107 -1.8757  1.2102 -1.2660
  499MOL0     H67363   2.693   1.035   1.688 -1.8118 -0.2913 -1.3745
  499MOL0     H67364   2.156   0.859   2.374 -0.6657 -1.7992  2.0391
  499MOL0     H67365   1.907   0.783   2.395  1.8299  1.9837  0.9938
  500MOL0     O67366   0.250   1.916   5.491  0.5083  0.1326  0.0345
  500MOL0     C67367   0.366   1.884   5.500 -0.2716  0.0624 -0.6969
  500MOL0     O67368   0.466   1.910   5.424  0.5156  0.2073 -0.3991
  500MOL0     C67369   0.462   2.018   5.331  0.2842  0.2890  0.1298
  500MOL0     C67370   0.521   2.006   5.203 -0.3522 -0.6995  0.1867
  500MOL0     C67371   0.534   2.116   5.126 -0.5349  0.1824 -0.2259
  500MOL0     C67372   0.465   2.239   5.153 -0.4629 -0.4770 -0.3477
  500MOL0     O67373   0.486   2.342   5.070  0.3621  0.3465 -0.0924
  500MOL0     C67374   0.366   2.403   5.013 -0.8322 -0.2215  0.0530
  500MOL0     C67375   0.411   2.538   4.957 -0.5982 -0.3273  0.4403
  500MOL0     C67376   0.403   2.635   5.074 -0.2964 -0.2462 -0.9991
  500MOL0     C67377   0.424   2.782   5.018 -0.1051  0.9378 -0.6072
  500MOL0     C67378   0.327   2.885   5.092 -0.1544 -1.1809 -0.0382
  500MOL0     C67379   0.391   2.953   5.212  0.5013  0.6287 -0.3457
  500MOL0     C67380   0.433   3.094   5.189  1.2176 -1.0776  0.2944
  500MOL0     C67381   0.448   3.166   5.320 -0.4042 -0.5458  0.2817
  500MOL0     N67382   0.460   3.314   5.299 -0.6906 -0.2342 -0.3800
  500MOL0     C67383   0.448   3.415   5.391 -0.3184 -0.2761 -0.1779
  500MOL0     C67384   0.466   3.533   5.319 -0.0294  0.3112 -0.6252
  500MOL0     C67385   0.477   3.680   5.361 -0.9644 -0.8843  0.2816
  500MOL0     C67386   0.626   3.727   5.371 -1.1907 -0.5132  0.1602
  500MOL0     C67387   0.617   3.874   5.312 -0.1742  0.0720  0.3086
  500MOL0     C67388   0.733   3.954   5.356 -0.5764  0.3113 -0.5242
  500MOL0     O67389   0.850   3.902   5.299  0.1950  0.5164 -0.6190
  500MOL0     C67390   0.977   3.944   5.349  0.5211  0.5275 -0.2696
  500MOL0     C67391   1.085   3.905   5.279 -0.4018  0.3061 -0.4821
  500MOL0     C67392   1.216   3.935   5.310 -0.7375  0.1630 -0.8042
  500MOL0     C67393   1.313   3.857   5.218 -0.0346  0.1627  0.1044
  500MOL0     C67394   1.241   4.022   5.419  0.1113  0.3653 -0.3531
  500MOL0     C67395   1.374   4.067   5.477  0.0332 -0.6226 -0.4346
  500MOL0     O67396   1.377   4.151   5.594 -0.8928 -0.1178  0.3406
  500MOL0     C67397   1.489   4.227   5.615 -0.7378  0.4710  1.0841
  500MOL0     C67398   1.615   4.181   5.670 -0.0549 -1.2284 -0.2641
  500MOL0     C67399   1.717   4.276   5.698  0.2312  0.0339  0.0128
  500MOL0     C67400   1.716   4.410   5.661  0.2832 -0.9963  0.3414
  500MOL0     O67401   1.827   4.490   5.667 -0.2746 -0.6998 -0.1139
  500MOL0     C67402   1.806   4.632   5.641 -0.0202 -0.5107 -0.0621
  500MOL0     C67403   1.936   4.705   5.684  0.2609 -0.8445  0.2411
  500MOL0     C67404   1.935   4.843   5.620 -0.6443 -0.1043  0.5566
  500MOL0     C67405   2.057   4.919   5.650  0.0112  0.5809 -0.8109
  500MOL0     C67406   2.061   5.056   5.582  0.4261  0.4613 -0.5458
  500MOL0     C67407   2.204   5.108   5.548 -0.4717  0.5536  0.1016
  500MOL0     C67408   2.285   5.010   5.465  0.1789 -0.3679  0.0494
  500MOL0     C67409   2.407   5.078   5.390  0.1961 -0.5743 -0.7127
  500MOL0    Cl67410   2.343   5.179   5.250 -0.3244  0.1482  0.0688
  500MOL0     C67411   1.593   4.453   5.599 -0.2609  0.3875  0.3702
  500MOL0     C67412   1.487   4.365   5.581  0.1683 -1.1951  0.4159
  500MOL0     O67413   1.475   4.027   5.419 -0.1808  0.4875 -0.1104
  500MOL0     C67414   1.131   4.065   5.494  1.6952 -0.0587  0.1388
  500MOL0     C67415   1.000   4.029   5.453 -0.4574 -0.0020  0.0455
  500MOL0     N67416   0.507   3.496   5.197  0.4378 -0.4538  0.2261
  500MOL0     N67417   0.499   3.368   5.183 -0.4332 -1.1440  0.1193
  500MOL0     C67418   0.387   2.248   5.264  0.6794 -0.4968 -0.4902
  500MOL0     C67419   0.405   2.148   5.360  0.8566  0.8914 -0.6293
  500MOL0     C67420   0.395   1.790   5.618 -0.4294 -0.5865 -0.3317
  500MOL0     C67421   0.292   1.735   5.695  0.2189 -0.2514 -0.3441
  500MOL0     C67422   0.320   1.646   5.805  0.7058  0.3638  0.7698
  500MOL0     C67423   0.453   1.611   5.844  0.4058 -0.3311 -0.3577
  500MOL0     O67424   0.492   1.534   5.949 -0.0365 -0.1508  0.5299
  500MOL0     C67425   0.411   1.427   6.002 -0.2547 -0.5669  0.5550
  500MOL0     C67426   0.525   1.346   6.058  0.7984 -0.1039  0.9518
  500MOL0     C67427   0.460   1.236   6.138 -0.9255  0.3498  0.1669
  500MOL0     C67428   0.556   1.163   6.231  0.4157 -0.1709 -0.1008
  500MOL0     C67429   0.492   1.054   6.307 -0.4427 -0.4916  0.2346
  500MOL0     C67430   0.437   0.974   6.372 -0.2355 -0.8906 -0.1823
  500MOL0     C67431   0.559   1.664   5.763  0.7056  0.0352 -0.6271
  500MOL0     C67432   0.525   1.757   5.653  0.1802 -0.2243  0.1459
  500MOL0     H67433   0.555   1.906   5.178  1.2948  0.4448 -2.5560
  500MOL0     H67434   0.601   2.097   5.043 -0.0869 -0.6364  0.3208
  500MOL0     H67435   0.334   2.336   4.933 -2.2417  0.9258 -0.3638
  500MOL0     H67436   0.291   2.418   5.091 -0.4486 -0.0621  0.3972
  500MOL0     H67437   0.509   2.522   4.912 -0.4019  0.1770  0.6751
  500MOL0     H67438   0.331   2.563   4.886 -0.8782 -3.7102 -0.5784
  500MOL0     H67439   0.314   2.628   5.136  1.1637 -0.3598  1.2075
  500MOL0     H67440   0.485   2.599   5.137  0.1126  0.3084 -1.2082
  500MOL0     H67441   0.531   2.799   5.027  0.6867 -1.3330 -3.7389
  500MOL0     H67442   0.395   2.795   4.913 -1.4056 -2.7964 -0.8664
  500MOL0     H67443   0.300   2.964   5.022 -1.0606 -0.8540  0.6606
  500MOL0     H67444   0.231   2.843   5.123 -2.2713  0.5191 -3.6483
  500MOL0     H67445   0.318   2.948   5.293  1.3565  0.9856  0.4654
  500MOL0     H67446   0.482   2.895   5.234  2.4693  4.0194  1.3123
  500MOL0     H67447   0.524   3.093   5.128 -0.2870  0.2665 -2.1230
  500MOL0     H67448   0.350   3.151   5.146  1.4626  0.2428  1.4898
  500MOL0     H67449   0.539   3.116   5.353  0.6098 -0.3996 -2.0648
  500MOL0     H67450   0.372   3.141   5.395 -0.5949  0.0421  0.2905
  500MOL0     H67451   0.411   3.394   5.491 -0.1621  1.2809  0.2338
  500MOL0     H67452   0.426   3.734   5.281  0.3590 -0.3563 -0.2431
  500MOL0     H67453   0.439   3.697   5.462  2.2632 -2.2259  1.8549
  500MOL0     H67454   0.693   3.661   5.315  1.4847 -0.3683  2.9130
  500MOL0     H67455   0.658   3.724   5.475 -1.9568  1.6755  0.5070
  500MOL0     H67456   0.522   3.925   5.330  0.4996  1.4460  0.1083
  500MOL0     H67457   0.631   3.853   5.206 -2.1376  0.6135 -0.1092
  500MOL0     H67458   0.736   3.952   5.465 -0.9807 -0.7042 -0.5187
  500MOL0     H67459   0.722   4.050   5.305  2.5906  1.0595  0.0018
  500MOL0     H67460   1.067   3.842   5.192  0.2864 -2.0234  0.9881
  500MOL0     H67461   1.417   3.891   5.228 -0.6077  1.4108  2.9591
  500MOL0     H67462   1.297   3.750   5.238 -0.6120 -0.1234 -1.7246
  500MOL0     H67463   1.269   3.868   5.118  1.5335  0.3772 -0.5876
  500MOL0     H67464   1.629   4.074   5.674  0.5712 -1.2014 -1.3306
  500MOL0     H67465   1.809   4.250   5.749  0.0484  1.0396  0.8845
  500MOL0     H67466   1.792   4.648   5.534 -0.0347 -1.9491 -0.3003
  500MOL0     H67467   1.724   4.662   5.707  1.2118  0.8714  0.9160
  500MOL0     H67468   1.943   4.711   5.793 -2.9971  0.9208  0.4814
  500MOL0     H67469   2.028   4.665   5.641  2.5522  4.3889 -0.4986
  500MOL0     H67470   1.840   4.890   5.646 -0.7119 -0.8994  1.8191
  500MOL0     H67471   1.926   4.828   5.512 -1.2192 -0.0650  0.5970
  500MOL0     H67472   2.053   4.930   5.759  0.3881 -2.0003 -0.4784
  500MOL0     H67473   2.142   4.858   5.618  2.1749  3.0836 -0.2092
  500MOL0     H67474   2.005   5.129   5.642 -0.1099  0.1051 -0.6114
  500MOL0     H67475   2.001   5.047   5.492  0.5120  0.2848 -0.5852
  500MOL0     H67476   2.188   5.197   5.486  1.1939  0.9599  0.2207
  500MOL0     H67477   2.257   5.132   5.641 -0.6850 -0.6780  0.5554
  500MOL0     H67478   2.220   4.964   5.390 -3.1039  0.9657  1.8395
  500MOL0     H67479   2.319   4.933   5.535 -0.1550  0.1706  0.8227
  500MOL0     H67480   2.470   4.997   5.356  0.3834 -1.1526  0.9106
  500MOL0     H67481   2.462   5.149   5.453  1.7608 -0.4733 -2.1289
  500MOL0     H67482   1.584   4.558   5.572 -1.9829 -0.2754 -1.8593
  500MOL0     H67483   1.401   4.414   5.538  1.9409  2.8433  1.0016
  500MOL0     H67484   1.126   4.126   5.584 -3.6015 -1.5523  1.1890
  500MOL0     H67485   0.912   4.049   5.513  1.1935 -0.5954  2.8578
  500MOL0     H67486   0.336   2.337   5.301 -0.9155 -2.2213  1.7196
  500MOL0     H67487   0.370   2.171   5.460  1.7483  0.9673 -0.3281
  500MOL0     H67488   0.189   1.757   5.668  0.0963  0.0014  0.3155
  500MOL0     H67489   0.226   1.624   5.852  0.0353  0.0762 -0.6448
  500MOL0     H67490   0.344   1.455   6.083  0.3048  1.6332  0.3178
  500MOL0     H67491   0.363   1.378   5.916  0.0186 -0.0590  0.1071
  500MOL0     H67492   0.590   1.407   6.121  0.5072  0.0670  1.0889
  500MOL0     H67493   0.573   1.311   5.966  0.7205  2.1764 -0.0409
  500MOL0     H67494   0.433   1.158   6.067 -1.8945  1.4818 -0.7468
  500MOL0     H67495   0.374   1.268   6.198 -0.0261  2.3370  0.4856
  500MOL0     H67496   0.615   1.226   6.299 -0.6106  0.8348 -0.1084
  500MOL0     H67497   0.623   1.112   6.162 -1.1560  0.1658 -1.9573
  500MOL0     H67498   0.392   0.892   6.425  0.4346 -0.3256  1.3372
  500MOL0     H67499   0.657   1.627   5.789 -0.2508 -2.5364 -0.4094
  500MOL0     H67500   0.598   1.813   5.596 -2.0892  2.0058 -0.7311
  501MOL0     O67501   3.405  10.598   0.483 -0.2084  0.1925 -0.0821
  501MOL0     C67502   3.369  10.696   0.558  0.0881 -0.2038  0.8184
  501MOL0     O67503   3.287  10.692   0.664 -0.3151  0.2787 -0.5019
  501MOL0     C67504   3.207  10.583   0.702  0.3102  0.1587 -0.0307
  501MOL0     C67505   3.065  10.567   0.675 -0.5602  0.3517  0.0538
  501MOL0     C67506   2.984  10.467   0.728  0.0254  0.0202 -0.3240
  501MOL0     C67507   3.042  10.381   0.821  0.2334 -0.0199 -0.6514
  501MOL0     O67508   2.976  10.275   0.880  0.0334 -0.4622 -0.6093
  501MOL0     C67509   2.838  10.246   0.842  0.0203 -0.6061  0.6322
  501MOL0     C67510   2.790  10.106   0.895 -0.6719  0.1867 -0.1733
  501MOL0     C67511   2.652  10.071   0.825  0.3994  0.1531 -0.3672
  501MOL0     C67512   2.525  10.133   0.904  0.9970  0.1292 -0.0457
  501MOL0     C67513   2.471  10.057   1.027  0.1071  0.2480  0.1080
  501MOL0     C67514   2.352  10.130   1.090 -0.4484  0.6648 -0.1833
  501MOL0     C67515   2.255  10.034   1.154  1.2019  0.6655  0.4233
  501MOL0     C67516   2.143  10.101   1.242  0.2472 -1.3010 -0.6686
  501MOL0     N67517   2.046   9.999   1.292 -0.2211 -0.8756  1.2939
  501MOL0     C67518   2.074   9.889   1.368 -0.6789  1.1274 -0.0119
  501MOL0     C67519   1.951   9.848   1.410  0.4102 -0.1740 -0.4032
  501MOL0     C67520   1.913   9.716   1.478  0.0667 -0.4429  0.0152
  501MOL0     C67521   1.943   9.702   1.627 -0.6204  0.4806 -0.7776
  501MOL0     C67522   1.899   9.560   1.674 -0.8128 -0.5451 -0.5922
  501MOL0     C67523   1.751   9.514   1.665  0.8149 -0.2256 -0.0354
  501MOL0     O67524   1.710   9.497   1.528  0.2419  0.5616 -0.7922
  501MOL0     C67525   1.591   9.429   1.500 -0.7722  0.0599 -0.0458
  501MOL0     C67526   1.582   9.372   1.382 -0.0053 -0.2694  0.6961
  501MOL0     C67527   1.473   9.298   1.347 -0.2795  0.1965 -0.7169
  501MOL0     C67528   1.484   9.251   1.208  0.7617 -0.0067  0.1579
  501MOL0     C67529   1.375   9.261   1.441 -0.0241 -0.8208  0.2171
  501MOL0     C67530   1.259   9.171   1.414 -0.1592 -0.0437 -0.0785
  501MOL0     O67531   1.148   9.207   1.478  0.4462 -1.1583  0.0991
  501MOL0     C67532   1.035   9.142   1.443  0.2154 -0.3808  0.7340
  501MOL0     C67533   1.012   9.007   1.487 -0.9016 -0.0130  0.7426
  501MOL0     C67534   0.908   8.935   1.445 -0.4422 -0.5330 -0.4120
  501MOL0     C67535   0.807   8.991   1.375  0.3163 -0.4005  0.2940
  501MOL0     O67536   0.689   8.938   1.333 -0.1416  0.0533  0.5250
  501MOL0     C67537   0.674   8.795   1.364  0.6546 -0.1117 -0.8050
  501MOL0     C67538   0.542   8.723   1.316 -0.4404 -0.2122 -0.2059
  501MOL0     C67539   0.573   8.624   1.215  0.1069  1.1223  1.3293
  501MOL0     C67540   0.448   8.540   1.170  0.1527  0.2390  0.2732
  501MOL0     C67541   0.480   8.441   1.053 -0.2107  0.1788  0.6887
  501MOL0     C67542   0.358   8.362   1.007  0.0101  0.8978  0.2095
  501MOL0     C67543   0.306   8.282   1.131 -0.3639  0.2873  0.4503
  501MOL0     C67544   0.219   8.164   1.070 -0.3488 -0.8725  0.5971
  501MOL0    Cl67545   0.059   8.230   1.026 -0.1409  0.1955  0.1665
  501MOL0     C67546   0.815   9.130   1.346 -0.2783 -0.1721 -0.8379
  501MOL0     C67547   0.931   9.207   1.374  0.5124  0.0777  0.4868
  501MOL0     O67548   1.285   9.063   1.366  0.1289  0.2313 -0.4235
  501MOL0     C67549   1.385   9.317   1.573 -0.4692  0.6383 -0.4274
  501MOL0     C67550   1.497   9.388   1.599 -0.0329 -0.4897  0.0399
  501MOL0     N67551   1.852   9.933   1.355  0.0799 -0.3644 -0.2948
  501MOL0     N67552   1.913  10.022   1.281  0.5777 -0.4964 -0.2835
  501MOL0     C67553   3.181  10.393   0.849  0.4730  0.0145 -0.4512
  501MOL0     C67554   3.257  10.487   0.790 -0.5265 -0.0311  0.1360
  501MOL0     C67555   3.442  10.822   0.525 -0.8097  0.0731  0.3456
  501MOL0     C67556   3.511  10.834   0.400 -0.1306  0.7671 -0.6800
  501MOL0     C67557   3.587  10.945   0.376  0.7795 -1.1563 -0.1957
  501MOL0     C67558   3.592  11.053   0.466  0.0879  0.2357  0.5811
  501MOL0     O67559   3.647  11.175   0.432 -0.6170 -0.0781  0.0748
  501MOL0     C67560   3.697  11.187   0.300  0.9886  0.2977 -0.5732
  501MOL0     C67561   3.739  11.334   0.294  0.2361  0.1200  0.7413
  501MOL0     C67562   3.776  11.380   0.153 -0.1312 -0.5996  0.3745
  501MOL0     C67563   3.769  11.531   0.120 -0.1080  0.3792  0.3844
  501MOL0     C67564   3.832  11.557  -0.013  0.0629  0.5570  0.5302
  501MOL0     C67565   3.866  11.583  -0.133 -0.0648  0.4226 -0.0350
  501MOL0     C67566   3.523  11.036   0.586 -1.0288 -0.4554  0.6587
  501MOL0     C67567   3.452  10.926   0.621 -0.2394  0.6833 -0.2334
  501MOL0     H67568   3.027  10.638   0.602  1.6941 -0.3284 -1.8904
  501MOL0     H67569   2.879  10.484   0.709  0.5197  2.3503 -1.4123
  501MOL0     H67570   2.769  10.316   0.890 -0.3136 -0.4301 -0.0899
  501MOL0     H67571   2.828  10.248   0.733 -2.7748  1.4179  0.8179
  501MOL0     H67572   2.873  10.038   0.874  3.8445  3.6988  4.0653
  501MOL0     H67573   2.767  10.110   1.002  1.4033  3.3700  0.2767
  501MOL0     H67574   2.651  10.116   0.725 -0.4033 -1.0302 -0.9102
  501MOL0     H67575   2.629   9.966   0.807  1.0730  0.2426 -1.8961
  501MOL0     H67576   2.546  10.237   0.934  1.5859  0.1378 -0.4715
  501MOL0     H67577   2.441  10.123   0.835  0.1660 -4.7434  1.3191
  501MOL0     H67578   2.442   9.960   0.985  0.7208 -0.1128  0.5073
  501MOL0     H67579   2.557  10.038   1.092  1.1849  2.6532 -0.5207
  501MOL0     H67580   2.389  10.202   1.163 -2.2386  0.1494  1.3378
  501MOL0     H67581   2.292  10.197   1.027  0.9585  2.3287  0.2045
  501MOL0     H67582   2.204   9.973   1.078  3.1533 -1.1858  0.5273
  501MOL0     H67583   2.302   9.954   1.212  2.5573  0.6939 -0.5950
  501MOL0     H67584   2.094  10.179   1.183  2.1963 -0.6358 -1.4944
  501MOL0     H67585   2.187  10.154   1.326 -2.9524 -2.8308  2.2127
  501MOL0     H67586   2.170   9.847   1.394 -0.7437  1.1013  0.1859
  501MOL0     H67587   1.807   9.699   1.457 -0.1992  1.0295  0.0364
  501MOL0     H67588   1.972   9.639   1.427  0.1666 -1.2653  1.3480
  501MOL0     H67589   1.886   9.776   1.683  0.3127  0.5120  0.1701
  501MOL0     H67590   2.049   9.708   1.654 -0.3375 -1.2345 -1.3682
  501MOL0     H67591   1.935   9.549   1.777 -1.0776  0.7206 -0.3400
  501MOL0     H67592   1.956   9.485   1.619 -0.2398 -0.5985  0.0545
  501MOL0     H67593   1.689   9.591   1.713  0.3702 -1.6919  1.8406
  501MOL0     H67594   1.744   9.424   1.726 -0.1131  1.7525  3.0382
  501MOL0     H67595   1.660   9.401   1.312 -1.4661  3.1735  0.2792
  501MOL0     H67596   1.491   9.344   1.151 -0.3358  1.1049  1.7436
  501MOL0     H67597   1.570   9.183   1.204  0.0157 -1.1630  2.2875
  501MOL0     H67598   1.393   9.201   1.174  0.9662  2.3273 -4.5682
  501MOL0     H67599   1.095   8.961   1.540 -0.3962  1.0631  0.8964
  501MOL0     H67600   0.910   8.830   1.474 -3.6289 -0.0499  2.0483
  501MOL0     H67601   0.759   8.742   1.318  1.2930  0.4960 -0.3384
  501MOL0     H67602   0.680   8.777   1.471 -0.6793 -2.2750 -1.0312
  501MOL0     H67603   0.513   8.657   1.398  0.0684  1.1664  1.1156
  501MOL0     H67604   0.461   8.794   1.299 -0.6784 -0.3042  0.5074
  501MOL0     H67605   0.637   8.553   1.268 -0.9441 -1.3670 -0.5244
  501MOL0     H67606   0.607   8.657   1.116  4.3547 -0.0259  2.2164
  501MOL0     H67607   0.407   8.483   1.253  2.6377 -0.0901  1.3505
  501MOL0     H67608   0.370   8.612   1.142  0.8486  1.1634  0.6628
  501MOL0     H67609   0.558   8.367   1.076  1.1826  1.3906  0.0457
  501MOL0     H67610   0.525   8.506   0.977  2.3173 -2.0650  0.1066
  501MOL0     H67611   0.270   8.421   0.982 -0.7110 -0.2926 -0.1829
  501MOL0     H67612   0.378   8.310   0.913  2.1875  3.4394 -0.8597
  501MOL0     H67613   0.229   8.336   1.187 -0.2629  0.4855  0.4001
  501MOL0     H67614   0.382   8.241   1.198 -1.1698  1.2929  2.0478
  501MOL0     H67615   0.206   8.077   1.135  0.2537 -0.5862  1.1094
  501MOL0     H67616   0.267   8.127   0.979 -1.9918  0.5130 -0.9038
  501MOL0     H67617   0.738   9.189   1.298  2.2566  2.3655 -2.0428
  501MOL0     H67618   0.918   9.313   1.357 -0.5808 -0.3481 -1.7037
  501MOL0     H67619   1.316   9.278   1.647  0.4405 -0.0431  0.0861
  501MOL0     H67620   1.508   9.419   1.702 -1.6525 -0.2442  0.1636
  501MOL0     H67621   3.218  10.323   0.923  1.6381  2.0490  0.9926
  501MOL0     H67622   3.363  10.490   0.815  0.4905 -1.2258 -3.5113
  501MOL0     H67623   3.515  10.745   0.337  3.6391 -0.7411  1.2990
  501MOL0     H67624   3.640  10.944   0.281  0.6525 -0.9432 -0.2685
  501MOL0     H67625   3.780  11.120   0.275  0.4120 -0.2680 -1.0271
  501MOL0     H67626   3.632  11.171   0.213  2.3127 -2.1242 -1.2381
  501MOL0     H67627   3.828  11.336   0.357 -0.3770  1.2367  1.6222
  501MOL0     H67628   3.665  11.402   0.338 -0.2842 -0.0615  0.1684
  501MOL0     H67629   3.705  11.329   0.088 -2.3247 -0.5711  2.5599
  501MOL0     H67630   3.875  11.338   0.134 -0.1932 -1.0213  0.9426
  501MOL0     H67631   3.808  11.599   0.196  1.1515  1.2338 -0.9570
  501MOL0     H67632   3.665  11.566   0.120  1.0393  4.4615 -1.5678
  501MOL0     H67633   3.881  11.608  -0.236 -1.8376 -0.8302 -0.6504
  501MOL0     H67634   3.526  11.126   0.647 -1.5767 -1.5323  2.3527
  501MOL0     H67635   3.391  10.922   0.711 -0.3596  0.2894 -0.3316
  502MOL0     O67636   5.924   2.137   9.852 -0.8581  0.3466  0.2757
  502MOL0     C67637   6.006   2.143   9.943  0.7485  1.3063 -0.0990
  502MOL0     O67638   5.984   2.141  10.079 -0.7111 -0.0660 -0.6667
  502MOL0     C67639   5.858   2.111  10.120 -0.6197 -0.7157  0.7271
  502MOL0     C67640   5.829   2.178  10.240  0.6723  0.0337  0.4436
  502MOL0     C67641   5.707   2.159  10.295 -0.3607  0.3999  0.7062
  502MOL0     C67642   5.615   2.070  10.245 -0.1712  1.0020 -0.2228
  502MOL0     O67643   5.508   2.062  10.327  0.6804  0.2689  0.3865
  502MOL0     C67644   5.425   1.946  10.317  0.4968 -0.8415 -0.2401
  502MOL0     C67645   5.278   1.968  10.387 -1.4027  0.1988 -0.1033
  502MOL0     C67646   5.290   1.963  10.541  0.3425 -0.0186  0.8644
  502MOL0     C67647   5.149   1.982  10.595  1.0316  0.1091 -0.2124
  502MOL0     C67648   5.138   1.959  10.758  0.1945 -0.3819  0.5270
  502MOL0     C67649   5.135   1.809  10.787 -0.1618 -0.1653 -0.9909
  502MOL0     C67650   4.997   1.731  10.763  0.1806 -0.3589 -0.6859
  502MOL0     C67651   5.015   1.582  10.741 -0.4867  0.7368  0.2318
  502MOL0     N67652   4.898   1.505  10.732  0.2449 -0.1456  0.3055
  502MOL0     C67653   4.807   1.497  10.629  0.0518  0.4439  0.9183
  502MOL0     C67654   4.697   1.455  10.689 -0.6487  0.7881  1.0142
  502MOL0     C67655   4.562   1.443  10.622  1.1249 -0.4896 -0.4083
  502MOL0     C67656   4.536   1.540  10.505  0.0667 -0.1228  0.1590
  502MOL0     C67657   4.383   1.553  10.478 -0.1155  0.0409 -0.0913
  502MOL0     C67658   4.314   1.422  10.439  0.3011 -0.0175  0.7360
  502MOL0     O67659   4.192   1.443  10.368  0.0669 -0.0026 -0.0426
  502MOL0     C67660   4.138   1.365  10.272  0.3577  0.3799 -0.3572
  502MOL0     C67661   4.210   1.278  10.192  0.7078  0.2385  0.4958
  502MOL0     C67662   4.149   1.187  10.098 -0.9110 -1.0868 -0.1420
  502MOL0     C67663   4.241   1.123  10.002 -0.3487 -0.2762 -0.9146
  502MOL0     C67664   4.007   1.177  10.095  0.2737 -0.3423  0.1551
  502MOL0     C67665   3.928   1.093   9.997  0.1816  0.0566  0.2027
  502MOL0     O67666   3.803   1.137   9.978  0.2216 -0.8005 -0.1652
  502MOL0     C67667   3.729   1.061   9.884 -0.0636 -0.3819 -1.0078
  502MOL0     C67668   3.647   0.962   9.932  0.3795  0.5133  0.7767
  502MOL0     C67669   3.575   0.876   9.845 -0.5722 -0.0993  0.1472
  502MOL0     C67670   3.572   0.894   9.704  0.0798  0.4385  0.4246
  502MOL0     O67671   3.495   0.813   9.628  0.3008  0.4707  0.7638
  502MOL0     C67672   3.355   0.814   9.666  0.2397 -0.4199 -0.0556
  502MOL0     C67673   3.278   0.718   9.576  0.4814  0.2703  0.1332
  502MOL0     C67674   3.340   0.581   9.546 -0.5576 -0.0194  0.6148
  502MOL0     C67675   3.328   0.481   9.658 -0.4944 -0.5310 -0.1394
  502MOL0     C67676   3.372   0.349   9.611 -0.6180  0.1542 -0.4577
  502MOL0     C67677   3.365   0.261   9.736  0.1752  0.2996  0.1927
  502MOL0     C67678   3.454   0.141   9.717 -0.7446 -0.8372 -0.1637
  502MOL0     C67679   3.452   0.033   9.829 -0.7450  0.1484  0.2119
  502MOL0    Cl67680   3.504   0.083   9.990 -0.3360  0.1581  0.1954
  502MOL0     C67681   3.661   0.987   9.654  0.0852 -0.1587  0.2396
  502MOL0     C67682   3.740   1.066   9.739  0.5381  0.3445  0.0699
  502MOL0     O67683   3.983   0.997   9.946  0.4498  0.2566 -0.2610
  502MOL0     C67684   3.932   1.262  10.186 -0.0771  1.1571 -1.2655
  502MOL0     C67685   3.999   1.352  10.273 -0.8304 -0.1603 -0.1029
  502MOL0     N67686   4.718   1.431  10.828 -0.1498  0.5694  1.1457
  502MOL0     N67687   4.839   1.459  10.849  0.0381  0.7258  0.3645
  502MOL0     C67688   5.649   2.001  10.124  0.6283  0.7222  0.1786
  502MOL0     C67689   5.771   2.023  10.057  0.1363  0.4029  0.3507
  502MOL0     C67690   6.150   2.139   9.909  0.5194 -0.3063  0.6176
  502MOL0     C67691   6.192   2.140   9.771  0.5858  0.1963 -0.5211
  502MOL0     C67692   6.325   2.131   9.734 -0.8484 -0.7542 -0.0796
  502MOL0     C67693   6.418   2.113   9.836  0.4475  0.2402  0.3716
  502MOL0     O67694   6.550   2.086   9.788  0.0620 -0.2796  0.5105
  502MOL0     C67695   6.667   2.073   9.872 -0.5499  0.9229  0.9502
  502MOL0     C67696   6.745   2.196   9.879 -0.3898  0.2025 -0.1511
  502MOL0     C67697   6.853   2.206   9.991 -0.6811 -1.3458 -0.1184
  502MOL0     C67698   6.988   2.168   9.960 -0.0668  0.2469  0.8406
  502MOL0     C67699   7.000   2.023   9.922 -0.2082 -0.2462  0.7482
  502MOL0     C67700   7.019   1.911   9.895 -0.9742  0.1597  0.4616
  502MOL0     C67701   6.377   2.115   9.973 -0.4440 -0.2020  0.4373
  502MOL0     C67702   6.246   2.125  10.011  0.7342  0.6865  0.2374
  502MOL0     H67703   5.900   2.236  10.298 -3.3178  2.2650  3.6383
  502MOL0     H67704   5.682   2.221  10.381  0.6148  1.4544  0.2532
  502MOL0     H67705   5.400   1.907  10.218 -0.3017 -0.6527 -0.1158
  502MOL0     H67706   5.479   1.872  10.377  1.8268 -0.1125 -0.4907
  502MOL0     H67707   5.229   2.063  10.363 -1.1642  0.7944  1.6620
  502MOL0     H67708   5.225   1.881  10.348  0.7828 -2.4648  2.4603
  502MOL0     H67709   5.322   1.863  10.571  0.3390 -0.2127  0.2411
  502MOL0     H67710   5.361   2.036  10.580  0.8164 -0.1455  0.2657
  502MOL0     H67711   5.103   2.079  10.578  1.0169  0.5528  2.0187
  502MOL0     H67712   5.084   1.914  10.538  0.7931  3.0461 -3.7747
  502MOL0     H67713   5.233   1.994  10.798 -0.8693  0.5654  2.3758
  502MOL0     H67714   5.053   2.020  10.791  0.5829  1.2560 -1.3212
  502MOL0     H67715   5.213   1.761  10.728  0.9574 -1.3014  1.2782
  502MOL0     H67716   5.150   1.796  10.894 -0.9823  0.3482 -0.8007
  502MOL0     H67717   4.939   1.735  10.856 -0.4851 -0.5969 -1.0827
  502MOL0     H67718   4.935   1.781  10.688 -1.7542 -0.1621  0.9508
  502MOL0     H67719   5.060   1.545  10.834 -0.3058  0.4506  0.0320
  502MOL0     H67720   5.074   1.567  10.650 -0.5942  2.6141 -0.1886
  502MOL0     H67721   4.823   1.539  10.530 -1.8868  2.8791  1.5402
  502MOL0     H67722   4.555   1.342  10.580 -1.0811  1.0849 -4.4128
  502MOL0     H67723   4.490   1.454  10.703  1.5882 -2.8210  0.3919
  502MOL0     H67724   4.594   1.495  10.424  2.6517  0.0402  1.8124
  502MOL0     H67725   4.578   1.639  10.521  3.2844 -1.4633  0.7433
  502MOL0     H67726   4.379   1.625  10.396  1.1638 -0.3356 -0.5056
  502MOL0     H67727   4.341   1.595  10.571  2.3177 -2.2038  2.1801
  502MOL0     H67728   4.297   1.378  10.538  3.9190 -0.0159  1.5017
  502MOL0     H67729   4.372   1.352  10.377 -1.8294  0.1737 -1.6436
  502MOL0     H67730   4.319   1.273  10.190  0.6566 -1.7393  0.8640
  502MOL0     H67731   4.217   1.158   9.901 -2.1235  2.6433  0.4127
  502MOL0     H67732   4.345   1.150  10.020  0.2926 -2.3817 -1.1316
  502MOL0     H67733   4.249   1.014  10.008 -0.9850 -0.2637  0.5858
  502MOL0     H67734   3.631   0.953  10.039 -1.5406  2.2004  0.6748
  502MOL0     H67735   3.513   0.796   9.883 -0.9483  0.6251  1.0932
  502MOL0     H67736   3.349   0.779   9.770 -2.4502 -0.0674 -0.0088
  502MOL0     H67737   3.309   0.911   9.645  1.3052  0.6914  2.3605
  502MOL0     H67738   3.180   0.709   9.622  0.2992  1.5764  0.0252
  502MOL0     H67739   3.255   0.770   9.482  1.6420  0.5921  0.0029
  502MOL0     H67740   3.448   0.591   9.539 -0.1732 -1.9601  2.6146
  502MOL0     H67741   3.295   0.553   9.450 -0.7888 -0.2952  0.8001
  502MOL0     H67742   3.380   0.505   9.751 -0.9413  1.2019 -0.2986
  502MOL0     H67743   3.223   0.478   9.691 -0.7082  2.4634 -0.2934
  502MOL0     H67744   3.478   0.364   9.590 -0.6023 -0.4242 -0.8076
  502MOL0     H67745   3.325   0.293   9.529  1.7070 -1.0833 -1.0597
  502MOL0     H67746   3.401   0.311   9.826  0.6741 -3.7947  2.5362
  502MOL0     H67747   3.263   0.229   9.763 -1.3851  4.8113  0.4429
  502MOL0     H67748   3.557   0.176   9.721 -1.7793  2.5473  0.4641
  502MOL0     H67749   3.436   0.095   9.619 -3.5155  1.1310 -0.7330
  502MOL0     H67750   3.510  -0.050   9.785  0.5515  0.6354  0.9438
  502MOL0     H67751   3.353  -0.013   9.835  0.2044 -3.1767 -3.9679
  502MOL0     H67752   3.677   1.017   9.551 -0.1762  1.3486  0.6018
  502MOL0     H67753   3.788   1.155   9.700 -0.1521  0.1307 -1.3200
  502MOL0     H67754   3.824   1.256  10.194  0.1061 -1.8405  0.6289
  502MOL0     H67755   3.937   1.400  10.348  1.0409  2.4044 -0.0556
  502MOL0     H67756   5.572   1.942  10.075 -0.1308  1.4613  0.4753
  502MOL0     H67757   5.802   1.968   9.969  0.9818  0.3078  0.6958
  502MOL0     H67758   6.131   2.127   9.682 -0.5614  0.1712  0.2518
  502MOL0     H67759   6.362   2.117   9.634 -0.7763 -1.7840  0.0830
  502MOL0     H67760   6.641   2.059   9.978 -1.2189  0.0110  0.6833
  502MOL0     H67761   6.730   1.994   9.832 -0.8015  0.2035  1.9233
  502MOL0     H67762   6.676   2.277   9.907  2.0528  2.0369  0.9408
  502MOL0     H67763   6.788   2.221   9.782 -1.8688  0.9281 -0.6494
  502MOL0     H67764   6.824   2.158  10.084  0.2064  1.0574  1.4976
  502MOL0     H67765   6.862   2.315  10.001 -1.2829 -0.5582 -5.1972
  502MOL0     H67766   7.063   2.184  10.038 -2.4156 -0.8811  3.4854
  502MOL0     H67767   7.022   2.226   9.873  1.0224 -1.4106  0.0988
  502MOL0     H67768   7.021   1.806   9.872  0.0804  0.5964 -1.6821
  502MOL0     H67769   6.453   2.098  10.049  0.1277 -1.9906 -0.4947
  502MOL0     H67770   6.207   2.119  10.112 -0.8246  2.7249 -0.1793
  503MOL0     O67771   9.252   8.918   4.554  0.6155  0.1588  0.2637
  503MOL0     C67772   9.239   9.040   4.577  0.6012 -0.3491 -0.0079
  503MOL0     O67773   9.237   9.140   4.482 -0.0479  0.3542  0.4697
  503MOL0     C67774   9.231   9.099   4.350  0.1493  1.1637  0.3672
  503MOL0     C67775   9.109   9.084   4.291  0.3401  0.1726  0.8813
  503MOL0     C67776   9.097   9.040   4.155  0.0794  0.2197 -0.0220
  503MOL0     C67777   9.217   9.008   4.081 -0.3417 -0.1040 -1.1908
  503MOL0     O67778   9.228   8.958   3.954  0.1785  0.4920 -0.4609
  503MOL0     C67779   9.120   8.963   3.861 -0.0987 -0.3163  0.5547
  503MOL0     C67780   9.107   9.119   3.834  0.2901 -0.2446 -0.3129
  503MOL0     C67781   8.996   9.146   3.732 -0.5612  0.0605  0.2504
  503MOL0     C67782   8.855   9.131   3.793  0.2528 -0.9086  0.7899
  503MOL0     C67783   8.732   9.132   3.701 -0.7690  0.4547  0.0230
  503MOL0     C67784   8.598   9.089   3.767 -0.1914  0.4748  0.0568
  503MOL0     C67785   8.480   9.087   3.669  0.1617 -0.2664 -0.2129
  503MOL0     C67786   8.336   9.088   3.738 -0.3958 -0.8328  0.2838
  503MOL0     N67787   8.305   9.010   3.858  0.2148 -0.3988 -0.0734
  503MOL0     C67788   8.295   8.876   3.862  0.0917 -0.1158 -0.4703
  503MOL0     C67789   8.257   8.852   3.985 -0.1000  0.1583  0.0505
  503MOL0     C67790   8.222   8.716   4.035 -0.7012 -0.3909 -0.0807
  503MOL0     C67791   8.201   8.595   3.942 -0.1597 -0.1149  0.2291
  503MOL0     C67792   8.209   8.470   4.022 -0.2635 -0.4036  0.4560
  503MOL0     C67793   8.347   8.404   4.028 -0.2510 -0.5219 -0.5639
  503MOL0     O67794   8.342   8.274   4.083  0.0027  0.2452 -0.0297
  503MOL0     C67795   8.309   8.245   4.216  0.5040 -0.9622  0.2157
  503MOL0     C67796   8.300   8.342   4.313 -0.5529  0.4394  0.0206
  503MOL0     C67797   8.253   8.312   4.439 -1.0366 -0.1443 -0.7491
  503MOL0     C67798   8.277   8.431   4.537  0.2565 -0.4284  0.0880
  503MOL0     C67799   8.222   8.182   4.479 -0.2187  0.0770 -0.6116
  503MOL0     C67800   8.157   8.136   4.606  0.3013 -0.3674  0.5564
  503MOL0     O67801   8.141   8.003   4.618 -0.2046 -0.2254  0.3526
  503MOL0     C67802   8.063   7.944   4.711 -0.7743  0.9955 -0.3200
  503MOL0     C67803   7.995   7.822   4.688  0.1489  0.2450 -0.6033
  503MOL0     C67804   7.911   7.757   4.780 -0.0495 -0.3872  0.5489
  503MOL0     C67805   7.899   7.808   4.906  0.6729 -1.4035 -0.0092
  503MOL0     O67806   7.811   7.762   5.002 -0.1554  0.1534  0.7117
  503MOL0     C67807   7.716   7.659   4.976 -0.4023 -0.1789  0.7802
  503MOL0     C67808   7.794   7.528   5.003 -0.0004 -0.6688 -0.4658
  503MOL0     C67809   7.820   7.496   5.147 -0.2074 -1.4784  0.3626
  503MOL0     C67810   7.702   7.458   5.229 -0.0946 -0.4419 -0.4380
  503MOL0     C67811   7.746   7.401   5.361  0.1375  0.1244 -0.3761
  503MOL0     C67812   7.795   7.501   5.461 -0.0784 -0.0838  0.2574
  503MOL0     C67813   7.835   7.424   5.587  0.4266 -1.3099 -0.0693
  503MOL0     C67814   7.891   7.529   5.693 -0.2063 -0.5908  0.3416
  503MOL0    Cl67815   7.968   7.450   5.841 -0.1345  0.1469  0.0202
  503MOL0     C67816   7.975   7.928   4.939 -0.5280  0.0000 -0.4834
  503MOL0     C67817   8.059   7.989   4.848 -0.0082 -0.1855  0.8133
  503MOL0     O67818   8.111   8.224   4.676  0.8622 -0.2387 -0.1282
  503MOL0     C67819   8.236   8.083   4.383 -1.2042  0.8726  0.3358
  503MOL0     C67820   8.282   8.113   4.250  0.7135  0.2386  0.0772
  503MOL0     N67821   8.248   8.967   4.061 -0.5893 -0.0097 -0.3459
  503MOL0     N67822   8.285   9.061   3.982 -0.4393  0.4490  1.1918
  503MOL0     C67823   9.345   9.037   4.138 -0.6352  0.3294 -0.6428
  503MOL0     C67824   9.345   9.079   4.272 -0.5487 -0.1984  0.0260
  503MOL0     C67825   9.218   9.077   4.721  0.0064  0.2102  0.1574
  503MOL0     C67826   9.192   9.218   4.766  0.1951 -0.0969  1.0022
  503MOL0     C67827   9.180   9.256   4.899 -0.3167  0.5394  0.2334
  503MOL0     C67828   9.206   9.160   5.004  0.3017  0.9908  0.3482
  503MOL0     O67829   9.193   9.185   5.137  0.6359 -0.4639 -0.6759
  503MOL0     C67830   9.120   9.306   5.178  0.1700 -0.5899 -0.7357
  503MOL0     C67831   9.090   9.290   5.326  0.3803  0.5873  0.6706
  503MOL0     C67832   9.210   9.270   5.413 -0.2331  0.0594 -0.4990
  503MOL0     C67833   9.309   9.384   5.418  0.0717  0.2267 -0.4408
  503MOL0     C67834   9.247   9.499   5.488  0.4742  0.3211  0.4004
  503MOL0     C67835   9.193   9.595   5.531 -0.2858  0.0346 -0.3183
  503MOL0     C67836   9.239   9.032   4.954 -0.0012  0.3710 -0.1197
  503MOL0     C67837   9.251   8.982   4.820  0.4678 -0.6538  0.1680
  503MOL0     H67838   9.018   9.090   4.350 -0.9988 -4.3548 -0.2891
  503MOL0     H67839   8.997   9.031   4.116  0.9483  0.9599 -2.5797
  503MOL0     H67840   9.136   8.911   3.766 -1.7746 -1.1223  0.6774
  503MOL0     H67841   9.031   8.918   3.906 -1.1205 -0.2875 -1.3518
  503MOL0     H67842   9.090   9.171   3.928 -1.1336 -1.6431  0.2417
  503MOL0     H67843   9.199   9.159   3.789  1.2123 -0.5989  1.1908
  503MOL0     H67844   9.021   9.236   3.675  0.6812 -0.8891 -0.7677
  503MOL0     H67845   9.017   9.069   3.657 -0.6710  1.0448 -0.8301
  503MOL0     H67846   8.842   9.042   3.857  2.4889 -1.1597  0.9810
  503MOL0     H67847   8.833   9.218   3.856 -1.4247 -0.7941  0.0923
  503MOL0     H67848   8.714   9.234   3.666  1.7482 -0.4078 -4.4816
  503MOL0     H67849   8.755   9.073   3.613  1.0843 -2.7736  2.4546
  503MOL0     H67850   8.604   8.990   3.814  2.2172  0.7394  0.4151
  503MOL0     H67851   8.579   9.156   3.851 -0.2575 -0.4298  0.7732
  503MOL0     H67852   8.484   9.174   3.603 -0.1456 -1.1080 -1.3799
  503MOL0     H67853   8.486   8.990   3.619  0.8620 -1.6842  2.4029
  503MOL0     H67854   8.269   9.052   3.660  0.7872 -1.3832 -0.5058
  503MOL0     H67855   8.311   9.193   3.754 -1.0777 -1.0879  0.9483
  503MOL0     H67856   8.307   8.805   3.780 -1.1069  0.3917 -1.1194
  503MOL0     H67857   8.285   8.681   4.118  0.6990 -1.3316 -1.4674
  503MOL0     H67858   8.127   8.735   4.084 -0.7026  0.3057 -0.3459
  503MOL0     H67859   8.275   8.591   3.862  0.7758 -1.9594  1.1134
  503MOL0     H67860   8.098   8.601   3.903 -0.1116  1.6402  0.3038
  503MOL0     H67861   8.155   8.390   3.969  0.1604 -0.1787 -0.3336
  503MOL0     H67862   8.157   8.482   4.118  2.6194  0.7362  1.9880
  503MOL0     H67863   8.426   8.461   4.078  1.3442 -1.2165 -2.2069
  503MOL0     H67864   8.376   8.403   3.923 -3.3335  3.2340 -1.6882
  503MOL0     H67865   8.309   8.446   4.284  1.2509 -0.1132 -1.6651
  503MOL0     H67866   8.190   8.457   4.599 -0.4218 -0.8783 -0.6571
  503MOL0     H67867   8.369   8.420   4.596  1.3626 -0.6918 -1.6192
  503MOL0     H67868   8.292   8.520   4.476 -2.4113 -1.1559 -1.7961
  503MOL0     H67869   8.004   7.773   4.591  3.4645 -1.4648  0.4371
  503MOL0     H67870   7.856   7.667   4.753 -0.2780  0.2903 -1.3844
  503MOL0     H67871   7.623   7.672   5.033 -0.4740  0.1326  0.5968
  503MOL0     H67872   7.687   7.663   4.871 -1.4404  0.7949  1.0816
  503MOL0     H67873   7.738   7.440   4.970 -2.1935  1.1269 -1.7679
  503MOL0     H67874   7.893   7.539   4.957 -0.5456  1.5735 -1.2043
  503MOL0     H67875   7.877   7.580   5.187 -0.0606  0.7461 -3.9825
  503MOL0     H67876   7.884   7.408   5.138  1.7459  0.0951 -3.2776
  503MOL0     H67877   7.644   7.548   5.251  0.6163 -0.0178 -0.2820
  503MOL0     H67878   7.641   7.376   5.189  0.8693 -1.6127  0.4354
  503MOL0     H67879   7.829   7.332   5.340 -1.0226 -2.5236  2.9368
  503MOL0     H67880   7.666   7.342   5.405 -0.8244  0.7182 -1.2760
  503MOL0     H67881   7.882   7.549   5.417  0.2538  0.6475  1.6491
  503MOL0     H67882   7.718   7.577   5.479  0.0666  0.0341  0.3824
  503MOL0     H67883   7.914   7.356   5.552  1.5510  0.5914 -1.4639
  503MOL0     H67884   7.758   7.359   5.628 -1.4935  0.7925 -0.1671
  503MOL0     H67885   7.811   7.592   5.734  0.1267 -1.2440  2.0893
  503MOL0     H67886   7.964   7.588   5.639 -0.2471 -1.3525 -0.5700
  503MOL0     H67887   7.965   7.969   5.039 -0.8144 -1.0773 -0.0639
  503MOL0     H67888   8.107   8.081   4.881  0.0893  0.1163 -0.1385
  503MOL0     H67889   8.201   7.981   4.396 -1.1036  0.9233  1.0847
  503MOL0     H67890   8.295   8.034   4.177 -0.7392  1.5167 -1.6225
  503MOL0     H67891   9.431   9.023   4.073  1.2045  1.3118  1.4498
  503MOL0     H67892   9.441   9.100   4.317 -1.1725  4.1268 -0.3212
  503MOL0     H67893   9.190   9.305   4.702  1.0137 -1.9728 -1.7419
  503MOL0     H67894   9.165   9.363   4.910  5.2811  1.8409 -1.2202
  503MOL0     H67895   9.175   9.398   5.158 -2.1659  0.6214 -2.1533
  503MOL0     H67896   9.022   9.321   5.131 -0.0448 -0.1230 -0.1457
  503MOL0     H67897   9.016   9.213   5.348 -0.0653  0.4743 -1.1095
  503MOL0     H67898   9.038   9.379   5.362  0.8592  0.2786  2.2042
  503MOL0     H67899   9.270   9.182   5.391 -2.5875 -1.4857 -1.1080
  503MOL0     H67900   9.179   9.250   5.516  1.0165  0.7346  0.0374
  503MOL0     H67901   9.342   9.395   5.314  1.1994 -4.0982 -0.7675
  503MOL0     H67902   9.387   9.344   5.484 -1.4676 -0.1871  1.2137
  503MOL0     H67903   9.139   9.680   5.566 -3.0067 -2.2164  1.3357
  503MOL0     H67904   9.268   8.971   5.039 -0.9737  1.9356  1.4012
  503MOL0     H67905   9.279   8.881   4.789 -1.9662 -1.5650  0.7073
  504MOL0     O67906   9.503   0.595   5.122 -0.8100  0.0211 -0.0522
  504MOL0     C67907   9.441   0.637   5.024 -0.6803 -0.8414 -0.2900
  504MOL0     O67908   9.306   0.646   5.012 -0.1520 -0.9637  0.2669
  504MOL0     C67909   9.216   0.568   5.079 -1.5139  0.4219 -0.4546
  504MOL0     C67910   9.236   0.516   5.211 -0.7830 -1.2426  0.3807
  504MOL0     C67911   9.128   0.458   5.279 -0.3198  1.2586  0.3060
  504MOL0     C67912   9.004   0.435   5.216 -0.1683  0.8290  0.0467
  504MOL0     O67913   8.886   0.394   5.270 -0.3011  0.4034  0.1078
  504MOL0     C67914   8.894   0.315   5.396  0.2504 -0.0849  0.8723
  504MOL0     C67915   8.763   0.229   5.413  0.5849  0.4393  0.1626
  504MOL0     C67916   8.640   0.301   5.388  0.1990 -0.4011 -0.3430
  504MOL0     C67917   8.509   0.229   5.397 -0.3320 -0.5365 -0.3894
  504MOL0     C67918   8.423   0.283   5.272 -1.4296  0.0092 -0.7403
  504MOL0     C67919   8.272   0.244   5.269 -0.7820 -0.4648  0.4469
  504MOL0     C67920   8.202   0.301   5.392 -0.6466  0.1837  1.0852
  504MOL0     C67921   8.054   0.262   5.387  0.4978  0.8499 -0.1450
  504MOL0     N67922   7.983   0.331   5.502  0.5024 -0.4656  0.5382
  504MOL0     C67923   8.020   0.372   5.626  0.0072  0.8044  0.5296
  504MOL0     C67924   7.915   0.437   5.682 -0.0876 -0.3608  0.1935
  504MOL0     C67925   7.952   0.536   5.791  1.0171 -0.0050  1.0191
  504MOL0     C67926   7.897   0.467   5.917 -0.7979 -0.3545 -0.4416
  504MOL0     C67927   7.969   0.333   5.957  0.4444  0.2577  0.3223
  504MOL0     C67928   7.958   0.256   6.096 -0.1434  0.4615 -0.1523
  504MOL0     O67929   7.821   0.259   6.137  0.7026 -0.1690 -0.2367
  504MOL0     C67930   7.788   0.198   6.258  0.4000  0.1601  1.0223
  504MOL0     C67931   7.872   0.133   6.350 -0.6076 -0.2448  0.1422
  504MOL0     C67932   7.819   0.056   6.454  0.7198 -0.3444 -0.9252
  504MOL0     C67933   7.917  -0.019   6.546 -0.4908 -0.1426 -0.3344
  504MOL0     C67934   7.677   0.055   6.474  0.2814  0.6685  0.2477
  504MOL0     C67935   7.611  -0.033   6.577 -0.0438 -0.3885  0.4027
  504MOL0     O67936   7.657  -0.040   6.701 -0.2491  0.1042 -0.4239
  504MOL0     C67937   7.578  -0.105   6.788 -0.2966  0.3719 -0.3252
  504MOL0     C67938   7.581  -0.249   6.771 -0.1241  0.4838 -0.3332
  504MOL0     C67939   7.522  -0.335   6.871  0.0369 -0.4502 -0.3180
  504MOL0     C67940   7.457  -0.279   6.983 -0.0868 -0.2790  0.7289
  504MOL0     O67941   7.396  -0.352   7.073 -0.5271  0.0209 -0.3286
  504MOL0     C67942   7.317  -0.460   7.029  0.4664  0.4994  0.3703
  504MOL0     C67943   7.225  -0.509   7.138 -0.1694  0.5976  0.8112
  504MOL0     C67944   7.124  -0.596   7.074 -0.2546 -0.2904 -0.7215
  504MOL0     C67945   7.012  -0.525   7.008  0.2217  0.0173 -0.3951
  504MOL0     C67946   6.913  -0.604   6.929 -0.1380  0.3038 -0.3316
  504MOL0     C67947   6.815  -0.698   7.013  0.3690  0.1529 -0.1596
  504MOL0     C67948   6.770  -0.826   6.934  0.6007  0.3283 -0.3601
  504MOL0     C67949   6.719  -0.936   7.030 -0.2358 -0.6354 -0.5774
  504MOL0    Cl67950   6.852  -0.967   7.147  0.2248  0.5497  0.0190
  504MOL0     C67951   7.447  -0.142   6.990 -0.2947  0.3861  0.8212
  504MOL0     C67952   7.505  -0.054   6.901 -1.4289 -0.3853 -0.0291
  504MOL0     O67953   7.511  -0.095   6.535  0.1298 -0.3820 -0.4827
  504MOL0     C67954   7.598   0.114   6.378  0.2152  1.2822  0.3112
  504MOL0     C67955   7.650   0.180   6.265 -0.6773 -0.4378 -0.2462
  504MOL0     N67956   7.802   0.423   5.599  0.0254  0.0182  0.6566
  504MOL0     N67957   7.851   0.363   5.499 -0.1330 -0.2465  0.5051
  504MOL0     C67958   8.988   0.492   5.088  0.6475  0.3530 -0.0071
  504MOL0     C67959   9.087   0.564   5.026 -0.2203  0.4318  0.3158
  504MOL0     C67960   9.515   0.709   4.917 -1.1629 -0.1975  0.2736
  504MOL0     C67961   9.649   0.749   4.931 -0.4234  0.6408 -1.0736
  504MOL0     C67962   9.710   0.824   4.832 -0.2841 -0.4013 -0.4616
  504MOL0     C67963   9.643   0.858   4.713 -0.1682  0.6972 -0.5999
  504MOL0     O67964   9.718   0.923   4.615 -0.3824  0.7895 -0.2137
  504MOL0     C67965   9.686   0.925   4.473  0.4532 -0.0904 -0.8147
  504MOL0     C67966   9.777   1.046   4.420 -0.0397  0.3814  0.3004
  504MOL0     C67967   9.923   1.013   4.389 -0.0316  0.1075 -0.1890
  504MOL0     C67968  10.004   0.919   4.475 -0.3096  0.1144 -0.0075
  504MOL0     C67969  10.026   0.954   4.611  0.2976 -0.7852 -0.6072
  504MOL0     C67970  10.054   0.970   4.731 -0.6232 -0.3124 -0.4517
  504MOL0     C67971   9.510   0.816   4.701 -0.4222  0.8915  0.2397
  504MOL0     C67972   9.450   0.743   4.801 -0.4337  0.8584  0.2199
  504MOL0     H67973   9.333   0.526   5.259 -1.0461  0.7540  0.5758
  504MOL0     H67974   9.122   0.433   5.385 -1.1222  2.9262  0.6895
  504MOL0     H67975   8.986   0.257   5.403  1.1611  1.4199  2.1101
  504MOL0     H67976   8.904   0.383   5.481  1.7677 -1.9365  2.2686
  504MOL0     H67977   8.784   0.157   5.333  3.6822  0.9010  0.4337
  504MOL0     H67978   8.771   0.189   5.515  4.4096 -4.1571 -1.5283
  504MOL0     H67979   8.634   0.396   5.443  1.2986  1.4928 -3.2047
  504MOL0     H67980   8.655   0.326   5.282 -2.6486  1.2679 -0.4553
  504MOL0     H67981   8.540   0.124   5.392  3.8478  0.4149  0.8721
  504MOL0     H67982   8.455   0.245   5.491 -0.3105 -0.7427 -0.3406
  504MOL0     H67983   8.438   0.391   5.263  2.7909 -0.4837 -1.6741
  504MOL0     H67984   8.473   0.244   5.183  1.5667  2.4400 -0.2843
  504MOL0     H67985   8.235   0.289   5.176 -0.5886 -1.4447 -0.1197
  504MOL0     H67986   8.249   0.138   5.253  0.2193 -0.7634  0.8735
  504MOL0     H67987   8.262   0.276   5.480  0.1783 -2.9520 -0.2325
  504MOL0     H67988   8.202   0.409   5.377 -1.4451 -0.1173 -1.6664
  504MOL0     H67989   8.028   0.156   5.399 -3.0036  1.7545  1.5325
  504MOL0     H67990   8.002   0.265   5.290  1.3837 -1.6864 -0.7846
  504MOL0     H67991   8.123   0.359   5.659  1.0756  2.1858 -1.9895
  504MOL0     H67992   8.061   0.534   5.803  0.9116 -0.0337  2.0395
  504MOL0     H67993   7.916   0.637   5.768  0.8513  0.2026  2.1646
  504MOL0     H67994   7.789   0.459   5.902 -0.7713 -1.3810 -0.1210
  504MOL0     H67995   7.928   0.538   5.994 -0.9908 -0.0211 -0.6662
  504MOL0     H67996   8.075   0.348   5.934  0.2316 -0.5372 -1.2845
  504MOL0     H67997   7.956   0.253   5.884  0.7338 -0.7841  1.3951
  504MOL0     H67998   8.031   0.300   6.164 -0.4865 -1.5137  1.5922
  504MOL0     H67999   7.988   0.152   6.085  2.2857  1.0993 -0.0250
  504MOL0     H68000   7.979   0.150   6.348 -0.4301 -1.2928 -1.5787
  504MOL0     H68001   7.888  -0.123   6.558 -0.0428 -0.0593  1.9152
  504MOL0     H68002   8.019  -0.019   6.508 -0.7057  3.1295 -1.2992
  504MOL0     H68003   7.904   0.016   6.649 -1.3404 -3.4576  0.8187
  504MOL0     H68004   7.644  -0.300   6.698  0.0803 -1.0198  0.8450
  504MOL0     H68005   7.535  -0.443   6.861  2.9311 -0.3379  1.2033
  504MOL0     H68006   7.254  -0.432   6.944  1.8458  1.2125 -0.4498
  504MOL0     H68007   7.383  -0.541   6.997  0.2403  0.6887 -0.5921
  504MOL0     H68008   7.267  -0.583   7.207 -2.4291 -2.0689 -0.4556
  504MOL0     H68009   7.176  -0.437   7.203 -0.9507  0.1574  0.7198
  504MOL0     H68010   7.076  -0.665   7.144 -0.4741 -1.8852 -2.3728
  504MOL0     H68011   7.174  -0.668   7.008 -0.2396 -2.1339  1.2015
  504MOL0     H68012   6.959  -0.483   7.095  1.4855 -1.7081  1.2818
  504MOL0     H68013   7.050  -0.436   6.957  1.3613 -0.4097 -0.3148
  504MOL0     H68014   6.966  -0.668   6.857  0.1365  1.5519 -1.2862
  504MOL0     H68015   6.840  -0.543   6.874 -3.4986 -1.5452  1.7309
  504MOL0     H68016   6.867  -0.719   7.107  1.1644 -0.2271 -0.6727
  504MOL0     H68017   6.724  -0.645   7.042  0.7570  0.3613  0.7007
  504MOL0     H68018   6.853  -0.865   6.873  1.1285  3.2554 -1.6678
  504MOL0     H68019   6.697  -0.817   6.853 -1.8856 -2.4227  1.3803
  504MOL0     H68020   6.706  -1.023   6.964  2.2954  1.6423 -4.4645
  504MOL0     H68021   6.622  -0.912   7.074  0.9382  1.9283  0.8077
  504MOL0     H68022   7.398  -0.105   7.080  2.4181  0.8768  2.2111
  504MOL0     H68023   7.515   0.051   6.923  2.5430 -0.1038 -2.2232
  504MOL0     H68024   7.490   0.103   6.387  0.5814 -2.3508  2.4062
  504MOL0     H68025   7.596   0.213   6.178  0.1448 -0.2428 -0.6964
  504MOL0     H68026   8.893   0.483   5.036 -0.3258  3.4070  1.0175
  504MOL0     H68027   9.066   0.611   4.931 -1.0222  1.8786  1.1825
  504MOL0     H68028   9.703   0.712   5.018 -1.0585  3.2461  0.5236
  504MOL0     H68029   9.818   0.831   4.831 -0.1020 -0.9738  2.9875
  504MOL0     H68030   9.693   0.830   4.420  1.7058 -2.0702  2.5596
  504MOL0     H68031   9.582   0.958   4.467  0.5420  0.4930  0.4371
  504MOL0     H68032   9.766   1.130   4.490 -3.3120 -0.6728  1.2171
  504MOL0     H68033   9.724   1.080   4.330 -2.2663 -5.2339 -0.8802
  504MOL0     H68034   9.962   1.115   4.384 -3.4723  1.7418  1.9186
  504MOL0     H68035   9.913   0.974   4.287 -1.5001  2.5749 -1.1019
  504MOL0     H68036  10.102   0.906   4.429 -0.6250  1.0802 -1.0304
  504MOL0     H68037   9.944   0.828   4.485  4.0068 -3.1300 -0.9584
  504MOL0     H68038  10.073   0.971   4.837 -3.4885 -0.4111  0.1411
  504MOL0     H68039   9.446   0.838   4.616 -0.6811  1.4074  0.5687
  504MOL0     H68040   9.345   0.720   4.785 -0.5692 -0.2889  2.3751
  505MOL0     O68041   1.475   2.140   6.731 -0.6891  0.6294  0.6766
  505MOL0     C68042   1.536   2.246   6.752  0.0888 -0.1992  0.2714
  505MOL0     O68043   1.485   2.376   6.714 -0.4653  0.0811 -0.0801
  505MOL0     C68044   1.360   2.382   6.651  0.3652 -0.1845  0.9195
  505MOL0     C68045   1.325   2.285   6.550 -0.3671 -0.4674  0.3552
  505MOL0     C68046   1.193   2.274   6.517 -0.2322  0.1979 -0.5724
  505MOL0     C68047   1.097   2.369   6.565  0.0443 -0.3092  0.5240
  505MOL0     O68048   0.961   2.356   6.553 -0.5958  0.8643 -0.3133
  505MOL0     C68049   0.907   2.281   6.430 -0.4282  0.2592 -0.2776
  505MOL0     C68050   0.750   2.288   6.429 -0.2091  0.1192  0.0480
  505MOL0     C68051   0.686   2.217   6.546 -0.2818  0.1932 -1.0479
  505MOL0     C68052   0.536   2.243   6.539 -0.7383  0.6482 -0.3746
  505MOL0     C68053   0.471   2.195   6.673  0.3057 -0.9681 -0.0842
  505MOL0     C68054   0.457   2.040   6.682 -0.0429 -0.6294 -0.4214
  505MOL0     C68055   0.385   2.007   6.809 -0.2934 -0.2616  0.6231
  505MOL0     C68056   0.450   2.045   6.940  0.5582  0.3290 -0.0993
  505MOL0     N68057   0.584   1.992   6.956  0.1003  0.1546 -0.3898
  505MOL0     C68058   0.697   2.034   6.894 -0.0010 -0.0195 -0.3145
  505MOL0     C68059   0.787   1.936   6.920 -0.5342  0.6336  0.3712
  505MOL0     C68060   0.931   1.947   6.884 -0.3841  0.0389  0.1579
  505MOL0     C68061   1.015   2.056   6.957 -0.7854  0.0299  0.7170
  505MOL0     C68062   1.160   2.015   6.939  0.5513 -0.4442  0.1928
  505MOL0     C68063   1.253   2.135   6.970  0.3089  0.0441 -0.7357
  505MOL0     O68064   1.205   2.188   7.099 -0.0236 -0.4607  0.1283
  505MOL0     C68065   1.256   2.315   7.109 -1.4813 -0.3568 -0.6458
  505MOL0     C68066   1.208   2.432   7.050 -0.2961 -0.4736 -0.0448
  505MOL0     C68067   1.288   2.546   7.055 -0.1191 -0.5644  0.0680
  505MOL0     C68068   1.225   2.676   6.995  0.2312  0.7619 -0.4642
  505MOL0     C68069   1.418   2.553   7.109 -0.5318  0.2357  0.7157
  505MOL0     C68070   1.502   2.674   7.126  0.1108 -0.6711  0.4835
  505MOL0     O68071   1.431   2.770   7.180  0.4316 -0.8000 -1.0357
  505MOL0     C68072   1.475   2.901   7.172  0.9212  1.1613  0.1162
  505MOL0     C68073   1.564   2.945   7.267  0.4961  0.0444  0.2776
  505MOL0     C68074   1.603   3.077   7.262 -0.2367  0.0767 -0.4105
  505MOL0     C68075   1.556   3.163   7.161  0.1090  0.2063 -0.2986
  505MOL0     O68076   1.604   3.293   7.176 -0.1648 -0.2445  0.7904
  505MOL0     C68077   1.638   3.358   7.057 -0.0641 -0.2520  0.3456
  505MOL0     C68078   1.748   3.467   7.066  0.3825  0.3085 -0.0792
  505MOL0     C68079   1.786   3.540   6.936  0.7229  0.1344  0.3257
  505MOL0     C68080   1.865   3.443   6.845  0.4376  0.2146  0.0545
  505MOL0     C68081   1.933   3.531   6.741  0.7746  0.4480  0.6375
  505MOL0     C68082   1.850   3.530   6.615 -0.6267  0.0789  0.4212
  505MOL0     C68083   1.926   3.587   6.490 -0.2566  0.4117 -0.4879
  505MOL0     C68084   1.867   3.522   6.363 -0.0293 -0.5940  0.5626
  505MOL0    Cl68085   1.963   3.571   6.229  0.1446  0.2911 -0.0153
  505MOL0     C68086   1.462   3.115   7.059 -0.4535  0.1847 -0.4527
  505MOL0     C68087   1.419   2.986   7.075  0.0641 -0.9007 -0.7649
  505MOL0     O68088   1.619   2.687   7.081  0.6009  0.8910  1.0563
  505MOL0     C68089   1.465   2.429   7.153 -0.3055 -0.9896  0.1983
  505MOL0     C68090   1.386   2.319   7.155  0.9045 -0.4234 -0.2383
  505MOL0     N68091   0.722   1.838   6.998  0.2709  0.1187 -0.2425
  505MOL0     N68092   0.602   1.875   7.021 -0.7624 -0.6570 -0.1062
  505MOL0     C68093   1.143   2.477   6.637  0.2751  0.0633  1.0883
  505MOL0     C68094   1.273   2.477   6.691  0.6458  0.3786 -0.1421
  505MOL0     C68095   1.668   2.234   6.823  0.1909 -0.4441  0.1274
  505MOL0     C68096   1.743   2.353   6.843  0.6204 -0.4288  0.0153
  505MOL0     C68097   1.862   2.344   6.908 -0.5688 -0.1704 -0.2462
  505MOL0     C68098   1.911   2.214   6.942  0.1247 -0.4863  0.2454
  505MOL0     O68099   2.032   2.208   7.003  0.2599  0.3311 -0.4717
  505MOL0     C68100   2.065   2.096   7.082 -0.3547 -0.8083  0.1584
  505MOL0     C68101   2.206   2.108   7.153  0.6838  0.4947  0.3080
  505MOL0     C68102   2.301   2.104   7.043 -1.2318  0.4055 -0.1217
  505MOL0     C68103   2.434   2.111   7.111  0.5599  0.3758 -0.6506
  505MOL0     C68104   2.529   2.112   7.001 -0.8180 -0.0330  0.1135
  505MOL0     C68105   2.603   2.112   6.907 -0.2988  0.9832  0.2996
  505MOL0     C68106   1.841   2.101   6.902  0.0961  0.8630 -0.8998
  505MOL0     C68107   1.719   2.113   6.846  0.0599 -0.4616 -0.5110
  505MOL0     H68108   1.395   2.222   6.498  0.9461  1.2524 -0.0732
  505MOL0     H68109   1.157   2.186   6.463 -1.1837 -0.2710  0.7820
  505MOL0     H68110   0.938   2.326   6.334 -0.4487 -3.9449 -2.4839
  505MOL0     H68111   0.943   2.178   6.433 -0.7876  0.1371 -0.1022
  505MOL0     H68112   0.720   2.392   6.442  0.1309 -0.0003  2.1943
  505MOL0     H68113   0.717   2.234   6.340  2.4571 -0.1164 -0.9045
  505MOL0     H68114   0.695   2.108   6.544  0.9891  0.1168  2.0729
  505MOL0     H68115   0.728   2.260   6.637 -2.3861  0.4326 -0.1181
  505MOL0     H68116   0.505   2.348   6.529 -0.2530  0.9807  1.2460
  505MOL0     H68117   0.496   2.182   6.458  0.8112  1.8263 -2.1100
  505MOL0     H68118   0.529   2.240   6.754 -1.8473  1.3652  0.2876
  505MOL0     H68119   0.373   2.243   6.678  1.9976  2.9834 -0.7241
  505MOL0     H68120   0.406   2.001   6.593  1.3756 -2.2473 -0.5973
  505MOL0     H68121   0.545   1.975   6.679 -0.5536 -1.3447 -2.8945
  505MOL0     H68122   0.286   2.052   6.795  0.7282  1.4232 -2.1041
  505MOL0     H68123   0.381   1.898   6.802  0.6530 -0.3199  0.9188
  505MOL0     H68124   0.393   2.012   7.027  3.1081  0.9431  1.9343
  505MOL0     H68125   0.464   2.153   6.941 -1.2726  0.6098 -0.9671
  505MOL0     H68126   0.720   2.126   6.842 -0.4596 -0.0993 -0.6688
  505MOL0     H68127   0.967   1.844   6.897 -1.2635  0.0383  3.4376
  505MOL0     H68128   0.926   1.973   6.778 -1.1182 -1.6037 -0.2376
  505MOL0     H68129   0.988   2.063   7.063  2.0707  1.5776  1.4578
  505MOL0     H68130   1.002   2.156   6.914  1.7523  0.6400  1.2156
  505MOL0     H68131   1.173   1.980   6.836 -0.3371  1.4211 -0.5947
  505MOL0     H68132   1.182   1.930   7.004  0.2337 -0.6931 -0.0227
  505MOL0     H68133   1.248   2.208   6.888  1.1491  0.2723 -0.5852
  505MOL0     H68134   1.354   2.093   6.969  1.1632  1.9599 -2.1489
  505MOL0     H68135   1.108   2.415   7.012 -0.5979 -0.3467  0.6693
  505MOL0     H68136   1.301   2.718   6.928  1.1907  2.6724  1.6788
  505MOL0     H68137   1.140   2.642   6.936  0.6026 -3.5852  1.0986
  505MOL0     H68138   1.199   2.756   7.065 -0.0119 -0.9267  1.4848
  505MOL0     H68139   1.611   2.884   7.344 -0.3051 -0.9036  0.0337
  505MOL0     H68140   1.664   3.121   7.340 -1.0622 -0.7389  0.7243
  505MOL0     H68141   1.670   3.290   6.977  1.4109 -0.7831  1.3605
  505MOL0     H68142   1.543   3.399   7.020 -0.1790 -1.3425 -0.6510
  505MOL0     H68143   1.706   3.534   7.142  0.0772  0.9356 -0.7925
  505MOL0     H68144   1.841   3.426   7.105 -2.1384 -3.3300  2.8458
  505MOL0     H68145   1.849   3.624   6.967  0.2995  2.0235 -3.4165
  505MOL0     H68146   1.703   3.587   6.884 -0.5696 -0.0486  2.1121
  505MOL0     H68147   1.945   3.394   6.902 -1.1789  0.4440  2.6794
  505MOL0     H68148   1.794   3.367   6.812 -2.9920  2.9313  0.5715
  505MOL0     H68149   2.037   3.503   6.723 -0.5539 -4.0454 -1.5057
  505MOL0     H68150   1.942   3.635   6.776  0.4348 -0.0380  2.2879
  505MOL0     H68151   1.807   3.430   6.609 -0.6223  0.1335 -0.9956
  505MOL0     H68152   1.760   3.591   6.629 -0.6110  0.5654 -1.2689
  505MOL0     H68153   2.035   3.586   6.491 -0.2352  1.3005 -0.8205
  505MOL0     H68154   1.895   3.692   6.483  3.0426  1.5750  0.6298
  505MOL0     H68155   1.761   3.546   6.350  0.1485 -1.3964 -3.8567
  505MOL0     H68156   1.871   3.413   6.367  0.8200 -0.6512 -1.1590
  505MOL0     H68157   1.413   3.186   6.992  0.0382  1.1529  0.1986
  505MOL0     H68158   1.342   2.966   7.001  0.7184 -0.0272 -1.7135
  505MOL0     H68159   1.566   2.426   7.192 -0.1988  3.7420  0.9045
  505MOL0     H68160   1.414   2.225   7.201  2.1316  1.3662  2.9684
  505MOL0     H68161   1.073   2.557   6.654 -0.2263 -0.4805  1.6067
  505MOL0     H68162   1.292   2.548   6.770 -1.9743  0.4339  0.5220
  505MOL0     H68163   1.710   2.452   6.812  1.1469 -0.3243 -0.2348
  505MOL0     H68164   1.916   2.435   6.929 -1.5404  0.1740  0.9319
  505MOL0     H68165   1.990   2.081   7.161 -0.2351 -2.5052 -0.0129
  505MOL0     H68166   2.069   2.005   7.021 -0.5453 -0.0991 -0.9372
  505MOL0     H68167   2.216   2.049   7.244  2.1515  0.8259  0.3943
  505MOL0     H68168   2.215   2.211   7.190 -0.7442 -0.0872  2.4387
  505MOL0     H68169   2.275   2.195   6.988  0.6496  2.0644  1.5521
  505MOL0     H68170   2.293   2.015   6.980  0.2484 -1.4351  2.1171
  505MOL0     H68171   2.455   2.029   7.181 -1.4935  0.7885  0.5417
  505MOL0     H68172   2.450   2.205   7.165  2.7994  0.5333 -1.5220
  505MOL0     H68173   2.678   2.111   6.830  1.3183  5.1239  1.5220
  505MOL0     H68174   1.883   2.001   6.914  1.2521  1.3477 -0.7475
  505MOL0     H68175   1.661   2.027   6.815  0.4340 -0.4349 -1.3143
  506MOL0     O68176  10.710   8.033   7.931 -0.1016 -0.4510  0.2553
  506MOL0     C68177  10.743   8.156   7.934  0.0759 -0.4384  0.1025
  506MOL0     O68178  10.667   8.259   7.889 -0.6256 -0.1322 -0.2510
  506MOL0     C68179  10.570   8.235   7.795 -0.0179 -1.1755  0.9516
  506MOL0     C68180  10.590   8.276   7.666  0.1425 -1.1134 -0.5503
  506MOL0     C68181  10.501   8.243   7.566  0.2480 -1.1442  0.1206
  506MOL0     C68182  10.379   8.173   7.591  0.1975 -0.2197  0.5495
  506MOL0     O68183  10.278   8.148   7.511 -0.4458 -0.1352  0.3430
  506MOL0     C68184  10.297   8.188   7.375  0.5768  0.3671  0.9238
  506MOL0     C68185  10.175   8.165   7.296 -0.0280  0.1216  0.0768
  506MOL0     C68186  10.151   8.016   7.253  0.4421  0.4430 -0.1709
  506MOL0     C68187  10.090   7.926   7.358  1.0525 -0.3982  0.0828
  506MOL0     C68188  10.054   7.789   7.306  0.6532  0.6707 -0.1426
  506MOL0     C68189  10.014   7.690   7.421  0.6681 -0.5459  0.3193
  506MOL0     C68190   9.997   7.537   7.394  0.5039  0.6197 -0.1066
  506MOL0     C68191   9.871   7.502   7.329  0.4231  0.7978 -0.5412
  506MOL0     N68192   9.763   7.534   7.422 -0.5634  1.0988 -0.1380
  506MOL0     C68193   9.733   7.486   7.544  0.4474  0.7607  0.3077
  506MOL0     C68194   9.626   7.549   7.590  0.3790 -0.7677  0.8511
  506MOL0     C68195   9.539   7.514   7.708  0.3386 -0.3215 -0.6988
  506MOL0     C68196   9.543   7.379   7.781 -0.0063  0.4328 -0.2316
  506MOL0     C68197   9.448   7.302   7.689  0.0376  0.6215  0.3313
  506MOL0     C68198   9.434   7.141   7.706  0.3187 -0.7588 -0.3893
  506MOL0     O68199   9.564   7.074   7.723  0.4150 -0.4508  0.0307
  506MOL0     C68200   9.570   6.948   7.769  0.8211 -0.7103  0.4174
  506MOL0     C68201   9.689   6.888   7.785  1.4001 -0.1448  0.5443
  506MOL0     C68202   9.710   6.768   7.854  0.3089  0.7909 -0.5289
  506MOL0     C68203   9.845   6.712   7.858  0.3819  0.5026  0.4403
  506MOL0     C68204   9.592   6.693   7.895 -0.5480 -0.0224  0.3463
  506MOL0     C68205   9.592   6.560   7.954  0.1906  1.6140 -0.2182
  506MOL0     O68206   9.478   6.512   7.989 -0.1709  0.1453  0.2539
  506MOL0     C68207   9.471   6.405   8.075 -0.0531  0.0707 -0.2341
  506MOL0     C68208   9.413   6.443   8.192  0.7677  0.0699 -0.1800
  506MOL0     C68209   9.408   6.349   8.299  0.7177  0.4836  0.0985
  506MOL0     C68210   9.449   6.214   8.280  0.6479 -0.9780 -1.1744
  506MOL0     O68211   9.428   6.139   8.393  0.3260 -0.6822 -0.0421
  506MOL0     C68212   9.433   5.998   8.386  0.7606 -0.2763 -0.0595
  506MOL0     C68213   9.340   5.923   8.284 -0.2772 -0.4305  0.0672
  506MOL0     C68214   9.385   5.768   8.306  0.5690 -0.6041  0.0923
  506MOL0     C68215   9.341   5.701   8.179  0.5882 -0.1717 -0.0825
  506MOL0     C68216   9.353   5.552   8.169 -0.3314  0.5315  0.5734
  506MOL0     C68217   9.301   5.501   8.041 -0.3162 -0.3312 -0.5319
  506MOL0     C68218   9.292   5.346   8.047  0.0542 -0.1638  0.5283
  506MOL0     C68219   9.265   5.305   7.903  0.1011 -0.3618 -1.1958
  506MOL0    Cl68220   9.091   5.362   7.854 -0.1718 -0.2232  0.2364
  506MOL0     C68221   9.502   6.171   8.161 -0.4921 -0.0534 -0.7201
  506MOL0     C68222   9.524   6.269   8.061  0.2907  0.6827  0.4689
  506MOL0     O68223   9.695   6.513   7.990  0.0297  0.7871 -0.5225
  506MOL0     C68224   9.463   6.751   7.866 -1.1760 -0.5949 -0.0592
  506MOL0     C68225   9.460   6.873   7.803 -0.1226 -0.1356 -0.8842
  506MOL0     N68226   9.597   7.649   7.495  0.5964  0.8456  0.0261
  506MOL0     N68227   9.678   7.638   7.394  1.5243 -0.1456 -0.0908
  506MOL0     C68228  10.359   8.135   7.728 -0.1964 -0.5713  0.1987
  506MOL0     C68229  10.453   8.159   7.826  0.9228 -0.4017 -0.1147
  506MOL0     C68230  10.873   8.193   7.999  1.0960 -0.1426 -0.1400
  506MOL0     C68231  10.961   8.104   8.061  0.3815 -0.6320  1.2219
  506MOL0     C68232  11.087   8.142   8.112  0.0067 -0.4692 -0.0538
  506MOL0     C68233  11.128   8.278   8.110 -0.0223 -0.1860 -0.8585
  506MOL0     O68234  11.243   8.302   8.162  1.0309  0.2502  0.0128
  506MOL0     C68235  11.325   8.421   8.137  0.5147  0.1493 -0.6418
  506MOL0     C68236  11.427   8.436   8.242  0.0320  0.5115 -0.0856
  506MOL0     C68237  11.538   8.536   8.204  0.8251  0.6158  0.2975
  506MOL0     C68238  11.492   8.679   8.178 -0.4247  0.6290  0.1505
  506MOL0     C68239  11.457   8.750   8.303 -1.0494  0.5791 -0.0003
  506MOL0     C68240  11.425   8.797   8.410 -0.3669  0.6700 -0.6564
  506MOL0     C68241  11.042   8.368   8.049  0.6015  0.0532 -0.4265
  506MOL0     C68242  10.917   8.327   7.990 -0.5279 -0.5083  0.0070
  506MOL0     H68243  10.680   8.325   7.631 -1.4372  0.3429 -2.8885
  506MOL0     H68244  10.528   8.275   7.466  2.5388 -1.1667  0.6769
  506MOL0     H68245  10.321   8.295   7.375  0.1283  0.4963  2.5139
  506MOL0     H68246  10.382   8.128   7.340  1.0557  1.2137  0.6166
  506MOL0     H68247  10.092   8.211   7.351 -0.2964  0.2922 -0.4635
  506MOL0     H68248  10.177   8.230   7.208  2.0022  0.7727  0.5505
  506MOL0     H68249  10.095   8.015   7.159  0.4765  4.4026 -0.3957
  506MOL0     H68250  10.245   7.967   7.228  0.4127  0.4895 -0.3741
  506MOL0     H68251  10.163   7.911   7.438  1.1327 -1.8592 -0.2316
  506MOL0     H68252   9.996   7.967   7.397  2.3415  1.4801  1.3831
  506MOL0     H68253   9.976   7.799   7.229  2.0790  1.9770 -1.4888
  506MOL0     H68254  10.144   7.755   7.254 -0.6302 -1.9470 -0.8451
  506MOL0     H68255  10.095   7.704   7.493  0.0334 -2.6085  1.5176
  506MOL0     H68256   9.926   7.734   7.468  0.2075  0.7261 -1.6199
  506MOL0     H68257  10.073   7.507   7.321 -0.3199  0.3886 -0.8956
  506MOL0     H68258  10.008   7.475   7.483 -1.2638  1.8221  1.0049
  506MOL0     H68259   9.871   7.394   7.311 -0.6551  0.9658 -1.7398
  506MOL0     H68260   9.862   7.546   7.229  0.5975  0.0918 -0.8768
  506MOL0     H68261   9.781   7.397   7.584 -1.5831 -0.3648  0.4388
  506MOL0     H68262   9.569   7.582   7.788  1.5451 -2.0796  0.4062
  506MOL0     H68263   9.433   7.535   7.693 -0.1922 -2.8006 -0.7904
  506MOL0     H68264   9.513   7.385   7.886  0.7821 -0.5215  0.0638
  506MOL0     H68265   9.642   7.335   7.764 -0.3936 -0.5443 -0.0875
  506MOL0     H68266   9.473   7.325   7.584  0.2888  2.2244  0.7055
  506MOL0     H68267   9.345   7.338   7.687 -1.1420 -2.5201 -1.5398
  506MOL0     H68268   9.363   7.092   7.639 -1.2861  0.5081  0.3020
  506MOL0     H68269   9.379   7.133   7.800 -2.6170  2.4592 -1.5906
  506MOL0     H68270   9.762   6.950   7.735 -0.6068  0.3432 -1.9795
  506MOL0     H68271   9.923   6.765   7.803  2.9421 -0.9055  2.4625
  506MOL0     H68272   9.878   6.706   7.963 -2.4851 -4.4460  1.4194
  506MOL0     H68273   9.861   6.611   7.820  3.5785  1.2042 -0.4061
  506MOL0     H68274   9.361   6.538   8.201  1.5429  0.4249  0.7055
  506MOL0     H68275   9.371   6.387   8.393 -0.8903  0.0737 -0.3328
  506MOL0     H68276   9.529   5.965   8.345  0.1460 -1.6086 -0.4833
  506MOL0     H68277   9.410   5.952   8.482 -3.7973 -2.6936 -2.0307
  506MOL0     H68278   9.233   5.931   8.305 -0.7716  0.4835 -2.3895
  506MOL0     H68279   9.344   5.960   8.181 -1.7664  3.8741  1.3400
  506MOL0     H68280   9.321   5.727   8.384  2.0715 -2.0762  0.5996
  506MOL0     H68281   9.486   5.745   8.341  0.5547  0.7386  1.1140
  506MOL0     H68282   9.237   5.727   8.156  0.4400  1.5513  2.1691
  506MOL0     H68283   9.397   5.751   8.099 -1.0326  1.1528 -0.4394
  506MOL0     H68284   9.298   5.507   8.253 -1.2598  0.9597  0.2031
  506MOL0     H68285   9.456   5.515   8.174 -0.2463 -0.4480 -3.9490
  506MOL0     H68286   9.197   5.535   8.036 -0.9890 -2.0495  0.6972
  506MOL0     H68287   9.358   5.538   7.955  0.9712  1.8153  1.1643
  506MOL0     H68288   9.208   5.315   8.110  0.4420 -1.0715  0.6143
  506MOL0     H68289   9.391   5.308   8.075  1.4364  2.1454 -0.8584
  506MOL0     H68290   9.262   5.196   7.900 -0.0209 -0.4523  0.7985
  506MOL0     H68291   9.347   5.345   7.843  0.4464  1.2843  0.2588
  506MOL0     H68292   9.543   6.073   8.137  0.6382  0.2768 -0.1745
  506MOL0     H68293   9.582   6.238   7.974  1.7016 -1.2232  1.9888
  506MOL0     H68294   9.376   6.712   7.919 -0.2429 -0.0832  1.9579
  506MOL0     H68295   9.363   6.922   7.797 -0.5792 -0.8560  0.2743
  506MOL0     H68296  10.262   8.092   7.749 -2.0894  1.9497 -2.5169
  506MOL0     H68297  10.427   8.124   7.926  1.3915 -2.6563 -0.7317
  506MOL0     H68298  10.933   7.999   8.060  1.7055 -0.9982 -0.2568
  506MOL0     H68299  11.159   8.071   8.150  0.3671  0.3462  0.8579
  506MOL0     H68300  11.366   8.405   8.037  1.5917 -2.3313  0.1177
  506MOL0     H68301  11.270   8.516   8.136  1.3655  0.6937  1.1792
  506MOL0     H68302  11.484   8.344   8.257 -1.4028 -0.4398 -0.2471
  506MOL0     H68303  11.384   8.466   8.338 -0.9511  0.1297 -0.3975
  506MOL0     H68304  11.587   8.483   8.122 -1.7716  1.6775 -2.0998
  506MOL0     H68305  11.622   8.539   8.275 -1.1313 -0.0409  2.7915
  506MOL0     H68306  11.403   8.674   8.115 -0.5048 -0.4783  0.3322
  506MOL0     H68307  11.574   8.729   8.126 -0.5751  0.0526 -0.6456
  506MOL0     H68308  11.399   8.841   8.504 -0.0449 -1.0251  0.2640
  506MOL0     H68309  11.068   8.472   8.032 -3.9462  1.5807  0.6451
  506MOL0     H68310  10.858   8.401   7.938 -0.1163 -0.5374 -0.5165
  507MOL0     O68311   1.592   0.249   7.750  0.1131 -0.9252 -0.3279
  507MOL0     C68312   1.628   0.285   7.631 -0.2715 -0.2050 -1.1982
  507MOL0     O68313   1.589   0.235   7.515  0.1043  0.3119  0.6621
  507MOL0     C68314   1.516   0.115   7.524 -0.5710 -0.6825 -0.1710
  507MOL0     C68315   1.381   0.113   7.489  0.0923  0.2808  0.4472
  507MOL0     C68316   1.296   0.003   7.510  0.3515  0.3824  0.0126
  507MOL0     C68317   1.346  -0.119   7.554 -0.0773  0.1586 -0.6501
  507MOL0     O68318   1.264  -0.217   7.591  0.3741  0.0522 -0.0225
  507MOL0     C68319   1.316  -0.352   7.587 -0.7214 -0.0222 -0.2108
  507MOL0     C68320   1.195  -0.440   7.581  0.3415  0.6677  0.5195
  507MOL0     C68321   1.112  -0.425   7.707 -1.1058 -0.5602  0.3662
  507MOL0     C68322   0.982  -0.513   7.700 -0.0925 -0.0824  0.1655
  507MOL0     C68323   0.875  -0.439   7.774  0.0549 -0.1276  0.4696
  507MOL0     C68324   0.763  -0.534   7.806  0.9460  1.1041 -0.4902
  507MOL0     C68325   0.665  -0.558   7.697 -0.4822 -0.4655 -0.3651
  507MOL0     C68326   0.687  -0.693   7.623 -0.5594 -0.0898  0.8096
  507MOL0     N68327   0.572  -0.703   7.532  0.1518 -0.3587  1.5375
  507MOL0     C68328   0.587  -0.741   7.402 -1.1942  1.0120  0.2621
  507MOL0     C68329   0.463  -0.723   7.349 -0.1240 -0.3431 -0.5844
  507MOL0     C68330   0.424  -0.753   7.208  0.0837 -0.7842  0.2510
  507MOL0     C68331   0.312  -0.855   7.189 -0.2442  0.8288 -0.7103
  507MOL0     C68332   0.370  -0.993   7.219  0.6859  0.4394  0.4407
  507MOL0     C68333   0.258  -1.103   7.190  0.3811  0.7462 -0.1595
  507MOL0     O68334   0.158  -1.110   7.296  0.0560  0.6589  0.2533
  507MOL0     C68335   0.063  -1.214   7.270  0.1422 -0.0377  0.0284
  507MOL0     C68336  -0.024  -1.242   7.381  0.4157 -0.3300 -0.1188
  507MOL0     C68337  -0.125  -1.333   7.380  0.6727 -0.2137  0.1979
  507MOL0     C68338  -0.199  -1.342   7.516  0.6569  0.4101  0.8169
  507MOL0     C68339  -0.146  -1.416   7.270 -0.7342  1.0639  0.3985
  507MOL0     C68340  -0.265  -1.513   7.255  0.0734  0.2479  1.3863
  507MOL0     O68341  -0.265  -1.601   7.146  0.4042 -0.3784 -0.5267
  507MOL0     C68342  -0.363  -1.700   7.141 -0.2167 -0.4501 -0.1983
  507MOL0     C68343  -0.508  -1.691   7.170  0.0527 -0.0527 -0.6102
  507MOL0     C68344  -0.600  -1.791   7.134  0.8019  0.7174 -0.3089
  507MOL0     C68345  -0.555  -1.894   7.065  0.4169  1.2738 -0.9460
  507MOL0     O68346  -0.626  -2.000   7.025 -0.1858  0.1910 -0.1015
  507MOL0     C68347  -0.770  -2.012   7.055 -0.6545 -0.1346 -0.4859
  507MOL0     C68348  -0.858  -1.938   6.960 -0.1640  0.2034  0.1797
  507MOL0     C68349  -1.001  -1.923   7.002 -0.4221 -0.3817 -0.4437
  507MOL0     C68350  -1.037  -1.775   6.976 -0.2224 -0.6823  0.6018
  507MOL0     C68351  -1.188  -1.749   7.022 -0.7295 -0.4568 -0.1184
  507MOL0     C68352  -1.290  -1.802   6.929 -0.3004 -0.5441 -0.3563
  507MOL0     C68353  -1.429  -1.741   6.960  0.3873  0.8274 -0.6701
  507MOL0     C68354  -1.521  -1.843   7.011  0.4535  0.4305 -0.4321
  507MOL0    Cl68355  -1.464  -1.900   7.178 -0.4108  0.5917 -0.0406
  507MOL0     C68356  -0.423  -1.904   7.025  0.2476 -0.4364 -0.4462
  507MOL0     C68357  -0.322  -1.807   7.063  0.2826  0.0759  0.1019
  507MOL0     O68358  -0.355  -1.508   7.340 -0.1679 -0.9882 -0.5269
  507MOL0     C68359  -0.055  -1.407   7.160 -0.2615  0.1343 -0.3144
  507MOL0     C68360   0.043  -1.302   7.160  0.2517 -0.3539 -0.6589
  507MOL0     N68361   0.379  -0.692   7.446  0.8262 -0.2448  0.2700
  507MOL0     N68362   0.433  -0.700   7.562 -0.9032  0.2962  0.9641
  507MOL0     C68363   1.492  -0.125   7.569 -0.0608 -0.2865 -0.7583
  507MOL0     C68364   1.576  -0.010   7.545  0.6099  0.2412  0.5823
  507MOL0     C68365   1.724   0.405   7.631  0.9087  0.3512  0.1903
  507MOL0     C68366   1.787   0.437   7.512  0.4451  0.2851 -0.1550
  507MOL0     C68367   1.860   0.552   7.495  0.1677  0.5281 -0.7219
  507MOL0     C68368   1.895   0.636   7.600  0.4309  0.1159 -0.4720
  507MOL0     O68369   1.970   0.759   7.579  0.2468  0.5861 -0.0065
  507MOL0     C68370   1.968   0.864   7.676 -0.1804  0.4621 -0.3369
  507MOL0     C68371   2.046   0.980   7.627  0.4315 -0.0491  0.2645
  507MOL0     C68372   2.187   0.948   7.603 -0.5391  0.8954  0.1179
  507MOL0     C68373   2.272   0.918   7.727 -0.2448 -0.7185 -0.2275
  507MOL0     C68374   2.413   0.883   7.694  0.2138  0.0788 -0.4417
  507MOL0     C68375   2.526   0.864   7.660  0.5629 -0.6576  0.2077
  507MOL0     C68376   1.850   0.587   7.724 -0.7072  0.0422  0.1378
  507MOL0     C68377   1.755   0.479   7.740 -0.7251 -0.4982 -0.4713
  507MOL0     H68378   1.329   0.202   7.457  0.2954  0.0917 -0.4390
  507MOL0     H68379   1.192   0.014   7.480  0.1324  0.5591  0.8246
  507MOL0     H68380   1.376  -0.367   7.497 -0.5060  1.2663 -0.3021
  507MOL0     H68381   1.387  -0.368   7.669 -0.0299 -0.7340 -0.9321
  507MOL0     H68382   1.139  -0.406   7.493 -0.0489  0.5555  0.7208
  507MOL0     H68383   1.222  -0.545   7.564 -2.3374  0.3027 -2.4893
  507MOL0     H68384   1.171  -0.458   7.793  1.1751  0.1621 -0.8397
  507MOL0     H68385   1.096  -0.319   7.733  2.2072  0.2945 -0.5987
  507MOL0     H68386   0.949  -0.529   7.597 -1.6083  2.1263  0.2274
  507MOL0     H68387   1.010  -0.609   7.744  0.3408  1.3276  3.2605
  507MOL0     H68388   0.906  -0.397   7.870 -3.3191 -3.0360  3.1061
  507MOL0     H68389   0.846  -0.363   7.702  0.4687 -0.7198 -0.3387
  507MOL0     H68390   0.806  -0.629   7.838  1.4960  1.9408  1.3465
  507MOL0     H68391   0.713  -0.502   7.897 -2.1691 -2.3792 -0.7250
  507MOL0     H68392   0.570  -0.560   7.751  0.0255  0.3307  0.5873
  507MOL0     H68393   0.663  -0.471   7.630 -1.7188 -0.4344 -0.3146
  507MOL0     H68394   0.679  -0.778   7.692  0.6174 -1.0700 -0.2232
  507MOL0     H68395   0.783  -0.712   7.575 -0.8461  2.7852 -1.1246
  507MOL0     H68396   0.674  -0.781   7.352 -0.9934  2.3229 -0.4740
  507MOL0     H68397   0.384  -0.658   7.173  0.8302 -1.3288 -2.2442
  507MOL0     H68398   0.513  -0.772   7.147  0.4373  1.1392  0.1072
  507MOL0     H68399   0.273  -0.855   7.087  0.1414 -1.9453 -0.9273
  507MOL0     H68400   0.232  -0.829   7.259  0.0759  0.8082 -0.3338
  507MOL0     H68401   0.402  -1.017   7.320  3.7946 -0.2782 -0.6165
  507MOL0     H68402   0.457  -1.004   7.154  2.3787  0.9158  2.4999
  507MOL0     H68403   0.320  -1.192   7.181 -2.5810 -1.5271  0.3598
  507MOL0     H68404   0.216  -1.095   7.090 -0.2068 -1.0124 -0.0807
  507MOL0     H68405  -0.017  -1.182   7.471 -2.0325  0.1729 -0.1938
  507MOL0     H68406  -0.181  -1.437   7.566  0.5324  0.2624  0.5803
  507MOL0     H68407  -0.172  -1.263   7.587  1.9400 -1.6381  2.7433
  507MOL0     H68408  -0.304  -1.322   7.490  0.8696 -1.0401 -1.3660
  507MOL0     H68409  -0.547  -1.608   7.228  4.6919  3.0307 -1.3743
  507MOL0     H68410  -0.706  -1.772   7.145  0.1669 -2.8952  1.3389
  507MOL0     H68411  -0.816  -2.111   7.052 -1.1693  0.0270  1.1551
  507MOL0     H68412  -0.792  -1.976   7.156  1.4797  1.3635 -0.4903
  507MOL0     H68413  -0.807  -1.844   6.941 -0.4571  0.3137 -0.0717
  507MOL0     H68414  -0.848  -1.992   6.865  1.5725  1.2928 -0.2870
  507MOL0     H68415  -1.000  -1.926   7.112 -0.7139  2.2916 -0.3093
  507MOL0     H68416  -1.067  -1.999   6.958  0.2447 -0.8929 -0.5698
  507MOL0     H68417  -0.968  -1.712   7.033 -1.0721 -0.5013  1.4716
  507MOL0     H68418  -1.022  -1.750   6.871 -1.0976 -1.7409  0.2063
  507MOL0     H68419  -1.202  -1.642   7.042  1.4271 -0.6042  2.9040
  507MOL0     H68420  -1.197  -1.793   7.122 -1.9212 -0.5935 -0.2730
  507MOL0     H68421  -1.264  -1.782   6.825  2.2472  1.7391  0.6211
  507MOL0     H68422  -1.302  -1.910   6.938 -2.7545 -0.4823 -1.8051
  507MOL0     H68423  -1.478  -1.702   6.870 -2.8911  0.6217  0.8711
  507MOL0     H68424  -1.423  -1.657   7.030  1.0942  1.1411 -1.1042
  507MOL0     H68425  -1.511  -1.921   6.935  3.2533 -0.0050  0.2780
  507MOL0     H68426  -1.627  -1.820   7.000 -0.1716 -2.2190 -0.6699
  507MOL0     H68427  -0.395  -1.988   6.962  0.0613 -2.8724  2.4809
  507MOL0     H68428  -0.224  -1.824   7.019  0.8024 -2.3432  2.0005
  507MOL0     H68429  -0.065  -1.469   7.071 -2.6466 -1.6912  1.1181
  507MOL0     H68430   0.104  -1.286   7.072  0.6024 -0.1277 -0.3743
  507MOL0     H68431   1.534  -0.218   7.604 -0.9181  0.0525  1.2965
  507MOL0     H68432   1.683  -0.017   7.557  0.4553  0.2605  2.2954
  507MOL0     H68433   1.764   0.371   7.428  0.4308 -2.7069  2.0463
  507MOL0     H68434   1.891   0.578   7.394  1.2042  1.5305 -0.1625
  507MOL0     H68435   1.867   0.902   7.696  0.3471  1.5111  0.4433
  507MOL0     H68436   2.012   0.821   7.766  0.5928  3.2131  0.7286
  507MOL0     H68437   2.043   1.063   7.698  0.5364  0.0287  0.1778
  507MOL0     H68438   2.018   1.012   7.527  2.1007  0.5525 -0.0476
  507MOL0     H68439   2.234   1.033   7.552  1.9261 -0.3969  0.0829
  507MOL0     H68440   2.199   0.861   7.537  0.9882 -0.1230  1.6551
  507MOL0     H68441   2.235   0.824   7.769  0.9989 -0.9276  0.4544
  507MOL0     H68442   2.258   0.996   7.802 -2.5643 -1.7145  0.4649
  507MOL0     H68443   2.631   0.845   7.649  0.9433  2.1422 -2.3142
  507MOL0     H68444   1.880   0.640   7.813 -1.8731 -0.4300  0.8332
  507MOL0     H68445   1.716   0.476   7.841  3.2381  1.0534  1.3370
  508MOL0     O68446   1.428  11.421   5.902  0.5050 -0.2924 -0.3239
  508MOL0     C68447   1.408  11.544   5.909 -0.5645  0.9038 -0.9476
  508MOL0     O68448   1.363  11.621   5.803  0.0357 -0.6251 -0.2835
  508MOL0     C68449   1.294  11.561   5.696 -0.0649 -1.1041 -0.4780
  508MOL0     C68450   1.301  11.630   5.576  1.2104  0.2644  0.0968
  508MOL0     C68451   1.225  11.592   5.468 -0.5220  0.3513  0.0549
  508MOL0     C68452   1.138  11.481   5.473 -0.1383 -0.3578 -0.6508
  508MOL0     O68453   1.086  11.421   5.368  0.3045  0.1561  0.5116
  508MOL0     C68454   1.011  11.514   5.281  0.7661  0.1088  0.2536
  508MOL0     C68455   0.993  11.460   5.145 -0.5928 -0.3809 -0.4416
  508MOL0     C68456   0.940  11.310   5.142  0.0460  0.6450 -0.1054
  508MOL0     C68457   0.906  11.248   5.009 -0.0523 -0.4781  0.3350
  508MOL0     C68458   1.024  11.245   4.923 -0.0079 -0.1681  1.2141
  508MOL0     C68459   1.008  11.199   4.784  1.4514 -0.1923  0.1335
  508MOL0     C68460   1.123  11.237   4.689  0.0108 -0.4096  0.7480
  508MOL0     C68461   1.088  11.213   4.541 -0.1824  0.4668 -0.4858
  508MOL0     N68462   1.005  11.321   4.475  0.9457  0.2352  0.9153
  508MOL0     C68463   0.882  11.295   4.425 -0.1635  0.0656  0.3736
  508MOL0     C68464   0.834  11.402   4.359 -0.0755 -0.0847 -0.0771
  508MOL0     C68465   0.710  11.425   4.269  0.3304  0.0912  0.2945
  508MOL0     C68466   0.764  11.417   4.122 -0.2651 -0.3118  0.5967
  508MOL0     C68467   0.647  11.392   4.020  0.2381 -0.3050  0.1374
  508MOL0     C68468   0.549  11.501   3.985 -0.3673 -1.1298  0.1929
  508MOL0     O68469   0.418  11.457   3.981  0.1109  0.3394  0.2182
  508MOL0     C68470   0.354  11.402   4.090 -0.0438 -0.7308 -0.3073
  508MOL0     C68471   0.391  11.416   4.221 -0.6072 -0.0581 -0.6287
  508MOL0     C68472   0.318  11.355   4.328 -0.6781  0.3748 -0.5348
  508MOL0     C68473   0.352  11.390   4.465  0.6148 -0.7923  0.9102
  508MOL0     C68474   0.206  11.280   4.300 -0.2670  0.2859 -0.3277
  508MOL0     C68475   0.113  11.214   4.397 -0.7015  0.3717  0.1521
  508MOL0     O68476   0.053  11.095   4.360  0.1225 -0.0483 -0.2749
  508MOL0     C68477  -0.053  11.058   4.439  0.5867 -0.5036 -0.2185
  508MOL0     C68478  -0.169  11.130   4.437 -0.0181  0.8295 -0.5965
  508MOL0     C68479  -0.285  11.083   4.497 -0.1885  0.3716 -0.0238
  508MOL0     C68480  -0.291  10.971   4.573  0.1247  1.0321 -0.0134
  508MOL0     O68481  -0.389  10.929   4.655  0.6686 -0.1756 -0.1901
  508MOL0     C68482  -0.497  11.021   4.696  0.8376 -0.8351  0.3514
  508MOL0     C68483  -0.566  10.957   4.818  0.4632 -0.1153  0.9670
  508MOL0     C68484  -0.495  10.977   4.949 -0.0190 -0.2697 -0.4375
  508MOL0     C68485  -0.557  10.895   5.064  0.5080  0.4226  0.6724
  508MOL0     C68486  -0.468  10.886   5.183 -0.6709  0.5333 -0.9739
  508MOL0     C68487  -0.478  11.015   5.257  1.1583  0.4896  0.1166
  508MOL0     C68488  -0.414  10.986   5.388  0.2191  0.7004  0.2930
  508MOL0     C68489  -0.473  11.075   5.506  0.1130  0.8510  0.4519
  508MOL0    Cl68490  -0.351  11.063   5.644 -0.2711  0.0680  0.3145
  508MOL0     C68491  -0.173  10.887   4.582 -0.0582  0.3104 -0.3906
  508MOL0     C68492  -0.063  10.940   4.507 -0.7567  1.1534  0.4097
  508MOL0     O68493   0.110  11.259   4.510 -0.3659  0.1631 -0.2427
  508MOL0     C68494   0.182  11.251   4.162 -0.0144  0.0754  0.0059
  508MOL0     C68495   0.250  11.319   4.059  0.6134 -0.7547  0.4985
  508MOL0     N68496   0.938  11.496   4.365 -0.7294  0.2818  0.3653
  508MOL0     N68497   1.041  11.443   4.425 -0.2665 -0.5026  0.0486
  508MOL0     C68498   1.133  11.411   5.597  0.6978 -0.6755  0.1447
  508MOL0     C68499   1.201  11.459   5.710 -0.1690  0.2054  0.2163
  508MOL0     C68500   1.437  11.604   6.042 -0.6356  0.4089 -0.5456
  508MOL0     C68501   1.431  11.741   6.064  0.6140 -0.6994  0.0959
  508MOL0     C68502   1.441  11.797   6.195  0.0971  0.3764 -0.1093
  508MOL0     C68503   1.453  11.715   6.306  0.1868  0.5266  0.6951
  508MOL0     O68504   1.461  11.782   6.424  0.0388  0.7073  0.4726
  508MOL0     C68505   1.461  11.706   6.547  0.3600  0.5917  0.7129
  508MOL0     C68506   1.328  11.630   6.559 -0.0142  0.2390 -0.2429
  508MOL0     C68507   1.216  11.734   6.587 -0.7435 -0.0314 -0.0233
  508MOL0     C68508   1.084  11.661   6.589  0.5607 -0.7052 -0.7561
  508MOL0     C68509   0.980  11.755   6.628 -0.5004 -0.2588  0.5856
  508MOL0     C68510   0.890  11.840   6.641  1.0436 -0.5697  0.0645
  508MOL0     C68511   1.490  11.583   6.281  0.8613 -0.6855  0.3287
  508MOL0     C68512   1.481  11.525   6.154 -0.0158 -0.5326  0.7394
  508MOL0     H68513   1.372  11.711   5.565  0.5464  0.7483 -0.7864
  508MOL0     H68514   1.240  11.643   5.373  0.9497  1.8731  1.0437
  508MOL0     H68515   0.911  11.539   5.318  0.8714 -0.6528  1.1165
  508MOL0     H68516   1.071  11.602   5.260 -0.3913  0.6705 -0.8106
  508MOL0     H68517   0.928  11.524   5.085  0.7235 -0.7178 -2.3244
  508MOL0     H68518   1.087  11.448   5.091 -1.7319 -0.2037 -2.5803
  508MOL0     H68519   1.024  11.254   5.184 -2.6037 -2.9246  0.9127
  508MOL0     H68520   0.860  11.292   5.214 -0.3695 -3.4047 -1.3172
  508MOL0     H68521   0.876  11.143   5.006 -1.5709 -0.0750 -2.7605
  508MOL0     H68522   0.825  11.309   4.970 -0.5031 -0.9911  0.4575
  508MOL0     H68523   1.064  11.346   4.914 -0.3291 -0.2380 -3.1997
  508MOL0     H68524   1.099  11.184   4.974  0.0326 -2.9990 -1.8660
  508MOL0     H68525   0.989  11.092   4.778  0.8504 -0.1268  0.7120
  508MOL0     H68526   0.918  11.252   4.751  1.6911 -0.0703 -0.3373
  508MOL0     H68527   1.150  11.342   4.704 -1.9819  0.0591  1.4222
  508MOL0     H68528   1.210  11.177   4.717  2.4221  2.6704  0.3830
  508MOL0     H68529   1.037  11.118   4.523  0.6852 -0.9778  3.5298
  508MOL0     H68530   1.186  11.213   4.493 -0.7572  3.2787 -1.8412
  508MOL0     H68531   0.833  11.199   4.434  2.3988 -1.3719  0.1995
  508MOL0     H68532   0.644  11.341   4.292 -0.1207  0.7325  1.4054
  508MOL0     H68533   0.667  11.524   4.287 -0.0286  0.3721 -1.8482
  508MOL0     H68534   0.827  11.328   4.124 -0.4349 -0.4412  0.3084
  508MOL0     H68535   0.821  11.498   4.077  1.2559 -2.4342 -1.5171
  508MOL0     H68536   0.597  11.304   4.062  0.8475  0.0756  1.7243
  508MOL0     H68537   0.710  11.373   3.933  0.8212 -0.2586  0.5435
  508MOL0     H68538   0.580  11.534   3.886  2.1573 -0.0712  1.2490
  508MOL0     H68539   0.571  11.586   4.051 -1.1969  0.6417 -1.7169
  508MOL0     H68540   0.479  11.470   4.253 -0.2350 -1.2149  0.3868
  508MOL0     H68541   0.353  11.295   4.520  1.6701 -3.2037 -2.9028
  508MOL0     H68542   0.454  11.429   4.476  0.2258  0.3004  0.7148
  508MOL0     H68543   0.287  11.472   4.498 -0.1957 -0.5895 -1.0376
  508MOL0     H68544  -0.168  11.223   4.382  5.0938 -1.3215 -5.0775
  508MOL0     H68545  -0.374  11.146   4.495 -0.8387 -0.4454  1.2468
  508MOL0     H68546  -0.460  11.123   4.712  1.4810 -0.8324 -1.0371
  508MOL0     H68547  -0.573  11.023   4.618  1.0955 -3.4722 -0.0461
  508MOL0     H68548  -0.663  11.007   4.827  2.1996  4.3762 -1.8291
  508MOL0     H68549  -0.579  10.853   4.788  1.3867  0.2556 -0.8526
  508MOL0     H68550  -0.493  11.084   4.971  4.0391 -0.2728 -0.0939
  508MOL0     H68551  -0.390  10.948   4.942  0.2841 -0.0684  2.2145
  508MOL0     H68552  -0.653  10.940   5.091  0.0513  0.4161 -0.8500
  508MOL0     H68553  -0.588  10.792   5.043  1.8168  0.0979  0.2233
  508MOL0     H68554  -0.366  10.873   5.145 -0.3869  0.0407 -0.0851
  508MOL0     H68555  -0.483  10.792   5.237 -0.4635 -1.6163 -4.3653
  508MOL0     H68556  -0.420  11.094   5.209  1.6960  1.6027  2.4700
  508MOL0     H68557  -0.585  11.040   5.258  1.0904  0.4274 -1.7970
  508MOL0     H68558  -0.305  11.000   5.390  0.1092  1.7174  2.3974
  508MOL0     H68559  -0.435  10.882   5.414 -1.7606  1.0084  0.0545
  508MOL0     H68560  -0.574  11.047   5.535 -0.4950  1.1940 -1.2454
  508MOL0     H68561  -0.458  11.178   5.472  3.0512  0.5789  0.5942
  508MOL0     H68562  -0.176  10.791   4.634  0.9515  0.0445 -0.7853
  508MOL0     H68563   0.033  10.891   4.521 -0.9140  0.7617  0.1602
  508MOL0     H68564   0.102  11.182   4.138  1.0293 -1.3169  0.4065
  508MOL0     H68565   0.210  11.304   3.959 -0.9318  0.4417  0.8934
  508MOL0     H68566   1.091  11.312   5.611  1.0173 -0.7586  0.5190
  508MOL0     H68567   1.184  11.414   5.807  2.4311 -0.8197  0.2565
  508MOL0     H68568   1.399  11.810   5.987 -0.7202 -0.7614  0.5732
  508MOL0     H68569   1.437  11.905   6.208 -1.5441  0.2020  1.1701
  508MOL0     H68570   1.550  11.642   6.545 -0.1555 -0.1231 -1.5710
  508MOL0     H68571   1.476  11.763   6.640  0.9722  0.9063  0.4296
  508MOL0     H68572   1.344  11.552   6.634  0.7512  1.5979  1.0559
  508MOL0     H68573   1.294  11.582   6.467  0.1138  1.0910 -0.7438
  508MOL0     H68574   1.218  11.816   6.514  1.3478  0.5185  0.5623
  508MOL0     H68575   1.242  11.788   6.678 -1.0921 -0.5870  0.4080
  508MOL0     H68576   1.079  11.591   6.673  0.5609  0.8832  0.6183
  508MOL0     H68577   1.053  11.596   6.507 -0.5987 -0.6109 -0.4170
  508MOL0     H68578   0.826  11.923   6.666  1.4287 -0.5992  1.1904
  508MOL0     H68579   1.547  11.527   6.353  2.7192 -1.9772 -2.0111
  508MOL0     H68580   1.509  11.421   6.140  0.5042 -0.3968  0.7599
  509MOL0     O68581   1.572   6.211  10.589 -0.6048  0.6800 -0.8377
  509MOL0     C68582   1.631   6.309  10.627  0.8301  0.7855 -0.4888
  509MOL0     O68583   1.686   6.335  10.753 -0.0932 -0.8452 -0.0960
  509MOL0     C68584   1.679   6.236  10.850 -1.0614  0.4163  1.1281
  509MOL0     C68585   1.688   6.097  10.824  0.1989 -0.5859  1.0547
  509MOL0     C68586   1.679   6.001  10.926 -0.1727 -1.0383 -0.5496
  509MOL0     C68587   1.652   6.036  11.060 -0.0314 -0.1472  0.4876
  509MOL0     O68588   1.629   5.940  11.155  0.2299 -0.0627  0.7376
  509MOL0     C68589   1.686   5.959  11.290  0.2080 -0.2470 -0.9690
  509MOL0     C68590   1.656   5.833  11.373 -0.1275 -0.5360  0.2060
  509MOL0     C68591   1.510   5.795  11.371 -0.1384 -0.0212 -0.3767
  509MOL0     C68592   1.416   5.887  11.447  0.2568 -0.3231 -0.1032
  509MOL0     C68593   1.277   5.819  11.470 -0.3356 -1.0254 -0.9934
  509MOL0     C68594   1.203   5.788  11.345 -0.2993  0.5926 -0.2321
  509MOL0     C68595   1.052   5.814  11.345  0.7579  0.4328  0.0559
  509MOL0     C68596   0.965   5.712  11.434 -0.5305  0.0978 -0.2989
  509MOL0     N68597   0.824   5.745  11.407  0.3348  0.0373  0.3434
  509MOL0     C68598   0.755   5.695  11.289 -0.4168 -0.7648 -0.0356
  509MOL0     C68599   0.643   5.762  11.286  0.0143  0.5097 -0.0487
  509MOL0     C68600   0.545   5.728  11.175  0.3542  0.1393  0.0792
  509MOL0     C68601   0.428   5.837  11.151 -0.0596  1.1334  1.0391
  509MOL0     C68602   0.500   5.961  11.101  0.4484  0.7057 -1.1230
  509MOL0     C68603   0.414   6.076  11.043 -0.2299 -0.0531  0.3536
  509MOL0     O68604   0.276   6.036  11.018 -0.7807 -0.6164 -1.2455
  509MOL0     C68605   0.226   5.974  10.906  0.6609 -0.2440  1.0210
  509MOL0     C68606   0.090   5.988  10.885  0.0487 -0.9370 -0.2713
  509MOL0     C68607   0.032   5.964  10.759  0.6590  0.8633 -0.3463
  509MOL0     C68608  -0.119   5.982  10.761  0.3466  0.3040  0.3565
  509MOL0     C68609   0.106   5.897  10.660  0.4053 -0.6467 -0.1316
  509MOL0     C68610   0.045   5.849  10.533 -0.2673 -0.7790  0.8994
  509MOL0     O68611  -0.080   5.905  10.496  0.2241 -0.1088  0.2040
  509MOL0     C68612  -0.151   5.870  10.384  0.6036 -0.1221 -0.7356
  509MOL0     C68613  -0.288   5.873  10.399  0.3297 -0.2408  0.0493
  509MOL0     C68614  -0.372   5.822  10.298  0.5829 -0.1480  0.3005
  509MOL0     C68615  -0.321   5.787  10.176  0.0876 -0.8154 -0.0074
  509MOL0     O68616  -0.400   5.739  10.075  0.3358  0.5121  0.0769
  509MOL0     C68617  -0.375   5.605  10.011  0.1181 -0.5793 -0.7540
  509MOL0     C68618  -0.420   5.498  10.109  0.4848  1.2286 -1.5814
  509MOL0     C68619  -0.568   5.512  10.139 -0.4246 -0.9586 -0.4979
  509MOL0     C68620  -0.618   5.415  10.245 -0.5007  0.5152 -0.4067
  509MOL0     C68621  -0.722   5.475  10.338 -0.9125  0.6127  0.5502
  509MOL0     C68622  -0.855   5.500  10.270  0.6535  0.4752 -0.7451
  509MOL0     C68623  -0.969   5.555  10.371 -1.0575 -0.9606  0.3134
  509MOL0     C68624  -1.089   5.603  10.286 -0.1282  0.1344 -0.5667
  509MOL0    Cl68625  -1.231   5.617  10.391 -0.4210  0.0305  0.0394
  509MOL0     C68626  -0.188   5.782  10.158 -0.3750  0.2412 -0.0855
  509MOL0     C68627  -0.106   5.829  10.261 -0.2430 -0.3076 -0.5254
  509MOL0     O68628   0.115   5.775  10.461  0.1539 -0.4895 -0.7117
  509MOL0     C68629   0.247   5.875  10.686 -0.0349 -0.0905  0.9165
  509MOL0     C68630   0.300   5.911  10.808 -0.4260 -0.5853  0.8409
  509MOL0     N68631   0.635   5.840  11.399 -0.2837  0.2113 -0.3742
  509MOL0     N68632   0.744   5.842  11.470 -0.8736 -0.3331  0.7968
  509MOL0     C68633   1.638   6.177  11.086 -0.0498  0.3517 -0.1020
  509MOL0     C68634   1.653   6.271  10.985  0.4282 -0.5438 -0.1488
  509MOL0     C68635   1.654   6.411  10.533 -0.0546  0.2577  0.2467
  509MOL0     C68636   1.718   6.531  10.561  0.5285 -0.9858  0.0521
  509MOL0     C68637   1.740   6.634  10.468 -0.4506  0.3652 -0.2634
  509MOL0     C68638   1.687   6.626  10.348 -0.1322 -0.6664  0.3021
  509MOL0     O68639   1.694   6.736  10.261 -0.2277  0.0995 -0.3534
  509MOL0     C68640   1.751   6.859  10.305 -0.0901 -0.0204 -0.9574
  509MOL0     C68641   1.715   6.971  10.210  1.0154  0.0896 -0.2885
  509MOL0     C68642   1.771   6.954  10.070  0.3322  0.0872  0.3767
  509MOL0     C68643   1.798   7.082  10.008 -0.4080  0.1026 -0.7456
  509MOL0     C68644   1.851   7.188  10.084 -1.2505  0.4186 -0.0738
  509MOL0     C68645   1.896   7.285  10.147  0.1390  0.2527  0.6164
  509MOL0     C68646   1.621   6.509  10.309  0.2422  0.9148 -0.8640
  509MOL0     C68647   1.607   6.405  10.401  0.2413  0.2053  0.0589
  509MOL0     H68648   1.699   6.056  10.724 -0.8632  0.3587  0.5119
  509MOL0     H68649   1.698   5.896  10.906 -1.1021 -0.8471 -2.8411
  509MOL0     H68650   1.794   5.974  11.297  0.2636 -0.5145 -1.2493
  509MOL0     H68651   1.631   6.041  11.337 -1.7710 -2.3559  0.6086
  509MOL0     H68652   1.715   5.751  11.333  0.6981 -0.6493  1.5962
  509MOL0     H68653   1.682   5.841  11.479 -1.3240 -4.2260  0.9145
  509MOL0     H68654   1.472   5.808  11.269  0.6916  0.8222 -0.5956
  509MOL0     H68655   1.507   5.692  11.408  0.6911  0.0373 -0.1168
  509MOL0     H68656   1.463   5.918  11.540 -4.1620 -1.2841  2.7291
  509MOL0     H68657   1.410   5.981  11.392 -1.6339  0.3377  1.1424
  509MOL0     H68658   1.287   5.737  11.541 -4.3557  1.2132  2.6824
  509MOL0     H68659   1.211   5.895  11.513  2.3584  1.1380 -0.3909
  509MOL0     H68660   1.241   5.858  11.270 -1.9041  1.1262 -0.5827
  509MOL0     H68661   1.224   5.683  11.322  1.5199  0.4392  1.8777
  509MOL0     H68662   1.029   5.915  11.379  0.1871  1.1261 -2.2239
  509MOL0     H68663   1.006   5.815  11.245  1.2666  1.9544 -0.1857
  509MOL0     H68664   0.989   5.749  11.534  0.3289 -0.2817 -0.3583
  509MOL0     H68665   0.984   5.607  11.408 -2.6469 -0.5085  0.3782
  509MOL0     H68666   0.793   5.624  11.215  1.8718 -0.5449  0.8242
  509MOL0     H68667   0.606   5.711  11.086 -1.0345  1.8866 -1.3022
  509MOL0     H68668   0.491   5.636  11.197  1.0059  0.0450  1.3101
  509MOL0     H68669   0.355   5.866  11.227 -0.0575  3.7565  0.1472
  509MOL0     H68670   0.363   5.802  11.070  0.8849  0.2156  0.6562
  509MOL0     H68671   0.571   5.926  11.025  1.6708  1.9159 -0.5798
  509MOL0     H68672   0.559   5.993  11.187  0.8010 -0.7559 -0.7858
  509MOL0     H68673   0.456   6.102  10.945 -1.9474 -0.1608 -0.4521
  509MOL0     H68674   0.431   6.162  11.108  0.5310 -1.3727  1.9566
  509MOL0     H68675   0.030   6.026  10.968 -1.1906 -2.3449 -0.4726
  509MOL0     H68676  -0.166   5.886  10.739 -1.8426  0.2945  4.2804
  509MOL0     H68677  -0.159   6.013  10.858 -0.8919 -5.3205  2.0055
  509MOL0     H68678  -0.148   6.050  10.680  3.7010 -3.6443 -4.8982
  509MOL0     H68679  -0.331   5.906  10.493  1.8879  1.6135  0.1830
  509MOL0     H68680  -0.480   5.827  10.300  0.5964  0.1271  2.1840
  509MOL0     H68681  -0.437   5.603   9.921 -1.7394 -1.6191  0.4713
  509MOL0     H68682  -0.270   5.587   9.989  0.4011 -1.9559  1.3898
  509MOL0     H68683  -0.410   5.397  10.069 -0.8180  1.0788 -1.5959
  509MOL0     H68684  -0.363   5.513  10.201 -2.3763  1.1987  0.3123
  509MOL0     H68685  -0.614   5.478  10.046  1.8728 -4.3351 -0.5900
  509MOL0     H68686  -0.583   5.619  10.153  2.0409 -0.5751 -0.3512
  509MOL0     H68687  -0.650   5.319  10.203  1.1681 -0.6686  0.8939
  509MOL0     H68688  -0.528   5.388  10.300  0.3872  2.1550 -0.9871
  509MOL0     H68689  -0.689   5.574  10.372 -1.0016  0.9717 -0.3591
  509MOL0     H68690  -0.741   5.407  10.421 -1.2605 -2.9331 -2.2283
  509MOL0     H68691  -0.837   5.579  10.196  0.1330  0.9269 -0.3998
  509MOL0     H68692  -0.890   5.411  10.218 -1.1381  1.9025 -2.1395
  509MOL0     H68693  -0.931   5.638  10.432 -3.2339  0.0394  0.4063
  509MOL0     H68694  -1.003   5.474  10.436 -1.4726 -0.8290  0.2615
  509MOL0     H68695  -1.105   5.528  10.208  4.0210 -1.0072 -0.5808
  509MOL0     H68696  -1.067   5.696  10.232 -0.1739  0.8432  0.6178
  509MOL0     H68697  -0.137   5.744  10.069 -1.3422  0.8030 -0.8964
  509MOL0     H68698  -0.000   5.825  10.238 -0.1160 -0.7304  0.1085
  509MOL0     H68699   0.308   5.830  10.608  1.7040  0.9520  1.6276
  509MOL0     H68700   0.407   5.892  10.818  0.1065  0.6104 -1.6976
  509MOL0     H68701   1.611   6.198  11.189 -1.5054  1.0625 -0.5976
  509MOL0     H68702   1.648   6.378  11.001 -0.2898 -0.8146  1.7205
  509MOL0     H68703   1.748   6.551  10.663 -2.8534 -1.7680  1.3361
  509MOL0     H68704   1.796   6.722  10.497 -0.4165  1.0622 -2.2598
  509MOL0     H68705   1.731   6.886  10.409 -0.2477  1.4406 -1.3427
  509MOL0     H68706   1.860   6.849  10.296 -0.2124 -2.6166 -0.4411
  509MOL0     H68707   1.724   7.068  10.259  0.6303 -0.8570  1.7408
  509MOL0     H68708   1.607   6.977  10.195  1.1481 -1.4690 -2.3200
  509MOL0     H68709   1.705   6.889  10.011  1.1347  0.2174 -0.7038
  509MOL0     H68710   1.868   6.903  10.074 -0.0796 -0.8558 -0.7469
  509MOL0     H68711   1.710   7.131   9.964  0.4343  1.5827 -0.8656
  509MOL0     H68712   1.870   7.065   9.927  1.8861  0.0717  1.1689
  509MOL0     H68713   1.951   7.353  10.208 -0.2094  0.6688  0.4732
  509MOL0     H68714   1.574   6.494  10.213  1.4878  2.1720 -1.6958
  509MOL0     H68715   1.556   6.311  10.380  0.5088 -0.0798  0.6732
  510MOL0     O68716   3.650   3.140   7.240 -0.4314  0.4934 -0.4060
  510MOL0     C68717   3.644   3.143   7.116  0.2770 -0.8523 -0.5317
  510MOL0     O68718   3.750   3.136   7.030 -0.2751 -0.5782  0.7533
  510MOL0     C68719   3.877   3.125   7.080  0.5414  0.0369 -0.3550
  510MOL0     C68720   3.937   3.233   7.152  0.0902 -0.1283  0.2085
  510MOL0     C68721   4.068   3.218   7.201  0.2711  0.6949  0.0427
  510MOL0     C68722   4.139   3.099   7.191  0.7487  1.4420  0.5746
  510MOL0     O68723   4.271   3.081   7.233 -0.8773 -0.3476  0.1390
  510MOL0     C68724   4.371   3.104   7.131 -1.2071  0.0306 -0.8477
  510MOL0     C68725   4.520   3.073   7.169  0.0619 -0.1309 -0.6380
  510MOL0     C68726   4.547   2.928   7.218 -0.3067 -0.1939  0.0946
  510MOL0     C68727   4.695   2.886   7.223  0.2742  0.7374 -0.7601
  510MOL0     C68728   4.708   2.748   7.292  0.2736  0.1826 -0.1286
  510MOL0     C68729   4.847   2.682   7.273  0.1498  0.2580  1.0869
  510MOL0     C68730   4.838   2.531   7.285  0.3702 -1.0522  0.0767
  510MOL0     C68731   4.975   2.472   7.249  0.0907 -0.5599  0.1517
  510MOL0     N68732   5.073   2.475   7.362  0.2454  0.0253  0.5529
  510MOL0     C68733   5.212   2.476   7.342  1.0743  0.8207  0.0361
  510MOL0     C68734   5.273   2.474   7.458  0.2087  0.7075 -0.0795
  510MOL0     C68735   5.421   2.475   7.495  0.0178 -0.4312 -1.1293
  510MOL0     C68736   5.517   2.538   7.399 -0.2254  0.3092  0.3473
  510MOL0     C68737   5.488   2.691   7.375  0.2736 -0.0341 -0.4202
  510MOL0     C68738   5.598   2.756   7.300 -0.0726 -0.3765  0.2152
  510MOL0     O68739   5.715   2.773   7.382 -0.2400  1.3431  0.0431
  510MOL0     C68740   5.831   2.827   7.319 -0.4157 -0.2712  0.7649
  510MOL0     C68741   5.938   2.860   7.405 -0.8936  0.2945  0.5362
  510MOL0     C68742   6.059   2.918   7.356  0.0428 -0.2601  0.7107
  510MOL0     C68743   6.164   2.927   7.460 -0.3612  0.4735  0.1966
  510MOL0     C68744   6.083   2.930   7.214  0.0390  0.8046  1.1244
  510MOL0     C68745   6.209   2.991   7.158  0.0691  0.0432 -0.7195
  510MOL0     O68746   6.303   3.045   7.240 -0.5322 -0.9735  0.1397
  510MOL0     C68747   6.435   3.067   7.195  0.3296  1.2908 -0.4245
  510MOL0     C68748   6.504   3.183   7.249  0.2022  1.0524  0.8281
  510MOL0     C68749   6.642   3.199   7.226  0.3103  0.3048 -0.6787
  510MOL0     C68750   6.706   3.101   7.146 -0.1237 -0.4620  0.1054
  510MOL0     O68751   6.846   3.111   7.123  0.0751 -0.3856 -0.4326
  510MOL0     C68752   6.920   3.015   7.049  0.0118  0.1703  0.2986
  510MOL0     C68753   7.062   3.056   7.036 -0.4162 -0.0757  0.4581
  510MOL0     C68754   7.124   3.009   6.912 -0.5784 -0.4936  0.1161
  510MOL0     C68755   7.136   2.859   6.898  0.3014 -1.3232 -0.4253
  510MOL0     C68756   7.265   2.821   6.832 -0.2717  0.7745  0.8377
  510MOL0     C68757   7.397   2.850   6.900  0.2997 -0.4278  0.3859
  510MOL0     C68758   7.522   2.771   6.848 -1.0551 -0.3393 -0.5007
  510MOL0     C68759   7.530   2.753   6.693 -0.3438 -0.1716 -0.6947
  510MOL0    Cl68760   7.661   2.625   6.680 -0.0644  0.4817  0.4624
  510MOL0     C68761   6.644   2.980   7.101  0.4702 -0.9868  0.0373
  510MOL0     C68762   6.503   2.964   7.128 -0.2869  1.0121 -0.0912
  510MOL0     O68763   6.223   2.985   7.034 -0.3777  0.0386 -0.2341
  510MOL0     C68764   5.974   2.893   7.127  1.0761  0.1036 -0.1806
  510MOL0     C68765   5.856   2.854   7.181  0.3473 -0.5904  0.0670
  510MOL0     N68766   5.172   2.457   7.551  1.0528  0.2861 -0.9800
  510MOL0     N68767   5.057   2.466   7.493  0.2272  0.7376 -0.7002
  510MOL0     C68768   4.079   2.992   7.118  0.4315  0.1171 -0.8301
  510MOL0     C68769   3.949   3.002   7.069 -0.3604 -1.8315  0.7688
  510MOL0     C68770   3.513   3.182   7.059  0.2452 -0.6987 -1.1491
  510MOL0     C68771   3.491   3.207   6.924 -0.7458 -0.4888 -0.3691
  510MOL0     C68772   3.362   3.247   6.876 -0.4593  0.4080 -0.1587
  510MOL0     C68773   3.252   3.249   6.954  0.5500 -0.5546 -0.8457
  510MOL0     O68774   3.131   3.263   6.887  0.2464 -0.6202 -0.3581
  510MOL0     C68775   3.050   3.363   6.950  0.9173  0.3179  0.4132
  510MOL0     C68776   2.912   3.342   6.888  0.2459 -1.0417 -0.6909
  510MOL0     C68777   2.816   3.443   6.948  0.6856 -0.6697 -0.3467
  510MOL0     C68778   2.677   3.428   6.897  0.3226  0.1010 -0.2499
  510MOL0     C68779   2.593   3.534   6.947 -0.1457 -0.2296  0.3011
  510MOL0     C68780   2.515   3.615   6.996  0.3962  0.1106  1.3059
  510MOL0     C68781   3.271   3.215   7.085 -0.1295 -0.6784  0.3031
  510MOL0     C68782   3.396   3.191   7.140 -0.8743  0.6344 -0.1474
  510MOL0     H68783   3.880   3.325   7.160  0.2337  0.0283 -0.5542
  510MOL0     H68784   4.131   3.288   7.256  2.6479 -2.5854  1.8364
  510MOL0     H68785   4.350   3.042   7.043 -1.5478 -4.9679  2.3445
  510MOL0     H68786   4.361   3.209   7.102  0.1581  1.2116  2.4181
  510MOL0     H68787   4.576   3.094   7.077  2.7462  0.0671  0.9243
  510MOL0     H68788   4.550   3.136   7.253 -0.4564 -1.5548  0.6792
  510MOL0     H68789   4.493   2.928   7.313 -0.2261 -2.8029  0.2053
  510MOL0     H68790   4.494   2.854   7.157 -1.8005  0.4652  0.5306
  510MOL0     H68791   4.750   2.893   7.129  0.6977 -1.3483 -0.7256
  510MOL0     H68792   4.746   2.953   7.292  1.5141 -2.4626  1.6865
  510MOL0     H68793   4.684   2.743   7.398  1.3366 -3.0479  0.0631
  510MOL0     H68794   4.632   2.692   7.238  2.1031  0.2961 -3.0410
  510MOL0     H68795   4.889   2.718   7.178 -0.7682  1.4945  1.1307
  510MOL0     H68796   4.915   2.725   7.347  2.7612 -1.2479 -0.3005
  510MOL0     H68797   4.824   2.502   7.389  1.0185  1.5688  0.9765
  510MOL0     H68798   4.754   2.490   7.228  0.2693 -0.5143 -0.1650
  510MOL0     H68799   5.017   2.517   7.159 -0.4776  0.1724  0.2410
  510MOL0     H68800   4.962   2.368   7.221  1.9622 -1.5591  2.5610
  510MOL0     H68801   5.272   2.486   7.252  1.8558  2.5185  0.6913
  510MOL0     H68802   5.440   2.528   7.589  0.5812  2.0712 -2.5884
  510MOL0     H68803   5.453   2.370   7.499 -0.2530 -0.4946 -0.3498
  510MOL0     H68804   5.514   2.479   7.306  0.5218  0.6243  0.1212
  510MOL0     H68805   5.622   2.534   7.430 -0.0252  1.0126 -0.2316
  510MOL0     H68806   5.485   2.736   7.474 -2.2602 -2.0139  0.5244
  510MOL0     H68807   5.392   2.712   7.328 -1.3703  1.7574  3.3488
  510MOL0     H68808   5.577   2.858   7.265  0.7149  0.0927  1.0646
  510MOL0     H68809   5.626   2.695   7.213  2.3444 -1.5079  1.6791
  510MOL0     H68810   5.933   2.845   7.513 -1.7948 -2.3701  0.2003
  510MOL0     H68811   6.195   3.031   7.473 -0.5437  0.2980  2.3523
  510MOL0     H68812   6.138   2.892   7.560 -0.8944  3.7964  1.3610
  510MOL0     H68813   6.255   2.874   7.431 -0.8658 -0.4980  0.3716
  510MOL0     H68814   6.446   3.257   7.305 -1.6420 -1.0163  1.7815
  510MOL0     H68815   6.715   3.275   7.253  3.1772 -1.6742 -2.4268
  510MOL0     H68816   6.914   2.920   7.104 -0.1748  0.5753  1.0002
  510MOL0     H68817   6.876   3.001   6.950  0.3532 -0.2502  0.2079
  510MOL0     H68818   7.059   3.165   7.043 -2.0019  0.2122 -2.7283
  510MOL0     H68819   7.110   3.016   7.125 -0.7663  0.6554  0.9910
  510MOL0     H68820   7.221   3.059   6.905 -1.8071  2.6612  2.7761
  510MOL0     H68821   7.069   3.049   6.827 -0.1606  2.8166  1.2658
  510MOL0     H68822   7.133   2.814   6.998  1.0625  1.1174  0.7774
  510MOL0     H68823   7.053   2.825   6.836 -0.9797 -0.6112  0.8332
  510MOL0     H68824   7.260   2.874   6.736  2.4726 -2.1964 -1.1360
  510MOL0     H68825   7.256   2.717   6.801 -2.3869  1.5385 -1.4528
  510MOL0     H68826   7.425   2.953   6.878 -0.0584 -0.6739 -1.3985
  510MOL0     H68827   7.379   2.836   7.007 -0.3744 -2.0738  0.0908
  510MOL0     H68828   7.521   2.671   6.893 -2.5017 -0.4582 -0.7468
  510MOL0     H68829   7.614   2.822   6.877 -0.4353 -1.9270  0.4319
  510MOL0     H68830   7.554   2.849   6.646 -1.3138  0.7623  0.6372
  510MOL0     H68831   7.437   2.734   6.638 -0.1969  0.6008 -1.2260
  510MOL0     H68832   6.696   2.912   7.035  0.7994 -1.9731  1.2777
  510MOL0     H68833   6.458   2.873   7.090  2.7377 -0.8163  0.3356
  510MOL0     H68834   5.985   2.914   7.021 -0.3956  0.9177 -0.1917
  510MOL0     H68835   5.775   2.823   7.116  1.3133  0.6571 -1.8234
  510MOL0     H68836   4.132   2.898   7.111  1.8394  0.7541  0.6304
  510MOL0     H68837   3.900   2.916   7.025 -2.3572  0.8570 -2.7943
  510MOL0     H68838   3.579   3.210   6.860 -1.5575  0.2437 -1.4964
  510MOL0     H68839   3.359   3.277   6.772  1.9924 -1.0116 -0.7286
  510MOL0     H68840   3.051   3.354   7.059  1.4257 -1.6697  0.2811
  510MOL0     H68841   3.085   3.465   6.929  1.9978 -0.7923 -4.1502
  510MOL0     H68842   2.867   3.243   6.899  0.4344 -1.1148 -0.5752
  510MOL0     H68843   2.914   3.350   6.779  0.0365 -1.5173 -0.7289
  510MOL0     H68844   2.851   3.544   6.927 -2.3993  0.8151  0.9040
  510MOL0     H68845   2.806   3.426   7.056 -0.3879 -2.2660 -0.6602
  510MOL0     H68846   2.634   3.334   6.932  1.8847 -0.8028 -0.6445
  510MOL0     H68847   2.663   3.428   6.788 -2.0489  3.2039 -0.0783
  510MOL0     H68848   2.433   3.676   7.028 -0.9472 -0.4078 -0.9292
  510MOL0     H68849   3.185   3.224   7.151  0.6266  1.0197  1.1184
  510MOL0     H68850   3.412   3.175   7.247  1.0191  1.4440 -0.2730
  511MOL0     O68851   6.952  10.042   5.437 -1.0008  0.5832  0.2426
  511MOL0     C68852   6.983  10.000   5.550  0.3292  0.3085  0.8552
  511MOL0     O68853   7.097  10.033   5.628 -0.0099  0.1670  0.0020
  511MOL0     C68854   7.181  10.135   5.592 -0.4092  0.2843  0.7164
  511MOL0     C68855   7.134  10.255   5.525  0.1307  0.1248  0.4983
  511MOL0     C68856   7.222  10.361   5.498  0.5606  0.5377  0.2961
  511MOL0     C68857   7.364  10.347   5.525  0.4338 -0.1272 -0.6694
  511MOL0     O68858   7.440  10.447   5.478  0.0561  0.0332  0.3180
  511MOL0     C68859   7.565  10.456   5.543 -0.2020 -0.3731 -0.7306
  511MOL0     C68860   7.561  10.531   5.673 -0.4630  0.3389 -0.4693
  511MOL0     C68861   7.503  10.673   5.652  0.0110  0.2618  0.0822
  511MOL0     C68862   7.489  10.740   5.791  0.5210  0.5660  0.4991
  511MOL0     C68863   7.349  10.728   5.854  0.3771  0.7609  0.2172
  511MOL0     C68864   7.256  10.845   5.831  0.7935  0.4376  0.3575
  511MOL0     C68865   7.120  10.847   5.897 -0.7687 -0.4380 -0.4514
  511MOL0     C68866   7.116  10.861   6.052  0.8791  0.1124  0.6817
  511MOL0     N68867   6.981  10.863   6.105  0.7810  0.4901 -0.1110
  511MOL0     C68868   6.941  10.905   6.228  0.8558  0.1215 -0.0529
  511MOL0     C68869   6.811  10.881   6.244 -0.2693 -0.3626 -1.0805
  511MOL0     C68870   6.724  10.903   6.359  0.8629  0.1530 -0.3530
  511MOL0     C68871   6.634  11.025   6.362 -0.4572  0.1437  0.7479
  511MOL0     C68872   6.709  11.145   6.302  0.6267 -0.0035 -0.4913
  511MOL0     C68873   6.614  11.222   6.207  0.2195 -1.0787  1.0396
  511MOL0     O68874   6.681  11.343   6.164  0.2809  0.3232 -0.3296
  511MOL0     C68875   6.784  11.319   6.073  0.2857 -0.0847  0.2071
  511MOL0     C68876   6.875  11.423   6.046 -0.3628 -0.5929  0.4061
  511MOL0     C68877   6.986  11.413   5.962 -0.4514 -0.4945 -0.8629
  511MOL0     C68878   7.083  11.532   5.975 -0.0068 -0.1768 -0.3432
  511MOL0     C68879   7.002  11.299   5.883 -0.2487  0.4015  0.3689
  511MOL0     C68880   7.114  11.282   5.788  0.5164  0.1471 -0.0782
  511MOL0     O68881   7.162  11.391   5.728  0.0871 -0.1139 -0.1013
  511MOL0     C68882   7.256  11.378   5.632  0.5729  0.2220  1.2481
  511MOL0     C68883   7.382  11.430   5.640 -0.1891 -0.0393 -0.6129
  511MOL0     C68884   7.471  11.429   5.535  0.1246  0.3971  0.5973
  511MOL0     C68885   7.433  11.385   5.409  0.6721 -0.6338 -0.3772
  511MOL0     O68886   7.514  11.395   5.301 -0.5415 -1.1296 -0.0211
  511MOL0     C68887   7.605  11.515   5.295 -0.0537  0.0780 -0.1814
  511MOL0     C68888   7.651  11.531   5.159  0.2656 -0.1109 -0.1923
  511MOL0     C68889   7.541  11.575   5.069 -0.5253  0.6368 -0.1259
  511MOL0     C68890   7.442  11.688   5.099 -0.0890  0.2908 -0.3792
  511MOL0     C68891   7.292  11.650   5.101  0.1767 -0.4484 -0.0874
  511MOL0     C68892   7.235  11.607   4.969 -0.0041 -0.2813  0.3073
  511MOL0     C68893   7.082  11.574   4.958 -0.1623 -0.0307 -0.5230
  511MOL0     C68894   7.050  11.544   4.818 -0.3258 -0.0732  0.2456
  511MOL0    Cl68895   7.043  11.689   4.725  0.6180  0.3176 -0.2697
  511MOL0     C68896   7.308  11.317   5.390 -1.5578 -0.1865  0.4918
  511MOL0     C68897   7.225  11.321   5.504 -0.1713  0.7409 -0.4218
  511MOL0     O68898   7.153  11.168   5.774 -0.3602  0.1043 -0.5523
  511MOL0     C68899   6.911  11.192   5.894 -0.2520 -0.9544 -0.1266
  511MOL0     C68900   6.802  11.201   5.992  0.2326 -0.4560  0.1230
  511MOL0     N68901   6.775  10.840   6.116  0.2834 -0.2795 -0.2142
  511MOL0     N68902   6.870  10.822   6.037  0.0555  0.2001 -0.2105
  511MOL0     C68903   7.412  10.225   5.581  0.3450  0.2632  0.2670
  511MOL0     C68904   7.320  10.122   5.620 -0.2391 -0.4572  0.6864
  511MOL0     C68905   6.907   9.875   5.598 -0.2394 -0.3906  0.6398
  511MOL0     C68906   6.783   9.847   5.538  0.9351  0.0835  0.6488
  511MOL0     C68907   6.711   9.737   5.589 -0.8251  0.7941  0.1072
  511MOL0     C68908   6.757   9.660   5.695 -0.0220  0.4482  0.7654
  511MOL0     O68909   6.692   9.539   5.717 -0.4465  0.6949 -0.0075
  511MOL0     C68910   6.571   9.558   5.799 -0.5372  0.3312 -0.1761
  511MOL0     C68911   6.611   9.539   5.945 -0.1176 -0.0636  0.2534
  511MOL0     C68912   6.671   9.401   5.975  0.5054  0.0094  0.5202
  511MOL0     C68913   6.721   9.393   6.122 -0.1317  0.3649 -0.5925
  511MOL0     C68914   6.871   9.398   6.119  1.3485 -0.3689 -0.5186
  511MOL0     C68915   6.989   9.419   6.120 -0.5019 -0.8017  0.1648
  511MOL0     C68916   6.861   9.703   5.771 -0.3690 -0.4387  0.1219
  511MOL0     C68917   6.940   9.810   5.723 -0.6031  0.5561 -0.4802
  511MOL0     H68918   7.027  10.270   5.512 -0.0923  0.3866  2.3872
  511MOL0     H68919   7.185  10.455   5.458 -1.4597  0.7894  2.4957
  511MOL0     H68920   7.613  10.358   5.545  2.0973  0.5925 -3.0116
  511MOL0     H68921   7.639  10.507   5.480  2.5229 -1.2898  1.5201
  511MOL0     H68922   7.502  10.472   5.743 -0.4437 -0.2177 -0.9082
  511MOL0     H68923   7.663  10.553   5.707 -0.5588  0.3076 -0.1642
  511MOL0     H68924   7.568  10.732   5.587 -1.6359  2.5759  0.4035
  511MOL0     H68925   7.406  10.675   5.603  1.4998 -1.2202 -3.2356
  511MOL0     H68926   7.567  10.702   5.858 -0.8050  2.7354  3.5215
  511MOL0     H68927   7.513  10.846   5.775 -2.5638  1.4701  1.1803
  511MOL0     H68928   7.298  10.637   5.824  1.3048 -0.5681  2.3723
  511MOL0     H68929   7.365  10.714   5.962  1.3630 -1.8216 -0.1869
  511MOL0     H68930   7.302  10.944   5.845  1.5166  0.5295 -2.1120
  511MOL0     H68931   7.236  10.838   5.724  2.1641  0.5297  0.0710
  511MOL0     H68932   7.068  10.939   5.867 -3.8026 -1.4843  1.1563
  511MOL0     H68933   7.057  10.767   5.857 -0.8992  0.9635 -3.2890
  511MOL0     H68934   7.178  10.941   6.093  2.8443 -0.6587 -0.6370
  511MOL0     H68935   7.160  10.768   6.089 -0.9537 -1.3551 -0.6031
  511MOL0     H68936   7.002  10.951   6.305  1.8331 -0.3345 -0.5464
  511MOL0     H68937   6.653  10.821   6.347 -0.0816  1.0245 -0.8903
  511MOL0     H68938   6.768  10.888   6.458  2.5890  0.1663 -1.0830
  511MOL0     H68939   6.575  11.035   6.453 -1.9846 -0.6877 -0.1155
  511MOL0     H68940   6.560  11.004   6.284 -0.9696 -0.6077  1.4208
  511MOL0     H68941   6.798  11.122   6.243  0.9091  0.0555 -0.0932
  511MOL0     H68942   6.737  11.207   6.388  0.8837  1.4526 -1.5857
  511MOL0     H68943   6.519  11.249   6.253  1.2441  0.2363  2.4844
  511MOL0     H68944   6.595  11.157   6.121 -3.2647  0.6286  0.3459
  511MOL0     H68945   6.862  11.519   6.096  5.1937 -0.8024  3.0073
  511MOL0     H68946   7.104  11.555   6.080  1.8311  0.2377 -0.7549
  511MOL0     H68947   7.180  11.513   5.927  0.1815 -2.3973  0.7494
  511MOL0     H68948   7.040  11.620   5.927  0.5381  1.8254  2.5638
  511MOL0     H68949   7.398  11.490   5.730  1.3707  0.3169 -1.0980
  511MOL0     H68950   7.562  11.488   5.539 -1.4492  3.0836 -0.5804
  511MOL0     H68951   7.559  11.609   5.327 -0.1689  0.4390 -1.3460
  511MOL0     H68952   7.694  11.505   5.359  1.0474  0.6068 -1.5754
  511MOL0     H68953   7.738  11.597   5.158 -0.2714  0.6204  0.6522
  511MOL0     H68954   7.685  11.431   5.129  0.7364 -0.0038 -0.0339
  511MOL0     H68955   7.487  11.481   5.056 -0.3800 -0.1235  3.6976
  511MOL0     H68956   7.585  11.618   4.979 -1.8781  4.1218  0.7112
  511MOL0     H68957   7.466  11.724   5.199 -0.0378  0.6193 -0.5078
  511MOL0     H68958   7.469  11.775   5.038  1.8359  0.9122  1.2509
  511MOL0     H68959   7.238  11.741   5.131  2.1022  0.9708 -0.7310
  511MOL0     H68960   7.279  11.569   5.173 -0.8105 -0.9500 -0.8184
  511MOL0     H68961   7.279  11.672   4.892 -1.6822 -0.1559 -0.5910
  511MOL0     H68962   7.281  11.510   4.945 -0.1852 -0.7795  1.8865
  511MOL0     H68963   7.026  11.664   4.984  0.2365  0.4530 -1.3298
  511MOL0     H68964   7.048  11.484   5.012 -1.7663  0.9564  0.1948
  511MOL0     H68965   6.950  11.499   4.819 -0.1656 -0.8383 -3.9492
  511MOL0     H68966   7.119  11.467   4.783  0.5153  0.9196 -0.3056
  511MOL0     H68967   7.275  11.290   5.290 -0.4993  5.4064 -1.7563
  511MOL0     H68968   7.124  11.284   5.489 -1.5879  3.4885  1.3859
  511MOL0     H68969   6.931  11.099   5.841 -0.8988 -0.8207 -0.6174
  511MOL0     H68970   6.744  11.110   5.986 -0.6855  0.1955 -2.9096
  511MOL0     H68971   7.515  10.202   5.610  0.8000  0.9827 -0.7199
  511MOL0     H68972   7.355  10.035   5.675 -0.0075 -1.3188 -0.7796
  511MOL0     H68973   6.735   9.898   5.455 -1.1282  0.4148  1.9625
  511MOL0     H68974   6.625   9.704   5.533  1.0426  0.3789 -2.7331
  511MOL0     H68975   6.528   9.658   5.793  1.6686  1.4417  1.0329
  511MOL0     H68976   6.494   9.492   5.759 -1.8881  1.5760  0.3240
  511MOL0     H68977   6.524   9.538   6.011  1.2454  0.5050  2.1654
  511MOL0     H68978   6.687   9.613   5.972  1.6334 -2.2004  1.5718
  511MOL0     H68979   6.750   9.380   5.903  0.3290  1.6905 -0.2123
  511MOL0     H68980   6.587   9.331   5.964  0.0361  0.8636 -2.3054
  511MOL0     H68981   6.703   9.296   6.170  1.0894  0.7726  0.7481
  511MOL0     H68982   6.679   9.465   6.192 -2.6654 -1.5943  0.0583
  511MOL0     H68983   7.094   9.436   6.133 -0.8940  1.2182  1.1486
  511MOL0     H68984   6.889   9.641   5.856  0.6886 -0.8223 -0.4835
  511MOL0     H68985   7.017   9.848   5.790 -1.3338 -0.0275  0.7336
  512MOL0     O68986   0.149   5.396   4.083 -0.8474  0.2561  0.5560
  512MOL0     C68987   0.229   5.458   4.153  0.8103 -0.2000  1.3506
  512MOL0     O68988   0.332   5.530   4.105 -0.1990 -0.6115 -0.2979
  512MOL0     C68989   0.358   5.527   3.961 -0.6882  1.2551 -0.1526
  512MOL0     C68990   0.357   5.412   3.881  0.1495 -0.2088 -0.3009
  512MOL0     C68991   0.357   5.421   3.738  0.2347  0.6567 -1.1609
  512MOL0     C68992   0.375   5.546   3.679 -0.3098 -0.5379 -0.2801
  512MOL0     O68993   0.384   5.573   3.544  0.4382  0.3559  0.3091
  512MOL0     C68994   0.432   5.467   3.458 -0.7479 -0.2005 -0.4545
  512MOL0     C68995   0.479   5.542   3.331  0.0871  0.7317  0.0755
  512MOL0     C68996   0.388   5.652   3.261 -0.5752  0.8939 -1.1455
  512MOL0     C68997   0.389   5.789   3.329 -0.2968  0.6143 -0.2160
  512MOL0     C68998   0.309   5.881   3.248  0.9020  1.2513 -0.4769
  512MOL0     C68999   0.161   5.875   3.292 -0.1184  0.0337  0.1686
  512MOL0     C69000   0.068   5.920   3.187  0.3593 -0.0300  1.1742
  512MOL0     C69001   0.087   6.065   3.136 -0.0126  0.0294  0.4553
  512MOL0     N69002  -0.001   6.102   3.026 -0.5769 -0.5268 -0.4578
  512MOL0     C69003  -0.113   6.182   3.045 -1.1941  0.7171  0.3935
  512MOL0     C69004  -0.148   6.215   2.922  0.8303  0.6539  0.1909
  512MOL0     C69005  -0.279   6.266   2.861 -0.9051  0.4453 -0.4192
  512MOL0     C69006  -0.374   6.320   2.960  0.0242 -0.3406 -0.1090
  512MOL0     C69007  -0.481   6.407   2.902  0.6181  0.3134  0.2273
  512MOL0     C69008  -0.560   6.346   2.780  0.7105  0.2837  0.1983
  512MOL0     O69009  -0.609   6.213   2.790  0.3359 -0.5146 -0.0496
  512MOL0     C69010  -0.701   6.161   2.883  1.0450  0.4618  0.8235
  512MOL0     C69011  -0.714   6.023   2.893 -0.4542  0.5720  0.4572
  512MOL0     C69012  -0.810   5.969   2.986 -0.8963  0.4516  0.9871
  512MOL0     C69013  -0.829   5.822   2.966  0.0818 -0.5578 -0.6365
  512MOL0     C69014  -0.875   6.055   3.084 -0.0935 -0.2318 -1.4387
  512MOL0     C69015  -0.972   6.011   3.189  0.1086  0.6297  0.3327
  512MOL0     O69016  -0.974   5.873   3.218  0.7974  0.1615 -0.1808
  512MOL0     C69017  -1.051   5.821   3.317 -0.5205  0.0766 -0.0418
  512MOL0     C69018  -1.140   5.888   3.405 -0.3913 -0.5209 -0.2175
  512MOL0     C69019  -1.204   5.822   3.508  0.6071 -0.3907 -0.3077
  512MOL0     C69020  -1.185   5.689   3.526  0.7432 -0.0505 -0.4795
  512MOL0     O69021  -1.245   5.625   3.636 -0.2633  0.4078  0.0379
  512MOL0     C69022  -1.289   5.687   3.755 -0.2075 -0.9806 -0.5712
  512MOL0     C69023  -1.440   5.729   3.736 -0.9652 -0.3159  0.1113
  512MOL0     C69024  -1.509   5.783   3.864 -0.2905  0.4042  0.2444
  512MOL0     C69025  -1.489   5.690   3.984  0.0957  1.0604  0.0809
  512MOL0     C69026  -1.591   5.717   4.091  0.6124  0.3687  0.5713
  512MOL0     C69027  -1.556   5.846   4.162  0.0954  0.1094  0.8396
  512MOL0     C69028  -1.651   5.886   4.272  0.7851  0.5703 -0.6179
  512MOL0     C69029  -1.796   5.920   4.216  0.1235  0.0753 -0.2314
  512MOL0    Cl69030  -1.776   6.040   4.088 -0.4982  0.0226 -0.1002
  512MOL0     C69031  -1.108   5.615   3.435 -0.5239  0.0239  0.3942
  512MOL0     C69032  -1.044   5.686   3.326  0.1369  1.5964  0.1450
  512MOL0     O69033  -1.046   6.101   3.234 -0.1062  0.8244 -0.4629
  512MOL0     C69034  -0.857   6.197   3.066 -0.7303 -0.1442 -0.7223
  512MOL0     C69035  -0.790   6.247   2.957  0.0009  0.4182 -0.8690
  512MOL0     N69036  -0.075   6.151   2.827  0.1765  0.9892 -0.5773
  512MOL0     N69037   0.017   6.091   2.888 -0.7070  0.5392  0.2652
  512MOL0     C69038   0.394   5.663   3.761 -0.9080  0.9182  0.4267
  512MOL0     C69039   0.377   5.648   3.898  0.1321  0.2524  0.4681
  512MOL0     C69040   0.204   5.469   4.302 -0.0233  0.7579 -0.2172
  512MOL0     C69041   0.294   5.530   4.384 -0.7168 -0.3550  0.4005
  512MOL0     C69042   0.269   5.551   4.519  1.2086  0.2798 -0.3401
  512MOL0     C69043   0.148   5.499   4.581 -0.6490  0.1838  0.5456
  512MOL0     O69044   0.099   5.506   4.708 -0.7795  0.0368  1.0345
  512MOL0     C69045   0.141   5.625   4.778 -0.2926 -0.1991 -0.4281
  512MOL0     C69046   0.269   5.610   4.872  0.3788 -0.9573  0.8096
  512MOL0     C69047   0.266   5.481   4.960  0.6286 -0.4898 -0.6584
  512MOL0     C69048   0.143   5.464   5.053 -0.4907  0.1909  0.4317
  512MOL0     C69049   0.148   5.346   5.140  0.7869  1.2269  0.4156
  512MOL0     C69050   0.138   5.238   5.207  0.3682 -0.7028  0.5110
  512MOL0     C69051   0.050   5.440   4.496 -0.6742 -0.2076 -0.2269
  512MOL0     C69052   0.086   5.414   4.362 -0.1857 -0.2437  0.7254
  512MOL0     H69053   0.336   5.323   3.940  3.1191 -1.2821 -0.6907
  512MOL0     H69054   0.344   5.326   3.686  3.1353 -0.7693  0.4466
  512MOL0     H69055   0.520   5.422   3.505 -0.6476  1.2543  0.8473
  512MOL0     H69056   0.355   5.394   3.434 -0.7176 -1.2367  2.2578
  512MOL0     H69057   0.577   5.587   3.346  2.1308 -2.4423 -2.5907
  512MOL0     H69058   0.495   5.457   3.266  1.3391  1.8960 -1.1849
  512MOL0     H69059   0.427   5.665   3.160  1.0910  0.8518 -0.5259
  512MOL0     H69060   0.286   5.613   3.248  0.4060 -1.8141 -1.3302
  512MOL0     H69061   0.357   5.784   3.434 -0.3634 -0.5047 -0.2818
  512MOL0     H69062   0.495   5.817   3.328  0.1178 -0.8015  0.9861
  512MOL0     H69063   0.344   5.984   3.262  1.9303  0.7061  1.2585
  512MOL0     H69064   0.307   5.857   3.142 -1.4853 -1.9686  0.1353
  512MOL0     H69065   0.140   5.768   3.300  1.1787 -0.2115  0.5186
  512MOL0     H69066   0.135   5.923   3.387 -1.0480  0.2782 -0.1986
  512MOL0     H69067   0.065   5.859   3.096 -1.3253 -0.2190  1.3316
  512MOL0     H69068  -0.029   5.907   3.235  0.5458 -3.4862  0.8969
  512MOL0     H69069   0.184   6.068   3.085  1.0934  0.1603  2.4652
  512MOL0     H69070   0.081   6.132   3.223 -2.0692 -0.0688  0.4527
  512MOL0     H69071  -0.167   6.196   3.138 -1.4290  1.9813  0.0854
  512MOL0     H69072  -0.258   6.355   2.800  0.6555 -0.3163 -1.0514
  512MOL0     H69073  -0.323   6.185   2.802 -1.8319  1.0871 -0.6249
  512MOL0     H69074  -0.313   6.374   3.033 -0.1803 -1.3976  0.8745
  512MOL0     H69075  -0.402   6.225   3.008  6.8905 -1.8946  1.8860
  512MOL0     H69076  -0.443   6.508   2.886  3.1431 -0.4755  0.6836
  512MOL0     H69077  -0.565   6.422   2.970 -0.0716  0.3982 -0.6371
  512MOL0     H69078  -0.497   6.343   2.690 -1.0110 -1.6981 -1.0089
  512MOL0     H69079  -0.650   6.403   2.757  0.3147 -1.2440 -2.4032
  512MOL0     H69080  -0.656   5.969   2.819 -0.7461  2.6124 -1.3661
  512MOL0     H69081  -0.936   5.804   2.956 -0.3294  0.3717  1.4552
  512MOL0     H69082  -0.786   5.784   2.873 -0.3336  0.6920 -1.3643
  512MOL0     H69083  -0.797   5.775   3.060 -1.7474  0.5676  0.5973
  512MOL0     H69084  -1.153   5.996   3.405  0.4472 -0.3935 -1.6732
  512MOL0     H69085  -1.273   5.884   3.564 -0.7547 -2.0451 -0.0826
  512MOL0     H69086  -1.286   5.602   3.823  0.7339 -2.4207 -2.3098
  512MOL0     H69087  -1.228   5.769   3.793 -2.7223  0.8652 -0.2927
  512MOL0     H69088  -1.451   5.813   3.666  0.9392 -0.8379 -0.8721
  512MOL0     H69089  -1.503   5.645   3.704 -3.3830  1.9057 -1.4139
  512MOL0     H69090  -1.616   5.783   3.842 -0.0157 -1.0207 -1.2683
  512MOL0     H69091  -1.484   5.888   3.886  0.0132  0.2424  0.6850
  512MOL0     H69092  -1.512   5.590   3.947 -0.5696  1.9904 -2.1399
  512MOL0     H69093  -1.389   5.699   4.028  0.6114  0.2682 -0.9034
  512MOL0     H69094  -1.583   5.641   4.169  0.7344  0.2540  0.4490
  512MOL0     H69095  -1.687   5.712   4.038  2.5989  0.9301 -3.4616
  512MOL0     H69096  -1.453   5.848   4.199  1.4843  0.8967 -2.6504
  512MOL0     H69097  -1.560   5.922   4.083 -0.5985 -1.7368 -0.9822
  512MOL0     H69098  -1.605   5.969   4.326  3.3935 -0.4780 -1.0678
  512MOL0     H69099  -1.663   5.810   4.349  1.5570  1.1922  0.1388
  512MOL0     H69100  -1.861   5.959   4.295 -2.5304 -2.2998 -1.0625
  512MOL0     H69101  -1.841   5.833   4.166 -1.3520  0.3869  0.4738
  512MOL0     H69102  -1.110   5.506   3.439 -0.8127  0.0532  2.1028
  512MOL0     H69103  -0.975   5.629   3.265 -3.6602 -0.9305 -2.2122
  512MOL0     H69104  -0.897   6.266   3.139 -0.1665  1.3014 -1.7390
  512MOL0     H69105  -0.789   6.356   2.952 -3.2535  0.6379  0.6399
  512MOL0     H69106   0.401   5.762   3.719 -0.4541 -0.7587 -3.9310
  512MOL0     H69107   0.378   5.743   3.950 -2.4202  1.6836 -1.8877
  512MOL0     H69108   0.382   5.579   4.345 -1.7910  1.2467 -0.0838
  512MOL0     H69109   0.352   5.603   4.567  0.1974  0.7649  0.9313
  512MOL0     H69110   0.155   5.700   4.701  0.0285 -0.6045 -0.7707
  512MOL0     H69111   0.059   5.658   4.842  1.0252  4.4878 -0.7829
  512MOL0     H69112   0.277   5.702   4.931  1.4590  0.2850 -1.1418
  512MOL0     H69113   0.358   5.603   4.808 -1.1035  1.8230 -1.8672
  512MOL0     H69114   0.359   5.486   5.016  0.7603 -0.2502 -0.8969
  512MOL0     H69115   0.278   5.395   4.894 -2.8573 -0.0487 -2.1266
  512MOL0     H69116   0.048   5.461   4.997 -0.5993 -0.1051  0.6298
  512MOL0     H69117   0.141   5.548   5.124  0.0836  0.0115  0.6630
  512MOL0     H69118   0.117   5.150   5.264 -4.1139 -0.1513  0.0557
  512MOL0     H69119  -0.048   5.409   4.531 -0.0409 -1.1420  0.7758
  512MOL0     H69120   0.029   5.352   4.293  0.2887 -0.9806  0.9855
  513MOL0     O69121   3.974   8.874   3.754 -0.2387 -0.2876  0.0324
  513MOL0     C69122   3.912   8.878   3.652  0.3186  0.6293  0.4255
  513MOL0     O69123   3.960   8.828   3.538  0.3745 -0.2524 -0.1867
  513MOL0     C69124   4.096   8.810   3.538 -0.7404 -0.1247  0.7309
  513MOL0     C69125   4.184   8.913   3.566  0.2288 -0.1247  0.4302
  513MOL0     C69126   4.317   8.895   3.539 -0.9036  0.4333  0.2649
  513MOL0     C69127   4.370   8.781   3.475 -1.0912 -0.2616 -0.3673
  513MOL0     O69128   4.498   8.764   3.429  0.7969  0.1841 -0.5052
  513MOL0     C69129   4.569   8.885   3.401  0.5995  0.2883 -0.1644
  513MOL0     C69130   4.707   8.868   3.333  0.6710 -0.1507  0.0487
  513MOL0     C69131   4.781   8.738   3.390 -0.2613  0.1797 -0.1451
  513MOL0     C69132   4.916   8.723   3.322  0.6190 -0.0587 -0.8182
  513MOL0     C69133   5.011   8.631   3.402 -0.5919  0.6722 -0.5431
  513MOL0     C69134   5.162   8.645   3.364 -0.2200  0.3109 -0.3776
  513MOL0     C69135   5.244   8.520   3.430 -0.5970  0.7970  0.1096
  513MOL0     C69136   5.406   8.529   3.403  0.7224  0.0117 -0.1728
  513MOL0     N69137   5.444   8.546   3.265 -0.8307  0.3162  0.5093
  513MOL0     C69138   5.432   8.450   3.165 -0.7964 -1.0634 -0.0281
  513MOL0     C69139   5.437   8.516   3.047  1.0306 -0.3303  0.0165
  513MOL0     C69140   5.427   8.450   2.911 -0.8242  0.5513  0.5101
  513MOL0     C69141   5.287   8.396   2.877 -0.2505  0.7606  0.2189
  513MOL0     C69142   5.297   8.309   2.755 -0.7835 -0.1942  0.8898
  513MOL0     C69143   5.166   8.237   2.732 -0.2832 -0.1517 -0.1305
  513MOL0     O69144   5.063   8.321   2.681 -0.9348  0.3329 -0.6853
  513MOL0     C69145   4.939   8.277   2.699 -0.3395 -0.8687 -1.1140
  513MOL0     C69146   4.847   8.369   2.737  0.3628  0.5113 -0.4353
  513MOL0     C69147   4.714   8.338   2.763 -0.5256 -0.8216 -0.3032
  513MOL0     C69148   4.622   8.452   2.785  0.6548  0.2846  0.8163
  513MOL0     C69149   4.673   8.202   2.755  0.0845  0.3857 -0.5522
  513MOL0     C69150   4.544   8.157   2.796  0.4508 -1.3015  0.5604
  513MOL0     O69151   4.507   8.034   2.746 -0.0096  0.1441 -0.0603
  513MOL0     C69152   4.394   7.973   2.802 -0.8223 -0.5224 -0.9355
  513MOL0     C69153   4.401   7.899   2.923  0.5908 -0.2937 -0.6705
  513MOL0     C69154   4.287   7.830   2.977  0.2439  0.2285 -0.0755
  513MOL0     C69155   4.171   7.821   2.889  0.4367 -0.1178  0.1614
  513MOL0     O69156   4.067   7.741   2.918  0.0655  0.3383  0.6230
  513MOL0     C69157   3.962   7.804   2.991  0.9275  0.3017  0.5147
  513MOL0     C69158   3.831   7.737   2.972  0.3287 -0.3723  0.3315
  513MOL0     C69159   3.825   7.614   3.059 -0.2729 -0.0720 -0.8318
  513MOL0     C69160   3.684   7.547   3.046 -0.2937 -0.1182 -0.9048
  513MOL0     C69161   3.700   7.417   2.977 -0.6616  0.3433 -0.1764
  513MOL0     C69162   3.557   7.346   2.979 -0.2150 -0.2118 -1.2846
  513MOL0     C69163   3.582   7.217   2.907  0.3091 -0.1774 -0.6693
  513MOL0     C69164   3.460   7.126   2.891  0.0677 -0.0543  0.3825
  513MOL0    Cl69165   3.415   7.067   3.060  0.1787  0.1990  0.4889
  513MOL0     C69166   4.171   7.880   2.763  1.2721  0.0415 -0.4412
  513MOL0     C69167   4.281   7.955   2.727  0.3796  0.2326  0.5377
  513MOL0     O69168   4.466   8.228   2.861 -0.3264  0.4929 -0.9235
  513MOL0     C69169   4.763   8.106   2.720 -0.2143 -0.6647  0.4830
  513MOL0     C69170   4.895   8.145   2.688  0.6494  0.1778  0.5891
  513MOL0     N69171   5.426   8.654   3.080  0.7137  0.2045  0.2546
  513MOL0     N69172   5.437   8.667   3.204 -0.0262  0.4888  0.6851
  513MOL0     C69173   4.280   8.684   3.441  0.5566  0.0169 -0.2771
  513MOL0     C69174   4.145   8.694   3.471  1.1018 -0.4866 -0.0169
  513MOL0     C69175   3.767   8.910   3.661 -1.0936  0.2912  0.6057
  513MOL0     C69176   3.675   8.878   3.567 -0.5416 -0.3455  0.1574
  513MOL0     C69177   3.548   8.920   3.581  0.7394 -0.1502  0.5354
  513MOL0     C69178   3.497   8.982   3.698 -0.1303 -0.1841  1.1403
  513MOL0     O69179   3.357   9.008   3.703 -0.0664 -0.5980  0.2449
  513MOL0     C69180   3.319   9.137   3.757 -0.4922 -0.3683  0.9114
  513MOL0     C69181   3.233   9.226   3.667 -0.2754 -0.3041 -0.2305
  513MOL0     C69182   3.099   9.165   3.624  0.3432  0.8490  0.3040
  513MOL0     C69183   3.038   9.237   3.506  0.3666  1.2998  0.4238
  513MOL0     C69184   2.998   9.379   3.533 -1.1413  0.3962  0.1287
  513MOL0     C69185   2.983   9.487   3.575  0.0069 -0.1245 -0.2645
  513MOL0     C69186   3.591   9.005   3.801 -0.3450  0.6108  0.4691
  513MOL0     C69187   3.723   8.961   3.784  0.0439 -1.0710  0.1527
  513MOL0     H69188   4.159   9.006   3.617  3.3808 -0.5530  3.1022
  513MOL0     H69189   4.373   8.986   3.559 -0.9038  0.5770 -0.3714
  513MOL0     H69190   4.509   8.956   3.344 -1.2477 -1.5441 -0.6096
  513MOL0     H69191   4.593   8.931   3.498 -0.3623  0.6382 -0.0788
  513MOL0     H69192   4.687   8.848   3.227 -0.1876 -0.3273  0.2401
  513MOL0     H69193   4.761   8.963   3.333 -2.5431  1.8580 -1.6874
  513MOL0     H69194   4.796   8.749   3.498 -0.9779  0.2324 -0.0493
  513MOL0     H69195   4.717   8.652   3.371  0.3795  0.1853 -2.7522
  513MOL0     H69196   4.893   8.695   3.219 -0.3228  2.5116 -1.3991
  513MOL0     H69197   4.959   8.824   3.324 -1.5157  0.9329  1.4586
  513MOL0     H69198   4.996   8.657   3.508 -1.1201  2.9125 -1.1263
  513MOL0     H69199   4.979   8.528   3.381 -1.7700  1.4687 -2.9159
  513MOL0     H69200   5.168   8.649   3.255 -3.0028  1.5733 -0.5667
  513MOL0     H69201   5.189   8.743   3.403 -0.4677 -0.1292  0.9511
  513MOL0     H69202   5.220   8.498   3.534 -0.1862  0.5050  0.1447
  513MOL0     H69203   5.229   8.421   3.386  2.3135 -0.2594  1.2671
  513MOL0     H69204   5.458   8.444   3.446  3.1857  1.7877  0.5796
  513MOL0     H69205   5.449   8.616   3.454  2.1494  0.5777 -2.2188
  513MOL0     H69206   5.419   8.342   3.168  2.9029 -1.7390 -2.3303
  513MOL0     H69207   5.453   8.522   2.833  4.3939  0.1839  1.5568
  513MOL0     H69208   5.506   8.375   2.902  1.8142  3.3901 -2.3687
  513MOL0     H69209   5.222   8.478   2.843  1.2692  1.3018 -1.5578
  513MOL0     H69210   5.258   8.344   2.969 -1.1777  1.1683  0.1750
  513MOL0     H69211   5.358   8.222   2.779  0.6089  0.6599  0.5800
  513MOL0     H69212   5.339   8.364   2.670 -0.9454 -1.4982 -0.0580
  513MOL0     H69213   5.143   8.212   2.836  2.3191  3.9145  1.6972
  513MOL0     H69214   5.166   8.147   2.671 -1.0421 -1.3318  1.5229
  513MOL0     H69215   4.862   8.477   2.738  1.7055  0.4167 -2.8155
  513MOL0     H69216   4.592   8.460   2.890 -0.7848 -0.4321  0.4969
  513MOL0     H69217   4.653   8.542   2.731 -0.0947 -0.7380 -1.4532
  513MOL0     H69218   4.518   8.439   2.752  0.2065  4.4640  0.0521
  513MOL0     H69219   4.488   7.903   2.989  0.7686  0.8117 -0.9638
  513MOL0     H69220   4.281   7.790   3.078  1.9263 -0.4912 -0.2390
  513MOL0     H69221   3.992   7.813   3.096  3.0896  1.1450 -0.1312
  513MOL0     H69222   3.952   7.905   2.951 -0.1957 -0.6354 -1.7767
  513MOL0     H69223   3.743   7.794   3.001 -0.6198 -1.2700 -0.6711
  513MOL0     H69224   3.806   7.712   2.868  0.1517  0.8863  0.0595
  513MOL0     H69225   3.839   7.648   3.162 -0.3671 -0.3267 -0.7337
  513MOL0     H69226   3.909   7.551   3.028  0.4619  0.6773 -0.3792
  513MOL0     H69227   3.638   7.533   3.144  0.1215  0.0129 -0.6927
  513MOL0     H69228   3.621   7.614   2.986 -0.7451  1.7331  1.4876
  513MOL0     H69229   3.776   7.353   3.022 -1.1187 -0.3806 -0.4084
  513MOL0     H69230   3.725   7.449   2.875  0.8635  0.8450  0.3216
  513MOL0     H69231   3.517   7.325   3.079  0.5227  3.1254 -0.1572
  513MOL0     H69232   3.484   7.411   2.932 -0.3190  0.6628  0.0309
  513MOL0     H69233   3.664   7.165   2.958  0.7531 -1.2787 -2.4178
  513MOL0     H69234   3.625   7.233   2.807 -0.3843 -0.9342 -1.0962
  513MOL0     H69235   3.479   7.035   2.834 -1.4561 -1.2031  1.6076
  513MOL0     H69236   3.376   7.186   2.853  0.1479  0.0133  0.3096
  513MOL0     H69237   4.082   7.864   2.704 -1.3715  1.0644  2.9565
  513MOL0     H69238   4.283   8.007   2.632  0.2013  0.6556  0.7631
  513MOL0     H69239   4.747   7.999   2.706  0.0503 -0.4655 -1.7024
  513MOL0     H69240   4.972   8.074   2.659  0.5670  0.4811 -0.4177
  513MOL0     H69241   4.309   8.597   3.383 -1.6041 -1.6197  0.9334
  513MOL0     H69242   4.073   8.620   3.439 -0.0846  1.6209 -2.6888
  513MOL0     H69243   3.705   8.808   3.489  3.1834  0.4352  0.7177
  513MOL0     H69244   3.475   8.901   3.503 -4.3001  3.4078  3.7619
  513MOL0     H69245   3.267   9.137   3.853  0.5592 -2.6103  1.5592
  513MOL0     H69246   3.409   9.197   3.771 -1.1475  0.2856  2.5748
  513MOL0     H69247   3.300   9.249   3.584  0.0999  1.0806  0.4150
  513MOL0     H69248   3.214   9.328   3.702  1.4957  0.0664 -0.2198
  513MOL0     H69249   3.034   9.160   3.712  2.0160 -2.3694  1.5010
  513MOL0     H69250   3.104   9.060   3.596 -2.4292  0.4754  0.8897
  513MOL0     H69251   2.953   9.182   3.467 -0.0301  2.7997 -0.9554
  513MOL0     H69252   3.116   9.232   3.429  0.1879  2.0637  0.1742
  513MOL0     H69253   2.972   9.587   3.613  0.9348 -1.0440  2.6623
  513MOL0     H69254   3.581   9.053   3.897  2.2499  0.2729  0.9883
  513MOL0     H69255   3.800   8.990   3.855  0.7146  0.1307 -1.0248
  514MOL0     O69256   8.903   0.530   5.971 -0.1506  0.5413 -1.0315
  514MOL0     C69257   8.812   0.487   5.897  0.1762 -0.3577  0.8879
  514MOL0     O69258   8.838   0.454   5.766  0.3600  0.1045  0.0306
  514MOL0     C69259   8.973   0.432   5.728 -0.3965  0.0724  0.9794
  514MOL0     C69260   9.060   0.535   5.695  0.5125  0.4048 -0.7616
  514MOL0     C69261   9.188   0.504   5.646  1.2423 -0.2433 -0.4328
  514MOL0     C69262   9.239   0.376   5.628 -0.0708 -0.2067  0.1075
  514MOL0     O69263   9.369   0.350   5.582 -0.3687 -0.0090 -0.1941
  514MOL0     C69264   9.431   0.219   5.609 -0.4725  0.5922  0.2536
  514MOL0     C69265   9.487   0.215   5.745 -0.5282  0.1896 -1.2690
  514MOL0     C69266   9.486   0.078   5.809  0.2479  0.0752 -0.7293
  514MOL0     C69267   9.584   0.058   5.926 -0.1629 -0.5451  0.0091
  514MOL0     C69268   9.603  -0.088   5.964  0.3745 -0.5278 -0.6587
  514MOL0     C69269   9.689  -0.118   6.096 -0.0073  0.1807 -0.3775
  514MOL0     C69270   9.618  -0.051   6.208 -0.0550  0.4926  1.1012
  514MOL0     C69271   9.656  -0.118   6.338  0.5327 -0.5742  0.3964
  514MOL0     N69272   9.598  -0.074   6.461 -0.2881  0.2505 -0.4003
  514MOL0     C69273   9.592   0.056   6.495  0.1059  0.0769 -0.4884
  514MOL0     C69274   9.566   0.076   6.622  0.7321 -0.9589  0.9319
  514MOL0     C69275   9.574   0.207   6.699  0.2653  0.8856  0.3413
  514MOL0     C69276   9.433   0.209   6.760  0.0633 -0.3830 -0.1309
  514MOL0     C69277   9.334   0.251   6.643 -0.7988  0.3850  0.3495
  514MOL0     C69278   9.193   0.256   6.677  0.4310  0.3632 -1.1756
  514MOL0     O69279   9.117   0.265   6.554 -0.2851  0.2673  0.1962
  514MOL0     C69280   8.979   0.285   6.561 -0.4541 -0.5375 -0.1946
  514MOL0     C69281   8.910   0.322   6.445 -0.2095  1.0705  0.4321
  514MOL0     C69282   8.773   0.350   6.448  0.4692  1.0291 -1.2416
  514MOL0     C69283   8.723   0.395   6.320  0.8058 -0.2895 -0.3403
  514MOL0     C69284   8.698   0.333   6.569  0.1521  0.1846 -0.0752
  514MOL0     C69285   8.547   0.349   6.595 -0.8899  0.2494  0.0119
  514MOL0     O69286   8.492   0.285   6.698  0.4533  0.0067  0.1154
  514MOL0     C69287   8.363   0.296   6.737  0.6275  0.4315 -0.0886
  514MOL0     C69288   8.329   0.415   6.789  1.1121 -0.3674  0.6352
  514MOL0     C69289   8.191   0.434   6.832  0.0930  0.1655 -0.4481
  514MOL0     C69290   8.091   0.333   6.824 -0.4650 -0.2755 -0.2550
  514MOL0     O69291   7.967   0.359   6.871  0.5398  0.6160 -0.4819
  514MOL0     C69292   7.864   0.253   6.866  0.1556 -0.7835  0.6479
  514MOL0     C69293   7.730   0.294   6.923  0.0516 -0.4624 -0.5420
  514MOL0     C69294   7.714   0.298   7.071  0.3086  0.0696  0.7977
  514MOL0     C69295   7.572   0.333   7.112  0.5846  0.9850  0.5529
  514MOL0     C69296   7.558   0.476   7.148 -0.4109  0.0373 -0.0354
  514MOL0     C69297   7.553   0.568   7.030  0.4663 -0.3755 -0.4286
  514MOL0     C69298   7.558   0.720   7.071 -0.2196 -0.0021 -0.0382
  514MOL0     C69299   7.520   0.816   6.959 -0.2554  0.3653  1.0745
  514MOL0    Cl69300   7.610   0.791   6.813  0.2140  0.0809  0.0619
  514MOL0     C69301   8.139   0.204   6.776 -0.5071  0.4868 -0.0188
  514MOL0     C69302   8.274   0.188   6.738 -0.2205  0.0832 -1.1364
  514MOL0     O69303   8.482   0.429   6.521 -0.5220  0.2373  0.2623
  514MOL0     C69304   8.765   0.292   6.681  0.0113  0.0517 -0.3129
  514MOL0     C69305   8.900   0.273   6.675  0.0243 -0.0028 -0.2244
  514MOL0     N69306   9.530  -0.056   6.664  0.2416 -0.5519  1.1314
  514MOL0     N69307   9.550  -0.146   6.565 -0.4814  0.0456 -0.7414
  514MOL0     C69308   9.143   0.272   5.661  0.0808  0.3498 -0.7708
  514MOL0     C69309   9.013   0.303   5.709 -0.6613 -0.3935  0.0524
  514MOL0     C69310   8.670   0.506   5.936  0.5590 -0.3490  0.5531
  514MOL0     C69311   8.634   0.571   6.054  0.6315  1.2414  0.4861
  514MOL0     C69312   8.498   0.599   6.085 -0.1802  0.0864 -0.2053
  514MOL0     C69313   8.395   0.554   6.003  0.0563 -0.4651 -0.7251
  514MOL0     O69314   8.264   0.571   6.021  0.5597  0.1886  0.4743
  514MOL0     C69315   8.204   0.586   6.157 -0.1841  0.1855  0.3162
  514MOL0     C69316   8.242   0.484   6.267  0.5235  0.3475  0.5210
  514MOL0     C69317   8.132   0.462   6.373 -0.8185 -0.2192  0.5319
  514MOL0     C69318   8.156   0.581   6.471  0.7115 -0.3254  0.0736
  514MOL0     C69319   8.043   0.584   6.566 -0.0780 -0.4398 -0.3140
  514MOL0     C69320   7.945   0.583   6.643 -0.2453 -0.2980 -0.5681
  514MOL0     C69321   8.434   0.477   5.893  0.2100  0.3779 -0.1321
  514MOL0     C69322   8.565   0.455   5.865  0.1620 -1.3947  0.0417
  514MOL0     H69323   9.023   0.635   5.714  1.3720  0.3177  1.6532
  514MOL0     H69324   9.251   0.591   5.628  0.5504 -0.0316 -1.9807
  514MOL0     H69325   9.360   0.136   5.599 -2.3590  2.1458  0.0589
  514MOL0     H69326   9.513   0.207   5.538  0.4685  2.1074  1.0436
  514MOL0     H69327   9.585   0.263   5.741 -0.5346  0.5196  1.1181
  514MOL0     H69328   9.433   0.273   5.821  0.6538  0.1196 -0.3543
  514MOL0     H69329   9.383   0.064   5.841  0.4712 -0.6424 -0.2978
  514MOL0     H69330   9.500   0.004   5.729  1.2062  0.7802 -1.2415
  514MOL0     H69331   9.681   0.106   5.913 -1.2309  1.8458  0.3299
  514MOL0     H69332   9.546   0.115   6.010  0.8463  1.7380 -1.0024
  514MOL0     H69333   9.507  -0.132   5.992  0.1327  0.9979  1.0578
  514MOL0     H69334   9.647  -0.138   5.877  1.7573  0.3872 -0.5229
  514MOL0     H69335   9.693  -0.227   6.106  0.0095  0.1897 -0.2756
  514MOL0     H69336   9.792  -0.083   6.081  0.7727 -1.1004  1.5490
  514MOL0     H69337   9.661   0.049   6.214  2.3761 -0.3557 -0.6654
  514MOL0     H69338   9.509  -0.051   6.197 -0.0154  3.0038  0.0544
  514MOL0     H69339   9.765  -0.105   6.341  0.3969  1.5192 -1.3110
  514MOL0     H69340   9.629  -0.223   6.330 -1.5926  0.0095 -0.8783
  514MOL0     H69341   9.631   0.143   6.443  2.1648 -0.7220 -0.3706
  514MOL0     H69342   9.645   0.191   6.781 -0.3981 -2.2474  0.4406
  514MOL0     H69343   9.591   0.296   6.638 -0.9775  0.3101 -0.9027
  514MOL0     H69344   9.429   0.264   6.854 -1.7207 -2.6331  1.2250
  514MOL0     H69345   9.402   0.115   6.807  0.8546  0.2972  1.8818
  514MOL0     H69346   9.340   0.179   6.560 -0.1505  0.0448  0.6768
  514MOL0     H69347   9.363   0.348   6.601 -0.4502  1.0858  2.1368
  514MOL0     H69348   9.180   0.336   6.750  1.9168 -0.0436 -0.4282
  514MOL0     H69349   9.174   0.162   6.730  0.5495  0.9997  0.0459
  514MOL0     H69350   8.959   0.314   6.348 -1.8330  0.8098 -0.4065
  514MOL0     H69351   8.745   0.314   6.249 -2.4361 -1.3955 -0.2829
  514MOL0     H69352   8.614   0.401   6.314  0.6259 -3.2414 -2.9001
  514MOL0     H69353   8.762   0.492   6.289  0.8570  0.0260  0.6731
  514MOL0     H69354   8.396   0.500   6.796  0.7520  0.0272 -0.3993
  514MOL0     H69355   8.160   0.527   6.880  0.3989 -0.3800  0.8682
  514MOL0     H69356   7.853   0.227   6.760  0.0577  0.5784  0.3018
  514MOL0     H69357   7.905   0.168   6.920  4.6871  0.1595 -0.8529
  514MOL0     H69358   7.702   0.390   6.877  1.0072  0.1160  0.0526
  514MOL0     H69359   7.658   0.219   6.889  0.1987 -0.7207 -0.2843
  514MOL0     H69360   7.790   0.364   7.114 -0.7949  0.9123  1.4964
  514MOL0     H69361   7.724   0.194   7.104  0.8674 -0.3108 -0.4893
  514MOL0     H69362   7.496   0.314   7.035  0.4279 -0.3314  1.0110
  514MOL0     H69363   7.553   0.280   7.205 -2.1328 -0.1704 -0.5309
  514MOL0     H69364   7.640   0.510   7.212 -1.4135  1.9110  0.3539
  514MOL0     H69365   7.463   0.483   7.201  0.3149 -0.4352  1.3745
  514MOL0     H69366   7.633   0.546   6.958 -0.9291 -0.5938 -1.9800
  514MOL0     H69367   7.460   0.554   6.974  2.1569  1.8439 -4.1589
  514MOL0     H69368   7.656   0.744   7.113 -0.5048  3.8465 -1.2069
  514MOL0     H69369   7.479   0.738   7.145  0.3099  1.3636  0.2218
  514MOL0     H69370   7.547   0.920   6.983 -0.8462  1.3669 -2.0214
  514MOL0     H69371   7.414   0.818   6.931 -0.0890 -1.1971  0.2140
  514MOL0     H69372   8.072   0.118   6.771  3.4182 -2.8307 -1.4910
  514MOL0     H69373   8.320   0.092   6.721  2.7671 -0.1508  5.2376
  514MOL0     H69374   8.712   0.274   6.774  0.6298 -0.7458 -0.1058
  514MOL0     H69375   8.943   0.242   6.770  0.8870 -2.5419 -1.3690
  514MOL0     H69376   9.171   0.167   5.658 -0.8132  0.1177 -1.0474
  514MOL0     H69377   8.951   0.216   5.732  0.6717 -1.2393  0.6158
  514MOL0     H69378   8.707   0.623   6.115 -0.5940  2.7463  0.7526
  514MOL0     H69379   8.481   0.649   6.180  2.2711  1.6493 -0.4943
  514MOL0     H69380   8.234   0.683   6.196 -2.7298  1.7279 -1.2449
  514MOL0     H69381   8.094   0.582   6.160 -0.2096 -0.3300 -0.7032
  514MOL0     H69382   8.340   0.505   6.311  1.7380  0.2739 -2.0183
  514MOL0     H69383   8.262   0.392   6.212  1.1701  1.1560 -0.6188
  514MOL0     H69384   8.133   0.365   6.423 -2.9001  0.3728  1.8729
  514MOL0     H69385   8.032   0.470   6.328  0.3482  4.3462 -1.8733
  514MOL0     H69386   8.154   0.683   6.432 -2.1345 -0.2958  0.0361
  514MOL0     H69387   8.250   0.564   6.525 -0.2443 -2.8511  1.0996
  514MOL0     H69388   7.868   0.574   6.717 -2.9918  0.7797 -3.0926
  514MOL0     H69389   8.359   0.444   5.822  4.3566  2.1014 -6.1185
  514MOL0     H69390   8.599   0.400   5.777  4.1933  0.4394  0.2232
  515MOL0     O69391   6.128   4.640   0.259  0.1586  0.2154  0.1163
  515MOL0     C69392   6.241   4.600   0.233 -0.6125  0.9898  0.6396
  515MOL0     O69393   6.315   4.637   0.115 -0.4865  0.2533  0.5122
  515MOL0     C69394   6.269   4.740   0.033 -0.8003  0.5682 -0.6409
  515MOL0     C69395   6.287   4.722  -0.108 -0.5865  0.6046 -0.5156
  515MOL0     C69396   6.222   4.799  -0.198 -0.8947 -0.7255 -1.0477
  515MOL0     C69397   6.141   4.905  -0.160  0.5505  0.0230  1.2420
  515MOL0     O69398   6.095   4.991  -0.258 -0.6464 -0.1606  0.6740
  515MOL0     C69399   6.096   4.957  -0.396  0.4134 -0.1124 -0.1817
  515MOL0     C69400   5.987   4.854  -0.429  0.9074  1.0840  0.1589
  515MOL0     C69401   5.995   4.811  -0.573 -0.4115  0.8853 -0.2501
  515MOL0     C69402   5.901   4.893  -0.669  0.1788 -0.0626  0.0838
  515MOL0     C69403   5.766   4.824  -0.701  0.1653  1.1404 -0.0108
  515MOL0     C69404   5.669   4.785  -0.585 -0.4998  0.8075  0.2327
  515MOL0     C69405   5.545   4.710  -0.636 -0.2020  0.3996 -0.4439
  515MOL0     C69406   5.478   4.617  -0.528 -0.5329  0.2087 -0.1835
  515MOL0     N69407   5.377   4.525  -0.579 -0.4955 -0.5339  0.6025
  515MOL0     C69408   5.258   4.553  -0.647  0.1389  0.7291  0.8052
  515MOL0     C69409   5.198   4.430  -0.673  0.7005 -0.3155  0.1822
  515MOL0     C69410   5.056   4.405  -0.735 -0.0083 -0.1388 -0.1224
  515MOL0     C69411   4.946   4.468  -0.653 -0.1603  0.0274  0.5410
  515MOL0     C69412   4.929   4.420  -0.507 -0.7097  0.3420  0.2182
  515MOL0     C69413   4.912   4.273  -0.487 -0.0399  0.4797  0.6304
  515MOL0     O69414   4.782   4.248  -0.552  0.3951 -0.1173 -0.3121
  515MOL0     C69415   4.719   4.128  -0.519 -0.2855 -0.2630 -1.1471
  515MOL0     C69416   4.783   4.004  -0.488  0.4763  0.5015 -0.0483
  515MOL0     C69417   4.709   3.885  -0.449  0.6004  0.4798 -0.2961
  515MOL0     C69418   4.788   3.758  -0.452  0.5949 -0.0653  0.2021
  515MOL0     C69419   4.567   3.890  -0.443  0.5556 -0.3603 -0.0616
  515MOL0     C69420   4.480   3.776  -0.396 -0.0508  0.1619  0.6495
  515MOL0     O69421   4.344   3.761  -0.433  0.0640 -0.2625 -0.5191
  515MOL0     C69422   4.260   3.664  -0.406 -0.5216  1.0954  0.1759
  515MOL0     C69423   4.150   3.649  -0.480  0.2251  0.5961 -0.1016
  515MOL0     C69424   4.054   3.549  -0.465  0.0531  1.3214  0.5895
  515MOL0     C69425   4.077   3.455  -0.363 -0.0814 -0.0597  0.5769
  515MOL0     O69426   3.984   3.355  -0.349 -0.4341 -0.1218 -0.0598
  515MOL0     C69427   3.916   3.360  -0.220 -0.6051  0.2193  0.3169
  515MOL0     C69428   3.784   3.295  -0.223  0.6066  0.4060  1.0876
  515MOL0     C69429   3.662   3.347  -0.295 -0.1080 -1.2382  0.5229
  515MOL0     C69430   3.613   3.492  -0.256  0.3497 -0.2524 -0.4739
  515MOL0     C69431   3.652   3.608  -0.340 -0.1811  0.8357  0.1959
  515MOL0     C69432   3.608   3.726  -0.259 -0.0429 -0.1339  0.0376
  515MOL0     C69433   3.627   3.853  -0.344  0.2230 -0.2192 -1.0490
  515MOL0     C69434   3.545   3.971  -0.278 -0.8709  0.4609 -0.2162
  515MOL0    Cl69435   3.629   4.022  -0.125  0.3768  0.4910  0.9159
  515MOL0     C69436   4.189   3.465  -0.278  0.5020 -0.2671 -0.4894
  515MOL0     C69437   4.275   3.574  -0.296  0.6452  0.1207 -0.1695
  515MOL0     O69438   4.544   3.700  -0.322  0.5197 -0.1437 -0.4159
  515MOL0     C69439   4.507   4.015  -0.472  0.2241 -0.2388 -0.8158
  515MOL0     C69440   4.579   4.133  -0.511 -0.0438 -0.7632 -0.0154
  515MOL0     N69441   5.286   4.332  -0.632  0.6053 -0.1140  0.1340
  515MOL0     N69442   5.392   4.394  -0.593  0.3283  0.2411 -0.0824
  515MOL0     C69443   6.124   4.929  -0.025  0.4264 -0.0047 -1.1340
  515MOL0     C69444   6.192   4.852   0.074  1.0414  0.0707  0.1638
  515MOL0     C69445   6.311   4.527   0.334  0.0104  0.8507 -0.5272
  515MOL0     C69446   6.429   4.463   0.319 -0.3271  0.2523  0.6113
  515MOL0     C69447   6.509   4.410   0.423  0.1246 -0.0773  0.2949
  515MOL0     C69448   6.447   4.389   0.545 -0.4153  1.0548 -0.7912
  515MOL0     O69449   6.524   4.324   0.643  0.1398 -0.2706  0.3328
  515MOL0     C69450   6.451   4.262   0.742 -0.0117  0.4723 -0.8292
  515MOL0     C69451   6.531   4.150   0.816 -0.8231 -0.4268  1.3108
  515MOL0     C69452   6.520   4.020   0.739 -0.0900 -0.1583 -0.1472
  515MOL0     C69453   6.597   3.885   0.767 -0.1831  0.4555 -0.8550
  515MOL0     C69454   6.573   3.764   0.695 -0.6458  0.0588  0.4220
  515MOL0     C69455   6.572   3.666   0.622 -0.2162 -0.3811  0.1757
  515MOL0     C69456   6.325   4.452   0.567 -0.4828 -0.1299  0.1755
  515MOL0     C69457   6.257   4.516   0.469  0.1058 -0.7210  0.6245
  515MOL0     H69458   6.334   4.634  -0.152  0.3189  0.0478  1.4631
  515MOL0     H69459   6.249   4.772  -0.300 -2.8583 -0.5506 -1.6476
  515MOL0     H69460   6.069   5.042  -0.459 -2.5614 -0.1227  0.9253
  515MOL0     H69461   6.198   4.930  -0.426  0.7406 -0.3281  1.0870
  515MOL0     H69462   6.008   4.767  -0.365  0.9715  2.5085  2.1570
  515MOL0     H69463   5.896   4.906  -0.400  1.5518  1.7759  1.0021
  515MOL0     H69464   6.094   4.809  -0.622  1.1104  0.9169  2.6274
  515MOL0     H69465   5.968   4.705  -0.575 -0.1977  0.7751  1.5801
  515MOL0     H69466   5.881   4.994  -0.630  2.2284  1.0680 -1.5451
  515MOL0     H69467   5.949   4.921  -0.763 -1.2335 -2.6603 -1.5284
  515MOL0     H69468   5.708   4.881  -0.774 -1.5432 -0.2951  0.1555
  515MOL0     H69469   5.780   4.731  -0.757  0.1265 -0.6098  2.6937
  515MOL0     H69470   5.719   4.724  -0.509 -1.5398  0.8010  0.9419
  515MOL0     H69471   5.629   4.877  -0.542 -0.1486  1.4711 -0.8275
  515MOL0     H69472   5.472   4.780  -0.678 -0.7047 -0.3011 -0.7634
  515MOL0     H69473   5.578   4.654  -0.724 -0.0626 -0.6648  0.2700
  515MOL0     H69474   5.421   4.678  -0.457  0.1206 -2.9263  3.3723
  515MOL0     H69475   5.558   4.566  -0.472  1.1499  2.8726  0.0289
  515MOL0     H69476   5.222   4.653  -0.667  2.8187  1.8780  1.1941
  515MOL0     H69477   5.059   4.461  -0.829  0.5454  0.0816  0.0177
  515MOL0     H69478   5.038   4.299  -0.753  1.5282 -0.5936  0.7740
  515MOL0     H69479   4.853   4.448  -0.707 -1.0377 -0.1977  2.0720
  515MOL0     H69480   4.937   4.577  -0.655 -4.7306 -0.1283 -2.4754
  515MOL0     H69481   4.847   4.473  -0.458 -1.3745  0.8969 -1.4296
  515MOL0     H69482   5.022   4.446  -0.455 -1.9531  2.3739  1.5558
  515MOL0     H69483   4.921   4.236  -0.385  2.9594 -2.5011 -0.4999
  515MOL0     H69484   4.983   4.211  -0.544 -0.7723 -0.3233  0.5723
  515MOL0     H69485   4.892   3.995  -0.494  0.4556  0.4352 -0.3991
  515MOL0     H69486   4.844   3.741  -0.359  0.0974 -0.5706  0.4171
  515MOL0     H69487   4.730   3.669  -0.478  0.5973  0.4714 -1.8050
  515MOL0     H69488   4.873   3.766  -0.520  1.2223  3.7791  1.2155
  515MOL0     H69489   4.140   3.721  -0.561  3.1683 -1.4988 -2.5862
  515MOL0     H69490   3.973   3.541  -0.537  1.1400  1.4303 -0.6806
  515MOL0     H69491   3.989   3.306  -0.159  1.0688 -0.0056 -1.7391
  515MOL0     H69492   3.901   3.464  -0.189  1.7912  0.3642  1.2094
  515MOL0     H69493   3.801   3.198  -0.270  1.2607  0.1787  1.7824
  515MOL0     H69494   3.750   3.278  -0.121  0.6352  0.8191  1.1683
  515MOL0     H69495   3.579   3.280  -0.272 -0.9330  0.1599  1.8507
  515MOL0     H69496   3.665   3.344  -0.405 -3.0154 -0.0718  0.3288
  515MOL0     H69497   3.505   3.482  -0.245  0.2852 -0.9238 -1.5854
  515MOL0     H69498   3.664   3.496  -0.159  0.4680  1.1624 -0.5736
  515MOL0     H69499   3.612   3.612  -0.442  2.5373  2.0726 -0.9165
  515MOL0     H69500   3.758   3.592  -0.360 -0.2082 -0.0825  0.7399
  515MOL0     H69501   3.504   3.705  -0.231 -0.2584 -0.2407 -0.7887
  515MOL0     H69502   3.668   3.728  -0.168 -1.2297 -1.5079  0.9108
  515MOL0     H69503   3.588   3.833  -0.445  1.0740 -3.5432 -0.8246
  515MOL0     H69504   3.733   3.874  -0.356  0.2483  0.8531  0.7310
  515MOL0     H69505   3.455   3.929  -0.232 -0.8827  0.5513 -0.1588
  515MOL0     H69506   3.526   4.052  -0.349  3.5738  0.5512 -1.6667
  515MOL0     H69507   4.202   3.398  -0.195 -1.6200  2.3419  2.1937
  515MOL0     H69508   4.351   3.583  -0.219 -0.7949  0.3910  1.2628
  515MOL0     H69509   4.399   4.010  -0.471  0.1939 -1.5805  2.4772
  515MOL0     H69510   4.534   4.232  -0.519  0.1043 -0.2478  3.6045
  515MOL0     H69511   6.066   5.015   0.007 -2.3604 -3.0796  3.0887
  515MOL0     H69512   6.167   4.855   0.179 -3.5625 -2.8422 -0.5612
  515MOL0     H69513   6.454   4.457   0.213 -2.7730 -0.9407  0.0211
  515MOL0     H69514   6.606   4.363   0.411 -0.7581 -2.4503  1.6475
  515MOL0     H69515   6.421   4.339   0.813  1.2986 -1.7648  2.3643
  515MOL0     H69516   6.361   4.212   0.704  0.8273 -0.0880 -2.1637
  515MOL0     H69517   6.488   4.127   0.915 -0.4317 -0.3526  1.4982
  515MOL0     H69518   6.635   4.181   0.825 -1.1873  0.9302  1.0680
  515MOL0     H69519   6.540   4.051   0.636  1.6957 -0.5571  0.0409
  515MOL0     H69520   6.412   4.002   0.744 -0.2880  1.0640  0.5182
  515MOL0     H69521   6.579   3.868   0.874 -4.8136 -0.8201 -1.6087
  515MOL0     H69522   6.701   3.899   0.738  0.3029  0.0306  0.6044
  515MOL0     H69523   6.593   3.582   0.559 -1.4688 -0.7383  0.1951
  515MOL0     H69524   6.282   4.452   0.666 -0.6646  1.0436  0.1100
  515MOL0     H69525   6.162   4.565   0.488  0.0386 -0.4344 -0.3778
  516MOL0     O69526   6.536   5.585   3.621  1.0696 -0.2321 -0.3154
  516MOL0     C69527   6.519   5.619   3.498 -0.1910  0.3501 -0.1203
  516MOL0     O69528   6.418   5.566   3.416  0.3559  0.5076 -0.3174
  516MOL0     C69529   6.316   5.510   3.489 -0.0077 -0.0023 -0.1684
  516MOL0     C69530   6.202   5.589   3.522  0.2396 -0.2015 -0.2432
  516MOL0     C69531   6.100   5.529   3.600  0.6123 -0.0998 -0.1217
  516MOL0     C69532   6.096   5.389   3.628 -1.4090  0.6823 -0.1801
  516MOL0     O69533   5.988   5.341   3.711 -0.7333  0.3154 -0.4649
  516MOL0     C69534   5.999   5.212   3.783 -0.1367 -0.5690 -0.7543
  516MOL0     C69535   6.089   5.221   3.912 -0.3621  0.0234  0.8743
  516MOL0     C69536   6.033   5.315   4.017  0.5081 -0.0497  0.0701
  516MOL0     C69537   6.119   5.339   4.148 -0.1751  0.1545 -0.5171
  516MOL0     C69538   6.040   5.416   4.259  0.4620 -0.0222  0.6843
  516MOL0     C69539   6.007   5.557   4.238 -0.9616 -0.1823 -0.9734
  516MOL0     C69540   5.895   5.587   4.337 -0.2021  0.3204  0.4492
  516MOL0     C69541   5.942   5.573   4.483  0.4343  0.0198 -0.3706
  516MOL0     N69542   6.034   5.678   4.524  0.0391 -0.2437  0.3741
  516MOL0     C69543   6.168   5.667   4.510 -0.3417  0.3985  0.0896
  516MOL0     C69544   6.208   5.783   4.575 -0.3628  0.1079  0.4377
  516MOL0     C69545   6.343   5.814   4.625 -0.3520  0.3262  0.3195
  516MOL0     C69546   6.349   5.832   4.774  0.0133 -0.2439  1.0134
  516MOL0     C69547   6.320   5.707   4.862  0.2689  0.2769 -0.0462
  516MOL0     C69548   6.431   5.592   4.844  0.6878 -0.1686  0.1946
  516MOL0     O69549   6.560   5.656   4.867 -0.1585  0.4142 -0.5406
  516MOL0     C69550   6.671   5.592   4.821 -0.2717  0.4670 -0.4961
  516MOL0     C69551   6.686   5.456   4.868  0.1214  0.2777 -0.0165
  516MOL0     C69552   6.787   5.379   4.803  0.6001 -0.1246 -0.0146
  516MOL0     C69553   6.805   5.239   4.863  0.2398 -0.2886  0.4364
  516MOL0     C69554   6.860   5.434   4.691  0.2288 -0.2840 -0.3401
  516MOL0     C69555   6.965   5.361   4.622 -0.1788  0.2193  0.8035
  516MOL0     O69556   7.080   5.431   4.599 -0.1629  0.0035 -0.2508
  516MOL0     C69557   7.196   5.371   4.567  0.4375  0.3888 -0.4395
  516MOL0     C69558   7.280   5.316   4.660 -1.2069 -0.5276  0.5933
  516MOL0     C69559   7.408   5.269   4.619  1.4315 -1.3191 -0.7599
  516MOL0     C69560   7.439   5.268   4.481  1.7249  0.6936  0.5565
  516MOL0     O69561   7.552   5.197   4.441 -0.7812  0.2667 -0.2127
  516MOL0     C69562   7.564   5.186   4.298  0.0982 -0.3590  0.0323
  516MOL0     C69563   7.703   5.136   4.269  0.3236 -0.2360 -0.3338
  516MOL0     C69564   7.748   5.101   4.119 -0.6314 -0.9999 -0.1737
  516MOL0     C69565   7.879   5.180   4.097 -0.3298 -0.2475  0.1869
  516MOL0     C69566   7.938   5.152   3.957  0.3323  0.1165  0.0694
  516MOL0     C69567   8.082   5.216   3.951  0.3800 -0.7815  0.3654
  516MOL0     C69568   8.127   5.200   3.806  0.6247  0.1900 -0.0675
  516MOL0     C69569   8.264   5.263   3.784 -0.0987 -0.8223 -0.3754
  516MOL0    Cl69570   8.275   5.427   3.860  0.3211  0.4391 -0.0907
  516MOL0     C69571   7.343   5.323   4.392 -0.5427 -0.0776 -0.2676
  516MOL0     C69572   7.226   5.379   4.431  0.0613 -0.2359  0.0129
  516MOL0     O69573   6.954   5.245   4.584  0.1175 -0.9270  0.1042
  516MOL0     C69574   6.834   5.567   4.648  0.0039 -0.3392  0.0009
  516MOL0     C69575   6.747   5.647   4.721 -0.5589  0.3683 -0.7722
  516MOL0     N69576   6.098   5.868   4.601  0.1657 -0.0422 -0.2117
  516MOL0     N69577   5.993   5.790   4.582  0.3175  0.3475 -0.5180
  516MOL0     C69578   6.205   5.312   3.586 -0.6101 -0.3197 -0.0441
  516MOL0     C69579   6.314   5.373   3.528 -0.2429 -0.3631  0.3691
  516MOL0     C69580   6.620   5.713   3.440  0.5682 -0.7971 -0.2234
  516MOL0     C69581   6.631   5.738   3.296 -0.3112 -0.3825 -0.2751
  516MOL0     C69582   6.740   5.807   3.240  0.6227  0.0608 -0.8072
  516MOL0     C69583   6.833   5.870   3.325 -0.2591 -0.2060 -0.5561
  516MOL0     O69584   6.934   5.942   3.268  0.6798 -0.5210  0.1558
  516MOL0     C69585   7.026   6.015   3.349 -0.8102  0.1355 -0.0591
  516MOL0     C69586   7.089   6.140   3.274 -0.4468  0.3276 -0.2625
  516MOL0     C69587   7.177   6.219   3.366  0.2014 -0.0306  0.7063
  516MOL0     C69588   7.203   6.350   3.298 -0.5991 -0.2361  0.1509
  516MOL0     C69589   7.283   6.344   3.184  0.3149  0.2247 -0.0231
  516MOL0     C69590   7.348   6.344   3.081  0.4321  0.3877 -0.0293
  516MOL0     C69591   6.817   5.865   3.467 -0.4441  0.1247 -0.3898
  516MOL0     C69592   6.713   5.781   3.523  0.0963 -0.0083  1.4907
  516MOL0     H69593   6.205   5.692   3.488  1.2593  0.1825  0.9531
  516MOL0     H69594   6.027   5.601   3.637  0.4211  0.9453 -2.3811
  516MOL0     H69595   5.900   5.167   3.794 -0.3728  0.0081 -0.4450
  516MOL0     H69596   6.044   5.139   3.715 -0.9840 -2.8884  1.0857
  516MOL0     H69597   6.097   5.120   3.954  1.1524 -0.1949  0.1412
  516MOL0     H69598   6.193   5.247   3.889 -0.9443  0.9368 -0.9614
  516MOL0     H69599   6.017   5.413   3.971 -1.4767 -0.0288  0.6824
  516MOL0     H69600   5.931   5.285   4.044 -1.2924  4.2147 -1.2084
  516MOL0     H69601   6.159   5.243   4.181 -1.4108  0.5203  2.3048
  516MOL0     H69602   6.210   5.399   4.134 -0.3335  0.5240 -0.0019
  516MOL0     H69603   5.944   5.363   4.261  0.2347  0.3197  3.5200
  516MOL0     H69604   6.092   5.401   4.354  2.0448  1.1525  0.0421
  516MOL0     H69605   6.093   5.624   4.251 -0.6093 -0.8137 -0.0019
  516MOL0     H69606   5.977   5.563   4.133 -2.7399 -0.4399 -0.5029
  516MOL0     H69607   5.861   5.690   4.319 -1.1106 -0.3271 -1.9945
  516MOL0     H69608   5.810   5.522   4.316 -1.0980  2.1210 -1.9673
  516MOL0     H69609   5.988   5.475   4.493  0.2315  0.1675  3.5482
  516MOL0     H69610   5.850   5.567   4.542  1.5098  2.0423  1.6489
  516MOL0     H69611   6.227   5.589   4.464 -1.2679  0.0677 -0.5690
  516MOL0     H69612   6.422   5.747   4.590 -0.1979  0.8127 -0.2700
  516MOL0     H69613   6.365   5.913   4.583 -0.2051  1.3154  2.5636
  516MOL0     H69614   6.283   5.916   4.797  3.2254  3.0763 -0.8347
  516MOL0     H69615   6.450   5.865   4.799 -0.2961  2.2742 -0.7158
  516MOL0     H69616   6.215   5.677   4.849  0.7411 -1.7303  0.3418
  516MOL0     H69617   6.342   5.749   4.960 -0.0734 -1.8455  1.0061
  516MOL0     H69618   6.437   5.555   4.741 -2.8329 -2.5328  0.6460
  516MOL0     H69619   6.415   5.505   4.908  1.4254 -0.1998  0.3371
  516MOL0     H69620   6.608   5.409   4.927 -0.4033  2.7893  1.3936
  516MOL0     H69621   6.882   5.241   4.941 -0.2089  2.3087  0.8919
  516MOL0     H69622   6.708   5.202   4.899  0.2032 -3.2859 -2.2474
  516MOL0     H69623   6.840   5.164   4.791  0.1466  0.7349 -0.6959
  516MOL0     H69624   7.251   5.316   4.764 -2.4868  4.4139  0.4864
  516MOL0     H69625   7.471   5.228   4.697  0.8308 -1.3551 -0.2836
  516MOL0     H69626   7.494   5.108   4.267  0.3412  0.1187 -1.8344
  516MOL0     H69627   7.547   5.267   4.227  1.4180 -2.7549 -3.2633
  516MOL0     H69628   7.762   5.217   4.315 -3.5713  1.5737  1.9495
  516MOL0     H69629   7.725   5.044   4.324 -2.5153  0.1856  1.7502
  516MOL0     H69630   7.664   5.129   4.053 -0.1732 -0.2277 -0.4544
  516MOL0     H69631   7.771   4.995   4.107  3.4997 -0.4329  1.2210
  516MOL0     H69632   7.860   5.287   4.093 -4.0895 -0.7952 -0.4457
  516MOL0     H69633   7.955   5.164   4.173  0.4241 -2.3066 -0.9004
  516MOL0     H69634   7.872   5.188   3.878  2.4005 -0.4750 -2.0186
  516MOL0     H69635   7.953   5.045   3.940  1.2333  0.1127  0.8117
  516MOL0     H69636   8.062   5.318   3.982  3.2251 -0.2479  0.7376
  516MOL0     H69637   8.155   5.173   4.020  2.9819 -0.2796 -1.9055
  516MOL0     H69638   8.051   5.248   3.744 -0.3888 -0.9794  0.2123
  516MOL0     H69639   8.136   5.093   3.783 -4.3046 -0.4659 -0.0244
  516MOL0     H69640   8.280   5.266   3.675 -2.6988 -0.7047 -0.8235
  516MOL0     H69641   8.343   5.206   3.832 -0.4361  1.8674  3.8464
  516MOL0     H69642   7.362   5.331   4.285  1.6686 -2.4709 -0.1490
  516MOL0     H69643   7.156   5.427   4.363  0.4069 -1.8340 -1.5632
  516MOL0     H69644   6.895   5.616   4.573 -0.3015  2.0640  1.2404
  516MOL0     H69645   6.730   5.745   4.679 -0.9634 -0.1965 -2.0039
  516MOL0     H69646   6.214   5.204   3.592  2.5698 -0.3558 -2.5925
  516MOL0     H69647   6.386   5.298   3.499 -2.6959 -2.7968  0.0687
  516MOL0     H69648   6.556   5.689   3.236  0.4450 -1.9465  0.0057
  516MOL0     H69649   6.769   5.799   3.136 -0.0714 -1.7626 -0.8781
  516MOL0     H69650   6.971   6.055   3.434  1.6284 -2.5227  3.0874
  516MOL0     H69651   7.108   5.950   3.384 -0.6078  0.2619 -0.2944
  516MOL0     H69652   7.000   6.193   3.241 -0.6183  0.1714 -0.0488
  516MOL0     H69653   7.135   6.103   3.181  1.7441  1.4896  0.2981
  516MOL0     H69654   7.267   6.158   3.374 -0.7276 -1.5980 -0.3727
  516MOL0     H69655   7.131   6.248   3.461 -1.4190  2.1791 -0.6551
  516MOL0     H69656   7.254   6.414   3.371 -0.2689  2.0750 -1.9936
  516MOL0     H69657   7.107   6.394   3.271  0.5732  1.5806 -1.2494
  516MOL0     H69658   7.402   6.356   2.990  0.8632 -0.3028  0.1311
  516MOL0     H69659   6.888   5.913   3.534 -0.0499  1.4505 -1.7068
  516MOL0     H69660   6.691   5.783   3.630 -1.0162  3.1665  1.3035
  517MOL0     O69661   8.821   7.554   9.754 -0.8494 -0.2568  0.0788
  517MOL0     C69662   8.871   7.607   9.853 -0.0548  0.4994  1.3034
  517MOL0     O69663   8.910   7.546   9.966 -0.3149  0.6547  0.3076
  517MOL0     C69664   8.910   7.405   9.963  0.1937  0.4021 -1.0828
  517MOL0     C69665   8.966   7.322   9.869  0.3099 -0.4318  0.3261
  517MOL0     C69666   8.957   7.184   9.873  0.4265 -0.3287  0.5353
  517MOL0     C69667   8.878   7.121   9.971 -1.2594 -1.1706 -1.0991
  517MOL0     O69668   8.850   6.993   9.964  0.4813  0.5814 -0.0688
  517MOL0     C69669   8.938   6.907   9.878 -0.0038 -0.1873 -0.1122
  517MOL0     C69670   8.883   6.771   9.891  0.1086  0.0129  0.1956
  517MOL0     C69671   8.984   6.664   9.840 -0.2997  1.9395  1.0646
  517MOL0     C69672   9.120   6.659   9.920  1.6150  0.0089 -0.3011
  517MOL0     C69673   9.172   6.521   9.881 -0.1542  0.0064  0.1087
  517MOL0     C69674   9.300   6.491   9.949 -0.5904 -0.7110 -0.4717
  517MOL0     C69675   9.333   6.338   9.936  0.0792  0.3313 -0.2354
  517MOL0     C69676   9.474   6.309   9.984 -0.0933  0.6382 -0.2804
  517MOL0     N69677   9.493   6.163  10.006 -0.4401 -0.2850 -0.2013
  517MOL0     C69678   9.463   6.099  10.122 -0.7569  0.1141  0.2433
  517MOL0     C69679   9.474   5.962  10.099  0.0744 -0.7655  0.5556
  517MOL0     C69680   9.438   5.852  10.195 -0.0200 -0.4184 -0.1733
  517MOL0     C69681   9.292   5.837  10.204  0.6530  0.1947  0.1282
  517MOL0     C69682   9.253   5.735  10.320  0.1190 -0.5444  0.0983
  517MOL0     C69683   9.100   5.721  10.345 -0.7058  0.0765  0.6760
  517MOL0     O69684   9.021   5.841  10.350 -0.3425  0.0425 -0.4411
  517MOL0     C69685   8.888   5.843  10.373  0.2098  0.1167 -0.3697
  517MOL0     C69686   8.789   5.753  10.324 -0.2043 -0.2828  0.6071
  517MOL0     C69687   8.650   5.787  10.322  0.5046  0.5633 -0.4691
  517MOL0     C69688   8.560   5.698  10.249  0.1521  0.0358  0.5700
  517MOL0     C69689   8.614   5.908  10.387 -0.4227  0.3087 -0.4327
  517MOL0     C69690   8.473   5.957  10.388 -0.4743  1.3494 -0.8679
  517MOL0     O69691   8.382   5.908  10.304 -0.5464 -0.1361  0.0732
  517MOL0     C69692   8.247   5.903  10.324 -0.3525 -0.2296 -0.5819
  517MOL0     C69693   8.161   5.934  10.435 -0.0966  0.1431 -0.1174
  517MOL0     C69694   8.024   5.911  10.434 -0.3628  0.3641 -0.4874
  517MOL0     C69695   7.969   5.850  10.319  0.4089  0.2753 -0.9986
  517MOL0     O69696   7.840   5.802  10.335 -0.2160  0.0742  0.2365
  517MOL0     C69697   7.746   5.853  10.245 -0.3381 -0.2309  0.7256
  517MOL0     C69698   7.680   5.980  10.312  0.3371  0.3769  0.8327
  517MOL0     C69699   7.562   5.951  10.403  0.0795  0.3532  1.6283
  517MOL0     C69700   7.513   6.072  10.487 -0.2355  0.2229  0.9292
  517MOL0     C69701   7.375   6.062  10.541  0.4993 -0.0930  0.2459
  517MOL0     C69702   7.340   6.187  10.619  0.2757  0.2461  0.3066
  517MOL0     C69703   7.204   6.171  10.687 -0.3151 -0.3528 -0.1804
  517MOL0     C69704   7.118   6.286  10.649  0.7798  0.2645  0.7972
  517MOL0    Cl69705   7.085   6.290  10.477 -0.1443  0.0067  0.2210
  517MOL0     C69706   8.047   5.830  10.203 -0.1326  0.3337  0.4998
  517MOL0     C69707   8.188   5.864  10.205  0.4076 -0.1971 -0.0604
  517MOL0     O69708   8.450   6.039  10.484 -0.4493  0.4332  0.0820
  517MOL0     C69709   8.714   5.996  10.439  0.9109  0.2037  0.0444
  517MOL0     C69710   8.847   5.965  10.425 -0.5407  0.6620 -0.1515
  517MOL0     N69711   9.525   5.948   9.969 -0.9331  0.0438  0.2142
  517MOL0     N69712   9.524   6.068   9.916  0.3881 -0.2967 -0.0450
  517MOL0     C69713   8.814   7.206  10.063 -0.7813 -0.1972  0.3498
  517MOL0     C69714   8.829   7.342  10.065  0.4529 -0.6094  0.1512
  517MOL0     C69715   8.897   7.751   9.845 -0.7348  0.1701  0.3360
  517MOL0     C69716   8.903   7.831   9.963 -0.1546  0.3180 -1.2696
  517MOL0     C69717   8.920   7.967   9.943 -0.2119  0.2545 -0.0738
  517MOL0     C69718   8.930   8.025   9.812 -0.9021 -0.2331  0.5600
  517MOL0     O69719   8.950   8.160   9.808  0.6618  0.4254  0.4699
  517MOL0     C69720   8.867   8.247   9.726  0.1508 -0.1141  0.2450
  517MOL0     C69721   8.958   8.313   9.625 -0.0924  0.2375  0.0105
  517MOL0     C69722   9.006   8.448   9.677 -0.1715  0.0371 -0.2869
  517MOL0     C69723   9.096   8.524   9.579  0.3492  1.2372  0.9837
  517MOL0     C69724   9.115   8.666   9.615  0.0948  0.3693 -0.3445
  517MOL0     C69725   9.134   8.777   9.661 -0.6224 -0.2862  0.1725
  517MOL0     C69726   8.922   7.945   9.701  1.4208  0.0636 -0.0923
  517MOL0     C69727   8.904   7.811   9.719  0.2106  0.4998 -0.3636
  517MOL0     H69728   9.018   7.372   9.788  0.7018 -1.7852 -0.2917
  517MOL0     H69729   9.002   7.132   9.789 -0.7872 -1.9888  0.8573
  517MOL0     H69730   8.938   6.933   9.772 -1.0707  0.1029 -0.0466
  517MOL0     H69731   9.042   6.906   9.913  0.9057 -1.3315 -2.6170
  517MOL0     H69732   8.864   6.761   9.999  3.5705  0.3655  0.9605
  517MOL0     H69733   8.790   6.760   9.835  2.8927 -0.2131 -4.9888
  517MOL0     H69734   8.934   6.566   9.836  1.0924  1.1833 -2.6459
  517MOL0     H69735   9.014   6.698   9.740 -1.3475 -1.8309 -0.7439
  517MOL0     H69736   9.190   6.735   9.885 -0.2936  0.5094 -3.4286
  517MOL0     H69737   9.104   6.663  10.029  1.0700  0.2478 -0.3866
  517MOL0     H69738   9.102   6.440   9.906  1.6778 -1.1682  1.7178
  517MOL0     H69739   9.196   6.509   9.775 -0.2730  0.3583  0.0391
  517MOL0     H69740   9.375   6.554   9.903  0.5128  0.5652  2.7593
  517MOL0     H69741   9.307   6.514  10.056  4.9709  1.1000 -0.9476
  517MOL0     H69742   9.259   6.275   9.985 -1.0905  0.2295 -2.0332
  517MOL0     H69743   9.326   6.296   9.836 -0.0065 -2.4673  0.8716
  517MOL0     H69744   9.498   6.353  10.081  3.7955 -1.2859 -0.1804
  517MOL0     H69745   9.542   6.350   9.908  1.6720  0.8887  1.3480
  517MOL0     H69746   9.425   6.144  10.213 -0.4534 -1.5056  1.2130
  517MOL0     H69747   9.474   5.760  10.148 -0.0741 -0.3869 -0.2779
  517MOL0     H69748   9.477   5.879  10.293  0.2276 -0.9750 -0.1173
  517MOL0     H69749   9.257   5.804  10.106 -0.7888 -1.0072  1.0213
  517MOL0     H69750   9.241   5.932  10.226 -0.9537 -0.9784  1.7174
  517MOL0     H69751   9.298   5.759  10.416 -2.8710 -0.5322  1.6325
  517MOL0     H69752   9.286   5.636  10.287 -1.2644 -1.1251  0.3872
  517MOL0     H69753   9.076   5.661  10.433 -4.1988 -1.6629 -1.2518
  517MOL0     H69754   9.053   5.676  10.257 -0.0535  0.4201  0.1382
  517MOL0     H69755   8.828   5.673  10.262 -2.6901 -2.2843  1.4359
  517MOL0     H69756   8.483   5.664  10.318  2.3960 -2.5291  1.9710
  517MOL0     H69757   8.524   5.747  10.158 -1.0688 -1.5492  0.1542
  517MOL0     H69758   8.608   5.604  10.219 -3.1540 -2.3707  2.2416
  517MOL0     H69759   8.201   5.962  10.532 -2.8017  2.4776  0.4779
  517MOL0     H69760   7.976   5.921  10.531 -2.0999  2.1844 -1.4534
  517MOL0     H69761   7.789   5.885  10.149 -1.3385  0.4698  0.4904
  517MOL0     H69762   7.678   5.768  10.233  0.0729 -0.5099  0.3199
  517MOL0     H69763   7.759   6.036  10.363  0.6380 -1.3625  2.3857
  517MOL0     H69764   7.636   6.036  10.229  2.5824 -0.5398 -1.0835
  517MOL0     H69765   7.594   5.873  10.473 -0.1599 -0.5222  0.7807
  517MOL0     H69766   7.479   5.916  10.341  1.9242 -0.7145 -0.4059
  517MOL0     H69767   7.579   6.072  10.574  1.1993 -2.4214 -0.0532
  517MOL0     H69768   7.536   6.160  10.425  1.3796  0.6188  2.0327
  517MOL0     H69769   7.363   5.972  10.602 -4.5497  0.0650 -0.0468
  517MOL0     H69770   7.298   6.058  10.463  0.3050  1.0478  0.3551
  517MOL0     H69771   7.418   6.213  10.692  1.9891 -0.2260 -1.2797
  517MOL0     H69772   7.347   6.272  10.551  1.3014  0.0713  0.1731
  517MOL0     H69773   7.215   6.169  10.796 -1.8691 -0.4437  0.0025
  517MOL0     H69774   7.150   6.080  10.659  0.6594 -1.0109  0.0378
  517MOL0     H69775   7.164   6.380  10.681 -3.1476  3.2011 -1.2055
  517MOL0     H69776   7.023   6.272  10.703  0.4528 -2.9628 -0.4486
  517MOL0     H69777   8.008   5.778  10.116  1.4313  2.4833 -1.6161
  517MOL0     H69778   8.256   5.848  10.122 -0.1608  1.3342 -0.8547
  517MOL0     H69779   8.697   6.097  10.476  1.0133  0.7959 -1.4323
  517MOL0     H69780   8.924   6.039  10.444  0.1824  0.0431 -0.6056
  517MOL0     H69781   8.749   7.165  10.139  0.9850 -1.1963  1.3903
  517MOL0     H69782   8.760   7.407  10.117 -0.4822  0.0466 -1.8186
  517MOL0     H69783   8.892   7.793  10.064  0.5037  0.1545 -1.2596
  517MOL0     H69784   8.954   8.034  10.021  1.8039 -1.2419  0.4099
  517MOL0     H69785   8.787   8.191   9.677 -0.0234 -0.2668  0.7027
  517MOL0     H69786   8.815   8.323   9.785 -0.7326 -2.7493  3.0946
  517MOL0     H69787   8.902   8.322   9.532 -2.7123  0.9562  1.5591
  517MOL0     H69788   9.041   8.242   9.618 -0.1755  0.2750 -2.1709
  517MOL0     H69789   9.060   8.453   9.772  0.0679  0.9710 -0.4574
  517MOL0     H69790   8.918   8.512   9.682 -0.6882 -0.7508  1.5487
  517MOL0     H69791   9.045   8.511   9.483  0.0383 -1.4932  1.4129
  517MOL0     H69792   9.192   8.471   9.581  0.8411  1.9670 -1.0617
  517MOL0     H69793   9.142   8.875   9.703 -2.5602  1.0613 -2.3303
  517MOL0     H69794   8.922   7.987   9.601  0.6330  0.0655 -0.1041
  517MOL0     H69795   8.882   7.763   9.624 -0.1244 -1.6020  0.7289
  518MOL0     O69796   4.151   8.372   8.039 -0.0207  0.0116 -0.1665
  518MOL0     C69797   4.171   8.308   8.149 -0.4651  0.3381  1.1058
  518MOL0     O69798   4.297   8.270   8.192  0.3563 -0.0999  0.1231
  518MOL0     C69799   4.408   8.314   8.132  0.4106  0.4815 -0.4972
  518MOL0     C69800   4.476   8.234   8.042 -0.0724  0.2511 -0.3805
  518MOL0     C69801   4.604   8.276   7.997  0.7712 -0.2041  0.4300
  518MOL0     C69802   4.660   8.398   8.032  0.3604 -1.1589  0.1288
  518MOL0     O69803   4.776   8.451   7.986  0.1109  0.0442 -0.2326
  518MOL0     C69804   4.791   8.437   7.840 -0.7294  0.2162  0.2626
  518MOL0     C69805   4.946   8.431   7.805 -0.2287 -0.5249  0.4698
  518MOL0     C69806   5.006   8.562   7.756 -0.1131 -0.2639 -0.0761
  518MOL0     C69807   5.015   8.681   7.862 -0.4655  0.2310  1.0547
  518MOL0     C69808   5.078   8.805   7.805 -0.8252 -0.0700 -1.0666
  518MOL0     C69809   4.987   8.873   7.708  0.6339  0.3684 -0.7649
  518MOL0     C69810   5.066   8.988   7.648  0.8287 -0.4978 -0.0895
  518MOL0     C69811   4.979   9.061   7.543 -0.4190  0.2310  0.2276
  518MOL0     N69812   4.974   9.004   7.405 -0.0021  0.1141 -0.1499
  518MOL0     C69813   5.081   9.015   7.307 -0.1686  0.5558  0.5447
  518MOL0     C69814   5.025   8.978   7.190 -0.5488 -0.4524 -0.2065
  518MOL0     C69815   5.082   8.997   7.057  0.0380 -0.1773 -0.8522
  518MOL0     C69816   5.017   9.112   6.984 -0.1179  0.2218  0.4587
  518MOL0     C69817   5.020   9.255   7.034 -0.0049 -0.4675 -0.8953
  518MOL0     C69818   5.170   9.306   7.036 -0.3302  0.7452 -0.2222
  518MOL0     O69819   5.178   9.438   7.036  0.2400 -0.5553  0.8849
  518MOL0     C69820   5.306   9.492   7.053 -1.0044 -0.3081  0.9357
  518MOL0     C69821   5.318   9.625   7.036  0.2792 -0.7855  0.1617
  518MOL0     C69822   5.438   9.698   7.064  0.1969 -0.2687  0.4497
  518MOL0     C69823   5.422   9.843   7.033 -0.5670  0.0816  0.3622
  518MOL0     C69824   5.556   9.630   7.091 -0.1157 -0.0437 -0.1801
  518MOL0     C69825   5.689   9.696   7.107 -0.4034 -0.1514 -0.5540
  518MOL0     O69826   5.701   9.829   7.145 -0.2113  0.6669 -0.4532
  518MOL0     C69827   5.825   9.888   7.149 -0.2066  0.4329  0.5548
  518MOL0     C69828   5.935   9.853   7.226  0.1625 -0.2163 -0.9755
  518MOL0     C69829   6.055   9.923   7.222 -0.1371  0.2350 -0.0886
  518MOL0     C69830   6.072  10.030   7.130  0.0976  0.2202  0.2378
  518MOL0     O69831   6.198  10.091   7.120 -0.0018 -0.4392  0.2051
  518MOL0     C69832   6.192  10.229   7.174 -0.6993  0.6330 -0.0623
  518MOL0     C69833   6.225  10.233   7.323  0.7981  0.3912 -0.5991
  518MOL0     C69834   6.342  10.148   7.373  0.0936 -0.2516  0.8370
  518MOL0     C69835   6.480  10.202   7.324 -0.5460  0.0629  0.9322
  518MOL0     C69836   6.600  10.139   7.398 -0.5810 -0.5973 -0.6330
  518MOL0     C69837   6.732  10.211   7.353  0.4592  0.5561 -0.2802
  518MOL0     C69838   6.863  10.127   7.376  0.6840  1.4573  0.1793
  518MOL0     C69839   6.985  10.217   7.404  0.4237  0.5869 -0.2375
  518MOL0    Cl69840   6.962  10.301   7.554  0.1120 -0.1077 -0.1677
  518MOL0     C69841   5.960  10.065   7.055  0.5659 -0.2616  0.8673
  518MOL0     C69842   5.847   9.985   7.052 -0.1614  0.1479  0.1988
  518MOL0     O69843   5.780   9.620   7.082 -0.0329  1.2302  0.1599
  518MOL0     C69844   5.552   9.491   7.098  0.9268  0.3025  0.3031
  518MOL0     C69845   5.424   9.424   7.074 -0.4710 -0.1002 -0.7564
  518MOL0     N69846   4.895   8.944   7.213 -0.6893 -0.1695  0.1855
  518MOL0     N69847   4.869   8.962   7.336  0.4820 -0.1708 -0.1618
  518MOL0     C69848   4.590   8.476   8.125 -0.3557  0.2041 -0.5187
  518MOL0     C69849   4.465   8.435   8.178  0.4389 -0.0149  0.8093
  518MOL0     C69850   4.051   8.243   8.205  0.6477 -0.4359 -0.3382
  518MOL0     C69851   3.926   8.266   8.140 -0.6753 -0.3497  0.0436
  518MOL0     C69852   3.808   8.200   8.183  0.6073 -0.0138  0.1086
  518MOL0     C69853   3.825   8.112   8.296 -0.0871 -0.4492  0.1014
  518MOL0     O69854   3.716   8.047   8.340 -0.0793 -0.0104 -0.3748
  518MOL0     C69855   3.670   7.940   8.256 -0.1559 -0.3412 -0.2206
  518MOL0     C69856   3.515   7.948   8.268  0.1243  0.2775  0.5135
  518MOL0     C69857   3.458   8.086   8.224 -1.0733 -0.4927 -0.1205
  518MOL0     C69858   3.313   8.093   8.255 -0.3660  0.2836  1.4996
  518MOL0     C69859   3.238   8.013   8.156  0.3027 -0.5399  0.4611
  518MOL0     C69860   3.170   7.937   8.095 -0.2190  0.8812  0.8844
  518MOL0     C69861   3.943   8.092   8.374 -0.7954 -0.2591 -0.0365
  518MOL0     C69862   4.054   8.160   8.325  0.2854 -0.0573  0.0639
  518MOL0     H69863   4.442   8.135   8.012 -1.6903 -0.0407  2.0794
  518MOL0     H69864   4.654   8.222   7.917  0.5821 -0.9193  0.7885
  518MOL0     H69865   4.735   8.360   7.787 -2.0884  0.4626  1.2955
  518MOL0     H69866   4.752   8.537   7.817  0.0639  0.8006  1.3656
  518MOL0     H69867   5.003   8.386   7.886 -0.8149 -0.5403  0.8821
  518MOL0     H69868   4.944   8.367   7.717 -2.5859  0.0380  0.0417
  518MOL0     H69869   5.109   8.541   7.723  0.1242  0.0663  0.4427
  518MOL0     H69870   4.960   8.597   7.663  1.6426 -0.7261 -1.1676
  518MOL0     H69871   4.909   8.699   7.881 -1.7696 -0.6889 -3.8023
  518MOL0     H69872   5.074   8.636   7.942  1.9772 -3.4533 -2.4168
  518MOL0     H69873   5.099   8.872   7.889  0.5493 -0.6936 -0.8841
  518MOL0     H69874   5.175   8.795   7.755 -0.6762  2.6089 -1.4834
  518MOL0     H69875   4.951   8.803   7.632  0.7697 -1.9495  1.1959
  518MOL0     H69876   4.896   8.900   7.763 -0.7315 -6.4749  1.3017
  518MOL0     H69877   5.096   9.065   7.719 -0.9547  2.1176 -1.9621
  518MOL0     H69878   5.150   8.947   7.591 -0.1882 -0.2720 -1.8302
  518MOL0     H69879   5.007   9.166   7.531 -0.6363  0.2427 -0.2025
  518MOL0     H69880   4.883   9.066   7.595  0.6572  2.8608  2.1982
  518MOL0     H69881   5.185   9.040   7.323 -0.0359 -0.5732  1.5865
  518MOL0     H69882   5.187   9.023   7.069 -0.3305  0.6759  0.6835
  518MOL0     H69883   5.070   8.909   6.992 -0.4145  0.5647 -1.8054
  518MOL0     H69884   4.912   9.088   6.970  0.4192 -2.1862  0.1143
  518MOL0     H69885   5.067   9.117   6.887  1.4085  0.7989  1.2402
  518MOL0     H69886   4.973   9.264   7.132  0.1869  1.2949 -0.9253
  518MOL0     H69887   4.961   9.323   6.971 -0.4568 -1.3077 -1.3862
  518MOL0     H69888   5.214   9.274   6.941  1.2578 -2.3350  1.3689
  518MOL0     H69889   5.218   9.266   7.126 -0.6063 -1.9024 -1.1502
  518MOL0     H69890   5.219   9.658   7.007  0.0751  1.6297  3.1886
  518MOL0     H69891   5.500   9.882   6.966  0.2305 -3.7780 -1.2038
  518MOL0     H69892   5.322   9.865   6.994  0.4144 -0.3106 -2.6354
  518MOL0     H69893   5.436   9.898   7.127  1.3617  0.5571 -0.1455
  518MOL0     H69894   5.914   9.776   7.299 -2.5107  2.4110  1.3070
  518MOL0     H69895   6.145   9.902   7.279 -0.4023 -2.3440 -0.4750
  518MOL0     H69896   6.273  10.286   7.127 -1.2215  2.1217  0.7452
  518MOL0     H69897   6.099  10.281   7.150  0.8221  2.3864 -2.6328
  518MOL0     H69898   6.237  10.335   7.362 -0.9324  0.6534 -0.6803
  518MOL0     H69899   6.143  10.186   7.377 -0.2742  0.7350 -1.8642
  518MOL0     H69900   6.334  10.042   7.348  0.5420  0.0472 -0.6877
  518MOL0     H69901   6.352  10.152   7.482  4.1870  0.6380  0.5840
  518MOL0     H69902   6.483  10.186   7.216  0.7694 -2.4253  1.2469
  518MOL0     H69903   6.487  10.310   7.335  1.0485 -0.1024  1.8274
  518MOL0     H69904   6.604  10.030   7.386  0.1650 -0.6899  0.3130
  518MOL0     H69905   6.594  10.167   7.503  0.2184  1.4067 -1.0779
  518MOL0     H69906   6.729  10.222   7.244  0.9580  1.1173 -0.2390
  518MOL0     H69907   6.733  10.312   7.394  0.4467  0.1441  0.7595
  518MOL0     H69908   6.875  10.054   7.295  0.9980  0.6636  0.9187
  518MOL0     H69909   6.842  10.059   7.459  0.2433 -0.2509 -1.2625
  518MOL0     H69910   6.995  10.287   7.320 -1.2526  2.5132  1.0668
  518MOL0     H69911   7.080  10.164   7.407 -0.5062 -1.2760 -1.7204
  518MOL0     H69912   5.962  10.150   6.986 -1.0079 -0.1165  0.9513
  518MOL0     H69913   5.767  10.017   6.986  0.4920  0.4316 -0.4576
  518MOL0     H69914   5.638   9.430   7.119  0.4413 -1.1155 -1.5811
  518MOL0     H69915   5.424   9.317   7.094  1.9812  0.3237  2.4333
  518MOL0     H69916   4.643   8.560   8.169 -1.0104 -0.7702  2.3680
  518MOL0     H69917   4.420   8.504   8.249  2.2351  1.6916  0.3651
  518MOL0     H69918   3.921   8.331   8.053 -0.6302 -2.8573 -1.9638
  518MOL0     H69919   3.708   8.223   8.146  0.1188  1.8939  2.3178
  518MOL0     H69920   3.702   7.958   8.153 -3.5565  2.0981 -1.0339
  518MOL0     H69921   3.708   7.840   8.280 -0.4878 -0.6410 -0.9166
  518MOL0     H69922   3.474   7.915   8.364 -0.2692 -1.8510 -0.3373
  518MOL0     H69923   3.476   7.880   8.192 -2.1643  1.1280  0.8478
  518MOL0     H69924   3.481   8.108   8.119  2.0745 -0.2613  0.5405
  518MOL0     H69925   3.495   8.169   8.284 -1.3108  0.8802 -1.7886
  518MOL0     H69926   3.278   8.195   8.238 -0.0142  0.1490 -0.2375
  518MOL0     H69927   3.278   8.062   8.354  1.4205  1.6640  2.6295
  518MOL0     H69928   3.115   7.866   8.036 -0.1640  2.0120 -0.6067
  518MOL0     H69929   3.958   8.016   8.449  3.7286  2.9691  2.9301
  518MOL0     H69930   4.153   8.152   8.367  0.2805  1.6178  0.4561
  519MOL0     O69931   4.269   8.520   0.914 -0.5550 -0.2839 -0.1826
  519MOL0     C69932   4.352   8.462   0.983 -0.1740 -0.1672 -0.8775
  519MOL0     O69933   4.346   8.324   1.002  0.1719 -0.5118  0.4580
  519MOL0     C69934   4.246   8.248   0.944 -0.0181  1.1115  0.9015
  519MOL0     C69935   4.282   8.140   0.861  0.0542 -0.3389  0.9185
  519MOL0     C69936   4.185   8.068   0.788 -0.8750 -0.4285 -0.0305
  519MOL0     C69937   4.053   8.113   0.776 -0.1199  0.5506 -0.0917
  519MOL0     O69938   3.977   8.048   0.679 -0.7555 -0.2547  0.3389
  519MOL0     C69939   3.853   8.103   0.643  0.6348  0.1930  0.0782
  519MOL0     C69940   3.784   7.999   0.557 -0.0275 -0.4156  0.5292
  519MOL0     C69941   3.647   8.060   0.486 -0.0461  0.6560  0.2247
  519MOL0     C69942   3.559   7.940   0.427 -0.0491  0.5627 -0.1263
  519MOL0     C69943   3.424   7.985   0.394  0.4747  0.3982 -0.8519
  519MOL0     C69944   3.342   7.854   0.364 -0.2674 -0.0333  0.0136
  519MOL0     C69945   3.395   7.792   0.237 -0.0359 -0.3499 -0.2721
  519MOL0     C69946   3.295   7.697   0.160  0.5937  0.4428  0.2610
  519MOL0     N69947   3.259   7.576   0.243  0.0165  0.9111 -0.3703
  519MOL0     C69948   3.347   7.470   0.273 -0.3211 -0.8811 -0.6255
  519MOL0     C69949   3.262   7.371   0.315  0.5549 -0.1581  0.4989
  519MOL0     C69950   3.293   7.231   0.363  0.6418 -0.3777 -0.4965
  519MOL0     C69951   3.414   7.220   0.459 -0.0216  0.7894 -0.0472
  519MOL0     C69952   3.419   7.078   0.518  0.2224 -0.4739  0.6603
  519MOL0     C69953   3.548   7.055   0.592  0.1685  0.1176  1.0815
  519MOL0     O69954   3.526   6.942   0.659  0.2135 -0.1755  0.0351
  519MOL0     C69955   3.618   6.873   0.723  0.4218 -0.5416  0.4259
  519MOL0     C69956   3.755   6.901   0.724  0.0236 -0.7234 -0.1658
  519MOL0     C69957   3.842   6.827   0.802 -0.9404 -0.4848 -0.6742
  519MOL0     C69958   3.985   6.876   0.806 -0.2076 -0.1339  0.4029
  519MOL0     C69959   3.794   6.703   0.857  0.7897 -0.1069 -0.5020
  519MOL0     C69960   3.881   6.617   0.923 -1.1172 -0.5065 -0.8513
  519MOL0     O69961   4.012   6.594   0.872 -0.1498 -0.7584 -0.2616
  519MOL0     C69962   4.094   6.492   0.913 -0.6847 -0.4303 -0.9472
  519MOL0     C69963   4.233   6.517   0.921 -0.2868  0.0184 -0.1159
  519MOL0     C69964   4.329   6.420   0.960 -0.5561 -0.5801  0.2340
  519MOL0     C69965   4.285   6.291   0.964  0.1624 -0.4716 -0.8062
  519MOL0     O69966   4.383   6.197   0.978 -0.2482  0.0982 -0.8194
  519MOL0     C69967   4.351   6.059   0.999 -0.8689 -0.4115 -0.1537
  519MOL0     C69968   4.330   5.985   0.871  0.1207 -0.2677  0.9074
  519MOL0     C69969   4.252   5.854   0.895 -0.3353 -1.0404  0.2066
  519MOL0     C69970   4.195   5.797   0.762 -0.0374 -0.5017 -0.1431
  519MOL0     C69971   4.087   5.700   0.783  0.7076 -0.0213  0.3231
  519MOL0     C69972   4.010   5.675   0.651  0.5620  0.0071  0.7643
  519MOL0     C69973   3.883   5.593   0.682 -0.6154 -0.3482  0.0622
  519MOL0     C69974   3.775   5.686   0.734 -0.0845  0.4405 -0.4028
  519MOL0    Cl69975   3.627   5.604   0.715  0.0082 -0.1521  0.1399
  519MOL0     C69976   4.149   6.265   0.961 -0.4730 -1.4195  1.1950
  519MOL0     C69977   4.052   6.363   0.939  0.3090 -0.5116 -0.0204
  519MOL0     O69978   3.838   6.549   1.014 -0.1865  0.1267  0.2989
  519MOL0     C69979   3.656   6.674   0.849 -0.2531 -0.9155 -0.4201
  519MOL0     C69980   3.572   6.753   0.778  0.3946 -0.2179  0.6931
  519MOL0     N69981   3.134   7.410   0.298  0.8001  0.0544  0.4388
  519MOL0     N69982   3.128   7.530   0.254  0.2180  0.1388 -0.4132
  519MOL0     C69983   4.018   8.206   0.870  0.5064  0.6015 -0.1852
  519MOL0     C69984   4.111   8.281   0.943 -0.2276 -0.8097 -0.6165
  519MOL0     C69985   4.472   8.530   1.035 -0.1762 -0.2364 -0.5321
  519MOL0     C69986   4.588   8.453   1.051 -0.0008  1.2101 -0.0621
  519MOL0     C69987   4.704   8.516   1.112  0.8765 -0.1483  0.6481
  519MOL0     C69988   4.705   8.656   1.128 -0.0095  0.1689  0.3384
  519MOL0     O69989   4.828   8.698   1.189 -0.4713  0.9344 -0.2615
  519MOL0     C69990   4.822   8.822   1.262  0.2306  0.0548 -0.1441
  519MOL0     C69991   4.899   8.924   1.176 -0.3972  0.2209  0.6978
  519MOL0     C69992   4.893   9.063   1.225  0.4134 -0.4219  0.3543
  519MOL0     C69993   4.987   9.176   1.172 -0.2979 -0.0298  0.1872
  519MOL0     C69994   4.993   9.180   1.027  0.4170 -0.9888 -0.9646
  519MOL0     C69995   4.997   9.168   0.906  0.1126  0.6705  0.7140
  519MOL0     C69996   4.595   8.735   1.093  0.4341 -0.4382 -0.1882
  519MOL0     C69997   4.477   8.671   1.056  1.0016 -0.3919  0.2935
  519MOL0     H69998   4.384   8.112   0.837 -0.1085 -1.3423  1.3632
  519MOL0     H69999   4.226   7.992   0.722  0.1484  2.0060 -2.3571
  519MOL0     H70000   3.800   8.124   0.737 -0.9904  0.3871 -0.8484
  519MOL0     H70001   3.868   8.202   0.599 -0.1019  1.2655  2.1252
  519MOL0     H70002   3.852   7.961   0.480  0.0797  0.5420  0.1348
  519MOL0     H70003   3.748   7.919   0.622 -0.3442 -0.8109 -0.1224
  519MOL0     H70004   3.588   8.105   0.566 -0.6336 -1.3350  0.9551
  519MOL0     H70005   3.669   8.135   0.409 -1.8366 -0.0141 -1.0392
  519MOL0     H70006   3.608   7.886   0.345 -0.7499  0.6845 -0.6316
  519MOL0     H70007   3.556   7.855   0.496 -1.2143  0.8459  0.1894
  519MOL0     H70008   3.382   8.044   0.476  0.4741  2.8255 -2.4894
  519MOL0     H70009   3.417   8.058   0.313  1.1287  1.8288  0.3419
  519MOL0     H70010   3.334   7.785   0.449 -1.2354  0.1397  0.0747
  519MOL0     H70011   3.241   7.888   0.337  0.3868  0.5732 -1.7894
  519MOL0     H70012   3.436   7.863   0.164 -0.9863 -1.2078 -1.7102
  519MOL0     H70013   3.477   7.722   0.253  2.6397  1.3860 -4.5826
  519MOL0     H70014   3.348   7.663   0.071  1.1592  0.1065  0.7217
  519MOL0     H70015   3.205   7.752   0.127  0.6272 -1.7666 -4.3632
  519MOL0     H70016   3.455   7.473   0.258 -0.3059 -1.5659 -0.6690
  519MOL0     H70017   3.209   7.185   0.415 -0.6495  0.6777 -1.5772
  519MOL0     H70018   3.319   7.168   0.277 -1.0841 -1.1921 -0.4517
  519MOL0     H70019   3.416   7.290   0.543  1.7803  0.8365 -0.0924
  519MOL0     H70020   3.501   7.240   0.396 -1.6384  0.3505 -2.5460
  519MOL0     H70021   3.392   7.005   0.440 -3.2052  1.1362  0.1527
  519MOL0     H70022   3.338   7.064   0.591  0.3542  2.2029  1.4231
  519MOL0     H70023   3.576   7.138   0.657  0.5268 -1.6691  3.3330
  519MOL0     H70024   3.624   7.035   0.516 -1.6349 -2.2384 -0.2386
  519MOL0     H70025   3.792   6.990   0.675  1.3666 -1.8440 -1.2895
  519MOL0     H70026   4.044   6.822   0.732 -0.5164  2.8590 -2.2540
  519MOL0     H70027   3.994   6.983   0.784  1.9232  0.6118  4.1448
  519MOL0     H70028   4.029   6.858   0.904 -2.1700 -1.8228  1.0497
  519MOL0     H70029   4.271   6.618   0.910 -1.6883  0.3745 -2.2525
  519MOL0     H70030   4.426   6.454   0.993 -0.0159 -2.8415  1.1447
  519MOL0     H70031   4.436   6.008   1.044  0.4576  0.6468 -1.3492
  519MOL0     H70032   4.270   6.045   1.070 -2.6556  2.3389 -1.4524
  519MOL0     H70033   4.258   6.041   0.810  0.9142  3.5146  3.0674
  519MOL0     H70034   4.424   5.973   0.816 -2.2665  0.5581 -3.9015
  519MOL0     H70035   4.164   5.870   0.958  0.4120  0.9561  0.8035
  519MOL0     H70036   4.323   5.789   0.947 -0.8891 -0.3694  1.8647
  519MOL0     H70037   4.166   5.878   0.695  1.3809  0.3082  0.1907
  519MOL0     H70038   4.280   5.744   0.720 -1.1285 -1.9795 -0.5642
  519MOL0     H70039   4.014   5.734   0.857  0.6353 -1.4518  0.9466
  519MOL0     H70040   4.127   5.605   0.819 -0.7422 -0.7487  0.1017
  519MOL0     H70041   3.986   5.768   0.598 -0.1268 -0.0005  1.0513
  519MOL0     H70042   4.074   5.620   0.581 -0.7703  1.4400 -1.7066
  519MOL0     H70043   3.903   5.512   0.753  1.7426 -1.0651 -1.3042
  519MOL0     H70044   3.856   5.545   0.587  0.1271  0.7503 -0.7267
  519MOL0     H70045   3.756   5.774   0.671 -0.2034 -0.9294 -2.3929
  519MOL0     H70046   3.790   5.711   0.839  0.6245 -1.7151  0.0594
  519MOL0     H70047   4.107   6.167   0.979  0.7518 -1.5458  3.7708
  519MOL0     H70048   3.949   6.341   0.916 -0.2778  0.2566  1.6806
  519MOL0     H70049   3.613   6.592   0.906 -2.1544 -2.0088 -3.2101
  519MOL0     H70050   3.467   6.734   0.757  0.6298 -0.6021 -0.1774
  519MOL0     H70051   3.913   8.231   0.873  0.9759  2.6898  0.3834
  519MOL0     H70052   4.063   8.360   1.000  1.0166  0.3691 -1.1429
  519MOL0     H70053   4.591   8.345   1.037  0.9424  1.0303  1.3275
  519MOL0     H70054   4.788   8.456   1.146  2.6355  1.4556 -0.6653
  519MOL0     H70055   4.722   8.858   1.288 -1.7699 -1.1489 -5.0812
  519MOL0     H70056   4.875   8.819   1.358 -2.7698 -2.2703  1.6178
  519MOL0     H70057   4.853   8.927   1.077 -0.6033  0.1104  0.7891
  519MOL0     H70058   5.004   8.896   1.168  0.4164  2.8467  1.4217
  519MOL0     H70059   4.916   9.058   1.332  1.9691 -0.1379  0.0565
  519MOL0     H70060   4.790   9.097   1.216  0.3321 -0.1132  2.0440
  519MOL0     H70061   5.092   9.164   1.199  0.3018 -3.5509 -2.7905
  519MOL0     H70062   4.957   9.274   1.211  1.9701  1.6161 -1.9346
  519MOL0     H70063   5.013   9.162   0.800 -1.0695 -0.5105  0.5767
  519MOL0     H70064   4.602   8.842   1.106 -1.5821 -0.0759 -1.6141
  519MOL0     H70065   4.396   8.741   1.037  1.8713  0.3739 -0.7529
  520MOL0     O70066   8.308   4.230   3.809  0.7484 -0.2260 -0.2013
  520MOL0     C70067   8.226   4.280   3.894 -0.1314  0.0471 -0.4251
  520MOL0     O70068   8.259   4.365   3.984 -0.1605 -0.7926 -0.1726
  520MOL0     C70069   8.390   4.407   3.998 -0.7262  0.2810  0.5735
  520MOL0     C70070   8.501   4.324   4.025 -0.5192 -0.6189 -0.0190
  520MOL0     C70071   8.613   4.374   4.078 -0.2422  0.1447  0.3265
  520MOL0     C70072   8.632   4.505   4.100  0.8115 -0.0762 -0.0443
  520MOL0     O70073   8.752   4.537   4.148  0.5505  0.0041  0.0099
  520MOL0     C70074   8.796   4.678   4.169  0.0800 -0.1221  1.1681
  520MOL0     C70075   8.948   4.671   4.175 -0.1528 -0.6815  0.6703
  520MOL0     C70076   9.019   4.787   4.255  0.9714 -1.5147 -0.0195
  520MOL0     C70077   9.158   4.814   4.191 -0.5453  0.3004  0.5887
  520MOL0     C70078   9.249   4.893   4.286 -0.2326 -0.2347  0.9394
  520MOL0     C70079   9.205   5.035   4.311  0.3963  0.5971  0.3746
  520MOL0     C70080   9.318   5.091   4.393 -0.8616 -0.5049  0.8271
  520MOL0     C70081   9.316   5.245   4.396 -0.2524 -0.4628  0.9758
  520MOL0     N70082   9.203   5.309   4.472 -0.5516  0.5423  0.5704
  520MOL0     C70083   9.093   5.373   4.417  0.2887  0.2511  1.1724
  520MOL0     C70084   9.011   5.387   4.517 -0.2513 -0.0008 -0.1926
  520MOL0     C70085   8.873   5.455   4.505 -0.1295  0.1475  0.5320
  520MOL0     C70086   8.856   5.560   4.613  0.3795 -0.0392  0.1667
  520MOL0     C70087   8.706   5.562   4.634  0.5473 -0.6570  0.2917
  520MOL0     C70088   8.666   5.699   4.679  0.4532  1.0426  0.5679
  520MOL0     O70089   8.522   5.691   4.684  0.2772 -0.4462  1.2066
  520MOL0     C70090   8.464   5.794   4.757 -0.0736  0.8563  1.2011
  520MOL0     C70091   8.519   5.912   4.788  0.7460  0.8342 -0.6390
  520MOL0     C70092   8.441   6.008   4.851  0.5212 -0.4862 -1.6550
  520MOL0     C70093   8.524   6.133   4.885 -0.7936 -0.0959 -0.8257
  520MOL0     C70094   8.300   5.994   4.878  0.2343  0.1278 -0.8571
  520MOL0     C70095   8.230   6.087   4.960 -0.0741 -0.3621 -0.5585
  520MOL0     O70096   8.093   6.102   4.937  0.0854  0.4441 -0.7295
  520MOL0     C70097   8.025   6.199   4.992  0.0617  0.3930 -0.3704
  520MOL0     C70098   7.990   6.198   5.130 -0.0269  0.7467  0.0178
  520MOL0     C70099   7.888   6.294   5.171  0.8120  0.0259  0.2010
  520MOL0     C70100   7.842   6.395   5.085  0.5750 -0.1092 -0.7321
  520MOL0     O70101   7.742   6.473   5.139 -0.5938  0.3701  0.1183
  520MOL0     C70102   7.665   6.555   5.051 -0.2351  0.4138 -0.7011
  520MOL0     C70103   7.537   6.483   4.987  0.2223 -0.2246  0.2975
  520MOL0     C70104   7.413   6.499   5.088  1.6400  0.1941 -0.4281
  520MOL0     C70105   7.348   6.636   5.070 -0.0346 -1.0023  0.0721
  520MOL0     C70106   7.235   6.668   5.168  0.4224  0.5520 -0.8770
  520MOL0     C70107   7.103   6.585   5.147  0.1587 -0.6350  0.0471
  520MOL0     C70108   6.993   6.609   5.256 -0.4452 -0.3424  0.7258
  520MOL0     C70109   6.990   6.759   5.311 -0.0766 -0.3935  0.9289
  520MOL0    Cl70110   6.830   6.819   5.372  0.3714 -0.1380  0.0622
  520MOL0     C70111   7.904   6.408   4.959  0.4882 -0.4088 -1.0676
  520MOL0     C70112   7.987   6.315   4.917  0.1109  0.3657  0.3997
  520MOL0     O70113   8.297   6.130   5.051 -0.6348  0.4556 -0.5818
  520MOL0     C70114   8.248   5.874   4.842  0.6080  0.6311  0.7670
  520MOL0     C70115   8.334   5.779   4.779 -0.4812 -0.9568  0.5489
  520MOL0     N70116   9.067   5.343   4.636  0.0614  0.4521  0.0534
  520MOL0     N70117   9.183   5.314   4.606 -0.3406 -0.1492  0.5633
  520MOL0     C70118   8.536   4.597   4.059 -0.0042  0.0882 -0.2063
  520MOL0     C70119   8.414   4.546   4.017  0.0321  1.2927 -0.4804
  520MOL0     C70120   8.079   4.267   3.885 -0.3079 -0.3262 -0.2955
  520MOL0     C70121   8.026   4.224   3.767  0.4982 -0.2261 -0.1414
  520MOL0     C70122   7.885   4.211   3.755 -0.3989  0.9068  1.1024
  520MOL0     C70123   7.802   4.251   3.851  0.6386  0.7445 -0.4053
  520MOL0     O70124   7.670   4.229   3.824  0.2654 -0.0066  0.0300
  520MOL0     C70125   7.576   4.295   3.913 -0.2445  0.8374  0.6266
  520MOL0     C70126   7.509   4.189   4.004 -0.0142 -0.2007 -0.2991
  520MOL0     C70127   7.455   4.240   4.142 -0.3464 -0.9504 -1.1340
  520MOL0     C70128   7.558   4.296   4.245 -0.2883 -0.8599  0.0755
  520MOL0     C70129   7.678   4.207   4.267 -0.0373  0.4792 -0.2273
  520MOL0     C70130   7.790   4.156   4.278  0.0560 -0.4061  0.1480
  520MOL0     C70131   7.856   4.299   3.972  0.6754  0.3287 -0.0356
  520MOL0     C70132   7.993   4.310   3.994 -0.0673  0.7850  0.5726
  520MOL0     H70133   8.509   4.217   4.010  0.4507 -0.2419 -2.7583
  520MOL0     H70134   8.691   4.308   4.114  1.0888  0.1115 -2.3499
  520MOL0     H70135   8.769   4.731   4.077  4.3156 -2.4581 -1.7511
  520MOL0     H70136   8.752   4.720   4.260  0.2653  0.7132  0.8832
  520MOL0     H70137   8.970   4.583   4.237  4.4867  1.0192  1.9057
  520MOL0     H70138   8.986   4.685   4.074  0.4312  3.8716  1.3119
  520MOL0     H70139   8.955   4.874   4.242 -0.5983 -2.3283  1.8166
  520MOL0     H70140   9.027   4.766   4.362 -1.2012  1.7232  0.9205
  520MOL0     H70141   9.199   4.713   4.177 -0.6758  0.5675 -2.4215
  520MOL0     H70142   9.176   4.852   4.090 -0.1623 -0.9017  0.1880
  520MOL0     H70143   9.282   4.836   4.373  3.0347 -1.7023 -1.0679
  520MOL0     H70144   9.341   4.904   4.229 -0.5992  2.5495  0.7667
  520MOL0     H70145   9.173   5.079   4.216 -2.4512 -1.6315  0.1366
  520MOL0     H70146   9.119   5.014   4.375 -1.7410 -0.2198 -2.5421
  520MOL0     H70147   9.303   5.042   4.490 -0.9636 -2.0053  0.0891
  520MOL0     H70148   9.415   5.061   4.351 -0.9646 -3.0446  2.2268
  520MOL0     H70149   9.301   5.294   4.300  3.1442  2.6606  1.8323
  520MOL0     H70150   9.405   5.284   4.445 -0.8591  3.1512 -0.5046
  520MOL0     H70151   9.087   5.400   4.311  1.6181 -1.4078  0.6286
  520MOL0     H70152   8.857   5.507   4.409  1.0593  0.1588  0.3120
  520MOL0     H70153   8.798   5.376   4.506 -0.5285  0.4964 -0.4929
  520MOL0     H70154   8.901   5.657   4.594 -1.2282  1.2301  2.3598
  520MOL0     H70155   8.892   5.536   4.714 -2.1259  0.1639  1.1859
  520MOL0     H70156   8.663   5.483   4.695 -2.2091 -0.6930 -1.5132
  520MOL0     H70157   8.658   5.552   4.536 -3.5424  0.3324  1.9996
  520MOL0     H70158   8.707   5.773   4.608  1.6876 -0.4620 -0.3553
  520MOL0     H70159   8.718   5.718   4.773  1.9689  1.2130 -0.2659
  520MOL0     H70160   8.626   5.927   4.776  1.1029  0.0327  1.2057
  520MOL0     H70161   8.609   6.155   4.820  0.6449  0.8721  1.2731
  520MOL0     H70162   8.457   6.219   4.889  1.4235  1.7394 -1.5472
  520MOL0     H70163   8.555   6.107   4.987 -2.9190 -1.3796 -0.4372
  520MOL0     H70164   8.032   6.119   5.192 -1.0541  1.2686  1.4080
  520MOL0     H70165   7.836   6.282   5.266  0.3287  0.8124  0.0431
  520MOL0     H70166   7.642   6.643   5.112  1.6893 -0.8692  2.1450
  520MOL0     H70167   7.736   6.599   4.980 -0.2267  0.4074 -0.6968
  520MOL0     H70168   7.510   6.540   4.897  1.5204 -2.1086 -1.3784
  520MOL0     H70169   7.543   6.376   4.966  1.3170 -0.1526  0.1825
  520MOL0     H70170   7.441   6.484   5.193  4.4403  0.6231 -1.0440
  520MOL0     H70171   7.346   6.416   5.061  3.0755  0.0007 -3.8204
  520MOL0     H70172   7.422   6.716   5.073 -3.0556  2.3136 -3.3877
  520MOL0     H70173   7.297   6.650   4.974  0.0192  1.2911  0.3273
  520MOL0     H70174   7.207   6.773   5.158  0.2804  0.5026 -1.0095
  520MOL0     H70175   7.275   6.645   5.267  1.5531 -0.8048 -1.6056
  520MOL0     H70176   7.053   6.606   5.052 -2.7435  2.3941  2.0065
  520MOL0     H70177   7.112   6.476   5.141  2.2012 -0.5904  1.5037
  520MOL0     H70178   7.033   6.545   5.334  1.7053  0.2847  0.2179
  520MOL0     H70179   6.891   6.577   5.232 -0.0924 -1.2252  0.3794
  520MOL0     H70180   7.030   6.827   5.236  0.3871 -0.9813  0.6369
  520MOL0     H70181   7.068   6.776   5.387 -0.0435  1.2294  0.5518
  520MOL0     H70182   7.871   6.481   4.887 -0.9994  0.0469  0.0140
  520MOL0     H70183   8.017   6.334   4.815 -0.3761 -3.5545 -0.6448
  520MOL0     H70184   8.145   5.852   4.867 -0.6408  3.6233 -1.1563
  520MOL0     H70185   8.308   5.674   4.767 -2.4528 -0.6658  1.8884
  520MOL0     H70186   8.542   4.704   4.078 -0.3860 -0.1295  1.2574
  520MOL0     H70187   8.326   4.606   3.994 -0.9563 -0.2671 -0.9337
  520MOL0     H70188   8.092   4.202   3.683  1.4350  1.3007  0.1493
  520MOL0     H70189   7.832   4.157   3.678 -0.1242 -1.6226  2.5549
  520MOL0     H70190   7.615   4.381   3.968 -0.8623  1.8773 -0.5212
  520MOL0     H70191   7.521   4.355   3.841 -0.6018 -0.1368  0.0733
  520MOL0     H70192   7.587   4.114   4.025  0.0707  0.7555  3.6530
  520MOL0     H70193   7.423   4.137   3.961 -2.4181  0.8965  2.8249
  520MOL0     H70194   7.401   4.161   4.194 -1.5525  0.3060 -0.4179
  520MOL0     H70195   7.390   4.326   4.126 -0.1130 -0.3728  0.8577
  520MOL0     H70196   7.505   4.293   4.341 -3.2911 -0.4863 -1.4522
  520MOL0     H70197   7.596   4.397   4.230  3.6269 -2.2998 -0.6806
  520MOL0     H70198   7.889   4.120   4.296  0.2856  0.6589  1.2029
  520MOL0     H70199   7.799   4.327   4.060  1.7558 -5.3881  2.9581
  520MOL0     H70200   8.042   4.345   4.084 -0.2061  0.7334  0.6680
  521MOL0     O70201   2.018   0.787   4.923  0.3195  0.5749  0.7819
  521MOL0     C70202   2.062   0.673   4.883  0.1210  0.3316  0.0020
  521MOL0     O70203   1.993   0.563   4.842 -0.0734 -0.4680 -0.4230
  521MOL0     C70204   1.860   0.590   4.824 -0.5095  0.6793  0.8627
  521MOL0     C70205   1.760   0.565   4.917  0.3439  0.0514 -0.9332
  521MOL0     C70206   1.620   0.581   4.887  0.0161 -0.5224 -0.6323
  521MOL0     C70207   1.596   0.661   4.774 -0.4084  0.4437  0.2287
  521MOL0     O70208   1.471   0.702   4.752  0.5695 -0.6887  0.1481
  521MOL0     C70209   1.404   0.765   4.866  0.8903  0.9677  0.1044
  521MOL0     C70210   1.283   0.855   4.821 -1.2928 -0.2001 -0.4321
  521MOL0     C70211   1.161   0.768   4.762  0.3309 -0.0066 -0.0349
  521MOL0     C70212   1.021   0.820   4.779  1.1761 -0.3842  0.0009
  521MOL0     C70213   0.904   0.730   4.739 -0.2582  0.7925  0.5458
  521MOL0     C70214   0.765   0.800   4.746 -0.3144 -0.3425  0.0242
  521MOL0     C70215   0.656   0.700   4.731 -0.4849  0.2921  1.1082
  521MOL0     C70216   0.646   0.582   4.818 -0.0230  0.5137 -0.0458
  521MOL0     N70217   0.609   0.642   4.946  0.4871 -0.0928 -0.4595
  521MOL0     C70218   0.498   0.715   4.984  0.3416  0.0578  0.0661
  521MOL0     C70219   0.519   0.761   5.112  0.5341 -0.4088  0.2805
  521MOL0     C70220   0.426   0.854   5.185 -0.1724 -0.0123  0.9988
  521MOL0     C70221   0.437   0.845   5.344  0.1261  0.0198 -1.0348
  521MOL0     C70222   0.303   0.827   5.416  0.3285  0.3498 -0.7173
  521MOL0     C70223   0.239   0.692   5.385  0.6009 -0.6769 -0.5588
  521MOL0     O70224   0.144   0.644   5.488 -0.8282  0.3618  0.7285
  521MOL0     C70225   0.195   0.588   5.605  0.3530 -0.9243 -0.5064
  521MOL0     C70226   0.335   0.568   5.639 -0.1460 -0.0724 -0.5478
  521MOL0     C70227   0.373   0.503   5.755  0.0843  0.4294  0.7190
  521MOL0     C70228   0.527   0.496   5.771  0.7040  0.6341 -0.2033
  521MOL0     C70229   0.273   0.454   5.845 -0.0347  0.5479 -0.6011
  521MOL0     C70230   0.304   0.398   5.975  0.1965  1.3699  0.2239
  521MOL0     O70231   0.203   0.406   6.072 -0.0077 -0.7531 -0.4543
  521MOL0     C70232   0.214   0.346   6.188 -0.2291 -0.9309 -0.4373
  521MOL0     C70233   0.235   0.208   6.205 -0.1778  0.2768  0.2176
  521MOL0     C70234   0.234   0.159   6.339 -0.2790 -0.3194 -0.4022
  521MOL0     C70235   0.204   0.239   6.448 -0.3640 -0.1379  0.5895
  521MOL0     O70236   0.213   0.199   6.577 -0.2724 -0.3014 -0.0615
  521MOL0     C70237   0.110   0.113   6.619  0.1386  0.4148 -0.0963
  521MOL0     C70238   0.131   0.080   6.767 -0.4631  0.8842 -0.1834
  521MOL0     C70239   0.012   0.010   6.825 -0.1837  0.2026 -0.9831
  521MOL0     C70240   0.028  -0.019   6.975 -0.4180  0.3203 -1.0235
  521MOL0     C70241  -0.019   0.090   7.074  0.5483 -0.2388 -0.5389
  521MOL0     C70242  -0.169   0.098   7.107  0.1437  0.7364 -0.1397
  521MOL0     C70243  -0.204   0.215   7.187  0.1351 -0.4363  0.3780
  521MOL0     C70244  -0.188   0.204   7.335  0.2544 -0.0808 -1.1418
  521MOL0    Cl70245  -0.021   0.220   7.399  0.0822  0.2361  0.1684
  521MOL0     C70246   0.180   0.375   6.428 -0.1999 -0.7096  0.0064
  521MOL0     C70247   0.186   0.425   6.302  0.1439 -0.0336  0.1944
  521MOL0     O70248   0.418   0.346   5.988 -0.1661  0.3089  0.1044
  521MOL0     C70249   0.144   0.470   5.810 -0.3651  0.9192  0.5484
  521MOL0     C70250   0.101   0.531   5.693 -1.2524  0.5127  0.4257
  521MOL0     N70251   0.646   0.725   5.151  0.4099  0.6618 -0.3045
  521MOL0     N70252   0.693   0.652   5.048  0.2860  0.6523 -0.0292
  521MOL0     C70253   1.690   0.679   4.674 -0.1145  0.3235 -0.8566
  521MOL0     C70254   1.827   0.644   4.699 -0.2213  0.0564 -0.0395
  521MOL0     C70255   2.209   0.650   4.882  0.0662 -0.7429 -0.0658
  521MOL0     C70256   2.261   0.525   4.860 -0.1765  0.4795 -0.6960
  521MOL0     C70257   2.400   0.506   4.850  0.2002  0.2278  0.5694
  521MOL0     C70258   2.482   0.610   4.870 -0.6553 -0.0092 -0.6152
  521MOL0     O70259   2.622   0.597   4.888  0.1970  0.1319  0.0333
  521MOL0     C70260   2.690   0.535   4.779  0.3203 -0.7461 -0.2822
  521MOL0     C70261   2.771   0.418   4.835  0.0138  0.0610 -0.2529
  521MOL0     C70262   2.890   0.387   4.748 -0.0708  0.4479  0.6761
  521MOL0     C70263   3.006   0.323   4.825 -0.2702 -0.0676  0.0989
  521MOL0     C70264   3.091   0.245   4.735  0.9882  0.2355  0.5838
  521MOL0     C70265   3.173   0.175   4.673  0.0138 -0.1782  0.4525
  521MOL0     C70266   2.427   0.731   4.901  0.0000 -0.9283  0.4393
  521MOL0     C70267   2.293   0.762   4.898 -0.4241  0.7044 -0.0671
  521MOL0     H70268   1.780   0.527   5.017  1.2376  0.5908 -0.8999
  521MOL0     H70269   1.544   0.548   4.956 -1.2990 -1.7823 -2.5831
  521MOL0     H70270   1.365   0.687   4.932 -0.6323 -3.1723 -4.9020
  521MOL0     H70271   1.467   0.832   4.924 -0.4219  1.6216  0.8228
  521MOL0     H70272   1.249   0.905   4.912 -0.1173 -2.5626  1.3905
  521MOL0     H70273   1.307   0.931   4.745 -1.7857  1.9405  1.4282
  521MOL0     H70274   1.180   0.752   4.656  2.1315  2.5329 -0.1899
  521MOL0     H70275   1.168   0.678   4.824  2.0114  1.3123  1.8270
  521MOL0     H70276   0.995   0.844   4.883 -0.9274  3.6455 -1.2273
  521MOL0     H70277   1.017   0.904   4.709  2.0662 -2.0698 -2.1634
  521MOL0     H70278   0.930   0.725   4.633  0.3389 -0.3890  0.7378
  521MOL0     H70279   0.917   0.636   4.793 -1.7987 -0.3728 -0.9998
  521MOL0     H70280   0.754   0.854   4.840 -2.0332 -0.2372 -0.2147
  521MOL0     H70281   0.764   0.874   4.664 -0.7530 -2.4110 -1.9418
  521MOL0     H70282   0.558   0.747   4.714  0.6075  1.1178 -6.3832
  521MOL0     H70283   0.667   0.663   4.629  0.0192  1.1563  0.8440
  521MOL0     H70284   0.738   0.525   4.827  0.4842  0.6426 -3.2146
  521MOL0     H70285   0.572   0.518   4.770  1.0415  0.8818 -2.3191
  521MOL0     H70286   0.408   0.731   4.926 -0.1995 -0.2114  0.8177
  521MOL0     H70287   0.458   0.956   5.164 -0.0512 -0.6232 -2.2657
  521MOL0     H70288   0.325   0.848   5.145  0.3421 -0.8924 -0.2251
  521MOL0     H70289   0.498   0.932   5.371 -0.4197 -0.4069  1.8509
  521MOL0     H70290   0.488   0.751   5.365  2.9516  1.5298 -0.5730
  521MOL0     H70291   0.226   0.901   5.392 -1.0916 -1.1308 -0.9212
  521MOL0     H70292   0.333   0.838   5.520  0.2712 -3.5269 -0.1357
  521MOL0     H70293   0.308   0.613   5.355 -0.9649 -1.2111 -2.9476
  521MOL0     H70294   0.179   0.706   5.295  0.4245  0.7311 -0.2508
  521MOL0     H70295   0.405   0.606   5.565  1.1628  0.8291  1.0660
  521MOL0     H70296   0.558   0.401   5.726  3.2238  0.6252  1.3493
  521MOL0     H70297   0.578   0.577   5.718  2.5178  0.6599  1.4386
  521MOL0     H70298   0.547   0.495   5.879 -0.7299  0.2285  0.0783
  521MOL0     H70299   0.261   0.148   6.119 -1.4731 -0.8719  0.5990
  521MOL0     H70300   0.258   0.056   6.364  0.5446  0.0697  0.4987
  521MOL0     H70301   0.011   0.160   6.616  0.8485  2.2175  1.9055
  521MOL0     H70302   0.124   0.020   6.564  0.3331 -0.9694  2.1867
  521MOL0     H70303   0.216   0.012   6.778 -1.9867 -1.0290  0.2095
  521MOL0     H70304   0.148   0.178   6.813 -0.6530  1.9703 -2.3087
  521MOL0     H70305   0.008  -0.087   6.775 -1.0534  0.3349 -1.1901
  521MOL0     H70306  -0.077   0.070   6.804  0.1042  0.4459 -1.5183
  521MOL0     H70307  -0.036  -0.104   6.997  1.7392 -0.9881  0.6173
  521MOL0     H70308   0.126  -0.059   7.003 -1.0252 -0.4911  0.0181
  521MOL0     H70309  -0.003   0.184   7.021 -1.3448 -0.1104 -0.9643
  521MOL0     H70310   0.037   0.080   7.167 -0.8362 -0.8761  0.2573
  521MOL0     H70311  -0.227   0.102   7.015  0.5019  2.0242 -0.3250
  521MOL0     H70312  -0.212   0.014   7.161 -2.9329  1.1169 -1.7711
  521MOL0     H70313  -0.311   0.222   7.164  0.2544 -2.1055 -0.7943
  521MOL0     H70314  -0.155   0.305   7.150 -1.2119  0.0753 -0.2086
  521MOL0     H70315  -0.235   0.109   7.360 -0.5084  0.4075 -0.6890
  521MOL0     H70316  -0.238   0.286   7.386  0.2694 -2.1120  2.4948
  521MOL0     H70317   0.161   0.430   6.519 -2.5487 -2.8479  0.9299
  521MOL0     H70318   0.169   0.532   6.294 -3.5086 -0.2750  2.4968
  521MOL0     H70319   0.065   0.425   5.868 -1.3267 -2.3477 -2.9016
  521MOL0     H70320   0.001   0.567   5.675  0.8148  6.1979 -2.1609
  521MOL0     H70321   1.665   0.731   4.582  1.0224  0.2944 -1.1874
  521MOL0     H70322   1.904   0.678   4.631  0.6053 -1.8128 -0.1093
  521MOL0     H70323   2.212   0.429   4.853 -0.0433  0.2566  1.0273
  521MOL0     H70324   2.442   0.406   4.844  0.5451  0.3228  1.3517
  521MOL0     H70325   2.635   0.514   4.687  0.2407 -0.1406 -0.3736
  521MOL0     H70326   2.767   0.609   4.754  1.6112 -1.0502  2.4349
  521MOL0     H70327   2.706   0.330   4.835  2.0052 -1.6267 -3.8766
  521MOL0     H70328   2.799   0.447   4.937 -1.8112  1.6123 -0.1447
  521MOL0     H70329   2.932   0.467   4.688  4.3781 -2.6173 -0.7992
  521MOL0     H70330   2.852   0.313   4.676  1.6009  0.9958 -0.8424
  521MOL0     H70331   2.966   0.255   4.901 -1.0935  1.0530  0.7035
  521MOL0     H70332   3.075   0.395   4.869  1.9606 -1.0064 -1.6934
  521MOL0     H70333   3.254   0.123   4.626  1.8195  2.6643  0.1414
  521MOL0     H70334   2.495   0.814   4.915  1.3646 -0.7018 -5.0443
  521MOL0     H70335   2.263   0.864   4.919  2.2284  1.8449 -1.2388
  522MOL0     O70336   9.254   2.187   9.450 -0.6104 -0.0901  0.1158
  522MOL0     C70337   9.207   2.300   9.444  0.4717  0.4288 -0.3290
  522MOL0     O70338   9.283   2.411   9.423  0.5708 -0.0061  0.1406
  522MOL0     C70339   9.421   2.396   9.428 -0.4102 -1.1884  0.2460
  522MOL0     C70340   9.479   2.299   9.348 -0.3652 -0.2068 -0.3437
  522MOL0     C70341   9.618   2.277   9.345 -0.2944  0.8895 -0.4158
  522MOL0     C70342   9.706   2.365   9.420 -0.4437  0.8411  0.3894
  522MOL0     O70343   9.840   2.345   9.421  0.1692 -0.0557 -0.7786
  522MOL0     C70344   9.890   2.209   9.426 -0.1092 -0.6570 -0.0736
  522MOL0     C70345  10.011   2.204   9.504  1.0095 -0.2108 -0.0416
  522MOL0     C70346  10.126   2.270   9.431  0.5198 -0.3805 -0.5463
  522MOL0     C70347  10.247   2.285   9.525  0.1974 -0.5312  0.4122
  522MOL0     C70348  10.364   2.345   9.459 -0.2822 -0.8430  0.5166
  522MOL0     C70349  10.412   2.282   9.328 -0.1024 -0.0511  0.1151
  522MOL0     C70350  10.560   2.322   9.301 -0.2948  0.0762 -0.0620
  522MOL0     C70351  10.633   2.239   9.192 -0.0756  0.9752  0.6554
  522MOL0     N70352  10.658   2.322   9.073 -0.3249 -0.1832 -1.0211
  522MOL0     C70353  10.562   2.365   8.983  0.9278 -0.0278  0.2068
  522MOL0     C70354  10.626   2.444   8.896 -0.7981 -0.0869  0.6980
  522MOL0     C70355  10.566   2.514   8.772  0.3420 -0.1523 -0.7659
  522MOL0     C70356  10.549   2.414   8.649  0.0859 -0.2655  0.3043
  522MOL0     C70357  10.676   2.344   8.596  0.6598  0.4269  1.4396
  522MOL0     C70358  10.776   2.439   8.522 -0.3350 -1.0368 -0.7319
  522MOL0     O70359  10.881   2.364   8.468  0.2992  0.1843 -0.1660
  522MOL0     C70360  10.977   2.309   8.545  0.4068 -0.1577 -0.0683
  522MOL0     C70361  10.987   2.335   8.681  0.7852 -0.4574  0.1991
  522MOL0     C70362  11.103   2.293   8.747  1.3315  1.2335  0.2113
  522MOL0     C70363  11.087   2.300   8.896 -0.9370  0.7554  0.3440
  522MOL0     C70364  11.207   2.224   8.677 -0.6458 -0.5524 -0.4531
  522MOL0     C70365  11.316   2.159   8.750 -0.5391 -1.1528  0.4456
  522MOL0     O70366  11.363   2.044   8.709  0.0825  0.5519 -0.1382
  522MOL0     C70367  11.457   1.988   8.793  0.1301 -0.4132  0.2676
  522MOL0     C70368  11.589   1.976   8.761  0.3471 -0.1194  0.3551
  522MOL0     C70369  11.678   1.908   8.844  0.3686  0.0132 -0.5175
  522MOL0     C70370  11.630   1.872   8.970  0.5918 -0.1265  0.1261
  522MOL0     O70371  11.720   1.827   9.057  0.1746 -0.8048  0.8644
  522MOL0     C70372  11.749   1.902   9.175 -0.1470 -0.4837  0.0608
  522MOL0     C70373  11.879   1.852   9.242 -0.5283  0.7730  0.1310
  522MOL0     C70374  11.858   1.707   9.282  0.4138  0.4528 -0.0249
  522MOL0     C70375  11.973   1.666   9.376 -0.7573 -0.9623 -0.3188
  522MOL0     C70376  11.952   1.520   9.416 -1.3472 -0.7227  0.2172
  522MOL0     C70377  11.961   1.409   9.309  0.1993  0.6947 -0.5543
  522MOL0     C70378  11.928   1.266   9.370  0.5118  0.6953  0.6952
  522MOL0     C70379  11.928   1.177   9.250 -0.2013 -0.9183 -0.2819
  522MOL0    Cl70380  11.889   1.001   9.308 -0.3602  0.1145  0.1128
  522MOL0     C70381  11.497   1.885   9.007  0.6790  0.0460 -0.4256
  522MOL0     C70382  11.409   1.937   8.911  0.0224  0.2918  0.0063
  522MOL0     O70383  11.368   2.218   8.840 -0.1046 -0.4578 -0.8079
  522MOL0     C70384  11.188   2.199   8.538  0.1106 -0.8746 -0.4182
  522MOL0     C70385  11.076   2.252   8.479 -0.7191  0.1158 -0.6843
  522MOL0     N70386  10.760   2.451   8.934  0.6116  0.8120 -0.4542
  522MOL0     N70387  10.781   2.381   9.045 -0.7057 -0.6433  0.8367
  522MOL0     C70388   9.644   2.466   9.497 -0.1123  0.0923 -0.5700
  522MOL0     C70389   9.508   2.474   9.501 -0.3322 -0.4518 -0.0921
  522MOL0     C70390   9.054   2.320   9.455 -0.4510 -0.3270  0.8097
  522MOL0     C70391   8.967   2.209   9.442 -1.0083  0.4216  0.0507
  522MOL0     C70392   8.827   2.228   9.449  0.0938 -0.4696  0.2137
  522MOL0     C70393   8.773   2.362   9.465  0.4430  0.1513 -0.9021
  522MOL0     O70394   8.633   2.375   9.460  0.4234 -0.0725 -0.0227
  522MOL0     C70395   8.595   2.513   9.500  0.3765  0.5414  0.2306
  522MOL0     C70396   8.443   2.532   9.474 -0.3933 -0.7761 -0.1247
  522MOL0     C70397   8.350   2.428   9.543 -0.5194 -0.3967 -0.1020
  522MOL0     C70398   8.355   2.427   9.701  0.5613 -0.3607  0.2256
  522MOL0     C70399   8.259   2.322   9.746 -0.8983 -0.7972 -0.8536
  522MOL0     C70400   8.177   2.249   9.784 -0.2155  0.4429 -0.3576
  522MOL0     C70401   8.862   2.463   9.472 -1.1620 -0.3106 -0.1660
  522MOL0     C70402   9.001   2.448   9.473 -0.3228  0.1363 -1.0174
  522MOL0     H70403   9.426   2.224   9.290 -3.2572  1.5093 -0.1139
  522MOL0     H70404   9.651   2.195   9.282 -1.5649  0.1399 -0.1405
  522MOL0     H70405   9.818   2.139   9.468  1.3925 -2.4082 -0.3125
  522MOL0     H70406   9.907   2.178   9.322  3.2531  1.3043 -0.2712
  522MOL0     H70407   9.996   2.234   9.608  0.5094 -1.4049  0.2420
  522MOL0     H70408  10.040   2.099   9.506 -0.3705 -0.6080  1.6040
  522MOL0     H70409  10.144   2.218   9.336  0.9357 -1.9344  0.3448
  522MOL0     H70410  10.090   2.370   9.407 -0.0348 -0.1862  0.9927
  522MOL0     H70411  10.215   2.358   9.600  1.3118 -0.1555  0.5363
  522MOL0     H70412  10.261   2.184   9.565 -1.9985 -0.7265  0.8186
  522MOL0     H70413  10.350   2.451   9.434  1.8758 -1.2826 -3.2027
  522MOL0     H70414  10.443   2.352   9.535  0.6581 -0.2716 -0.4931
  522MOL0     H70415  10.387   2.176   9.336 -0.4310 -0.0472 -0.7764
  522MOL0     H70416  10.350   2.328   9.251 -0.9887  0.6393  1.2105
  522MOL0     H70417  10.559   2.427   9.272  1.4315 -0.6368 -3.0805
  522MOL0     H70418  10.623   2.314   9.390  0.9570 -1.6371 -1.0271
  522MOL0     H70419  10.579   2.150   9.158  2.2511  0.8130 -3.2417
  522MOL0     H70420  10.726   2.196   9.231 -0.5633 -0.2628  0.4884
  522MOL0     H70421  10.459   2.334   8.975  0.9211  0.1854 -0.6732
  522MOL0     H70422  10.472   2.549   8.816  0.4234 -0.9469  0.0598
  522MOL0     H70423  10.625   2.604   8.750  1.3256 -0.9285 -1.4082
  522MOL0     H70424  10.494   2.455   8.563  1.6237 -0.8209 -0.9942
  522MOL0     H70425  10.488   2.335   8.694  0.9788 -1.1324  0.0188
  522MOL0     H70426  10.636   2.272   8.525  0.1954  1.4304  0.6570
  522MOL0     H70427  10.713   2.271   8.668  0.2510 -5.0158 -3.1787
  522MOL0     H70428  10.815   2.523   8.582  1.5791 -0.8300 -2.1878
  522MOL0     H70429  10.728   2.492   8.440  1.7082  0.3023 -1.1500
  522MOL0     H70430  10.904   2.378   8.737 -2.9401 -1.6765 -3.8100
  522MOL0     H70431  11.181   2.299   8.953 -0.5500 -0.3188 -0.2898
  522MOL0     H70432  11.059   2.404   8.917  1.5186  1.7349 -0.8943
  522MOL0     H70433  11.026   2.227   8.949  1.4273  0.2942  2.6452
  522MOL0     H70434  11.629   2.014   8.667 -0.6389  2.0483  0.7506
  522MOL0     H70435  11.784   1.898   8.822  0.0425 -4.4298 -0.9570
  522MOL0     H70436  11.778   2.001   9.140  2.1207 -0.8397  0.7442
  522MOL0     H70437  11.663   1.899   9.243  1.1420 -2.8981  1.7647
  522MOL0     H70438  11.959   1.853   9.167 -2.1135 -1.3129 -1.7413
  522MOL0     H70439  11.899   1.905   9.336  1.1039 -1.6824  1.2840
  522MOL0     H70440  11.867   1.648   9.190  0.4564  3.1101 -1.8409
  522MOL0     H70441  11.759   1.694   9.327  0.2452  0.4182 -0.4000
  522MOL0     H70442  12.070   1.681   9.328 -0.2707  2.3456  1.4204
  522MOL0     H70443  11.978   1.733   9.463 -0.7521 -2.0334  0.5294
  522MOL0     H70444  11.855   1.511   9.467 -2.4783 -1.5975 -1.9480
  522MOL0     H70445  12.025   1.499   9.495  0.1700  1.1796 -0.5971
  522MOL0     H70446  11.883   1.436   9.238  1.8065 -0.5230 -2.9340
  522MOL0     H70447  12.057   1.410   9.256  0.5860  1.8908  0.1460
  522MOL0     H70448  11.835   1.275   9.427  0.4334  1.8402  0.4162
  522MOL0     H70449  12.006   1.230   9.438 -0.1262 -1.2367  0.4682
  522MOL0     H70450  12.026   1.174   9.202 -0.6440  3.6327 -1.9358
  522MOL0     H70451  11.850   1.191   9.175  2.4831 -0.4387 -3.2184
  522MOL0     H70452  11.471   1.881   9.113  2.0734  0.6942 -0.0368
  522MOL0     H70453  11.305   1.943   8.942 -0.0791 -1.2773  0.0794
  522MOL0     H70454  11.266   2.137   8.494  1.1294  0.8578 -1.2024
  522MOL0     H70455  11.072   2.242   8.371 -0.3677  1.1044 -0.7946
  522MOL0     H70456   9.705   2.526   9.563 -3.9622  1.8348  1.7776
  522MOL0     H70457   9.469   2.555   9.563  1.2466 -1.7488  2.8273
  522MOL0     H70458   9.011   2.112   9.424  1.5605  1.2927  1.1846
  522MOL0     H70459   8.766   2.151   9.403  0.3390  0.0975 -1.1144
  522MOL0     H70460   8.626   2.533   9.603  2.8835 -2.3929  0.1991
  522MOL0     H70461   8.625   2.591   9.429 -2.3249 -0.7933 -2.6408
  522MOL0     H70462   8.415   2.536   9.369 -1.8669  3.2605  0.2472
  522MOL0     H70463   8.425   2.634   9.508  1.5995 -0.4289  0.0434
  522MOL0     H70464   8.382   2.331   9.505 -3.1312 -0.4050 -2.5214
  522MOL0     H70465   8.246   2.439   9.512 -0.1613  2.9906 -0.5174
  522MOL0     H70466   8.323   2.522   9.745  0.4134 -0.9151  1.3527
  522MOL0     H70467   8.458   2.412   9.736  1.2004  2.9264  0.1108
  522MOL0     H70468   8.096   2.186   9.815  0.7958 -0.0902  1.3216
  522MOL0     H70469   8.838   2.569   9.472  2.1612  0.5312  0.7085
  522MOL0     H70470   9.064   2.534   9.496  0.0267 -0.5606  0.7284
  523MOL0     O70471   2.642   2.417   7.929 -0.4314  0.2415 -0.1266
  523MOL0     C70472   2.668   2.443   8.051 -0.4306  0.1420  1.1758
  523MOL0     O70473   2.582   2.434   8.154 -0.2951 -0.2237 -0.2996
  523MOL0     C70474   2.454   2.391   8.125  0.2867  0.1005 -0.2705
  523MOL0     C70475   2.391   2.289   8.202 -0.5282 -0.0049 -0.1358
  523MOL0     C70476   2.260   2.246   8.188  0.1314  0.9665  0.2565
  523MOL0     C70477   2.177   2.309   8.093  0.6911 -0.0696  0.4022
  523MOL0     O70478   2.047   2.278   8.060 -0.0814 -0.1486  0.6868
  523MOL0     C70479   1.979   2.191   8.150 -0.0070  0.5426  0.2367
  523MOL0     C70480   1.851   2.143   8.084 -0.2545  0.6763 -0.3729
  523MOL0     C70481   1.879   2.057   7.965  0.2506 -0.8602 -0.6979
  523MOL0     C70482   1.758   1.959   7.941 -0.3671 -0.0496 -0.3084
  523MOL0     C70483   1.797   1.858   7.823  0.9004 -0.4207  0.1192
  523MOL0     C70484   1.668   1.777   7.780 -0.0716  0.0499  0.3923
  523MOL0     C70485   1.701   1.654   7.693  0.2278  0.2305  0.1897
  523MOL0     C70486   1.571   1.602   7.629  0.3925 -0.5030 -0.6756
  523MOL0     N70487   1.553   1.655   7.490 -0.5315  0.6478 -0.9977
  523MOL0     C70488   1.527   1.784   7.460 -1.2329  0.0625 -0.8585
  523MOL0     C70489   1.533   1.798   7.325 -0.2897 -0.8683 -0.6728
  523MOL0     C70490   1.503   1.917   7.232  0.5303  0.1056 -1.5059
  523MOL0     C70491   1.627   1.990   7.202 -0.2342 -0.5680  0.0425
  523MOL0     C70492   1.709   2.052   7.322  0.0253  0.7200  0.5611
  523MOL0     C70493   1.681   2.211   7.344 -0.4314 -0.0422 -0.6822
  523MOL0     O70494   1.765   2.291   7.266  0.2734  0.3036 -0.6315
  523MOL0     C70495   1.892   2.317   7.306 -0.4352 -0.7784 -1.0146
  523MOL0     C70496   1.955   2.239   7.404  0.0098  0.0186 -0.8628
  523MOL0     C70497   2.074   2.270   7.461 -0.7829 -0.0595  0.0580
  523MOL0     C70498   2.115   2.198   7.590 -0.4271 -0.4986 -0.3337
  523MOL0     C70499   2.137   2.390   7.409 -0.1700  0.6599  0.5249
  523MOL0     C70500   2.263   2.441   7.474 -0.2364 -0.1142  0.0436
  523MOL0     O70501   2.278   2.572   7.480  0.3976 -0.1511 -0.0341
  523MOL0     C70502   2.403   2.616   7.531  0.2957 -0.4949 -0.6509
  523MOL0     C70503   2.474   2.717   7.463 -0.7302  0.3939  0.0975
  523MOL0     C70504   2.597   2.770   7.520  0.2908 -0.9668 -0.1083
  523MOL0     C70505   2.646   2.724   7.640 -0.0782  0.8437 -0.5215
  523MOL0     O70506   2.762   2.786   7.680  0.2772  0.8225 -0.2843
  523MOL0     C70507   2.850   2.710   7.765  0.9472 -0.0872  0.5971
  523MOL0     C70508   2.953   2.803   7.828 -0.8090 -0.2747  0.0056
  523MOL0     C70509   3.069   2.811   7.733 -0.1099 -0.0996 -1.1043
  523MOL0     C70510   3.193   2.861   7.804 -0.1614 -0.2181 -0.6981
  523MOL0     C70511   3.316   2.891   7.717  0.4433 -0.6403  0.4488
  523MOL0     C70512   3.422   2.953   7.812 -0.2295 -0.7702  0.6483
  523MOL0     C70513   3.549   2.996   7.731 -0.0252 -0.2841 -0.2350
  523MOL0     C70514   3.645   3.083   7.818  0.5900 -0.2657 -0.2288
  523MOL0    Cl70515   3.769   2.984   7.891 -0.0752  0.1128 -0.0600
  523MOL0     C70516   2.571   2.627   7.702  0.2632  0.2001 -1.2947
  523MOL0     C70517   2.456   2.573   7.655  0.9849  0.0164  0.0324
  523MOL0     O70518   2.343   2.357   7.518  0.9089 -0.2533  0.3415
  523MOL0     C70519   2.078   2.469   7.300  0.1928  0.4340  0.8301
  523MOL0     C70520   1.955   2.425   7.245 -0.1303 -0.4259 -0.6565
  523MOL0     N70521   1.581   1.671   7.277 -0.2070 -0.2153 -0.2684
  523MOL0     N70522   1.582   1.588   7.374  0.1374 -0.7090  0.9592
  523MOL0     C70523   2.233   2.416   8.018  1.1148 -0.3375 -0.3126
  523MOL0     C70524   2.366   2.468   8.032 -0.2913  1.2224  0.1651
  523MOL0     C70525   2.812   2.475   8.083 -0.2777  0.2753  0.4618
  523MOL0     C70526   2.831   2.559   8.201 -0.0023  0.5465 -0.3582
  523MOL0     C70527   2.965   2.603   8.232 -0.3001  0.8282 -0.8838
  523MOL0     C70528   3.071   2.549   8.160 -0.6933 -0.1948 -0.0593
  523MOL0     O70529   3.202   2.573   8.190 -0.4950  0.6610 -0.3753
  523MOL0     C70530   3.252   2.686   8.254 -0.3358 -0.3581  1.1972
  523MOL0     C70531   3.382   2.741   8.192 -0.0358  0.8177  0.5804
  523MOL0     C70532   3.440   2.823   8.308 -0.4656  0.5231  0.8738
  523MOL0     C70533   3.578   2.881   8.263 -0.1603 -0.3539  1.0478
  523MOL0     C70534   3.681   2.782   8.291 -0.0961 -0.0927  0.4925
  523MOL0     C70535   3.753   2.686   8.319  0.4685  0.8507  0.6741
  523MOL0     C70536   3.045   2.472   8.050 -0.1036  1.3522  0.2319
  523MOL0     C70537   2.919   2.431   8.005  0.2022 -0.2869 -0.0577
  523MOL0     H70538   2.463   2.245   8.271 -0.1598 -1.3571 -1.3427
  523MOL0     H70539   2.227   2.156   8.238 -3.5420  3.6410  3.2716
  523MOL0     H70540   2.043   2.102   8.158 -0.8271 -0.0338  0.5253
  523MOL0     H70541   1.953   2.222   8.252 -0.5241 -2.6670  1.1813
  523MOL0     H70542   1.796   2.079   8.155  0.3505 -1.0149 -1.3676
  523MOL0     H70543   1.793   2.228   8.048 -1.0048 -0.0014 -0.8178
  523MOL0     H70544   1.893   2.128   7.883 -0.7876 -0.3788 -0.4770
  523MOL0     H70545   1.973   2.002   7.968  0.7671 -0.0322 -1.5776
  523MOL0     H70546   1.758   1.898   8.032  1.5111 -0.3550 -0.4692
  523MOL0     H70547   1.663   2.012   7.928 -0.5985 -0.4579 -0.2783
  523MOL0     H70548   1.839   1.914   7.740  0.3673  0.8798  0.7056
  523MOL0     H70549   1.871   1.785   7.857  1.0085 -0.1132  0.5505
  523MOL0     H70550   1.604   1.738   7.861 -2.1325 -0.9062 -1.5692
  523MOL0     H70551   1.609   1.840   7.713  4.3831 -0.3091 -4.4547
  523MOL0     H70552   1.778   1.691   7.625  0.0028 -2.0393 -1.4022
  523MOL0     H70553   1.748   1.572   7.749 -0.6023  0.0376  0.6138
  523MOL0     H70554   1.484   1.627   7.690 -0.7288 -4.8596 -0.1511
  523MOL0     H70555   1.572   1.493   7.632  0.3807 -0.4874  1.8826
  523MOL0     H70556   1.519   1.861   7.535  0.6548 -2.2021  1.9031
  523MOL0     H70557   1.452   1.869   7.148  1.6257 -0.9122 -1.6085
  523MOL0     H70558   1.432   1.989   7.274 -2.6679 -3.0082 -1.1513
  523MOL0     H70559   1.610   2.064   7.124 -0.1180 -1.5078 -0.8978
  523MOL0     H70560   1.689   1.911   7.158 -1.5520 -0.6939 -1.6786
  523MOL0     H70561   1.813   2.024   7.304 -0.2446  0.9345 -1.5854
  523MOL0     H70562   1.684   2.004   7.417  2.6029 -1.3327  0.3014
  523MOL0     H70563   1.694   2.238   7.449  0.8606  1.5645 -1.2132
  523MOL0     H70564   1.577   2.242   7.326 -1.2802 -1.5698  1.1850
  523MOL0     H70565   1.901   2.154   7.444 -5.0813  2.5978 -1.4896
  523MOL0     H70566   2.024   2.157   7.635 -0.4201 -0.3456 -0.1805
  523MOL0     H70567   2.194   2.123   7.588 -0.0534 -0.1980  1.4363
  523MOL0     H70568   2.161   2.273   7.654  0.1119  0.1874 -1.5006
  523MOL0     H70569   2.439   2.751   7.366  0.7481 -0.0722 -0.6382
  523MOL0     H70570   2.656   2.847   7.473 -1.3966  0.4494 -0.0361
  523MOL0     H70571   2.803   2.645   7.840  2.5080 -3.2664 -1.0226
  523MOL0     H70572   2.896   2.625   7.715 -3.9139 -1.1236 -2.8167
  523MOL0     H70573   2.906   2.901   7.843  2.6119  1.4767  0.3245
  523MOL0     H70574   2.985   2.773   7.929 -1.6732  1.9522  0.9862
  523MOL0     H70575   3.040   2.877   7.650 -3.0333 -2.0932 -1.8369
  523MOL0     H70576   3.092   2.713   7.691  0.5512 -0.8170  0.8263
  523MOL0     H70577   3.181   2.953   7.861  0.5265 -0.9281  0.6385
  523MOL0     H70578   3.215   2.776   7.870  1.5940 -0.4441 -1.5253
  523MOL0     H70579   3.292   2.960   7.635  1.5939 -1.0616 -0.2673
  523MOL0     H70580   3.354   2.794   7.683  2.7154 -1.0828  3.7669
  523MOL0     H70581   3.382   3.051   7.841 -0.8143  0.2658 -3.1075
  523MOL0     H70582   3.453   2.884   7.891 -0.5608  0.5079  1.9627
  523MOL0     H70583   3.518   3.044   7.638  2.2202 -0.3615 -1.0744
  523MOL0     H70584   3.591   2.901   7.697 -0.1181 -0.3523 -0.1625
  523MOL0     H70585   3.588   3.121   7.904  1.8175 -2.8133  1.8706
  523MOL0     H70586   3.675   3.175   7.769 -1.5663 -0.1475 -1.4164
  523MOL0     H70587   2.598   2.604   7.805 -1.9462  0.3976 -0.6301
  523MOL0     H70588   2.414   2.495   7.717  3.7484 -2.0138 -0.4700
  523MOL0     H70589   2.125   2.560   7.264 -2.7703  0.8999 -2.3569
  523MOL0     H70590   1.921   2.486   7.161 -4.3956 -0.7426  0.5839
  523MOL0     H70591   2.169   2.478   7.957  0.5039  0.4427  1.0818
  523MOL0     H70592   2.413   2.545   7.972 -0.3602  0.6546 -0.6331
  523MOL0     H70593   2.744   2.593   8.256 -1.3395  1.0510 -2.6461
  523MOL0     H70594   2.996   2.664   8.316  0.2030  0.0648 -0.5144
  523MOL0     H70595   3.173   2.760   8.237  1.3861  1.0232 -1.7110
  523MOL0     H70596   3.250   2.680   8.363  2.2713  0.1239  1.3441
  523MOL0     H70597   3.362   2.813   8.112  2.1447  1.3743  0.4559
  523MOL0     H70598   3.450   2.660   8.163 -1.1368 -0.9877  2.6953
  523MOL0     H70599   3.461   2.761   8.396  3.8146  0.0532 -0.2518
  523MOL0     H70600   3.370   2.905   8.327 -1.3729  0.1761 -0.7671
  523MOL0     H70601   3.611   2.971   8.317  2.1575 -0.1406 -0.6329
  523MOL0     H70602   3.566   2.906   8.157  6.3713  1.9431  0.4333
  523MOL0     H70603   3.812   2.598   8.334  1.3164  1.7671  3.3037
  523MOL0     H70604   3.126   2.429   7.991 -0.4132 -0.0793  0.8111
  523MOL0     H70605   2.920   2.359   7.924 -3.0709  3.0278 -3.4103
  524MOL0     O70606   0.707   4.031   9.671  0.2623  0.2095 -0.0597
  524MOL0     C70607   0.742   3.930   9.723 -0.3224  0.4528 -0.1802
  524MOL0     O70608   0.676   3.809   9.733  0.0640  0.4331  0.3053
  524MOL0     C70609   0.575   3.783   9.646  0.0955 -0.0576  0.0447
  524MOL0     C70610   0.592   3.729   9.521 -0.2013 -0.3441  1.0270
  524MOL0     C70611   0.486   3.704   9.431 -0.5940  0.5635  0.0582
  524MOL0     C70612   0.354   3.736   9.467  0.3928  0.3295  0.1463
  524MOL0     O70613   0.249   3.735   9.377 -0.2226  0.2887  0.3286
  524MOL0     C70614   0.270   3.694   9.240  0.3527  0.7900 -0.6375
  524MOL0     C70615   0.137   3.651   9.196  0.6964  0.0832  0.4580
  524MOL0     C70616   0.102   3.528   9.287  0.3516  0.9981 -0.2059
  524MOL0     C70617  -0.005   3.443   9.222 -0.6877 -0.5415 -0.3549
  524MOL0     C70618  -0.142   3.520   9.234 -0.4322 -0.3002 -0.2374
  524MOL0     C70619  -0.210   3.558   9.372  0.0597  0.1106 -0.3724
  524MOL0     C70620  -0.276   3.432   9.436 -0.0748 -0.6235  0.2277
  524MOL0     C70621  -0.406   3.399   9.361 -0.6803 -0.1134 -1.0050
  524MOL0     N70622  -0.523   3.490   9.397  0.5423  1.0414  0.2645
  524MOL0     C70623  -0.618   3.543   9.310  0.2560 -0.2800  0.0243
  524MOL0     C70624  -0.685   3.617   9.393 -0.5322 -0.2031  0.6174
  524MOL0     C70625  -0.797   3.712   9.346  0.5578  0.2097 -0.2970
  524MOL0     C70626  -0.823   3.831   9.436  0.0812  0.1360 -0.1318
  524MOL0     C70627  -0.706   3.890   9.509 -0.6058 -0.4671  0.2899
  524MOL0     C70628  -0.583   3.900   9.412  0.0055  0.5009 -1.0335
  524MOL0     O70629  -0.516   4.018   9.439  0.2312  0.7655  0.5918
  524MOL0     C70630  -0.406   4.013   9.514 -0.8547  0.3807  0.1591
  524MOL0     C70631  -0.291   3.970   9.457 -0.0872  0.3027 -0.1256
  524MOL0     C70632  -0.168   3.977   9.522 -0.1832  0.1938 -0.5603
  524MOL0     C70633  -0.048   3.906   9.463 -0.4722 -0.2058  0.2251
  524MOL0     C70634  -0.152   4.040   9.648  1.0410  0.3256 -0.4185
  524MOL0     C70635  -0.020   4.057   9.725  0.5958  0.0791  0.1786
  524MOL0     O70636   0.097   4.096   9.656 -0.0454 -0.2603 -0.0702
  524MOL0     C70637   0.189   4.171   9.727 -0.1056 -1.2765 -0.2055
  524MOL0     C70638   0.327   4.142   9.738 -1.2943  0.4039 -0.4158
  524MOL0     C70639   0.415   4.228   9.801 -0.3456  0.0882  0.1384
  524MOL0     C70640   0.378   4.335   9.878  1.0329 -0.7816  0.1792
  524MOL0     O70641   0.468   4.421   9.933  0.1427  0.2331  1.4951
  524MOL0     C70642   0.598   4.369   9.972 -0.5528  0.3077  0.3891
  524MOL0     C70643   0.678   4.489  10.033  0.2160 -0.3556 -0.3634
  524MOL0     C70644   0.734   4.591   9.928 -0.6004  0.2852 -0.5841
  524MOL0     C70645   0.803   4.708  10.007  0.1867  0.2045  1.3824
  524MOL0     C70646   0.792   4.837   9.927  0.2029  1.0163  0.3880
  524MOL0     C70647   0.650   4.878   9.914  0.1356  0.0466  0.1420
  524MOL0     C70648   0.640   5.029   9.875  0.0750  0.6183  0.2397
  524MOL0     C70649   0.482   5.076   9.875 -0.6966 -0.1911 -0.5200
  524MOL0    Cl70650   0.467   5.238   9.816  0.0652 -0.3573 -0.0810
  524MOL0     C70651   0.242   4.369   9.871  0.1555  1.0395  0.0447
  524MOL0     C70652   0.142   4.291   9.791 -0.1110 -0.3443  0.0882
  524MOL0     O70653  -0.027   4.036   9.844 -0.5942  0.2361  0.5469
  524MOL0     C70654  -0.273   4.070   9.714  0.8377  0.3068 -0.0221
  524MOL0     C70655  -0.394   4.063   9.650  0.4740  0.5068 -0.0974
  524MOL0     N70656  -0.661   3.573   9.522 -0.8574 -0.4118 -0.2132
  524MOL0     N70657  -0.550   3.510   9.528  0.5024 -0.9209 -0.4904
  524MOL0     C70658   0.338   3.778   9.599 -0.5912 -0.5850  0.3967
  524MOL0     C70659   0.444   3.801   9.691  0.8031 -0.3125  0.2557
  524MOL0     C70660   0.875   3.934   9.794  0.0621  0.1342  0.5489
  524MOL0     C70661   0.966   4.041   9.762 -0.9802  0.7965  0.1370
  524MOL0     C70662   1.099   4.031   9.822 -0.4541  0.1417 -0.6696
  524MOL0     C70663   1.143   3.933   9.907 -0.3265  0.4066 -0.0522
  524MOL0     O70664   1.279   3.932   9.947  0.1285  0.0099  0.2730
  524MOL0     C70665   1.311   3.884  10.075 -0.0833  0.2288 -0.3895
  524MOL0     C70666   1.407   3.771  10.087 -0.3358 -1.2938 -0.5673
  524MOL0     C70667   1.535   3.807  10.000  0.4663  0.3821  0.2203
  524MOL0     C70668   1.609   3.937  10.059  0.1034  0.3951 -0.1062
  524MOL0     C70669   1.746   3.936  10.014  0.1651 -0.1664  0.2210
  524MOL0     C70670   1.858   3.960   9.983 -0.7550  0.5279  0.0683
  524MOL0     C70671   1.049   3.829   9.934  0.4469  0.6600  0.7347
  524MOL0     C70672   0.917   3.843   9.888 -0.1896  0.6559  0.5752
  524MOL0     H70673   0.694   3.711   9.489 -0.5828  2.2004 -2.1209
  524MOL0     H70674   0.516   3.686   9.328 -0.0545  0.9639  0.1428
  524MOL0     H70675   0.310   3.768   9.170  1.0107 -0.8884 -2.1208
  524MOL0     H70676   0.339   3.610   9.243  0.5394  0.8028 -3.0434
  524MOL0     H70677   0.067   3.735   9.199  1.4867  0.8409 -1.1379
  524MOL0     H70678   0.134   3.620   9.091 -0.6001  1.0917  0.1586
  524MOL0     H70679   0.190   3.464   9.294  1.1406  2.1578  0.9485
  524MOL0     H70680   0.072   3.562   9.386 -0.7717  1.5979 -0.7311
  524MOL0     H70681   0.019   3.425   9.116 -1.2407  1.1092 -0.7956
  524MOL0     H70682  -0.022   3.345   9.267  0.3396  0.0820  1.4920
  524MOL0     H70683  -0.132   3.620   9.190 -0.6546  1.4244  3.2726
  524MOL0     H70684  -0.214   3.472   9.167 -0.8675  1.0369 -0.7636
  524MOL0     H70685  -0.133   3.591   9.441  1.3903 -0.7623 -1.3882
  524MOL0     H70686  -0.286   3.636   9.360  1.4030  1.1925 -2.4709
  524MOL0     H70687  -0.203   3.352   9.423  1.6205  0.5593  1.9898
  524MOL0     H70688  -0.283   3.435   9.545  1.7308 -3.3762  0.5137
  524MOL0     H70689  -0.434   3.295   9.378  0.9689 -0.5039 -0.5710
  524MOL0     H70690  -0.386   3.406   9.253 -1.0003 -0.8747 -1.1188
  524MOL0     H70691  -0.630   3.522   9.204 -3.0290  0.1625  0.2060
  524MOL0     H70692  -0.769   3.745   9.246  1.7334 -0.1452 -0.0970
  524MOL0     H70693  -0.885   3.648   9.330  1.2235 -0.5748 -0.8961
  524MOL0     H70694  -0.896   3.801   9.511 -1.9347 -1.1247 -2.4192
  524MOL0     H70695  -0.873   3.910   9.379  0.9380 -0.3798 -1.6811
  524MOL0     H70696  -0.671   3.833   9.595 -0.3007 -3.9409 -1.9202
  524MOL0     H70697  -0.729   3.993   9.535  0.8709  0.4531 -1.7792
  524MOL0     H70698  -0.620   3.923   9.312 -0.6432  4.4223 -0.0560
  524MOL0     H70699  -0.514   3.815   9.411 -1.0323 -0.5870  2.4774
  524MOL0     H70700  -0.290   3.918   9.362 -0.5458  0.6167 -0.3059
  524MOL0     H70701   0.038   3.971   9.445  0.7360 -2.1053 -1.1246
  524MOL0     H70702  -0.012   3.820   9.520  0.0029 -0.0989  0.0860
  524MOL0     H70703  -0.080   3.868   9.366  0.4946 -0.6408  0.0700
  524MOL0     H70704   0.362   4.054   9.686 -1.0273 -0.6571  1.4644
  524MOL0     H70705   0.519   4.198   9.791  0.0047  0.2280  2.5942
  524MOL0     H70706   0.587   4.297  10.054 -1.3688 -3.3544 -2.6300
  524MOL0     H70707   0.646   4.314   9.891 -1.1537 -0.9668  0.8590
  524MOL0     H70708   0.615   4.524  10.115 -1.2696 -1.1887 -1.1014
  524MOL0     H70709   0.766   4.444  10.079  0.5824  1.4813  0.8499
  524MOL0     H70710   0.641   4.618   9.876  0.2677 -0.6330 -2.7092
  524MOL0     H70711   0.798   4.545   9.853 -0.3887  0.9343 -0.8094
  524MOL0     H70712   0.750   4.723  10.101  0.0939 -2.0909  1.7438
  524MOL0     H70713   0.904   4.672  10.029  0.1253 -0.5422  0.5177
  524MOL0     H70714   0.818   4.825   9.821 -5.5778  0.0959 -1.2728
  524MOL0     H70715   0.854   4.917   9.969 -1.3388  1.3984  2.0726
  524MOL0     H70716   0.603   4.805   9.849  1.9048 -1.4575  0.4587
  524MOL0     H70717   0.592   4.858  10.005  0.5938 -3.3137 -0.1835
  524MOL0     H70718   0.671   5.043   9.771 -0.3109 -0.4698 -0.0452
  524MOL0     H70719   0.685   5.094   9.950  0.6455  1.6661 -0.9712
  524MOL0     H70720   0.437   5.056   9.973 -0.2911  3.3464  0.5256
  524MOL0     H70721   0.422   5.014   9.809 -2.5924  2.2860 -1.2364
  524MOL0     H70722   0.212   4.462   9.917  0.3582  0.2129  1.9582
  524MOL0     H70723   0.040   4.326   9.778  0.4200  2.6806  2.7438
  524MOL0     H70724  -0.285   4.105   9.816 -1.0393  1.7602 -0.6647
  524MOL0     H70725  -0.485   4.092   9.702  0.5468 -0.4180  0.5685
  524MOL0     H70726   0.239   3.807   9.632 -1.5423 -3.6030  0.4238
  524MOL0     H70727   0.426   3.833   9.793 -1.1978 -2.5099  0.6747
  524MOL0     H70728   0.942   4.105   9.677  1.3444 -1.1551 -2.1379
  524MOL0     H70729   1.170   4.113   9.813 -0.9866  0.5409 -1.3683
  524MOL0     H70730   1.358   3.964  10.132  2.2627 -0.6898 -0.9155
  524MOL0     H70731   1.219   3.851  10.122 -0.3942  0.2316 -0.9863
  524MOL0     H70732   1.360   3.678  10.053 -0.4812 -0.7944 -1.7675
  524MOL0     H70733   1.433   3.762  10.193  0.5704  1.6966 -0.4449
  524MOL0     H70734   1.510   3.816   9.894 -0.0475 -2.5736 -0.0042
  524MOL0     H70735   1.618   3.736   9.997 -0.4193 -0.6656 -0.6508
  524MOL0     H70736   1.599   3.935  10.168 -0.4016  2.0178 -0.0976
  524MOL0     H70737   1.561   4.025  10.015 -2.1418  0.0339  1.4565
  524MOL0     H70738   1.959   3.987   9.960 -0.1949 -1.2396  0.3787
  524MOL0     H70739   1.077   3.750  10.003  0.7070 -1.5689 -1.7575
  524MOL0     H70740   0.855   3.765   9.930 -1.3359  0.9063 -0.5870
  525MOL0     O70741   1.154   7.011   6.616  0.2549  0.1184 -0.2683
  525MOL0     C70742   1.127   7.128   6.582 -0.8142 -1.0328  0.5764
  525MOL0     O70743   1.008   7.187   6.567 -0.5070  0.3656  0.4036
  525MOL0     C70744   0.894   7.102   6.566  0.4453 -1.0556  0.1885
  525MOL0     C70745   0.897   6.978   6.501  0.4989 -0.4470  0.1345
  525MOL0     C70746   0.796   6.889   6.489  0.2204  0.1337  0.0899
  525MOL0     C70747   0.676   6.914   6.551  0.0335 -1.0403  1.2498
  525MOL0     O70748   0.583   6.817   6.561 -0.1864  0.0158 -0.2643
  525MOL0     C70749   0.496   6.796   6.676 -0.2513 -0.1505  0.1841
  525MOL0     C70750   0.347   6.754   6.629  0.2342  0.2926 -0.8165
  525MOL0     C70751   0.244   6.750   6.743  0.2552  0.3771  0.1543
  525MOL0     C70752   0.101   6.759   6.692  1.0234 -1.0620 -0.1828
  525MOL0     C70753  -0.009   6.740   6.805  0.4987 -0.9636  1.1311
  525MOL0     C70754   0.020   6.826   6.922 -0.3951 -0.6054  0.0524
  525MOL0     C70755  -0.089   6.807   7.030 -0.5306 -0.1114 -1.0049
  525MOL0     C70756  -0.069   6.888   7.159 -0.7484  0.2955  0.6621
  525MOL0     N70757  -0.097   7.030   7.145 -0.0735 -0.2490  0.1599
  525MOL0     C70758  -0.218   7.084   7.174 -0.0917 -0.5042  0.1604
  525MOL0     C70759  -0.196   7.213   7.141  0.8843 -0.6822  0.4561
  525MOL0     C70760  -0.307   7.314   7.118 -0.2126 -0.9033 -0.0443
  525MOL0     C70761  -0.380   7.361   7.252  0.4641  0.1195 -0.0883
  525MOL0     C70762  -0.501   7.439   7.204 -0.8716  0.0611  0.2139
  525MOL0     C70763  -0.575   7.500   7.327 -0.8936 -0.1569  0.9670
  525MOL0     O70764  -0.621   7.388   7.396 -0.5004  0.0667 -0.1397
  525MOL0     C70765  -0.735   7.401   7.477  0.0573  0.2316  0.5008
  525MOL0     C70766  -0.739   7.353   7.612  0.2991 -1.0021 -0.3073
  525MOL0     C70767  -0.850   7.365   7.690  0.9369  0.4248 -0.8249
  525MOL0     C70768  -0.838   7.300   7.823  0.6847  0.3873  0.3928
  525MOL0     C70769  -0.967   7.422   7.642 -0.2218  0.0394 -0.2145
  525MOL0     C70770  -1.092   7.428   7.721 -0.7900  1.0042 -0.4176
  525MOL0     O70771  -1.123   7.327   7.807 -0.3997  1.2302 -0.2680
  525MOL0     C70772  -1.235   7.329   7.885  0.5618  0.2060 -1.1169
  525MOL0     C70773  -1.363   7.331   7.834 -0.7033 -0.4302  0.3744
  525MOL0     C70774  -1.473   7.297   7.918  0.1721 -0.1037 -0.0612
  525MOL0     C70775  -1.457   7.269   8.053  0.0284  0.1219 -0.3962
  525MOL0     O70776  -1.567   7.228   8.130 -0.0835  0.0562 -0.1242
  525MOL0     C70777  -1.702   7.261   8.087 -0.8353 -0.3535  0.2531
  525MOL0     C70778  -1.772   7.142   8.014 -0.2471 -0.2143 -0.0211
  525MOL0     C70779  -1.822   7.038   8.113 -0.1279  0.4952 -0.1791
  525MOL0     C70780  -1.705   6.944   8.164  0.3675 -0.8084  0.5050
  525MOL0     C70781  -1.761   6.832   8.251  0.4365 -0.6327  0.0940
  525MOL0     C70782  -1.661   6.763   8.344 -0.3883  0.5995 -0.0128
  525MOL0     C70783  -1.721   6.651   8.428 -0.2157 -0.5445 -0.7088
  525MOL0     C70784  -1.839   6.692   8.528 -0.6646 -0.0109  0.0073
  525MOL0    Cl70785  -1.918   6.551   8.596 -0.5163  0.6046 -0.3290
  525MOL0     C70786  -1.324   7.278   8.101  0.2957  0.2483 -0.9479
  525MOL0     C70787  -1.215   7.309   8.021  0.8904 -0.2103 -0.0976
  525MOL0     O70788  -1.172   7.515   7.693 -0.5189 -0.1010 -0.1452
  525MOL0     C70789  -0.973   7.465   7.507 -0.8119 -0.8628 -0.1372
  525MOL0     C70790  -0.854   7.450   7.425  0.5357  0.1395 -0.0619
  525MOL0     N70791  -0.068   7.228   7.095  0.7799  0.0024  0.3062
  525MOL0     N70792  -0.009   7.115   7.103  0.5495  0.2998  0.8155
  525MOL0     C70793   0.660   7.044   6.613  0.6495  0.1283 -0.4262
  525MOL0     C70794   0.764   7.142   6.614 -0.6564  0.5120 -0.8954
  525MOL0     C70795   1.243   7.226   6.560  0.8369  0.1723  0.1416
  525MOL0     C70796   1.219   7.343   6.488 -0.0253 -0.6316 -0.2388
  525MOL0     C70797   1.314   7.439   6.459  0.1711 -0.2371  0.2375
  525MOL0     C70798   1.444   7.415   6.508 -0.5593  0.1615  1.5282
  525MOL0     O70799   1.542   7.503   6.463 -0.5178 -0.5558 -0.7475
  525MOL0     C70800   1.680   7.497   6.505  0.5026 -0.1934  0.1333
  525MOL0     C70801   1.700   7.561   6.640 -0.2801 -0.6159 -0.0848
  525MOL0     C70802   1.658   7.716   6.627 -0.1666  0.3847  0.1918
  525MOL0     C70803   1.632   7.774   6.761 -0.4709  0.3495 -0.5726
  525MOL0     C70804   1.764   7.789   6.835 -0.1599  0.3768 -0.4280
  525MOL0     C70805   1.861   7.823   6.894 -0.2298 -0.4637  0.1266
  525MOL0     C70806   1.475   7.299   6.584 -0.3187  0.2737 -0.7343
  525MOL0     C70807   1.373   7.207   6.614  0.1399 -0.1055 -0.0661
  525MOL0     H70808   0.992   6.941   6.464  1.3125 -0.3312  1.9534
  525MOL0     H70809   0.816   6.792   6.445  0.2639 -0.8308  2.0921
  525MOL0     H70810   0.532   6.713   6.738 -1.5405  1.5570  3.4607
  525MOL0     H70811   0.494   6.888   6.735 -1.4399  0.2705 -0.4906
  525MOL0     H70812   0.323   6.837   6.563 -1.4777  3.1664  3.0216
  525MOL0     H70813   0.350   6.660   6.573  0.8197  0.1189 -0.5015
  525MOL0     H70814   0.253   6.660   6.804 -0.6474  2.0895  3.0191
  525MOL0     H70815   0.281   6.825   6.813  1.5560 -0.1519  0.0578
  525MOL0     H70816   0.086   6.857   6.644  0.5913 -0.3932  1.2446
  525MOL0     H70817   0.092   6.677   6.620 -0.1341 -0.7672 -0.3921
  525MOL0     H70818  -0.105   6.764   6.759 -0.5103 -0.9734  3.1246
  525MOL0     H70819  -0.007   6.633   6.828 -2.1608 -1.9386 -2.3118
  525MOL0     H70820   0.120   6.795   6.956 -1.1279 -2.0667  0.9781
  525MOL0     H70821   0.027   6.929   6.887 -1.8404 -1.0801 -1.7809
  525MOL0     H70822  -0.194   6.810   7.000 -1.0488 -0.6619  0.6390
  525MOL0     H70823  -0.083   6.705   7.071 -0.3817 -1.2349 -3.6270
  525MOL0     H70824   0.033   6.870   7.194 -0.7108  1.3731  1.1822
  525MOL0     H70825  -0.136   6.846   7.234 -0.0131  1.7951  2.2396
  525MOL0     H70826  -0.297   7.027   7.222 -0.3710 -2.4113 -2.3041
  525MOL0     H70827  -0.260   7.402   7.073 -0.5161 -0.6644  0.0970
  525MOL0     H70828  -0.377   7.264   7.050 -0.6410 -1.4982  0.8176
  525MOL0     H70829  -0.311   7.422   7.310 -1.5616  2.4061  0.0847
  525MOL0     H70830  -0.413   7.285   7.322  0.0391  1.1096  0.8226
  525MOL0     H70831  -0.573   7.386   7.140 -1.5906  1.4229 -0.1377
  525MOL0     H70832  -0.462   7.516   7.137 -0.0603 -0.0491  0.5478
  525MOL0     H70833  -0.653   7.572   7.301  0.2704  0.9555  0.4706
  525MOL0     H70834  -0.507   7.561   7.386 -0.4158  0.1407  0.1175
  525MOL0     H70835  -0.648   7.306   7.650  0.4073  0.3459  1.2253
  525MOL0     H70836  -0.902   7.211   7.822  0.6922  0.3722  1.1597
  525MOL0     H70837  -0.736   7.269   7.846  0.8426 -0.2685 -1.0412
  525MOL0     H70838  -0.883   7.365   7.897 -0.4105 -0.2723  0.3289
  525MOL0     H70839  -1.378   7.330   7.726  1.2545 -3.5375  0.0293
  525MOL0     H70840  -1.570   7.295   7.870 -0.5515  1.2350  1.2760
  525MOL0     H70841  -1.764   7.290   8.172 -1.2477  0.7167 -0.4077
  525MOL0     H70842  -1.699   7.345   8.018  0.6226  0.6065  1.4253
  525MOL0     H70843  -1.856   7.180   7.954 -0.6266 -2.4918 -1.0167
  525MOL0     H70844  -1.701   7.092   7.948  0.9542 -0.5510  1.4726
  525MOL0     H70845  -1.894   6.978   8.058 -2.0640  3.1853 -0.7656
  525MOL0     H70846  -1.883   7.079   8.194 -1.3112 -1.7318  0.1213
  525MOL0     H70847  -1.659   6.900   8.075 -1.3958 -1.9449  0.1022
  525MOL0     H70848  -1.631   7.004   8.217 -1.6271  0.2157  2.3013
  525MOL0     H70849  -1.806   6.756   8.186 -2.5303 -1.6286  3.0322
  525MOL0     H70850  -1.837   6.879   8.313  1.9275  1.8552  0.1571
  525MOL0     H70851  -1.574   6.721   8.293 -1.7618 -2.7923  0.1553
  525MOL0     H70852  -1.621   6.838   8.413 -3.7415 -0.0300  2.9159
  525MOL0     H70853  -1.641   6.607   8.489  1.1503  0.6918 -1.5500
  525MOL0     H70854  -1.756   6.574   8.358 -4.2431 -2.0442  2.5804
  525MOL0     H70855  -1.918   6.740   8.469 -0.6680  0.6751  0.5557
  525MOL0     H70856  -1.801   6.747   8.614 -2.6871 -0.0363  0.9636
  525MOL0     H70857  -1.309   7.262   8.207 -2.4074  2.2997 -0.1173
  525MOL0     H70858  -1.113   7.320   8.057  1.0412 -1.5239 -0.0687
  525MOL0     H70859  -1.064   7.499   7.458  0.8305  0.9478 -2.1083
  525MOL0     H70860  -0.850   7.468   7.318  1.4017 -0.8204 -0.2104
  525MOL0     H70861   0.562   7.069   6.651  0.1343 -0.6466 -1.1939
  525MOL0     H70862   0.763   7.240   6.662 -2.1414 -1.2234  3.0555
  525MOL0     H70863   1.122   7.370   6.447  1.4749  2.7217 -1.9458
  525MOL0     H70864   1.300   7.523   6.392  2.6177 -1.4474 -1.9982
  525MOL0     H70865   1.712   7.392   6.507 -0.6683 -0.6227  3.7400
  525MOL0     H70866   1.721   7.563   6.428 -1.0935  1.1877  0.4036
  525MOL0     H70867   1.800   7.545   6.681  0.5146  1.6044 -0.9787
  525MOL0     H70868   1.635   7.506   6.708  0.7068  1.5236  2.7504
  525MOL0     H70869   1.564   7.722   6.572  0.1909 -1.5118 -0.6825
  525MOL0     H70870   1.742   7.766   6.577  0.8180 -2.9182 -1.7034
  525MOL0     H70871   1.555   7.729   6.825  0.4604  0.1775  0.4777
  525MOL0     H70872   1.605   7.875   6.731 -1.8259  0.2077  0.0872
  525MOL0     H70873   1.945   7.852   6.953 -1.3864 -0.2846  1.7621
  525MOL0     H70874   1.571   7.277   6.630 -0.3641 -5.4782 -2.5943
  525MOL0     H70875   1.394   7.109   6.657  2.3261  1.0720  1.7601
  526MOL0     O70876   7.234   6.614   2.975  0.1023  0.6054  1.0879
  526MOL0     C70877   7.204   6.713   2.915  0.2024 -0.6504  0.1594
  526MOL0     O70878   7.083   6.783   2.929 -0.3884 -0.3423  0.6267
  526MOL0     C70879   6.974   6.736   3.000  0.1928  0.4098 -0.6551
  526MOL0     C70880   6.957   6.608   3.063 -0.6783 -0.0796  0.3113
  526MOL0     C70881   6.850   6.577   3.148  0.2220  0.3175 -0.3084
  526MOL0     C70882   6.736   6.665   3.149  0.2361 -0.1094 -0.4252
  526MOL0     O70883   6.635   6.651   3.241  0.4883 -0.1738 -0.7163
  526MOL0     C70884   6.510   6.644   3.181 -0.4230  0.4449 -0.4943
  526MOL0     C70885   6.428   6.528   3.227  0.1536  0.3102 -1.3793
  526MOL0     C70886   6.280   6.570   3.232  1.1814 -0.0691  0.1570
  526MOL0     C70887   6.200   6.449   3.295 -0.1964 -0.3404 -0.3523
  526MOL0     C70888   6.063   6.431   3.220 -1.2756 -0.0376  0.2159
  526MOL0     C70889   5.994   6.298   3.258  0.8810 -0.0575  0.6412
  526MOL0     C70890   5.839   6.289   3.211 -0.0312  0.0850 -0.4128
  526MOL0     C70891   5.792   6.144   3.231  0.1050 -0.4842 -0.0730
  526MOL0     N70892   5.664   6.140   3.160 -0.7426  0.3395  0.3286
  526MOL0     C70893   5.631   6.075   3.041 -0.0279  0.8937  0.2259
  526MOL0     C70894   5.500   6.109   3.029  0.8362  0.3748  0.5612
  526MOL0     C70895   5.398   6.059   2.924  0.1436 -0.7235  0.5457
  526MOL0     C70896   5.296   6.163   2.868  1.0752  0.5322  1.0058
  526MOL0     C70897   5.168   6.170   2.952  0.0051 -0.4393 -0.6263
  526MOL0     C70898   5.075   6.294   2.916  0.2773  0.5585  0.5896
  526MOL0     O70899   4.951   6.257   2.981  0.7270 -0.5191  0.3551
  526MOL0     C70900   4.836   6.310   2.935 -0.6096 -0.3491 -0.1512
  526MOL0     C70901   4.827   6.418   2.857  0.5394 -0.6901 -0.2393
  526MOL0     C70902   4.697   6.463   2.815  0.0591  0.2706  0.2447
  526MOL0     C70903   4.684   6.597   2.738 -0.1881  0.1229 -0.8139
  526MOL0     C70904   4.572   6.399   2.868 -0.8271 -0.1326 -0.1695
  526MOL0     C70905   4.438   6.453   2.834  0.4098 -0.2816  0.8336
  526MOL0     O70906   4.401   6.584   2.842  0.8033  0.6512  0.0281
  526MOL0     C70907   4.272   6.625   2.826 -0.4885 -0.9261  0.0365
  526MOL0     C70908   4.221   6.637   2.697  0.0776 -0.6024  0.0346
  526MOL0     C70909   4.102   6.701   2.678 -0.5291 -0.0211  0.4855
  526MOL0     C70910   4.032   6.755   2.795 -0.1063 -0.3615 -0.6493
  526MOL0     O70911   3.925   6.830   2.771  0.1502  0.2442 -0.2613
  526MOL0     C70912   3.802   6.758   2.729 -0.5264  0.2595  0.1269
  526MOL0     C70913   3.676   6.833   2.776 -0.3781 -0.4127  0.7486
  526MOL0     C70914   3.549   6.769   2.725 -0.1729 -0.3621 -0.4359
  526MOL0     C70915   3.478   6.663   2.802 -0.2945  0.1321  0.0814
  526MOL0     C70916   3.428   6.723   2.937  0.2420  0.6536 -0.4477
  526MOL0     C70917   3.325   6.640   3.007  0.2574 -0.8509 -0.8154
  526MOL0     C70918   3.277   6.688   3.148 -1.1912  0.1813 -0.5889
  526MOL0     C70919   3.152   6.782   3.140 -0.4464 -0.5856  0.1092
  526MOL0    Cl70920   3.005   6.703   3.090  0.0406  0.3039  0.1665
  526MOL0     C70921   4.091   6.745   2.923  0.1049 -0.1747  0.0288
  526MOL0     C70922   4.209   6.666   2.942  0.5599  0.6410 -0.4151
  526MOL0     O70923   4.352   6.377   2.810 -0.3109 -0.0073  0.4226
  526MOL0     C70924   4.592   6.282   2.949  0.2679 -0.6673  0.0996
  526MOL0     C70925   4.726   6.250   2.988 -0.2666 -0.1899  0.1364
  526MOL0     N70926   5.462   6.183   3.139  0.5775 -0.1256 -0.6175
  526MOL0     N70927   5.560   6.191   3.221  0.5252 -0.7855 -0.3227
  526MOL0     C70928   6.740   6.784   3.082  0.3481 -0.5721 -0.7156
  526MOL0     C70929   6.855   6.816   3.011  0.0318 -0.0178  0.4144
  526MOL0     C70930   7.321   6.793   2.854  0.4580  0.0926  0.1451
  526MOL0     C70931   7.309   6.931   2.842  0.7563 -0.3834 -0.5464
  526MOL0     C70932   7.420   7.011   2.802 -0.2502  0.0735 -0.2600
  526MOL0     C70933   7.540   6.959   2.773  0.0686  0.4416  0.4005
  526MOL0     O70934   7.663   7.013   2.733  0.7702  0.1842 -0.0391
  526MOL0     C70935   7.675   7.152   2.704 -0.4686  0.4132  0.0744
  526MOL0     C70936   7.560   7.218   2.612 -1.0813 -0.6281 -0.3036
  526MOL0     C70937   7.520   7.140   2.490  0.1259 -0.5281 -0.5066
  526MOL0     C70938   7.638   7.084   2.409  0.4873  0.9012  0.6115
  526MOL0     C70939   7.697   7.198   2.339  0.3730  0.5381  0.0292
  526MOL0     C70940   7.763   7.285   2.289 -0.2984  0.6268  0.3710
  526MOL0     C70941   7.549   6.821   2.780  0.4938 -0.1190 -0.1607
  526MOL0     C70942   7.437   6.736   2.813  0.9362 -0.3649 -0.4242
  526MOL0     H70943   7.034   6.535   3.037 -0.5834  0.4761 -1.0637
  526MOL0     H70944   6.840   6.483   3.201 -0.7388  1.0178  0.8215
  526MOL0     H70945   6.454   6.731   3.219 -0.0723  0.3026  0.3630
  526MOL0     H70946   6.507   6.636   3.072 -3.1259 -5.7942 -0.4160
  526MOL0     H70947   6.448   6.436   3.170  1.2675  0.2709 -0.9465
  526MOL0     H70948   6.453   6.499   3.329  2.8060  0.1320 -2.0209
  526MOL0     H70949   6.272   6.663   3.289  0.9624 -0.9407  1.5975
  526MOL0     H70950   6.230   6.595   3.138  1.2756  2.2212  0.6664
  526MOL0     H70951   6.260   6.360   3.274  1.4622  1.0225 -1.6884
  526MOL0     H70952   6.180   6.469   3.401 -1.3169 -2.4270 -0.1180
  526MOL0     H70953   5.985   6.503   3.248 -1.2471  0.3505 -0.6813
  526MOL0     H70954   6.068   6.443   3.112 -2.7885  1.3207  0.2452
  526MOL0     H70955   6.048   6.218   3.207 -2.0284 -1.1504 -0.9859
  526MOL0     H70956   5.987   6.284   3.367 -0.7668  1.0662  0.7103
  526MOL0     H70957   5.780   6.359   3.270 -1.2141  0.3574 -1.8597
  526MOL0     H70958   5.831   6.329   3.109  1.2382 -1.1174 -1.0240
  526MOL0     H70959   5.790   6.127   3.339  2.2389  3.1761  0.7317
  526MOL0     H70960   5.864   6.079   3.179  1.2895  0.7155  0.0026
  526MOL0     H70961   5.693   6.012   2.978 -1.3955  0.0038 -0.2828
  526MOL0     H70962   5.457   6.015   2.843 -0.6232  1.6822 -1.4270
  526MOL0     H70963   5.343   5.981   2.977  0.7220 -2.0918 -0.7961
  526MOL0     H70964   5.278   6.125   2.767  2.8034  1.1597  0.4215
  526MOL0     H70965   5.344   6.261   2.863  2.3549 -0.1590 -2.4784
  526MOL0     H70966   5.195   6.180   3.058  2.4634 -3.6027 -0.8085
  526MOL0     H70967   5.113   6.078   2.928 -1.0083  0.0670 -0.3223
  526MOL0     H70968   5.063   6.296   2.807 -1.1510  1.2517  0.7369
  526MOL0     H70969   5.108   6.392   2.951 -0.0799  0.7506  0.3958
  526MOL0     H70970   4.908   6.486   2.837 -0.8369  0.6713 -1.4140
  526MOL0     H70971   4.678   6.686   2.800  2.9983  0.5072 -0.8997
  526MOL0     H70972   4.766   6.602   2.666 -0.1077  2.1839 -0.6323
  526MOL0     H70973   4.595   6.578   2.677 -0.4908 -3.4562  0.4589
  526MOL0     H70974   4.279   6.605   2.611 -1.6620 -4.1293 -0.0198
  526MOL0     H70975   4.079   6.711   2.573  2.3655  1.5554 -0.1154
  526MOL0     H70976   3.802   6.743   2.621 -0.1466  0.4075  0.1039
  526MOL0     H70977   3.812   6.663   2.782  0.1893  0.3236  0.1137
  526MOL0     H70978   3.664   6.851   2.883 -2.7313  5.8981 -0.1783
  526MOL0     H70979   3.687   6.939   2.751  0.6638 -0.2925  1.6759
  526MOL0     H70980   3.568   6.724   2.627 -2.7522 -3.7286  0.4003
  526MOL0     H70981   3.476   6.845   2.697 -1.7230 -1.8435 -0.6429
  526MOL0     H70982   3.384   6.633   2.754 -1.0626  2.6279 -0.1092
  526MOL0     H70983   3.540   6.575   2.823 -4.7158 -3.0897  1.1328
  526MOL0     H70984   3.385   6.823   2.928 -2.2685 -0.3437 -0.3826
  526MOL0     H70985   3.510   6.734   3.008  0.3495 -2.0659 -0.0644
  526MOL0     H70986   3.237   6.646   2.943  0.1500 -1.6282 -0.7388
  526MOL0     H70987   3.365   6.538   3.013  1.3209 -0.6230 -2.9502
  526MOL0     H70988   3.368   6.731   3.190 -0.3063 -3.5749  1.8529
  526MOL0     H70989   3.247   6.596   3.199 -2.9526  2.1117  2.0627
  526MOL0     H70990   3.171   6.870   3.078 -1.1410 -1.0537 -0.7860
  526MOL0     H70991   3.127   6.827   3.236  0.7951 -1.0081  0.6550
  526MOL0     H70992   4.049   6.795   3.010 -1.0390 -1.0486  0.0167
  526MOL0     H70993   4.257   6.644   3.037 -0.6544  0.9832  0.3015
  526MOL0     H70994   4.503   6.237   2.992 -1.6848  0.8291 -2.1224
  526MOL0     H70995   4.737   6.169   3.059  2.6585  2.9535  3.5985
  526MOL0     H70996   6.659   6.855   3.089  2.4772  2.2282 -2.3457
  526MOL0     H70997   6.846   6.914   2.965  0.3843  0.4591  1.3238
  526MOL0     H70998   7.216   6.981   2.867  1.0971 -0.3176  0.6594
  526MOL0     H70999   7.421   7.119   2.805 -0.7211  0.0679  0.3819
  526MOL0     H71000   7.689   7.218   2.790 -0.5914  1.1029 -0.4226
  526MOL0     H71001   7.768   7.141   2.647 -1.1969 -0.9840 -0.9240
  526MOL0     H71002   7.605   7.305   2.563 -0.5149 -1.1390 -0.7149
  526MOL0     H71003   7.479   7.262   2.670 -0.6528  1.6609 -1.3467
  526MOL0     H71004   7.459   7.218   2.443 -3.0727 -0.5515  3.0674
  526MOL0     H71005   7.446   7.068   2.526  0.0845 -0.3779 -0.2845
  526MOL0     H71006   7.608   7.000   2.345  1.4256  0.0960  1.2095
  526MOL0     H71007   7.710   7.039   2.477 -0.6593 -0.4871  0.9809
  526MOL0     H71008   7.803   7.376   2.249 -1.5120  0.8716 -0.3333
  526MOL0     H71009   7.648   6.776   2.773  1.1033  1.2595 -0.5639
  526MOL0     H71010   7.449   6.629   2.818  1.6142 -0.2134  2.4857
  527MOL0     O71011  10.326   8.592   4.688 -0.2421  0.6072 -0.6960
  527MOL0     C71012  10.334   8.614   4.809 -0.3049 -0.7809 -0.1736
  527MOL0     O71013  10.393   8.726   4.857  0.0854  0.4595 -0.0115
  527MOL0     C71014  10.459   8.808   4.773  0.9257  0.4822  0.4873
  527MOL0     C71015  10.590   8.841   4.787  0.6028  0.1849 -0.0057
  527MOL0     C71016  10.655   8.943   4.718  0.0962  0.3945 -0.0550
  527MOL0     C71017  10.579   9.018   4.624 -0.6874 -0.6546 -0.1589
  527MOL0     O71018  10.637   9.127   4.574  0.2095 -0.3334 -0.4557
  527MOL0     C71019  10.636   9.128   4.431  0.3016 -0.1007  0.2231
  527MOL0     C71020  10.735   9.241   4.389  0.0853  0.8164  0.4444
  527MOL0     C71021  10.890   9.219   4.402  0.6361 -0.5893 -0.0149
  527MOL0     C71022  10.924   9.075   4.379  0.2327  0.1324 -0.2094
  527MOL0     C71023  11.051   9.071   4.302  0.3778 -0.0415 -0.2064
  527MOL0     C71024  11.167   9.113   4.390 -0.4943 -0.4686 -0.5161
  527MOL0     C71025  11.310   9.105   4.325  0.9931  0.2767 -0.1192
  527MOL0     C71026  11.336   9.212   4.220 -0.4086  0.2188 -0.5398
  527MOL0     N71027  11.355   9.345   4.272  0.4532 -0.4948 -0.5051
  527MOL0     C71028  11.473   9.384   4.329 -0.3962 -0.4010  0.0612
  527MOL0     C71029  11.445   9.501   4.398 -0.1741  0.4019  0.8236
  527MOL0     C71030  11.546   9.584   4.470 -0.8762 -0.4557  0.0449
  527MOL0     C71031  11.662   9.607   4.377 -1.5329 -0.1411  0.5477
  527MOL0     C71032  11.755   9.723   4.421  0.4954  0.2191  0.3778
  527MOL0     C71033  11.884   9.677   4.493 -0.5741  0.2833  0.0425
  527MOL0     O71034  11.977   9.601   4.418 -0.4607  0.7603  0.2998
  527MOL0     C71035  12.099   9.558   4.467 -0.1196 -0.1294  0.3653
  527MOL0     C71036  12.143   9.592   4.590  0.0163  0.5399 -0.3705
  527MOL0     C71037  12.266   9.552   4.639  0.4285 -0.3343 -0.8912
  527MOL0     C71038  12.296   9.594   4.782  0.1472  0.2138  0.0185
  527MOL0     C71039  12.360   9.478   4.554  0.1029  0.5970 -0.3244
  527MOL0     C71040  12.501   9.456   4.593  0.9558  0.1136  0.5253
  527MOL0     O71041  12.568   9.378   4.502  0.6250 -0.2956 -0.1017
  527MOL0     C71042  12.686   9.320   4.536 -0.4129  0.1488 -0.2535
  527MOL0     C71043  12.690   9.182   4.545  0.5994 -0.3043  0.1887
  527MOL0     C71044  12.807   9.109   4.571  0.5571  0.1785  0.4353
  527MOL0     C71045  12.927   9.169   4.591  0.5835 -0.7385 -0.5586
  527MOL0     O71046  13.041   9.091   4.600 -0.6072  0.7397  0.0116
  527MOL0     C71047  13.158   9.151   4.639 -0.2835  0.2089  0.1255
  527MOL0     C71048  13.267   9.054   4.613 -0.1168  0.1337 -0.1035
  527MOL0     C71049  13.405   9.105   4.663  0.7885  0.9108  0.9891
  527MOL0     C71050  13.502   8.992   4.680 -0.8810  0.4465  0.3812
  527MOL0     C71051  13.644   9.055   4.677 -0.3291 -0.7147 -0.7264
  527MOL0     C71052  13.689   9.105   4.535  0.2144 -0.1056  0.4944
  527MOL0     C71053  13.810   9.205   4.558 -0.1763  0.3196 -0.5456
  527MOL0     C71054  13.783   9.336   4.645  0.0036  0.7546  0.0347
  527MOL0    Cl71055  13.895   9.459   4.582 -0.2114  0.0512  0.5562
  527MOL0     C71056  12.925   9.312   4.582  0.1448 -0.4683 -0.5376
  527MOL0     C71057  12.808   9.387   4.553  1.1411 -0.3584 -0.0578
  527MOL0     O71058  12.556   9.516   4.683 -0.0199 -0.4728  0.1937
  527MOL0     C71059  12.305   9.431   4.433 -0.2581 -0.2885  0.4189
  527MOL0     C71060  12.178   9.468   4.392 -0.5231  0.7691 -0.4224
  527MOL0     N71061  11.310   9.521   4.379 -0.5453  0.2019  0.6577
  527MOL0     N71062  11.257   9.437   4.305  0.2271 -0.8570  0.3782
  527MOL0     C71063  10.443   8.986   4.608 -0.6190  0.1260 -0.3223
  527MOL0     C71064  10.386   8.880   4.674 -0.0797 -0.1068 -0.8859
  527MOL0     C71065  10.272   8.519   4.893 -0.6652 -0.2499  0.3137
  527MOL0     C71066  10.168   8.433   4.856  0.4665 -1.1437  0.4610
  527MOL0     C71067  10.093   8.359   4.939  0.0727 -0.2407 -0.2552
  527MOL0     C71068  10.128   8.367   5.075 -0.3682  0.0460 -0.3998
  527MOL0     O71069  10.051   8.305   5.170  0.4742 -0.4059  1.0867
  527MOL0     C71070   9.920   8.262   5.121  0.7507  0.3787 -0.8744
  527MOL0     C71071   9.822   8.221   5.242  0.2581 -0.2504  0.6030
  527MOL0     C71072   9.777   8.348   5.308  0.1689  0.6620  0.8489
  527MOL0     C71073   9.680   8.326   5.418 -0.1225 -0.0497 -1.0581
  527MOL0     C71074   9.622   8.455   5.454  0.9054 -0.0661  0.5334
  527MOL0     C71075   9.585   8.557   5.499 -0.2897 -0.7855  0.6165
  527MOL0     C71076  10.242   8.435   5.115  0.0973  0.0576 -0.6135
  527MOL0     C71077  10.310   8.520   5.027 -0.3540  0.2316 -0.2628
  527MOL0     H71078  10.649   8.777   4.853 -2.0955 -2.3248  0.1680
  527MOL0     H71079  10.762   8.956   4.721  0.0256  1.2459 -0.6678
  527MOL0     H71080  10.656   9.028   4.392 -0.5998  0.2741 -1.2577
  527MOL0     H71081  10.537   9.169   4.411  2.2584  6.0135  0.9647
  527MOL0     H71082  10.721   9.263   4.283  0.3998 -0.6917  0.0658
  527MOL0     H71083  10.714   9.335   4.442 -1.0044 -0.1340  1.7847
  527MOL0     H71084  10.937   9.294   4.338 -2.4646  3.5637  2.0840
  527MOL0     H71085  10.917   9.247   4.504 -3.6171 -2.2960  1.8176
  527MOL0     H71086  10.932   9.030   4.478  2.6009  0.5340 -0.1542
  527MOL0     H71087  10.851   9.015   4.324 -1.8034  0.8311  1.5963
  527MOL0     H71088  11.061   8.968   4.266  0.2682 -0.5588  1.1981
  527MOL0     H71089  11.042   9.137   4.215 -2.6313 -0.2995 -0.1773
  527MOL0     H71090  11.172   9.213   4.434  1.7011 -0.1593 -1.3242
  527MOL0     H71091  11.165   9.042   4.473 -0.9087 -0.3997 -0.4619
  527MOL0     H71092  11.383   9.113   4.405  0.0836 -0.8700  0.8661
  527MOL0     H71093  11.327   9.007   4.280  2.2488  0.9278 -1.1303
  527MOL0     H71094  11.254   9.207   4.148 -0.5742 -2.4639 -0.2880
  527MOL0     H71095  11.430   9.199   4.165 -0.7442  0.7911 -1.2697
  527MOL0     H71096  11.561   9.320   4.332 -2.4246 -3.4838 -0.8909
  527MOL0     H71097  11.484   9.668   4.501  0.7386  1.0503 -0.6919
  527MOL0     H71098  11.586   9.533   4.558  0.2330 -0.2464 -0.3293
  527MOL0     H71099  11.626   9.627   4.275 -0.5326 -3.9901 -0.7263
  527MOL0     H71100  11.713   9.511   4.363  0.0156  1.0891 -3.8053
  527MOL0     H71101  11.710   9.804   4.480 -0.6557 -0.9077  1.0992
  527MOL0     H71102  11.774   9.784   4.332 -0.0396  0.8645  0.6872
  527MOL0     H71103  11.865   9.620   4.584 -1.9394  0.0787 -0.3464
  527MOL0     H71104  11.932   9.773   4.515 -2.0795  1.1778 -0.3839
  527MOL0     H71105  12.087   9.667   4.646 -1.4757 -0.3308 -0.6693
  527MOL0     H71106  12.201   9.580   4.834  0.3137  2.1935  0.9203
  527MOL0     H71107  12.377   9.539   4.831  1.4379  0.8651 -1.2985
  527MOL0     H71108  12.332   9.697   4.790 -1.5946  0.8854 -0.3866
  527MOL0     H71109  12.598   9.131   4.520  0.0475 -0.0041  1.5694
  527MOL0     H71110  12.804   9.001   4.559  1.6596  0.1795  0.0250
  527MOL0     H71111  13.183   9.244   4.586  0.7921  0.4762  1.0475
  527MOL0     H71112  13.159   9.180   4.745  3.1378 -0.8413  0.5140
  527MOL0     H71113  13.236   8.965   4.669 -0.6007  0.2441 -0.1895
  527MOL0     H71114  13.269   9.026   4.508  1.8106  3.0636 -0.9714
  527MOL0     H71115  13.394   9.154   4.761  0.2981  2.8505  0.0124
  527MOL0     H71116  13.433   9.181   4.590  0.0449  0.9120  0.7026
  527MOL0     H71117  13.478   8.936   4.770 -1.7781 -0.9338 -0.6785
  527MOL0     H71118  13.488   8.921   4.598  1.5079 -0.5776  0.7809
  527MOL0     H71119  13.719   8.987   4.717 -1.3053 -0.7028  1.2427
  527MOL0     H71120  13.636   9.138   4.747 -2.9722 -0.2783 -1.4240
  527MOL0     H71121  13.715   9.021   4.470  1.6700 -1.2215  2.3801
  527MOL0     H71122  13.609   9.165   4.492  2.0693  2.3409  0.2492
  527MOL0     H71123  13.844   9.244   4.462  1.9933 -1.1484 -0.4372
  527MOL0     H71124  13.889   9.147   4.607 -0.4769  0.7811  0.5162
  527MOL0     H71125  13.800   9.323   4.752  2.9964  0.5378 -0.3921
  527MOL0     H71126  13.682   9.374   4.622 -0.6429 -0.7530  0.2278
  527MOL0     H71127  13.015   9.368   4.604 -0.3464  0.6275 -1.2429
  527MOL0     H71128  12.802   9.494   4.535 -3.2773 -0.9047 -3.2296
  527MOL0     H71129  12.369   9.381   4.361  1.1864  1.3924  0.4737
  527MOL0     H71130  12.146   9.432   4.294 -0.2172  1.5562 -0.8255
  527MOL0     H71131  10.371   9.032   4.541  0.2725 -1.3812 -2.4433
  527MOL0     H71132  10.282   8.855   4.651  0.7575 -2.8042 -2.2252
  527MOL0     H71133  10.135   8.445   4.753 -1.0431  3.1516  1.2178
  527MOL0     H71134  10.008   8.303   4.900 -0.6789  0.8362 -0.2013
  527MOL0     H71135   9.864   8.338   5.065  0.8637  0.0191 -1.4904
  527MOL0     H71136   9.929   8.174   5.056 -0.2493 -0.0952 -0.3968
  527MOL0     H71137   9.867   8.146   5.308  1.0075 -1.3209 -1.0593
  527MOL0     H71138   9.732   8.174   5.202 -0.4085  0.8348  0.7763
  527MOL0     H71139   9.729   8.417   5.238 -0.3458 -0.0326  0.5044
  527MOL0     H71140   9.870   8.398   5.340  1.4420  0.5101 -2.2756
  527MOL0     H71141   9.727   8.281   5.506 -1.5175 -0.8801 -0.6986
  527MOL0     H71142   9.599   8.260   5.386 -0.2215  0.9401 -2.9871
  527MOL0     H71143   9.533   8.641   5.540 -3.3139 -2.1731 -0.0963
  527MOL0     H71144  10.269   8.436   5.220 -2.2516 -1.0969  0.0693
  527MOL0     H71145  10.382   8.583   5.079  1.5437 -0.3091 -2.0857
  528MOL0     O71146   7.966   7.506   4.382 -0.2804  0.4676 -0.3156
  528MOL0     C71147   7.923   7.456   4.489  0.6506 -0.1224  0.0128
  528MOL0     O71148   7.998   7.404   4.591  0.6076  0.0256 -0.3049
  528MOL0     C71149   8.134   7.402   4.582  0.4639 -0.7119  0.0854
  528MOL0     C71150   8.200   7.362   4.473 -0.7038  0.2816  0.3905
  528MOL0     C71151   8.335   7.389   4.469 -0.3997 -0.0342 -0.6330
  528MOL0     C71152   8.410   7.443   4.582 -0.1474  0.1121  0.0406
  528MOL0     O71153   8.544   7.471   4.577 -0.3353 -0.5378 -0.0635
  528MOL0     C71154   8.612   7.487   4.454  0.3285  0.5054 -0.3393
  528MOL0     C71155   8.763   7.530   4.481  0.3214  0.3465  0.0335
  528MOL0     C71156   8.767   7.661   4.549  0.0343 -0.4074 -0.4646
  528MOL0     C71157   8.919   7.713   4.540 -0.2635 -0.1183 -0.1410
  528MOL0     C71158   8.940   7.847   4.611  0.2794  1.0836  0.2226
  528MOL0     C71159   9.084   7.905   4.595  0.0249 -0.9780  0.2244
  528MOL0     C71160   9.089   8.036   4.672 -0.4051 -0.4108  0.0764
  528MOL0     C71161   9.232   8.101   4.670 -0.0057  0.7477 -0.0779
  528MOL0     N71162   9.224   8.233   4.702  0.4367  0.0505 -0.2221
  528MOL0     C71163   9.210   8.287   4.829  0.8549 -0.6383  0.2469
  528MOL0     C71164   9.226   8.422   4.800 -0.4058  0.1065 -0.2993
  528MOL0     C71165   9.250   8.532   4.902  0.0421 -0.6556 -1.0233
  528MOL0     C71166   9.167   8.533   5.033  0.4413  0.1292  0.5066
  528MOL0     C71167   9.211   8.635   5.136 -0.4301  0.7274 -0.3276
  528MOL0     C71168   9.137   8.627   5.267 -0.4664  0.7355 -0.5650
  528MOL0     O71169   9.187   8.527   5.355  0.5583 -0.4374 -0.4629
  528MOL0     C71170   9.142   8.519   5.480 -0.3309  0.3304 -0.0176
  528MOL0     C71171   9.231   8.441   5.562  0.1805  0.1212  0.3886
  528MOL0     C71172   9.216   8.412   5.702 -0.0759  0.0251 -0.2649
  528MOL0     C71173   9.313   8.327   5.785  0.2554  0.1225 -0.0051
  528MOL0     C71174   9.099   8.460   5.758  0.8528  0.3635 -0.0244
  528MOL0     C71175   9.062   8.449   5.904  0.4817 -0.3149  0.7239
  528MOL0     O71176   9.149   8.499   5.999 -0.5293 -0.1757 -0.7292
  528MOL0     C71177   9.104   8.500   6.124 -0.7329 -0.3846 -1.0002
  528MOL0     C71178   9.119   8.392   6.213 -0.3023  0.1657  0.6850
  528MOL0     C71179   9.080   8.407   6.345  0.4853 -0.5163 -0.1221
  528MOL0     C71180   9.008   8.524   6.381 -1.1046 -0.7847  0.8118
  528MOL0     O71181   8.971   8.549   6.505  0.5799  0.0208  0.0989
  528MOL0     C71182   8.832   8.521   6.535  0.7013 -0.2473  0.2348
  528MOL0     C71183   8.811   8.392   6.598  0.8736 -0.4221 -0.8370
  528MOL0     C71184   8.692   8.383   6.694 -0.1105  1.3518  0.4264
  528MOL0     C71185   8.581   8.316   6.616  0.3327  0.5757  0.5421
  528MOL0     C71186   8.446   8.309   6.694  0.2188  0.5004  0.1844
  528MOL0     C71187   8.345   8.235   6.609 -0.8917  0.3975 -0.1841
  528MOL0     C71188   8.213   8.241   6.680 -0.5453 -0.2429 -0.3632
  528MOL0     C71189   8.126   8.371   6.692 -0.2400 -0.3970 -1.0898
  528MOL0    Cl71190   7.950   8.328   6.755  0.3461  0.2472  0.5059
  528MOL0     C71191   8.991   8.630   6.294 -0.2143 -0.6193 -0.5726
  528MOL0     C71192   9.052   8.624   6.167  0.0419  0.0532 -0.2645
  528MOL0     O71193   8.946   8.401   5.922  0.4356 -0.6951  0.5772
  528MOL0     C71194   9.001   8.532   5.682  0.2126  0.6155  0.6222
  528MOL0     C71195   9.027   8.562   5.544  0.4147 -1.1942  0.2205
  528MOL0     N71196   9.253   8.450   4.668  0.0332 -0.5873  0.1184
  528MOL0     N71197   9.263   8.336   4.617 -0.2710  0.0809  0.2931
  528MOL0     C71198   8.342   7.471   4.705 -0.0179 -0.4056 -0.0664
  528MOL0     C71199   8.199   7.466   4.690 -0.4595  0.4710 -0.4797
  528MOL0     C71200   7.775   7.445   4.498  0.8290  0.1409 -0.2503
  528MOL0     C71201   7.708   7.422   4.620  0.2894 -1.1962 -0.5452
  528MOL0     C71202   7.572   7.401   4.617  0.2134  1.3095 -0.4126
  528MOL0     C71203   7.493   7.396   4.498 -0.7092  0.1900  0.0742
  528MOL0     O71204   7.356   7.368   4.499 -0.1856  0.4429  0.8842
  528MOL0     C71205   7.306   7.274   4.602  0.9099  0.3215  0.6271
  528MOL0     C71206   7.210   7.164   4.548 -0.8303 -0.6035 -0.2791
  528MOL0     C71207   7.112   7.231   4.455  0.2373 -1.0811 -0.2945
  528MOL0     C71208   6.996   7.149   4.404 -0.6670 -0.1219 -0.6475
  528MOL0     C71209   7.019   7.004   4.402 -0.6981  0.3655 -0.0072
  528MOL0     C71210   7.047   6.885   4.425 -0.0465  1.0941  0.4724
  528MOL0     C71211   7.560   7.422   4.378 -0.0276 -0.3769  0.1229
  528MOL0     C71212   7.697   7.450   4.379  0.0129  0.2156 -0.2440
  528MOL0     H71213   8.152   7.325   4.383 -1.3618 -0.1370  0.9097
  528MOL0     H71214   8.407   7.369   4.391  1.2091 -1.1023  1.0551
  528MOL0     H71215   8.602   7.398   4.392 -3.0640 -1.3099  2.4214
  528MOL0     H71216   8.554   7.563   4.401 -0.2384 -0.6997 -1.5111
  528MOL0     H71217   8.810   7.453   4.544  1.7550  1.0954 -0.0726
  528MOL0     H71218   8.814   7.537   4.385  0.0947  2.0692  0.0148
  528MOL0     H71219   8.688   7.723   4.505 -2.9120 -2.0581  2.1264
  528MOL0     H71220   8.751   7.660   4.657  2.5389  0.7805  0.0013
  528MOL0     H71221   8.981   7.631   4.577 -1.3845 -1.1998 -0.6105
  528MOL0     H71222   8.949   7.728   4.435  2.9039 -2.1448  0.3547
  528MOL0     H71223   8.859   7.904   4.563 -1.9995 -2.0960 -0.0771
  528MOL0     H71224   8.928   7.838   4.719  2.4689 -2.7210  0.2920
  528MOL0     H71225   9.151   7.824   4.626  0.4407 -0.4126  0.8338
  528MOL0     H71226   9.116   7.915   4.491  2.8799 -2.1344  0.8687
  528MOL0     H71227   9.006   8.102   4.644  0.3429  0.2850 -0.5511
  528MOL0     H71228   9.079   8.011   4.778  4.0908 -1.0754  0.5516
  528MOL0     H71229   9.263   8.077   4.568 -1.7006 -2.7809  0.0737
  528MOL0     H71230   9.302   8.046   4.733  1.3737 -1.0253 -2.9450
  528MOL0     H71231   9.188   8.252   4.929  4.3413  3.7405  2.8783
  528MOL0     H71232   9.358   8.542   4.922  0.0098 -1.9800 -0.1022
  528MOL0     H71233   9.229   8.630   4.856  3.2383  0.7434  0.1713
  528MOL0     H71234   9.170   8.439   5.089 -1.4125  1.1359  2.4410
  528MOL0     H71235   9.066   8.552   4.996  0.7113  0.2901 -0.1604
  528MOL0     H71236   9.204   8.739   5.104  1.2514  1.6828  2.0706
  528MOL0     H71237   9.318   8.628   5.157 -0.7385  1.3198  1.6459
  528MOL0     H71238   9.030   8.605   5.260 -0.5616  1.0233 -0.0540
  528MOL0     H71239   9.138   8.722   5.322 -2.6940  0.0531  0.7537
  528MOL0     H71240   9.328   8.431   5.515 -1.6820  1.5712 -4.3352
  528MOL0     H71241   9.367   8.266   5.712  2.6118  5.3802 -3.2534
  528MOL0     H71242   9.388   8.383   5.841  1.5374 -1.0564 -0.4788
  528MOL0     H71243   9.258   8.260   5.851  0.1774 -0.3793 -0.5707
  528MOL0     H71244   9.142   8.293   6.174 -0.8724  1.1840 -2.4754
  528MOL0     H71245   9.089   8.327   6.418  2.4710 -1.8419 -1.7112
  528MOL0     H71246   8.792   8.606   6.590  0.6786 -0.2754  0.2616
  528MOL0     H71247   8.770   8.524   6.444  0.9936  1.3874  0.0666
  528MOL0     H71248   8.796   8.314   6.523 -1.2087 -2.9348  1.9788
  528MOL0     H71249   8.904   8.367   6.650 -0.3812 -2.7452  0.4420
  528MOL0     H71250   8.660   8.485   6.719 -0.1397  2.5881 -3.8818
  528MOL0     H71251   8.713   8.319   6.781  2.0843  0.0832 -0.9390
  528MOL0     H71252   8.560   8.366   6.521 -3.7996 -0.6781  0.6263
  528MOL0     H71253   8.617   8.218   6.585  0.6056  1.4171 -1.9937
  528MOL0     H71254   8.414   8.413   6.709  1.6226  1.1252 -0.8700
  528MOL0     H71255   8.442   8.257   6.791 -0.5953  2.1951  1.1099
  528MOL0     H71256   8.342   8.265   6.504  3.5538 -1.4576 -1.0519
  528MOL0     H71257   8.387   8.135   6.620 -0.2212  0.9160  2.6785
  528MOL0     H71258   8.226   8.192   6.777  1.8036 -1.2029 -1.1046
  528MOL0     H71259   8.145   8.174   6.625 -0.2861  0.7275 -1.9200
  528MOL0     H71260   8.120   8.424   6.596  1.3629 -1.1427 -1.6335
  528MOL0     H71261   8.165   8.430   6.775 -1.1988 -4.5584  2.7426
  528MOL0     H71262   8.940   8.716   6.338 -3.3375 -2.8718  0.5435
  528MOL0     H71263   9.045   8.709   6.099 -1.3669  0.7803  0.7493
  528MOL0     H71264   8.900   8.560   5.712 -1.2407 -2.3173 -1.1571
  528MOL0     H71265   8.956   8.626   5.493 -0.2845 -1.5464  0.7390
  528MOL0     H71266   8.392   7.509   4.794 -2.6747 -0.9226  1.7676
  528MOL0     H71267   8.132   7.506   4.765 -1.9711  3.7372 -3.2450
  528MOL0     H71268   7.774   7.426   4.706  0.9486 -0.4802 -1.0698
  528MOL0     H71269   7.525   7.386   4.714  0.1286  2.1281 -0.3257
  528MOL0     H71270   7.392   7.217   4.639  0.5105  1.2792  3.3077
  528MOL0     H71271   7.260   7.330   4.685  4.5653  3.1854  0.9933
  528MOL0     H71272   7.161   7.115   4.633 -3.4845  0.1045 -1.2901
  528MOL0     H71273   7.275   7.088   4.504  1.4480  1.1070 -0.0626
  528MOL0     H71274   7.174   7.252   4.367  0.0039  0.2102 -0.1714
  528MOL0     H71275   7.076   7.329   4.485  0.9699 -0.2147 -2.0906
  528MOL0     H71276   6.965   7.181   4.304  0.6459  0.3087 -0.9431
  528MOL0     H71277   6.906   7.168   4.463 -1.5907  1.2183 -2.4065
  528MOL0     H71278   7.076   6.788   4.459 -3.5857  0.4919  2.1454
  528MOL0     H71279   7.517   7.420   4.278  4.5412  0.1666 -2.1248
  528MOL0     H71280   7.749   7.446   4.283 -0.3290 -2.7432 -0.3931
  529MOL0     O71281   8.295   5.438   2.125 -0.0810  0.0049 -0.3463
  529MOL0     C71282   8.247   5.327   2.137  0.0878  0.2577  0.0394
  529MOL0     O71283   8.114   5.299   2.153 -0.5424  0.0610 -0.1150
  529MOL0     C71284   8.017   5.397   2.162  0.4720  0.0559  0.1689
  529MOL0     C71285   7.946   5.447   2.048  0.2415 -0.6891 -0.5226
  529MOL0     C71286   7.843   5.550   2.061 -0.6144 -0.4292 -1.0539
  529MOL0     C71287   7.824   5.601   2.191  0.9924 -1.1797 -0.2087
  529MOL0     O71288   7.738   5.708   2.213 -0.3884 -0.3444 -0.6701
  529MOL0     C71289   7.646   5.745   2.107  0.1210 -1.2006  0.3886
  529MOL0     C71290   7.572   5.875   2.144 -0.5404 -0.7715  0.3469
  529MOL0     C71291   7.438   5.886   2.074  0.3615 -0.2827  0.0264
  529MOL0     C71292   7.341   5.973   2.156  0.5458  0.7896 -0.4904
  529MOL0     C71293   7.210   5.991   2.077  0.8036  0.0331 -0.3804
  529MOL0     C71294   7.116   6.111   2.115 -0.3745 -0.4522 -0.2104
  529MOL0     C71295   7.071   6.114   2.261  0.0870  1.0862  0.8923
  529MOL0     C71296   6.975   6.226   2.291  1.0435 -0.2639  0.0077
  529MOL0     N71297   6.924   6.233   2.427 -0.6219 -0.3173  1.1648
  529MOL0     C71298   7.008   6.246   2.538  0.5432  0.3508 -0.0399
  529MOL0     C71299   6.936   6.266   2.644 -0.2748  0.0439  0.1585
  529MOL0     C71300   6.995   6.288   2.775  0.2086 -0.6063  0.0025
  529MOL0     C71301   6.946   6.190   2.880 -0.4708 -1.0621 -0.1880
  529MOL0     C71302   6.793   6.160   2.888  0.0273 -0.1344  0.2642
  529MOL0     C71303   6.709   6.276   2.944 -0.2260  0.5442  0.5682
  529MOL0     O71304   6.581   6.233   2.990  0.8664  0.5161 -0.2032
  529MOL0     C71305   6.481   6.210   2.902 -0.0679 -0.2642 -0.8062
  529MOL0     C71306   6.487   6.216   2.768  0.1522  0.4489 -0.4649
  529MOL0     C71307   6.382   6.188   2.683  0.1724 -0.9932 -0.5061
  529MOL0     C71308   6.416   6.183   2.530 -0.4119 -0.2497  0.8213
  529MOL0     C71309   6.250   6.172   2.738  0.4047  0.2861 -0.1315
  529MOL0     C71310   6.122   6.132   2.663 -0.9222  0.0193 -0.4112
  529MOL0     O71311   6.001   6.196   2.695  0.4645  0.3240  0.2382
  529MOL0     C71312   5.893   6.102   2.670 -0.2725 -0.8553  0.9776
  529MOL0     C71313   5.800   6.131   2.569  0.4291 -0.4673 -0.3851
  529MOL0     C71314   5.694   6.047   2.540  0.0819 -0.6755  1.0176
  529MOL0     C71315   5.677   5.924   2.602 -0.6098  0.0823 -0.3476
  529MOL0     O71316   5.581   5.839   2.548 -0.3183  0.0583 -0.9661
  529MOL0     C71317   5.566   5.710   2.618 -1.0132 -0.5200  0.0560
  529MOL0     C71318   5.424   5.664   2.595  0.3735  0.1825  0.7146
  529MOL0     C71319   5.324   5.710   2.704  0.0650  0.4824  0.1922
  529MOL0     C71320   5.186   5.679   2.642 -0.9948 -0.2865  0.7794
  529MOL0     C71321   5.068   5.720   2.731 -1.2091  0.0475 -0.3796
  529MOL0     C71322   5.056   5.880   2.747 -1.0846 -0.5631  0.1798
  529MOL0     C71323   5.014   5.970   2.622  1.2481 -0.4259  0.5697
  529MOL0     C71324   4.865   5.951   2.597  0.2191  0.5434 -0.1820
  529MOL0    Cl71325   4.772   5.988   2.741 -0.5456  0.2926 -0.0511
  529MOL0     C71326   5.770   5.894   2.701 -0.4340 -0.3512 -0.2000
  529MOL0     C71327   5.871   5.982   2.741  0.6068  0.1340 -0.7704
  529MOL0     O71328   6.138   6.047   2.575  0.0977 -0.6324 -0.0665
  529MOL0     C71329   6.241   6.174   2.878 -0.2872  0.3448 -0.4783
  529MOL0     C71330   6.355   6.189   2.962 -0.0602 -0.1876 -0.0916
  529MOL0     N71331   6.809   6.282   2.599  0.1771 -0.2006 -0.3431
  529MOL0     N71332   6.797   6.260   2.470  0.7397 -0.8903  0.0150
  529MOL0     C71333   7.897   5.559   2.300  0.4920 -0.1649  0.6902
  529MOL0     C71334   7.992   5.456   2.286 -0.5086 -0.1144  0.1143
  529MOL0     C71335   8.335   5.207   2.135 -1.2373  1.0875  0.5874
  529MOL0     C71336   8.279   5.072   2.135 -0.5004  0.0249  0.5716
  529MOL0     C71337   8.365   4.956   2.119 -0.0131 -0.3268 -0.0904
  529MOL0     C71338   8.502   4.974   2.097  0.1708 -0.4222  1.0373
  529MOL0     O71339   8.568   4.853   2.080 -1.1025  0.0008 -0.3384
  529MOL0     C71340   8.713   4.863   2.069  0.1527 -0.6096  0.2244
  529MOL0     C71341   8.777   4.735   2.028  0.0833  1.3946  0.4784
  529MOL0     C71342   8.793   4.623   2.134 -0.0110 -0.1966  1.2693
  529MOL0     C71343   8.858   4.671   2.266  0.3527  0.2489  0.2337
  529MOL0     C71344   8.983   4.741   2.252  0.0313  0.0470  0.3332
  529MOL0     C71345   9.095   4.778   2.228 -0.0968  0.0333  0.4611
  529MOL0     C71346   8.553   5.106   2.076 -0.4320  0.3418 -0.3008
  529MOL0     C71347   8.471   5.218   2.089 -1.0799 -0.4124  0.0176
  529MOL0     H71348   7.963   5.411   1.947 -0.3999  0.3580 -1.0236
  529MOL0     H71349   7.794   5.585   1.971 -0.7887 -0.2740 -0.9011
  529MOL0     H71350   7.692   5.770   2.010 -2.7196 -2.6662 -1.4703
  529MOL0     H71351   7.571   5.667   2.097 -2.1873  1.1214 -2.1451
  529MOL0     H71352   7.572   5.888   2.253  0.9441  1.2039  0.1577
  529MOL0     H71353   7.631   5.961   2.111 -2.1443 -0.1114 -0.9123
  529MOL0     H71354   7.452   5.935   1.978  0.1978  0.7922  0.5346
  529MOL0     H71355   7.383   5.795   2.050  3.2808 -1.3631 -3.4145
  529MOL0     H71356   7.331   5.929   2.255 -1.9925 -0.6720 -1.3095
  529MOL0     H71357   7.386   6.072   2.166  0.5448  0.9464 -1.8476
  529MOL0     H71358   7.222   6.026   1.974 -2.3431  3.3004  0.1487
  529MOL0     H71359   7.151   5.899   2.075  1.0435 -0.1675  0.9375
  529MOL0     H71360   7.181   6.198   2.100 -0.1452 -0.5668  0.1275
  529MOL0     H71361   7.038   6.098   2.039 -0.0645 -4.2354 -0.0868
  529MOL0     H71362   7.030   6.018   2.292  5.3481 -1.8887 -0.0924
  529MOL0     H71363   7.159   6.116   2.326  1.6506  0.2334 -1.0772
  529MOL0     H71364   6.894   6.218   2.217 -1.7959 -0.5164  2.9139
  529MOL0     H71365   7.019   6.323   2.267  0.6605 -0.0537  0.1532
  529MOL0     H71366   7.113   6.220   2.527 -0.3896 -5.6597  1.6020
  529MOL0     H71367   7.102   6.287   2.756  0.2695  1.4813 -0.0918
  529MOL0     H71368   6.972   6.383   2.824 -0.3097 -1.4671  1.4847
  529MOL0     H71369   6.973   6.217   2.982  2.6070  0.0302 -1.1718
  529MOL0     H71370   6.988   6.096   2.845  2.5949 -0.6277  1.9214
  529MOL0     H71371   6.786   6.074   2.955  3.9529 -0.2002  0.7870
  529MOL0     H71372   6.759   6.120   2.791 -1.6093 -0.7660  1.0596
  529MOL0     H71373   6.694   6.361   2.878 -1.0424  0.3611  0.5063
  529MOL0     H71374   6.760   6.313   3.033  2.5477 -1.7325  0.0805
  529MOL0     H71375   6.584   6.247   2.730  0.3595  2.5289  1.5059
  529MOL0     H71376   6.509   6.128   2.514  1.5603  3.6195 -2.7101
  529MOL0     H71377   6.337   6.149   2.462 -0.3654 -1.2868  1.2710
  529MOL0     H71378   6.445   6.284   2.502  1.3103 -1.0168 -0.3090
  529MOL0     H71379   5.804   6.230   2.523  0.4050 -0.9345 -1.4277
  529MOL0     H71380   5.620   6.089   2.472  1.2964  0.7213  0.5017
  529MOL0     H71381   5.627   5.638   2.562  2.3810  1.4540  0.9637
  529MOL0     H71382   5.581   5.708   2.726  1.5802 -1.6010 -0.2564
  529MOL0     H71383   5.396   5.698   2.495  0.3015  2.3666  1.4213
  529MOL0     H71384   5.434   5.556   2.593  0.7743  0.2278  0.3664
  529MOL0     H71385   5.332   5.817   2.724 -1.1042  0.8370 -1.0481
  529MOL0     H71386   5.358   5.655   2.792 -0.6652 -0.4735 -0.0974
  529MOL0     H71387   5.199   5.726   2.544  2.3059 -1.8298  0.3436
  529MOL0     H71388   5.173   5.575   2.612 -2.9597 -0.2029  1.1771
  529MOL0     H71389   5.070   5.671   2.829 -1.0651  0.1552 -0.3274
  529MOL0     H71390   4.985   5.694   2.665 -1.1926 -1.7283  0.2452
  529MOL0     H71391   4.989   5.894   2.832 -2.4027 -1.6901 -0.6316
  529MOL0     H71392   5.150   5.918   2.788 -1.0753 -1.4681  1.0381
  529MOL0     H71393   5.069   5.956   2.529  0.9758  0.9141  0.1737
  529MOL0     H71394   5.027   6.076   2.645  1.8962 -0.1265 -1.0228
  529MOL0     H71395   4.852   5.852   2.551 -0.0784  0.8306 -0.7304
  529MOL0     H71396   4.833   6.025   2.523  2.1902  1.6377 -0.0047
  529MOL0     H71397   5.758   5.808   2.766  1.5747 -0.4632  0.0918
  529MOL0     H71398   5.923   5.959   2.834 -0.6802  2.0517  0.4971
  529MOL0     H71399   6.149   6.149   2.928  0.7167 -2.4052  0.2022
  529MOL0     H71400   6.351   6.188   3.070  0.6896 -0.1440 -0.0567
  529MOL0     H71401   7.890   5.598   2.401  1.4934  1.2780  0.2403
  529MOL0     H71402   8.053   5.438   2.374  0.6990  2.1585 -0.1901
  529MOL0     H71403   8.174   5.061   2.161 -0.9025  0.9215 -0.5498
  529MOL0     H71404   8.323   4.858   2.142  1.1196 -1.2146 -1.6304
  529MOL0     H71405   8.741   4.940   1.997 -6.3371  2.1398 -0.0529
  529MOL0     H71406   8.743   4.889   2.171  0.9119 -0.4591 -0.0344
  529MOL0     H71407   8.880   4.762   2.000 -0.5280  4.7198  1.0675
  529MOL0     H71408   8.737   4.705   1.931 -3.3935 -0.3330  2.2791
  529MOL0     H71409   8.863   4.552   2.089 -0.5837  0.3288 -0.5208
  529MOL0     H71410   8.699   4.571   2.156 -1.4396  1.2230 -1.0622
  529MOL0     H71411   8.888   4.581   2.321 -0.1515  0.3068  0.6092
  529MOL0     H71412   8.796   4.728   2.336  0.9933  0.9265  0.2651
  529MOL0     H71413   9.192   4.820   2.215  0.4985 -1.4073  0.0366
  529MOL0     H71414   8.654   5.145   2.063 -0.9643  1.4559 -1.3502
  529MOL0     H71415   8.517   5.315   2.083  1.7685 -1.6340  0.6456
  530MOL0     O71416   6.945   6.781   7.814 -0.1412 -0.6098  0.5333
  530MOL0     C71417   6.878   6.866   7.865 -0.6241 -0.7749  0.2498
  530MOL0     O71418   6.903   7.000   7.858 -0.0323 -0.1971 -0.7908
  530MOL0     C71419   6.996   7.053   7.772 -0.5134 -0.1710 -0.4477
  530MOL0     C71420   7.086   7.155   7.811 -0.1860  0.8156  0.0616
  530MOL0     C71421   7.172   7.217   7.733 -0.8026  0.2234 -1.3564
  530MOL0     C71422   7.191   7.169   7.604  0.7591 -0.0001  0.0568
  530MOL0     O71423   7.304   7.226   7.545  0.9165 -0.0707 -0.1434
  530MOL0     C71424   7.315   7.240   7.398  0.8867  0.3721  0.7222
  530MOL0     C71425   7.216   7.339   7.323 -0.3950  0.0535 -0.0385
  530MOL0     C71426   7.254   7.353   7.181  0.6571  0.4420  0.7638
  530MOL0     C71427   7.205   7.495   7.133 -0.4297  0.1017 -0.1451
  530MOL0     C71428   7.203   7.517   6.981 -0.5376 -0.2877 -0.4617
  530MOL0     C71429   7.151   7.652   6.965 -0.5233 -0.2833  1.2709
  530MOL0     C71430   7.091   7.682   6.821 -0.1268 -0.9281 -0.2152
  530MOL0     C71431   7.188   7.670   6.706  0.0920 -0.4382 -0.5612
  530MOL0     N71432   7.203   7.533   6.655 -0.1864 -0.9257 -0.0144
  530MOL0     C71433   7.112   7.450   6.596  0.4486 -0.3230 -0.0051
  530MOL0     C71434   7.173   7.333   6.565  0.2814  0.5409  0.4207
  530MOL0     C71435   7.128   7.198   6.508 -0.3962 -0.9221  0.5008
  530MOL0     C71436   7.125   7.102   6.629  0.9076 -0.0336  0.6698
  530MOL0     C71437   7.088   6.958   6.579 -0.2465 -0.5330  0.0070
  530MOL0     C71438   7.102   6.853   6.687  0.3270 -0.4750  0.3284
  530MOL0     O71439   6.976   6.849   6.760 -0.5926 -0.2546  0.9843
  530MOL0     C71440   6.935   6.745   6.840 -0.2597  0.6885  0.9704
  530MOL0     C71441   7.020   6.631   6.856  0.6293  0.6611 -0.1014
  530MOL0     C71442   6.972   6.517   6.929 -0.0074  0.6726 -0.3088
  530MOL0     C71443   7.065   6.398   6.940  0.0036  0.1401 -0.4210
  530MOL0     C71444   6.845   6.527   6.999  0.2192  1.3039  0.2707
  530MOL0     C71445   6.788   6.419   7.088  0.4232 -0.1386  0.3254
  530MOL0     O71446   6.650   6.433   7.111  0.2118  0.0941  0.1339
  530MOL0     C71447   6.583   6.332   7.181 -0.1580  0.2419  0.7254
  530MOL0     C71448   6.457   6.288   7.133  1.0745 -0.3810 -0.3210
  530MOL0     C71449   6.386   6.185   7.187 -0.7190 -0.3727 -0.0857
  530MOL0     C71450   6.441   6.119   7.303  0.8619 -0.8945  0.1110
  530MOL0     O71451   6.376   6.036   7.388  0.1065  0.4137 -0.1244
  530MOL0     C71452   6.281   5.946   7.335  0.4299 -0.7498  0.3490
  530MOL0     C71453   6.142   5.977   7.391 -0.8894 -0.8641  0.0653
  530MOL0     C71454   6.035   5.870   7.352  0.0846  0.3962  0.4539
  530MOL0     C71455   6.036   5.842   7.199 -0.7867  0.5857 -0.0299
  530MOL0     C71456   5.923   5.752   7.159  0.5849 -0.2127 -0.4249
  530MOL0     C71457   5.925   5.706   7.009  0.2092 -0.1528 -0.0408
  530MOL0     C71458   5.797   5.626   6.977  0.6731  1.4556  0.6134
  530MOL0     C71459   5.756   5.610   6.821  0.6694 -0.0281 -0.8077
  530MOL0    Cl71460   5.872   5.553   6.702  0.3583  0.1887  0.0630
  530MOL0     C71461   6.563   6.168   7.358 -0.3789  0.4520 -0.0388
  530MOL0     C71462   6.625   6.274   7.298  0.1635  0.2898 -0.0223
  530MOL0     O71463   6.857   6.322   7.123 -0.0170  0.2345  1.0658
  530MOL0     C71464   6.770   6.645   6.988  0.8051 -0.0345  0.6688
  530MOL0     C71465   6.812   6.746   6.904 -0.2059 -0.5120 -0.6214
  530MOL0     N71466   7.312   7.354   6.595  0.6364  0.0347 -0.0096
  530MOL0     N71467   7.324   7.470   6.648  0.3714 -0.6079  0.7588
  530MOL0     C71468   7.110   7.070   7.558  0.4563 -0.7336  0.9987
  530MOL0     C71469   7.009   7.017   7.637  0.0980 -0.8261  0.4900
  530MOL0     C71470   6.756   6.818   7.930  1.3495 -0.1214 -0.5341
  530MOL0     C71471   6.670   6.905   7.994  0.5164 -1.0788  0.8132
  530MOL0     C71472   6.551   6.853   8.049 -0.1229  0.5447 -0.3803
  530MOL0     C71473   6.510   6.719   8.042  0.2068  0.5203 -0.5824
  530MOL0     O71474   6.397   6.678   8.103 -0.1583 -0.7034 -0.4035
  530MOL0     C71475   6.284   6.672   8.015 -0.2379  0.3644 -0.0653
  530MOL0     C71476   6.274   6.539   7.931  0.4455 -0.0827 -0.2416
  530MOL0     C71477   6.241   6.424   8.014 -0.5933  1.0543 -0.9220
  530MOL0     C71478   6.360   6.356   8.086 -0.4299 -0.3463 -0.9126
  530MOL0     C71479   6.312   6.212   8.104 -0.3585 -0.5980  0.7117
  530MOL0     C71480   6.277   6.100   8.141 -0.3960  0.4892  0.2954
  530MOL0     C71481   6.600   6.631   7.980 -0.4078  0.3675 -0.6107
  530MOL0     C71482   6.716   6.682   7.924 -0.2767  0.6243 -1.2417
  530MOL0     H71483   7.090   7.184   7.916 -0.3701  1.1512 -0.0227
  530MOL0     H71484   7.241   7.283   7.785  0.0363 -2.7951  1.6974
  530MOL0     H71485   7.416   7.281   7.397  0.4728  1.4130  0.3575
  530MOL0     H71486   7.316   7.137   7.360 -2.7024  0.4962 -0.0687
  530MOL0     H71487   7.116   7.298   7.337  0.1765 -1.3729  0.0116
  530MOL0     H71488   7.219   7.441   7.364  0.2691 -0.5310  1.4528
  530MOL0     H71489   7.362   7.336   7.171  0.2407 -2.7633  0.7875
  530MOL0     H71490   7.196   7.282   7.121 -0.0023  1.4658  0.1725
  530MOL0     H71491   7.109   7.521   7.178 -1.3149  1.2894 -2.5234
  530MOL0     H71492   7.275   7.571   7.168  0.1625 -0.5462  0.1086
  530MOL0     H71493   7.298   7.487   6.935 -0.5130  1.1643 -1.4281
  530MOL0     H71494   7.119   7.456   6.947 -4.5620  3.3173  2.0573
  530MOL0     H71495   7.086   7.680   7.048 -0.4220 -2.0313  1.9787
  530MOL0     H71496   7.229   7.728   6.975 -0.8353  0.0031  1.5588
  530MOL0     H71497   7.001   7.621   6.809 -1.6465  0.9836  0.8568
  530MOL0     H71498   7.056   7.785   6.832  0.7555 -0.5091 -1.1384
  530MOL0     H71499   7.286   7.703   6.741 -1.3839  3.2796  0.5553
  530MOL0     H71500   7.158   7.740   6.627 -1.7986 -1.6637 -1.0061
  530MOL0     H71501   7.004   7.455   6.603  0.3973 -1.3257  0.1106
  530MOL0     H71502   7.031   7.209   6.457  1.2697  1.0136 -2.5826
  530MOL0     H71503   7.187   7.169   6.421 -1.1569  0.4595 -0.5148
  530MOL0     H71504   7.063   7.144   6.708 -0.3021  0.9444 -0.7504
  530MOL0     H71505   7.231   7.104   6.658  1.7321 -1.6341 -1.8733
  530MOL0     H71506   7.147   6.926   6.493 -0.6407 -1.8506  0.2069
  530MOL0     H71507   6.985   6.954   6.542  0.1065 -0.6543 -1.0039
  530MOL0     H71508   7.195   6.859   6.745 -1.8614  0.6332  4.0770
  530MOL0     H71509   7.096   6.754   6.640  1.3135 -0.0665 -0.6927
  530MOL0     H71510   7.109   6.609   6.799 -0.7410 -4.5571 -0.7946
  530MOL0     H71511   7.131   6.408   7.027  1.1814 -0.9644 -1.1629
  530MOL0     H71512   7.019   6.299   6.943 -0.3061  0.2817 -0.4208
  530MOL0     H71513   7.130   6.409   6.853  2.7718  0.4315  1.5379
  530MOL0     H71514   6.407   6.327   7.046 -1.5000 -1.8090  0.4154
  530MOL0     H71515   6.286   6.164   7.149 -0.1341 -0.2708 -1.7396
  530MOL0     H71516   6.278   5.939   7.226 -0.2477  0.5859  0.2605
  530MOL0     H71517   6.309   5.842   7.354  2.0250 -0.4168 -0.0537
  530MOL0     H71518   6.155   5.967   7.499  0.5627  2.3952  0.3118
  530MOL0     H71519   6.120   6.082   7.369  0.0094 -0.6797 -0.0002
  530MOL0     H71520   5.943   5.916   7.389  0.4019  2.6650 -1.3199
  530MOL0     H71521   6.055   5.776   7.405  1.6017 -1.6230 -3.3062
  530MOL0     H71522   6.022   5.941   7.154  0.8152  1.0243  0.3703
  530MOL0     H71523   6.125   5.783   7.174 -1.4220 -1.2857  1.8448
  530MOL0     H71524   5.825   5.799   7.176  0.6211  0.6767 -2.4010
  530MOL0     H71525   5.931   5.660   7.217  3.7415  0.3351  0.1804
  530MOL0     H71526   5.939   5.790   6.940 -1.0290  0.2126  0.1259
  530MOL0     H71527   6.011   5.641   6.992  0.5040  0.3846 -0.6854
  530MOL0     H71528   5.716   5.680   7.027 -1.8400  0.0308 -1.6439
  530MOL0     H71529   5.815   5.532   7.029  2.2356  3.0490  3.1601
  530MOL0     H71530   5.716   5.696   6.767 -2.8601 -0.5371  0.6986
  530MOL0     H71531   5.670   5.543   6.828  0.3790  0.3849 -0.3221
  530MOL0     H71532   6.599   6.122   7.450  1.2749 -1.6535 -1.6239
  530MOL0     H71533   6.715   6.310   7.348 -1.1112 -1.2376  3.7195
  530MOL0     H71534   6.684   6.677   7.045  0.3873  1.2433 -0.6259
  530MOL0     H71535   6.751   6.835   6.896 -0.1224 -0.3337  0.6090
  530MOL0     H71536   7.127   7.031   7.459 -0.1821  2.1679 -0.3782
  530MOL0     H71537   6.948   6.939   7.592  0.0934 -0.9331  0.6788
  530MOL0     H71538   6.707   7.004   8.017  1.4200 -0.8010 -1.6227
  530MOL0     H71539   6.494   6.920   8.113 -0.5313  1.0897 -1.2887
  530MOL0     H71540   6.190   6.699   8.065 -0.0190  0.2650  0.4049
  530MOL0     H71541   6.301   6.752   7.943  1.7117  0.5609  0.5593
  530MOL0     H71542   6.362   6.515   7.870  1.9532  2.0455  0.9697
  530MOL0     H71543   6.196   6.554   7.857  1.1072  0.4913 -0.8344
  530MOL0     H71544   6.194   6.352   7.946 -1.6765  2.1269 -1.3496
  530MOL0     H71545   6.158   6.453   8.078 -1.7607 -3.6129 -0.0106
  530MOL0     H71546   6.383   6.408   8.179 -0.9514 -0.8747 -0.4801
  530MOL0     H71547   6.453   6.369   8.030 -0.0739  0.5910 -0.1201
  530MOL0     H71548   6.244   5.998   8.144  1.6796 -0.4044 -2.4862
  530MOL0     H71549   6.571   6.528   7.965 -3.4075  0.9206  0.6383
  530MOL0     H71550   6.782   6.612   7.875  1.8305  1.9647 -0.4266
  531MOL0     O71551  10.609   7.192   3.132  0.4001  0.3434 -0.6773
  531MOL0     C71552  10.692   7.143   3.063 -0.4266  0.6225 -0.2364
  531MOL0     O71553  10.676   7.099   2.935  0.6127  0.1858  0.4633
  531MOL0     C71554  10.551   7.125   2.872 -0.1300  0.3268 -0.4476
  531MOL0     C71555  10.485   7.030   2.798 -0.7804  0.3690  0.2083
  531MOL0     C71556  10.367   7.064   2.726 -0.1336 -0.7810 -0.9692
  531MOL0     C71557  10.304   7.191   2.750 -0.5872 -0.6117  1.1275
  531MOL0     O71558  10.196   7.229   2.672  0.4999 -0.1501 -0.5732
  531MOL0     C71559  10.077   7.249   2.749 -0.6097 -0.0134 -0.7427
  531MOL0     C71560   9.963   7.222   2.648  0.0409  0.2529  0.9415
  531MOL0     C71561   9.840   7.300   2.670  0.2438  1.1500 -0.3507
  531MOL0     C71562   9.865   7.449   2.642 -0.0818 -0.0763  0.7689
  531MOL0     C71563   9.733   7.515   2.662 -0.2078 -0.0892 -0.5369
  531MOL0     C71564   9.734   7.664   2.621  0.6624  0.4297  0.3708
  531MOL0     C71565   9.595   7.723   2.655  0.0285 -0.1354  0.1537
  531MOL0     C71566   9.598   7.852   2.569  0.4082 -0.6539  0.7126
  531MOL0     N71567   9.462   7.904   2.538 -0.1948  1.1277 -0.3674
  531MOL0     C71568   9.358   7.911   2.630  0.3406  0.6490 -0.7094
  531MOL0     C71569   9.259   7.943   2.544  0.2571 -0.8264 -0.4394
  531MOL0     C71570   9.116   7.933   2.573  0.4797  0.1686 -0.0518
  531MOL0     C71571   9.078   8.039   2.677 -0.9906 -0.3479 -0.2291
  531MOL0     C71572   9.103   8.184   2.635  0.1291  0.1927  0.3735
  531MOL0     C71573   8.968   8.257   2.624  0.1227  0.0775 -0.4129
  531MOL0     O71574   8.989   8.395   2.600  0.2162 -0.8024  0.9467
  531MOL0     C71575   8.892   8.485   2.641 -0.0239 -0.4679 -0.7214
  531MOL0     C71576   8.868   8.590   2.559  1.2129 -0.3435  0.3242
  531MOL0     C71577   8.759   8.683   2.570 -0.6717 -0.6898 -0.1382
  531MOL0     C71578   8.740   8.779   2.452 -0.9038  0.6842 -0.1350
  531MOL0     C71579   8.686   8.677   2.686  0.8552  0.1558  0.6322
  531MOL0     C71580   8.560   8.768   2.720  0.3020  0.4121  0.4423
  531MOL0     O71581   8.548   8.876   2.649 -0.0591  0.6437 -0.6089
  531MOL0     C71582   8.448   8.965   2.678 -0.0087  0.0372 -0.2734
  531MOL0     C71583   8.356   8.995   2.587  0.1085 -0.5457  0.0685
  531MOL0     C71584   8.254   9.093   2.612 -0.5599 -0.7228 -0.0393
  531MOL0     C71585   8.266   9.177   2.723  0.1611  0.6738 -0.0936
  531MOL0     O71586   8.192   9.280   2.762  0.8618 -0.1855  0.3886
  531MOL0     C71587   8.079   9.324   2.686  0.5826 -0.7086  0.5996
  531MOL0     C71588   7.959   9.231   2.723  0.2776 -0.1635  0.4660
  531MOL0     C71589   7.828   9.300   2.685 -0.4525  0.6452 -0.2604
  531MOL0     C71590   7.695   9.217   2.727 -0.1737  0.0590  0.0097
  531MOL0     C71591   7.566   9.300   2.698 -0.1303 -0.4078 -0.3448
  531MOL0     C71592   7.444   9.205   2.698 -0.4876 -0.0128 -0.0358
  531MOL0     C71593   7.312   9.299   2.685  0.2308  0.2581  0.2969
  531MOL0     C71594   7.289   9.355   2.545  0.4609 -0.2369  0.4491
  531MOL0    Cl71595   7.260   9.218   2.431  0.2369  0.2156  0.3401
  531MOL0     C71596   8.365   9.143   2.818  0.5315 -0.1398  0.2253
  531MOL0     C71597   8.454   9.036   2.805 -0.1160 -1.0217 -0.0173
  531MOL0     O71598   8.499   8.741   2.822 -0.1694  0.1991 -0.4999
  531MOL0     C71599   8.705   8.567   2.770 -0.2464  0.6502 -0.3366
  531MOL0     C71600   8.807   8.474   2.747  1.1306  0.3569  0.3579
  531MOL0     N71601   9.300   7.958   2.418 -0.1013 -0.1095 -0.2616
  531MOL0     N71602   9.425   7.949   2.421  0.5918  0.5140  0.4244
  531MOL0     C71603  10.368   7.284   2.831  0.4453 -1.2074 -0.4502
  531MOL0     C71604  10.491   7.244   2.884  0.5220  0.2957  0.6537
  531MOL0     C71605  10.831   7.132   3.124  0.6648 -0.1034  0.0403
  531MOL0     C71606  10.938   7.079   3.061 -0.3710  0.0931  0.2931
  531MOL0     C71607  11.065   7.068   3.115  0.4973  0.6572  0.3007
  531MOL0     C71608  11.097   7.116   3.238  0.7179  0.2497 -0.2669
  531MOL0     O71609  11.222   7.095   3.287 -0.6687 -0.6642 -0.2266
  531MOL0     C71610  11.262   7.128   3.425  0.8663 -0.4812  0.4576
  531MOL0     C71611  11.382   7.062   3.486 -0.7388  0.6662  1.1107
  531MOL0     C71612  11.502   7.054   3.391  0.2558  0.3324 -0.0896
  531MOL0     C71613  11.612   6.964   3.457  0.7414 -0.7531  0.0285
  531MOL0     C71614  11.638   6.966   3.604 -0.0462  0.1222  0.0208
  531MOL0     C71615  11.655   6.969   3.727 -0.2387  0.9112 -0.1678
  531MOL0     C71616  10.982   7.174   3.313 -0.3970  0.1158  0.1462
  531MOL0     C71617  10.854   7.182   3.248  0.8105  0.8100 -0.2215
  531MOL0     H71618  10.516   6.926   2.797  3.4311  1.3604  2.6211
  531MOL0     H71619  10.317   6.996   2.658 -5.8172  0.5738  1.2438
  531MOL0     H71620  10.062   7.173   2.826 -0.1942  0.7581  0.1101
  531MOL0     H71621  10.070   7.348   2.794  0.9526 -0.5861  0.8826
  531MOL0     H71622   9.987   7.241   2.543 -1.1389 -1.3739  0.3275
  531MOL0     H71623   9.929   7.118   2.655 -3.6493  1.2014 -0.8311
  531MOL0     H71624   9.768   7.242   2.611 -0.1054  2.3992 -1.1827
  531MOL0     H71625   9.802   7.297   2.773  3.3550 -0.3544  0.8712
  531MOL0     H71626   9.930   7.504   2.711 -2.3201  0.6711  2.4190
  531MOL0     H71627   9.895   7.473   2.540 -0.4920 -1.3864  0.3185
  531MOL0     H71628   9.655   7.463   2.605 -2.0453  0.5179  1.2898
  531MOL0     H71629   9.706   7.514   2.768  1.2621  0.8159 -0.1223
  531MOL0     H71630   9.821   7.723   2.651  0.0024  0.7944  1.6400
  531MOL0     H71631   9.746   7.671   2.513  0.0320 -2.0243  0.0864
  531MOL0     H71632   9.513   7.657   2.624  0.7080 -0.8740 -0.1127
  531MOL0     H71633   9.579   7.739   2.762 -2.3361 -2.8682  0.3131
  531MOL0     H71634   9.640   7.836   2.469  0.4858  0.5455  0.5364
  531MOL0     H71635   9.657   7.931   2.615  0.8482  0.0557 -0.9745
  531MOL0     H71636   9.342   7.881   2.733 -3.1830  0.3316 -1.2079
  531MOL0     H71637   9.065   7.952   2.478  4.0489 -0.5471 -2.2923
  531MOL0     H71638   9.094   7.836   2.619  0.9587  0.1614  0.1695
  531MOL0     H71639   9.123   8.018   2.774 -3.1696 -0.1971  0.8885
  531MOL0     H71640   8.970   8.026   2.693 -1.4889  2.1823 -1.0833
  531MOL0     H71641   9.169   8.194   2.548  1.3522  0.5416  1.3203
  531MOL0     H71642   9.165   8.240   2.705  0.8708  0.8673 -0.7806
  531MOL0     H71643   8.919   8.235   2.719 -1.2929 -2.0452 -1.5565
  531MOL0     H71644   8.902   8.215   2.547  0.4544 -0.3693 -0.4580
  531MOL0     H71645   8.914   8.574   2.461 -1.6253 -2.8328 -0.7644
  531MOL0     H71646   8.824   8.796   2.384  0.8357  1.7854  2.1239
  531MOL0     H71647   8.650   8.764   2.392 -3.1517  3.9109  2.0826
  531MOL0     H71648   8.734   8.881   2.491  3.6028  2.2025 -2.5955
  531MOL0     H71649   8.363   8.938   2.495  0.0993  0.6283 -0.6879
  531MOL0     H71650   8.177   9.106   2.537 -0.6563 -1.1601 -0.0213
  531MOL0     H71651   8.056   9.427   2.712  1.9006  0.0803 -1.1220
  531MOL0     H71652   8.104   9.323   2.579 -0.5757  2.0603  0.2381
  531MOL0     H71653   7.966   9.139   2.664  3.5886 -1.3295  2.4207
  531MOL0     H71654   7.948   9.193   2.825 -2.9613 -2.3175 -0.5320
  531MOL0     H71655   7.827   9.327   2.579 -2.7118 -0.1942 -0.4995
  531MOL0     H71656   7.824   9.396   2.739 -2.1921  0.1522  0.5755
  531MOL0     H71657   7.701   9.117   2.683  0.1797  0.2975 -0.4869
  531MOL0     H71658   7.704   9.206   2.836  1.5369  1.3747  0.0476
  531MOL0     H71659   7.574   9.339   2.596 -1.8687  0.5894 -0.1415
  531MOL0     H71660   7.576   9.381   2.771  0.0752 -1.2810  0.6151
  531MOL0     H71661   7.445   9.130   2.618 -1.1087  1.7574 -1.7703
  531MOL0     H71662   7.441   9.162   2.798  1.9188 -1.9146 -0.6620
  531MOL0     H71663   7.321   9.379   2.760 -1.2640  0.5266  0.2158
  531MOL0     H71664   7.220   9.244   2.703 -0.3516  1.2944  0.5729
  531MOL0     H71665   7.384   9.396   2.510  0.6017 -1.8053 -1.1457
  531MOL0     H71666   7.210   9.431   2.546  0.1539 -0.5336 -0.1964
  531MOL0     H71667   8.371   9.200   2.910  0.0160 -3.1318  2.2653
  531MOL0     H71668   8.519   9.014   2.889 -1.4757  0.7884  1.6097
  531MOL0     H71669   8.662   8.561   2.869  2.1160 -1.4948  0.6403
  531MOL0     H71670   8.823   8.395   2.821 -0.8927 -1.7988 -1.3606
  531MOL0     H71671  10.337   7.388   2.830  1.7674 -0.6823 -4.1687
  531MOL0     H71672  10.535   7.321   2.946 -0.3459 -0.4097  2.2154
  531MOL0     H71673  10.918   7.055   2.956  2.9788  1.1278 -0.6989
  531MOL0     H71674  11.152   7.043   3.056  2.3968  2.7660  2.0207
  531MOL0     H71675  11.274   7.237   3.431 -1.7408  0.0868 -2.3050
  531MOL0     H71676  11.184   7.109   3.499 -0.4020  1.9025 -0.1705
  531MOL0     H71677  11.353   6.961   3.516 -2.5374  2.2469  5.4468
  531MOL0     H71678  11.409   7.119   3.575  2.6826  1.0535 -0.0308
  531MOL0     H71679  11.542   7.156   3.393 -0.1122  0.4685  0.3602
  531MOL0     H71680  11.472   7.015   3.293  1.6271 -2.2662  0.4424
  531MOL0     H71681  11.708   6.991   3.411  0.6402  0.7323  0.6312
  531MOL0     H71682  11.579   6.862   3.437  0.8530 -0.3938 -2.2776
  531MOL0     H71683  11.683   6.971   3.831  1.2953  0.5062 -0.5443
  531MOL0     H71684  10.996   7.214   3.413  1.7785  0.6751 -0.3477
  531MOL0     H71685  10.768   7.216   3.304  1.6656  0.9300  1.0857
  532MOL0     O71686   7.466   8.810   5.917 -0.4798  0.0159  0.0235
  532MOL0     C71687   7.503   8.829   6.031 -0.3389  0.3388  1.8466
  532MOL0     O71688   7.523   8.950   6.083 -0.1240  0.7537  0.3998
  532MOL0     C71689   7.500   9.071   6.026  0.3353  0.1312  1.4886
  532MOL0     C71690   7.533   9.099   5.893  0.5511  0.3862  0.1110
  532MOL0     C71691   7.513   9.232   5.844 -0.7373 -0.3537  0.2562
  532MOL0     C71692   7.452   9.327   5.921  0.6589 -0.1979  0.4797
  532MOL0     O71693   7.400   9.448   5.880  0.0210  0.4022 -0.4249
  532MOL0     C71694   7.454   9.506   5.764 -0.0827  0.7911  0.0777
  532MOL0     C71695   7.370   9.621   5.707 -0.3402 -0.4797 -0.6575
  532MOL0     C71696   7.432   9.656   5.566 -0.1530 -0.7060  0.3554
  532MOL0     C71697   7.353   9.774   5.502  0.3976 -0.3076  0.0731
  532MOL0     C71698   7.399   9.806   5.361 -0.1901  0.4704 -0.6820
  532MOL0     C71699   7.315   9.924   5.312  0.1067  0.2515  0.3457
  532MOL0     C71700   7.367   9.971   5.177 -0.3319  0.1013  0.1397
  532MOL0     C71701   7.301  10.096   5.117  1.0285 -0.0138  0.0768
  532MOL0     N71702   7.173  10.067   5.053  0.1482 -0.3213 -0.6417
  532MOL0     C71703   7.052  10.056   5.120 -0.4766 -0.3071  1.0448
  532MOL0     C71704   6.974   9.981   5.035  0.1361 -0.8380  0.3672
  532MOL0     C71705   6.827   9.953   5.060 -0.5255  1.0460  0.0756
  532MOL0     C71706   6.787   9.822   5.130  0.2296 -0.1326  0.7083
  532MOL0     C71707   6.850   9.705   5.050 -0.0451 -0.1949 -0.9310
  532MOL0     C71708   6.823   9.580   5.129 -0.3634  0.5523 -0.0668
  532MOL0     O71709   6.682   9.543   5.123 -0.9087  0.0645 -0.6190
  532MOL0     C71710   6.652   9.453   5.227 -1.0137  0.3306  0.4245
  532MOL0     C71711   6.525   9.464   5.286 -0.9923  0.3074  0.4829
  532MOL0     C71712   6.492   9.395   5.395 -0.4192  0.0099  0.8435
  532MOL0     C71713   6.359   9.431   5.450  0.0128 -0.0717  0.9733
  532MOL0     C71714   6.579   9.298   5.448  0.0300 -0.6306 -1.3539
  532MOL0     C71715   6.556   9.219   5.569 -0.0980  0.4048 -0.1170
  532MOL0     O71716   6.613   9.094   5.573 -0.2957  0.3151  0.3655
  532MOL0     C71717   6.623   9.009   5.690 -0.6413  0.5007  0.2880
  532MOL0     C71718   6.601   9.038   5.829 -0.1423 -0.9455  0.9048
  532MOL0     C71719   6.612   8.948   5.925  0.5497  0.6703 -1.1777
  532MOL0     C71720   6.645   8.816   5.909  0.5071  1.5191 -0.1031
  532MOL0     O71721   6.654   8.734   6.017 -0.7477 -0.3931 -0.0312
  532MOL0     C71722   6.684   8.596   5.990 -0.8676 -0.0156 -0.5323
  532MOL0     C71723   6.636   8.521   6.112 -0.4262 -0.2962 -0.5042
  532MOL0     C71724   6.684   8.373   6.099  1.1273 -0.1629 -0.2774
  532MOL0     C71725   6.612   8.294   5.984 -0.6407 -0.0984 -0.3188
  532MOL0     C71726   6.635   8.150   6.010  0.4061 -0.6364  0.0237
  532MOL0     C71727   6.774   8.095   5.998  0.0199 -0.5467 -0.0907
  532MOL0     C71728   6.777   7.943   5.985  0.0052  0.3693 -1.0303
  532MOL0     C71729   6.721   7.897   5.850  0.1297  0.5696  0.7365
  532MOL0    Cl71730   6.825   7.957   5.713 -0.2063 -0.1650 -0.4304
  532MOL0     C71731   6.670   8.781   5.771  1.2092  0.0166  0.2939
  532MOL0     C71732   6.666   8.873   5.665  0.4792 -0.3028 -0.4645
  532MOL0     O71733   6.500   9.272   5.663  0.4204  0.1261  0.6096
  532MOL0     C71734   6.706   9.282   5.391 -0.2612 -1.2019  0.6636
  532MOL0     C71735   6.741   9.362   5.281  0.3944  0.3486  0.1592
  532MOL0     N71736   7.052   9.961   4.922 -0.3462  1.0720  0.8198
  532MOL0     N71737   7.164  10.022   4.925  0.7201 -0.9796  0.2038
  532MOL0     C71738   7.435   9.300   6.060  0.1294 -0.3538  0.3770
  532MOL0     C71739   7.464   9.177   6.108  0.3339  0.2471  0.2897
  532MOL0     C71740   7.522   8.716   6.119  0.9120  0.1261 -0.7425
  532MOL0     C71741   7.492   8.719   6.254  0.5384  0.3433  0.6513
  532MOL0     C71742   7.514   8.600   6.336  0.1830  0.0803  0.0067
  532MOL0     C71743   7.554   8.484   6.269  0.0946  0.9289 -0.6677
  532MOL0     O71744   7.605   8.371   6.334  0.3755 -0.2350 -0.3949
  532MOL0     C71745   7.656   8.386   6.467 -0.4465  0.7001 -0.7446
  532MOL0     C71746   7.701   8.250   6.521  0.2013 -0.8218  0.4605
  532MOL0     C71747   7.823   8.213   6.440 -0.2780  0.3964 -0.4675
  532MOL0     C71748   7.887   8.082   6.488  0.3631 -0.1359  0.0693
  532MOL0     C71749   7.965   8.008   6.387  0.8121 -0.2553  0.5774
  532MOL0     C71750   8.014   7.924   6.309  0.0023  0.5607 -0.2362
  532MOL0     C71751   7.563   8.477   6.134 -0.0990 -0.6451 -0.1345
  532MOL0     C71752   7.547   8.594   6.057 -0.0346  0.9261  0.5855
  532MOL0     H71753   7.581   9.026   5.829  2.3923  2.0873 -0.5957
  532MOL0     H71754   7.539   9.250   5.740  0.3919 -1.6146  0.2839
  532MOL0     H71755   7.557   9.532   5.790 -0.4039  0.2752  2.0301
  532MOL0     H71756   7.457   9.425   5.691 -0.0652 -0.2567  1.2088
  532MOL0     H71757   7.266   9.587   5.707 -0.7691  0.6766  1.1510
  532MOL0     H71758   7.379   9.709   5.771 -1.6072 -0.6534 -0.2133
  532MOL0     H71759   7.537   9.677   5.584 -0.0706 -1.3943  0.7077
  532MOL0     H71760   7.423   9.568   5.501 -0.5806 -4.2197  4.7054
  532MOL0     H71761   7.244   9.764   5.507  0.5026 -2.3932 -0.9398
  532MOL0     H71762   7.376   9.865   5.559  1.3598 -0.9307  0.6974
  532MOL0     H71763   7.508   9.814   5.363  0.2190 -3.1480  1.3097
  532MOL0     H71764   7.377   9.715   5.304 -3.7814 -1.7397  3.5406
  532MOL0     H71765   7.211   9.894   5.295  1.2660 -3.5440 -1.0217
  532MOL0     H71766   7.322   9.999   5.392 -0.1092  1.5901 -0.8630
  532MOL0     H71767   7.472   9.999   5.190 -0.9813  3.8190 -1.2007
  532MOL0     H71768   7.354   9.885   5.110  0.2915  2.0438 -2.6308
  532MOL0     H71769   7.361  10.124   5.030 -0.4714 -0.1675 -1.0305
  532MOL0     H71770   7.296  10.179   5.189 -2.8089  0.9394 -1.0875
  532MOL0     H71771   7.039  10.086   5.224 -3.0124  2.8716 -0.0071
  532MOL0     H71772   6.802  10.048   5.107  0.3534  0.6019  1.5121
  532MOL0     H71773   6.784   9.940   4.960 -1.2444  0.0556  0.4971
  532MOL0     H71774   6.679   9.809   5.121  0.1557  1.1496 -0.5721
  532MOL0     H71775   6.827   9.812   5.232  1.2967 -0.9282  0.2347
  532MOL0     H71776   6.957   9.726   5.044 -0.2874  1.3668 -0.2007
  532MOL0     H71777   6.803   9.699   4.951 -1.1513 -0.6946 -0.3881
  532MOL0     H71778   6.864   9.594   5.229  3.8378  0.3101 -1.5508
  532MOL0     H71779   6.870   9.500   5.070 -1.1236  0.2149 -0.2262
  532MOL0     H71780   6.470   9.544   5.239 -1.2351  0.5302  1.1414
  532MOL0     H71781   6.315   9.332   5.465 -0.8245 -0.2011 -1.8504
  532MOL0     H71782   6.378   9.468   5.551  1.5768 -1.6802  1.3147
  532MOL0     H71783   6.298   9.489   5.380  0.5467 -0.2629  0.3471
  532MOL0     H71784   6.586   9.143   5.854  0.3377 -0.2527 -1.5082
  532MOL0     H71785   6.601   8.990   6.024 -1.3474  0.0734 -1.0811
  532MOL0     H71786   6.644   8.559   5.895 -0.7649  1.5967 -1.2365
  532MOL0     H71787   6.792   8.588   5.980 -0.0666  3.7311  2.4923
  532MOL0     H71788   6.679   8.563   6.203  0.7317 -0.3604 -1.0131
  532MOL0     H71789   6.527   8.510   6.112 -0.5190  0.4811  0.3682
  532MOL0     H71790   6.648   8.319   6.187 -1.0127 -1.4954 -1.8507
  532MOL0     H71791   6.793   8.367   6.088  0.8856 -0.7925 -3.1027
  532MOL0     H71792   6.506   8.320   5.974 -0.5195 -0.3683 -3.0439
  532MOL0     H71793   6.661   8.316   5.889 -0.0223 -2.5541 -0.6378
  532MOL0     H71794   6.576   8.108   5.927  1.3421  1.1646 -1.6447
  532MOL0     H71795   6.585   8.132   6.106  0.3162  1.4296  0.4074
  532MOL0     H71796   6.832   8.142   5.918  0.3841  3.9433  2.4614
  532MOL0     H71797   6.836   8.126   6.082 -0.1526  0.3509 -0.2858
  532MOL0     H71798   6.730   7.891   6.069  2.3494 -1.9110 -1.0274
  532MOL0     H71799   6.880   7.907   5.990 -0.6137 -1.4378 -0.5974
  532MOL0     H71800   6.613   7.905   5.829  0.4676 -0.9365 -2.0416
  532MOL0     H71801   6.745   7.792   5.867  2.5107  0.7055 -1.1971
  532MOL0     H71802   6.693   8.681   5.735 -1.3736 -0.1573 -1.1511
  532MOL0     H71803   6.686   8.842   5.563 -4.2173 -1.4295 -1.2532
  532MOL0     H71804   6.777   9.215   5.438  0.2698 -1.1951 -0.1041
  532MOL0     H71805   6.844   9.358   5.247  0.7330  1.6107  0.9581
  532MOL0     H71806   7.394   9.382   6.119  0.2553  0.0073 -0.0335
  532MOL0     H71807   7.431   9.158   6.210 -0.2411 -0.2756  0.0136
  532MOL0     H71808   7.459   8.816   6.289 -2.0786  0.1701 -1.0773
  532MOL0     H71809   7.506   8.611   6.444 -0.4805 -2.9418  0.3550
  532MOL0     H71810   7.743   8.451   6.456  0.1125 -0.0017 -0.5506
  532MOL0     H71811   7.580   8.429   6.532  1.8372 -0.0313  2.6817
  532MOL0     H71812   7.627   8.169   6.523  0.3290 -0.9289  1.2252
  532MOL0     H71813   7.732   8.267   6.624 -0.4732 -0.5168  0.6196
  532MOL0     H71814   7.909   8.280   6.449  1.5534 -1.5601 -2.2548
  532MOL0     H71815   7.807   8.210   6.332 -3.3134  2.0757 -0.1597
  532MOL0     H71816   7.810   8.012   6.521  2.5399 -4.1591 -2.5193
  532MOL0     H71817   7.956   8.103   6.570 -0.0151  0.5623  0.2249
  532MOL0     H71818   8.044   7.842   6.247 -3.2770 -0.5221 -0.6051
  532MOL0     H71819   7.578   8.376   6.098 -0.2186 -1.0174  0.8349
  532MOL0     H71820   7.573   8.603   5.952  1.1371  1.7730  0.9254
  533MOL0     O71821   8.719  11.107   1.621  0.0147 -0.8865 -0.0037
  533MOL0     C71822   8.662  11.157   1.522  0.8444 -0.1073 -1.3494
  533MOL0     O71823   8.519  11.165   1.503  0.1222 -0.4727  0.0804
  533MOL0     C71824   8.443  11.129   1.602 -0.2750 -0.0711 -0.0850
  533MOL0     C71825   8.471  11.128   1.742 -0.1158 -0.2790 -1.0486
  533MOL0     C71826   8.378  11.069   1.836 -1.7366  0.1104 -0.0614
  533MOL0     C71827   8.252  11.038   1.800  0.6867 -0.2866 -0.1608
  533MOL0     O71828   8.152  11.005   1.885 -0.1845  0.2462  0.0245
  533MOL0     C71829   8.194  10.906   1.982  0.4321 -1.3377 -0.0610
  533MOL0     C71830   8.066  10.868   2.056  0.6922 -0.5641  0.3898
  533MOL0     C71831   7.978  10.761   1.990  0.1294 -0.6980  1.0424
  533MOL0     C71832   7.840  10.730   2.062 -1.5441 -0.6911  0.0189
  533MOL0     C71833   7.774  10.597   2.018  0.2970  0.0553 -0.0769
  533MOL0     C71834   7.657  10.556   2.110  0.2142 -0.7896 -0.4221
  533MOL0     C71835   7.616  10.408   2.112  0.0547  0.2540  1.2934
  533MOL0     C71836   7.504  10.388   2.013 -0.3601 -0.4607  0.1357
  533MOL0     N71837   7.482  10.245   1.991 -0.6356 -0.2268 -0.9938
  533MOL0     C71838   7.441  10.158   2.089 -0.8497 -0.2895  1.0320
  533MOL0     C71839   7.435  10.044   2.020  0.4967  1.2919 -0.3135
  533MOL0     C71840   7.381   9.912   2.071  0.1876  0.8479 -0.5926
  533MOL0     C71841   7.258   9.876   1.981  0.3720  0.3480  0.5189
  533MOL0     C71842   7.165   9.756   2.032 -0.4067 -0.6125  0.4530
  533MOL0     C71843   7.238   9.625   2.062 -0.1124  0.4248 -0.0182
  533MOL0     O71844   7.323   9.637   2.168  0.7608  0.0938 -0.6206
  533MOL0     C71845   7.417   9.543   2.202 -0.1222 -0.0681 -0.5569
  533MOL0     C71846   7.419   9.421   2.129 -0.2674  0.3960 -1.0986
  533MOL0     C71847   7.526   9.327   2.150  0.0178 -0.9851 -0.1243
  533MOL0     C71848   7.525   9.197   2.067 -0.0822  0.7241 -0.2813
  533MOL0     C71849   7.626   9.361   2.257  0.2679  0.4800  0.0702
  533MOL0     C71850   7.735   9.273   2.297  0.0347 -0.0578 -0.3027
  533MOL0     O71851   7.716   9.139   2.290  0.0955  0.3521 -0.0509
  533MOL0     C71852   7.804   9.054   2.351 -0.6618 -1.2430 -0.9074
  533MOL0     C71853   7.773   8.991   2.473  0.0236  0.8225  0.8680
  533MOL0     C71854   7.863   8.886   2.522  0.2963  0.3117 -0.4698
  533MOL0     C71855   7.985   8.855   2.462 -0.7502  0.8638 -0.3752
  533MOL0     O71856   8.061   8.758   2.529 -0.3711  0.0776 -0.3631
  533MOL0     C71857   8.172   8.696   2.468  0.1382 -0.2759  0.8459
  533MOL0     C71858   8.249   8.599   2.550 -0.1978 -0.4974  0.8112
  533MOL0     C71859   8.376   8.560   2.468 -0.5017  0.6076 -1.3660
  533MOL0     C71860   8.445   8.449   2.547  0.0913  0.1498  0.4399
  533MOL0     C71861   8.393   8.316   2.486 -0.3494  0.9898 -0.5786
  533MOL0     C71862   8.399   8.203   2.592 -0.1173  0.9149  0.7014
  533MOL0     C71863   8.535   8.162   2.645  0.7327 -0.2664 -0.5922
  533MOL0     C71864   8.531   8.031   2.722 -0.0399 -1.1046 -0.5207
  533MOL0    Cl71865   8.400   8.034   2.850 -0.0618 -0.5244  0.2608
  533MOL0     C71866   8.029   8.929   2.351 -0.6584 -0.0356 -0.9149
  533MOL0     C71867   7.942   9.032   2.300  0.3521 -0.0036 -0.3963
  533MOL0     O71868   7.831   9.332   2.342  0.0749 -0.1899 -0.1108
  533MOL0     C71869   7.617   9.480   2.327  0.6038 -0.5583  0.3582
  533MOL0     C71870   7.505   9.566   2.303 -0.0585  0.4771 -0.6561
  533MOL0     N71871   7.478  10.057   1.890 -0.6222  0.4535 -0.0106
  533MOL0     N71872   7.501  10.179   1.878 -0.1646  0.1089 -0.2298
  533MOL0     C71873   8.211  11.071   1.667 -0.5574  0.0362  0.6902
  533MOL0     C71874   8.309  11.111   1.570  0.8025  0.4211 -0.3776
  533MOL0     C71875   8.741  11.224   1.414  0.1314 -0.5842  0.2364
  533MOL0     C71876   8.686  11.310   1.326  0.5345  0.4517 -0.2097
  533MOL0     C71877   8.763  11.393   1.244 -0.5281 -1.3917  0.4759
  533MOL0     C71878   8.902  11.386   1.241 -0.3444  0.3728 -0.1709
  533MOL0     O71879   8.978  11.477   1.163  0.2200  1.1376 -0.3994
  533MOL0     C71880   8.999  11.435   1.029  0.3415 -0.0261  0.3021
  533MOL0     C71881   9.148  11.454   0.992  0.1563 -0.8013 -0.4344
  533MOL0     C71882   9.157  11.441   0.839  0.1780  0.6416 -0.2277
  533MOL0     C71883   9.268  11.533   0.773  0.4719 -0.0613 -0.1070
  533MOL0     C71884   9.400  11.478   0.796  0.1015 -0.1223  0.4219
  533MOL0     C71885   9.506  11.423   0.826  0.6557 -0.6107  0.2909
  533MOL0     C71886   8.960  11.297   1.330  0.5094 -0.2852 -0.4131
  533MOL0     C71887   8.881  11.209   1.409 -0.7120 -0.5559  0.0230
  533MOL0     H71888   8.556  11.172   1.793 -1.7681 -0.4508  2.1254
  533MOL0     H71889   8.407  11.062   1.941  3.0296 -0.5961 -1.1716
  533MOL0     H71890   8.243  10.817   1.942  1.0878 -1.5524  1.1633
  533MOL0     H71891   8.257  10.955   2.057  1.2830  1.6865 -2.5333
  533MOL0     H71892   8.090  10.839   2.159  1.9210  2.6902  1.1674
  533MOL0     H71893   7.997  10.953   2.061 -0.5070 -1.5459  1.1468
  533MOL0     H71894   7.966  10.783   1.884  2.7679 -1.1418  0.5776
  533MOL0     H71895   8.034  10.668   2.006 -0.3644 -0.8531  1.8915
  533MOL0     H71896   7.871  10.723   2.166  2.5050  2.2040 -0.7896
  533MOL0     H71897   7.776  10.819   2.058  2.3182  2.2731 -1.7823
  533MOL0     H71898   7.731  10.602   1.918  0.1685  0.8888  0.0135
  533MOL0     H71899   7.844  10.513   2.019 -2.6900 -2.6082 -0.9256
  533MOL0     H71900   7.693  10.567   2.212  1.2791  0.4896 -0.8989
  533MOL0     H71901   7.569  10.620   2.107 -1.0349 -2.4444 -0.8083
  533MOL0     H71902   7.704  10.346   2.092  0.4742  1.5624 -1.4767
  533MOL0     H71903   7.581  10.382   2.212  0.2480  0.6728  1.4699
  533MOL0     H71904   7.528  10.429   1.914 -1.0544  0.4977  0.3489
  533MOL0     H71905   7.410  10.430   2.051  0.2064 -0.3598  1.4740
  533MOL0     H71906   7.425  10.175   2.195 -0.1796 -0.8609  1.2309
  533MOL0     H71907   7.451   9.830   2.052  0.2802  0.2759  1.8765
  533MOL0     H71908   7.355   9.896   2.176  3.1298  1.2338  0.2865
  533MOL0     H71909   7.280   9.867   1.874 -0.6070  0.0845  0.3233
  533MOL0     H71910   7.190   9.962   1.982 -0.0355  0.0282  0.6877
  533MOL0     H71911   7.086   9.751   1.957  0.0514 -0.3087 -0.0649
  533MOL0     H71912   7.117   9.792   2.123  1.3624  4.2891 -0.1913
  533MOL0     H71913   7.282   9.598   1.966 -0.6795 -1.0793  0.1201
  533MOL0     H71914   7.161   9.554   2.092 -0.3566  0.8891  0.4895
  533MOL0     H71915   7.349   9.393   2.051 -1.4966 -1.8226  0.6962
  533MOL0     H71916   7.527   9.113   2.137  2.9640  1.5251  0.7079
  533MOL0     H71917   7.436   9.199   2.003 -4.3766  1.7154  4.9875
  533MOL0     H71918   7.616   9.197   2.007  0.3640 -1.8477  0.2948
  533MOL0     H71919   7.677   9.019   2.515 -0.1402  0.3535  0.8089
  533MOL0     H71920   7.841   8.825   2.610  2.4463  0.2664  0.0822
  533MOL0     H71921   8.126   8.648   2.381 -1.7561  1.6488  0.7152
  533MOL0     H71922   8.233   8.781   2.435 -0.1758 -0.0485  0.8522
  533MOL0     H71923   8.280   8.640   2.646 -1.8653  1.6490  0.4895
  533MOL0     H71924   8.193   8.505   2.558  0.6275 -1.0814 -0.0658
  533MOL0     H71925   8.443   8.646   2.463  3.3013 -2.0882 -1.2862
  533MOL0     H71926   8.372   8.525   2.364  0.5666  1.9331 -1.8867
  533MOL0     H71927   8.553   8.451   2.529  0.3812 -0.2128  2.0144
  533MOL0     H71928   8.430   8.449   2.655  0.4709  0.3058  0.4961
  533MOL0     H71929   8.449   8.302   2.393  3.5181  4.8107  0.8157
  533MOL0     H71930   8.285   8.326   2.472 -0.4318  0.6980 -0.1531
  533MOL0     H71931   8.344   8.245   2.677 -0.9239  1.9240 -0.2949
  533MOL0     H71932   8.361   8.110   2.550  0.5034  0.7862  0.4179
  533MOL0     H71933   8.567   8.246   2.707 -1.8153  0.4754 -0.1957
  533MOL0     H71934   8.614   8.149   2.570  0.0391 -3.4029 -0.9332
  533MOL0     H71935   8.624   8.024   2.780 -2.2580  0.2366  3.6185
  533MOL0     H71936   8.515   7.950   2.650 -3.8883  0.5562 -1.7960
  533MOL0     H71937   8.126   8.918   2.303 -0.9052  3.1428 -2.3910
  533MOL0     H71938   7.962   9.087   2.209 -0.1784  0.2747 -0.3484
  533MOL0     H71939   7.691   9.497   2.405  1.5672 -1.0443 -0.4312
  533MOL0     H71940   7.481   9.647   2.371  0.0080 -0.2888  0.2914
  533MOL0     H71941   8.107  11.059   1.639 -0.3945 -0.3324  0.2381
  533MOL0     H71942   8.272  11.125   1.468  0.7182  3.6833  0.0020
  533MOL0     H71943   8.580  11.332   1.327  0.8564  2.2571  1.0362
  533MOL0     H71944   8.706  11.466   1.188 -1.4033 -2.7449 -0.4672
  533MOL0     H71945   8.968  11.331   1.022  3.8085 -1.1026 -1.2380
  533MOL0     H71946   8.944  11.505   0.965  1.9016 -0.3261 -1.4300
  533MOL0     H71947   9.219  11.388   1.044 -0.8449 -0.4422  1.4604
  533MOL0     H71948   9.169  11.557   1.020 -1.2580 -0.7464  0.5467
  533MOL0     H71949   9.061  11.473   0.800 -1.1008 -1.8452  0.6586
  533MOL0     H71950   9.151  11.339   0.801 -1.2104 -0.1477  1.9396
  533MOL0     H71951   9.261  11.638   0.803 -0.9834 -0.2839  0.4332
  533MOL0     H71952   9.243  11.544   0.667  1.4551  0.0609 -0.3376
  533MOL0     H71953   9.599  11.374   0.850  1.1444 -0.8843 -1.9575
  533MOL0     H71954   9.068  11.282   1.329  0.4466 -1.1653  1.8176
  533MOL0     H71955   8.926  11.142   1.482 -0.8101  0.5075  1.0928
  534MOL0     O71956   7.737   3.133   5.770  0.4698 -0.3744  0.0717
  534MOL0     C71957   7.739   3.129   5.645 -0.7786 -0.5251 -0.4490
  534MOL0     O71958   7.648   3.195   5.560 -0.6249 -0.6273 -0.4793
  534MOL0     C71959   7.545   3.265   5.616 -1.5653  0.5707 -0.4840
  534MOL0     C71960   7.408   3.220   5.607 -0.4832 -0.7286  0.0115
  534MOL0     C71961   7.321   3.292   5.693  0.2806 -0.8292 -0.0615
  534MOL0     C71962   7.347   3.410   5.756  0.6514  0.1562 -0.5661
  534MOL0     O71963   7.251   3.472   5.825  0.2390  0.0273 -0.4914
  534MOL0     C71964   7.269   3.602   5.882 -0.0782  0.0100 -0.4297
  534MOL0     C71965   7.131   3.661   5.935  0.1051 -0.0074 -0.0212
  534MOL0     C71966   7.066   3.574   6.039  0.2441 -0.1198  0.2293
  534MOL0     C71967   7.161   3.512   6.152  0.4945 -0.1721 -0.0607
  534MOL0     C71968   7.088   3.410   6.244 -0.4402 -1.3331  0.2324
  534MOL0     C71969   7.020   3.288   6.194  0.3091  0.0930  0.2418
  534MOL0     C71970   6.968   3.204   6.316  0.2026  0.0489  0.1277
  534MOL0     C71971   6.837   3.270   6.379 -0.3830  0.2282  0.2751
  534MOL0     N71972   6.788   3.214   6.506  0.6694  0.2373 -0.0262
  534MOL0     C71973   6.710   3.277   6.596  0.0570 -0.2935  0.0985
  534MOL0     C71974   6.685   3.190   6.697  0.0144 -1.0717  0.3275
  534MOL0     C71975   6.607   3.202   6.821  0.5609 -0.3219 -0.2563
  534MOL0     C71976   6.504   3.326   6.820  0.6555  0.0979  0.3912
  534MOL0     C71977   6.358   3.276   6.787 -0.5545 -0.4632  1.0657
  534MOL0     C71978   6.245   3.368   6.832  0.6487 -0.2983 -0.9241
  534MOL0     O71979   6.234   3.495   6.756 -0.2702 -0.4348  0.1565
  534MOL0     C71980   6.330   3.592   6.796  0.3878 -0.3067  0.1328
  534MOL0     C71981   6.349   3.612   6.928  0.6009 -0.1769 -0.1271
  534MOL0     C71982   6.452   3.703   6.969  0.5842 -0.3533 -0.0051
  534MOL0     C71983   6.489   3.722   7.113  0.8270 -0.1972  0.8507
  534MOL0     C71984   6.531   3.770   6.874  0.6339 -0.8487 -0.1235
  534MOL0     C71985   6.648   3.856   6.912  0.5227 -0.3582  0.1929
  534MOL0     O71986   6.666   3.976   6.840 -0.3355 -0.2508 -0.0515
  534MOL0     C71987   6.782   4.050   6.852  0.2076  0.1832  0.1206
  534MOL0     C71988   6.861   4.042   6.738 -0.9030  0.5986 -0.4058
  534MOL0     C71989   6.984   4.110   6.737 -0.2764 -0.3488 -0.7690
  534MOL0     C71990   7.023   4.176   6.857 -0.0808  0.0338  0.0747
  534MOL0     O71991   7.144   4.241   6.878  0.2160  0.7230  0.0375
  534MOL0     C71992   7.252   4.190   6.803  0.5469  0.2127 -0.0593
  534MOL0     C71993   7.380   4.277   6.822 -0.4012  0.2126  0.0182
  534MOL0     C71994   7.447   4.258   6.963  0.1268 -0.2397  0.6373
  534MOL0     C71995   7.576   4.170   6.929  0.4117 -0.2794 -0.1419
  534MOL0     C71996   7.620   4.094   7.048  0.5288  0.6375 -0.3542
  534MOL0     C71997   7.636   4.188   7.173  0.1424  0.0016  0.2858
  534MOL0     C71998   7.701   4.103   7.285  0.4496 -0.0346 -0.2810
  534MOL0     C71999   7.787   4.200   7.372  0.0566 -1.5750 -1.0134
  534MOL0    Cl72000   7.692   4.292   7.491 -0.0442 -0.1405 -0.2449
  534MOL0     C72001   6.941   4.178   6.972  0.8070  0.3229 -0.1490
  534MOL0     C72002   6.819   4.116   6.972 -0.0186 -0.7438  0.2458
  534MOL0     O72003   6.739   3.808   6.982  0.5659 -0.7986 -0.1968
  534MOL0     C72004   6.484   3.766   6.740  0.2285 -0.4635  0.3160
  534MOL0     C72005   6.386   3.672   6.697 -0.1030 -0.4623 -0.4811
  534MOL0     N72006   6.762   3.081   6.678  0.2650 -0.6149  0.7061
  534MOL0     N72007   6.817   3.092   6.565 -0.5875 -0.2786  0.7885
  534MOL0     C72008   7.484   3.447   5.760 -0.8262  0.4295 -0.6854
  534MOL0     C72009   7.585   3.376   5.689  0.3092 -0.2341  0.0684
  534MOL0     C72010   7.841   3.052   5.576  0.1025  0.4380 -0.3199
  534MOL0     C72011   7.958   3.008   5.648 -0.1961 -0.1040 -0.1946
  534MOL0     C72012   8.039   2.917   5.580  0.0866 -0.7648  0.5124
  534MOL0     C72013   8.016   2.882   5.442 -0.0444  0.0127 -0.6085
  534MOL0     O72014   8.094   2.788   5.392  0.6943  0.0424  0.1542
  534MOL0     C72015   8.107   2.780   5.256 -0.8962 -0.8454 -0.2434
  534MOL0     C72016   8.230   2.686   5.234 -1.0552 -0.2249 -0.2031
  534MOL0     C72017   8.219   2.541   5.293 -0.0599 -0.7462 -0.0533
  534MOL0     C72018   8.110   2.459   5.218 -0.4563  0.0939 -0.7496
  534MOL0     C72019   7.972   2.494   5.252 -0.3852 -0.1353 -0.0534
  534MOL0     C72020   7.860   2.516   5.276  1.1220  0.3092 -0.0861
  534MOL0     C72021   7.915   2.946   5.374 -0.1780 -0.3231 -0.4149
  534MOL0     C72022   7.827   3.031   5.449 -0.8535 -0.0606  1.2447
  534MOL0     H72023   7.366   3.136   5.553 -0.7637 -1.8860  1.9337
  534MOL0     H72024   7.220   3.252   5.694  0.0878 -0.3929  2.0307
  534MOL0     H72025   7.333   3.611   5.971  0.5370  0.6096 -0.9190
  534MOL0     H72026   7.296   3.675   5.806 -1.3189  0.8395 -0.1108
  534MOL0     H72027   7.137   3.758   5.984  0.3136 -0.3880  0.7285
  534MOL0     H72028   7.055   3.674   5.857 -1.5738 -2.0075  1.1683
  534MOL0     H72029   6.988   3.621   6.099 -0.1917 -1.2279  0.5654
  534MOL0     H72030   7.020   3.485   5.996  1.4589 -0.5115 -0.3118
  534MOL0     H72031   7.238   3.449   6.106 -0.2278 -0.4795 -0.8881
  534MOL0     H72032   7.202   3.596   6.209 -0.7908  0.7583 -0.4735
  534MOL0     H72033   7.159   3.365   6.314 -1.3885 -3.2927 -0.0117
  534MOL0     H72034   7.028   3.472   6.311  3.9357  0.6949  2.7091
  534MOL0     H72035   6.930   3.301   6.133  2.2790 -0.8192 -3.1175
  534MOL0     H72036   7.094   3.227   6.143  0.0081 -2.4508  2.6044
  534MOL0     H72037   6.952   3.101   6.285  1.6533  0.6797 -3.1954
  534MOL0     H72038   7.048   3.212   6.390 -1.4086 -0.6997  2.0388
  534MOL0     H72039   6.759   3.255   6.304 -1.9684  1.1213  1.6700
  534MOL0     H72040   6.848   3.375   6.406 -0.9791  0.3908 -0.1142
  534MOL0     H72041   6.682   3.382   6.586 -0.1083 -0.1678  1.5847
  534MOL0     H72042   6.555   3.112   6.857 -0.2904  1.5982  4.0025
  534MOL0     H72043   6.674   3.233   6.902 -1.1883  4.5383 -0.3402
  534MOL0     H72044   6.549   3.403   6.757  1.8134 -1.3851 -0.6590
  534MOL0     H72045   6.494   3.369   6.920  1.3752 -1.8129  1.3262
  534MOL0     H72046   6.342   3.174   6.824 -2.8694 -0.5426 -0.0049
  534MOL0     H72047   6.365   3.273   6.678  0.7484  0.8188  1.0716
  534MOL0     H72048   6.244   3.382   6.940 -3.4385 -0.5469 -0.7746
  534MOL0     H72049   6.154   3.310   6.811 -1.3196  1.9954  0.7833
  534MOL0     H72050   6.310   3.558   7.014  2.8777 -2.0555 -0.2001
  534MOL0     H72051   6.421   3.681   7.188 -2.2947  0.5412 -1.3981
  534MOL0     H72052   6.584   3.668   7.126  1.8319  1.2178 -0.3240
  534MOL0     H72053   6.516   3.823   7.146  0.3088  0.1129  0.3310
  534MOL0     H72054   6.819   3.997   6.649  0.0170  0.8184 -0.9545
  534MOL0     H72055   7.050   4.106   6.651 -1.4625 -0.9878 -1.6778
  534MOL0     H72056   7.273   4.086   6.829 -0.0952  0.1397  0.1841
  534MOL0     H72057   7.234   4.172   6.696 -3.2777 -3.6551  0.9296
  534MOL0     H72058   7.446   4.252   6.738  0.7504  2.9492 -0.0215
  534MOL0     H72059   7.361   4.383   6.803  0.9772  0.5474  0.4196
  534MOL0     H72060   7.374   4.206   7.026  1.7940 -1.4472  1.6487
  534MOL0     H72061   7.482   4.351   7.008 -1.4446  2.0893 -2.5685
  534MOL0     H72062   7.561   4.096   6.850  2.1635 -2.4283  1.4081
  534MOL0     H72063   7.664   4.230   6.901  0.7483 -0.5991  0.2266
  534MOL0     H72064   7.709   4.033   7.030  0.3835  0.0842  0.6824
  534MOL0     H72065   7.542   4.018   7.060  0.0886  0.8565 -1.6977
  534MOL0     H72066   7.690   4.279   7.145 -1.2604  1.1783  1.2894
  534MOL0     H72067   7.543   4.233   7.208  0.9618  1.6649  0.4156
  534MOL0     H72068   7.759   4.022   7.239  0.4968 -0.9620  1.3482
  534MOL0     H72069   7.618   4.059   7.342  2.0373 -0.4699  1.8134
  534MOL0     H72070   7.848   4.264   7.307 -1.4952 -1.9390 -2.9195
  534MOL0     H72071   7.848   4.140   7.440  0.1513  1.3357  1.6710
  534MOL0     H72072   6.963   4.217   7.071 -0.2122 -1.8223  1.0022
  534MOL0     H72073   6.763   4.123   7.065 -0.0849  0.1246  0.1499
  534MOL0     H72074   6.532   3.833   6.670  0.8159  2.3699  3.1961
  534MOL0     H72075   6.348   3.649   6.598  1.0286  0.0256 -1.0540
  534MOL0     H72076   7.513   3.528   5.827  1.3924  1.4550 -2.7211
  534MOL0     H72077   7.691   3.395   5.699  0.3543  0.5720 -1.5160
  534MOL0     H72078   7.971   3.033   5.753 -1.4352 -0.9682  0.1828
  534MOL0     H72079   8.114   2.875   5.647  0.4631  1.7054  1.7620
  534MOL0     H72080   8.013   2.737   5.220 -2.1564  1.1831  0.4627
  534MOL0     H72081   8.123   2.881   5.218 -2.6014 -0.6034 -0.3931
  534MOL0     H72082   8.313   2.732   5.288 -0.3244  1.8732 -2.8503
  534MOL0     H72083   8.256   2.676   5.128  2.9864 -0.1041  0.6279
  534MOL0     H72084   8.193   2.541   5.400 -0.2730 -0.6861 -0.1030
  534MOL0     H72085   8.315   2.492   5.277 -1.0143 -2.6177 -0.3434
  534MOL0     H72086   8.124   2.356   5.252 -1.7805  0.6351  1.6974
  534MOL0     H72087   8.135   2.468   5.112  0.8508 -0.9446 -0.5606
  534MOL0     H72088   7.763   2.534   5.316  2.5276  0.9030  3.3723
  534MOL0     H72089   7.892   2.931   5.269  0.1947  4.0771 -1.3432
  534MOL0     H72090   7.739   3.055   5.390 -2.3993 -1.1065  3.0057
  535MOL0     O72091  10.354   9.752   0.298 -0.1780  0.1171  0.4690
  535MOL0     C72092  10.300   9.844   0.358 -0.0689 -0.4596  1.0534
  535MOL0     O72093  10.313   9.976   0.321  0.6140 -0.4884  0.3360
  535MOL0     C72094  10.359  10.003   0.198 -0.1704 -0.3944 -0.3543
  535MOL0     C72095  10.483  10.058   0.189  0.1608 -0.2419 -0.4091
  535MOL0     C72096  10.551  10.087   0.061 -0.1350 -0.0488 -0.7090
  535MOL0     C72097  10.484  10.061  -0.056  1.0828  0.2223 -0.2160
  535MOL0     O72098  10.567  10.097  -0.161  0.3204  0.0349  0.3589
  535MOL0     C72099  10.500  10.089  -0.293  0.4289 -0.8589 -0.8817
  535MOL0     C72100  10.588  10.163  -0.392  0.4807  0.9470 -0.9876
  535MOL0     C72101  10.521  10.189  -0.528  1.7273 -0.1529  0.9053
  535MOL0     C72102  10.425  10.316  -0.517  0.2379  0.0905  0.3822
  535MOL0     C72103  10.360  10.369  -0.646  0.3339  0.0038 -0.6485
  535MOL0     C72104  10.265  10.481  -0.603  0.5342 -0.3526  0.4793
  535MOL0     C72105  10.188  10.546  -0.714 -0.4540  0.8826 -0.0176
  535MOL0     C72106  10.258  10.597  -0.835  0.4219  0.4197 -0.1600
  535MOL0     N72107  10.161  10.670  -0.913 -0.0851  0.2456  0.1493
  535MOL0     C72108  10.089  10.783  -0.884  0.2499  0.3591  0.3942
  535MOL0     C72109   9.984  10.783  -0.963 -0.9727 -0.5222  0.4733
  535MOL0     C72110   9.873  10.884  -0.978  1.1117  0.3542 -0.5831
  535MOL0     C72111   9.736  10.822  -0.940  0.5274  0.0615  0.0614
  535MOL0     C72112   9.625  10.917  -0.959  1.2457  0.8799 -0.0037
  535MOL0     C72113   9.535  10.870  -1.083 -0.2179  0.5829  0.1101
  535MOL0     O72114   9.610  10.875  -1.202 -0.1104  0.3610 -0.4341
  535MOL0     C72115   9.555  10.896  -1.329  0.0345 -0.1166  1.0954
  535MOL0     C72116   9.645  10.940  -1.426  0.1483 -0.3544 -0.3162
  535MOL0     C72117   9.607  10.941  -1.561 -0.6917  0.2827 -0.0280
  535MOL0     C72118   9.719  10.961  -1.660 -0.2408 -0.0945  0.3525
  535MOL0     C72119   9.470  10.943  -1.593 -0.0321  0.6802  0.5388
  535MOL0     C72120   9.412  10.944  -1.736  0.1983  0.5388  0.1477
  535MOL0     O72121   9.276  10.912  -1.750 -0.0411  0.2980 -0.3643
  535MOL0     C72122   9.222  10.897  -1.875  0.8556 -0.2926  0.1126
  535MOL0     C72123   9.092  10.943  -1.905 -1.3364 -0.1632 -0.7185
  535MOL0     C72124   9.029  10.907  -2.023  0.4980 -0.5618  0.0472
  535MOL0     C72125   9.095  10.826  -2.116  0.0417 -0.1097 -0.2915
  535MOL0     O72126   9.038  10.778  -2.228 -0.1765 -0.0882  0.3777
  535MOL0     C72127   8.918  10.843  -2.275  0.4296  0.1706 -0.6543
  535MOL0     C72128   8.887  10.812  -2.423 -0.1084 -0.1365  0.3510
  535MOL0     C72129   8.827  10.931  -2.511 -0.0702  0.5081  0.0536
  535MOL0     C72130   8.694  10.983  -2.455 -0.7469 -0.8098  0.0951
  535MOL0     C72131   8.574  10.911  -2.497 -0.0157  0.7131  0.8866
  535MOL0     C72132   8.445  10.983  -2.466 -0.8632 -0.6291 -0.1210
  535MOL0     C72133   8.379  10.974  -2.322 -0.4590 -0.4696 -0.5903
  535MOL0     C72134   8.352  10.833  -2.276  0.3923  0.9184  0.2982
  535MOL0    Cl72135   8.273  10.856  -2.116  0.3050  0.2017 -0.0831
  535MOL0     C72136   9.222  10.779  -2.085  0.0207 -0.2087  0.5228
  535MOL0     C72137   9.282  10.807  -1.961  1.6030 -0.7242 -0.3563
  535MOL0     O72138   9.485  10.973  -1.831  0.8620 -0.5567 -0.2442
  535MOL0     C72139   9.378  10.908  -1.489  0.8699 -0.1982 -0.3374
  535MOL0     C72140   9.429  10.877  -1.358  0.7359 -0.7006  0.5845
  535MOL0     N72141   9.970  10.665  -1.040  0.0063 -0.4452  0.2414
  535MOL0     N72142  10.085  10.600  -1.008  0.1139 -0.3748  0.0105
  535MOL0     C72143  10.359  10.008  -0.050  0.2660  0.6067 -0.0388
  535MOL0     C72144  10.299   9.970   0.072  0.6491  0.4835 -0.2053
  535MOL0     C72145  10.238   9.812   0.487 -0.0689  0.4153 -0.2761
  535MOL0     C72146  10.296   9.874   0.594  1.0628 -0.4797  0.9516
  535MOL0     C72147  10.244   9.851   0.718 -0.1115  0.6370  0.4061
  535MOL0     C72148  10.128   9.766   0.737  0.6557 -0.2672  0.0077
  535MOL0     O72149  10.071   9.743   0.866 -0.2909 -0.2635 -0.4794
  535MOL0     C72150  10.105   9.829   0.977 -0.4314 -0.5220  1.1136
  535MOL0     C72151  10.002   9.818   1.090  0.0793 -0.3991 -0.4384
  535MOL0     C72152   9.975   9.669   1.130  0.1806 -0.0614  0.5925
  535MOL0     C72153   9.874   9.649   1.244  0.3345 -0.7088 -0.5740
  535MOL0     C72154   9.813   9.519   1.225  0.1050 -0.4469 -0.4563
  535MOL0     C72155   9.757   9.420   1.188  0.1026 -0.5147  0.2831
  535MOL0     C72156  10.082   9.694   0.623 -0.9701  0.0119 -0.0863
  535MOL0     C72157  10.139   9.713   0.499 -0.8695  0.2299  0.1875
  535MOL0     H72158  10.539  10.074   0.280  0.5646  0.2208 -0.7361
  535MOL0     H72159  10.654  10.118   0.056  0.5955 -2.3863 -2.1133
  535MOL0     H72160  10.474   9.989  -0.331  3.3350 -1.4570 -1.5776
  535MOL0     H72161  10.407  10.146  -0.291  1.1306  0.3056 -0.6056
  535MOL0     H72162  10.624  10.255  -0.345 -0.2056  0.8763 -0.3041
  535MOL0     H72163  10.672  10.093  -0.393  0.0867 -0.1396  4.8497
  535MOL0     H72164  10.597  10.185  -0.607 -0.0116  0.1109 -0.8444
  535MOL0     H72165  10.456  10.106  -0.556  1.5398  1.2362 -3.5285
  535MOL0     H72166  10.340  10.294  -0.451  0.4096  3.2833  1.8623
  535MOL0     H72167  10.487  10.387  -0.460 -0.5405  0.6149  0.5991
  535MOL0     H72168  10.434  10.413  -0.713  2.2785 -2.9436 -0.6370
  535MOL0     H72169  10.326  10.290  -0.714  0.8365 -0.1126 -0.7695
  535MOL0     H72170  10.193  10.437  -0.533  1.1492 -0.2628  1.1791
  535MOL0     H72171  10.325  10.552  -0.545  1.8236 -0.6304 -0.4694
  535MOL0     H72172  10.109  10.473  -0.735  0.9817 -1.3144  1.7959
  535MOL0     H72173  10.136  10.632  -0.671 -2.9243 -0.7742  0.5081
  535MOL0     H72174  10.298  10.515  -0.896  1.3390 -0.1141  1.1122
  535MOL0     H72175  10.342  10.665  -0.814 -0.2759  1.7155 -1.4281
  535MOL0     H72176  10.115  10.857  -0.809 -1.6805  0.7224  0.7452
  535MOL0     H72177   9.901  10.958  -0.902  1.0648 -1.5408  1.3547
  535MOL0     H72178   9.877  10.940  -1.072 -2.0475  0.6674 -0.6264
  535MOL0     H72179   9.743  10.802  -0.833  0.3822  2.4184  0.5720
  535MOL0     H72180   9.713  10.731  -0.996 -3.0241  0.7771  0.1166
  535MOL0     H72181   9.661  11.017  -0.985  1.2348  0.7095 -0.7155
  535MOL0     H72182   9.563  10.915  -0.869  1.5804 -0.6219  0.2191
  535MOL0     H72183   9.464  10.953  -1.091  0.6916  1.1724 -2.9715
  535MOL0     H72184   9.489  10.771  -1.069 -1.6468  1.0733 -0.9216
  535MOL0     H72185   9.746  10.962  -1.395 -0.4717 -1.0005  2.5227
  535MOL0     H72186   9.809  10.987  -1.603  0.3758  0.1995 -0.7170
  535MOL0     H72187   9.733  10.877  -1.729 -1.9850  0.4536 -0.7309
  535MOL0     H72188   9.693  11.049  -1.720 -4.3611 -3.4802 -3.4625
  535MOL0     H72189   9.046  10.987  -1.817  0.7802  0.1582  0.2882
  535MOL0     H72190   8.928  10.945  -2.038  0.0487 -0.4676  2.7357
  535MOL0     H72191   8.831  10.826  -2.211 -1.2605  1.8847 -2.3565
  535MOL0     H72192   8.936  10.951  -2.267 -2.0101  0.4939  2.0534
  535MOL0     H72193   8.986  10.796  -2.468  0.3758  0.6129  1.1110
  535MOL0     H72194   8.832  10.718  -2.429  1.4626 -1.1700  1.3297
  535MOL0     H72195   8.808  10.900  -2.614 -0.8064 -0.5907  0.5002
  535MOL0     H72196   8.906  11.007  -2.517  1.1920 -0.8627 -1.3593
  535MOL0     H72197   8.699  10.991  -2.346 -0.9722 -0.3711  0.0756
  535MOL0     H72198   8.678  11.087  -2.484  2.1046 -0.4303 -0.4357
  535MOL0     H72199   8.578  10.812  -2.450  3.4625 -0.9540 -2.4240
  535MOL0     H72200   8.580  10.876  -2.601  1.8038 -0.8942  1.4854
  535MOL0     H72201   8.456  11.089  -2.489  1.3677 -0.5676  0.9668
  535MOL0     H72202   8.377  10.942  -2.541 -1.3283  1.0185 -0.6496
  535MOL0     H72203   8.286  11.032  -2.331 -1.1318 -1.3536  0.3647
  535MOL0     H72204   8.444  11.030  -2.254 -0.6851 -0.2832 -0.5261
  535MOL0     H72205   8.452  10.795  -2.256 -0.5978 -0.7642  2.3793
  535MOL0     H72206   8.301  10.769  -2.349  3.2198 -0.8465 -0.2784
  535MOL0     H72207   9.267  10.707  -2.152  0.7933 -0.6475  1.4835
  535MOL0     H72208   9.371  10.750  -1.934  2.5125 -0.0213 -1.7731
  535MOL0     H72209   9.273  10.898  -1.512  0.5138 -0.6414  1.3559
  535MOL0     H72210   9.364  10.829  -1.284 -2.0149 -1.4487 -2.1049
  535MOL0     H72211  10.309   9.972  -0.139 -1.5106  1.1135  0.7205
  535MOL0     H72212  10.209   9.910   0.066  2.1102 -1.6892 -1.7907
  535MOL0     H72213  10.375   9.944   0.571  0.9154 -0.8547 -0.8362
  535MOL0     H72214  10.292   9.893   0.806  0.0058  2.5527 -0.5285
  535MOL0     H72215  10.202   9.790   1.010  0.4520 -1.5077 -2.2192
  535MOL0     H72216  10.119   9.931   0.942  0.9894 -1.0144  0.1539
  535MOL0     H72217   9.923   9.890   1.065  0.3029 -0.5310 -1.5463
  535MOL0     H72218  10.031   9.857   1.188  0.2781 -2.5430  0.4025
  535MOL0     H72219  10.069   9.616   1.150  0.5827 -1.1742 -3.3387
  535MOL0     H72220   9.946   9.623   1.035  0.4355  1.2962 -0.1618
  535MOL0     H72221   9.800   9.729   1.252 -0.2630 -1.3867  1.4572
  535MOL0     H72222   9.926   9.659   1.340 -0.7957 -1.8180  0.1831
  535MOL0     H72223   9.708   9.338   1.138  1.8196 -0.3617 -1.8151
  535MOL0     H72224   9.994   9.630   0.626 -2.0212  1.4407  1.0796
  535MOL0     H72225  10.088   9.661   0.418  0.0163  0.5899 -0.6101
  536MOL0     O72226   3.992   0.563   0.991 -0.6934 -0.4223  0.3398
  536MOL0     C72227   3.990   0.464   1.061 -0.7991 -0.2520 -0.2923
  536MOL0     O72228   3.881   0.396   1.115  0.1993  0.5213 -0.0881
  536MOL0     C72229   3.751   0.419   1.086  0.2518 -1.3848 -0.3415
  536MOL0     C72230   3.706   0.465   0.959 -1.3695  0.7694 -0.0531
  536MOL0     C72231   3.572   0.480   0.930 -0.3461  0.1315  0.7569
  536MOL0     C72232   3.481   0.434   1.022 -0.1314 -0.2076  0.1066
  536MOL0     O72233   3.344   0.443   1.007  0.2134 -0.0237 -0.0310
  536MOL0     C72234   3.290   0.389   0.883 -0.0938  0.8905 -0.2947
  536MOL0     C72235   3.140   0.345   0.907  0.0137 -0.3187 -0.1170
  536MOL0     C72236   3.081   0.280   0.783 -0.0020 -0.2030  1.0080
  536MOL0     C72237   2.933   0.237   0.803 -0.9338 -0.1196  0.3541
  536MOL0     C72238   2.887   0.124   0.706  0.4453  0.0354  0.1575
  536MOL0     C72239   2.864   0.170   0.562 -0.5933 -0.5046 -0.9335
  536MOL0     C72240   2.844   0.063   0.455  0.1801 -0.7798  0.3476
  536MOL0     C72241   2.971  -0.022   0.432 -0.8584  0.5598 -0.7690
  536MOL0     N72242   3.081   0.045   0.363  0.8923  0.8292 -0.6878
  536MOL0     C72243   3.099   0.051   0.225 -0.0273  0.5992 -0.6506
  536MOL0     C72244   3.226   0.092   0.217 -0.1322  0.7439  1.0194
  536MOL0     C72245   3.314   0.118   0.081  0.2763  0.3445  0.5117
  536MOL0     C72246   3.321  -0.001  -0.016 -0.5853  1.1201  0.0110
  536MOL0     C72247   3.418  -0.108   0.049  0.9763  0.5228  0.3038
  536MOL0     C72248   3.461  -0.207  -0.066 -0.4925  0.9444 -0.3755
  536MOL0     O72249   3.531  -0.320  -0.013  0.0015 -0.3182 -0.1465
  536MOL0     C72250   3.601  -0.400  -0.094 -0.1190  0.5573  0.2728
  536MOL0     C72251   3.598  -0.533  -0.054  0.1177 -0.2821 -0.5712
  536MOL0     C72252   3.676  -0.628  -0.123  0.4650  0.1535 -0.9122
  536MOL0     C72253   3.636  -0.764  -0.091  0.3230  0.3093  0.4662
  536MOL0     C72254   3.773  -0.579  -0.209 -0.4914  1.1850  0.3260
  536MOL0     C72255   3.890  -0.662  -0.254  1.1100  0.0027  0.3963
  536MOL0     O72256   3.932  -0.651  -0.381  0.2017  0.2832  0.3393
  536MOL0     C72257   4.000  -0.748  -0.451  0.6401 -0.5648 -0.2483
  536MOL0     C72258   3.996  -0.888  -0.427 -0.2396  0.2413 -0.0075
  536MOL0     C72259   4.067  -0.964  -0.516  0.3731 -0.1478 -0.4338
  536MOL0     C72260   4.138  -0.919  -0.626 -0.7954  0.4952  0.6664
  536MOL0     O72261   4.224  -1.000  -0.701  0.7064 -0.1875 -0.0916
  536MOL0     C72262   4.202  -1.143  -0.712  0.1925 -0.5638 -0.7278
  536MOL0     C72263   4.261  -1.214  -0.829  0.5785  0.6932 -0.0539
  536MOL0     C72264   4.239  -1.146  -0.959 -0.2856 -0.5452  0.3725
  536MOL0     C72265   4.358  -1.161  -1.053  0.0331 -0.1459 -0.6307
  536MOL0     C72266   4.493  -1.111  -1.006  0.6876 -0.9750 -0.2762
  536MOL0     C72267   4.590  -1.118  -1.119 -0.1669  0.7541 -0.3115
  536MOL0     C72268   4.738  -1.073  -1.086 -0.5132  0.3312 -0.2469
  536MOL0     C72269   4.822  -1.193  -1.036 -0.4120  0.8831 -1.2918
  536MOL0    Cl72270   4.759  -1.253  -0.871 -0.5732 -0.9072  0.2249
  536MOL0     C72271   4.127  -0.786  -0.655 -0.0561  0.1793 -0.8359
  536MOL0     C72272   4.063  -0.695  -0.565 -0.5313  0.3716  0.5995
  536MOL0     O72273   3.946  -0.727  -0.167  0.0628  1.1165 -0.3642
  536MOL0     C72274   3.770  -0.448  -0.253 -0.0430  0.8510  0.3924
  536MOL0     C72275   3.687  -0.357  -0.206  0.5559 -0.6342 -0.4584
  536MOL0     N72276   3.272   0.129   0.344 -0.7447  0.1985  0.2010
  536MOL0     N72277   3.188   0.100   0.433 -0.3721  0.0708  0.1801
  536MOL0     C72278   3.530   0.391   1.152  0.5236  0.5709  1.0086
  536MOL0     C72279   3.662   0.382   1.184 -0.0284  0.8761 -0.5861
  536MOL0     C72280   4.120   0.386   1.049 -0.2001  0.3328 -0.8891
  536MOL0     C72281   4.115   0.256   0.989  0.4001 -1.0842  0.2366
  536MOL0     C72282   4.242   0.193   0.960  0.3251 -0.1360  0.7216
  536MOL0     C72283   4.361   0.233   1.024 -0.4417  0.6671  0.5843
  536MOL0     O72284   4.479   0.160   1.003  0.4226 -0.6437  0.3451
  536MOL0     C72285   4.601   0.224   0.975  0.0457 -0.5257 -1.6677
  536MOL0     C72286   4.676   0.134   0.872 -0.5636  0.0510 -0.2610
  536MOL0     C72287   4.828   0.133   0.895 -0.1261 -0.7583 -0.2659
  536MOL0     C72288   4.906   0.068   0.784 -0.5990 -0.2939  0.5814
  536MOL0     C72289   5.040   0.042   0.825 -0.3421  0.3101  0.0545
  536MOL0     C72290   5.155   0.021   0.856 -0.8051 -0.8649 -0.4938
  536MOL0     C72291   4.364   0.361   1.079 -0.2636 -0.9455  0.0000
  536MOL0     C72292   4.248   0.438   1.097 -0.3531  0.3995  0.3045
  536MOL0     H72293   3.770   0.492   0.875 -1.5656  0.3365 -0.3414
  536MOL0     H72294   3.546   0.524   0.834  0.9398 -0.7100 -0.0100
  536MOL0     H72295   3.300   0.464   0.805 -0.3258  0.8780 -0.3390
  536MOL0     H72296   3.338   0.299   0.845 -2.0530 -0.8404  1.0557
  536MOL0     H72297   3.150   0.271   0.987  3.0369 -0.9994 -0.9777
  536MOL0     H72298   3.075   0.422   0.949  0.1615  0.8046 -1.8339
  536MOL0     H72299   3.094   0.343   0.694 -0.0008  0.9255  1.7839
  536MOL0     H72300   3.143   0.192   0.764  0.9694  0.8188 -0.9055
  536MOL0     H72301   2.913   0.199   0.903 -2.8185  2.9554  1.2554
  536MOL0     H72302   2.874   0.328   0.793  2.0568  1.8145 -1.3028
  536MOL0     H72303   2.951   0.035   0.709  0.5939  0.1719  1.5093
  536MOL0     H72304   2.791   0.080   0.731  0.2832 -0.1702 -0.7874
  536MOL0     H72305   2.778   0.237   0.571  0.6004  0.9332  0.4824
  536MOL0     H72306   2.951   0.227   0.528 -0.9505  0.3266 -0.5049
  536MOL0     H72307   2.758   0.000   0.481  0.0132 -0.0726  1.5815
  536MOL0     H72308   2.817   0.120   0.366  2.5141  1.9356  1.2141
  536MOL0     H72309   2.950  -0.123   0.395 -1.4840 -1.9595  5.3128
  536MOL0     H72310   3.002  -0.046   0.534 -3.7511 -0.2625  0.0189
  536MOL0     H72311   3.033   0.008   0.151  1.4628 -2.1814 -0.4973
  536MOL0     H72312   3.269   0.206   0.034 -1.8072 -1.4145 -0.9839
  536MOL0     H72313   3.417   0.147   0.106  0.2997 -1.0633  2.2041
  536MOL0     H72314   3.355   0.035  -0.114 -2.1473 -2.5515 -2.0987
  536MOL0     H72315   3.224  -0.047  -0.037  0.0316 -1.0992  1.6356
  536MOL0     H72316   3.353  -0.166   0.115  0.8252 -2.4210 -2.1972
  536MOL0     H72317   3.508  -0.066   0.094 -0.6082  2.2573  2.0095
  536MOL0     H72318   3.517  -0.150  -0.140  1.1494 -0.5522 -0.3324
  536MOL0     H72319   3.369  -0.245  -0.113 -0.2245 -1.5835  0.9676
  536MOL0     H72320   3.537  -0.554   0.034  0.6970  2.7317  0.6812
  536MOL0     H72321   3.621  -0.822  -0.183 -2.2190  0.5968  0.6418
  536MOL0     H72322   3.721  -0.806  -0.036  0.5122 -0.3564 -0.3143
  536MOL0     H72323   3.541  -0.760  -0.037 -1.2246  3.5329 -2.1081
  536MOL0     H72324   3.935  -0.914  -0.341  1.6481  0.6359  1.5011
  536MOL0     H72325   4.071  -1.068  -0.483 -0.5550  0.2276  0.9133
  536MOL0     H72326   4.241  -1.191  -0.622  0.7327  3.9688  1.8101
  536MOL0     H72327   4.096  -1.166  -0.695  0.8427 -1.5060  3.0781
  536MOL0     H72328   4.365  -1.233  -0.804  0.7370  1.4735 -0.0898
  536MOL0     H72329   4.195  -1.301  -0.822  1.6880 -0.0621  1.7222
  536MOL0     H72330   4.217  -1.041  -0.940 -0.2273 -0.4512 -0.0800
  536MOL0     H72331   4.148  -1.189  -1.002  0.5612 -0.3363 -1.7001
  536MOL0     H72332   4.370  -1.269  -1.063 -0.0820 -0.2899  0.6819
  536MOL0     H72333   4.327  -1.110  -1.145 -3.2480  0.7738  0.8562
  536MOL0     H72334   4.527  -1.160  -0.914 -1.9893 -0.5754  1.0379
  536MOL0     H72335   4.462  -1.010  -0.977  0.4453 -0.8510 -0.9463
  536MOL0     H72336   4.587  -1.218  -1.163 -1.0964  0.6343  0.0104
  536MOL0     H72337   4.559  -1.040  -1.190 -2.9982 -0.6487 -0.7420
  536MOL0     H72338   4.724  -0.988  -1.019 -2.6273  0.2865 -0.5585
  536MOL0     H72339   4.787  -1.055  -1.182  3.0650 -2.5650  0.7772
  536MOL0     H72340   4.926  -1.164  -1.024 -0.3371  0.6999 -1.4966
  536MOL0     H72341   4.835  -1.268  -1.114  1.3666  2.0564 -2.1952
  536MOL0     H72342   4.170  -0.768  -0.754  1.0315  1.8508 -0.1025
  536MOL0     H72343   4.066  -0.589  -0.587  3.9497  0.4774  0.8557
  536MOL0     H72344   3.831  -0.424  -0.339  1.8842 -2.7726  0.5783
  536MOL0     H72345   3.693  -0.255  -0.240  0.6648  1.2168  4.2833
  536MOL0     H72346   3.448   0.360   1.216  1.2890 -2.2689  0.7456
  536MOL0     H72347   3.685   0.342   1.282 -1.8267  0.1164 -0.4283
  536MOL0     H72348   4.025   0.217   0.943 -0.0155  1.5125 -1.4099
  536MOL0     H72349   4.250   0.104   0.899  0.6951  0.7439 -0.5639
  536MOL0     H72350   4.590   0.323   0.930 -1.5831  0.5711  0.9297
  536MOL0     H72351   4.659   0.233   1.067 -2.9703 -0.9781  0.4053
  536MOL0     H72352   4.646   0.165   0.771  1.3236  0.7520 -0.6422
  536MOL0     H72353   4.628   0.037   0.888 -2.6404  1.0985  0.1616
  536MOL0     H72354   4.841   0.072   0.985 -0.0667 -0.7517 -0.2703
  536MOL0     H72355   4.867   0.232   0.918 -1.0037 -0.1939 -1.1199
  536MOL0     H72356   4.908   0.138   0.701 -0.1850 -1.8172 -0.7502
  536MOL0     H72357   4.865  -0.030   0.759  1.5923 -1.4102  1.0464
  536MOL0     H72358   5.258   0.030   0.884 -0.1939  1.8119 -3.0668
  536MOL0     H72359   4.457   0.395   1.124 -0.5087  1.9924 -1.4820
  536MOL0     H72360   4.251   0.535   1.145  2.2205 -0.0030  1.1178
  537MOL0     O72361   6.777   2.526   7.025 -0.1955  0.9683  0.4463
  537MOL0     C72362   6.809   2.415   6.983 -0.3201 -0.3418  0.5495
  537MOL0     O72363   6.727   2.318   6.954 -0.5266  0.4276 -0.1506
  537MOL0     C72364   6.595   2.340   6.970  0.0574  1.3360 -1.0157
  537MOL0     C72365   6.536   2.304   7.089 -0.5496 -0.4273  0.3423
  537MOL0     C72366   6.404   2.318   7.098  1.0139 -1.6769 -0.3726
  537MOL0     C72367   6.321   2.387   7.010 -0.4673 -0.4279  0.6800
  537MOL0     O72368   6.200   2.417   7.065  0.2437  0.0192 -0.1246
  537MOL0     C72369   6.135   2.537   7.006  0.4317  0.3766 -0.7317
  537MOL0     C72370   5.989   2.545   7.050  0.4553 -0.5181  0.3336
  537MOL0     C72371   5.900   2.441   6.968 -0.9004  0.4853 -0.0014
  537MOL0     C72372   5.771   2.411   7.038  0.1074  0.5027  0.3457
  537MOL0     C72373   5.708   2.284   6.971  0.0859  0.1177  0.2233
  537MOL0     C72374   5.631   2.324   6.842  0.0248  0.4143 -0.6638
  537MOL0     C72375   5.549   2.213   6.789  0.2008  0.1611  0.5763
  537MOL0     C72376   5.421   2.185   6.872 -1.4380  0.6190 -0.7903
  537MOL0     N72377   5.314   2.288   6.864 -0.7802 -0.0670  1.1200
  537MOL0     C72378   5.261   2.320   6.742  0.1700  0.2450 -0.2695
  537MOL0     C72379   5.159   2.402   6.771 -0.2975 -0.6797 -0.1820
  537MOL0     C72380   5.062   2.476   6.682 -0.6131 -0.0351 -0.5059
  537MOL0     C72381   5.131   2.608   6.616  0.1394  0.0555 -0.8623
  537MOL0     C72382   5.127   2.725   6.712  0.8620 -0.1509  0.5721
  537MOL0     C72383   4.988   2.756   6.776  0.7174 -1.0189 -0.0601
  537MOL0     O72384   4.890   2.772   6.669  0.7371 -0.0141  0.7057
  537MOL0     C72385   4.758   2.755   6.692  0.8278 -0.2166 -0.1516
  537MOL0     C72386   4.693   2.711   6.806 -0.4687  0.1026 -0.8221
  537MOL0     C72387   4.555   2.696   6.811 -0.8239 -0.7356  0.5466
  537MOL0     C72388   4.490   2.674   6.947  0.0240  0.3081 -0.7748
  537MOL0     C72389   4.479   2.699   6.694 -0.2947 -0.0072  0.0136
  537MOL0     C72390   4.333   2.681   6.688 -0.3154 -1.5666 -0.4720
  537MOL0     O72391   4.260   2.779   6.624 -0.4010 -0.1810 -0.1997
  537MOL0     C72392   4.128   2.764   6.616  0.4330  0.1152 -0.3101
  537MOL0     C72393   4.044   2.855   6.688 -0.6141  0.1984  0.2014
  537MOL0     C72394   3.899   2.843   6.674 -0.1041  0.3471 -0.5447
  537MOL0     C72395   3.837   2.743   6.600  0.0821  0.9534 -0.0924
  537MOL0     O72396   3.706   2.748   6.592 -0.0335  0.1136  0.1974
  537MOL0     C72397   3.619   2.627   6.600  0.1234 -0.6870 -0.2781
  537MOL0     C72398   3.487   2.659   6.532 -0.0302 -0.0865  0.3301
  537MOL0     C72399   3.395   2.769   6.600 -0.4887  0.6614  0.2307
  537MOL0     C72400   3.450   2.910   6.580 -0.3217  0.6341  0.0061
  537MOL0     C72401   3.368   3.024   6.620  0.3943 -0.0083  0.2123
  537MOL0     C72402   3.245   3.047   6.524  0.3087 -0.6325 -1.0564
  537MOL0     C72403   3.154   3.170   6.563 -0.7529  0.5457  0.5207
  537MOL0     C72404   3.026   3.118   6.622  0.2338 -0.2474 -0.8618
  537MOL0    Cl72405   2.928   3.017   6.522 -0.2013 -0.0552 -0.4311
  537MOL0     C72406   3.923   2.652   6.535 -0.4975 -0.2043  0.2982
  537MOL0     C72407   4.069   2.658   6.545  0.3344  0.0643  0.5575
  537MOL0     O72408   4.290   2.586   6.749 -0.1296  0.2775  0.0807
  537MOL0     C72409   4.540   2.736   6.571 -0.4702  0.3327 -0.5285
  537MOL0     C72410   4.675   2.764   6.575  0.1018 -0.2280 -0.6562
  537MOL0     N72411   5.149   2.414   6.906 -0.0079 -0.4172 -0.3727
  537MOL0     N72412   5.237   2.342   6.971  0.0184  0.8672 -0.5033
  537MOL0     C72413   6.386   2.425   6.887 -0.0955  0.4137 -0.0387
  537MOL0     C72414   6.519   2.387   6.867  0.4914  0.5527  0.3314
  537MOL0     C72415   6.958   2.382   6.958 -1.0763 -0.0664 -0.2873
  537MOL0     C72416   6.996   2.249   6.922 -0.1776  0.3373 -0.0427
  537MOL0     C72417   7.130   2.217   6.892 -0.6561  0.2416  0.6502
  537MOL0     C72418   7.226   2.319   6.904  0.5177  0.4122 -0.7214
  537MOL0     O72419   7.343   2.286   6.846  0.8008  0.1039  0.0874
  537MOL0     C72420   7.349   2.297   6.705 -0.3028  0.1895  0.4416
  537MOL0     C72421   7.429   2.415   6.666  0.0921 -0.5190  0.6523
  537MOL0     C72422   7.441   2.444   6.513 -0.6642  0.3519  0.4845
  537MOL0     C72423   7.515   2.318   6.452 -0.4353 -0.3851 -0.8893
  537MOL0     C72424   7.658   2.310   6.491 -0.4159  0.0744  0.1106
  537MOL0     C72425   7.770   2.315   6.537 -0.4712 -0.2303 -0.2935
  537MOL0     C72426   7.191   2.443   6.956  0.7302  0.0383  0.8614
  537MOL0     C72427   7.057   2.468   6.985  1.1268 -2.0091 -0.3192
  537MOL0     H72428   6.599   2.277   7.173  0.2509  1.0604  0.2544
  537MOL0     H72429   6.355   2.290   7.190  1.3833 -0.6912  0.1331
  537MOL0     H72430   6.193   2.624   7.037  1.6821 -0.6834 -0.0242
  537MOL0     H72431   6.130   2.527   6.897 -0.2183 -2.6617 -0.5287
  537MOL0     H72432   5.982   2.532   7.159 -1.9963  1.9467  0.6006
  537MOL0     H72433   5.947   2.641   7.018 -0.6309  0.1827  3.4809
  537MOL0     H72434   5.886   2.483   6.868  1.1074 -2.6248 -1.7524
  537MOL0     H72435   5.950   2.345   6.956 -0.6280  0.0519  3.4742
  537MOL0     H72436   5.802   2.382   7.139  0.7114  1.6062  0.4799
  537MOL0     H72437   5.703   2.496   7.037 -3.2935 -1.9769  1.7629
  537MOL0     H72438   5.769   2.196   6.948 -0.6466 -0.0993 -0.9824
  537MOL0     H72439   5.628   2.245   7.034  0.5514  0.1749  0.8541
  537MOL0     H72440   5.572   2.413   6.863 -0.5930 -0.2581  0.5280
  537MOL0     H72441   5.706   2.346   6.765  2.9507 -1.0787  1.5550
  537MOL0     H72442   5.523   2.254   6.691 -1.8913  3.1037  2.1854
  537MOL0     H72443   5.612   2.126   6.773  1.1048  0.6722  1.2303
  537MOL0     H72444   5.443   2.173   6.979 -1.3642 -0.4059 -0.9122
  537MOL0     H72445   5.386   2.085   6.843 -3.4173  1.0021  0.1254
  537MOL0     H72446   5.295   2.283   6.646 -0.9305 -2.6758  0.3342
  537MOL0     H72447   5.046   2.409   6.596  2.0942 -0.2863 -0.9057
  537MOL0     H72448   4.971   2.490   6.740 -0.5353 -1.2005 -0.0745
  537MOL0     H72449   5.067   2.648   6.536 -1.6979  1.4736  1.2020
  537MOL0     H72450   5.231   2.578   6.581 -0.6392 -0.7496 -2.5409
  537MOL0     H72451   5.148   2.804   6.639  0.1188 -1.2708 -0.8977
  537MOL0     H72452   5.215   2.706   6.774  2.9175 -0.5361 -2.2774
  537MOL0     H72453   4.987   2.849   6.834  0.3519  1.1384 -3.2522
  537MOL0     H72454   4.951   2.665   6.824  0.0493 -1.1776 -0.8605
  537MOL0     H72455   4.758   2.693   6.891 -0.6324 -1.6079 -1.0332
  537MOL0     H72456   4.406   2.734   6.981 -3.1005 -3.8059 -0.4544
  537MOL0     H72457   4.446   2.574   6.958 -0.2747  0.5848  0.7122
  537MOL0     H72458   4.572   2.685   7.019  0.5458  0.6544 -1.4037
  537MOL0     H72459   4.103   2.927   6.743  0.1115  0.3804 -0.7764
  537MOL0     H72460   3.829   2.917   6.711  0.2916  3.0886 -4.5460
  537MOL0     H72461   3.664   2.540   6.550  2.6792  0.1443  0.4146
  537MOL0     H72462   3.598   2.602   6.704 -1.8839 -2.0100 -0.9342
  537MOL0     H72463   3.504   2.685   6.427 -2.2771  3.6580  0.6863
  537MOL0     H72464   3.435   2.563   6.524  3.7126 -2.2859  0.3388
  537MOL0     H72465   3.384   2.750   6.707  1.5055 -0.1529  0.3279
  537MOL0     H72466   3.301   2.767   6.544 -0.2340  2.5440 -0.3479
  537MOL0     H72467   3.540   2.917   6.642 -0.4874 -0.9030  0.4569
  537MOL0     H72468   3.481   2.921   6.476 -0.3432  3.5947  0.2162
  537MOL0     H72469   3.431   3.113   6.619 -2.3201  2.0331 -0.4570
  537MOL0     H72470   3.337   3.016   6.725  4.1741  1.8310  1.6267
  537MOL0     H72471   3.294   3.058   6.427 -1.0219 -1.4464 -1.8622
  537MOL0     H72472   3.178   2.960   6.536  1.1562 -1.3458 -1.3841
  537MOL0     H72473   3.135   3.236   6.478  0.7284 -0.5417 -0.7287
  537MOL0     H72474   3.200   3.235   6.639  0.6351 -0.0478  0.2125
  537MOL0     H72475   2.971   3.209   6.650  2.7433  0.7914  1.1128
  537MOL0     H72476   3.034   3.068   6.718 -2.7275 -1.0706 -0.9518
  537MOL0     H72477   3.886   2.565   6.480  0.6926  1.2024 -3.0429
  537MOL0     H72478   4.132   2.584   6.498 -3.1843 -1.2709 -2.6320
  537MOL0     H72479   4.480   2.740   6.480 -0.9600  0.2032 -0.2148
  537MOL0     H72480   4.726   2.806   6.489  1.3399 -0.4867 -0.0755
  537MOL0     H72481   6.340   2.473   6.802  2.6859  0.7989 -1.4166
  537MOL0     H72482   6.576   2.423   6.782  2.0878  0.4856  1.3282
  537MOL0     H72483   6.927   2.165   6.920 -3.9020  3.1520 -1.4405
  537MOL0     H72484   7.167   2.128   6.843  0.5033  1.1194 -0.1035
  537MOL0     H72485   7.398   2.206   6.668  0.9421  1.2020 -0.5271
  537MOL0     H72486   7.253   2.292   6.653 -0.0019 -3.2808 -0.0788
  537MOL0     H72487   7.527   2.387   6.705 -0.5291 -3.1319  0.5058
  537MOL0     H72488   7.391   2.506   6.715  0.2441 -0.1171  0.0334
  537MOL0     H72489   7.498   2.532   6.482 -4.3172  2.6234 -0.4961
  537MOL0     H72490   7.341   2.457   6.469 -1.4603 -1.4862  1.6543
  537MOL0     H72491   7.517   2.335   6.344  0.9540  0.7905 -0.7043
  537MOL0     H72492   7.464   2.221   6.457  1.2737 -1.3167 -0.9021
  537MOL0     H72493   7.870   2.312   6.573 -0.9181 -0.9040  0.9466
  537MOL0     H72494   7.257   2.528   6.967  1.2194 -0.1396 -0.4633
  537MOL0     H72495   7.045   2.568   7.027 -0.4458 -2.6025  0.6925
  538MOL0     O72496   3.908   5.635  10.261 -0.6573 -0.8108  0.5613
  538MOL0     C72497   3.997   5.641  10.176 -0.2301 -0.2327 -0.4825
  538MOL0     O72498   4.110   5.719  10.192 -0.2079  0.0503  0.7205
  538MOL0     C72499   4.108   5.790  10.318  0.6586 -0.1016 -0.2166
  538MOL0     C72500   4.138   5.726  10.443  0.0123  0.0589 -0.6561
  538MOL0     C72501   4.135   5.793  10.563 -0.5445 -0.1348  0.6730
  538MOL0     C72502   4.111   5.933  10.565 -0.0555  1.0515 -0.4258
  538MOL0     O72503   4.109   6.000  10.685 -0.5459  0.6781  0.9691
  538MOL0     C72504   4.217   5.990  10.775  0.4558  0.8500 -0.5453
  538MOL0     C72505   4.244   6.134  10.834  0.1679  0.4168  0.8549
  538MOL0     C72506   4.239   6.253  10.737  0.9715 -0.1110 -0.1425
  538MOL0     C72507   4.317   6.245  10.606  0.1342 -0.3831  0.2166
  538MOL0     C72508   4.275   6.356  10.503 -1.0043 -0.3950 -0.6502
  538MOL0     C72509   4.360   6.329  10.380 -1.2637 -0.2837  0.4000
  538MOL0     C72510   4.317   6.431  10.281  0.5201 -0.1270 -0.5591
  538MOL0     C72511   4.393   6.420  10.153 -0.5230 -0.2478 -0.5534
  538MOL0     N72512   4.338   6.517  10.050 -0.0664  0.6719 -0.1188
  538MOL0     C72513   4.406   6.523   9.927 -0.3228 -0.6778 -0.4828
  538MOL0     C72514   4.342   6.622   9.865  0.8248 -0.7319  0.1434
  538MOL0     C72515   4.377   6.677   9.725 -0.0264 -0.8576  0.6086
  538MOL0     C72516   4.412   6.835   9.724  0.4162 -0.4734  0.2729
  538MOL0     C72517   4.493   6.889   9.608  0.1088 -0.8276  0.2695
  538MOL0     C72518   4.557   7.025   9.639 -0.2236 -0.0149 -0.7241
  538MOL0     O72519   4.646   7.024   9.756 -0.2097  0.3327 -0.4431
  538MOL0     C72520   4.726   7.140   9.772  0.4731  0.8151 -0.3878
  538MOL0     C72521   4.674   7.257   9.742 -0.2904  0.8607  0.3362
  538MOL0     C72522   4.760   7.368   9.717  0.2606  0.8103 -0.2698
  538MOL0     C72523   4.694   7.491   9.656  0.3216 -0.6455  0.1354
  538MOL0     C72524   4.902   7.355   9.738 -0.2129  0.2738 -0.7703
  538MOL0     C72525   4.995   7.466   9.716 -0.8021  0.4304  0.1089
  538MOL0     O72526   5.100   7.437   9.634 -0.3320  0.1719  0.0147
  538MOL0     C72527   5.175   7.533   9.583  0.3016 -0.3288 -0.3452
  538MOL0     C72528   5.312   7.529   9.582 -0.1374  1.0427  0.5907
  538MOL0     C72529   5.395   7.626   9.534 -0.1379 -0.0765 -0.0863
  538MOL0     C72530   5.328   7.740   9.485 -0.4066 -0.2793  0.8397
  538MOL0     O72531   5.386   7.854   9.438 -0.4530 -0.6534 -0.0025
  538MOL0     C72532   5.491   7.821   9.345  0.2863 -0.2527  0.1832
  538MOL0     C72533   5.509   7.936   9.239 -0.3704 -0.6768 -0.6721
  538MOL0     C72534   5.405   7.940   9.138  0.1229 -0.5416  0.1395
  538MOL0     C72535   5.442   8.016   9.008 -0.0941 -0.8701  0.4528
  538MOL0     C72536   5.327   7.994   8.905 -0.2954  0.1771 -0.6393
  538MOL0     C72537   5.371   8.053   8.767  0.5193 -0.3539  0.9407
  538MOL0     C72538   5.253   8.062   8.666 -0.9379  0.9588 -0.2808
  538MOL0     C72539   5.313   8.115   8.534  0.4299  0.4501  0.4069
  538MOL0    Cl72540   5.385   7.966   8.464 -0.2864 -0.1592  0.2430
  538MOL0     C72541   5.189   7.751   9.483 -0.6001 -0.0800  0.7727
  538MOL0     C72542   5.115   7.644   9.516  0.0654  0.8693  0.6378
  538MOL0     O72543   4.981   7.566   9.791 -0.0960  0.2331  0.3381
  538MOL0     C72544   4.944   7.234   9.810  0.3566  0.1123  0.7903
  538MOL0     C72545   4.856   7.125   9.818 -0.0131 -0.3019  0.9883
  538MOL0     N72546   4.235   6.663   9.940  0.3895 -0.3297  1.0092
  538MOL0     N72547   4.230   6.599  10.048 -0.1564 -0.0419 -0.1269
  538MOL0     C72548   4.069   5.989  10.442  1.0244 -0.1015  0.3260
  538MOL0     C72549   4.085   5.929  10.318  0.8379 -0.1784  0.5829
  538MOL0     C72550   3.995   5.559  10.056 -0.4776 -0.7907 -0.2301
  538MOL0     C72551   3.882   5.486  10.048  0.3241  0.3707  1.5054
  538MOL0     C72552   3.874   5.388   9.952 -0.3614  0.6541 -0.3392
  538MOL0     C72553   3.970   5.366   9.853 -0.6942 -0.0374 -0.1125
  538MOL0     O72554   3.940   5.275   9.749 -0.1532  1.2164 -0.2067
  538MOL0     C72555   3.974   5.306   9.615  0.3935  0.5596 -0.8293
  538MOL0     C72556   4.062   5.177   9.594  0.6192 -0.6933  0.0800
  538MOL0     C72557   4.109   5.184   9.444  0.2268  0.3804  1.1828
  538MOL0     C72558   4.194   5.308   9.413 -0.5185 -0.2761  0.0469
  538MOL0     C72559   4.260   5.300   9.281 -0.2091  0.9562 -1.2646
  538MOL0     C72560   4.306   5.283   9.173 -0.0328  0.0616 -0.1421
  538MOL0     C72561   4.095   5.429   9.879 -0.5483 -0.6934 -0.2353
  538MOL0     C72562   4.100   5.528   9.975 -0.7392  0.0110 -0.2119
  538MOL0     H72563   4.146   5.617  10.443 -2.1168 -0.1660  1.0236
  538MOL0     H72564   4.151   5.740  10.656  2.7952  0.9093  0.8319
  538MOL0     H72565   4.192   5.926  10.860  0.9154 -0.3998 -1.3228
  538MOL0     H72566   4.311   5.959  10.730 -0.2873 -1.4970 -0.6136
  538MOL0     H72567   4.172   6.144  10.915 -1.0387 -0.5764 -0.0444
  538MOL0     H72568   4.346   6.124  10.871  0.1205 -0.0494  0.8687
  538MOL0     H72569   4.134   6.278  10.723  0.7056 -1.2538 -0.2761
  538MOL0     H72570   4.266   6.349  10.783 -2.0477  0.3416  0.9350
  538MOL0     H72571   4.422   6.262  10.633 -0.1599 -2.3557  3.0037
  538MOL0     H72572   4.294   6.148  10.560 -2.2095  1.2969 -2.5405
  538MOL0     H72573   4.170   6.339  10.478 -1.4183 -0.1636  0.8595
  538MOL0     H72574   4.294   6.457  10.540 -0.4351 -0.2058 -1.4314
  538MOL0     H72575   4.466   6.350  10.398 -0.9482 -0.1699 -1.4085
  538MOL0     H72576   4.345   6.227  10.343 -2.4415  0.3809 -1.0206
  538MOL0     H72577   4.212   6.405  10.262  1.4981 -4.4144 -1.3094
  538MOL0     H72578   4.320   6.537  10.308 -2.3639  0.5803 -2.5219
  538MOL0     H72579   4.383   6.321  10.107 -1.7878 -0.9841  1.1671
  538MOL0     H72580   4.499   6.437  10.171 -0.5748 -1.4108  1.1736
  538MOL0     H72581   4.497   6.473   9.894  0.6284 -0.5565  1.7950
  538MOL0     H72582   4.464   6.617   9.698  0.7778 -0.0427  1.3354
  538MOL0     H72583   4.296   6.658   9.654 -0.1767  0.4621  0.4120
  538MOL0     H72584   4.456   6.847   9.824 -1.8380 -2.4747  1.6251
  538MOL0     H72585   4.310   6.874   9.721  0.3998 -0.6013 -2.4148
  538MOL0     H72586   4.433   6.902   9.517  0.7201  0.1079 -0.0148
  538MOL0     H72587   4.580   6.826   9.589  0.0985 -0.2828 -1.8063
  538MOL0     H72588   4.476   7.097   9.654  1.9457  2.3183  0.6155
  538MOL0     H72589   4.606   7.044   9.543  0.8553  2.1264  0.1829
  538MOL0     H72590   4.568   7.265   9.717 -0.3677 -1.2371 -0.2253
  538MOL0     H72591   4.698   7.584   9.714  0.2464 -0.3761 -0.2883
  538MOL0     H72592   4.746   7.497   9.560  3.1182 -1.7888  1.4615
  538MOL0     H72593   4.594   7.458   9.626  0.2478 -1.8023  1.4963
  538MOL0     H72594   5.350   7.435   9.619 -1.6473  0.1344 -0.0849
  538MOL0     H72595   5.502   7.616   9.550 -0.2037  1.4448  1.6754
  538MOL0     H72596   5.586   7.802   9.396 -0.5954 -1.3181  1.4798
  538MOL0     H72597   5.463   7.729   9.293 -0.8500  0.2056 -0.0295
  538MOL0     H72598   5.511   8.038   9.278  0.2516 -1.3294  1.1247
  538MOL0     H72599   5.599   7.902   9.186 -1.4478 -2.0594 -1.6983
  538MOL0     H72600   5.313   7.968   9.191  0.9470  2.1577  0.2931
  538MOL0     H72601   5.394   7.835   9.108  0.1855 -0.1944 -1.1203
  538MOL0     H72602   5.451   8.119   9.045  0.9030  0.1924 -2.4728
  538MOL0     H72603   5.544   7.991   8.975  0.4970  0.9985  0.7546
  538MOL0     H72604   5.234   8.042   8.937  1.3446  2.5255  0.9082
  538MOL0     H72605   5.322   7.886   8.886  3.2710 -0.5057  1.3460
  538MOL0     H72606   5.420   8.150   8.780 -3.2342  1.6852  1.5221
  538MOL0     H72607   5.448   7.990   8.722 -0.1451  0.2066 -1.0701
  538MOL0     H72608   5.171   8.127   8.699  0.2501  0.6594  3.8527
  538MOL0     H72609   5.211   7.965   8.637  1.8134  0.2947 -2.4557
  538MOL0     H72610   5.392   8.188   8.555  0.3745  0.4926  0.4612
  538MOL0     H72611   5.238   8.163   8.471  0.6397 -1.9512 -1.8587
  538MOL0     H72612   5.152   7.847   9.449 -0.4058 -0.6248 -1.0751
  538MOL0     H72613   5.007   7.638   9.506 -0.0765 -0.3716  2.4376
  538MOL0     H72614   5.048   7.231   9.841  0.5372 -0.6912  0.1444
  538MOL0     H72615   4.892   7.027   9.845  1.2384 -0.0455  0.3594
  538MOL0     H72616   4.034   6.090  10.421 -2.0643 -1.3618 -1.2558
  538MOL0     H72617   4.068   5.990  10.229  0.5599  0.0406  0.7834
  538MOL0     H72618   3.790   5.515  10.098 -1.2352  0.3546 -1.1959
  538MOL0     H72619   3.779   5.338   9.935  0.0745 -0.3483  0.1730
  538MOL0     H72620   3.885   5.315   9.551  1.1251 -3.2168 -2.6650
  538MOL0     H72621   4.020   5.405   9.618  0.1881  0.6229  1.0390
  538MOL0     H72622   4.002   5.088   9.611 -1.9869  0.8760 -0.3510
  538MOL0     H72623   4.147   5.186   9.663  0.3675 -0.1607  0.3275
  538MOL0     H72624   4.024   5.182   9.376  1.1776 -1.0134 -0.0273
  538MOL0     H72625   4.154   5.091   9.408 -1.7952  0.4250 -1.8332
  538MOL0     H72626   4.269   5.315   9.492  2.0401 -2.5257 -1.9989
  538MOL0     H72627   4.129   5.396   9.416 -0.1364  0.0516 -0.7797
  538MOL0     H72628   4.343   5.279   9.072  1.3414  0.3086  0.3350
  538MOL0     H72629   4.170   5.392   9.810 -1.1337 -0.5631 -0.9571
  538MOL0     H72630   4.194   5.581   9.983 -0.2097 -0.2083 -3.7313
  539MOL0     O72631   6.923  10.864   4.890  0.4464  0.1662 -0.3645
  539MOL0     C72632   6.833  10.796   4.836 -0.6541 -0.0536  0.3502
  539MOL0     O72633   6.842  10.737   4.717  0.1287  0.0882 -0.9706
  539MOL0     C72634   6.961  10.778   4.643 -0.5416  0.5290  0.3404
  539MOL0     C72635   7.062  10.687   4.611  0.8698  0.2828 -0.3448
  539MOL0     C72636   7.173  10.712   4.536 -1.4723 -0.1910 -0.5207
  539MOL0     C72637   7.205  10.836   4.508  0.1583 -0.0616 -0.1748
  539MOL0     O72638   7.325  10.846   4.435  0.3451 -0.1716 -0.5597
  539MOL0     C72639   7.350  10.973   4.372  0.3584 -0.0375  0.8793
  539MOL0     C72640   7.496  10.965   4.322 -0.4015 -0.2447 -0.7410
  539MOL0     C72641   7.596  10.904   4.429  0.6698  0.5931  0.1728
  539MOL0     C72642   7.740  10.947   4.379 -0.2520  0.8973 -0.6765
  539MOL0     C72643   7.765  10.882   4.229  0.2895  0.0407 -0.2102
  539MOL0     C72644   7.905  10.905   4.177  1.0007  0.1910  0.9600
  539MOL0     C72645   7.950  10.830   4.054 -0.0137 -0.5185  0.6076
  539MOL0     C72646   8.096  10.810   4.042  0.3915 -0.3762 -0.6081
  539MOL0     N72647   8.161  10.723   4.140 -0.1713  0.6321  0.6075
  539MOL0     C72648   8.101  10.647   4.240 -0.7212  0.7367 -0.1063
  539MOL0     C72649   8.208  10.561   4.279  0.3282  0.2801  0.4876
  539MOL0     C72650   8.196  10.447   4.368 -0.0555 -0.0752 -1.6053
  539MOL0     C72651   8.339  10.413   4.430 -0.3001  0.3888 -1.1972
  539MOL0     C72652   8.318  10.338   4.558  0.0514 -0.0973 -1.0633
  539MOL0     C72653   8.267  10.404   4.683 -0.3563  0.2187 -0.3078
  539MOL0     O72654   8.337  10.521   4.718  0.7601 -0.6856 -0.0524
  539MOL0     C72655   8.338  10.552   4.855 -0.0110 -0.3862 -0.3833
  539MOL0     C72656   8.256  10.506   4.957 -0.3310 -0.2345 -0.1380
  539MOL0     C72657   8.272  10.551   5.087 -0.0567  1.1421 -0.7279
  539MOL0     C72658   8.174  10.489   5.191 -0.3230 -0.6426  0.6859
  539MOL0     C72659   8.371  10.653   5.123  0.3476  0.0838  0.2826
  539MOL0     C72660   8.380  10.712   5.262 -1.0584  0.3934  0.2210
  539MOL0     O72661   8.485  10.801   5.274  0.5998  0.1965 -0.1227
  539MOL0     C72662   8.488  10.901   5.369 -0.1828  0.4438 -0.3119
  539MOL0     C72663   8.606  10.955   5.417  0.1568  0.1163 -0.4554
  539MOL0     C72664   8.610  11.063   5.501 -0.1620 -0.0267  0.0694
  539MOL0     C72665   8.494  11.135   5.525  0.7694  0.8496 -0.6503
  539MOL0     O72666   8.478  11.253   5.574 -0.3067 -0.9242  0.0242
  539MOL0     C72667   8.545  11.288   5.696 -0.2265 -0.3962  0.1815
  539MOL0     C72668   8.567  11.434   5.688 -0.4808 -0.2478 -0.1071
  539MOL0     C72669   8.680  11.483   5.777 -0.9803  0.2936  0.1225
  539MOL0     C72670   8.640  11.502   5.920 -0.3673  0.1130  0.0902
  539MOL0     C72671   8.749  11.560   6.007 -0.4681  0.3792 -0.4408
  539MOL0     C72672   8.862  11.469   6.055 -0.0824  0.3922  0.8485
  539MOL0     C72673   8.975  11.526   6.142 -0.2486  0.1007  0.0201
  539MOL0     C72674   9.081  11.622   6.080 -0.7229 -0.2861  0.2444
  539MOL0    Cl72675   9.237  11.522   6.091  0.2259 -0.0531 -0.0594
  539MOL0     C72676   8.366  11.078   5.488  0.0236  0.2244  0.0807
  539MOL0     C72677   8.369  10.959   5.417 -0.6429  0.2396 -0.1325
  539MOL0     O72678   8.314  10.669   5.356  0.5595 -1.1266 -0.5181
  539MOL0     C72679   8.458  10.695   5.026  0.2837  0.3389 -0.1888
  539MOL0     C72680   8.444  10.641   4.894 -0.8571  0.3931  0.1444
  539MOL0     N72681   8.320  10.589   4.205 -0.0540  0.2722 -0.1903
  539MOL0     N72682   8.292  10.686   4.128 -0.1303 -0.4861  0.2290
  539MOL0     C72683   7.117  10.947   4.543 -0.0524  0.0245  0.0465
  539MOL0     C72684   6.996  10.914   4.612  0.6100  0.1183 -0.3689
  539MOL0     C72685   6.717  10.793   4.920 -1.0297 -0.5604  0.2819
  539MOL0     C72686   6.688  10.883   5.026  0.3739 -0.1068  0.6123
  539MOL0     C72687   6.578  10.859   5.116  0.7063 -0.2978  0.2486
  539MOL0     C72688   6.496  10.745   5.107  0.8002  0.1185 -0.0000
  539MOL0     O72689   6.393  10.710   5.178 -1.4888 -0.0775 -0.2357
  539MOL0     C72690   6.343  10.795   5.282  0.3085 -0.1325  0.0602
  539MOL0     C72691   6.190  10.777   5.289 -0.2372  0.8895  0.6767
  539MOL0     C72692   6.116  10.848   5.405 -0.1578 -0.4295  0.3307
  539MOL0     C72693   6.192  10.850   5.540 -0.4206  0.1452  0.3900
  539MOL0     C72694   6.129  10.881   5.673 -0.0777  0.6262  1.0640
  539MOL0     C72695   6.085  10.902   5.783  0.7475  0.1685 -0.4141
  539MOL0     C72696   6.538  10.653   5.011  0.4126 -0.0011  1.2852
  539MOL0     C72697   6.645  10.676   4.917  0.2937  0.8892  0.0276
  539MOL0     H72698   7.038  10.584   4.637  1.1893  0.4825  0.7712
  539MOL0     H72699   7.251  10.643   4.505 -1.2511  0.5675 -1.7534
  539MOL0     H72700   7.296  10.982   4.278  0.6405  0.5952  0.7743
  539MOL0     H72701   7.338  11.059   4.438  1.2338  0.7663  0.0260
  539MOL0     H72702   7.480  10.907   4.231 -1.3069  0.2440 -0.9066
  539MOL0     H72703   7.532  11.066   4.303  2.5235 -1.1664 -0.5870
  539MOL0     H72704   7.583  10.945   4.529  1.7017  0.1215  0.5198
  539MOL0     H72705   7.577  10.797   4.442 -3.5332  1.1966  0.3053
  539MOL0     H72706   7.753  11.056   4.373  0.0534  0.8063 -1.9399
  539MOL0     H72707   7.819  10.907   4.443 -0.0746  0.2697 -1.2804
  539MOL0     H72708   7.751  10.774   4.229 -0.9208  0.1417 -2.2741
  539MOL0     H72709   7.706  10.918   4.144  1.8414 -5.6362 -4.2824
  539MOL0     H72710   7.925  11.011   4.162  1.5825 -0.0107  0.2470
  539MOL0     H72711   7.970  10.875   4.260  2.9754 -0.8705 -0.8794
  539MOL0     H72712   7.908  10.729   4.054 -4.2390  1.0421  1.3654
  539MOL0     H72713   7.923  10.893   3.968  1.0358 -1.1707 -0.2186
  539MOL0     H72714   8.143  10.909   4.054  1.5685 -1.0438  0.5594
  539MOL0     H72715   8.113  10.774   3.940  0.7539  1.2195 -1.1416
  539MOL0     H72716   7.999  10.630   4.271 -0.4985 -0.5257 -0.0117
  539MOL0     H72717   8.119  10.474   4.442  1.0723 -0.8288 -0.1148
  539MOL0     H72718   8.169  10.359   4.309 -0.0603  0.0430 -1.7819
  539MOL0     H72719   8.410  10.497   4.430 -0.5066  0.5861 -2.7197
  539MOL0     H72720   8.376  10.337   4.361 -1.5033 -0.4851 -0.9108
  539MOL0     H72721   8.418  10.305   4.587  0.5181  2.1032  0.0651
  539MOL0     H72722   8.253  10.254   4.533 -1.0231  0.7815 -1.2902
  539MOL0     H72723   8.271  10.321   4.754 -1.1437  0.3053 -0.1522
  539MOL0     H72724   8.160  10.429   4.677 -0.4114  1.0176  2.2712
  539MOL0     H72725   8.166  10.450   4.932 -0.8650  1.4045 -2.1719
  539MOL0     H72726   8.115  10.409   5.146 -1.6250  1.1324 -0.9562
  539MOL0     H72727   8.232  10.445   5.272  1.2151  0.2903  0.1248
  539MOL0     H72728   8.110  10.571   5.227  1.3484  1.2209 -0.4040
  539MOL0     H72729   8.697  10.929   5.363 -1.2729 -0.0150 -2.9694
  539MOL0     H72730   8.708  11.102   5.526 -1.1045  2.0167  0.7605
  539MOL0     H72731   8.480  11.272   5.782 -2.5124  2.0817 -0.9420
  539MOL0     H72732   8.641  11.239   5.712 -0.1413  0.1510  1.4846
  539MOL0     H72733   8.599  11.453   5.585  2.4924 -1.9738  0.3993
  539MOL0     H72734   8.474  11.485   5.715 -0.3152  1.1380 -1.9715
  539MOL0     H72735   8.722  11.577   5.741  2.0407 -0.6999  0.7330
  539MOL0     H72736   8.768  11.420   5.764  0.8966  2.7378  0.2678
  539MOL0     H72737   8.554  11.570   5.930  0.8470  1.4823  2.0772
  539MOL0     H72738   8.620  11.399   5.950 -0.3069 -0.3239 -1.3101
  539MOL0     H72739   8.708  11.592   6.103  0.7162 -1.3768  0.7225
  539MOL0     H72740   8.792  11.648   5.958 -0.3519  0.7640  0.3477
  539MOL0     H72741   8.819  11.380   6.103  2.0734 -0.6715  0.9458
  539MOL0     H72742   8.910  11.434   5.962  2.9634  0.6490  2.2113
  539MOL0     H72743   9.030  11.438   6.177  0.4624  1.2913  2.1011
  539MOL0     H72744   8.933  11.559   6.237  0.2007  0.5496  0.0652
  539MOL0     H72745   9.102  11.702   6.151 -0.8247 -1.9723  2.2921
  539MOL0     H72746   9.072  11.668   5.981 -0.9908 -0.5065  0.1631
  539MOL0     H72747   8.278  11.135   5.514  0.0979  1.3054 -1.8475
  539MOL0     H72748   8.273  10.913   5.395  1.0710 -3.2693 -1.0341
  539MOL0     H72749   8.543  10.750   5.064  0.8043 -0.2185 -0.5326
  539MOL0     H72750   8.517  10.668   4.818 -0.7804  0.8571  0.3804
  539MOL0     H72751   7.142  11.048   4.513  1.9034 -0.5271 -0.3226
  539MOL0     H72752   6.926  10.996   4.618 -1.4599 -1.5674 -0.3055
  539MOL0     H72753   6.752  10.970   5.031  1.2477 -0.6230 -1.0568
  539MOL0     H72754   6.555  10.930   5.194 -0.6365  0.7062 -1.0111
  539MOL0     H72755   6.394  10.763   5.374  0.6549 -2.4680 -0.8769
  539MOL0     H72756   6.374  10.898   5.262 -0.4637 -0.1887 -1.6271
  539MOL0     H72757   6.171  10.669   5.282  2.9108  0.3478 -1.5464
  539MOL0     H72758   6.153  10.829   5.201  2.1417 -0.8061 -1.4699
  539MOL0     H72759   6.017  10.800   5.406  0.0851 -1.0792 -1.9309
  539MOL0     H72760   6.098  10.955   5.390 -1.3652 -0.6666 -0.0418
  539MOL0     H72761   6.276  10.920   5.528 -0.5314  0.2574  0.2601
  539MOL0     H72762   6.213  10.745   5.563 -0.8496 -0.2188 -0.8156
  539MOL0     H72763   6.053  10.921   5.883 -0.7545  0.0170 -0.8422
  539MOL0     H72764   6.476  10.565   5.018  0.2641 -0.1467 -1.1163
  539MOL0     H72765   6.681  10.603   4.844  1.0089 -0.0689  1.3007
  540MOL0     O72766  10.280   1.730   4.586 -0.1845 -0.7257  0.1580
  540MOL0     C72767  10.210   1.832   4.583 -0.5524 -0.8345 -0.5271
  540MOL0     O72768  10.093   1.845   4.654 -0.3526  0.2738 -0.1077
  540MOL0     C72769  10.063   1.735   4.716 -0.3014  0.5859  0.3546
  540MOL0     C72770  10.041   1.745   4.855  0.2866 -0.6781  1.3494
  540MOL0     C72771  10.003   1.633   4.933  0.5689  0.4512  0.1603
  540MOL0     C72772   9.967   1.518   4.860  0.3130  1.1863 -0.4497
  540MOL0     O72773   9.921   1.407   4.931 -0.4307  0.1906  0.0435
  540MOL0     C72774  10.011   1.357   5.034 -0.2932  0.7478 -0.3279
  540MOL0     C72775   9.951   1.220   5.081 -0.2856  0.6365  0.1765
  540MOL0     C72776   9.826   1.225   5.170 -0.1314  0.1998  0.1435
  540MOL0     C72777   9.734   1.092   5.160 -0.1246 -0.2658  0.3018
  540MOL0     C72778   9.636   1.076   5.272 -0.3206  0.3783  0.7308
  540MOL0     C72779   9.550   0.947   5.253  0.1490 -0.3682 -0.7394
  540MOL0     C72780   9.485   0.910   5.380 -0.3559  0.1541  0.0757
  540MOL0     C72781   9.372   0.825   5.366 -0.6967  0.5587 -0.3363
  540MOL0     N72782   9.247   0.887   5.347  0.0341 -0.3033  0.3401
  540MOL0     C72783   9.131   0.817   5.346 -0.0093 -0.5450 -0.3165
  540MOL0     C72784   9.038   0.903   5.301  0.4480  0.3606 -0.1570
  540MOL0     C72785   8.890   0.888   5.277 -1.0989 -0.2754  0.6316
  540MOL0     C72786   8.807   0.863   5.409 -0.3908  0.4963  0.5688
  540MOL0     C72787   8.771   0.714   5.422 -0.0289 -0.3227  0.7288
  540MOL0     C72788   8.702   0.680   5.557  0.9804  0.7704 -0.4889
  540MOL0     O72789   8.556   0.648   5.537 -0.4413 -0.1983  0.0642
  540MOL0     C72790   8.451   0.735   5.538  0.9213  0.1452  1.8549
  540MOL0     C72791   8.324   0.686   5.489  0.0474 -0.1779 -0.4256
  540MOL0     C72792   8.200   0.761   5.487 -0.7213  0.3357  0.5757
  540MOL0     C72793   8.066   0.697   5.442 -0.6443  0.2655  0.2943
  540MOL0     C72794   8.205   0.897   5.520 -0.1361  0.0988  0.6703
  540MOL0     C72795   8.076   0.983   5.531  0.0716 -0.4312  0.7025
  540MOL0     O72796   8.096   1.124   5.527  0.0631 -0.0985  0.6530
  540MOL0     C72797   7.996   1.199   5.568  0.5588 -0.1783  0.0279
  540MOL0     C72798   7.889   1.235   5.489 -0.3557  0.2205  0.0601
  540MOL0     C72799   7.785   1.324   5.535  0.4365  0.1690 -0.4598
  540MOL0     C72800   7.788   1.373   5.665 -0.4799  0.8969 -1.0136
  540MOL0     O72801   7.691   1.456   5.700 -0.0876 -0.8833  0.3299
  540MOL0     C72802   7.578   1.384   5.755  0.5767  0.0977  0.3918
  540MOL0     C72803   7.601   1.348   5.901  0.6791 -0.1614 -0.6959
  540MOL0     C72804   7.477   1.289   5.981  0.1068  0.4580  0.2211
  540MOL0     C72805   7.525   1.231   6.112  0.4784 -0.5114 -0.0315
  540MOL0     C72806   7.411   1.185   6.201  0.1905 -0.4099  1.0683
  540MOL0     C72807   7.373   1.319   6.280 -0.3073 -0.3866 -0.0667
  540MOL0     C72808   7.223   1.310   6.314 -0.1800  0.0961  0.3598
  540MOL0     C72809   7.137   1.441   6.312  0.0204  0.8607 -0.0403
  540MOL0    Cl72810   7.177   1.548   6.171 -0.2200 -0.2854  0.2532
  540MOL0     C72811   7.893   1.343   5.751 -0.5895  0.9884 -0.7623
  540MOL0     C72812   7.990   1.253   5.697 -0.6714 -0.1494 -0.1630
  540MOL0     O72813   7.965   0.930   5.539  0.3045 -0.6169 -0.4836
  540MOL0     C72814   8.328   0.954   5.562  0.1083  0.4263  0.6154
  540MOL0     C72815   8.444   0.868   5.568 -0.2265  0.0045 -0.3925
  540MOL0     N72816   9.096   1.019   5.263 -0.3747 -0.4057 -0.2440
  540MOL0     N72817   9.227   1.012   5.292 -0.7109  0.1259 -0.1781
  540MOL0     C72818   9.995   1.497   4.726  0.0591  0.1375  0.5102
  540MOL0     C72819  10.051   1.611   4.655 -0.3482  0.0190 -0.0531
  540MOL0     C72820  10.254   1.954   4.509 -0.0801 -0.7314 -0.9410
  540MOL0     C72821  10.165   2.065   4.487  0.0307  0.4740  0.0571
  540MOL0     C72822  10.206   2.178   4.422 -0.4021  0.1781 -0.6759
  540MOL0     C72823  10.341   2.186   4.376  0.0800  0.1629  0.5371
  540MOL0     O72824  10.382   2.303   4.313 -0.3921  0.1717  0.3917
  540MOL0     C72825  10.420   2.263   4.179  0.2877 -0.4166 -0.1723
  540MOL0     C72826  10.301   2.224   4.090  0.6566 -0.1345  0.5772
  540MOL0     C72827  10.196   2.324   4.010 -0.4464 -0.8613 -0.0752
  540MOL0     C72828  10.091   2.384   4.104 -0.5311  0.0973 -0.3419
  540MOL0     C72829   9.991   2.285   4.113  0.3149  0.0527  0.7478
  540MOL0     C72830   9.901   2.201   4.122  0.3997 -0.1192  0.7685
  540MOL0     C72831  10.428   2.076   4.403 -0.0932 -0.5993  0.3444
  540MOL0     C72832  10.387   1.966   4.470 -0.3811  0.0450  0.0608
  540MOL0     H72833  10.053   1.843   4.900 -0.2992 -0.1547  0.4033
  540MOL0     H72834   9.991   1.634   5.041  0.8625  0.3485  0.1959
  540MOL0     H72835  10.113   1.340   4.995 -0.1921 -2.3978  1.0089
  540MOL0     H72836  10.012   1.425   5.119 -0.3478 -2.2669  2.3071
  540MOL0     H72837   9.930   1.158   4.994  1.1852  0.6503 -0.2200
  540MOL0     H72838  10.031   1.167   5.133  1.4834  1.7070 -1.3138
  540MOL0     H72839   9.877   1.232   5.266 -0.9898  0.9657  0.5556
  540MOL0     H72840   9.770   1.317   5.148  2.3388  1.1549 -3.0120
  540MOL0     H72841   9.671   1.101   5.071 -0.9936  1.1211  1.0072
  540MOL0     H72842   9.807   1.011   5.151  1.5802  0.6761  3.7606
  540MOL0     H72843   9.695   1.066   5.364 -1.0306 -1.8813  1.0141
  540MOL0     H72844   9.577   1.166   5.255 -1.0424 -0.1598  0.3439
  540MOL0     H72845   9.471   0.972   5.182 -0.6040  0.2964  0.3108
  540MOL0     H72846   9.600   0.858   5.213 -0.8877 -1.6571  0.7469
  540MOL0     H72847   9.560   0.851   5.434 -0.8876  0.1845  0.8483
  540MOL0     H72848   9.441   0.997   5.429 -3.1444 -0.3205 -1.3754
  540MOL0     H72849   9.368   0.775   5.463 -0.0501  0.8128 -0.1734
  540MOL0     H72850   9.392   0.747   5.292  0.9303  0.8123 -0.2180
  540MOL0     H72851   9.108   0.716   5.378 -2.5517 -0.5248 -1.8270
  540MOL0     H72852   8.863   0.981   5.227  0.7328  0.9035  1.7418
  540MOL0     H72853   8.872   0.814   5.198  1.3012  1.4634 -1.7354
  540MOL0     H72854   8.713   0.918   5.395 -0.7918 -0.1160  0.8274
  540MOL0     H72855   8.860   0.891   5.500  2.4734 -0.8382 -0.5621
  540MOL0     H72856   8.863   0.655   5.418 -0.4961 -1.0572  0.5784
  540MOL0     H72857   8.714   0.676   5.336 -1.8315  0.7821  1.3781
  540MOL0     H72858   8.729   0.751   5.635  0.8058  1.9409 -1.4626
  540MOL0     H72859   8.739   0.583   5.591  3.3341  1.4826 -0.8745
  540MOL0     H72860   8.302   0.583   5.465 -2.6490 -0.5571  2.8680
  540MOL0     H72861   8.019   0.649   5.528 -2.4541 -0.7814 -1.2205
  540MOL0     H72862   7.997   0.768   5.396 -1.4344 -0.2741  0.6329
  540MOL0     H72863   8.083   0.613   5.374  1.6366  0.7315  0.1907
  540MOL0     H72864   7.882   1.198   5.387 -2.1213  0.0954  0.1896
  540MOL0     H72865   7.702   1.353   5.472  0.6291 -0.1807 -0.8837
  540MOL0     H72866   7.501   1.461   5.760  1.8399  1.2985  2.7658
  540MOL0     H72867   7.551   1.296   5.695  0.2316 -1.3557  2.5559
  540MOL0     H72868   7.676   1.269   5.892 -0.3902 -1.1162 -1.5590
  540MOL0     H72869   7.641   1.436   5.953  2.0617 -2.5312  2.6140
  540MOL0     H72870   7.444   1.210   5.914  2.5102  1.4372 -2.3044
  540MOL0     H72871   7.395   1.357   6.005 -0.0925 -0.9113  4.2591
  540MOL0     H72872   7.575   1.142   6.071 -1.0441 -0.6927 -1.6517
  540MOL0     H72873   7.600   1.293   6.163  0.6240  1.2933 -2.2386
  540MOL0     H72874   7.435   1.096   6.261 -0.1260  0.5944  2.7597
  540MOL0     H72875   7.317   1.162   6.151 -0.8121 -0.4012  2.8419
  540MOL0     H72876   7.430   1.342   6.371 -3.5325 -1.3843  2.3952
  540MOL0     H72877   7.393   1.396   6.206  4.1517 -2.4677 -1.3593
  540MOL0     H72878   7.209   1.269   6.414 -5.4900  0.2879 -0.0572
  540MOL0     H72879   7.168   1.245   6.246  2.7578 -0.2356 -1.9189
  540MOL0     H72880   7.154   1.495   6.406  3.3588 -1.2128  0.7392
  540MOL0     H72881   7.032   1.412   6.305  0.3160 -0.2544 -0.0445
  540MOL0     H72882   7.898   1.370   5.856  1.2185  0.8197 -0.7850
  540MOL0     H72883   8.066   1.207   5.761  0.0981 -2.2362 -2.4289
  540MOL0     H72884   8.328   1.050   5.612  0.4182  0.0974  1.2531
  540MOL0     H72885   8.533   0.910   5.613  0.0637  0.4468 -1.3591
  540MOL0     H72886   9.994   1.396   4.686 -0.3750  0.6533 -0.8344
  540MOL0     H72887  10.090   1.593   4.555  0.5360 -0.4936  0.3695
  540MOL0     H72888  10.070   2.071   4.539  1.8933 -0.5677  3.9270
  540MOL0     H72889  10.144   2.267   4.416 -1.5588 -0.6527 -1.6637
  540MOL0     H72890  10.463   2.355   4.138 -0.1402  0.1348  0.5840
  540MOL0     H72891  10.488   2.178   4.192 -1.2671 -1.3529  2.8529
  540MOL0     H72892  10.236   2.159   4.149  0.6387 -0.4160  0.2504
  540MOL0     H72893  10.345   2.160   4.012  2.7691  1.6073  0.2194
  540MOL0     H72894  10.152   2.274   3.923 -0.2576  0.8198 -1.2084
  540MOL0     H72895  10.253   2.407   3.966 -1.7177 -0.6973 -1.4940
  540MOL0     H72896  10.052   2.480   4.069  0.7473  0.1802 -1.6858
  540MOL0     H72897  10.135   2.397   4.203 -2.4108 -2.3583  0.9003
  540MOL0     H72898   9.810   2.153   4.151  0.6992 -1.0068  0.3056
  540MOL0     H72899  10.533   2.073   4.376 -1.2046 -4.5448 -5.5537
  540MOL0     H72900  10.464   1.892   4.488  0.1908  0.9108  1.3234
  541MOL0     O72901   5.710   4.857   7.182  0.9184  0.6706  1.0278
  541MOL0     C72902   5.674   4.929   7.089 -0.3401  0.5563 -0.5809
  541MOL0     O72903   5.586   5.040   7.096 -0.4985  0.1513  0.2380
  541MOL0     C72904   5.540   5.060   7.222 -0.8057 -0.4066  0.3499
  541MOL0     C72905   5.426   4.989   7.266 -0.4238  0.0142 -0.6224
  541MOL0     C72906   5.368   5.022   7.386  0.0319  0.0296 -0.8865
  541MOL0     C72907   5.418   5.128   7.468 -0.7843 -0.6206 -0.8334
  541MOL0     O72908   5.349   5.166   7.582  0.7612 -0.0819  0.1230
  541MOL0     C72909   5.335   5.311   7.609  0.4388  0.2840 -0.3549
  541MOL0     C72910   5.213   5.387   7.573 -0.3374  0.4726  0.2170
  541MOL0     C72911   5.206   5.525   7.642 -0.3105 -0.9105  0.2667
  541MOL0     C72912   5.156   5.514   7.786 -0.0775 -0.9099  0.0252
  541MOL0     C72913   5.205   5.629   7.887  0.2341 -0.5420  0.2812
  541MOL0     C72914   5.156   5.779   7.866  1.4512 -0.5149  0.1763
  541MOL0     C72915   5.003   5.798   7.831  1.7025  0.3093 -0.1899
  541MOL0     C72916   4.961   5.950   7.813  0.3429  0.1442 -0.8220
  541MOL0     N72917   4.820   5.951   7.782 -0.8828  0.3236  0.1352
  541MOL0     C72918   4.757   6.069   7.761 -0.4983 -0.1485 -0.0427
  541MOL0     C72919   4.631   6.042   7.795  0.2413  0.3286  0.1487
  541MOL0     C72920   4.512   6.131   7.794  0.2485 -0.5752 -0.3093
  541MOL0     C72921   4.383   6.065   7.737  0.6329  0.7909  0.3243
  541MOL0     C72922   4.266   6.153   7.766 -0.7657  0.2347  0.2204
  541MOL0     C72923   4.142   6.078   7.720 -0.1627  0.2393  0.5177
  541MOL0     O72924   4.125   5.942   7.762 -0.6758  0.6280 -0.6361
  541MOL0     C72925   4.069   5.871   7.657 -1.1110  0.2025  0.1934
  541MOL0     C72926   4.154   5.787   7.589 -0.2319  0.7682  0.5345
  541MOL0     C72927   4.102   5.706   7.483 -0.8639 -0.2555 -0.3117
  541MOL0     C72928   4.206   5.618   7.411  0.3788 -0.9809  0.3192
  541MOL0     C72929   3.968   5.713   7.449 -0.2523  0.3717 -0.2125
  541MOL0     C72930   3.915   5.641   7.337 -0.4133 -0.4445  0.6618
  541MOL0     O72931   3.989   5.638   7.220 -0.6817 -0.3832 -0.5394
  541MOL0     C72932   3.921   5.598   7.110  0.1578  1.1075  0.0758
  541MOL0     C72933   3.792   5.641   7.072  0.2361 -0.8153  0.3942
  541MOL0     C72934   3.740   5.610   6.940  0.1829 -0.1798 -0.3339
  541MOL0     C72935   3.820   5.533   6.856 -0.5527  1.0435 -0.0515
  541MOL0     O72936   3.781   5.484   6.728 -0.3117  0.2241 -0.4725
  541MOL0     C72937   3.685   5.561   6.656  0.4045 -0.0447  0.5089
  541MOL0     C72938   3.714   5.550   6.508  0.2558  0.1581 -0.3061
  541MOL0     C72939   3.590   5.599   6.436 -0.5507  0.0228  0.5278
  541MOL0     C72940   3.585   5.596   6.284 -0.4377 -0.2562 -0.0053
  541MOL0     C72941   3.467   5.687   6.245  0.4393 -0.4486  0.2248
  541MOL0     C72942   3.455   5.697   6.095  0.3442  0.2107  0.8939
  541MOL0     C72943   3.352   5.807   6.057 -0.6623 -0.6982 -0.2598
  541MOL0     C72944   3.268   5.777   5.931  0.2037  0.0768  0.1185
  541MOL0    Cl72945   3.365   5.746   5.777 -0.9307 -0.2137  0.1677
  541MOL0     C72946   3.936   5.470   6.903  0.9428  1.3056 -0.4506
  541MOL0     C72947   3.992   5.511   7.033 -0.0467 -1.5374  0.4230
  541MOL0     O72948   3.805   5.594   7.346  0.4883  0.4630  0.3202
  541MOL0     C72949   3.879   5.795   7.528 -0.6545  0.3672 -0.2857
  541MOL0     C72950   3.933   5.877   7.626  0.1885  0.0933 -0.7866
  541MOL0     N72951   4.616   5.913   7.839 -1.0048  0.2324  0.2311
  541MOL0     N72952   4.732   5.866   7.839  0.2933 -0.0206  0.1314
  541MOL0     C72953   5.546   5.187   7.424  0.8294  0.2850 -0.1754
  541MOL0     C72954   5.602   5.155   7.303 -0.5305 -0.0469  0.3089
  541MOL0     C72955   5.713   4.894   6.951 -0.3694 -0.0142  0.2197
  541MOL0     C72956   5.662   4.962   6.841  0.6157  0.2829  0.9118
  541MOL0     C72957   5.697   4.927   6.710  1.0668  0.1327  0.5998
  541MOL0     C72958   5.800   4.839   6.689 -0.0540 -0.0136 -0.2440
  541MOL0     O72959   5.858   4.814   6.565 -0.3760 -0.2067 -0.5379
  541MOL0     C72960   5.773   4.733   6.487  0.0449 -0.2792  0.5622
  541MOL0     C72961   5.735   4.594   6.535 -0.7983 -0.1279 -0.4261
  541MOL0     C72962   5.811   4.473   6.469 -0.1640 -0.4870  1.0090
  541MOL0     C72963   5.835   4.367   6.577 -0.2153 -0.2081  0.1357
  541MOL0     C72964   5.712   4.303   6.628 -0.7283 -0.4887  0.7587
  541MOL0     C72965   5.612   4.234   6.656  0.5142 -0.1928  0.1441
  541MOL0     C72966   5.850   4.761   6.798  0.0975  0.1414  0.3107
  541MOL0     C72967   5.810   4.793   6.922  0.3249  0.4760 -1.7240
  541MOL0     H72968   5.394   4.911   7.197  0.8130  0.3753 -1.6455
  541MOL0     H72969   5.271   4.983   7.416  0.6319 -0.5048  0.4332
  541MOL0     H72970   5.361   5.319   7.715  1.8620 -1.8497 -0.4753
  541MOL0     H72971   5.422   5.363   7.566  1.3907  0.5786  1.7700
  541MOL0     H72972   5.215   5.386   7.464  1.5063 -1.8671  0.1853
  541MOL0     H72973   5.124   5.327   7.593  0.2828 -1.3783 -2.0704
  541MOL0     H72974   5.306   5.570   7.641  0.0541 -1.4540 -3.8499
  541MOL0     H72975   5.154   5.594   7.576 -1.3018 -1.5234  0.3935
  541MOL0     H72976   5.047   5.515   7.783 -0.1008 -1.6137  0.4191
  541MOL0     H72977   5.190   5.417   7.825 -1.2164 -1.9329 -1.4007
  541MOL0     H72978   5.175   5.603   7.989  0.0386  1.4694  0.7767
  541MOL0     H72979   5.312   5.629   7.868  0.2832  0.2394  0.5340
  541MOL0     H72980   5.199   5.843   7.945 -0.2839 -1.2600  1.8076
  541MOL0     H72981   5.205   5.805   7.772  0.8014  0.0191 -0.0230
  541MOL0     H72982   4.981   5.744   7.738 -0.1764 -0.2028  0.5042
  541MOL0     H72983   4.949   5.748   7.912  4.4065 -0.1576  1.4766
  541MOL0     H72984   5.025   5.995   7.737 -2.1026  0.1289 -3.0650
  541MOL0     H72985   4.972   6.008   7.905  2.7686 -0.5577 -0.6044
  541MOL0     H72986   4.811   6.155   7.723  1.7241 -0.9098  1.2341
  541MOL0     H72987   4.497   6.180   7.891  2.6633  1.5635 -0.9173
  541MOL0     H72988   4.540   6.216   7.732  1.7379 -0.7946  0.0343
  541MOL0     H72989   4.376   5.963   7.775  0.0990  0.3175 -0.9871
  541MOL0     H72990   4.383   6.042   7.630 -3.7757  2.8163 -0.3045
  541MOL0     H72991   4.268   6.244   7.706 -1.4315  2.1447  2.8863
  541MOL0     H72992   4.266   6.179   7.873 -0.2262  3.0276 -0.3934
  541MOL0     H72993   4.148   6.073   7.611 -0.2554 -1.3680  0.5582
  541MOL0     H72994   4.050   6.131   7.745 -0.0440  1.1753 -0.8958
  541MOL0     H72995   4.261   5.782   7.609  0.2178 -1.8235 -1.8851
  541MOL0     H72996   4.146   5.530   7.385 -1.2769 -0.0463  0.7558
  541MOL0     H72997   4.247   5.671   7.325  0.2393  0.2650  0.9816
  541MOL0     H72998   4.277   5.567   7.476 -0.5563 -2.2096  0.4043
  541MOL0     H72999   3.735   5.716   7.126 -0.3856 -1.2024  0.2839
  541MOL0     H73000   3.644   5.654   6.918  0.0059  0.4868  1.6093
  541MOL0     H73001   3.587   5.520   6.683  1.0156 -1.3416  0.7856
  541MOL0     H73002   3.681   5.667   6.684 -0.8400  0.4764 -1.4280
  541MOL0     H73003   3.796   5.618   6.482  3.4742 -2.9952  0.8853
  541MOL0     H73004   3.736   5.448   6.475  1.0877 -0.2211  1.3376
  541MOL0     H73005   3.580   5.702   6.471 -2.6940 -0.7018  2.2312
  541MOL0     H73006   3.506   5.541   6.475 -0.0583  0.9978  3.2907
  541MOL0     H73007   3.674   5.646   6.245 -0.6844 -1.1803 -1.9047
  541MOL0     H73008   3.586   5.494   6.243  3.2218 -0.2714 -0.2553
  541MOL0     H73009   3.471   5.790   6.282 -1.8475  0.0444 -0.7237
  541MOL0     H73010   3.374   5.642   6.283  0.9249 -1.9842 -0.3073
  541MOL0     H73011   3.554   5.695   6.050 -0.8290 -2.3886 -1.9014
  541MOL0     H73012   3.420   5.599   6.063  3.1191 -0.3540 -0.6409
  541MOL0     H73013   3.415   5.890   6.024 -1.2877 -0.0046  0.2648
  541MOL0     H73014   3.291   5.845   6.139 -0.5616  1.1687 -1.0053
  541MOL0     H73015   3.202   5.863   5.918 -2.6097 -1.5245  2.7458
  541MOL0     H73016   3.197   5.696   5.943  1.6235 -1.5913 -1.9217
  541MOL0     H73017   3.983   5.393   6.842 -1.7553 -0.6714 -0.2053
  541MOL0     H73018   4.085   5.464   7.062 -1.2943 -3.0301  2.2876
  541MOL0     H73019   3.771   5.790   7.514 -0.6026  0.3269 -0.6729
  541MOL0     H73020   3.861   5.947   7.668 -1.0002  0.2224 -2.9405
  541MOL0     H73021   5.595   5.261   7.487  0.7326 -0.3867  0.7034
  541MOL0     H73022   5.690   5.207   7.267 -0.5333  3.5435  4.6356
  541MOL0     H73023   5.583   5.034   6.858  0.8379  0.2082  2.3878
  541MOL0     H73024   5.642   4.972   6.628 -0.8539 -0.2826  1.5975
  541MOL0     H73025   5.686   4.798   6.473  2.1209  2.0647 -3.5464
  541MOL0     H73026   5.829   4.723   6.394  1.2965  2.4596  0.9208
  541MOL0     H73027   5.627   4.587   6.516 -1.0710  2.4471 -0.1127
  541MOL0     H73028   5.747   4.581   6.643 -1.4888  3.1893  0.1373
  541MOL0     H73029   5.903   4.500   6.416 -0.2985  0.1841  1.1143
  541MOL0     H73030   5.748   4.436   6.388  0.8881 -1.9183  0.7883
  541MOL0     H73031   5.897   4.404   6.659  0.1565  0.2586 -0.3470
  541MOL0     H73032   5.895   4.288   6.530  1.0170  0.4257  0.6129
  541MOL0     H73033   5.522   4.177   6.674 -0.6041  1.5039  0.1571
  541MOL0     H73034   5.937   4.703   6.769  1.5613  3.8236 -3.6884
  541MOL0     H73035   5.856   4.741   7.006  0.7055  1.1981 -1.4820
  542MOL0     O73036   3.675  10.217   3.020  0.7084  0.0918 -0.1644
  542MOL0     C73037   3.684  10.311   3.100 -0.1207  1.2791 -0.2541
  542MOL0     O73038   3.588  10.386   3.141  0.0276  0.1036 -0.5790
  542MOL0     C73039   3.473  10.383   3.083  0.4853 -0.8144  0.4791
  542MOL0     C73040   3.363  10.371   3.161  0.5317 -0.5815 -0.2843
  542MOL0     C73041   3.226  10.364   3.113 -0.5896 -0.9065 -0.1134
  542MOL0     C73042   3.203  10.371   2.977  0.2125  0.2650 -0.0970
  542MOL0     O73043   3.076  10.348   2.937  0.4428  0.2541 -0.5326
  542MOL0     C73044   3.053  10.270   2.819 -0.2801  0.4352 -0.3725
  542MOL0     C73045   3.084  10.114   2.857  0.6303  0.1651 -0.0441
  542MOL0     C73046   3.030  10.016   2.743 -0.5379 -0.3814  0.1828
  542MOL0     C73047   3.053   9.871   2.777 -0.8035  0.3712  0.1705
  542MOL0     C73048   2.934   9.780   2.741  0.7785  0.1584  0.2133
  542MOL0     C73049   2.986   9.632   2.745 -0.3617  0.6918 -0.6320
  542MOL0     C73050   2.872   9.534   2.749  0.5901  0.5274 -0.0339
  542MOL0     C73051   2.910   9.392   2.790  0.2824 -0.5811  0.2322
  542MOL0     N73052   2.802   9.309   2.734 -0.7236 -0.1850  1.1986
  542MOL0     C73053   2.681   9.270   2.778 -0.5239  0.2919 -0.5549
  542MOL0     C73054   2.614   9.205   2.676 -0.2974  0.0429  0.0207
  542MOL0     C73055   2.484   9.125   2.689 -0.9556  0.0613 -1.3629
  542MOL0     C73056   2.392   9.127   2.562  0.0164  0.5400 -0.1814
  542MOL0     C73057   2.362   8.983   2.517 -0.0667  0.6705 -0.4223
  542MOL0     C73058   2.245   8.922   2.586 -0.5892  0.6518  0.2088
  542MOL0     O73059   2.126   8.966   2.524  1.1552 -0.1186  0.3044
  542MOL0     C73060   2.058   8.896   2.430  0.4413 -0.0843 -0.3603
  542MOL0     C73061   1.938   8.951   2.385 -0.3674 -0.4687 -0.0255
  542MOL0     C73062   1.844   8.891   2.293 -0.0156  0.7113  0.1937
  542MOL0     C73063   1.700   8.953   2.282  0.3198  0.4970  0.3905
  542MOL0     C73064   1.881   8.764   2.237 -0.9101 -0.4275  0.2720
  542MOL0     C73065   1.799   8.684   2.146  0.3256  0.4415  0.7044
  542MOL0     O73066   1.806   8.546   2.150 -0.3877 -0.4774  0.1997
  542MOL0     C73067   1.741   8.464   2.069  1.0577 -0.1262 -0.3101
  542MOL0     C73068   1.812   8.359   2.006  0.0341 -0.2002 -0.3967
  542MOL0     C73069   1.754   8.269   1.924 -1.4168 -0.7353  0.5095
  542MOL0     C73070   1.621   8.277   1.885  0.4687  0.1504  0.4646
  542MOL0     O73071   1.571   8.188   1.794 -0.2157 -0.0772  0.3786
  542MOL0     C73072   1.522   8.067   1.852  0.5489 -0.0533  0.2785
  542MOL0     C73073   1.500   7.973   1.732 -0.0911  0.2973  0.0293
  542MOL0     C73074   1.400   7.863   1.772  0.1516  0.1491 -0.0414
  542MOL0     C73075   1.400   7.755   1.659  0.0326  0.7642  0.4212
  542MOL0     C73076   1.343   7.628   1.708  0.6649 -1.1047  0.3052
  542MOL0     C73077   1.339   7.515   1.597  0.6965 -0.0139  0.4670
  542MOL0     C73078   1.240   7.548   1.485  0.3129  0.4310 -0.5613
  542MOL0     C73079   1.097   7.557   1.537  0.0780 -0.2952 -0.1236
  542MOL0    Cl73080   0.994   7.566   1.397  0.1188 -0.0310 -0.2037
  542MOL0     C73081   1.549   8.376   1.950  0.2674 -0.6907 -0.4989
  542MOL0     C73082   1.603   8.471   2.036 -0.3463 -0.1997 -0.3436
  542MOL0     O73083   1.749   8.751   2.054  0.8097  0.1907 -0.4794
  542MOL0     C73084   2.018   8.713   2.262  0.0592  0.1320 -0.0943
  542MOL0     C73085   2.090   8.772   2.366 -0.3018 -0.9959 -0.3987
  542MOL0     N73086   2.701   9.201   2.569 -0.0433  0.3817  0.0719
  542MOL0     N73087   2.805   9.266   2.601  0.5491 -0.7552 -0.6036
  542MOL0     C73088   3.320  10.391   2.898  0.3336 -0.1899 -0.3793
  542MOL0     C73089   3.448  10.400   2.949 -0.8073  0.0510 -0.0481
  542MOL0     C73090   3.815  10.324   3.171  0.5379  0.3464 -0.8307
  542MOL0     C73091   3.843  10.420   3.274  0.7094  0.4946 -0.9632
  542MOL0     C73092   3.969  10.415   3.334 -1.8129  0.6501  0.1290
  542MOL0     C73093   4.074  10.340   3.291 -0.4484  0.6441 -0.0115
  542MOL0     O73094   4.187  10.351   3.366  0.4109  0.3445  0.3676
  542MOL0     C73095   4.301  10.274   3.319  0.5134 -0.5435  0.4342
  542MOL0     C73096   4.426  10.310   3.409  0.4280  0.3102 -0.0712
  542MOL0     C73097   4.551  10.258   3.343  0.7827  0.4815  0.2606
  542MOL0     C73098   4.686  10.318   3.373  0.3614 -0.1618  0.3539
  542MOL0     C73099   4.721  10.300   3.516  0.3035  0.1302 -0.5560
  542MOL0     C73100   4.732  10.281   3.634 -0.3148 -0.2976 -0.0138
  542MOL0     C73101   4.037  10.247   3.190 -0.4780 -0.5187  0.0811
  542MOL0     C73102   3.917  10.238   3.131  0.8360  0.7619 -0.2648
  542MOL0     H73103   3.376  10.360   3.269 -0.3607 -3.0846 -0.3703
  542MOL0     H73104   3.145  10.336   3.179 -0.3435  0.6055  0.8908
  542MOL0     H73105   2.954  10.282   2.775 -0.8840 -2.5226 -0.0516
  542MOL0     H73106   3.110  10.308   2.734 -0.4820  1.3766 -0.0996
  542MOL0     H73107   3.192  10.099   2.870  0.6115  0.7555  0.9059
  542MOL0     H73108   3.034  10.094   2.952  1.5893 -1.1819  0.2005
  542MOL0     H73109   2.921  10.025   2.738 -0.5687 -0.9956 -0.2981
  542MOL0     H73110   3.067  10.026   2.641  1.6703  0.0272  0.9759
  542MOL0     H73111   3.144   9.824   2.740  0.0743  0.1488  2.4537
  542MOL0     H73112   3.075   9.852   2.882  2.3427  0.2269 -0.4093
  542MOL0     H73113   2.845   9.788   2.803  1.5401  0.9550  1.2435
  542MOL0     H73114   2.901   9.784   2.637  0.5216 -3.5874  0.0107
  542MOL0     H73115   3.047   9.619   2.655 -2.1246 -0.2628 -1.7691
  542MOL0     H73116   3.041   9.615   2.838  0.0918  0.0254 -1.0088
  542MOL0     H73117   2.791   9.570   2.813 -1.1656  0.0543 -1.8856
  542MOL0     H73118   2.824   9.537   2.650  2.7358  2.2922 -1.1140
  542MOL0     H73119   2.927   9.374   2.897  0.6124 -0.0660  0.2711
  542MOL0     H73120   3.002   9.359   2.741  1.3871 -2.2328  3.1626
  542MOL0     H73121   2.643   9.296   2.877 -2.5830  1.3636 -1.5626
  542MOL0     H73122   2.513   9.021   2.707  0.1651  0.7429  1.3581
  542MOL0     H73123   2.431   9.166   2.775  1.4597 -0.9972  0.7797
  542MOL0     H73124   2.452   9.172   2.482  2.5254 -3.4991 -0.8815
  542MOL0     H73125   2.294   9.173   2.576 -1.0620 -1.8461  0.5995
  542MOL0     H73126   2.451   8.921   2.532 -1.2374 -0.9578  0.1308
  542MOL0     H73127   2.345   8.988   2.409  2.5993 -0.6288 -1.0105
  542MOL0     H73128   2.251   8.931   2.695  1.2198  1.3024  0.0957
  542MOL0     H73129   2.257   8.813   2.582 -0.0521  0.6838  0.8485
  542MOL0     H73130   1.898   9.036   2.439 -2.3494 -0.2197 -1.7311
  542MOL0     H73131   1.627   8.871   2.293  1.4106 -0.8448 -1.6416
  542MOL0     H73132   1.683   9.028   2.360  0.2796 -0.8032  1.6773
  542MOL0     H73133   1.672   8.991   2.183  0.2492  0.4330  0.3849
  542MOL0     H73134   1.920   8.349   2.013  0.4593  3.6227  1.4105
  542MOL0     H73135   1.817   8.191   1.882  3.7109  3.1248  0.0706
  542MOL0     H73136   1.598   8.024   1.918  0.3253 -0.7362  0.0991
  542MOL0     H73137   1.429   8.077   1.910 -0.6855  0.7588 -1.7503
  542MOL0     H73138   1.456   8.027   1.648 -0.9849  4.1504  2.6881
  542MOL0     H73139   1.597   7.928   1.710 -1.0131 -2.0123  0.3952
  542MOL0     H73140   1.300   7.900   1.798 -0.7082 -1.5993 -0.7212
  542MOL0     H73141   1.441   7.811   1.859 -0.9788 -3.3233 -1.4019
  542MOL0     H73142   1.337   7.800   1.582  1.4675  1.2454 -0.5204
  542MOL0     H73143   1.496   7.733   1.610 -0.9952 -1.5513 -0.7009
  542MOL0     H73144   1.247   7.652   1.755  1.5127 -0.4109  1.7651
  542MOL0     H73145   1.402   7.587   1.791 -2.4401  0.3869  3.5024
  542MOL0     H73146   1.437   7.514   1.549  0.9144  2.3061  0.7537
  542MOL0     H73147   1.322   7.415   1.637 -3.7597 -0.6394 -2.2753
  542MOL0     H73148   1.245   7.467   1.411  5.4403  0.1263 -0.1990
  542MOL0     H73149   1.273   7.641   1.440  0.0194  0.6270 -0.3727
  542MOL0     H73150   1.072   7.645   1.597 -1.1044  0.4294 -1.6188
  542MOL0     H73151   1.060   7.472   1.596 -1.6966 -0.5459 -1.5031
  542MOL0     H73152   1.443   8.394   1.935  0.3170  2.2285  1.6885
  542MOL0     H73153   1.540   8.548   2.078  1.5435  1.2193  0.0115
  542MOL0     H73154   2.051   8.628   2.204 -1.3826  0.4782 -1.4969
  542MOL0     H73155   2.184   8.719   2.379 -1.2718 -2.7735 -0.4571
  542MOL0     H73156   3.305  10.388   2.790 -1.3221  0.1740 -0.1929
  542MOL0     H73157   3.534  10.419   2.885  0.3420  0.0337  1.4239
  542MOL0     H73158   3.772  10.495   3.306  2.4101  2.1481 -0.9102
  542MOL0     H73159   3.993  10.486   3.412 -0.0682 -0.0460  0.2549
  542MOL0     H73160   4.276  10.168   3.327 -1.1122 -0.3980 -1.7669
  542MOL0     H73161   4.326  10.310   3.219 -0.1492 -2.8066 -0.6001
  542MOL0     H73162   4.412  10.272   3.510 -3.2561 -0.5988 -0.7617
  542MOL0     H73163   4.420  10.419   3.420 -0.3292  0.1213  1.7190
  542MOL0     H73164   4.540  10.265   3.235  3.5364 -1.4986 -0.2540
  542MOL0     H73165   4.550  10.152   3.372 -3.2276  0.6949  1.5443
  542MOL0     H73166   4.680  10.427   3.365 -2.4768 -0.1404  1.4812
  542MOL0     H73167   4.766  10.274   3.314  0.8685  0.6781  0.3998
  542MOL0     H73168   4.758  10.265   3.737  0.2894 -0.2041 -0.1526
  542MOL0     H73169   4.113  10.188   3.139  0.1665  0.6360 -0.3493
  542MOL0     H73170   3.898  10.178   3.042 -2.8694  0.5707  0.4947
  543MOL0     O73171   6.221   2.495   5.729 -0.4123 -0.5218 -0.2645
  543MOL0     C73172   6.226   2.372   5.761 -0.2780 -1.6888 -0.2347
  543MOL0     O73173   6.328   2.298   5.727 -0.6872  0.6605  0.1014
  543MOL0     C73174   6.431   2.347   5.660  0.0065 -0.4134 -0.5986
  543MOL0     C73175   6.528   2.419   5.722  0.6070 -0.2040 -0.8392
  543MOL0     C73176   6.626   2.486   5.642 -0.1680  0.4190 -0.6697
  543MOL0     C73177   6.638   2.469   5.509  0.1553  0.3450  0.4796
  543MOL0     O73178   6.750   2.528   5.450 -0.0005 -0.1276  0.3966
  543MOL0     C73179   6.774   2.491   5.311 -0.0757  0.9196 -0.4361
  543MOL0     C73180   6.905   2.555   5.264  0.2234  0.5230 -0.6360
  543MOL0     C73181   6.950   2.512   5.132  0.3777  0.4878 -0.0469
  543MOL0     C73182   7.003   2.372   5.125  0.1357 -0.6520 -1.1423
  543MOL0     C73183   7.136   2.350   5.205  0.3926  0.6083 -0.2298
  543MOL0     C73184   7.164   2.203   5.210  0.7485 -0.1127  1.1387
  543MOL0     C73185   7.288   2.145   5.277 -0.1608  0.8358 -0.1305
  543MOL0     C73186   7.277   1.990   5.316 -0.7767 -0.0466  0.5914
  543MOL0     N73187   7.316   1.912   5.197 -0.2271  0.1831 -1.0190
  543MOL0     C73188   7.435   1.848   5.185  0.5441  0.7882  0.3714
  543MOL0     C73189   7.428   1.791   5.065  0.7284 -1.2110  0.2423
  543MOL0     C73190   7.551   1.730   4.998  0.2805 -0.4728  0.8498
  543MOL0     C73191   7.577   1.827   4.885 -0.4394 -0.1618 -0.3678
  543MOL0     C73192   7.710   1.779   4.811 -0.0976 -0.0909  0.5147
  543MOL0     C73193   7.764   1.886   4.722 -0.0072  1.1226  0.2585
  543MOL0     O73194   7.876   1.834   4.648  0.3451 -0.3114 -0.1156
  543MOL0     C73195   7.933   1.926   4.560  0.1166  0.2640  0.5307
  543MOL0     C73196   7.873   1.997   4.463 -0.2579  0.6555  0.0531
  543MOL0     C73197   7.949   2.087   4.383  0.4470 -0.0292  0.2683
  543MOL0     C73198   7.871   2.154   4.277  0.5037  0.0252 -0.7786
  543MOL0     C73199   8.091   2.103   4.400 -0.2470  0.0160  0.2598
  543MOL0     C73200   8.179   2.188   4.324 -0.5622  0.2553 -0.3802
  543MOL0     O73201   8.317   2.154   4.305  0.9337  0.1222  0.7602
  543MOL0     C73202   8.392   2.245   4.239 -0.0161  0.1569  0.7519
  543MOL0     C73203   8.496   2.307   4.313  0.0249  0.3929 -0.2311
  543MOL0     C73204   8.584   2.397   4.250  1.0362  0.1387  0.2296
  543MOL0     C73205   8.559   2.436   4.112 -0.7078 -0.1906 -0.2410
  543MOL0     O73206   8.639   2.536   4.051 -0.3998  0.9300  0.1724
  543MOL0     C73207   8.621   2.573   3.909 -0.1713 -0.0325 -1.0117
  543MOL0     C73208   8.741   2.669   3.865 -0.7102  0.0060  0.0444
  543MOL0     C73209   8.887   2.612   3.868  0.0802  0.1615 -0.4790
  543MOL0     C73210   8.967   2.718   3.785  0.7386  0.4742  1.0595
  543MOL0     C73211   9.115   2.702   3.807 -0.3524 -0.3193 -0.1354
  543MOL0     C73212   9.177   2.732   3.949  0.3294  0.5461  0.1556
  543MOL0     C73213   9.199   2.887   3.959 -0.0617  0.0803 -0.2510
  543MOL0     C73214   9.244   2.920   4.097  0.2118 -0.7616  0.7350
  543MOL0    Cl73215   9.294   3.098   4.128  0.3340 -0.0636 -0.5048
  543MOL0     C73216   8.444   2.379   4.044 -0.2636  0.2875 -0.5845
  543MOL0     C73217   8.372   2.276   4.104 -0.7305 -0.1112  0.2558
  543MOL0     O73218   8.127   2.290   4.280 -0.2538  0.6930  0.4058
  543MOL0     C73219   8.140   2.023   4.506 -0.3971  0.0868  0.1370
  543MOL0     C73220   8.065   1.925   4.578 -0.1832  0.1840 -1.1020
  543MOL0     N73221   7.308   1.808   5.005  0.3968 -0.9660  0.1897
  543MOL0     N73222   7.235   1.873   5.086  0.3713  0.3709 -1.0834
  543MOL0     C73223   6.533   2.399   5.442  0.0319  0.2820  0.0637
  543MOL0     C73224   6.433   2.342   5.519  0.0453  0.2085  0.3559
  543MOL0     C73225   6.127   2.321   5.862  0.4391  0.3488 -0.8137
  543MOL0     C73226   6.121   2.180   5.887 -0.1681 -1.3696  0.1339
  543MOL0     C73227   6.025   2.124   5.977 -0.2925  0.3315 -0.4290
  543MOL0     C73228   5.930   2.213   6.042 -0.0505 -0.2516  0.0934
  543MOL0     O73229   5.831   2.173   6.133  0.2108  1.1250  0.0465
  543MOL0     C73230   5.851   2.040   6.188 -0.3392 -0.3205  0.2348
  543MOL0     C73231   5.768   2.014   6.321 -0.1115 -0.5320 -0.5123
  543MOL0     C73232   5.626   1.975   6.281 -0.0885  0.7855  0.1181
  543MOL0     C73233   5.528   1.993   6.395 -0.5095 -0.1903 -0.0322
  543MOL0     C73234   5.535   1.869   6.471  0.1661  0.8849 -0.1418
  543MOL0     C73235   5.562   1.764   6.519  0.6191  0.4652 -0.7171
  543MOL0     C73236   5.933   2.349   6.006 -0.0885 -0.2618 -0.2911
  543MOL0     C73237   6.025   2.395   5.915  0.2188 -0.4229  0.2502
  543MOL0     H73238   6.530   2.441   5.829  0.8127 -2.3281 -0.3549
  543MOL0     H73239   6.711   2.535   5.688  1.4726 -1.5218 -1.4887
  543MOL0     H73240   6.778   2.383   5.296 -2.2161  0.4580  1.6495
  543MOL0     H73241   6.691   2.514   5.243  0.3927  2.3231 -0.5748
  543MOL0     H73242   6.881   2.661   5.273 -1.9593  0.5207 -4.5699
  543MOL0     H73243   6.977   2.525   5.342 -0.8480 -0.1022  0.1475
  543MOL0     H73244   6.867   2.522   5.060  0.5043  1.6603 -0.0425
  543MOL0     H73245   7.028   2.583   5.104  1.0737 -0.9834 -2.0685
  543MOL0     H73246   6.925   2.300   5.153  0.1732 -0.8980 -1.6503
  543MOL0     H73247   7.013   2.335   5.023 -3.2418 -2.5401 -0.9384
  543MOL0     H73248   7.213   2.396   5.142 -0.5258 -1.5891 -3.1745
  543MOL0     H73249   7.138   2.390   5.307  2.2926 -0.7524  0.3366
  543MOL0     H73250   7.080   2.148   5.252  0.1386 -0.1090 -0.0243
  543MOL0     H73251   7.174   2.187   5.102  0.2773 -1.7139  1.3064
  543MOL0     H73252   7.368   2.150   5.203 -0.3495 -1.8859 -0.6092
  543MOL0     H73253   7.313   2.203   5.367  0.8289  0.0984  0.0847
  543MOL0     H73254   7.181   1.958   5.357 -0.7958 -0.8768 -0.0623
  543MOL0     H73255   7.350   1.967   5.395 -0.9241  0.6161  0.9257
  543MOL0     H73256   7.521   1.847   5.251  2.3211  0.2869 -1.8053
  543MOL0     H73257   7.631   1.747   5.071  0.5136  0.0268  0.4823
  543MOL0     H73258   7.541   1.628   4.961  1.2062 -0.5759  0.8652
  543MOL0     H73259   7.583   1.932   4.916  2.2660  0.1434 -1.6645
  543MOL0     H73260   7.491   1.814   4.819 -2.1578  0.6102  1.5935
  543MOL0     H73261   7.701   1.682   4.762 -5.5705  0.7144 -0.7509
  543MOL0     H73262   7.777   1.765   4.896  0.2240 -0.5573  0.1836
  543MOL0     H73263   7.789   1.977   4.776  1.8792  1.9244 -1.8187
  543MOL0     H73264   7.686   1.909   4.649  0.3615 -0.0151 -0.5211
  543MOL0     H73265   7.769   1.975   4.439 -0.1525  1.0453 -0.7858
  543MOL0     H73266   7.923   2.125   4.185  0.2197 -0.9901 -0.6354
  543MOL0     H73267   7.764   2.130   4.282  0.2982  1.1530  1.3394
  543MOL0     H73268   7.883   2.261   4.295 -1.0349 -0.1110  1.4234
  543MOL0     H73269   8.529   2.278   4.413  0.8035  0.9604 -0.3103
  543MOL0     H73270   8.662   2.453   4.300  0.7413  2.6187 -1.8291
  543MOL0     H73271   8.608   2.491   3.837 -0.8066  1.0716 -2.2182
  543MOL0     H73272   8.527   2.629   3.913  0.2435  0.8332  4.8950
  543MOL0     H73273   8.725   2.694   3.760 -2.5035  2.6262  0.8514
  543MOL0     H73274   8.743   2.759   3.927  3.9173 -1.8693  3.2174
  543MOL0     H73275   8.899   2.517   3.815  3.4747  0.8252 -1.1387
  543MOL0     H73276   8.909   2.594   3.973  0.9917 -2.8084 -1.0838
  543MOL0     H73277   8.953   2.695   3.679  3.4071 -0.7080  0.8794
  543MOL0     H73278   8.931   2.819   3.806 -0.1056  0.0112  1.9496
  543MOL0     H73279   9.164   2.750   3.722  0.9744  1.3042  1.4667
  543MOL0     H73280   9.128   2.595   3.789 -1.0991 -0.2556 -1.1156
  543MOL0     H73281   9.115   2.689   4.028  2.2729  2.0423  2.6354
  543MOL0     H73282   9.268   2.673   3.962  0.8859  0.8477 -2.0195
  543MOL0     H73283   9.101   2.936   3.948  0.8711  1.7513 -1.7176
  543MOL0     H73284   9.269   2.927   3.884 -0.5821  2.1171  0.2955
  543MOL0     H73285   9.338   2.866   4.112  0.5168 -0.8187 -1.1701
  543MOL0     H73286   9.183   2.887   4.182  3.4888 -2.1535  2.7764
  543MOL0     H73287   8.417   2.415   3.945 -0.0432  2.8462  0.2072
  543MOL0     H73288   8.294   2.220   4.052 -0.5056  0.6844 -0.9714
  543MOL0     H73289   8.244   2.033   4.533 -0.1704  3.0775 -1.3967
  543MOL0     H73290   8.110   1.869   4.660 -0.3136  2.6932  0.7717
  543MOL0     H73291   6.540   2.385   5.335  0.1888 -2.3663  0.3405
  543MOL0     H73292   6.363   2.293   5.452  1.5907 -0.6875 -0.6557
  543MOL0     H73293   6.184   2.113   5.830 -0.9888 -1.4481 -0.7016
  543MOL0     H73294   6.028   2.022   6.014 -1.5589  0.9420  1.5424
  543MOL0     H73295   5.818   1.965   6.115 -0.6679 -0.5504  0.6159
  543MOL0     H73296   5.952   2.012   6.219 -0.0859  0.5035  0.1843
  543MOL0     H73297   5.754   2.107   6.377  0.1610 -1.1503  0.5878
  543MOL0     H73298   5.820   1.946   6.388 -0.7201  1.0212  1.6438
  543MOL0     H73299   5.628   1.872   6.245 -0.3225  0.8096  0.0398
  543MOL0     H73300   5.604   2.045   6.200 -2.7011  0.5341  0.5360
  543MOL0     H73301   5.425   2.012   6.362  0.1160  1.0206 -1.3996
  543MOL0     H73302   5.560   2.076   6.460  2.5707 -0.8733 -0.5421
  543MOL0     H73303   5.588   1.671   6.566 -2.1470  1.3724  3.1172
  543MOL0     H73304   5.865   2.429   6.033 -1.3848 -0.8736 -1.6010
  543MOL0     H73305   6.015   2.502   5.897 -4.3763 -0.9854 -1.8433
  544MOL0     O73306   5.441   8.486   9.525  0.1805  0.4895  0.5960
  544MOL0     C73307   5.497   8.492   9.416  0.0121  0.5710 -0.7562
  544MOL0     O73308   5.452   8.433   9.303  0.7042  0.0302  0.5716
  544MOL0     C73309   5.337   8.359   9.299  0.0985 -0.4578 -0.3060
  544MOL0     C73310   5.310   8.235   9.368  0.0492 -0.1547  0.0659
  544MOL0     C73311   5.190   8.168   9.352  0.4223 -0.0016  0.4348
  544MOL0     C73312   5.096   8.222   9.261 -0.1433  0.0384  0.1153
  544MOL0     O73313   4.966   8.170   9.250 -0.1547  0.0745  0.0144
  544MOL0     C73314   4.899   8.154   9.375  1.2880  0.8064 -0.3550
  544MOL0     C73315   4.801   8.037   9.361  0.0161 -0.7299 -0.1806
  544MOL0     C73316   4.716   8.023   9.488 -0.6988 -0.6133 -0.1871
  544MOL0     C73317   4.641   7.883   9.479  1.3786 -0.4573 -0.2659
  544MOL0     C73318   4.496   7.899   9.427 -0.5997  0.7560  0.0588
  544MOL0     C73319   4.446   7.761   9.368  0.4050  0.7813 -0.1116
  544MOL0     C73320   4.427   7.653   9.480  0.2295 -0.6814  0.2650
  544MOL0     C73321   4.290   7.595   9.479 -0.8688  0.0127  0.2424
  544MOL0     N73322   4.271   7.492   9.576  0.2752 -0.4090  0.8197
  544MOL0     C73323   4.185   7.510   9.687 -0.9972 -0.3479  0.1884
  544MOL0     C73324   4.182   7.385   9.739 -0.8190  0.3157 -0.1498
  544MOL0     C73325   4.110   7.330   9.856  0.0050  0.1585 -0.1712
  544MOL0     C73326   4.028   7.216   9.838  0.4899 -0.0312  0.6168
  544MOL0     C73327   4.094   7.078   9.874  0.8659 -0.1072  0.1368
  544MOL0     C73328   3.994   6.970   9.845  0.8735 -0.1046 -0.3717
  544MOL0     O73329   3.888   6.968   9.934  0.4577  0.2370  0.3380
  544MOL0     C73330   3.898   6.905  10.056 -0.3825  0.3223 -0.7843
  544MOL0     C73331   3.785   6.910  10.128  0.5177  0.6134 -0.0022
  544MOL0     C73332   3.780   6.864  10.264  0.4281 -0.2792  0.0953
  544MOL0     C73333   3.650   6.889  10.343 -0.5521  0.1247  0.3574
  544MOL0     C73334   3.900   6.824  10.326  0.5798  0.3403  0.6144
  544MOL0     C73335   3.919   6.784  10.461  0.6241  0.3998 -0.5117
  544MOL0     O73336   3.814   6.709  10.514 -0.0057  0.1376 -0.1836
  544MOL0     C73337   3.825   6.646  10.639 -0.3229 -0.1938  0.7278
  544MOL0     C73338   3.947   6.602  10.692 -0.5596 -0.2732  0.7232
  544MOL0     C73339   3.942   6.537  10.814  0.2913 -0.4049 -1.0371
  544MOL0     C73340   3.826   6.497  10.880  0.4406 -0.2729 -0.1225
  544MOL0     O73341   3.812   6.411  10.995  0.3482 -0.0201  0.3232
  544MOL0     C73342   3.907   6.303  11.009  0.6045  1.1814  0.2115
  544MOL0     C73343   3.854   6.188  11.089 -0.2817  0.1411  0.5978
  544MOL0     C73344   3.735   6.109  11.038 -0.5148  0.2322 -0.3081
  544MOL0     C73345   3.607   6.175  10.982  0.3163 -0.2102 -0.9694
  544MOL0     C73346   3.476   6.094  10.997 -0.0893 -0.7762 -0.3338
  544MOL0     C73347   3.361   6.176  10.927  0.7892  0.7725  0.4794
  544MOL0     C73348   3.217   6.124  10.944 -0.2997  0.3750  0.2317
  544MOL0     C73349   3.174   6.166  11.087 -0.3411  1.7259 -0.1126
  544MOL0    Cl73350   3.007   6.145  11.094  0.0865  0.0851 -0.1155
  544MOL0     C73351   3.708   6.542  10.829  0.7820  0.1974  0.5754
  544MOL0     C73352   3.704   6.619  10.711 -0.9178 -0.6042 -0.1385
  544MOL0     O73353   4.024   6.812  10.520 -0.5771  0.5425 -0.1119
  544MOL0     C73354   4.017   6.821  10.248 -0.2826  0.0162 -0.5029
  544MOL0     C73355   4.009   6.855  10.119 -0.5863 -0.7248  0.5854
  544MOL0     N73356   4.251   7.294   9.658  0.4769 -0.4249  0.0039
  544MOL0     N73357   4.306   7.362   9.563  0.9615 -0.4029  0.5495
  544MOL0     C73358   5.122   8.337   9.189 -0.8210 -0.1164  0.9522
  544MOL0     C73359   5.248   8.410   9.202  0.0481 -0.0732 -0.0016
  544MOL0     C73360   5.638   8.540   9.415 -0.5575 -0.0590  0.3913
  544MOL0     C73361   5.703   8.566   9.287  0.1346 -0.0058  0.3556
  544MOL0     C73362   5.838   8.611   9.272  0.5632  0.5378  0.1316
  544MOL0     C73363   5.908   8.642   9.388 -0.9902 -0.4618  0.0198
  544MOL0     O73364   6.033   8.702   9.370  0.0275 -0.1742 -0.8372
  544MOL0     C73365   6.144   8.665   9.467  0.3761 -0.0594 -0.0673
  544MOL0     C73366   6.285   8.694   9.419  0.5064  0.7203 -0.6566
  544MOL0     C73367   6.309   8.653   9.275  0.6064 -0.7154 -0.4225
  544MOL0     C73368   6.452   8.661   9.226  0.1746 -0.3202  0.2294
  544MOL0     C73369   6.521   8.541   9.275  1.1838  0.5296 -0.4590
  544MOL0     C73370   6.559   8.429   9.310  0.2168 -0.2026  0.2847
  544MOL0     C73371   5.850   8.618   9.514 -0.2807 -0.7175 -0.2722
  544MOL0     C73372   5.722   8.560   9.527  0.2892 -1.5176 -0.2001
  544MOL0     H73373   5.385   8.185   9.429 -0.1225 -0.7336 -0.1927
  544MOL0     H73374   5.165   8.071   9.394 -0.2717  1.1968  2.9076
  544MOL0     H73375   4.965   8.138   9.460 -0.7515 -1.3439  0.9492
  544MOL0     H73376   4.846   8.247   9.395 -2.4196 -1.4006  1.1159
  544MOL0     H73377   4.734   8.051   9.275  0.1606 -2.7263 -0.6708
  544MOL0     H73378   4.866   7.952   9.341 -0.1265 -0.7032 -0.7932
  544MOL0     H73379   4.775   8.017   9.579 -1.8205 -2.5265  0.4607
  544MOL0     H73380   4.645   8.106   9.496 -1.3417 -1.2975  1.7728
  544MOL0     H73381   4.697   7.807   9.423 -1.0606 -2.6974  0.1580
  544MOL0     H73382   4.612   7.851   9.579  0.9967  3.3067  0.9634
  544MOL0     H73383   4.429   7.929   9.508  1.0746 -0.8308  2.1614
  544MOL0     H73384   4.479   7.974   9.350 -0.9903 -1.4012 -2.0945
  544MOL0     H73385   4.354   7.788   9.314 -0.3805 -1.5640 -0.0887
  544MOL0     H73386   4.516   7.724   9.293  0.3769 -1.4524  0.8735
  544MOL0     H73387   4.505   7.577   9.469  1.4888  0.5537  0.3851
  544MOL0     H73388   4.443   7.691   9.581  0.0595  0.1246 -0.0060
  544MOL0     H73389   4.288   7.554   9.378  0.6517  0.5750 -0.0525
  544MOL0     H73390   4.217   7.676   9.481  0.4174  1.2935 -1.3637
  544MOL0     H73391   4.141   7.605   9.718 -1.6817 -0.2088 -1.1454
  544MOL0     H73392   4.181   7.313   9.938 -0.4112  0.9071  0.3536
  544MOL0     H73393   4.047   7.416   9.880  2.5876  2.1176 -0.0136
  544MOL0     H73394   3.993   7.213   9.734  0.4413  1.5439  0.5704
  544MOL0     H73395   3.932   7.229   9.889 -0.5185  0.2420 -1.2440
  544MOL0     H73396   4.128   7.072   9.978  0.8146  1.5341  0.2667
  544MOL0     H73397   4.187   7.079   9.816  0.8301  1.9275  0.0495
  544MOL0     H73398   4.051   6.877   9.840  0.6123 -0.2344 -1.1514
  544MOL0     H73399   3.960   6.989   9.743 -0.6568 -0.1565  0.0939
  544MOL0     H73400   3.693   6.942  10.079 -1.3461 -2.7067  0.9709
  544MOL0     H73401   3.595   6.796  10.330  1.0614 -0.4781 -3.9103
  544MOL0     H73402   3.675   6.911  10.447 -0.2780 -1.6389  0.6973
  544MOL0     H73403   3.606   6.978  10.297  2.1340  1.0600 -0.6388
  544MOL0     H73404   4.046   6.616  10.650 -1.8979  1.5770 -2.1913
  544MOL0     H73405   4.038   6.517  10.862 -1.0312 -1.7784  1.2755
  544MOL0     H73406   3.937   6.255  10.916 -1.3483 -1.4908  0.8443
  544MOL0     H73407   4.000   6.345  11.049  1.0579  0.1032  0.3435
  544MOL0     H73408   3.932   6.113  11.095 -2.2234 -1.9561  0.9437
  544MOL0     H73409   3.837   6.218  11.193  1.3202  0.6901  0.7212
  544MOL0     H73410   3.706   6.022  11.099 -0.0869  0.4503  0.2166
  544MOL0     H73411   3.778   6.065  10.947  1.4882  4.3665 -1.5993
  544MOL0     H73412   3.600   6.274  11.030  0.7924  0.7484 -2.7990
  544MOL0     H73413   3.636   6.194  10.878  2.4668  0.6828 -0.2744
  544MOL0     H73414   3.447   6.077  11.101 -3.3012  2.5354 -0.4497
  544MOL0     H73415   3.484   5.996  10.951  2.1799 -0.0776 -1.5833
  544MOL0     H73416   3.358   6.283  10.951  3.4140  0.7749  1.0064
  544MOL0     H73417   3.380   6.168  10.820 -1.2417 -1.4981  0.2090
  544MOL0     H73418   3.217   6.016  10.933  0.4419  0.2698  1.1151
  544MOL0     H73419   3.159   6.182  10.871 -1.5306  0.9754  1.6343
  544MOL0     H73420   3.203   6.270  11.104 -1.3336  1.9648  0.1616
  544MOL0     H73421   3.232   6.105  11.157  0.6007 -0.5136 -2.6757
  544MOL0     H73422   3.615   6.501  10.869 -0.3337  1.5760 -0.5195
  544MOL0     H73423   3.609   6.667  10.687 -0.7033 -0.0178  0.1654
  544MOL0     H73424   4.116   6.820  10.292 -1.3676  3.5458  2.5350
  544MOL0     H73425   4.095   6.856  10.052 -0.5775 -0.2469  0.5940
  544MOL0     H73426   5.039   8.362   9.124 -0.9719 -1.9832  0.3878
  544MOL0     H73427   5.265   8.505   9.151 -1.3819  0.4261  0.3915
  544MOL0     H73428   5.653   8.533   9.197  1.6141 -0.9403 -0.1548
  544MOL0     H73429   5.881   8.623   9.173  0.0620  3.4346  0.1967
  544MOL0     H73430   6.129   8.731   9.553  0.4206  2.0391 -1.5747
  544MOL0     H73431   6.136   8.565   9.509 -3.3287 -0.0836 -0.4801
  544MOL0     H73432   6.353   8.636   9.482  0.4511  1.0786 -0.2696
  544MOL0     H73433   6.322   8.794   9.443 -2.6050  1.8782 -0.2817
  544MOL0     H73434   6.248   8.720   9.213 -1.6423 -2.6755 -0.4658
  544MOL0     H73435   6.271   8.554   9.249  2.6588 -0.8661 -3.3085
  544MOL0     H73436   6.510   8.742   9.270 -0.4028  1.8318 -2.6764
  544MOL0     H73437   6.460   8.665   9.117  0.7190  1.7947  0.3018
  544MOL0     H73438   6.602   8.336   9.340 -1.2430 -1.8993 -2.4737
  544MOL0     H73439   5.902   8.640   9.607  0.3912 -0.2221 -0.7548
  544MOL0     H73440   5.677   8.537   9.623 -0.0547 -1.6246 -0.3843
  545MOL0     O73441   2.956   2.864   9.380 -0.2641 -0.5561 -0.0114
  545MOL0     C73442   2.847   2.923   9.361 -0.8577  0.9386 -0.0768
  545MOL0     O73443   2.793   3.017   9.442  0.0897 -0.2276  0.5505
  545MOL0     C73444   2.863   3.048   9.549 -0.7687  0.6455  0.1926
  545MOL0     C73445   2.952   3.165   9.551 -0.3411 -0.1391  0.9530
  545MOL0     C73446   3.035   3.200   9.655  0.2652  0.9998 -0.9402
  545MOL0     C73447   3.026   3.120   9.775 -0.1668 -0.1441  0.1679
  545MOL0     O73448   3.108   3.143   9.878 -0.1301 -0.2976  0.3313
  545MOL0     C73449   3.251   3.148   9.856 -0.7697 -0.1229  0.3678
  545MOL0     C73450   3.305   3.010   9.810 -0.0188  0.0836  0.1355
  545MOL0     C73451   3.456   2.991   9.811 -0.9337 -0.4144  0.3582
  545MOL0     C73452   3.517   2.998   9.953  0.8990  0.0275 -1.5896
  545MOL0     C73453   3.669   2.998   9.952  0.1242  0.4552 -0.2587
  545MOL0     C73454   3.729   3.102   9.857 -0.2219  0.1026 -0.0915
  545MOL0     C73455   3.877   3.111   9.887 -0.0191 -0.1718  0.0982
  545MOL0     C73456   3.955   3.182   9.775 -0.3046  0.5179  0.3239
  545MOL0     N73457   4.089   3.213   9.811  0.3017 -0.2837 -1.3492
  545MOL0     C73458   4.183   3.136   9.868 -0.4944 -0.6141 -0.4638
  545MOL0     C73459   4.287   3.219   9.905 -0.0184  0.3196 -0.2518
  545MOL0     C73460   4.420   3.175   9.959 -0.4207  0.6981 -0.5270
  545MOL0     C73461   4.535   3.276   9.939 -0.1011  0.0631  0.3697
  545MOL0     C73462   4.671   3.231   9.999 -0.0781 -0.2936 -0.3005
  545MOL0     C73463   4.762   3.361   9.994 -0.2013  0.4545 -0.5605
  545MOL0     O73464   4.832   3.361   9.871  0.9780 -0.6921  0.1937
  545MOL0     C73465   4.938   3.448   9.852 -0.2849 -0.5173 -0.3157
  545MOL0     C73466   4.999   3.442   9.731 -0.3046 -0.1325  0.6253
  545MOL0     C73467   5.129   3.498   9.696 -0.6296  0.8548 -0.2068
  545MOL0     C73468   5.197   3.484   9.560  1.2571  0.2270 -0.8717
  545MOL0     C73469   5.185   3.574   9.812  0.4652  0.4778 -0.0062
  545MOL0     C73470   5.322   3.634   9.807  0.6573 -0.0095 -0.2422
  545MOL0     O73471   5.370   3.679   9.928  0.0640 -0.4078  0.5906
  545MOL0     C73472   5.479   3.759   9.918 -0.2572 -0.0241 -0.1231
  545MOL0     C73473   5.465   3.895   9.900  0.2883 -0.5933  0.2846
  545MOL0     C73474   5.575   3.973   9.891  0.1572 -1.0108 -0.3302
  545MOL0     C73475   5.708   3.928   9.900  0.8183  0.7881 -0.8246
  545MOL0     O73476   5.827   3.998   9.895  0.0428  0.1025  0.0024
  545MOL0     C73477   5.822   4.119   9.834 -0.3480 -0.4771  0.7706
  545MOL0     C73478   5.961   4.186   9.849 -0.1120 -1.5188  0.1486
  545MOL0     C73479   5.954   4.327   9.780 -0.1890 -0.3531  0.6387
  545MOL0     C73480   6.092   4.393   9.788  0.2972  0.3277  0.1698
  545MOL0     C73481   6.132   4.458   9.916  0.0619 -0.8873  0.3934
  545MOL0     C73482   6.039   4.571   9.969  0.1812 -0.5157  0.6151
  545MOL0     C73483   6.033   4.694   9.878 -0.4714 -0.0664 -0.7767
  545MOL0     C73484   5.964   4.813   9.953 -0.0228  0.0293 -0.0779
  545MOL0    Cl73485   5.979   4.964   9.842 -0.3069 -0.0602 -0.2306
  545MOL0     C73486   5.719   3.787   9.925  0.4103 -0.5459  0.5406
  545MOL0     C73487   5.606   3.708   9.935 -0.4888 -0.8717  0.9523
  545MOL0     O73488   5.385   3.645   9.703  0.5032 -0.9699 -0.7352
  545MOL0     C73489   5.107   3.602   9.931  0.8633 -0.3366  0.5565
  545MOL0     C73490   4.985   3.538   9.954  0.2735 -0.3318  0.2159
  545MOL0     N73491   4.253   3.350   9.873  0.1220  0.5162  0.0841
  545MOL0     N73492   4.143   3.347   9.813 -0.0585 -0.4527  0.0932
  545MOL0     C73493   2.928   3.022   9.789 -0.6770  0.7534 -0.0781
  545MOL0     C73494   2.855   2.983   9.677 -0.3163  0.2146 -0.5670
  545MOL0     C73495   2.781   2.900   9.234 -0.3756  0.5634 -0.5737
  545MOL0     C73496   2.854   2.852   9.125  1.0406  0.1653 -0.7518
  545MOL0     C73497   2.793   2.842   9.005  0.5795 -0.9513  0.5269
  545MOL0     C73498   2.664   2.879   8.975 -0.3001 -0.7302  0.1387
  545MOL0     O73499   2.616   2.855   8.844 -0.1084 -0.0917  0.6000
  545MOL0     C73500   2.528   2.739   8.842 -0.0389  0.1562 -0.6140
  545MOL0     C73501   2.375   2.766   8.852 -0.1518 -0.3927  0.3478
  545MOL0     C73502   2.350   2.862   8.731 -0.6546  0.0472  0.3143
  545MOL0     C73503   2.196   2.884   8.735 -0.5649  0.1820 -0.2694
  545MOL0     C73504   2.172   3.002   8.822 -0.6337 -1.2060  0.0652
  545MOL0     C73505   2.133   3.101   8.887 -0.0542  0.8414  0.1710
  545MOL0     C73506   2.581   2.910   9.087  0.0409  0.0081  0.2826
  545MOL0     C73507   2.640   2.919   9.212 -0.3877 -0.0623  0.5662
  545MOL0     H73508   2.965   3.207   9.452 -1.5527 -2.5579 -0.3392
  545MOL0     H73509   3.118   3.267   9.635  0.6359  0.8749  0.1257
  545MOL0     H73510   3.273   3.215   9.773 -1.1725  0.5062  0.7576
  545MOL0     H73511   3.312   3.179   9.942  0.5844 -0.9931 -0.2419
  545MOL0     H73512   3.267   2.943   9.888 -0.5059 -0.3696 -0.4875
  545MOL0     H73513   3.271   2.986   9.709 -2.4614 -0.9437  1.1089
  545MOL0     H73514   3.485   2.898   9.762  2.0112  1.3458 -1.5517
  545MOL0     H73515   3.495   3.064   9.740 -0.8964 -1.1368 -0.3772
  545MOL0     H73516   3.484   3.096   9.989  0.1029  1.1467 -4.9831
  545MOL0     H73517   3.471   2.931  10.026 -0.4066  3.0222  0.5590
  545MOL0     H73518   3.695   3.022  10.055 -1.1544 -0.5640  0.3269
  545MOL0     H73519   3.710   2.899   9.933 -0.1575  0.1539  0.6910
  545MOL0     H73520   3.714   3.077   9.752  0.7493 -1.4402  0.1095
  545MOL0     H73521   3.691   3.203   9.878 -0.4024 -0.0950  0.5452
  545MOL0     H73522   3.885   3.162   9.984 -1.6369  1.2837 -0.4794
  545MOL0     H73523   3.925   3.013   9.892  4.1474  1.5494 -1.8531
  545MOL0     H73524   3.907   3.273   9.740  0.7006  0.8664 -0.2065
  545MOL0     H73525   3.970   3.108   9.695 -2.3124 -0.2408  0.6021
  545MOL0     H73526   4.180   3.029   9.889 -0.7124 -0.2151  1.6693
  545MOL0     H73527   4.397   3.156  10.064 -0.2590 -1.9965 -0.9126
  545MOL0     H73528   4.452   3.088   9.902  0.2596 -0.2143  1.1756
  545MOL0     H73529   4.508   3.376   9.973  0.4840  0.7801 -1.1718
  545MOL0     H73530   4.554   3.282   9.831  0.6605  0.7151  0.5291
  545MOL0     H73531   4.717   3.152   9.938  0.3869  2.1671 -3.4117
  545MOL0     H73532   4.679   3.202  10.104 -0.4151  0.7995  0.0384
  545MOL0     H73533   4.833   3.368  10.078 -1.0713  2.9254  0.0542
  545MOL0     H73534   4.699   3.447  10.017  0.3528  0.6195  0.4059
  545MOL0     H73535   4.951   3.370   9.666 -0.1518  0.0734  0.2778
  545MOL0     H73536   5.139   3.422   9.491  0.0822  1.6313 -1.1871
  545MOL0     H73537   5.192   3.576   9.501  0.2435  0.3806 -0.5531
  545MOL0     H73538   5.301   3.450   9.567  0.8006 -1.0862  0.1056
  545MOL0     H73539   5.364   3.932   9.886 -0.7262 -3.6067 -1.2563
  545MOL0     H73540   5.555   4.079   9.874  1.1608 -0.7595 -0.0107
  545MOL0     H73541   5.803   4.118   9.727  0.4248  3.6238  0.4456
  545MOL0     H73542   5.743   4.186   9.871  1.0081  2.2982 -1.0341
  545MOL0     H73543   5.987   4.211   9.952 -0.6849  1.4874 -0.3342
  545MOL0     H73544   6.026   4.117   9.794  0.1957  0.3364 -1.9719
  545MOL0     H73545   5.870   4.385   9.820 -1.9265 -1.0937 -1.7252
  545MOL0     H73546   5.937   4.316   9.673  0.6210 -0.6007  0.5315
  545MOL0     H73547   6.167   4.318   9.762  1.2827  0.3883  2.6266
  545MOL0     H73548   6.081   4.464   9.705  0.9128 -1.0746 -1.1566
  545MOL0     H73549   6.227   4.506   9.891 -2.1711  2.7200 -2.0946
  545MOL0     H73550   6.156   4.385   9.993  3.3447 -0.2514  0.1116
  545MOL0     H73551   5.940   4.527   9.986 -0.6169  0.7451 -0.5232
  545MOL0     H73552   6.078   4.601  10.067 -3.5501 -0.5415  2.2994
  545MOL0     H73553   5.967   4.666   9.795  0.8447 -2.5721 -1.0677
  545MOL0     H73554   6.128   4.731   9.839 -0.1687  0.1413  0.1409
  545MOL0     H73555   5.998   4.823  10.056  1.1041 -2.0520 -0.2065
  545MOL0     H73556   5.856   4.801   9.951 -0.1328  0.7656 -2.6819
  545MOL0     H73557   5.820   3.747   9.936  0.8576  0.6930  1.0961
  545MOL0     H73558   5.626   3.602   9.944 -0.1068 -1.5128 -4.3370
  545MOL0     H73559   5.142   3.662  10.015  1.1144 -0.4349  0.5225
  545MOL0     H73560   4.929   3.562  10.044  1.6269  0.4334  0.8874
  545MOL0     H73561   2.926   2.959   9.877  2.3779 -1.1887 -1.2451
  545MOL0     H73562   2.787   2.900   9.692 -1.3598  1.2652  0.8457
  545MOL0     H73563   2.961   2.847   9.146  0.8473  1.4747  0.7566
  545MOL0     H73564   2.863   2.808   8.929  2.1928 -2.4419  2.5625
  545MOL0     H73565   2.540   2.691   8.745  0.5739 -0.4188 -0.2654
  545MOL0     H73566   2.554   2.672   8.925  0.7546  3.7277  2.2651
  545MOL0     H73567   2.364   2.817   8.948 -0.3778  2.2064 -0.9622
  545MOL0     H73568   2.306   2.682   8.847 -2.3255  1.3498 -2.8865
  545MOL0     H73569   2.379   2.802   8.643  1.2095  0.6748  0.4659
  545MOL0     H73570   2.398   2.960   8.732 -0.2191 -0.1082  3.5571
  545MOL0     H73571   2.144   2.795   8.771  0.2746  0.2083  1.1040
  545MOL0     H73572   2.146   2.905   8.641 -1.6954  1.4396  0.5650
  545MOL0     H73573   2.103   3.185   8.946 -1.1227  1.5727 -1.3396
  545MOL0     H73574   2.474   2.922   9.073 -0.3703 -0.6611  2.5176
  545MOL0     H73575   2.577   2.950   9.295 -2.7791 -0.4471 -1.0274
  546MOL0     O73576   3.931   8.867  10.343  0.0346  0.2928  0.7886
  546MOL0     C73577   3.845   8.819  10.414  0.0572 -0.2139 -0.2924
  546MOL0     O73578   3.738   8.881  10.474  0.2410  0.2306  0.3541
  546MOL0     C73579   3.709   9.013  10.467  0.2225 -0.3368 -0.0710
  546MOL0     C73580   3.784   9.116  10.392  0.0729  1.0668  0.2506
  546MOL0     C73581   3.734   9.246  10.388 -0.6911 -0.4697  0.8116
  546MOL0     C73582   3.616   9.290  10.455 -0.2494 -0.3947 -0.0989
  546MOL0     O73583   3.592   9.431  10.460  0.0605 -0.1478 -0.5703
  546MOL0     C73584   3.472   9.478  10.526 -0.7787 -0.2393  0.5329
  546MOL0     C73585   3.432   9.613  10.456 -0.4221  0.2254  0.8700
  546MOL0     C73586   3.285   9.645  10.470 -0.1870 -0.9532  0.5005
  546MOL0     C73587   3.255   9.712  10.603  0.5856  0.3137 -0.0241
  546MOL0     C73588   3.103   9.740  10.639 -0.4021 -0.8413  0.8609
  546MOL0     C73589   3.039   9.609  10.658  0.3597  0.0549  0.3132
  546MOL0     C73590   2.891   9.636  10.698  0.4378 -0.2975 -0.5725
  546MOL0     C73591   2.814   9.520  10.749 -0.4752  0.6119 -0.0292
  546MOL0     N73592   2.694   9.487  10.667  0.0499  0.7586 -0.5185
  546MOL0     C73593   2.704   9.436  10.534 -0.0699  0.0401  0.1363
  546MOL0     C73594   2.577   9.442  10.497 -0.1283 -0.6187  0.5531
  546MOL0     C73595   2.537   9.385  10.365 -0.0164  0.3040  0.1015
  546MOL0     C73596   2.562   9.507  10.270  0.0510 -0.7535 -1.0939
  546MOL0     C73597   2.512   9.468  10.131  0.0816  0.0450  0.0955
  546MOL0     C73598   2.589   9.547  10.026 -0.0940 -0.5568  0.0088
  546MOL0     O73599   2.717   9.481  10.003 -0.0658 -0.7995 -0.2391
  546MOL0     C73600   2.830   9.557   9.943  0.5384 -0.4929 -0.2970
  546MOL0     C73601   2.847   9.697   9.939 -0.3635  0.1533 -0.3779
  546MOL0     C73602   2.953   9.744   9.853 -0.5415  0.6260 -0.1513
  546MOL0     C73603   2.970   9.895   9.856  0.8506  0.2294  0.6453
  546MOL0     C73604   3.036   9.652   9.779  0.0581 -0.2025  0.0313
  546MOL0     C73605   3.142   9.704   9.692 -0.0933  0.3679  0.1139
  546MOL0     O73606   3.228   9.623   9.634 -0.3702  1.0126  0.0327
  546MOL0     C73607   3.331   9.667   9.553 -0.2911 -0.0469 -0.0252
  546MOL0     C73608   3.439   9.743   9.597 -0.3411 -1.2434 -0.7947
  546MOL0     C73609   3.542   9.787   9.514  0.0130  0.2027 -0.4713
  546MOL0     C73610   3.538   9.742   9.382 -0.5864  0.9922 -0.5036
  546MOL0     O73611   3.634   9.781   9.292  0.1810 -0.0222  0.2336
  546MOL0     C73612   3.763   9.819   9.333  0.1936  0.2645  1.3534
  546MOL0     C73613   3.852   9.713   9.278 -0.7649  0.3249 -0.1582
  546MOL0     C73614   3.953   9.784   9.184  0.0453 -0.4110 -0.7256
  546MOL0     C73615   4.064   9.870   9.249  0.5156  0.1289  0.4572
  546MOL0     C73616   4.137   9.948   9.142  0.3088 -0.0799  0.3661
  546MOL0     C73617   4.267   9.995   9.203  0.2385  0.1479  0.4883
  546MOL0     C73618   4.339  10.097   9.106  0.9172  0.1536 -0.4910
  546MOL0     C73619   4.453  10.178   9.172  0.2697  0.5121  0.5263
  546MOL0    Cl73620   4.394  10.283   9.303  0.4431  0.0654 -0.2006
  546MOL0     C73621   3.433   9.672   9.333  1.0399 -0.1608  0.3913
  546MOL0     C73622   3.335   9.630   9.417 -0.2745 -0.3284 -0.6550
  546MOL0     O73623   3.139   9.819   9.651 -0.2580  0.9218  0.0878
  546MOL0     C73624   3.020   9.514   9.794  0.6760 -0.1686  0.1949
  546MOL0     C73625   2.915   9.468   9.877 -0.2890  1.0204  0.1031
  546MOL0     N73626   2.499   9.488  10.601 -0.6416  1.7197  0.5527
  546MOL0     N73627   2.565   9.494  10.708  0.3749 -0.5567  0.4084
  546MOL0     C73628   3.536   9.188  10.510 -0.5863 -0.6296  0.1268
  546MOL0     C73629   3.594   9.060  10.521  0.2512  0.1196  0.3318
  546MOL0     C73630   3.862   8.685  10.462  0.2279 -0.6398  0.7860
  546MOL0     C73631   3.953   8.597  10.389  0.1021  0.9309  0.1952
  546MOL0     C73632   3.956   8.462  10.435  1.0197 -0.1192  0.1242
  546MOL0     C73633   3.877   8.417  10.537 -0.0606  0.6941  0.0894
  546MOL0     O73634   3.887   8.283  10.581 -0.0970  0.1251 -0.6233
  546MOL0     C73635   3.892   8.168  10.491 -0.6697  0.1336 -0.4360
  546MOL0     C73636   3.759   8.144  10.420 -0.1374  0.1180 -0.2880
  546MOL0     C73637   3.649   8.107  10.511  0.0932 -0.3012 -0.7162
  546MOL0     C73638   3.526   8.061  10.444 -0.0128 -0.1372  0.0486
  546MOL0     C73639   3.420   8.013  10.534 -0.4516  0.3096  0.2140
  546MOL0     C73640   3.339   7.977  10.610  0.1300  0.2798  0.0851
  546MOL0     C73641   3.787   8.496  10.602  0.1508 -0.5766  0.5081
  546MOL0     C73642   3.777   8.635  10.573 -0.4988  0.0976 -0.0223
  546MOL0     H73643   3.874   9.090  10.337 -0.1093  2.1394 -0.6027
  546MOL0     H73644   3.795   9.323  10.341  0.5707  0.3350  3.5280
  546MOL0     H73645   3.388   9.412  10.503  0.6685 -2.0077  0.0242
  546MOL0     H73646   3.484   9.490  10.634 -1.9893 -2.1537  0.9110
  546MOL0     H73647   3.493   9.699  10.486  0.5073  0.0649 -0.4688
  546MOL0     H73648   3.453   9.603  10.349 -0.1127 -0.8575  1.0272
  546MOL0     H73649   3.264   9.709  10.384 -1.8620 -1.1270  0.7479
  546MOL0     H73650   3.218   9.560  10.454 -2.7092  0.9409  0.3735
  546MOL0     H73651   3.299   9.647  10.680  1.3442  0.6546 -0.1589
  546MOL0     H73652   3.318   9.801  10.598 -0.0212  0.6868 -2.9654
  546MOL0     H73653   3.089   9.793  10.733 -4.9410 -1.4960  0.7587
  546MOL0     H73654   3.067   9.800  10.555  2.7512 -0.2192 -0.1813
  546MOL0     H73655   3.034   9.543  10.570  0.0712 -0.3674  0.6428
  546MOL0     H73656   3.072   9.556  10.748 -0.8846  1.1276  1.4514
  546MOL0     H73657   2.882   9.721  10.765 -0.1822 -1.2858  0.6418
  546MOL0     H73658   2.845   9.684  10.611  1.6023  0.4747 -0.7759
  546MOL0     H73659   2.790   9.543  10.853 -2.5659  0.4846 -0.4558
  546MOL0     H73660   2.882   9.434  10.758 -2.0652 -1.1244 -3.0460
  546MOL0     H73661   2.791   9.408  10.474  0.1487 -1.2084  1.0017
  546MOL0     H73662   2.608   9.310  10.328 -0.1077  1.0295 -1.6643
  546MOL0     H73663   2.432   9.357  10.353 -0.3044  2.1301 -2.6169
  546MOL0     H73664   2.666   9.536  10.284  0.2647 -1.8257 -0.3076
  546MOL0     H73665   2.491   9.585  10.299 -2.0301 -1.8693 -2.9136
  546MOL0     H73666   2.406   9.494  10.132 -0.1396 -0.6814  2.1776
  546MOL0     H73667   2.520   9.365  10.095 -0.6021  1.0959 -3.4409
  546MOL0     H73668   2.596   9.647  10.069 -0.9786 -2.6522  6.1317
  546MOL0     H73669   2.539   9.548   9.929  1.1190  0.9945 -0.6382
  546MOL0     H73670   2.779   9.766   9.988  0.9407  0.4539  1.0712
  546MOL0     H73671   3.073   9.933   9.850  0.2944  1.5461 -3.2768
  546MOL0     H73672   2.926   9.926   9.761 -1.9848 -1.2819  1.3613
  546MOL0     H73673   2.931   9.939   9.948  2.5706  1.5964  0.7883
  546MOL0     H73674   3.442   9.778   9.699  0.1849  0.8554 -1.4713
  546MOL0     H73675   3.607   9.865   9.553 -0.5651  1.1401 -1.3404
  546MOL0     H73676   3.795   9.921   9.310  0.0811 -0.3362 -1.8142
  546MOL0     H73677   3.775   9.803   9.441 -0.5806 -1.7371  1.1884
  546MOL0     H73678   3.904   9.673   9.365  2.1236  3.0673 -0.4305
  546MOL0     H73679   3.797   9.633   9.228  0.5525 -1.8358  1.6672
  546MOL0     H73680   3.893   9.852   9.122 -0.4748  0.4348  0.6540
  546MOL0     H73681   3.992   9.699   9.129 -1.2386 -3.0647  2.1847
  546MOL0     H73682   4.022   9.942   9.319  0.9435  1.2494 -0.4164
  546MOL0     H73683   4.138   9.807   9.300 -0.6981 -2.8873 -1.2349
  546MOL0     H73684   4.075  10.029   9.101 -0.7385 -0.9237  0.2715
  546MOL0     H73685   4.178   9.881   9.066  2.0642  0.6897  0.5763
  546MOL0     H73686   4.249  10.035   9.303  2.5979 -2.4297  2.0931
  546MOL0     H73687   4.335   9.913   9.227  1.8396  0.7474 -1.6426
  546MOL0     H73688   4.261  10.165   9.071 -1.5834 -2.6051 -0.6633
  546MOL0     H73689   4.381  10.040   9.023 -4.5049  0.1276 -3.6506
  546MOL0     H73690   4.493  10.235   9.088 -0.0857 -0.2704 -0.2009
  546MOL0     H73691   4.530  10.106   9.201 -0.5549  0.4629  2.7594
  546MOL0     H73692   3.440   9.651   9.227 -1.0009 -0.5860  0.3050
  546MOL0     H73693   3.252   9.575   9.374 -0.2112 -3.4876  2.7137
  546MOL0     H73694   3.092   9.449   9.746  0.8721  1.2158 -1.4608
  546MOL0     H73695   2.903   9.362   9.892 -2.8581  0.8256 -2.4825
  546MOL0     H73696   3.441   9.217  10.553  0.0624  1.6332  0.1734
  546MOL0     H73697   3.526   8.990  10.569 -1.9247 -0.6324 -3.4430
  546MOL0     H73698   4.012   8.631  10.304 -0.6258  1.8716  0.0533
  546MOL0     H73699   4.014   8.392  10.376 -2.3803 -3.5399  0.3928
  546MOL0     H73700   3.986   8.177  10.436  1.4392 -3.8390  2.0575
  546MOL0     H73701   3.915   8.083  10.556 -0.3205  0.3097 -0.3266
  546MOL0     H73702   3.771   8.060  10.350 -0.8091  1.7109 -2.4310
  546MOL0     H73703   3.738   8.230  10.357  0.3599 -1.7206 -3.1564
  546MOL0     H73704   3.617   8.186  10.579  0.3037 -2.4931  2.1538
  546MOL0     H73705   3.689   8.034  10.582 -1.1833  0.6292  1.0377
  546MOL0     H73706   3.560   7.988  10.370  0.1290  1.1811 -1.2395
  546MOL0     H73707   3.483   8.146  10.389  0.4365 -1.2533 -2.1324
  546MOL0     H73708   3.252   7.948  10.665 -2.0108  4.7869 -0.4502
  546MOL0     H73709   3.732   8.441  10.678  2.5358 -2.2741  1.1589
  546MOL0     H73710   3.721   8.694  10.646  3.2945  2.9776  0.9109
  547MOL0     O73711   5.826  10.359   3.592  0.3341 -0.4658  0.0716
  547MOL0     C73712   5.774  10.367   3.477  0.1532 -0.3652 -0.2703
  547MOL0     O73713   5.763  10.263   3.384 -0.4942 -0.3310  0.4406
  547MOL0     C73714   5.827  10.145   3.417  0.0411  0.3259 -1.0255
  547MOL0     C73715   5.745  10.036   3.450 -0.1550 -0.1116  0.2111
  547MOL0     C73716   5.805   9.915   3.502  0.6354  0.1722 -0.2495
  547MOL0     C73717   5.950   9.910   3.522  0.8574 -1.0392  0.5027
  547MOL0     O73718   6.021   9.798   3.569  0.1033 -0.1525 -0.7978
  547MOL0     C73719   5.953   9.735   3.682  0.3572  0.3074  0.1133
  547MOL0     C73720   6.044   9.617   3.729  0.0446 -0.2300  0.2918
  547MOL0     C73721   5.980   9.527   3.834  0.2476 -0.4336  0.2301
  547MOL0     C73722   5.899   9.414   3.771  0.0674  0.6266 -0.8923
  547MOL0     C73723   5.850   9.322   3.882 -0.9933 -0.4540  0.3653
  547MOL0     C73724   5.719   9.247   3.831 -0.7607 -1.3789 -0.3213
  547MOL0     C73725   5.690   9.147   3.939  0.4743  0.1995  0.6186
  547MOL0     C73726   5.561   9.070   3.920 -0.2935  0.4111  0.2054
  547MOL0     N73727   5.443   9.145   3.959  0.1812  0.0945  0.0631
  547MOL0     C73728   5.414   9.195   4.084 -0.3793  0.3767  0.1979
  547MOL0     C73729   5.315   9.276   4.074 -0.3498  0.6534 -0.3914
  547MOL0     C73730   5.271   9.368   4.185  0.6244  1.4751  0.6519
  547MOL0     C73731   5.115   9.370   4.199  0.3560  1.0350 -0.4956
  547MOL0     C73732   5.075   9.401   4.358  0.0751  1.0729  0.2797
  547MOL0     C73733   5.063   9.553   4.376 -0.5137 -0.0995  0.1961
  547MOL0     O73734   5.048   9.574   4.516 -0.8529 -0.5357 -0.0091
  547MOL0     C73735   5.031   9.708   4.550 -0.0109  0.4305  0.9955
  547MOL0     C73736   4.949   9.741   4.653 -0.0446 -0.9062 -0.5005
  547MOL0     C73737   4.918   9.881   4.689 -0.5419 -0.0157  0.3162
  547MOL0     C73738   4.826   9.905   4.805 -0.0714 -0.6584 -0.9279
  547MOL0     C73739   5.005   9.982   4.631  0.0736  0.4653  0.8356
  547MOL0     C73740   4.990  10.122   4.667 -0.1632  0.0136 -0.0179
  547MOL0     O73741   4.877  10.192   4.653  0.1206  0.1907 -0.1754
  547MOL0     C73742   4.866  10.316   4.714 -0.9584  0.1115 -0.0888
  547MOL0     C73743   4.796  10.322   4.829  0.7753  0.4769  0.0021
  547MOL0     C73744   4.781  10.441   4.904  0.0891 -0.1446  0.2465
  547MOL0     C73745   4.844  10.555   4.856 -0.3686 -0.1143 -0.4932
  547MOL0     O73746   4.841  10.674   4.925  0.0356 -0.6199 -0.7417
  547MOL0     C73747   4.733  10.695   5.025  0.0063  0.1483  0.3690
  547MOL0     C73748   4.606  10.736   4.946 -0.7787 -0.4401 -0.2966
  547MOL0     C73749   4.485  10.665   4.982  0.1845  0.5106 -0.1505
  547MOL0     C73750   4.451  10.674   5.136  0.0257 -0.0945  0.0029
  547MOL0     C73751   4.440  10.821   5.188  0.3608 -0.9524  0.7075
  547MOL0     C73752   4.369  10.822   5.330  0.0538 -0.8710  0.6041
  547MOL0     C73753   4.217  10.783   5.330 -0.2695 -0.3568 -0.9851
  547MOL0     C73754   4.173  10.778   5.480 -0.1011  0.6850  0.5447
  547MOL0    Cl73755   4.249  10.646   5.577 -0.2335 -0.1993  0.2189
  547MOL0     C73756   4.909  10.549   4.735  0.4302  0.1283  0.1191
  547MOL0     C73757   4.925  10.431   4.669 -0.2001  0.2000  0.5364
  547MOL0     O73758   5.090  10.157   4.737 -0.1109 -0.4447  0.7217
  547MOL0     C73759   5.094   9.946   4.526  0.6469  0.3696 -0.6691
  547MOL0     C73760   5.106   9.812   4.487 -0.5405  0.8729  0.6320
  547MOL0     N73761   5.269   9.285   3.946 -0.0823  0.4144 -0.3025
  547MOL0     N73762   5.346   9.205   3.881 -1.1543  0.2326  0.1229
  547MOL0     C73763   6.020  10.016   3.470  0.3006 -0.6797  0.7794
  547MOL0     C73764   5.965  10.133   3.419 -0.2359  0.8153  0.4212
  547MOL0     C73765   5.705  10.494   3.444  0.1456 -0.6119  0.1164
  547MOL0     C73766   5.690  10.604   3.532  0.0213 -0.5197  0.0502
  547MOL0     C73767   5.618  10.718   3.498 -0.7770 -0.1225  0.3170
  547MOL0     C73768   5.554  10.729   3.367  0.2995  0.1483 -0.3420
  547MOL0     O73769   5.483  10.846   3.350  0.5108 -0.1866 -0.3367
  547MOL0     C73770   5.413  10.871   3.229 -0.6115  0.1454 -0.0103
  547MOL0     C73771   5.345  11.010   3.241 -0.4471  0.5979  0.7981
  547MOL0     C73772   5.229  10.996   3.337 -0.0383 -0.1469  0.0658
  547MOL0     C73773   5.164  11.140   3.367  0.1903  0.9246  0.0271
  547MOL0     C73774   5.058  11.124   3.466 -0.8075 -1.7089 -0.4506
  547MOL0     C73775   4.970  11.129   3.545 -0.7462 -1.0963 -0.7430
  547MOL0     C73776   5.563  10.623   3.275 -0.3154  0.1296 -0.1104
  547MOL0     C73777   5.638  10.508   3.310 -0.3295  0.1570 -0.4676
  547MOL0     H73778   5.640  10.052   3.429 -0.1456  1.5653  1.2509
  547MOL0     H73779   5.733   9.836   3.521  1.8387 -0.6370  1.2550
  547MOL0     H73780   5.935   9.802   3.766  1.0198  0.6865 -0.0347
  547MOL0     H73781   5.857   9.692   3.654 -0.8479  2.2644  1.0604
  547MOL0     H73782   6.069   9.557   3.641  0.1209  0.6143 -0.2751
  547MOL0     H73783   6.139   9.651   3.771  1.9143 -0.9383 -3.0205
  547MOL0     H73784   6.052   9.484   3.904  0.0392  0.1930  0.8455
  547MOL0     H73785   5.918   9.582   3.906  2.6824  2.9701 -0.0551
  547MOL0     H73786   5.801   9.455   3.746  0.4099  0.8105 -1.9488
  547MOL0     H73787   5.949   9.367   3.686  2.2984 -1.0771  1.2055
  547MOL0     H73788   5.930   9.248   3.894  2.2736  2.4322 -1.5727
  547MOL0     H73789   5.823   9.368   3.978 -1.2544  0.3075 -0.0600
  547MOL0     H73790   5.638   9.319   3.815  1.5612  0.9752 -2.5012
  547MOL0     H73791   5.737   9.203   3.732  0.0816 -0.0875 -0.7680
  547MOL0     H73792   5.775   9.078   3.934 -0.0938 -0.6102  1.7664
  547MOL0     H73793   5.692   9.194   4.038 -1.5887  0.7112  0.4573
  547MOL0     H73794   5.571   8.988   3.993 -1.5677  1.8577  2.1065
  547MOL0     H73795   5.564   9.021   3.822  1.4104 -0.4965  0.6767
  547MOL0     H73796   5.464   9.191   4.180 -2.2044  0.2548  1.1986
  547MOL0     H73797   5.326   9.358   4.279  0.0666  1.9103  1.0308
  547MOL0     H73798   5.294   9.466   4.142 -0.9063  0.7690 -1.9720
  547MOL0     H73799   5.063   9.280   4.167 -0.4455  1.5920 -0.7862
  547MOL0     H73800   5.086   9.446   4.126 -0.6508 -0.7052 -1.9904
  547MOL0     H73801   5.138   9.356   4.434  1.7803  1.1031 -1.0465
  547MOL0     H73802   4.971   9.369   4.371 -0.3623  1.9136 -0.8964
  547MOL0     H73803   4.967   9.591   4.339 -0.7175  1.5187  2.1952
  547MOL0     H73804   5.155   9.603   4.345  0.0097 -0.7713  0.6277
  547MOL0     H73805   4.893   9.661   4.701 -0.2432 -0.4465  0.0487
  547MOL0     H73806   4.724   9.934   4.776 -0.3607  1.2282  1.5729
  547MOL0     H73807   4.820   9.816   4.868  1.9997 -0.6529 -0.6601
  547MOL0     H73808   4.867   9.988   4.863 -0.9851  0.0570 -1.2772
  547MOL0     H73809   4.750  10.229   4.860 -0.1794 -0.1651 -3.0157
  547MOL0     H73810   4.724  10.440   4.997 -0.7881  2.4272 -0.1688
  547MOL0     H73811   4.733  10.608   5.091 -0.9049  0.6353  1.0379
  547MOL0     H73812   4.748  10.780   5.093  1.2907 -0.6579  1.1390
  547MOL0     H73813   4.583  10.842   4.962  1.3663 -0.3393  3.1234
  547MOL0     H73814   4.629  10.713   4.842  1.4674  0.3749 -0.0524
  547MOL0     H73815   4.501  10.559   4.960 -0.0216  1.0648 -3.5382
  547MOL0     H73816   4.399  10.712   4.933 -1.5769  1.4381  3.5179
  547MOL0     H73817   4.353  10.624   5.138 -1.4742  2.6530  0.1298
  547MOL0     H73818   4.523  10.616   5.194 -2.1520 -1.0429  1.8968
  547MOL0     H73819   4.385  10.886   5.118  1.6009  0.7774  1.2789
  547MOL0     H73820   4.533  10.878   5.198 -1.6897  3.2779 -1.5945
  547MOL0     H73821   4.429  10.758   5.395  1.0857  1.2750  1.9095
  547MOL0     H73822   4.373  10.924   5.370  1.2160 -1.0815  1.0727
  547MOL0     H73823   4.193  10.685   5.286  0.3320 -1.4621  1.0435
  547MOL0     H73824   4.162  10.864   5.281  2.1890  0.5324 -2.4735
  547MOL0     H73825   4.064  10.772   5.482 -0.1178 -0.6809 -1.1460
  547MOL0     H73826   4.201  10.862   5.543 -1.5841  1.0044  0.7938
  547MOL0     H73827   4.958  10.630   4.683 -0.3323  0.1932 -0.5201
  547MOL0     H73828   4.982  10.427   4.577  0.2783 -1.5741  0.8712
  547MOL0     H73829   5.146  10.031   4.483  1.4419  0.1183 -0.2160
  547MOL0     H73830   5.181   9.789   4.412 -0.3381 -0.7438  1.2942
  547MOL0     H73831   6.128  10.026   3.480  0.1483  2.0042  0.5544
  547MOL0     H73832   6.019  10.226   3.403 -0.4053  0.6526 -1.3435
  547MOL0     H73833   5.735  10.597   3.631  0.3101 -0.0049 -0.0464
  547MOL0     H73834   5.597  10.801   3.565 -5.6482  0.1261 -1.1177
  547MOL0     H73835   5.478  10.871   3.141  2.0388  0.8779  1.8495
  547MOL0     H73836   5.336  10.795   3.210 -1.1550 -0.4010  3.7507
  547MOL0     H73837   5.306  11.038   3.143  1.6487  1.5827  0.1921
  547MOL0     H73838   5.424  11.074   3.280  2.0573 -1.7721 -0.0928
  547MOL0     H73839   5.251  10.945   3.432  0.2145  0.0412  0.1108
  547MOL0     H73840   5.151  10.938   3.288 -0.6496  0.0776  0.7485
  547MOL0     H73841   5.117  11.160   3.270  0.8961  1.8962 -0.1333
  547MOL0     H73842   5.234  11.214   3.407 -0.4263  0.4194  2.1417
  547MOL0     H73843   4.895  11.133   3.621  0.0425 -0.1703  0.0151
  547MOL0     H73844   5.522  10.616   3.174 -0.1570 -0.6196 -0.1268
  547MOL0     H73845   5.648  10.435   3.230 -1.8576 -1.5912  0.8443
  548MOL0     O73846  11.418   9.675   9.562 -0.4040 -0.2050 -0.0984
  548MOL0     C73847  11.432   9.558   9.538 -0.1539 -0.5085  0.3699
  548MOL0     O73848  11.353   9.484   9.447  0.5872  0.1862 -0.0894
  548MOL0     C73849  11.272   9.565   9.367 -0.1596 -0.0320  0.1278
  548MOL0     C73850  11.311   9.623   9.249  0.1566 -0.2739 -1.0555
  548MOL0     C73851  11.231   9.696   9.162 -0.4452 -1.4646  0.6343
  548MOL0     C73852  11.102   9.726   9.199 -0.1340 -0.3109  0.4597
  548MOL0     O73853  11.020   9.813   9.127 -0.4403 -0.1049 -0.2772
  548MOL0     C73854  11.070   9.882   9.010 -0.0633  0.1722 -0.1910
  548MOL0     C73855  10.965   9.976   8.938  0.1015 -0.2919 -0.4288
  548MOL0     C73856  10.907  10.083   9.044 -0.2369 -1.0279 -0.0064
  548MOL0     C73857  11.016  10.180   9.088 -0.8531 -0.1874  0.1364
  548MOL0     C73858  10.962  10.314   9.112  0.4531  0.4741 -0.6867
  548MOL0     C73859  10.861  10.321   9.222  0.2747  1.2020 -0.4844
  548MOL0     C73860  10.913  10.265   9.351 -0.3357  0.1728  0.1386
  548MOL0     C73861  10.823  10.295   9.478 -0.7291  0.6069 -0.0049
  548MOL0     N73862  10.869  10.215   9.593 -0.3673  0.0215  0.7178
  548MOL0     C73863  11.001  10.235   9.648 -0.2935 -1.0553  0.9476
  548MOL0     C73864  11.021  10.136   9.730  1.0743 -0.0947 -0.4780
  548MOL0     C73865  11.138  10.123   9.807 -0.8118  0.4618  0.5499
  548MOL0     C73866  11.140  10.219   9.934 -0.3549 -0.5599  0.4550
  548MOL0     C73867  11.041  10.208  10.043  0.9428  0.0494  0.9836
  548MOL0     C73868  10.982  10.066  10.064  0.4543 -0.7046 -0.3782
  548MOL0     O73869  11.074   9.969  10.086 -0.4797 -0.0117 -0.2509
  548MOL0     C73870  11.142   9.962  10.205 -0.3582  0.2044  0.4131
  548MOL0     C73871  11.228   9.860  10.221  0.2618 -0.3958 -0.6714
  548MOL0     C73872  11.304   9.837  10.345  0.2163  0.5803  0.0509
  548MOL0     C73873  11.407   9.725  10.328  0.0130  0.6219  0.9323
  548MOL0     C73874  11.278   9.920  10.448  0.9692 -0.0485 -0.5041
  548MOL0     C73875  11.361   9.908  10.566  0.0847 -0.7026 -0.1500
  548MOL0     O73876  11.358  10.018  10.655 -0.2507  0.0152  0.0373
  548MOL0     C73877  11.441  10.015  10.765 -0.5969  0.2011 -0.6055
  548MOL0     C73878  11.421   9.922  10.878 -0.8892  0.7481  0.8165
  548MOL0     C73879  11.489   9.941  11.000 -0.3128 -0.1826 -0.2625
  548MOL0     C73880  11.585  10.045  11.009  0.3930  0.0569  0.3961
  548MOL0     O73881  11.655  10.080  11.117  0.2941  0.3017 -0.1478
  548MOL0     C73882  11.730   9.997  11.203 -0.4604 -0.1094 -0.3763
  548MOL0     C73883  11.739  10.056  11.341 -0.4831 -0.6072 -0.1145
  548MOL0     C73884  11.599  10.081  11.398  0.0834  0.2343  0.2386
  548MOL0     C73885  11.613  10.142  11.539  0.9835 -0.6690 -0.0170
  548MOL0     C73886  11.490  10.113  11.628  0.3682 -0.6351  0.8255
  548MOL0     C73887  11.510  10.176  11.768 -0.1908  0.2402  1.4990
  548MOL0     C73888  11.627  10.129  11.859  0.3134  0.3221 -0.1426
  548MOL0     C73889  11.622  10.215  11.990 -0.2962  0.0300  0.4625
  548MOL0    Cl73890  11.757  10.175  12.102  0.0172 -0.3517 -0.4471
  548MOL0     C73891  11.600  10.135  10.903 -0.0445  0.3682  0.0747
  548MOL0     C73892  11.531  10.118  10.784 -0.8497  0.6255 -0.4979
  548MOL0     O73893  11.432   9.812  10.587  0.4063  0.7770  0.5794
  548MOL0     C73894  11.187  10.022  10.430  0.3665 -0.3369 -0.3097
  548MOL0     C73895  11.120  10.045  10.310 -0.6763 -1.7929 -0.2153
  548MOL0     N73896  10.895  10.062   9.734 -0.2930 -0.3239 -0.4331
  548MOL0     N73897  10.811  10.111   9.655  0.0681  0.8420  0.7619
  548MOL0     C73898  11.061   9.668   9.325  0.4215  0.5468  1.0937
  548MOL0     C73899  11.135   9.584   9.396  0.7609  0.9521 -0.9213
  548MOL0     C73900  11.532   9.494   9.628 -0.7927  0.3009  0.8095
  548MOL0     C73901  11.563   9.362   9.594  0.6488  0.1645  0.4041
  548MOL0     C73902  11.665   9.292   9.657 -0.3532 -0.5262 -0.3963
  548MOL0     C73903  11.742   9.358   9.759 -0.9125  0.2019  0.4321
  548MOL0     O73904  11.849   9.293   9.810 -0.3614  0.4282  0.0388
  548MOL0     C73905  11.921   9.336   9.928 -0.7965  0.0647  0.2469
  548MOL0     C73906  11.959   9.209  10.012  0.0105 -0.4425 -0.3928
  548MOL0     C73907  12.003   9.091   9.920 -0.5440 -0.4307 -0.3854
  548MOL0     C73908  12.116   9.125   9.828 -1.8193  0.5311  0.4147
  548MOL0     C73909  12.239   9.160   9.902  1.3423 -0.8894  0.0713
  548MOL0     C73910  12.336   9.181   9.965  0.2985  0.5936  0.4314
  548MOL0     C73911  11.713   9.487   9.791 -0.2235 -1.0414  1.1075
  548MOL0     C73912  11.610   9.554   9.726  0.3512 -0.2715  0.2901
  548MOL0     H73913  11.416   9.607   9.225 -0.4113 -2.8670 -2.2074
  548MOL0     H73914  11.284   9.735   9.076 -0.0921  0.1959  1.5628
  548MOL0     H73915  11.149   9.953   9.033 -1.3999  1.6394  0.0857
  548MOL0     H73916  11.109   9.811   8.936 -0.0889  3.2454 -3.4090
  548MOL0     H73917  11.010  10.030   8.854 -0.5138 -2.1503 -2.0157
  548MOL0     H73918  10.882   9.921   8.893 -2.2080  2.8790 -0.4285
  548MOL0     H73919  10.817  10.131   9.004 -0.7083 -0.0811  2.0317
  548MOL0     H73920  10.873  10.031   9.134  0.9436 -1.1869  0.3529
  548MOL0     H73921  11.076  10.145   9.172  1.2351  1.6939 -0.4671
  548MOL0     H73922  11.093  10.200   9.012 -0.0480  3.5058  1.6996
  548MOL0     H73923  11.044  10.386   9.114  0.0362  1.1017 -2.8548
  548MOL0     H73924  10.916  10.348   9.018  1.2281  0.1397 -1.2012
  548MOL0     H73925  10.835  10.427   9.234 -1.9818  0.3761  3.0995
  548MOL0     H73926  10.767  10.277   9.190  0.3014  0.6875  0.1302
  548MOL0     H73927  10.922  10.156   9.353  1.8643  0.3239  2.1992
  548MOL0     H73928  11.013  10.300   9.376 -0.2460 -0.2966  0.4423
  548MOL0     H73929  10.723  10.274   9.439  0.2837 -0.9639 -1.9619
  548MOL0     H73930  10.821  10.402   9.502  4.2989  1.0858 -0.6354
  548MOL0     H73931  11.069  10.317   9.625  0.6425 -1.3687  2.4716
  548MOL0     H73932  11.155  10.018   9.833  1.1207  1.0427  1.8545
  548MOL0     H73933  11.227  10.155   9.752 -1.4853  0.1684 -0.7280
  548MOL0     H73934  11.142  10.320   9.893 -1.3199 -1.3720 -1.7348
  548MOL0     H73935  11.237  10.203   9.982  0.3421 -0.6907 -0.9469
  548MOL0     H73936  10.956  10.277  10.040 -0.8335 -1.8946 -4.2308
  548MOL0     H73937  11.097  10.232  10.134  0.7341 -0.6074  1.2931
  548MOL0     H73938  10.918  10.027   9.985 -1.1382 -2.8345  1.8000
  548MOL0     H73939  10.911  10.078  10.147  1.0373  4.0114 -0.2535
  548MOL0     H73940  11.239   9.793  10.136  0.5963  1.1858 -1.9252
  548MOL0     H73941  11.391   9.678  10.231  2.1609  2.5136 -0.4077
  548MOL0     H73942  11.506   9.761  10.356 -0.3558  0.9029  1.9388
  548MOL0     H73943  11.393   9.638  10.394 -0.1044 -1.7882 -2.0807
  548MOL0     H73944  11.358   9.835  10.861  1.3208 -0.4416 -2.3092
  548MOL0     H73945  11.476   9.872  11.084 -0.5339  3.5027  3.0198
  548MOL0     H73946  11.678   9.902  11.217 -1.5052  0.6347  1.0322
  548MOL0     H73947  11.830   9.978  11.162 -0.8919  1.8274 -2.4538
  548MOL0     H73948  11.789   9.977  11.397  1.8368 -0.0588 -1.2803
  548MOL0     H73949  11.791  10.152  11.343 -1.9688  0.2187  0.2666
  548MOL0     H73950  11.550   9.984  11.414  0.8351  0.0031  1.2852
  548MOL0     H73951  11.529  10.136  11.335 -2.8848 -0.8487  2.3404
  548MOL0     H73952  11.702  10.094  11.580  1.6856 -1.5802 -2.4314
  548MOL0     H73953  11.624  10.251  11.528 -0.4823 -0.1433  2.7657
  548MOL0     H73954  11.467  10.006  11.630 -0.5756 -0.5920 -2.1810
  548MOL0     H73955  11.404  10.160  11.579  1.3683  1.3322  0.8489
  548MOL0     H73956  11.520  10.284  11.754  0.5493  0.1433  1.2398
  548MOL0     H73957  11.417  10.159  11.823  1.2739 -0.0948  4.0186
  548MOL0     H73958  11.723  10.136  11.807  1.8068  1.5696  2.5498
  548MOL0     H73959  11.615  10.022  11.877 -2.4740  0.0480 -2.8216
  548MOL0     H73960  11.529  10.196  12.045 -0.8866 -1.9549 -1.1153
  548MOL0     H73961  11.633  10.322  11.971  1.0073 -0.2602 -0.5243
  548MOL0     H73962  11.666  10.218  10.929  1.6523 -1.2209  1.1064
  548MOL0     H73963  11.555  10.186  10.703  0.7041 -0.8793 -1.3674
  548MOL0     H73964  11.179  10.104  10.501 -1.4899 -0.9991  0.3110
  548MOL0     H73965  11.048  10.126  10.314 -2.4313 -3.3210  3.3259
  548MOL0     H73966  10.956   9.674   9.351  0.2214 -1.1736  0.7696
  548MOL0     H73967  11.096   9.541   9.488  0.4496 -1.5970 -2.1683
  548MOL0     H73968  11.508   9.309   9.517 -1.9444 -1.0796  2.9320
  548MOL0     H73969  11.688   9.191   9.623 -1.6459 -0.1979 -2.4160
  548MOL0     H73970  12.008   9.392   9.895 -1.0240  0.3794  0.1825
  548MOL0     H73971  11.869   9.408   9.992  0.0524 -0.5729  1.7295
  548MOL0     H73972  11.871   9.181  10.071  0.7381  1.6032  1.8158
  548MOL0     H73973  12.040   9.234  10.081  0.2868 -3.2072  0.4067
  548MOL0     H73974  11.917   9.057   9.861  0.2527 -0.3109 -1.6498
  548MOL0     H73975  12.017   9.007   9.989 -1.0017 -0.0194  0.2181
  548MOL0     H73976  12.084   9.203   9.758 -1.3398 -0.5440 -1.0351
  548MOL0     H73977  12.139   9.034   9.773  1.2976  0.2240  2.0010
  548MOL0     H73978  12.425   9.196  10.024 -0.3758  0.3361  1.5378
  548MOL0     H73979  11.771   9.547   9.861 -3.0205  0.1475  2.5838
  548MOL0     H73980  11.583   9.656   9.750  0.7704 -0.0351 -0.2181
  549MOL0     O73981   0.036   6.061   4.276 -0.4134 -0.0419 -0.2474
  549MOL0     C73982   0.012   5.950   4.251  0.6325  0.4815  1.0252
  549MOL0     O73983  -0.055   5.862   4.328  0.5019  0.1209 -0.2617
  549MOL0     C73984  -0.110   5.899   4.446  0.2017 -0.6205 -0.3948
  549MOL0     C73985  -0.210   5.998   4.457 -0.0540  0.7578  0.8262
  549MOL0     C73986  -0.257   6.049   4.578 -0.1834  0.4550 -0.5040
  549MOL0     C73987  -0.195   6.003   4.696  0.3930 -0.4162 -0.0555
  549MOL0     O73988  -0.251   6.056   4.812 -0.0151  0.0868  0.4679
  549MOL0     C73989  -0.146   6.105   4.894 -0.0507  0.2320 -0.2597
  549MOL0     C73990  -0.198   6.181   5.017  0.9829 -0.3346  0.0705
  549MOL0     C73991  -0.088   6.229   5.106  0.1536 -0.6222 -0.4272
  549MOL0     C73992  -0.159   6.285   5.239  0.3748  0.2326  0.6749
  549MOL0     C73993  -0.051   6.304   5.346 -0.0211 -0.2460  0.5672
  549MOL0     C73994  -0.107   6.371   5.476 -0.0275  0.5195 -0.1168
  549MOL0     C73995   0.007   6.427   5.567  1.0171  0.9087 -0.7241
  549MOL0     C73996  -0.040   6.492   5.699  0.4903  0.4099  0.6303
  549MOL0     N73997   0.048   6.603   5.738 -0.6816 -0.1887 -0.0367
  549MOL0     C73998   0.064   6.726   5.689  0.0229 -0.1130  1.4514
  549MOL0     C73999   0.158   6.789   5.762 -0.6282 -0.2683 -0.2058
  549MOL0     C74000   0.226   6.926   5.742 -0.2411  0.6026 -0.5555
  549MOL0     C74001   0.351   6.907   5.662  0.3890 -0.4586  0.4325
  549MOL0     C74002   0.450   7.033   5.657 -0.4709 -0.5263  1.0408
  549MOL0     C74003   0.554   7.017   5.542 -0.3020  0.5308  0.2127
  549MOL0     O74004   0.619   6.887   5.548 -0.2146  0.0276  0.6095
  549MOL0     C74005   0.759   6.891   5.542 -0.3906  0.4434  0.3030
  549MOL0     C74006   0.841   6.906   5.655  0.4296 -0.0850 -0.2937
  549MOL0     C74007   0.973   6.911   5.644 -0.3519  0.8042  0.8096
  549MOL0     C74008   1.044   6.925   5.773  0.5269 -0.3430  0.5094
  549MOL0     C74009   1.038   6.866   5.516  1.3202  0.1484  0.0109
  549MOL0     C74010   1.175   6.833   5.507 -0.1348 -0.8508  1.2161
  549MOL0     O74011   1.216   6.811   5.374 -0.7861 -0.2817 -0.0498
  549MOL0     C74012   1.347   6.770   5.362 -0.0560 -0.0996 -0.5934
  549MOL0     C74013   1.461   6.846   5.393  0.0725 -0.5146 -0.1445
  549MOL0     C74014   1.591   6.798   5.380 -0.4450  0.1444  0.3961
  549MOL0     C74015   1.616   6.666   5.337 -0.8488  0.1807  0.0516
  549MOL0     O74016   1.744   6.617   5.315 -1.0097 -0.2389 -0.2534
  549MOL0     C74017   1.796   6.540   5.420  0.0274  0.7967  0.3305
  549MOL0     C74018   1.943   6.572   5.430 -0.4234  0.5451  0.7601
  549MOL0     C74019   2.017   6.468   5.506  0.0657  0.1000  0.0351
  549MOL0     C74020   2.132   6.529   5.584 -0.3014  1.6008  0.2585
  549MOL0     C74021   2.218   6.623   5.506 -0.5626 -1.0572 -0.3903
  549MOL0     C74022   2.322   6.672   5.600 -0.0499 -0.5023 -0.3129
  549MOL0     C74023   2.413   6.776   5.522  0.6852 -0.0889  0.4599
  549MOL0     C74024   2.470   6.877   5.630  0.2154 -0.5915  0.3687
  549MOL0    Cl74025   2.591   6.796   5.734  0.1212  0.2988 -0.3588
  549MOL0     C74026   1.502   6.583   5.307  0.1227 -0.6110 -0.2027
  549MOL0     C74027   1.372   6.638   5.313 -0.0207  0.1991  0.3690
  549MOL0     O74028   1.240   6.823   5.608  0.0684 -0.5999  0.1597
  549MOL0     C74029   0.956   6.854   5.405 -0.0925 -0.1049 -0.1728
  549MOL0     C74030   0.817   6.863   5.425 -0.8908  0.8888  0.4767
  549MOL0     N74031   0.195   6.696   5.862  0.3714 -0.1608 -0.1572
  549MOL0     N74032   0.137   6.581   5.838  0.4158  0.2593 -1.1975
  549MOL0     C74033  -0.104   5.899   4.689  0.5546  0.8535  0.5416
  549MOL0     C74034  -0.055   5.854   4.564  0.1283  0.0657  0.3197
  549MOL0     C74035   0.051   5.901   4.117  0.1703  1.1100 -0.6755
  549MOL0     C74036   0.029   5.769   4.074 -0.4285 -0.8493  0.4054
  549MOL0     C74037   0.061   5.722   3.947 -0.2371 -0.3651  0.5071
  549MOL0     C74038   0.102   5.818   3.849 -0.1613 -0.0951 -1.0848
  549MOL0     O74039   0.130   5.789   3.716  0.3136 -0.0235  0.2459
  549MOL0     C74040   0.036   5.723   3.629  0.9487 -0.4880 -0.1505
  549MOL0     C74041  -0.073   5.824   3.581  0.2256 -0.3086  0.2893
  549MOL0     C74042  -0.175   5.865   3.687  0.7006 -1.2828 -0.1256
  549MOL0     C74043  -0.294   5.784   3.707  0.2548 -0.7654  0.2450
  549MOL0     C74044  -0.274   5.690   3.815 -0.7322  0.2321  0.0088
  549MOL0     C74045  -0.291   5.623   3.914 -0.4896  0.8241 -0.1380
  549MOL0     C74046   0.112   5.949   3.886  0.0765 -0.6096  0.0367
  549MOL0     C74047   0.090   5.988   4.016  0.1118 -0.0267 -0.1503
  549MOL0     H74048  -0.265   6.010   4.364  2.0445  0.5431 -0.5086
  549MOL0     H74049  -0.345   6.111   4.586 -0.3753  0.3996 -1.9304
  549MOL0     H74050  -0.083   6.020   4.922 -1.5566 -1.1202 -0.7899
  549MOL0     H74051  -0.084   6.177   4.839 -0.6092 -0.6131 -2.0918
  549MOL0     H74052  -0.248   6.275   4.991  0.0472 -0.9526 -0.4396
  549MOL0     H74053  -0.278   6.121   5.061  1.0911  0.5606  1.5597
  549MOL0     H74054  -0.032   6.137   5.126  0.8545 -0.1300 -0.0697
  549MOL0     H74055  -0.024   6.292   5.043  1.9518  0.0520  1.9536
  549MOL0     H74056  -0.192   6.385   5.208  1.5173  0.0747 -1.1397
  549MOL0     H74057  -0.237   6.217   5.274  1.3495 -0.7726  0.9522
  549MOL0     H74058   0.004   6.215   5.375  0.1582 -0.1972  0.3800
  549MOL0     H74059   0.034   6.360   5.307  1.5851 -1.3242  2.3456
  549MOL0     H74060  -0.161   6.462   5.449  3.3974  2.8652  0.2657
  549MOL0     H74061  -0.164   6.296   5.531  3.0763 -0.6067  1.8155
  549MOL0     H74062   0.089   6.354   5.576  0.6006  0.1420 -2.6949
  549MOL0     H74063   0.051   6.512   5.515 -0.8789  0.2189 -3.7231
  549MOL0     H74064  -0.038   6.416   5.778 -0.9574  1.5437  1.8145
  549MOL0     H74065  -0.146   6.517   5.698  0.6830  1.2947 -1.2428
  549MOL0     H74066   0.016   6.766   5.601  1.3606 -0.7277  0.4060
  549MOL0     H74067   0.164   6.992   5.680 -0.5131  0.7102 -0.1701
  549MOL0     H74068   0.241   6.979   5.836  0.7582 -1.0044  0.2218
  549MOL0     H74069   0.316   6.899   5.559 -1.8665  3.4604  0.6819
  549MOL0     H74070   0.395   6.815   5.700  1.1047 -1.1521 -1.9356
  549MOL0     H74071   0.495   7.049   5.755 -0.3814  1.7726  0.6789
  549MOL0     H74072   0.393   7.120   5.625 -1.0132 -0.7337  1.4226
  549MOL0     H74073   0.625   7.100   5.538  0.6817 -0.2983 -3.1092
  549MOL0     H74074   0.489   7.007   5.455 -2.8125 -0.9960  2.1468
  549MOL0     H74075   0.805   6.929   5.755  0.0595 -0.3349 -0.3683
  549MOL0     H74076   1.058   6.835   5.833 -1.2017 -0.1329  1.2930
  549MOL0     H74077   1.141   6.971   5.753 -0.0546 -0.0100 -1.9608
  549MOL0     H74078   0.993   6.980   5.853 -1.7624 -0.8350 -0.5199
  549MOL0     H74079   1.447   6.948   5.429 -0.6151 -1.9800  4.2146
  549MOL0     H74080   1.671   6.868   5.402  1.9297 -1.3208 -2.7826
  549MOL0     H74081   1.745   6.564   5.514  0.0146  0.6930  0.3507
  549MOL0     H74082   1.798   6.431   5.416  1.3595  0.8357 -2.7642
  549MOL0     H74083   1.996   6.588   5.336  5.3548  1.4545  3.6799
  549MOL0     H74084   1.945   6.672   5.475 -0.0548 -0.0428  2.1337
  549MOL0     H74085   2.048   6.383   5.445 -1.2577  0.2891 -0.9365
  549MOL0     H74086   1.958   6.411   5.578 -0.7482  0.0540 -0.6495
  549MOL0     H74087   2.093   6.583   5.670 -2.1623  0.6829  0.0457
  549MOL0     H74088   2.200   6.446   5.607  0.9951  1.2079 -3.9859
  549MOL0     H74089   2.165   6.712   5.472 -3.2866 -3.1728 -2.1538
  549MOL0     H74090   2.260   6.571   5.418 -1.1196  1.1608 -2.0538
  549MOL0     H74091   2.267   6.730   5.674 -1.3116 -0.1733 -1.4782
  549MOL0     H74092   2.374   6.590   5.653  0.6112  0.6714  0.9230
  549MOL0     H74093   2.356   6.832   5.447  2.2336 -0.0610 -0.7550
  549MOL0     H74094   2.492   6.724   5.466 -1.1577 -0.9093 -1.5079
  549MOL0     H74095   2.380   6.911   5.682  0.0797 -1.4585  0.7145
  549MOL0     H74096   2.513   6.963   5.577 -1.7967 -1.6639 -3.4047
  549MOL0     H74097   1.518   6.483   5.267  1.0592  0.4151 -2.6040
  549MOL0     H74098   1.282   6.576   5.312 -2.5106  3.5056  1.5660
  549MOL0     H74099   0.981   6.836   5.301 -0.6505  0.5352 -0.4267
  549MOL0     H74100   0.757   6.851   5.336 -1.0347  1.9375  0.4208
  549MOL0     H74101  -0.077   5.839   4.775  2.6557  1.2360  0.1940
  549MOL0     H74102   0.021   5.776   4.567  0.0138 -0.0981 -0.6746
  549MOL0     H74103  -0.011   5.688   4.134  2.2663 -2.7173 -0.1184
  549MOL0     H74104   0.040   5.618   3.926  0.8659 -0.2894 -1.2155
  549MOL0     H74105   0.078   5.673   3.541 -4.2450 -2.6123 -1.7796
  549MOL0     H74106  -0.022   5.648   3.682 -1.2324  0.4897 -1.0336
  549MOL0     H74107  -0.127   5.781   3.496 -0.5205 -0.4215  0.8101
  549MOL0     H74108  -0.008   5.904   3.543  1.5906 -1.7233 -0.4766
  549MOL0     H74109  -0.212   5.963   3.657  1.0168 -0.9842  0.4452
  549MOL0     H74110  -0.138   5.890   3.787 -2.3595 -1.2759  1.1278
  549MOL0     H74111  -0.314   5.717   3.622  1.7360 -3.1698  1.6762
  549MOL0     H74112  -0.370   5.859   3.733  2.4334  0.9896  1.9898
  549MOL0     H74113  -0.306   5.557   3.997 -1.2474 -2.9061 -2.9452
  549MOL0     H74114   0.152   6.013   3.809  5.1508  0.0302  2.7765
  549MOL0     H74115   0.098   6.092   4.045 -1.8699  0.1080  0.0476
  550MOL0     O74116   0.579   3.388   7.046 -0.4832 -0.7252  0.4180
  550MOL0     C74117   0.502   3.465   7.096 -0.2030 -1.1004  0.9451
  550MOL0     O74118   0.387   3.494   7.035 -0.3385 -0.7117  0.2268
  550MOL0     C74119   0.391   3.513   6.902  0.0609  0.2027 -0.3846
  550MOL0     C74120   0.493   3.559   6.825 -0.2459  0.7025  0.4862
  550MOL0     C74121   0.482   3.604   6.694  0.9684  0.4559  0.0482
  550MOL0     C74122   0.357   3.595   6.624  0.1604 -0.4006 -0.8392
  550MOL0     O74123   0.351   3.636   6.485  0.1694  0.1440 -0.2932
  550MOL0     C74124   0.319   3.519   6.409 -0.3323  0.3658 -0.7168
  550MOL0     C74125   0.216   3.534   6.302 -0.0650 -0.3577 -1.0251
  550MOL0     C74126   0.229   3.416   6.208 -0.6683  0.3281  0.4193
  550MOL0     C74127   0.146   3.441   6.087  0.1851  0.0715 -0.6111
  550MOL0     C74128   0.165   3.346   5.974 -0.2982  0.0027  0.2500
  550MOL0     C74129   0.110   3.206   5.993 -0.4991 -1.2592  0.3491
  550MOL0     C74130   0.155   3.115   5.876  0.0382  0.3265 -0.3095
  550MOL0     C74131   0.058   2.997   5.887 -0.5485 -0.2880 -0.8342
  550MOL0     N74132   0.091   2.900   5.783 -0.2286  0.7298  0.5440
  550MOL0     C74133   0.213   2.864   5.742 -0.5744 -0.2936  0.2615
  550MOL0     C74134   0.185   2.785   5.645  0.3269  0.0235  0.1528
  550MOL0     C74135   0.295   2.734   5.549 -0.4011  0.1560 -0.0173
  550MOL0     C74136   0.270   2.602   5.469  0.9708  0.6484  0.5053
  550MOL0     C74137   0.249   2.482   5.561 -0.8424  0.0202  1.0890
  550MOL0     C74138   0.365   2.453   5.653  0.3643  0.3744  0.6155
  550MOL0     O74139   0.349   2.319   5.685  0.8344  0.0011 -0.3026
  550MOL0     C74140   0.432   2.252   5.770  0.4930 -0.0311  0.7239
  550MOL0     C74141   0.532   2.317   5.832 -0.5801  0.1924 -0.1951
  550MOL0     C74142   0.611   2.244   5.927  1.1514 -0.1612  0.6285
  550MOL0     C74143   0.714   2.326   5.996  0.6445  0.8548  0.2709
  550MOL0     C74144   0.572   2.111   5.955 -0.5016 -0.5417  0.1036
  550MOL0     C74145   0.641   2.034   6.056 -0.3713  0.2297  0.8522
  550MOL0     O74146   0.601   1.898   6.072  0.1896 -0.3427  0.0063
  550MOL0     C74147   0.642   1.833   6.186  0.3572 -0.7976  0.6789
  550MOL0     C74148   0.698   1.707   6.160 -0.2281 -0.2178 -0.0319
  550MOL0     C74149   0.725   1.629   6.271 -1.0033  0.8535 -1.0753
  550MOL0     C74150   0.708   1.674   6.412  0.2489  0.2166 -0.0957
  550MOL0     O74151   0.742   1.603   6.525  0.1812 -0.0185  0.5182
  550MOL0     C74152   0.794   1.476   6.489  0.5417  0.4148 -0.3554
  550MOL0     C74153   0.822   1.394   6.619 -0.0936 -0.2177 -0.1165
  550MOL0     C74154   0.864   1.250   6.592  0.1698 -0.3408  0.0330
  550MOL0     C74155   0.771   1.177   6.493  0.2930  0.4825  0.1424
  550MOL0     C74156   0.778   1.029   6.519 -1.1894 -0.0978 -1.0227
  550MOL0     C74157   0.699   0.991   6.646  0.4188  1.2462  0.4527
  550MOL0     C74158   0.670   0.837   6.645  0.2254  0.5020 -0.7714
  550MOL0     C74159   0.607   0.806   6.783  0.1938 -0.1352 -1.3101
  550MOL0    Cl74160   0.645   0.638   6.834  0.0526 -0.3187 -0.2906
  550MOL0     C74161   0.660   1.804   6.426 -0.1604 -0.6009  0.2692
  550MOL0     C74162   0.626   1.884   6.313  0.1881 -0.5670 -0.6185
  550MOL0     O74163   0.739   2.077   6.119 -0.8660 -1.3501  0.0854
  550MOL0     C74164   0.474   2.046   5.876 -0.4385  0.0646  0.1914
  550MOL0     C74165   0.399   2.119   5.788  0.3607  0.6524  0.3190
  550MOL0     N74166   0.046   2.768   5.636  0.5534  0.1172  0.5157
  550MOL0     N74167  -0.010   2.839   5.722  0.3456  0.1209 -0.4729
  550MOL0     C74168   0.252   3.531   6.694  0.6516  0.4387 -0.2981
  550MOL0     C74169   0.270   3.490   6.837  0.3199 -0.9013 -0.0797
  550MOL0     C74170   0.528   3.522   7.228  0.2376  0.1523  0.3125
  550MOL0     C74171   0.417   3.588   7.293  0.1635 -0.6564  0.1256
  550MOL0     C74172   0.427   3.636   7.420  0.7997  1.3840 -0.3977
  550MOL0     C74173   0.555   3.648   7.470 -1.5769  0.0953 -0.8706
  550MOL0     O74174   0.560   3.696   7.600  0.1487  0.6388  0.2762
  550MOL0     C74175   0.648   3.802   7.627  0.2078 -0.6045 -0.0739
  550MOL0     C74176   0.563   3.925   7.628  0.3659  0.5066  0.2337
  550MOL0     C74177   0.558   3.991   7.498  0.2901  0.1021  0.3364
  550MOL0     C74178   0.688   4.034   7.444 -0.7482  0.0824  0.5097
  550MOL0     C74179   0.770   4.123   7.532  0.2232  0.2974 -0.2919
  550MOL0     C74180   0.828   4.192   7.613 -0.1244  0.5253 -1.1479
  550MOL0     C74181   0.673   3.597   7.412 -0.2617  0.3642 -0.0131
  550MOL0     C74182   0.654   3.527   7.288 -0.0883  1.0477  0.1693
  550MOL0     H74183   0.588   3.575   6.875 -0.4829 -0.0038  1.1773
  550MOL0     H74184   0.561   3.663   6.647 -0.6107  2.4896 -0.1842
  550MOL0     H74185   0.415   3.494   6.362 -1.0492 -3.2547 -0.5661
  550MOL0     H74186   0.293   3.436   6.476 -0.2596  0.7692 -0.1857
  550MOL0     H74187   0.118   3.519   6.350  0.8515 -3.5858  0.0972
  550MOL0     H74188   0.212   3.633   6.257  0.8196  1.0576  1.7719
  550MOL0     H74189   0.334   3.406   6.181 -0.1980 -4.7620  2.9491
  550MOL0     H74190   0.211   3.316   6.249  1.6125 -0.9939 -1.5839
  550MOL0     H74191   0.040   3.449   6.114  0.2245  1.4481 -0.7644
  550MOL0     H74192   0.171   3.537   6.041 -1.5854  0.6244 -0.5023
  550MOL0     H74193   0.133   3.394   5.881  3.3769  0.9361 -0.6710
  550MOL0     H74194   0.272   3.332   5.958 -0.3078 -1.9231  1.5655
  550MOL0     H74195   0.160   3.167   6.082 -0.0613  1.0971  1.2125
  550MOL0     H74196   0.003   3.207   6.013 -0.3669  1.2732  1.3047
  550MOL0     H74197   0.161   3.167   5.779  1.4927 -1.4514 -1.2547
  550MOL0     H74198   0.258   3.079   5.892  0.2311  0.4690 -1.1718
  550MOL0     H74199  -0.046   3.030   5.877  0.4097  2.8731 -1.8359
  550MOL0     H74200   0.085   2.958   5.985  1.2802  2.0070 -0.3217
  550MOL0     H74201   0.313   2.883   5.779 -1.6812  0.1228  3.2943
  550MOL0     H74202   0.329   2.817   5.486  4.0604 -1.7492 -0.4877
  550MOL0     H74203   0.382   2.712   5.611 -0.1011  0.7157 -0.2301
  550MOL0     H74204   0.351   2.577   5.400 -1.1671 -1.6566 -1.3460
  550MOL0     H74205   0.184   2.623   5.405 -0.2713 -4.1320  0.1860
  550MOL0     H74206   0.225   2.393   5.502 -0.4243  1.8694 -2.1599
  550MOL0     H74207   0.158   2.491   5.620 -2.1750  1.4400 -1.0372
  550MOL0     H74208   0.353   2.502   5.750 -2.4174 -0.8583  0.9915
  550MOL0     H74209   0.461   2.466   5.603  1.6059 -2.9668  1.8346
  550MOL0     H74210   0.541   2.422   5.807 -0.9552 -0.3118 -2.6826
  550MOL0     H74211   0.705   2.327   6.105 -2.4754 -0.3272  0.1296
  550MOL0     H74212   0.814   2.300   5.960 -0.5708 -1.3422 -1.7807
  550MOL0     H74213   0.702   2.429   5.961  1.7333  0.9702  0.2013
  550MOL0     H74214   0.706   1.669   6.059  0.5774 -0.5086  0.1377
  550MOL0     H74215   0.757   1.528   6.245  2.8315  1.8361 -0.8040
  550MOL0     H74216   0.724   1.428   6.420  0.0856 -0.0553  0.4204
  550MOL0     H74217   0.890   1.502   6.444  0.7471  1.3582  0.5906
  550MOL0     H74218   0.900   1.444   6.677 -1.6283 -0.2156  2.0851
  550MOL0     H74219   0.735   1.393   6.686  0.0942  0.0954  0.1352
  550MOL0     H74220   0.862   1.195   6.686 -1.0959  1.5783  1.2020
  550MOL0     H74221   0.963   1.251   6.544 -0.2286 -1.7517 -0.8553
  550MOL0     H74222   0.673   1.225   6.499  1.5008  2.8765  2.7435
  550MOL0     H74223   0.802   1.197   6.390 -0.2163  2.5118  0.3411
  550MOL0     H74224   0.885   1.009   6.512 -0.7579  1.4074  0.6059
  550MOL0     H74225   0.729   0.975   6.437  0.9088 -2.0953 -1.0431
  550MOL0     H74226   0.767   1.013   6.728  2.8613 -2.1522 -0.4140
  550MOL0     H74227   0.598   1.031   6.658 -0.1952 -0.8277  2.9815
  550MOL0     H74228   0.764   0.783   6.635  0.5135  1.0123 -0.8010
  550MOL0     H74229   0.607   0.815   6.558  1.8107 -0.5632 -1.6911
  550MOL0     H74230   0.499   0.820   6.774  0.2831  0.4610 -1.4970
  550MOL0     H74231   0.642   0.867   6.867 -1.5836 -1.1293  0.2431
  550MOL0     H74232   0.633   1.843   6.523 -4.6055 -1.3997 -0.4275
  550MOL0     H74233   0.581   1.983   6.318 -2.3878 -1.7028  0.6981
  550MOL0     H74234   0.441   1.943   5.892  0.3029 -1.2277 -4.8701
  550MOL0     H74235   0.320   2.081   5.723 -0.9381  0.8289  1.7417
  550MOL0     H74236   0.162   3.511   6.636  1.4255 -0.5209 -1.2186
  550MOL0     H74237   0.189   3.461   6.904 -0.7024  2.6709  0.4093
  550MOL0     H74238   0.320   3.607   7.249 -0.3992 -0.1331  1.5346
  550MOL0     H74239   0.340   3.662   7.480  0.1073 -2.3433  0.5027
  550MOL0     H74240   0.685   3.789   7.730 -0.1776  2.0487  0.4694
  550MOL0     H74241   0.732   3.794   7.558 -1.0697 -0.0790 -1.7617
  550MOL0     H74242   0.599   4.003   7.695  0.1916 -0.6017  1.6828
  550MOL0     H74243   0.467   3.890   7.668  0.6619 -0.1983  0.3491
  550MOL0     H74244   0.482   4.070   7.492 -1.1170 -1.2737 -0.9532
  550MOL0     H74245   0.526   3.908   7.435 -1.3449 -1.3652  2.8936
  550MOL0     H74246   0.693   4.089   7.350  0.3381  0.0684  0.5439
  550MOL0     H74247   0.753   3.949   7.424 -0.7632  0.4927 -1.5312
  550MOL0     H74248   0.897   4.240   7.679 -0.4264  0.8462 -1.0679
  550MOL0     H74249   0.770   3.608   7.459 -0.7319  4.1477  0.3634
  550MOL0     H74250   0.742   3.485   7.239  0.9539  0.3412  2.5096
  551MOL0     O74251   7.583   3.087   4.718  0.4719  0.4677 -0.6067
  551MOL0     C74252   7.489   3.085   4.640  0.6708  1.0066 -0.1511
  551MOL0     O74253   7.494   3.073   4.507 -0.5764  0.0441 -0.3663
  551MOL0     C74254   7.606   3.018   4.449  0.1421  0.4283  0.0678
  551MOL0     C74255   7.684   2.913   4.508  0.9951  0.1591  0.5970
  551MOL0     C74256   7.792   2.858   4.443 -0.1868  0.5044 -0.0398
  551MOL0     C74257   7.818   2.893   4.316  0.2922  0.1434  0.4758
  551MOL0     O74258   7.924   2.836   4.245 -0.6123 -1.0548 -0.0620
  551MOL0     C74259   8.003   2.725   4.298 -0.2577  0.0438  0.0986
  551MOL0     C74260   8.133   2.703   4.212  0.4777  0.3800  0.1479
  551MOL0     C74261   8.239   2.815   4.232  0.4477 -0.2736 -0.4012
  551MOL0     C74262   8.360   2.779   4.152  0.2118  0.1075 -0.1167
  551MOL0     C74263   8.475   2.865   4.197  0.1445 -0.2346  0.6162
  551MOL0     C74264   8.464   3.006   4.158  0.1656 -0.6434  0.0174
  551MOL0     C74265   8.595   3.072   4.196  0.5826 -0.2197  0.6110
  551MOL0     C74266   8.582   3.219   4.150 -0.1827 -0.3038 -0.1405
  551MOL0     N74267   8.476   3.306   4.195 -0.4536  0.0286 -0.6319
  551MOL0     C74268   8.484   3.367   4.314  0.1893 -0.0025  0.3472
  551MOL0     C74269   8.371   3.447   4.311 -0.1766  0.3681  0.7981
  551MOL0     C74270   8.338   3.543   4.424 -0.3839 -0.1249 -0.4409
  551MOL0     C74271   8.446   3.651   4.424  0.4449 -0.0311  0.5315
  551MOL0     C74272   8.422   3.757   4.319 -0.5510  0.4353  0.1257
  551MOL0     C74273   8.535   3.863   4.321 -0.3839  0.6084 -0.4040
  551MOL0     O74274   8.658   3.792   4.274 -0.0497  0.0432 -0.7111
  551MOL0     C74275   8.766   3.872   4.249 -0.5329  0.2302  1.0430
  551MOL0     C74276   8.885   3.809   4.210  0.5701 -0.6110 -0.3926
  551MOL0     C74277   9.001   3.877   4.194  0.8521 -0.1236  0.1723
  551MOL0     C74278   9.124   3.804   4.152  0.0277  0.5297  1.2262
  551MOL0     C74279   9.010   4.022   4.212 -0.2326  0.0752 -0.1602
  551MOL0     C74280   9.137   4.096   4.206 -0.1125  0.4034  0.5841
  551MOL0     O74281   9.126   4.220   4.143  0.8540  0.1411  0.4884
  551MOL0     C74282   9.239   4.297   4.137  0.7039  0.6074 -0.1502
  551MOL0     C74283   9.244   4.420   4.206 -0.1073  0.1954 -0.3713
  551MOL0     C74284   9.347   4.508   4.179  0.7493  0.7021 -0.3616
  551MOL0     C74285   9.440   4.479   4.086 -0.2001  0.6323  0.3684
  551MOL0     O74286   9.547   4.571   4.079 -0.1354 -0.0592 -0.2716
  551MOL0     C74287   9.622   4.585   3.952  0.3119 -0.5368 -0.2006
  551MOL0     C74288   9.553   4.677   3.857  0.2268 -0.3398  1.1642
  551MOL0     C74289   9.510   4.804   3.928  0.2504  0.1979 -0.0472
  551MOL0     C74290   9.482   4.914   3.836  0.5089 -0.5988 -0.2706
  551MOL0     C74291   9.429   5.038   3.919  0.4768  0.5451 -0.0262
  551MOL0     C74292   9.432   5.172   3.832  0.2217  0.2742 -0.8234
  551MOL0     C74293   9.367   5.156   3.680  0.2404 -0.1007 -0.6711
  551MOL0     C74294   9.366   5.288   3.606 -0.1926  0.3072 -0.6012
  551MOL0    Cl74295   9.530   5.364   3.614  0.4730 -0.0412 -0.2160
  551MOL0     C74296   9.444   4.356   4.025 -0.0864  0.0787  0.9144
  551MOL0     C74297   9.345   4.263   4.054 -0.2274 -1.7523 -0.1591
  551MOL0     O74298   9.234   4.056   4.263  0.3037 -1.4394  0.1326
  551MOL0     C74299   8.887   4.094   4.233 -0.2494 -1.0212  0.4853
  551MOL0     C74300   8.765   4.018   4.245 -0.4960 -0.0302  0.0766
  551MOL0     N74301   8.303   3.427   4.191 -0.3978 -0.1281  0.2898
  551MOL0     N74302   8.366   3.334   4.122 -0.1208 -0.6470 -0.2854
  551MOL0     C74303   7.743   2.994   4.255 -0.2247  0.5569  0.9652
  551MOL0     C74304   7.634   3.052   4.318 -0.4352 -0.2559 -1.1896
  551MOL0     C74305   7.351   3.100   4.698  0.5306 -0.3331  1.0826
  551MOL0     C74306   7.325   3.054   4.825  0.1493  0.7789  0.2804
  551MOL0     C74307   7.200   3.077   4.882  0.1194 -0.6651 -0.7282
  551MOL0     C74308   7.095   3.139   4.817  0.2862  0.0289  0.1146
  551MOL0     O74309   6.977   3.149   4.879 -0.2357 -0.2687  0.2359
  551MOL0     C74310   6.898   3.257   4.851  0.4698 -0.1894 -0.1412
  551MOL0     C74311   6.747   3.214   4.872 -0.2852 -0.0621  0.5856
  551MOL0     C74312   6.649   3.330   4.865 -0.7779 -0.3421 -0.3245
  551MOL0     C74313   6.504   3.293   4.907  0.4897  0.0808  0.6866
  551MOL0     C74314   6.453   3.195   4.809  0.1442 -0.1676 -0.2961
  551MOL0     C74315   6.401   3.114   4.735  0.7612 -0.4229  0.4648
  551MOL0     C74316   7.120   3.176   4.685 -0.3839  0.3256  0.2475
  551MOL0     C74317   7.247   3.155   4.624  0.0493  0.6034 -0.3343
  551MOL0     H74318   7.679   2.886   4.612  2.6009 -0.0922  0.6365
  551MOL0     H74319   7.836   2.772   4.491  2.1624  1.5940 -0.1352
  551MOL0     H74320   8.034   2.729   4.403  0.7534 -0.1816 -0.1776
  551MOL0     H74321   7.936   2.641   4.279 -0.2463 -0.1867  1.0479
  551MOL0     H74322   8.182   2.613   4.251 -2.0523 -1.4663 -0.6909
  551MOL0     H74323   8.107   2.676   4.109  0.4930  0.1857  0.1926
  551MOL0     H74324   8.191   2.907   4.197  1.2658 -0.3623 -1.7830
  551MOL0     H74325   8.253   2.838   4.338 -6.3413 -0.2009  0.9797
  551MOL0     H74326   8.381   2.675   4.180 -1.9586 -0.7594 -1.4326
  551MOL0     H74327   8.347   2.768   4.044  0.0467 -0.9319 -0.0002
  551MOL0     H74328   8.476   2.841   4.304 -0.8988 -2.1084  0.2510
  551MOL0     H74329   8.567   2.832   4.150 -1.6351  0.9405 -4.2430
  551MOL0     H74330   8.446   3.016   4.051 -2.4537  0.0138  0.4486
  551MOL0     H74331   8.379   3.051   4.211 -2.7860 -0.5368 -4.3369
  551MOL0     H74332   8.602   3.063   4.305  3.2861 -0.4025  0.4838
  551MOL0     H74333   8.686   3.035   4.149 -0.2888  1.3028 -2.6070
  551MOL0     H74334   8.567   3.217   4.042 -2.9763  1.3524  0.1195
  551MOL0     H74335   8.672   3.276   4.173 -0.6023  0.8530 -1.2681
  551MOL0     H74336   8.553   3.368   4.398  1.0787 -0.4334 -0.3607
  551MOL0     H74337   8.234   3.574   4.410 -1.2052 -1.6247  1.8954
  551MOL0     H74338   8.325   3.488   4.517 -0.8801  1.8845  0.7290
  551MOL0     H74339   8.542   3.600   4.408  0.1321  0.3147 -3.3586
  551MOL0     H74340   8.448   3.710   4.517  0.2578 -0.8466  1.0592
  551MOL0     H74341   8.325   3.802   4.342 -3.2930 -4.3137 -0.8135
  551MOL0     H74342   8.406   3.716   4.219  0.1046 -0.0075  0.1935
  551MOL0     H74343   8.552   3.897   4.423  2.2223  1.1699 -0.9484
  551MOL0     H74344   8.500   3.939   4.251  3.0410  0.6661 -2.3189
  551MOL0     H74345   8.875   3.701   4.210 -0.7674 -0.5264 -2.0553
  551MOL0     H74346   9.161   3.730   4.224 -0.1072 -1.8945 -1.0333
  551MOL0     H74347   9.100   3.748   4.062 -0.3240  2.1285  0.2837
  551MOL0     H74348   9.215   3.857   4.122  0.4427 -1.5913 -1.7445
  551MOL0     H74349   9.164   4.434   4.279 -0.4636 -2.0225 -0.2566
  551MOL0     H74350   9.370   4.593   4.242  1.4311  1.0221 -1.0310
  551MOL0     H74351   9.726   4.612   3.972  1.1240 -3.4085 -0.1802
  551MOL0     H74352   9.632   4.493   3.894 -0.5427 -0.8794  0.1747
  551MOL0     H74353   9.620   4.705   3.775 -0.9547 -0.9503 -0.0414
  551MOL0     H74354   9.458   4.635   3.822  0.2325 -1.6684  2.6155
  551MOL0     H74355   9.588   4.830   4.001  0.2283 -0.2687  0.1477
  551MOL0     H74356   9.418   4.795   3.986 -1.2033  1.2665 -2.0609
  551MOL0     H74357   9.577   4.940   3.788  2.3084 -3.5163  1.4016
  551MOL0     H74358   9.406   4.880   3.764  0.3916 -2.5206  0.7071
  551MOL0     H74359   9.488   5.061   4.008 -0.0714  2.8491 -0.1898
  551MOL0     H74360   9.328   5.010   3.949 -1.5039  0.6481 -5.4249
  551MOL0     H74361   9.377   5.250   3.886 -0.6205 -1.7545  1.4278
  551MOL0     H74362   9.536   5.205   3.823 -0.2143  1.3924 -2.1130
  551MOL0     H74363   9.270   5.107   3.684  1.2940 -2.2457  0.7138
  551MOL0     H74364   9.428   5.081   3.627  0.5516 -0.7028  0.5135
  551MOL0     H74365   9.286   5.342   3.658 -0.5254 -0.0063 -0.7901
  551MOL0     H74366   9.337   5.273   3.502 -0.2996 -0.0766 -0.5191
  551MOL0     H74367   9.515   4.319   3.952  0.4019  1.2728  0.7568
  551MOL0     H74368   9.342   4.164   4.008  1.2807 -3.1334  2.4333
  551MOL0     H74369   8.887   4.198   4.265  0.6290 -1.5242  2.2462
  551MOL0     H74370   8.674   4.077   4.246  0.8562  2.2619 -1.8547
  551MOL0     H74371   7.765   3.038   4.158  2.1962 -1.9079  0.2606
  551MOL0     H74372   7.573   3.129   4.272  1.4242  3.6792  2.2339
  551MOL0     H74373   7.395   2.985   4.872  1.0335 -0.0981 -2.1457
  551MOL0     H74374   7.168   3.038   4.978 -0.1868  1.5755  0.1434
  551MOL0     H74375   6.921   3.327   4.932  0.3452 -0.0246 -0.2482
  551MOL0     H74376   6.904   3.306   4.753  0.2073  2.9179  1.2719
  551MOL0     H74377   6.735   3.165   4.970  0.5441  1.6432  1.5891
  551MOL0     H74378   6.720   3.142   4.794 -0.4240 -0.3084  0.8581
  551MOL0     H74379   6.637   3.386   4.772 -1.6604  0.9262  0.5265
  551MOL0     H74380   6.670   3.403   4.944 -1.8951  1.1404 -1.3427
  551MOL0     H74381   6.438   3.380   4.897  1.0658  0.4100 -0.4190
  551MOL0     H74382   6.504   3.250   5.008 -1.6399  1.8035  1.4994
  551MOL0     H74383   6.345   3.046   4.674 -1.0342 -0.4205  2.0503
  551MOL0     H74384   7.039   3.223   4.631 -0.1792  1.9070  1.2277
  551MOL0     H74385   7.263   3.175   4.519  0.2887  0.7798 -0.2636
  552MOL0     O74386   8.534   5.920   7.679  0.4881 -0.9371 -0.4651
  552MOL0     C74387   8.621   5.989   7.731 -0.8357  0.1231 -0.3489
  552MOL0     O74388   8.747   6.019   7.673  0.3595 -0.4974 -0.5120
  552MOL0     C74389   8.782   5.950   7.561  1.0953 -0.5646 -0.9835
  552MOL0     C74390   8.876   5.839   7.562 -0.8377  0.4017  0.1896
  552MOL0     C74391   8.905   5.767   7.445  0.2418 -0.1433 -0.3853
  552MOL0     C74392   8.850   5.815   7.321  0.7354 -0.1336 -0.2757
  552MOL0     O74393   8.894   5.753   7.199  1.4241  0.0324  0.0767
  552MOL0     C74394   8.865   5.814   7.067  0.2837 -0.4903 -0.0417
  552MOL0     C74395   8.939   5.756   6.951 -0.2129  0.8936 -0.0853
  552MOL0     C74396   9.088   5.729   6.974  0.3724  0.3592 -0.8829
  552MOL0     C74397   9.152   5.855   7.026 -0.3562  0.8231 -0.3666
  552MOL0     C74398   9.306   5.859   7.021  0.4252 -0.5233 -0.2455
  552MOL0     C74399   9.373   5.837   6.892 -0.6564 -0.4415  0.0471
  552MOL0     C74400   9.521   5.889   6.916 -0.2339 -0.6074 -0.4082
  552MOL0     C74401   9.609   5.858   6.788 -0.3262 -0.5630  0.1089
  552MOL0     N74402   9.621   5.974   6.695 -0.1513 -0.2445 -0.2372
  552MOL0     C74403   9.561   5.989   6.574  0.3653 -0.4764  0.3552
  552MOL0     C74404   9.588   6.115   6.532  0.3763 -0.2476 -0.3065
  552MOL0     C74405   9.560   6.206   6.412 -0.5604  0.6015  0.3615
  552MOL0     C74406   9.410   6.247   6.396 -0.0768 -0.0949 -0.3882
  552MOL0     C74407   9.311   6.129   6.364 -0.0998  0.2989  0.2391
  552MOL0     C74408   9.200   6.173   6.271 -0.3351  0.6600  0.1928
  552MOL0     O74409   9.232   6.211   6.140  0.6080 -0.6984 -0.5668
  552MOL0     C74410   9.189   6.329   6.088  0.0165 -0.4015  0.5044
  552MOL0     C74411   9.092   6.423   6.134 -0.6832  0.1906  0.0795
  552MOL0     C74412   9.065   6.539   6.059 -0.5085  0.0973 -0.5609
  552MOL0     C74413   8.972   6.645   6.120  0.2509  0.2541  0.0098
  552MOL0     C74414   9.140   6.561   5.941  0.8091 -0.0458  0.0557
  552MOL0     C74415   9.123   6.675   5.849  0.1315 -0.6040  0.1784
  552MOL0     O74416   9.084   6.645   5.720  0.0657 -0.1809  0.2775
  552MOL0     C74417   9.080   6.737   5.615  0.5476 -0.0775 -0.2901
  552MOL0     C74418   9.141   6.863   5.612 -0.4829  1.2289 -0.5427
  552MOL0     C74419   9.145   6.947   5.495  0.3734  0.5331  0.4117
  552MOL0     C74420   9.057   6.909   5.387  1.4881  0.2111 -1.0162
  552MOL0     O74421   9.034   6.985   5.273  0.0664 -0.6045 -0.3338
  552MOL0     C74422   9.012   7.128   5.292 -1.6238  0.2747  0.0344
  552MOL0     C74423   8.993   7.198   5.157  0.0259  0.7359  0.4130
  552MOL0     C74424   8.875   7.113   5.088  0.4943  0.6583  0.2214
  552MOL0     C74425   8.934   7.013   4.990 -0.7099  0.9462  0.3127
  552MOL0     C74426   8.823   6.939   4.924 -0.1121 -0.3297 -0.3479
  552MOL0     C74427   8.712   7.007   4.844  0.7664 -0.6364 -0.0016
  552MOL0     C74428   8.763   7.102   4.740 -0.2237  0.0476 -0.5020
  552MOL0     C74429   8.644   7.177   4.671 -0.3853 -1.4951 -0.2534
  552MOL0    Cl74430   8.555   7.068   4.563 -0.4364  0.3669 -0.1127
  552MOL0     C74431   8.998   6.779   5.385 -0.0998  0.6684 -0.1973
  552MOL0     C74432   9.017   6.690   5.497 -0.1510 -0.5396 -0.8609
  552MOL0     O74433   9.168   6.788   5.890 -0.5438  0.1365  0.6906
  552MOL0     C74434   9.251   6.481   5.902  1.2431 -0.4925 -0.4105
  552MOL0     C74435   9.262   6.364   5.967 -0.0854  1.0574  0.1735
  552MOL0     N74436   9.652   6.178   6.642  0.0205 -0.2445 -0.8451
  552MOL0     N74437   9.681   6.093   6.735 -0.1154 -0.5095  0.6025
  552MOL0     C74438   8.764   5.923   7.319  0.1856 -0.0998 -0.3476
  552MOL0     C74439   8.723   5.987   7.435 -0.0228 -0.4193 -0.5169
  552MOL0     C74440   8.603   6.047   7.864  0.3798 -0.4579  0.2717
  552MOL0     C74441   8.481   6.046   7.932  0.0796 -0.3870 -0.5974
  552MOL0     C74442   8.460   6.111   8.049 -0.1315  0.7731 -0.2028
  552MOL0     C74443   8.566   6.181   8.116  0.3855  1.8171 -0.5948
  552MOL0     O74444   8.523   6.252   8.227 -0.5765 -0.4163 -0.2032
  552MOL0     C74445   8.624   6.314   8.318 -0.1938  0.5848  1.0653
  552MOL0     C74446   8.549   6.400   8.415  0.1511 -0.3052  0.2088
  552MOL0     C74447   8.638   6.476   8.520 -0.5659 -0.0375  0.3052
  552MOL0     C74448   8.574   6.598   8.581 -0.4302 -0.1843  0.3195
  552MOL0     C74449   8.672   6.699   8.628 -0.7434  1.0824 -0.1355
  552MOL0     C74450   8.753   6.774   8.671  0.1517  0.8056 -0.1733
  552MOL0     C74451   8.685   6.178   8.048  0.9533 -0.2088 -1.0457
  552MOL0     C74452   8.710   6.113   7.925  0.2472 -0.5602  0.8586
  552MOL0     H74453   8.908   5.827   7.665 -0.1947  2.2153  0.2346
  552MOL0     H74454   8.965   5.677   7.449  0.7116  0.1971  0.4463
  552MOL0     H74455   8.759   5.810   7.040 -0.1439  0.7677  1.3553
  552MOL0     H74456   8.893   5.920   7.072  1.3488 -0.8220  2.4874
  552MOL0     H74457   8.889   5.659   6.945  1.6279 -0.1436  0.6885
  552MOL0     H74458   8.935   5.791   6.847  1.3157 -5.2752 -2.6718
  552MOL0     H74459   9.084   5.651   7.051 -1.1679  0.5028 -0.7718
  552MOL0     H74460   9.132   5.682   6.886 -0.9827  1.7114 -2.3614
  552MOL0     H74461   9.113   5.936   6.964 -2.7497  2.5318  3.0307
  552MOL0     H74462   9.104   5.881   7.121 -4.1786 -1.9252 -1.2792
  552MOL0     H74463   9.336   5.956   7.060 -0.7055  0.8479 -2.5260
  552MOL0     H74464   9.352   5.780   7.080 -0.7780  1.2574  3.3709
  552MOL0     H74465   9.367   5.733   6.861 -3.3447  0.7561 -4.3754
  552MOL0     H74466   9.322   5.890   6.811  1.3887  2.4785  0.4828
  552MOL0     H74467   9.526   5.995   6.942  1.1709 -0.5215 -0.9538
  552MOL0     H74468   9.566   5.835   7.001 -1.3783 -1.6912 -0.4657
  552MOL0     H74469   9.576   5.769   6.733  0.4741  0.0014 -1.3429
  552MOL0     H74470   9.708   5.824   6.819  0.4829  1.6808  0.1941
  552MOL0     H74471   9.510   5.910   6.519 -2.1568 -1.3143  3.5610
  552MOL0     H74472   9.609   6.304   6.423  0.9830  0.1187 -1.6284
  552MOL0     H74473   9.597   6.149   6.327  0.1706 -3.8831  3.3330
  552MOL0     H74474   9.411   6.323   6.317  4.7581 -0.3242 -0.8754
  552MOL0     H74475   9.380   6.298   6.489  1.0808 -2.7873  1.5953
  552MOL0     H74476   9.258   6.098   6.454  0.1563  1.1035  0.6724
  552MOL0     H74477   9.366   6.053   6.308  2.3241  2.6933 -0.8462
  552MOL0     H74478   9.151   6.251   6.329  1.9275  2.9006 -0.6902
  552MOL0     H74479   9.138   6.086   6.249  0.6170  0.4815 -2.0535
  552MOL0     H74480   9.030   6.408   6.221 -0.2667  0.1143  0.3698
  552MOL0     H74481   8.931   6.591   6.205 -1.2264 -3.7870 -2.9303
  552MOL0     H74482   9.022   6.736   6.153  3.1107 -1.5871  1.1385
  552MOL0     H74483   8.890   6.676   6.054 -0.7011  0.7574  1.3936
  552MOL0     H74484   9.204   6.894   5.696 -0.8027 -0.7193  0.4738
  552MOL0     H74485   9.208   7.034   5.495 -1.2711  1.7821  0.9233
  552MOL0     H74486   8.928   7.135   5.363  1.0311 -0.9743  3.6206
  552MOL0     H74487   9.106   7.163   5.335  0.4461 -1.6311 -2.6112
  552MOL0     H74488   8.975   7.306   5.169  1.5870  1.0676 -0.0153
  552MOL0     H74489   9.081   7.196   5.092 -1.5035  3.0495 -1.9514
  552MOL0     H74490   8.812   7.182   5.031 -1.2174 -0.4781  0.6425
  552MOL0     H74491   8.816   7.057   5.161 -0.7373 -2.3425 -2.7894
  552MOL0     H74492   8.987   7.069   4.912 -1.8720  1.4100 -0.1726
  552MOL0     H74493   8.992   6.937   5.042 -1.7614  1.3848  2.2296
  552MOL0     H74494   8.778   6.870   4.996 -2.0515  0.3035 -0.8872
  552MOL0     H74495   8.868   6.870   4.851 -0.7587  0.4149 -1.4921
  552MOL0     H74496   8.651   6.931   4.793 -0.8672  1.5794 -1.5184
  552MOL0     H74497   8.652   7.064   4.916  2.8114  0.4449  0.9283
  552MOL0     H74498   8.827   7.053   4.665 -1.2674  0.6916 -1.8614
  552MOL0     H74499   8.817   7.183   4.789  2.4027  0.7397 -4.0724
  552MOL0     H74500   8.677   7.260   4.608  1.5620 -1.6576  0.4873
  552MOL0     H74501   8.568   7.218   4.737 -0.9228 -4.6417  1.3052
  552MOL0     H74502   8.931   6.758   5.302  1.3494  1.1524 -1.5404
  552MOL0     H74503   8.955   6.601   5.501 -1.9888  0.7258 -0.0513
  552MOL0     H74504   9.320   6.513   5.824  0.8263  2.4708  0.3224
  552MOL0     H74505   9.344   6.299   5.938 -0.7868 -0.3797  1.2911
  552MOL0     H74506   8.727   5.972   7.229  0.9895  0.5347 -0.3468
  552MOL0     H74507   8.659   6.076   7.437 -0.8675 -0.9790 -1.5221
  552MOL0     H74508   8.397   5.990   7.892 -2.4242  2.4498  0.3026
  552MOL0     H74509   8.359   6.093   8.085 -0.4218  0.2079 -1.2423
  552MOL0     H74510   8.686   6.237   8.364  0.9885  0.8811  0.0112
  552MOL0     H74511   8.694   6.378   8.263 -1.6319 -0.5895 -2.4406
  552MOL0     H74512   8.479   6.337   8.471  1.2083 -2.3612 -0.6892
  552MOL0     H74513   8.491   6.476   8.362 -0.4365  0.1380  1.4551
  552MOL0     H74514   8.738   6.498   8.481 -1.0261  0.7323 -0.4730
  552MOL0     H74515   8.656   6.403   8.599 -0.3193 -0.4951 -0.1620
  552MOL0     H74516   8.516   6.572   8.670 -1.0656 -1.0639 -0.3416
  552MOL0     H74517   8.506   6.645   8.509  1.4373 -1.4984 -2.4649
  552MOL0     H74518   8.827   6.846   8.700  1.3914  0.4343 -2.1936
  552MOL0     H74519   8.769   6.235   8.087 -0.7756  3.1519 -1.9080
  552MOL0     H74520   8.810   6.114   7.883  0.1524 -1.6117  0.5688
  553MOL0     O74521   1.199   8.970   9.153 -0.1649 -0.3468  0.5669
  553MOL0     C74522   1.201   8.980   9.276 -0.4850 -0.2173 -0.3914
  553MOL0     O74523   1.292   8.918   9.359  0.8164 -0.2210  0.8386
  553MOL0     C74524   1.393   8.845   9.300 -0.3870 -0.7122 -0.1938
  553MOL0     C74525   1.369   8.736   9.220 -0.0915 -0.6319 -0.0480
  553MOL0     C74526   1.477   8.659   9.176  0.4226  0.0010 -0.8456
  553MOL0     C74527   1.612   8.686   9.222 -0.2074  0.6788  1.2975
  553MOL0     O74528   1.729   8.618   9.193  0.0452  0.6003 -0.1524
  553MOL0     C74529   1.710   8.475   9.190  0.3527  0.0048  0.0830
  553MOL0     C74530   1.834   8.412   9.149  0.1876 -0.1519  0.2547
  553MOL0     C74531   1.824   8.253   9.148 -0.2152  0.1875  0.3228
  553MOL0     C74532   1.732   8.214   9.025 -0.6368 -0.5393  0.1243
  553MOL0     C74533   1.797   8.236   8.881  0.4980  0.2740 -0.1750
  553MOL0     C74534   1.921   8.159   8.835  0.7485  0.5926 -1.0134
  553MOL0     C74535   1.959   8.176   8.683 -0.9151  0.7854 -0.4635
  553MOL0     C74536   1.847   8.112   8.593 -0.2264  0.0886 -0.1734
  553MOL0     N74537   1.852   8.166   8.455 -0.3648 -0.1945  0.1718
  553MOL0     C74538   1.927   8.111   8.359  0.4811  0.0058 -0.6946
  553MOL0     C74539   1.915   8.188   8.244  0.1906  0.1709  0.2339
  553MOL0     C74540   1.989   8.163   8.115 -0.4878  0.7555 -1.2839
  553MOL0     C74541   1.915   8.059   8.034  0.5890  0.6480  0.3461
  553MOL0     C74542   2.011   8.005   7.927 -0.0000  0.7944  0.1374
  553MOL0     C74543   1.938   7.889   7.847 -0.9231  0.5039 -0.1192
  553MOL0     O74544   2.033   7.814   7.778 -0.3996 -1.0394  0.7540
  553MOL0     C74545   2.073   7.685   7.811  0.7212  0.6973  0.4366
  553MOL0     C74546   2.191   7.641   7.764 -1.8362 -0.3272  0.5102
  553MOL0     C74547   2.251   7.511   7.799 -0.4280 -0.1305  0.4256
  553MOL0     C74548   2.395   7.491   7.763 -0.2235  0.1220  0.1316
  553MOL0     C74549   2.164   7.412   7.864 -0.7744 -0.0636  0.0725
  553MOL0     C74550   2.207   7.274   7.901  0.2831  0.2181 -0.5253
  553MOL0     O74551   2.326   7.265   7.959 -0.0575 -0.6111  0.0454
  553MOL0     C74552   2.358   7.180   8.063  0.2166  0.0265  0.4912
  553MOL0     C74553   2.475   7.207   8.133  0.0898 -0.3676 -0.2729
  553MOL0     C74554   2.528   7.128   8.238  0.3091  0.3156  0.0993
  553MOL0     C74555   2.455   7.008   8.274 -0.1959  0.0970 -0.2017
  553MOL0     O74556   2.500   6.905   8.361  0.0158 -0.6491  0.5295
  553MOL0     C74557   2.632   6.861   8.340  0.6429 -0.8935 -0.5009
  553MOL0     C74558   2.629   6.708   8.329 -0.2916  0.7410  0.1228
  553MOL0     C74559   2.562   6.633   8.211 -0.1521 -0.1113 -0.1804
  553MOL0     C74560   2.629   6.665   8.074 -0.3974 -0.4101 -0.4263
  553MOL0     C74561   2.580   6.571   7.972  0.0332  0.3012  0.2422
  553MOL0     C74562   2.643   6.620   7.840  0.5735  0.1172  0.0962
  553MOL0     C74563   2.617   6.537   7.720 -0.0258  0.3750 -0.6747
  553MOL0     C74564   2.658   6.389   7.749 -0.2147  1.6451 -0.0670
  553MOL0    Cl74565   2.826   6.373   7.788 -0.1092  0.0943  0.0377
  553MOL0     C74566   2.333   6.986   8.214  0.0842  0.1865  0.1566
  553MOL0     C74567   2.290   7.060   8.107  0.0453 -1.2573 -0.3711
  553MOL0     O74568   2.135   7.181   7.872 -0.9269 -0.1069  0.0281
  553MOL0     C74569   2.037   7.462   7.900  0.4781  0.3286  0.3754
  553MOL0     C74570   1.996   7.591   7.883 -1.0888 -0.5334  0.1785
  553MOL0     N74571   1.834   8.301   8.279 -0.2989 -0.2472  0.5584
  553MOL0     N74572   1.796   8.274   8.400 -0.5168  0.6279  1.3586
  553MOL0     C74573   1.623   8.802   9.293 -0.3248  0.6365  0.9038
  553MOL0     C74574   1.520   8.882   9.334 -0.6809  0.0504  0.1109
  553MOL0     C74575   1.102   9.067   9.344  0.4160 -0.3092  0.7771
  553MOL0     C74576   1.107   9.085   9.484 -0.3584  0.3319  0.0440
  553MOL0     C74577   1.013   9.154   9.555  0.7294 -0.1867  0.3146
  553MOL0     C74578   0.927   9.245   9.488  0.4171  0.1411 -0.0223
  553MOL0     O74579   0.858   9.317   9.582  0.2670 -0.4811  0.0245
  553MOL0     C74580   0.773   9.424   9.540 -0.6325  0.2833  0.1141
  553MOL0     C74581   0.642   9.396   9.470  1.0489 -0.2230  0.5704
  553MOL0     C74582   0.579   9.534   9.452 -0.0483  0.6973 -0.2439
  553MOL0     C74583   0.449   9.519   9.372  0.0300  0.1102  0.0932
  553MOL0     C74584   0.377   9.647   9.353  0.4583 -1.0853 -0.1377
  553MOL0     C74585   0.309   9.751   9.345  0.3238 -0.1758 -0.9805
  553MOL0     C74586   0.929   9.250   9.351 -0.7243 -0.7850 -0.1318
  553MOL0     C74587   1.001   9.152   9.279 -0.4813 -0.7392  0.5290
  553MOL0     H74588   1.265   8.718   9.198  0.5054 -0.6977 -3.3147
  553MOL0     H74589   1.451   8.575   9.111 -1.3236 -0.4435  0.3413
  553MOL0     H74590   1.684   8.436   9.289  0.1701 -0.1367 -0.0176
  553MOL0     H74591   1.629   8.438   9.126 -1.6038 -0.7568  2.8173
  553MOL0     H74592   1.861   8.458   9.054 -2.0881  0.8304  0.0279
  553MOL0     H74593   1.903   8.443   9.228 -0.0065  0.7838  0.0622
  553MOL0     H74594   1.924   8.208   9.139 -0.3995 -0.5778  1.7512
  553MOL0     H74595   1.794   8.224   9.249 -1.2702 -0.2993 -0.1089
  553MOL0     H74596   1.714   8.107   9.035  1.1734 -0.7406  1.8066
  553MOL0     H74597   1.636   8.266   9.033  0.3400  1.4145 -0.1806
  553MOL0     H74598   1.721   8.186   8.820  2.8540 -1.1778 -2.1520
  553MOL0     H74599   1.812   8.342   8.859  3.8256  0.3551  1.8266
  553MOL0     H74600   2.007   8.198   8.890  0.8394 -1.6248  0.5335
  553MOL0     H74601   1.909   8.056   8.868  1.4542  1.5372  2.5847
  553MOL0     H74602   1.979   8.280   8.657  2.2460  0.2614 -0.5113
  553MOL0     H74603   2.060   8.138   8.666  0.2380  2.0260  2.8263
  553MOL0     H74604   1.748   8.118   8.639 -0.1031 -1.8944  0.4711
  553MOL0     H74605   1.873   8.008   8.572 -1.1251  0.5241 -4.0560
  553MOL0     H74606   1.998   8.031   8.376  3.0562  1.6714 -2.6926
  553MOL0     H74607   2.003   8.251   8.052 -0.8914  1.4422 -0.4319
  553MOL0     H74608   2.089   8.131   8.147 -2.0054 -1.7900  1.3282
  553MOL0     H74609   1.828   8.102   7.983  0.2372 -0.3334  0.0903
  553MOL0     H74610   1.887   7.977   8.101  0.2687  0.8918  0.5118
  553MOL0     H74611   2.110   7.970   7.960 -0.5019 -0.5963  0.2284
  553MOL0     H74612   2.024   8.074   7.843 -0.6334 -0.6564 -1.1840
  553MOL0     H74613   1.856   7.928   7.787 -1.2798 -1.7106 -1.1754
  553MOL0     H74614   1.898   7.822   7.925  2.7549 -2.2962 -0.3548
  553MOL0     H74615   2.257   7.709   7.711 -1.2262  0.5156  2.2366
  553MOL0     H74616   2.453   7.460   7.851 -0.1982  1.3026  0.5485
  553MOL0     H74617   2.411   7.426   7.676 -2.2680 -0.5432  0.2037
  553MOL0     H74618   2.430   7.590   7.730  1.2626 -0.3999  0.0699
  553MOL0     H74619   2.534   7.298   8.127 -0.7370  0.3185  1.2659
  553MOL0     H74620   2.621   7.151   8.289  0.3239 -1.6213  1.0537
  553MOL0     H74621   2.679   6.903   8.250 -0.4269 -0.7688 -1.0185
  553MOL0     H74622   2.698   6.896   8.420  0.7212 -0.6425 -0.6727
  553MOL0     H74623   2.729   6.665   8.337 -0.4839 -0.7590 -3.5195
  553MOL0     H74624   2.584   6.670   8.421 -4.5035  1.2105 -1.5345
  553MOL0     H74625   2.455   6.652   8.204 -0.0958  1.0439  1.4793
  553MOL0     H74626   2.568   6.527   8.235 -3.1936 -0.7563 -1.7767
  553MOL0     H74627   2.612   6.769   8.043  2.0603 -0.1356 -0.9961
  553MOL0     H74628   2.736   6.649   8.084 -0.4134 -0.6010 -0.5712
  553MOL0     H74629   2.471   6.562   7.958  0.3245 -0.3268 -2.0069
  553MOL0     H74630   2.611   6.467   7.983 -3.5077 -1.2008 -2.0283
  553MOL0     H74631   2.610   6.721   7.816 -1.5991 -0.4444  0.4649
  553MOL0     H74632   2.752   6.622   7.847  1.1205 -3.5245 -3.4946
  553MOL0     H74633   2.675   6.574   7.634 -0.8652 -1.7925 -2.2717
  553MOL0     H74634   2.510   6.539   7.696 -0.5959 -0.7212  1.5300
  553MOL0     H74635   2.633   6.322   7.666 -0.7146 -1.1374  2.2028
  553MOL0     H74636   2.589   6.343   7.820 -0.7580  0.2273 -1.4521
  553MOL0     H74637   2.283   6.897   8.250 -0.2344  0.2358 -0.1602
  553MOL0     H74638   2.196   7.042   8.057 -0.8601  0.3477  0.6585
  553MOL0     H74639   1.965   7.396   7.948  0.2519 -0.1799 -0.6327
  553MOL0     H74640   1.896   7.619   7.913 -0.1062  2.2192  1.1389
  553MOL0     H74641   1.729   8.819   9.313  0.5590 -3.5745  0.7073
  553MOL0     H74642   1.544   8.973   9.387  0.8626  0.7220 -1.6331
  553MOL0     H74643   1.189   9.038   9.538 -0.0352  0.1010 -0.6314
  553MOL0     H74644   1.002   9.154   9.663 -0.7208 -2.0090  0.2212
  553MOL0     H74645   0.762   9.495   9.622  0.1030 -1.2447  1.6039
  553MOL0     H74646   0.841   9.476   9.472  1.6095 -0.2633  1.8176
  553MOL0     H74647   0.573   9.334   9.528  1.1359 -0.7210  0.1506
  553MOL0     H74648   0.660   9.355   9.371 -0.8073  1.2948 -0.4812
  553MOL0     H74649   0.649   9.603   9.404 -0.3153  0.9976 -0.2032
  553MOL0     H74650   0.548   9.578   9.548 -0.0399  1.7705 -0.7280
  553MOL0     H74651   0.385   9.441   9.413  1.3888 -1.1818 -0.1456
  553MOL0     H74652   0.478   9.481   9.274 -0.1497 -2.6276  1.0419
  553MOL0     H74653   0.264   9.848   9.331  0.1305 -0.6436 -4.3010
  553MOL0     H74654   0.867   9.319   9.294  0.8150 -0.6270 -1.7354
  553MOL0     H74655   0.996   9.137   9.172 -2.7337 -0.0567  0.4759
  554MOL0     O74656   1.960   8.104   3.624  0.1558  0.2535  0.0486
  554MOL0     C74657   1.858   8.080   3.567 -0.4699 -1.1144  0.7969
  554MOL0     O74658   1.828   7.961   3.495 -0.6694  0.5753 -0.3263
  554MOL0     C74659   1.901   7.846   3.484  0.3937  0.0342  0.5066
  554MOL0     C74660   2.033   7.831   3.529 -0.9491 -0.3932  0.1128
  554MOL0     C74661   2.097   7.704   3.541 -0.3597  0.4333 -1.0901
  554MOL0     C74662   2.036   7.589   3.484 -0.5770  0.5634 -0.2979
  554MOL0     O74663   2.110   7.479   3.480 -0.1438  0.4977 -0.7386
  554MOL0     C74664   2.047   7.357   3.529 -0.3479  0.4802 -0.1507
  554MOL0     C74665   2.135   7.285   3.639 -0.3955  0.2075  0.5176
  554MOL0     C74666   2.264   7.230   3.583  0.0029 -0.4069 -0.3569
  554MOL0     C74667   2.323   7.143   3.696  0.2702 -0.2336  0.0756
  554MOL0     C74668   2.446   7.079   3.640  0.7552  1.0538  0.5688
  554MOL0     C74669   2.519   7.003   3.746 -0.0431 -0.1483  0.4523
  554MOL0     C74670   2.648   6.944   3.704  0.3054 -0.5906  0.3467
  554MOL0     C74671   2.756   7.054   3.681 -0.0825  0.5711 -0.2344
  554MOL0     N74672   2.806   7.122   3.808  0.0674 -0.2545  0.8673
  554MOL0     C74673   2.736   7.206   3.893 -0.5953 -0.9787 -0.2631
  554MOL0     C74674   2.817   7.217   4.001 -0.5843  1.1044 -0.2434
  554MOL0     C74675   2.787   7.278   4.136  0.5237  0.3974  1.0847
  554MOL0     C74676   2.886   7.253   4.246  0.3383 -0.6778 -0.1622
  554MOL0     C74677   2.997   7.360   4.260  0.1842  0.8630  0.5120
  554MOL0     C74678   3.096   7.346   4.385 -0.2162 -0.1296  0.7149
  554MOL0     O74679   3.157   7.211   4.371  0.5299  0.2911 -1.0633
  554MOL0     C74680   3.282   7.192   4.321 -0.2640  0.9891  0.8051
  554MOL0     C74681   3.357   7.286   4.256  0.2135  0.1045  0.7309
  554MOL0     C74682   3.480   7.266   4.202  0.2602  0.3002 -0.7031
  554MOL0     C74683   3.540   7.382   4.122 -0.0545  0.0832  0.8226
  554MOL0     C74684   3.542   7.134   4.221 -0.0114 -0.0930 -0.0088
  554MOL0     C74685   3.670   7.087   4.166 -0.2660  0.1512 -0.5613
  554MOL0     O74686   3.687   6.949   4.157  0.7325 -0.7193  0.7408
  554MOL0     C74687   3.820   6.905   4.130  1.0403 -1.2964 -0.5353
  554MOL0     C74688   3.894   6.834   4.219 -0.2473  0.3436  0.1605
  554MOL0     C74689   4.027   6.796   4.189  0.1632  0.1611 -0.7180
  554MOL0     C74690   4.087   6.825   4.069 -0.1399 -0.5567 -1.0446
  554MOL0     O74691   4.208   6.798   4.041 -1.0172 -0.2452  0.5899
  554MOL0     C74692   4.291   6.882   3.953 -0.5926 -0.0715 -0.6145
  554MOL0     C74693   4.437   6.857   3.985 -0.4949  0.6228  0.5150
  554MOL0     C74694   4.526   6.948   3.901 -0.8048  0.4910  0.5898
  554MOL0     C74695   4.678   6.900   3.892  0.1365  0.8400  0.2411
  554MOL0     C74696   4.710   6.753   3.864  0.0575 -0.2944 -0.0959
  554MOL0     C74697   4.865   6.728   3.840 -0.2584  0.4436 -0.1068
  554MOL0     C74698   4.890   6.605   3.755  0.5492  0.5272 -0.4536
  554MOL0     C74699   4.839   6.476   3.826  0.2841  0.1580 -1.3129
  554MOL0    Cl74700   4.960   6.439   3.962  0.1832 -0.0384  0.4477
  554MOL0     C74701   4.006   6.889   3.971  0.4577  0.1337 -0.4220
  554MOL0     C74702   3.878   6.934   4.008  0.1866 -0.3106 -0.7876
  554MOL0     O74703   3.760   7.174   4.163 -0.1085  0.6135  0.6376
  554MOL0     C74704   3.471   7.037   4.297  0.3941  0.5133  0.7681
  554MOL0     C74705   3.343   7.066   4.336  0.1998 -0.0414  0.4427
  554MOL0     N74706   2.936   7.143   3.977  0.1280  0.5529  0.4865
  554MOL0     N74707   2.923   7.085   3.864  0.5564  0.0764 -0.1018
  554MOL0     C74708   1.909   7.605   3.421 -0.6609  0.0724 -0.1173
  554MOL0     C74709   1.843   7.728   3.429 -1.4844 -0.3551 -0.4755
  554MOL0     C74710   1.748   8.180   3.576  0.2047  0.7354 -1.1373
  554MOL0     C74711   1.762   8.297   3.643 -0.6778  0.5774  0.4239
  554MOL0     C74712   1.663   8.391   3.655  0.3559 -0.5668  0.0048
  554MOL0     C74713   1.532   8.372   3.610  0.3584  0.4323  0.7641
  554MOL0     O74714   1.423   8.456   3.621 -0.2940 -0.3449  0.4641
  554MOL0     C74715   1.442   8.576   3.687  0.3771 -0.5006 -0.3802
  554MOL0     C74716   1.310   8.656   3.678 -0.3404 -0.9302 -0.0305
  554MOL0     C74717   1.294   8.716   3.537 -0.3927 -0.2211  0.0376
  554MOL0     C74718   1.184   8.824   3.531  0.2620  0.3056  0.2133
  554MOL0     C74719   1.132   8.819   3.397 -1.1914 -1.0356  0.4941
  554MOL0     C74720   1.080   8.800   3.288  0.1238  0.1715 -0.3352
  554MOL0     C74721   1.517   8.249   3.529 -0.0979  0.4632  0.0431
  554MOL0     C74722   1.618   8.150   3.523  0.1122 -0.3847  0.2604
  554MOL0     H74723   2.079   7.920   3.571  0.1687 -0.3652 -1.1255
  554MOL0     H74724   2.189   7.695   3.597  0.4223 -1.2397 -2.5317
  554MOL0     H74725   1.943   7.372   3.559 -1.2122  0.7646 -2.9325
  554MOL0     H74726   2.053   7.293   3.440  2.3993  2.4769 -1.5394
  554MOL0     H74727   2.155   7.342   3.730 -4.4107  1.8055  0.6103
  554MOL0     H74728   2.067   7.207   3.675  0.5472 -1.2483 -0.7350
  554MOL0     H74729   2.247   7.180   3.487 -3.2372 -1.0431  0.4446
  554MOL0     H74730   2.333   7.313   3.566 -3.0116  2.8094  1.7688
  554MOL0     H74731   2.350   7.203   3.784 -0.3028 -0.3187  0.3081
  554MOL0     H74732   2.255   7.064   3.728 -0.5710  0.3979 -0.1053
  554MOL0     H74733   2.413   7.019   3.555  1.4401  2.9581 -1.1478
  554MOL0     H74734   2.510   7.159   3.602  1.4187  0.2189 -0.1095
  554MOL0     H74735   2.537   7.061   3.837  1.6267  1.0406 -0.5780
  554MOL0     H74736   2.458   6.916   3.774 -0.0472 -0.8093 -1.4801
  554MOL0     H74737   2.673   6.869   3.779 -0.6759  0.6223  1.9552
  554MOL0     H74738   2.638   6.891   3.609  0.2071  0.5495 -0.3027
  554MOL0     H74739   2.721   7.130   3.611  2.0136 -1.3010 -3.5520
  554MOL0     H74740   2.847   7.015   3.635  1.2843  1.9308  1.1816
  554MOL0     H74741   2.640   7.254   3.874  0.2460  0.6483 -0.5177
  554MOL0     H74742   2.768   7.385   4.132 -0.7566  0.1850  0.7164
  554MOL0     H74743   2.692   7.237   4.174 -0.2511 -0.8862 -1.9724
  554MOL0     H74744   2.919   7.148   4.243  1.3236 -0.4342  1.2234
  554MOL0     H74745   2.830   7.256   4.340  0.2328 -3.9825  0.0142
  554MOL0     H74746   2.945   7.456   4.262  0.6545  1.1235  0.3613
  554MOL0     H74747   3.055   7.363   4.168 -1.0813 -1.2349 -0.4247
  554MOL0     H74748   3.028   7.340   4.471 -1.1789 -3.6653 -0.1330
  554MOL0     H74749   3.162   7.432   4.401 -0.1395  0.1713 -1.0802
  554MOL0     H74750   3.308   7.377   4.223 -0.3720 -0.0574  1.1359
  554MOL0     H74751   3.467   7.458   4.092 -0.8645 -1.9561 -2.9570
  554MOL0     H74752   3.625   7.425   4.175  0.0546 -0.7376  1.3457
  554MOL0     H74753   3.586   7.352   4.028 -1.2542 -0.5985  0.4309
  554MOL0     H74754   3.857   6.793   4.313  1.5017 -1.1234  0.2614
  554MOL0     H74755   4.087   6.742   4.262 -1.2805 -2.0519 -1.1109
  554MOL0     H74756   4.284   6.847   3.850  2.8996  1.5723 -1.5887
  554MOL0     H74757   4.258   6.986   3.957 -2.0526 -0.5127 -0.6094
  554MOL0     H74758   4.463   6.877   4.090 -0.4694  2.5989  0.1786
  554MOL0     H74759   4.469   6.754   3.970  0.4962  1.0039 -0.0817
  554MOL0     H74760   4.524   7.050   3.940  1.7949  0.1995  1.7586
  554MOL0     H74761   4.485   6.948   3.800  3.0019 -0.0367 -1.1215
  554MOL0     H74762   4.726   6.962   3.816 -1.0928  1.1993 -0.2754
  554MOL0     H74763   4.729   6.920   3.986 -0.6937 -0.0178  0.8922
  554MOL0     H74764   4.648   6.717   3.781 -0.3126  0.2865 -0.0814
  554MOL0     H74765   4.677   6.702   3.955  0.0320 -0.1077 -0.0002
  554MOL0     H74766   4.895   6.813   3.778 -0.5380  1.3571  0.9629
  554MOL0     H74767   4.929   6.716   3.928  1.9291 -0.3176 -1.7327
  554MOL0     H74768   4.989   6.603   3.709 -0.7289 -0.0553 -3.4254
  554MOL0     H74769   4.828   6.615   3.666 -0.1321  0.1174 -0.0426
  554MOL0     H74770   4.829   6.390   3.759  0.9515 -0.3812 -0.7357
  554MOL0     H74771   4.739   6.498   3.866  0.0704  0.3904 -1.9659
  554MOL0     H74772   4.037   6.900   3.867  2.1840 -2.1791 -0.2179
  554MOL0     H74773   3.820   6.992   3.937 -1.5049 -1.0690 -0.0593
  554MOL0     H74774   3.512   6.937   4.309 -2.7243 -1.3028 -2.0882
  554MOL0     H74775   3.298   6.987   4.395  1.2945  0.4190  1.9825
  554MOL0     H74776   1.859   7.526   3.366 -0.1734 -0.2574 -0.0881
  554MOL0     H74777   1.749   7.738   3.375 -0.1925 -0.0931 -2.8013
  554MOL0     H74778   1.862   8.337   3.658 -0.6538  1.2413 -1.2982
  554MOL0     H74779   1.682   8.483   3.711  0.3091 -1.7573  2.0722
  554MOL0     H74780   1.455   8.541   3.789 -0.9406 -2.6235 -0.8726
  554MOL0     H74781   1.522   8.642   3.652 -2.5146  2.3185 -2.3443
  554MOL0     H74782   1.299   8.724   3.762 -0.2400 -0.4630 -0.3940
  554MOL0     H74783   1.229   8.584   3.693  0.9124 -2.7078 -1.2855
  554MOL0     H74784   1.266   8.635   3.468  1.3274 -0.7638 -0.0802
  554MOL0     H74785   1.387   8.763   3.505 -0.5906  1.1544  1.4159
  554MOL0     H74786   1.225   8.917   3.571  0.9558  2.0563 -4.0304
  554MOL0     H74787   1.092   8.808   3.588 -0.2765 -2.3671 -1.2535
  554MOL0     H74788   1.045   8.758   3.196  0.2718  1.3985 -0.9704
  554MOL0     H74789   1.425   8.221   3.480  0.6034 -1.4618 -0.2632
  554MOL0     H74790   1.603   8.053   3.475 -2.2824 -0.3540  0.8461
  555MOL0     O74791   7.058   4.080   2.390 -0.0372  0.2239 -0.0594
  555MOL0     C74792   7.154   4.041   2.325  0.1634 -0.0642  0.3206
  555MOL0     O74793   7.157   4.001   2.195  0.2320 -0.7919  0.0819
  555MOL0     C74794   7.041   3.973   2.134  0.2241 -0.5369 -0.0992
  555MOL0     C74795   6.995   3.845   2.144 -0.2693  0.0174  0.8313
  555MOL0     C74796   6.865   3.822   2.096 -0.7461  0.1573 -0.3444
  555MOL0     C74797   6.792   3.922   2.035  0.6577  0.4354 -0.6602
  555MOL0     O74798   6.672   3.897   1.973  0.2222 -0.0724 -0.0060
  555MOL0     C74799   6.654   3.771   1.913 -1.0803 -0.6727  0.2097
  555MOL0     C74800   6.583   3.797   1.773  0.1795  0.0864 -0.7452
  555MOL0     C74801   6.442   3.846   1.806  0.3097  0.1236 -0.2841
  555MOL0     C74802   6.345   3.843   1.692  0.4828 -0.6896 -0.9747
  555MOL0     C74803   6.200   3.891   1.737  0.2041  0.3864  0.4519
  555MOL0     C74804   6.103   3.900   1.622  1.5613 -0.9536 -0.6219
  555MOL0     C74805   6.090   3.770   1.551 -1.6361 -1.1116 -0.7233
  555MOL0     C74806   5.971   3.778   1.463 -0.5841  1.2630  0.7977
  555MOL0     N74807   5.977   3.650   1.383 -1.0519  0.0177 -0.3107
  555MOL0     C74808   6.072   3.631   1.283 -0.2274 -0.0441 -0.4147
  555MOL0     C74809   6.046   3.510   1.226  0.1249 -1.0930 -0.2407
  555MOL0     C74810   6.134   3.446   1.117  0.0658  0.8047  0.4893
  555MOL0     C74811   6.074   3.427   0.976 -0.7249 -0.1042 -0.2160
  555MOL0     C74812   6.177   3.423   0.867 -0.1939  0.6135  0.4299
  555MOL0     C74813   6.108   3.390   0.735 -0.4398  0.2474 -0.3335
  555MOL0     O74814   6.153   3.260   0.680  0.3537 -1.0720 -0.3733
  555MOL0     C74815   6.112   3.138   0.738 -0.9435 -0.4139  0.4539
  555MOL0     C74816   6.001   3.110   0.821  0.0504 -0.1232  0.7570
  555MOL0     C74817   5.977   2.974   0.865 -0.1238  0.4838  0.1196
  555MOL0     C74818   5.857   2.959   0.953  0.0695 -0.2924 -0.1739
  555MOL0     C74819   6.069   2.871   0.834 -0.1902 -0.1744  0.8020
  555MOL0     C74820   6.054   2.731   0.873  0.4147  0.1926  0.3914
  555MOL0     O74821   5.922   2.703   0.909 -0.1392 -0.1957  0.1054
  555MOL0     C74822   5.871   2.580   0.948  0.1120 -0.2383  0.5406
  555MOL0     C74823   5.780   2.585   1.049  0.5754  0.1871  0.4489
  555MOL0     C74824   5.734   2.467   1.109  0.1547  0.3234  0.0162
  555MOL0     C74825   5.766   2.343   1.050 -0.1388  1.1227  0.2641
  555MOL0     O74826   5.725   2.227   1.123 -0.2397 -0.3028 -0.5930
  555MOL0     C74827   5.802   2.112   1.125 -0.1948 -0.4569 -0.4223
  555MOL0     C74828   5.758   2.011   1.234 -0.2793  0.0149  0.2740
  555MOL0     C74829   5.633   1.935   1.196  0.7692  0.9545 -0.8328
  555MOL0     C74830   5.507   1.990   1.254  0.2647  0.4194 -0.3370
  555MOL0     C74831   5.454   2.112   1.185 -0.0196  1.5771 -0.0782
  555MOL0     C74832   5.435   2.110   1.033 -0.0596 -0.2117  0.1313
  555MOL0     C74833   5.348   2.231   0.979 -0.0314 -0.1138 -0.5246
  555MOL0     C74834   5.417   2.370   1.005 -0.4343  0.8286 -0.3083
  555MOL0    Cl74835   5.334   2.508   0.918  0.0952 -0.0581 -0.2879
  555MOL0     C74836   5.854   2.339   0.944 -0.2820  0.5652 -0.3129
  555MOL0     C74837   5.906   2.460   0.890  0.2157  0.5653 -0.1509
  555MOL0     O74838   6.137   2.644   0.852  0.2353 -0.7245  0.1216
  555MOL0     C74839   6.180   2.901   0.766  0.1919  0.3296  0.8033
  555MOL0     C74840   6.206   3.033   0.711 -0.4418  0.4217  0.9050
  555MOL0     N74841   5.930   3.464   1.283  0.0245  0.1423  0.6834
  555MOL0     N74842   5.894   3.543   1.379 -0.0718  0.6805 -0.0312
  555MOL0     C74843   6.837   4.052   2.034  0.5900  0.6340  0.4472
  555MOL0     C74844   6.959   4.080   2.080  0.0732  0.6605 -1.0842
  555MOL0     C74845   7.282   4.030   2.400 -0.1862  0.3265  0.1357
  555MOL0     C74846   7.301   4.066   2.535  0.2736 -0.5801  0.2521
  555MOL0     C74847   7.417   4.045   2.605 -0.5464 -0.6863 -0.2441
  555MOL0     C74848   7.529   3.994   2.531  0.5084 -1.1865 -1.0618
  555MOL0     O74849   7.654   3.966   2.585  0.3440 -0.0358 -0.7034
  555MOL0     C74850   7.665   3.946   2.724 -0.0631 -0.0409 -0.3525
  555MOL0     C74851   7.719   4.066   2.788 -0.2714  0.0389  0.1507
  555MOL0     C74852   7.640   4.081   2.921 -0.4576 -0.7617  0.4907
  555MOL0     C74853   7.701   4.185   3.005 -0.6521  0.1115 -0.6245
  555MOL0     C74854   7.699   4.310   2.924 -0.8478  0.3516 -0.2707
  555MOL0     C74855   7.700   4.425   2.888  0.4243  0.4924  0.0449
  555MOL0     C74856   7.518   3.958   2.395  0.1406 -0.1507 -0.0501
  555MOL0     C74857   7.395   3.972   2.324  0.2965 -1.5134  0.8527
  555MOL0     H74858   7.048   3.763   2.193  0.3677 -0.0167  0.1173
  555MOL0     H74859   6.825   3.722   2.107  2.5550 -1.4596 -1.7303
  555MOL0     H74860   6.741   3.705   1.905  1.2785  2.1135  0.9722
  555MOL0     H74861   6.585   3.700   1.960 -2.5888  0.1640 -0.6469
  555MOL0     H74862   6.642   3.875   1.724  1.4053  0.1039  0.7032
  555MOL0     H74863   6.577   3.704   1.715  0.5693 -0.7963  0.5883
  555MOL0     H74864   6.402   3.784   1.886 -1.2604 -0.6814 -1.6312
  555MOL0     H74865   6.451   3.952   1.834 -0.2602 -0.1823  1.1194
  555MOL0     H74866   6.383   3.913   1.617 -2.4022  1.9948 -0.1344
  555MOL0     H74867   6.332   3.742   1.652  3.0245 -0.9901 -1.2413
  555MOL0     H74868   6.164   3.807   1.798 -0.1170  0.3913  0.2713
  555MOL0     H74869   6.209   3.988   1.787  2.5107  0.8840 -0.7946
  555MOL0     H74870   6.010   3.926   1.674  1.7329  0.0339 -0.7952
  555MOL0     H74871   6.121   3.986   1.557 -1.6288  1.0653  0.8977
  555MOL0     H74872   6.180   3.760   1.489 -0.7984  1.8539 -0.1673
  555MOL0     H74873   6.080   3.688   1.622 -0.2648 -0.4078  0.3481
  555MOL0     H74874   5.983   3.857   1.388 -1.2339  0.2900 -0.3607
  555MOL0     H74875   5.881   3.794   1.523 -1.2781  0.6032 -0.0407
  555MOL0     H74876   6.159   3.692   1.261  0.8884 -1.0783  0.9502
  555MOL0     H74877   6.234   3.490   1.121  1.3840 -2.0362  2.2695
  555MOL0     H74878   6.155   3.341   1.141  2.9253  0.7368 -1.7795
  555MOL0     H74879   6.000   3.507   0.960 -2.4669 -1.6064 -0.0745
  555MOL0     H74880   6.019   3.333   0.982 -1.6662  0.1789 -2.9549
  555MOL0     H74881   6.250   3.346   0.895  0.5287  2.0648  2.9126
  555MOL0     H74882   6.224   3.522   0.864 -1.9217  1.4644 -2.4247
  555MOL0     H74883   6.128   3.468   0.661  1.1517  1.4887  1.3257
  555MOL0     H74884   6.002   3.371   0.754  0.2024 -0.2868  3.3509
  555MOL0     H74885   5.925   3.181   0.852 -1.5111 -1.7201  0.7410
  555MOL0     H74886   5.821   3.042   1.015 -2.8967 -3.2295  2.4526
  555MOL0     H74887   5.772   2.931   0.890  2.6346 -2.5833 -2.9611
  555MOL0     H74888   5.869   2.876   1.024 -1.4109  0.9665  1.6479
  555MOL0     H74889   5.765   2.680   1.100 -1.4965  0.2677 -0.2321
  555MOL0     H74890   5.680   2.473   1.203  1.1897  1.4219  0.5640
  555MOL0     H74891   5.810   2.067   1.025 -2.5459  2.1303 -1.9186
  555MOL0     H74892   5.905   2.130   1.156 -1.5510  4.0357  2.5411
  555MOL0     H74893   5.836   1.934   1.241 -1.0792 -0.8397 -0.0410
  555MOL0     H74894   5.751   2.059   1.332  2.0355 -0.0461  0.5249
  555MOL0     H74895   5.642   1.832   1.233  0.1486  1.1181 -0.2134
  555MOL0     H74896   5.623   1.934   1.087 -2.9401  0.8759 -0.6020
  555MOL0     H74897   5.443   1.903   1.238  1.7170 -0.7432 -0.0100
  555MOL0     H74898   5.511   2.007   1.362 -0.8391 -2.0075  0.1516
  555MOL0     H74899   5.515   2.197   1.215  1.9696  0.1552  0.0982
  555MOL0     H74900   5.352   2.122   1.224 -1.3586  1.2853 -3.1545
  555MOL0     H74901   5.538   2.122   0.997  0.4514  0.1783  1.6541
  555MOL0     H74902   5.403   2.012   0.996  0.6340  0.0352 -1.1692
  555MOL0     H74903   5.249   2.231   1.024  0.0298  1.3191 -0.3496
  555MOL0     H74904   5.341   2.204   0.873 -0.3259 -0.7024 -0.3609
  555MOL0     H74905   5.522   2.375   0.975 -0.6326  2.4107 -0.8450
  555MOL0     H74906   5.423   2.391   1.112  0.2296 -2.1378  0.3130
  555MOL0     H74907   5.884   2.243   0.904 -3.9353 -1.5590  1.4953
  555MOL0     H74908   5.972   2.451   0.804 -0.7399 -0.0143 -0.8543
  555MOL0     H74909   6.261   2.830   0.753  1.6543  1.0180  4.7876
  555MOL0     H74910   6.301   3.060   0.668  0.5922  0.6744  3.1935
  555MOL0     H74911   6.779   4.126   1.980  0.5532  0.7093  0.5901
  555MOL0     H74912   6.996   4.181   2.092 -0.9546  0.9890 -0.5279
  555MOL0     H74913   7.216   4.108   2.588  0.1376  0.9281 -1.0985
  555MOL0     H74914   7.419   4.045   2.714  0.6677 -0.5094 -0.2549
  555MOL0     H74915   7.573   3.910   2.772 -0.6093 -1.6002 -2.4066
  555MOL0     H74916   7.734   3.866   2.751 -0.4385 -0.2224  0.0866
  555MOL0     H74917   7.683   4.151   2.730 -0.4767 -0.7876 -0.9653
  555MOL0     H74918   7.827   4.067   2.804  0.3000  1.2092 -3.1049
  555MOL0     H74919   7.639   3.983   2.969 -3.4459  0.1462  2.5535
  555MOL0     H74920   7.537   4.109   2.898  0.0598  0.0767 -0.9338
  555MOL0     H74921   7.806   4.157   3.018 -0.0959  2.0467 -0.5569
  555MOL0     H74922   7.650   4.206   3.100  0.4664 -0.8392  0.2269
  555MOL0     H74923   7.700   4.527   2.853  2.3531  0.5310  0.0523
  555MOL0     H74924   7.604   3.921   2.341  1.1422  1.7402  0.1687
  555MOL0     H74925   7.392   3.954   2.217  0.1715  0.9195  0.3792
  556MOL0     O74926   2.624   0.349   7.572  0.2508 -0.1532  0.3155
  556MOL0     C74927   2.666   0.422   7.663 -0.1297  0.3190 -0.0743
  556MOL0     O74928   2.583   0.478   7.763 -0.3915  0.3447 -0.2349
  556MOL0     C74929   2.452   0.436   7.757 -0.1990 -0.0212 -0.5509
  556MOL0     C74930   2.361   0.518   7.692  0.1562 -0.5630  0.6935
  556MOL0     C74931   2.227   0.488   7.680 -0.4970  0.6438  0.5057
  556MOL0     C74932   2.182   0.358   7.728 -0.0896 -0.4729  0.5950
  556MOL0     O74933   2.054   0.328   7.713  0.1722  0.1479 -0.0719
  556MOL0     C74934   2.003   0.194   7.740  0.0033 -1.0637  0.8282
  556MOL0     C74935   2.027   0.094   7.617  0.5559 -0.1258 -0.1040
  556MOL0     C74936   1.938   0.134   7.491 -0.8413  1.1939  0.2578
  556MOL0     C74937   1.961   0.029   7.381  1.1116  0.2889  0.4373
  556MOL0     C74938   1.879   0.063   7.256  0.1287 -0.3490  0.2696
  556MOL0     C74939   1.913  -0.035   7.149  1.0672 -0.4977  0.1136
  556MOL0     C74940   1.827  -0.024   7.018 -0.1205  0.9141 -0.7852
  556MOL0     C74941   1.833  -0.155   6.942  0.7535 -0.2174 -0.4785
  556MOL0     N74942   1.764  -0.138   6.812  0.0674 -0.6212  0.1374
  556MOL0     C74943   1.683  -0.232   6.763 -0.5010  0.6438  0.0115
  556MOL0     C74944   1.615  -0.177   6.657 -0.5613  0.0378  0.3054
  556MOL0     C74945   1.510  -0.254   6.580 -0.1763 -0.3383 -0.1647
  556MOL0     C74946   1.392  -0.164   6.535 -0.4959  0.5398 -0.2506
  556MOL0     C74947   1.282  -0.243   6.461 -0.8868  1.1136 -0.3309
  556MOL0     C74948   1.156  -0.167   6.430  0.2353  0.4376 -0.0470
  556MOL0     O74949   1.087  -0.142   6.557 -0.0799  0.7846 -0.2315
  556MOL0     C74950   0.986  -0.219   6.611 -0.0666 -0.5172  0.7567
  556MOL0     C74951   0.956  -0.347   6.569  0.5541  0.0830  0.3479
  556MOL0     C74952   0.852  -0.416   6.625  0.6356  0.0604  0.5871
  556MOL0     C74953   0.825  -0.549   6.561  0.3558 -0.0494 -0.2320
  556MOL0     C74954   0.764  -0.355   6.718 -0.2044 -0.2001  0.1126
  556MOL0     C74955   0.632  -0.408   6.765  0.7226  0.2067  0.5468
  556MOL0     O74956   0.574  -0.350   6.877  0.1426  0.1949  0.7731
  556MOL0     C74957   0.441  -0.384   6.894 -0.6016 -0.1629 -0.4125
  556MOL0     C74958   0.332  -0.304   6.876  0.0504 -0.0892 -0.7182
  556MOL0     C74959   0.205  -0.346   6.895  1.3117 -0.1916  0.5496
  556MOL0     C74960   0.180  -0.477   6.929  0.0708  0.0099 -0.4132
  556MOL0     O74961   0.054  -0.518   6.946 -0.8706  0.1287  0.4469
  556MOL0     C74962  -0.009  -0.484   7.067  1.4001 -0.1820  0.2662
  556MOL0     C74963   0.017  -0.592   7.171  0.1421  0.0778 -0.2881
  556MOL0     C74964  -0.058  -0.573   7.305  0.8058 -1.1370  0.6195
  556MOL0     C74965  -0.077  -0.701   7.383  0.3406 -0.4837  0.0410
  556MOL0     C74966  -0.175  -0.688   7.511  0.8648  0.7625  0.1345
  556MOL0     C74967  -0.160  -0.808   7.609 -0.8162 -0.8733  0.3923
  556MOL0     C74968  -0.264  -0.823   7.718 -0.2879  0.1275  0.1218
  556MOL0     C74969  -0.273  -0.960   7.778 -0.4030  1.0350 -0.5202
  556MOL0    Cl74970  -0.351  -1.072   7.665 -0.5496  0.2143  0.0836
  556MOL0     C74971   0.287  -0.568   6.953 -0.3777  0.0071  0.4488
  556MOL0     C74972   0.420  -0.517   6.942  0.2423 -0.0164 -0.1609
  556MOL0     O74973   0.574  -0.485   6.688 -0.0820 -0.2933 -0.0176
  556MOL0     C74974   0.799  -0.226   6.763 -0.3081  0.7622  0.3112
  556MOL0     C74975   0.905  -0.153   6.705  0.1148 -0.3634 -0.6305
  556MOL0     N74976   1.662  -0.045   6.649 -0.1401 -0.1612 -0.4802
  556MOL0     N74977   1.747  -0.022   6.743  0.0158 -0.0408  0.9367
  556MOL0     C74978   2.277   0.264   7.778 -0.3114 -0.4551 -1.4311
  556MOL0     C74979   2.412   0.307   7.793 -0.1562 -0.3718  0.0068
  556MOL0     C74980   2.810   0.457   7.674 -0.2268  0.4616 -0.4433
  556MOL0     C74981   2.850   0.566   7.759  0.6340  0.0413  0.4431
  556MOL0     C74982   2.984   0.599   7.761  0.5197  0.2105 -0.2964
  556MOL0     C74983   3.083   0.538   7.681 -0.7551 -0.2037  0.3532
  556MOL0     O74984   3.221   0.552   7.684 -0.4854 -0.5527  0.5119
  556MOL0     C74985   3.282   0.649   7.761  0.2782 -0.5653 -0.5015
  556MOL0     C74986   3.426   0.674   7.715  0.4936 -0.4670 -0.5995
  556MOL0     C74987   3.522   0.552   7.710  0.7834 -0.0557  0.6967
  556MOL0     C74988   3.671   0.586   7.708 -0.0137 -0.4358  0.3534
  556MOL0     C74989   3.743   0.455   7.729  0.1539 -1.0037 -0.3641
  556MOL0     C74990   3.809   0.353   7.750 -0.7510 -0.3631 -0.4782
  556MOL0     C74991   3.037   0.445   7.588 -0.0563  0.0585  0.7096
  556MOL0     C74992   2.907   0.400   7.587  0.4085  0.4960 -0.4416
  556MOL0     H74993   2.393   0.606   7.637 -0.3605 -2.2906 -2.6424
  556MOL0     H74994   2.164   0.562   7.631  0.2805  1.1761  0.2832
  556MOL0     H74995   2.041   0.156   7.836 -0.3276 -0.6497  1.1235
  556MOL0     H74996   1.898   0.210   7.763 -0.1035 -0.9496  0.2691
  556MOL0     H74997   2.132   0.071   7.598  0.8474  1.1612 -0.1294
  556MOL0     H74998   1.983   0.001   7.656  0.0337 -0.4859 -1.5025
  556MOL0     H74999   1.832   0.131   7.517 -1.3705 -1.3761 -1.8049
  556MOL0     H75000   1.967   0.236   7.463  2.3666  0.3582  0.1601
  556MOL0     H75001   2.065   0.011   7.355  0.9907 -3.5521  1.9731
  556MOL0     H75002   1.921  -0.066   7.416 -0.1546  1.2931  1.8739
  556MOL0     H75003   1.773   0.076   7.280  0.1556  0.2648  0.0805
  556MOL0     H75004   1.905   0.166   7.232 -3.7357  0.9598  1.0177
  556MOL0     H75005   2.021  -0.029   7.133  1.5529 -0.2926  2.8467
  556MOL0     H75006   1.890  -0.131   7.196  1.5525  0.5681  2.7443
  556MOL0     H75007   1.722  -0.006   7.039 -0.6122 -0.1963 -2.1007
  556MOL0     H75008   1.849   0.056   6.947 -1.4088  0.9031 -1.2129
  556MOL0     H75009   1.770  -0.225   6.999 -1.0295  1.8492  0.2625
  556MOL0     H75010   1.939  -0.182   6.942  0.7871 -0.0961 -1.3965
  556MOL0     H75011   1.691  -0.339   6.783  2.2967  0.3263 -2.0244
  556MOL0     H75012   1.558  -0.291   6.488  1.6135  0.7631  0.2669
  556MOL0     H75013   1.486  -0.342   6.641  0.5325 -1.4205 -1.3910
  556MOL0     H75014   1.433  -0.091   6.465 -1.3252  0.9285 -0.3364
  556MOL0     H75015   1.355  -0.119   6.628  0.3789  1.1277 -0.1763
  556MOL0     H75016   1.254  -0.333   6.517 -1.5507  1.0269 -0.7933
  556MOL0     H75017   1.334  -0.271   6.369  2.1478  2.1503  0.9429
  556MOL0     H75018   1.085  -0.222   6.369  1.1652 -0.8708  0.0073
  556MOL0     H75019   1.188  -0.081   6.371  1.3228 -0.6231 -1.0777
  556MOL0     H75020   1.009  -0.386   6.483 -1.7956  0.1922 -1.2652
  556MOL0     H75021   0.902  -0.585   6.493 -2.7737 -1.5236 -3.3297
  556MOL0     H75022   0.811  -0.625   6.638 -5.0735 -0.1479 -0.9123
  556MOL0     H75023   0.725  -0.545   6.515 -0.4590 -3.8113  0.9224
  556MOL0     H75024   0.338  -0.201   6.844  1.4855 -0.4964 -1.8703
  556MOL0     H75025   0.129  -0.272   6.877 -2.2685 -3.0052  2.7287
  556MOL0     H75026   0.018  -0.389   7.114 -1.4358 -0.1740  2.1386
  556MOL0     H75027  -0.117  -0.474   7.051  1.2429 -1.5943  0.3519
  556MOL0     H75028  -0.011  -0.687   7.124 -2.9703  0.6167  0.2099
  556MOL0     H75029   0.123  -0.595   7.195  1.3225 -0.2299 -4.8395
  556MOL0     H75030  -0.157  -0.533   7.285  2.3317  1.7467 -2.0836
  556MOL0     H75031  -0.002  -0.499   7.363 -0.7817  0.7652 -0.1778
  556MOL0     H75032  -0.121  -0.781   7.323  0.9691  0.7180 -2.1164
  556MOL0     H75033   0.021  -0.728   7.422  0.7737  1.0227  0.0550
  556MOL0     H75034  -0.276  -0.687   7.471  1.1072  4.5741 -0.7777
  556MOL0     H75035  -0.156  -0.600   7.572  2.8369  1.5774 -1.4983
  556MOL0     H75036  -0.162  -0.895   7.542  0.4478  0.7533 -1.9123
  556MOL0     H75037  -0.064  -0.812   7.661 -0.7918 -0.4929  0.3787
  556MOL0     H75038  -0.361  -0.787   7.682  0.2140  0.2650 -1.1407
  556MOL0     H75039  -0.245  -0.748   7.795 -0.7341  1.0514 -0.6416
  556MOL0     H75040  -0.331  -0.950   7.870  0.7810 -1.4258  0.5981
  556MOL0     H75041  -0.176  -0.994   7.816  1.5538  2.5479 -3.7054
  556MOL0     H75042   0.259  -0.668   6.985 -0.9147  0.7907  2.6812
  556MOL0     H75043   0.502  -0.586   6.959  0.0414 -0.0977  0.5123
  556MOL0     H75044   0.750  -0.177   6.846 -0.5467  2.4722 -0.8000
  556MOL0     H75045   0.927  -0.053   6.742 -2.0507 -0.1569  0.2046
  556MOL0     H75046   2.255   0.170   7.828 -0.9076  1.8683  3.2232
  556MOL0     H75047   2.471   0.237   7.850  2.3014 -0.1464 -2.0621
  556MOL0     H75048   2.776   0.621   7.816  0.6799 -0.8392  1.3892
  556MOL0     H75049   3.010   0.687   7.818 -1.3949  0.2570  0.5513
  556MOL0     H75050   3.230   0.745   7.753 -1.9528 -1.6332  0.3461
  556MOL0     H75051   3.283   0.610   7.864  0.4596 -0.3909 -0.4357
  556MOL0     H75052   3.462   0.757   7.777 -0.5540  0.0988 -0.7307
  556MOL0     H75053   3.420   0.705   7.610  0.3160  2.8687  0.2672
  556MOL0     H75054   3.500   0.510   7.611  0.5124  1.9193 -0.1460
  556MOL0     H75055   3.509   0.479   7.789  2.7331 -0.8416  0.3592
  556MOL0     H75056   3.693   0.664   7.782 -0.8846  1.1560 -1.0120
  556MOL0     H75057   3.710   0.624   7.614 -2.5302  1.3387 -0.0589
  556MOL0     H75058   3.872   0.284   7.802  1.8478  2.5443  0.5543
  556MOL0     H75059   3.112   0.401   7.524 -0.3874 -0.0231  0.3725
  556MOL0     H75060   2.884   0.320   7.518 -0.5760  1.0701 -0.8079
  557MOL0     O75061   7.619  10.309   0.199 -0.4681  0.4350  0.2394
  557MOL0     C75062   7.717  10.322   0.122  0.5307  0.4123 -0.3911
  557MOL0     O75063   7.699  10.353  -0.008 -0.2681 -0.2259  0.0573
  557MOL0     C75064   7.575  10.357  -0.051 -0.1635 -0.5601  0.5190
  557MOL0     C75065   7.489  10.248  -0.069 -0.5560  0.2229  0.2096
  557MOL0     C75066   7.367  10.264  -0.118  0.1412 -0.5745 -0.5866
  557MOL0     C75067   7.312  10.387  -0.155  0.7409 -0.2191  0.0475
  557MOL0     O75068   7.187  10.416  -0.213 -0.1353 -0.2511  0.3821
  557MOL0     C75069   7.080  10.324  -0.190 -0.1806  0.5453  0.4172
  557MOL0     C75070   6.943  10.380  -0.205  0.3453  0.6952 -0.1851
  557MOL0     C75071   6.914  10.514  -0.133 -0.5787  0.2893 -0.0808
  557MOL0     C75072   6.769  10.528  -0.113  0.0776  0.3235 -0.0301
  557MOL0     C75073   6.729  10.647  -0.036 -0.7280 -0.6353  0.1151
  557MOL0     C75074   6.582  10.661  -0.064 -0.6254  1.1626 -0.9567
  557MOL0     C75075   6.515  10.776   0.019 -0.0190 -1.4749 -0.1308
  557MOL0     C75076   6.371  10.780  -0.009  0.1560 -0.8093 -0.3041
  557MOL0     N75077   6.321  10.836  -0.138 -0.0966 -0.7028 -1.1802
  557MOL0     C75078   6.320  10.777  -0.261  0.0102  0.1876 -0.4439
  557MOL0     C75079   6.269  10.875  -0.343  0.2324 -0.2257  0.5680
  557MOL0     C75080   6.223  10.840  -0.482 -0.2320  0.1540  0.0563
  557MOL0     C75081   6.337  10.843  -0.584  0.3710  0.1132 -0.8475
  557MOL0     C75082   6.332  10.985  -0.659 -0.4790  0.1345 -0.3982
  557MOL0     C75083   6.443  11.005  -0.757  0.6754  0.6390 -0.0521
  557MOL0     O75084   6.429  10.914  -0.861  0.0117 -0.2886 -0.5447
  557MOL0     C75085   6.527  10.916  -0.949  0.5493  0.1755  0.8933
  557MOL0     C75086   6.654  10.862  -0.913  0.9505  0.1599 -0.7385
  557MOL0     C75087   6.751  10.851  -1.003 -0.5479 -0.2067  0.4620
  557MOL0     C75088   6.887  10.791  -0.959 -0.0679  0.8405  0.1967
  557MOL0     C75089   6.727  10.901  -1.137 -0.1638 -0.5126  0.4440
  557MOL0     C75090   6.836  10.920  -1.246 -0.0147 -0.0382 -0.6663
  557MOL0     O75091   6.791  10.964  -1.372  0.2677  0.0804 -0.0205
  557MOL0     C75092   6.885  11.027  -1.453 -0.2590  0.7128 -0.6078
  557MOL0     C75093   6.930  11.154  -1.409 -1.8506 -1.2623 -0.1056
  557MOL0     C75094   7.028  11.210  -1.489  0.5849  0.0603  0.5434
  557MOL0     C75095   7.071  11.141  -1.605  0.3226 -0.5191  0.1020
  557MOL0     O75096   7.179  11.187  -1.674 -0.4317  0.1370  0.3222
  557MOL0     C75097   7.249  11.312  -1.642  0.0446 -0.7565 -0.2514
  557MOL0     C75098   7.332  11.357  -1.768  0.4457  0.1556 -0.4120
  557MOL0     C75099   7.411  11.484  -1.752 -0.3815 -0.1953  0.1982
  557MOL0     C75100   7.317  11.616  -1.751 -0.0195 -0.9130  0.3492
  557MOL0     C75101   7.391  11.740  -1.734  0.0721 -0.6600  0.5105
  557MOL0     C75102   7.502  11.758  -1.823  0.5216  0.4543  0.6330
  557MOL0     C75103   7.460  11.744  -1.981  0.3505  0.3094 -0.5240
  557MOL0     C75104   7.591  11.752  -2.056 -0.4165  0.4297  0.4292
  557MOL0    Cl75105   7.577  11.702  -2.231  0.0132 -0.2694 -0.2335
  557MOL0     C75106   7.031  11.019  -1.642 -0.7260  0.6131 -0.3947
  557MOL0     C75107   6.935  10.960  -1.562 -0.1952  1.0065  0.4627
  557MOL0     O75108   6.952  10.885  -1.221  0.6014  0.0467 -0.5557
  557MOL0     C75109   6.604  10.958  -1.174 -0.0656 -1.0053 -0.3992
  557MOL0     C75110   6.500  10.955  -1.083  1.4249  0.6932 -0.0477
  557MOL0     N75111   6.249  10.988  -0.275  0.7454  0.5440  0.5736
  557MOL0     N75112   6.284  10.966  -0.153 -0.3143  0.4771 -0.5396
  557MOL0     C75113   7.393  10.491  -0.141  0.4151  0.3422  0.2034
  557MOL0     C75114   7.524  10.486  -0.074  0.6201  0.8715  0.8681
  557MOL0     C75115   7.850  10.285   0.182  0.4892 -0.2567  1.1038
  557MOL0     C75116   7.954  10.278   0.090  0.3022 -0.0004 -0.3944
  557MOL0     C75117   8.083  10.235   0.133 -0.2457  0.8737 -0.9068
  557MOL0     C75118   8.107  10.197   0.266  0.1747 -0.0651 -0.6413
  557MOL0     O75119   8.230  10.158   0.317 -0.1726  0.5906  0.4773
  557MOL0     C75120   8.346  10.163   0.237  0.4174 -0.3891 -0.3843
  557MOL0     C75121   8.467  10.160   0.334  0.1092 -0.7937 -0.5867
  557MOL0     C75122   8.452  10.105   0.482 -0.3004 -0.2466 -0.0417
  557MOL0     C75123   8.586  10.096   0.553 -0.4665  0.6356  0.1173
  557MOL0     C75124   8.674  10.215   0.548 -0.4638  0.9879 -0.7232
  557MOL0     C75125   8.754  10.302   0.551  0.1171  0.0329  0.1206
  557MOL0     C75126   7.996  10.199   0.354 -0.3271 -0.0637 -1.0084
  557MOL0     C75127   7.870  10.246   0.315  0.1786 -0.1385  0.1872
  557MOL0     H75128   7.520  10.148  -0.040  1.3677  1.0903  1.3788
  557MOL0     H75129   7.298  10.182  -0.100 -0.2978  0.1740  1.4699
  557MOL0     H75130   7.078  10.236  -0.254  1.4822 -0.2011  1.3183
  557MOL0     H75131   7.095  10.288  -0.087  0.1920 -0.4891  0.0117
  557MOL0     H75132   6.909  10.377  -0.309 -0.2487 -1.1259  0.0338
  557MOL0     H75133   6.883  10.301  -0.161  0.5083  1.5333  1.6177
  557MOL0     H75134   6.968  10.524  -0.038  0.2944  0.7304 -0.6098
  557MOL0     H75135   6.955  10.596  -0.192  3.1544  0.1851  2.0201
  557MOL0     H75136   6.728  10.546  -0.212  0.5372  3.6997  0.2747
  557MOL0     H75137   6.730  10.440  -0.061 -1.8900  1.2490  0.1215
  557MOL0     H75138   6.760  10.632   0.068  3.0622  3.2685 -0.1539
  557MOL0     H75139   6.787  10.737  -0.061 -0.6308 -0.2115  1.7587
  557MOL0     H75140   6.567  10.683  -0.170 -3.4538 -0.8928 -1.1015
  557MOL0     H75141   6.531  10.565  -0.048  2.0613 -0.4145 -1.2021
  557MOL0     H75142   6.522  10.772   0.128 -2.2341  1.0884  0.1970
  557MOL0     H75143   6.556  10.873  -0.010 -1.6094 -0.7584 -0.0779
  557MOL0     H75144   6.324  10.844   0.066  1.2567  0.6025 -0.7711
  557MOL0     H75145   6.332  10.679   0.007  0.2593 -0.5420  2.0389
  557MOL0     H75146   6.345  10.675  -0.287  2.6183  1.5263 -4.1105
  557MOL0     H75147   6.180  10.739  -0.480  2.4252 -1.0316  0.7697
  557MOL0     H75148   6.146  10.913  -0.510 -0.5512  0.3474  1.3875
  557MOL0     H75149   6.336  10.763  -0.659  0.4488 -0.3120 -0.4006
  557MOL0     H75150   6.430  10.823  -0.529 -0.8530  0.0542  1.2928
  557MOL0     H75151   6.333  11.064  -0.583  0.3180 -2.2969  2.2852
  557MOL0     H75152   6.232  10.993  -0.702 -0.3087  0.5536 -0.7267
  557MOL0     H75153   6.538  10.997  -0.704  1.5072  3.0561 -1.0544
  557MOL0     H75154   6.427  11.108  -0.789 -2.0222  0.5258  0.6367
  557MOL0     H75155   6.659  10.828  -0.811  0.9725 -0.6106 -0.9909
  557MOL0     H75156   6.951  10.870  -0.918 -2.4236  4.3247 -2.3132
  557MOL0     H75157   6.869  10.731  -0.869  2.0400 -1.1032 -0.5688
  557MOL0     H75158   6.938  10.720  -1.026  0.2264  0.7628  0.4950
  557MOL0     H75159   6.917  11.205  -1.314  1.7922  2.0878 -1.1218
  557MOL0     H75160   7.066  11.303  -1.449 -4.2533  2.1302  0.9896
  557MOL0     H75161   7.168  11.382  -1.619 -0.2098 -1.4436  1.0831
  557MOL0     H75162   7.304  11.308  -1.547 -4.3306  0.2181  2.6420
  557MOL0     H75163   7.398  11.273  -1.788 -0.8126 -1.2111  0.9161
  557MOL0     H75164   7.271  11.368  -1.859  0.9280  2.3211 -0.5349
  557MOL0     H75165   7.492  11.492  -1.825  0.5736  1.6614  1.3808
  557MOL0     H75166   7.463  11.480  -1.657  1.7937 -0.2387 -0.9405
  557MOL0     H75167   7.254  11.631  -1.838  0.6637 -1.2716 -0.2190
  557MOL0     H75168   7.241  11.611  -1.672  0.3698 -2.5819  0.6606
  557MOL0     H75169   7.434  11.734  -1.634  4.1170  2.4465 -0.7763
  557MOL0     H75170   7.324  11.827  -1.733  0.8488 -0.0472  0.5940
  557MOL0     H75171   7.546  11.857  -1.803  0.2794  1.0372 -1.4460
  557MOL0     H75172   7.584  11.690  -1.797 -0.3964 -0.6142  0.8193
  557MOL0     H75173   7.398  11.827  -2.014 -2.1614 -0.1291  2.6042
  557MOL0     H75174   7.402  11.656  -2.010 -1.2681  1.6175 -1.3995
  557MOL0     H75175   7.658  11.684  -2.003 -0.9277  0.1833  0.7561
  557MOL0     H75176   7.633  11.853  -2.047 -2.1455  1.4759 -2.0076
  557MOL0     H75177   7.068  10.970  -1.731 -1.2290  0.6702 -0.6413
  557MOL0     H75178   6.883  10.866  -1.580  1.2290  0.4205 -0.7529
  557MOL0     H75179   6.575  11.011  -1.264 -0.6825  1.4654  1.1631
  557MOL0     H75180   6.407  11.003  -1.110  1.0533 -0.6657 -1.3645
  557MOL0     H75181   7.352  10.583  -0.181  2.8161  0.0017 -3.5185
  557MOL0     H75182   7.574  10.582  -0.064  0.4430  1.2753 -1.4000
  557MOL0     H75183   7.949  10.307  -0.014  1.1178  1.0055 -0.1642
  557MOL0     H75184   8.156  10.232   0.053 -1.3162 -1.9196 -1.9123
  557MOL0     H75185   8.362  10.077   0.171  2.3031  1.2893 -2.2673
  557MOL0     H75186   8.339  10.247   0.166 -0.6379 -1.0601 -1.1148
  557MOL0     H75187   8.495  10.264   0.352  1.9996 -1.6553  1.9462
  557MOL0     H75188   8.554  10.109   0.291  1.3427 -1.9118  2.9221
  557MOL0     H75189   8.432   9.998   0.474  1.1634 -0.4191 -2.0753
  557MOL0     H75190   8.387  10.168   0.544  0.1883  0.2249 -0.0010
  557MOL0     H75191   8.649  10.024   0.499 -1.2972  0.2639 -0.3911
  557MOL0     H75192   8.579  10.063   0.657  1.5017 -0.3150  0.0031
  557MOL0     H75193   8.828  10.380   0.546 -0.4100  0.4610 -1.7651
  557MOL0     H75194   8.008  10.151   0.450 -0.3945 -1.4717 -1.6674
  557MOL0     H75195   7.782  10.255   0.378 -1.2201  2.5671 -1.9533
  558MOL0     O75196   2.315   1.735  10.519 -0.6851  0.5020 -0.4705
  558MOL0     C75197   2.301   1.803  10.619  0.6080  0.5267  0.6496
  558MOL0     O75198   2.342   1.931  10.633  0.5832 -0.9285 -0.4433
  558MOL0     C75199   2.432   1.995  10.542  0.3992 -0.9707  0.3955
  558MOL0     C75200   2.568   1.959  10.552  0.3390 -0.1805  0.3763
  558MOL0     C75201   2.665   2.019  10.475  0.8467 -0.6803 -0.6793
  558MOL0     C75202   2.623   2.122  10.384  0.1795 -0.0572  0.4622
  558MOL0     O75203   2.694   2.195  10.295 -0.5390 -0.2347  0.2351
  558MOL0     C75204   2.830   2.160  10.296  0.3009  0.3678 -0.6537
  558MOL0     C75205   2.911   2.243  10.192 -0.6445  0.0965  0.1181
  558MOL0     C75206   3.069   2.224  10.197  0.1027  0.3121 -0.2563
  558MOL0     C75207   3.084   2.076  10.189 -0.0852  0.6047  0.4717
  558MOL0     C75208   3.223   2.034  10.139  0.8808  0.4833 -0.0622
  558MOL0     C75209   3.222   1.882  10.093 -0.4474 -0.4217 -0.0153
  558MOL0     C75210   3.357   1.826  10.048 -0.3872 -0.0064  0.3384
  558MOL0     C75211   3.342   1.705   9.965 -0.3604  0.7958  0.7618
  558MOL0     N75212   3.468   1.631   9.948  0.1100 -0.3670 -0.3358
  558MOL0     C75213   3.557   1.640   9.845  0.3704  0.2487 -0.1630
  558MOL0     C75214   3.662   1.555   9.887  0.2689  0.2396 -0.0125
  558MOL0     C75215   3.795   1.532   9.809  0.4854  0.9948  0.2305
  558MOL0     C75216   3.916   1.555   9.906  0.2032 -0.1978  1.0687
  558MOL0     C75217   4.048   1.485   9.859 -0.9526  0.6590 -0.7620
  558MOL0     C75218   4.169   1.518   9.941 -0.2725  0.3274 -1.0886
  558MOL0     O75219   4.280   1.462   9.886  0.1528 -0.0552  0.0411
  558MOL0     C75220   4.398   1.476   9.950  0.0116  0.3683 -0.9133
  558MOL0     C75221   4.507   1.393   9.913 -0.4179 -0.5850 -0.0164
  558MOL0     C75222   4.631   1.408   9.967 -1.2153 -0.6399  0.7234
  558MOL0     C75223   4.739   1.320   9.920  0.1699  0.4430 -0.2734
  558MOL0     C75224   4.663   1.507  10.064  0.5773 -0.1202 -0.0713
  558MOL0     C75225   4.798   1.530  10.116  0.3181 -0.6420 -0.2182
  558MOL0     O75226   4.899   1.534  10.031 -0.8877  0.3030  0.2412
  558MOL0     C75227   5.026   1.539  10.081 -0.0893 -0.4390 -0.4599
  558MOL0     C75228   5.097   1.665  10.084 -0.2281 -0.2376 -0.4165
  558MOL0     C75229   5.225   1.676  10.141 -0.2567  0.0173  0.1406
  558MOL0     C75230   5.279   1.571  10.203  0.8899  0.8425 -0.0513
  558MOL0     O75231   5.401   1.600  10.263 -0.0810 -0.0840  0.9893
  558MOL0     C75232   5.436   1.526  10.387 -0.1806  0.5588  0.9389
  558MOL0     C75233   5.553   1.599  10.447 -0.5297  0.0566 -0.4653
  558MOL0     C75234   5.663   1.595  10.342  0.4937 -0.9766  0.5747
  558MOL0     C75235   5.797   1.633  10.410 -0.0101 -0.4866  0.6950
  558MOL0     C75236   5.818   1.788  10.423 -0.1801  0.3756 -0.3870
  558MOL0     C75237   5.966   1.810  10.437  0.5585  0.2503 -0.2802
  558MOL0     C75238   5.984   1.963  10.472  0.5490  0.3745 -0.0699
  558MOL0     C75239   6.127   1.994  10.519 -0.1761 -0.0915 -0.2875
  558MOL0    Cl75240   6.244   1.919  10.414  0.0081  0.6375  0.3400
  558MOL0     C75241   5.204   1.450  10.217  0.6000 -0.0324  0.4857
  558MOL0     C75242   5.085   1.433  10.147  0.2032  0.5584  0.2978
  558MOL0     O75243   4.805   1.548  10.240  0.4105  0.0358 -0.6552
  558MOL0     C75244   4.555   1.576  10.114  0.0958  0.0683  0.2764
  558MOL0     C75245   4.422   1.570  10.059 -0.3859  0.1576  0.4929
  558MOL0     N75246   3.629   1.502  10.007  0.2296 -0.9356 -0.4207
  558MOL0     N75247   3.510   1.547  10.043  0.2020 -0.6452 -0.2976
  558MOL0     C75248   2.488   2.159  10.372  0.4655  0.1972  0.1681
  558MOL0     C75249   2.393   2.093  10.455 -1.0859 -0.4633 -0.0742
  558MOL0     C75250   2.235   1.739  10.731 -0.9230  0.4254  0.7817
  558MOL0     C75251   2.200   1.814  10.841  0.2836 -0.1603 -0.1986
  558MOL0     C75252   2.140   1.753  10.946  0.5258 -1.1046 -0.5874
  558MOL0     C75253   2.105   1.616  10.949  0.3028  0.6567 -0.1554
  558MOL0     O75254   2.035   1.571  11.058 -0.0426 -0.0046  0.1732
  558MOL0     C75255   1.992   1.438  11.073  0.0529  0.6792  0.7817
  558MOL0     C75256   1.872   1.407  10.970 -1.6594  0.5368  0.2901
  558MOL0     C75257   1.754   1.489  11.014 -0.5841 -0.5953  0.6823
  558MOL0     C75258   1.642   1.484  10.911 -0.1168  0.1499 -0.3486
  558MOL0     C75259   1.539   1.384  10.943  0.7668  0.2104 -0.3674
  558MOL0     C75260   1.443   1.306  10.963  0.4591  0.2526  1.0323
  558MOL0     C75261   2.143   1.542  10.842  0.8219  0.6249  0.4989
  558MOL0     C75262   2.189   1.607  10.725  0.3046  0.0684 -0.0512
  558MOL0     H75263   2.598   1.899  10.638  4.2296  1.7140  0.5348
  558MOL0     H75264   2.766   1.983  10.492  0.8703  0.3652  2.1157
  558MOL0     H75265   2.877   2.168  10.394  2.3280  0.5583 -1.5873
  558MOL0     H75266   2.829   2.058  10.255 -0.7625 -0.8134  2.0797
  558MOL0     H75267   2.893   2.226  10.086 -0.2589  1.4508 -0.1886
  558MOL0     H75268   2.892   2.345  10.228 -0.0176 -0.7028  3.0063
  558MOL0     H75269   3.117   2.277  10.114  1.9124 -1.4806 -0.4375
  558MOL0     H75270   3.103   2.268  10.292 -0.8385 -0.0048  0.2312
  558MOL0     H75271   3.060   2.032  10.286 -0.4396 -0.3517 -0.0273
  558MOL0     H75272   3.003   2.028  10.133  0.3331 -1.5912  1.6065
  558MOL0     H75273   3.256   2.092  10.052  2.1210  0.8485  0.6161
  558MOL0     H75274   3.297   2.045  10.219 -0.9813  0.8614  1.6752
  558MOL0     H75275   3.190   1.823  10.180  2.3228  2.7559  3.4758
  558MOL0     H75276   3.143   1.868  10.018 -0.4159 -0.9038  0.0368
  558MOL0     H75277   3.404   1.898   9.981 -0.3584 -1.9831 -1.9069
  558MOL0     H75278   3.423   1.814  10.134  0.1809  0.0097 -0.0888
  558MOL0     H75279   3.295   1.723   9.867 -1.1457 -1.7370  0.5945
  558MOL0     H75280   3.270   1.636  10.010 -1.0885  0.7140 -0.4729
  558MOL0     H75281   3.551   1.709   9.762  0.1423  0.2272 -0.1660
  558MOL0     H75282   3.806   1.433   9.764 -4.1071 -0.0688  1.0048
  558MOL0     H75283   3.802   1.602   9.726  0.3993 -0.8279 -1.3685
  558MOL0     H75284   3.889   1.526  10.008 -1.1675 -2.7576  0.0725
  558MOL0     H75285   3.934   1.663   9.905  1.5354 -0.3865 -0.9305
  558MOL0     H75286   4.076   1.516   9.758 -0.7366 -0.9765 -1.2430
  558MOL0     H75287   4.037   1.376   9.855 -0.7932  0.4381  2.1675
  558MOL0     H75288   4.148   1.478  10.041 -1.9423 -0.0744 -1.5622
  558MOL0     H75289   4.188   1.621   9.973  2.1323 -1.2090  3.1312
  558MOL0     H75290   4.486   1.324   9.831 -0.6189 -1.9708  1.1526
  558MOL0     H75291   4.828   1.320   9.984  0.9546  1.6696 -1.3127
  558MOL0     H75292   4.694   1.221   9.931 -2.2124  1.5023  0.0899
  558MOL0     H75293   4.768   1.344   9.817  0.5603  0.0443 -0.2611
  558MOL0     H75294   5.061   1.748  10.024  2.1669  0.6823 -0.6851
  558MOL0     H75295   5.276   1.770  10.124  3.4324 -2.2573 -3.0350
  558MOL0     H75296   5.345   1.523  10.448 -0.2065 -0.6212  0.8762
  558MOL0     H75297   5.452   1.419  10.371  0.9818  0.2287  3.7883
  558MOL0     H75298   5.531   1.700  10.483 -0.3268 -0.8619  2.4671
  558MOL0     H75299   5.576   1.538  10.535  1.9142 -1.5656 -2.0997
  558MOL0     H75300   5.636   1.668  10.265 -1.4672 -0.1847  1.9453
  558MOL0     H75301   5.669   1.498  10.292 -0.0356 -1.2425  1.0240
  558MOL0     H75302   5.810   1.590  10.509  0.1152  1.9890  1.8189
  558MOL0     H75303   5.875   1.591  10.346 -0.4193  1.6442 -1.3647
  558MOL0     H75304   5.772   1.832  10.512  0.3510  1.6368 -0.7159
  558MOL0     H75305   5.778   1.853  10.344 -2.1154 -1.9441 -1.4411
  558MOL0     H75306   6.010   1.755  10.521  0.2261 -2.6194 -1.8670
  558MOL0     H75307   6.016   1.777  10.345  1.0417 -0.6169  0.2740
  558MOL0     H75308   5.916   2.010  10.544 -0.6224 -0.9886 -0.2495
  558MOL0     H75309   5.969   2.008  10.374  0.4074  2.2352  0.7574
  558MOL0     H75310   6.128   1.947  10.618  1.3664 -0.4530 -0.4514
  558MOL0     H75311   6.146   2.101  10.525 -2.7622  0.6933 -3.3191
  558MOL0     H75312   5.254   1.368  10.266  1.8044  1.0544  1.1279
  558MOL0     H75313   5.037   1.337  10.135  0.2744  0.4739  0.6679
  558MOL0     H75314   4.563   1.645  10.198  0.3434  1.6308 -0.9897
  558MOL0     H75315   4.344   1.636  10.094  2.0329  3.5752 -0.0406
  558MOL0     H75316   2.455   2.240  10.308  0.1685  0.3173  0.4695
  558MOL0     H75317   2.288   2.123  10.454 -0.4446  2.0677  0.9330
  558MOL0     H75318   2.215   1.921  10.840  3.2632 -0.5030  0.1999
  558MOL0     H75319   2.132   1.810  11.037  1.3199  0.4101 -1.4256
  558MOL0     H75320   2.073   1.367  11.051 -1.3771 -1.0454  0.8467
  558MOL0     H75321   1.964   1.409  11.174 -0.0373  0.2131  0.6277
  558MOL0     H75322   1.851   1.300  10.973 -1.8590  0.5854  0.9727
  558MOL0     H75323   1.891   1.434  10.866  0.3115  2.0003  0.9660
  558MOL0     H75324   1.796   1.590  11.010  0.7540 -1.1036  1.3913
  558MOL0     H75325   1.719   1.464  11.115 -0.8216  0.7222  0.9516
  558MOL0     H75326   1.673   1.465  10.807  0.6882 -2.5516  0.2875
  558MOL0     H75327   1.593   1.580  10.925  0.9401  0.3345  2.7083
  558MOL0     H75328   1.360   1.240  10.982  3.4751 -3.9723  0.8210
  558MOL0     H75329   2.137   1.435  10.831  0.0410  0.9110 -2.7260
  558MOL0     H75330   2.202   1.560  10.628  3.0127  1.3067 -0.3787
  559MOL0     O75331  11.394   6.988   4.063  0.3155 -0.2583  0.0075
  559MOL0     C75332  11.505   6.925   4.050  0.2563 -0.0144  0.9447
  559MOL0     O75333  11.626   6.960   4.101  0.1161  0.0010 -0.1648
  559MOL0     C75334  11.622   7.051   4.199  0.4680 -0.3602  0.8687
  559MOL0     C75335  11.659   7.179   4.179 -0.1917 -0.0251 -0.0361
  559MOL0     C75336  11.676   7.272   4.282  0.1676 -1.1825 -0.5430
  559MOL0     C75337  11.668   7.231   4.412 -0.1052  0.1831  0.6578
  559MOL0     O75338  11.709   7.318   4.497  0.1836  0.4795  0.2511
  559MOL0     C75339  11.706   7.285   4.639  1.0992 -0.8242 -0.6023
  559MOL0     C75340  11.765   7.412   4.699 -0.0786  0.9021 -0.3267
  559MOL0     C75341  11.904   7.432   4.631 -0.2575 -0.0474 -0.1161
  559MOL0     C75342  11.982   7.536   4.714  0.8597 -0.0440 -1.3592
  559MOL0     C75343  12.131   7.535   4.661  0.4334  0.0935 -0.0733
  559MOL0     C75344  12.233   7.597   4.764 -0.3096 -0.3425  1.0208
  559MOL0     C75345  12.239   7.521   4.894  0.5613 -0.8493  1.3206
  559MOL0     C75346  12.357   7.546   4.976 -0.6439  0.2365  0.3245
  559MOL0     N75347  12.361   7.685   5.029 -0.0255 -0.2712 -0.5115
  559MOL0     C75348  12.303   7.721   5.148  1.2372  0.1409  0.3396
  559MOL0     C75349  12.308   7.855   5.144  0.4089  0.0843  0.1266
  559MOL0     C75350  12.264   7.934   5.261 -0.7668  0.4722  0.5746
  559MOL0     C75351  12.366   7.911   5.378 -0.2628  0.2644 -0.1263
  559MOL0     C75352  12.500   7.979   5.352 -0.1043  0.9338 -0.9817
  559MOL0     C75353  12.615   7.880   5.378  0.7813 -0.3050  0.4511
  559MOL0     O75354  12.737   7.956   5.377  0.1136  0.0427 -1.1538
  559MOL0     C75355  12.854   7.909   5.441  0.3845 -0.1137  0.1707
  559MOL0     C75356  12.856   7.792   5.518  1.0708  0.2407  0.3465
  559MOL0     C75357  12.977   7.755   5.578 -0.2646 -0.0362 -0.6467
  559MOL0     C75358  12.963   7.619   5.639 -0.3865  0.4053 -0.2812
  559MOL0     C75359  13.098   7.831   5.560 -0.0172  0.2381 -0.5336
  559MOL0     C75360  13.227   7.807   5.631  0.0672 -0.0196 -0.1179
  559MOL0     O75361  13.326   7.889   5.599 -0.2644 -0.2910 -0.5184
  559MOL0     C75362  13.438   7.898   5.674 -0.2758 -0.3464 -0.5374
  559MOL0     C75363  13.494   8.025   5.678  0.5689  0.2758 -0.2004
  559MOL0     C75364  13.625   8.048   5.716  0.9900 -0.7513 -0.8660
  559MOL0     C75365  13.698   7.946   5.780 -0.5967 -0.1352  0.6118
  559MOL0     O75366  13.821   7.989   5.822  1.0105 -0.6745 -0.0425
  559MOL0     C75367  13.887   7.914   5.927 -0.4744  0.3356  0.0816
  559MOL0     C75368  13.990   8.009   5.989 -0.1317 -0.6346 -0.8606
  559MOL0     C75369  13.928   8.118   6.074  0.2811 -0.3783  0.0919
  559MOL0     C75370  13.998   8.138   6.204 -0.9155  0.1662 -0.1686
  559MOL0     C75371  13.947   8.246   6.309 -0.0698 -0.0733 -0.6441
  559MOL0     C75372  13.958   8.395   6.269  0.2743  0.8195  0.7570
  559MOL0     C75373  14.092   8.445   6.214 -0.5413 -0.2524  0.6470
  559MOL0     C75374  14.200   8.463   6.328  0.2490  0.8556 -0.2206
  559MOL0    Cl75375  14.179   8.625   6.381 -0.2612 -0.0027 -0.3698
  559MOL0     C75376  13.646   7.817   5.782 -0.4314  0.6915  0.2696
  559MOL0     C75377  13.517   7.802   5.731 -0.2073  0.1366  0.0081
  559MOL0     O75378  13.230   7.725   5.727 -1.0248  0.0815 -0.5163
  559MOL0     C75379  13.089   7.939   5.476 -0.4033  0.3311  0.8757
  559MOL0     C75380  12.970   7.972   5.414  0.3237  0.1967 -0.3221
  559MOL0     N75381  12.357   7.894   5.020  0.1759 -0.1987 -0.6415
  559MOL0     N75382  12.391   7.789   4.951 -0.6103 -0.1935 -0.5315
  559MOL0     C75383  11.629   7.095   4.439 -1.0614 -0.2326  0.0243
  559MOL0     C75384  11.604   7.007   4.322  0.7516  0.0819 -0.9000
  559MOL0     C75385  11.499   6.800   3.977  0.1638 -0.0940 -0.1705
  559MOL0     C75386  11.377   6.742   3.928  0.1174  0.4262  0.1146
  559MOL0     C75387  11.369   6.613   3.861 -0.0375  0.7592  0.0430
  559MOL0     C75388  11.490   6.541   3.858  0.2038 -0.1831 -0.8581
  559MOL0     O75389  11.485   6.414   3.819 -0.2505 -0.0310  0.6479
  559MOL0     C75390  11.570   6.380   3.709 -0.8378  0.6233 -0.5377
  559MOL0     C75391  11.490   6.311   3.607  0.6729 -0.3703 -0.7229
  559MOL0     C75392  11.567   6.229   3.500 -0.4563 -0.0967  0.9037
  559MOL0     C75393  11.651   6.317   3.396 -0.2935  0.0781  0.6161
  559MOL0     C75394  11.564   6.403   3.308 -0.6263 -0.6647 -0.9751
  559MOL0     C75395  11.477   6.459   3.236  0.6484 -0.3319 -0.9275
  559MOL0     C75396  11.604   6.593   3.904  0.8564  0.2148 -0.4201
  559MOL0     C75397  11.611   6.718   3.959 -0.2581 -0.5484 -0.3174
  559MOL0     H75398  11.681   7.204   4.076  3.7535  1.1257  0.9131
  559MOL0     H75399  11.698   7.378   4.272 -1.7666 -0.9028 -2.4623
  559MOL0     H75400  11.602   7.278   4.670  0.8268  0.9164 -1.0671
  559MOL0     H75401  11.763   7.195   4.666 -0.8918 -1.4086  2.0472
  559MOL0     H75402  11.702   7.501   4.690 -0.4895  0.6999  0.4497
  559MOL0     H75403  11.788   7.407   4.806  1.5526  1.2156 -0.6381
  559MOL0     H75404  11.957   7.337   4.623 -1.5032 -0.6356 -1.8254
  559MOL0     H75405  11.887   7.465   4.528  0.0575  0.4885 -0.0011
  559MOL0     H75406  11.934   7.633   4.697 -0.5186 -1.0020 -3.3847
  559MOL0     H75407  11.980   7.510   4.821  0.9573 -0.9711 -1.5762
  559MOL0     H75408  12.167   7.437   4.627  2.6228  0.9882 -0.5104
  559MOL0     H75409  12.150   7.589   4.567  1.2449 -2.2513 -1.3387
  559MOL0     H75410  12.330   7.601   4.714 -1.1695  1.6017 -0.6525
  559MOL0     H75411  12.204   7.701   4.782  2.3098  0.3133  1.7868
  559MOL0     H75412  12.142   7.532   4.943  0.0510 -0.4532  0.2650
  559MOL0     H75413  12.249   7.415   4.872  0.9130 -1.1318  2.7255
  559MOL0     H75414  12.454   7.519   4.932 -0.9984 -1.0023  0.2646
  559MOL0     H75415  12.340   7.483   5.064  0.1418 -0.8445 -0.2658
  559MOL0     H75416  12.265   7.654   5.225  1.3870 -1.6957 -1.1310
  559MOL0     H75417  12.242   8.038   5.236 -4.1221  0.4419  2.6500
  559MOL0     H75418  12.163   7.903   5.290 -0.4429  0.1939  1.4576
  559MOL0     H75419  12.380   7.804   5.399  0.4528  0.0386 -1.6835
  559MOL0     H75420  12.311   7.939   5.469  0.2121  0.3702  0.1286
  559MOL0     H75421  12.492   8.066   5.419  0.3412  0.2435 -0.0024
  559MOL0     H75422  12.503   8.021   5.251  2.0658  1.1401 -0.8631
  559MOL0     H75423  12.622   7.797   5.308  4.9324 -0.0784  0.3456
  559MOL0     H75424  12.590   7.833   5.473 -1.2466 -0.5823 -0.1723
  559MOL0     H75425  12.761   7.739   5.525  1.9591 -1.2401  2.3874
  559MOL0     H75426  13.042   7.552   5.603 -1.0231  0.6676 -2.2985
  559MOL0     H75427  12.974   7.609   5.747  3.0412  0.4724 -0.5133
  559MOL0     H75428  12.872   7.574   5.597  0.2177 -2.7464  1.4554
  559MOL0     H75429  13.431   8.102   5.635  1.2105  1.1212  0.3619
  559MOL0     H75430  13.653   8.153   5.712 -0.8604 -0.2489 -2.4922
  559MOL0     H75431  13.817   7.884   6.006  0.1356  0.3107  0.6244
  559MOL0     H75432  13.928   7.822   5.885  0.2115 -0.5508  2.5474
  559MOL0     H75433  14.064   7.961   6.054 -1.0127 -1.0096 -0.1198
  559MOL0     H75434  14.047   8.056   5.908 -1.7275  2.0276 -0.5402
  559MOL0     H75435  13.825   8.090   6.099 -0.1959 -0.5132 -1.8700
  559MOL0     H75436  13.928   8.205   6.008  1.2071  0.3118  0.9888
  559MOL0     H75437  14.013   8.045   6.260  0.6695  2.4003  3.5686
  559MOL0     H75438  14.101   8.159   6.173 -1.1639  1.1911 -0.3236
  559MOL0     H75439  14.000   8.226   6.403 -0.6908 -2.2819 -0.7160
  559MOL0     H75440  13.845   8.224   6.341  0.1415 -2.2908 -1.3706
  559MOL0     H75441  13.888   8.399   6.186  2.0037  1.8518 -0.7417
  559MOL0     H75442  13.930   8.462   6.350  0.3800  3.2186 -1.0716
  559MOL0     H75443  14.067   8.541   6.168  0.6861 -0.6991 -1.0961
  559MOL0     H75444  14.136   8.384   6.134 -0.4736 -0.1513  0.6076
  559MOL0     H75445  14.295   8.446   6.277 -0.5970 -0.6087 -1.3878
  559MOL0     H75446  14.192   8.383   6.402  1.5510 -2.1296 -3.1146
  559MOL0     H75447  13.701   7.726   5.806 -2.1506 -0.8579 -1.2931
  559MOL0     H75448  13.480   7.700   5.728 -2.2583  0.8511 -0.1190
  559MOL0     H75449  13.178   7.996   5.450 -0.2760  0.7611  2.1577
  559MOL0     H75450  12.970   8.042   5.331 -1.4894  0.8717  0.2046
  559MOL0     H75451  11.628   7.047   4.536  1.1785  1.9888  1.2763
  559MOL0     H75452  11.601   6.899   4.336  2.5169 -0.0469 -1.3033
  559MOL0     H75453  11.287   6.802   3.937  0.0297  0.0288  2.4633
  559MOL0     H75454  11.281   6.556   3.834  2.4298 -3.3303 -0.1931
  559MOL0     H75455  11.620   6.465   3.661 -0.5342 -0.6460 -2.5973
  559MOL0     H75456  11.646   6.313   3.750 -1.1792  1.8724  2.3832
  559MOL0     H75457  11.442   6.390   3.547 -0.9845 -0.3453  0.5736
  559MOL0     H75458  11.426   6.236   3.654  2.5577 -1.5278  0.0896
  559MOL0     H75459  11.505   6.155   3.447  0.3907 -0.8338  0.9244
  559MOL0     H75460  11.637   6.161   3.550  0.7940 -1.7410 -2.7078
  559MOL0     H75461  11.695   6.239   3.333 -1.8512 -0.4971  0.1959
  559MOL0     H75462  11.725   6.377   3.450  0.5650 -1.0225  0.7172
  559MOL0     H75463  11.405   6.489   3.162  0.3303  2.9454  0.5428
  559MOL0     H75464  11.698   6.539   3.893  0.8936 -0.7105  3.1664
  559MOL0     H75465  11.706   6.751   4.001 -0.1887 -0.3115 -0.6565
  560MOL0     O75466   4.956   4.103   7.914 -0.5308 -0.0691 -0.5181
  560MOL0     C75467   4.963   4.122   8.033 -0.3766 -0.3622  0.2307
  560MOL0     O75468   4.915   4.236   8.093  0.2153  0.1468  0.3840
  560MOL0     C75469   4.853   4.346   8.027 -0.0237  0.2496 -0.4388
  560MOL0     C75470   4.888   4.478   8.068 -0.7202  0.6360 -0.1619
  560MOL0     C75471   4.839   4.584   8.003 -0.5655  0.3454  0.3122
  560MOL0     C75472   4.752   4.569   7.900 -0.6193 -0.1487  0.4270
  560MOL0     O75473   4.724   4.687   7.829  0.1881  0.4641 -0.0506
  560MOL0     C75474   4.596   4.703   7.777 -0.2150 -0.4416  0.7760
  560MOL0     C75475   4.589   4.849   7.734  0.3799 -1.0918  0.0728
  560MOL0     C75476   4.462   4.869   7.642  0.4409  0.1531 -0.4656
  560MOL0     C75477   4.456   5.009   7.573  0.2317 -0.1694  0.0029
  560MOL0     C75478   4.340   5.003   7.466 -0.3449 -0.1992  0.2553
  560MOL0     C75479   4.310   5.140   7.411  0.4007  0.0861 -0.4463
  560MOL0     C75480   4.413   5.194   7.324 -0.2396 -0.3941  0.4104
  560MOL0     C75481   4.354   5.316   7.251  0.1796  0.3173 -0.5141
  560MOL0     N75482   4.459   5.412   7.206  0.1845  0.0519  0.1012
  560MOL0     C75483   4.514   5.405   7.085  0.8028  0.5395  0.1997
  560MOL0     C75484   4.586   5.512   7.081  0.8253 -0.4889  0.1047
  560MOL0     C75485   4.682   5.549   6.969  0.2948  0.0324  1.0876
  560MOL0     C75486   4.808   5.463   6.954 -0.3378  0.2823  0.0384
  560MOL0     C75487   4.886   5.420   7.082 -0.3956 -0.8039 -0.2278
  560MOL0     C75488   4.932   5.548   7.155 -0.9894 -0.9299 -0.1503
  560MOL0     O75489   5.026   5.629   7.076  0.2403 -0.3622  0.7058
  560MOL0     C75490   5.091   5.735   7.131 -0.9672  0.0637 -0.4667
  560MOL0     C75491   5.071   5.778   7.272 -0.7902  0.0199  0.4804
  560MOL0     C75492   5.143   5.884   7.332 -0.2890 -0.8742  0.1686
  560MOL0     C75493   5.146   5.901   7.487  0.6673 -0.1591 -0.0225
  560MOL0     C75494   5.234   5.956   7.248 -0.0579 -0.3286  0.0989
  560MOL0     C75495   5.332   6.053   7.309  0.2936 -0.1381 -0.4563
  560MOL0     O75496   5.444   6.072   7.231  0.3002 -0.0269 -0.2216
  560MOL0     C75497   5.554   6.151   7.268  0.6317  0.8205  0.6232
  560MOL0     C75498   5.537   6.280   7.324  0.0713 -0.3410  0.4760
  560MOL0     C75499   5.644   6.372   7.332 -0.3531 -0.1337  0.5726
  560MOL0     C75500   5.764   6.338   7.276  0.3506 -0.5943  0.3166
  560MOL0     O75501   5.850   6.446   7.270  0.8671 -0.0891  0.1183
  560MOL0     C75502   5.987   6.415   7.237  0.4032  0.2383  0.9330
  560MOL0     C75503   6.068   6.543   7.231  0.5722  0.9071 -0.6156
  560MOL0     C75504   6.035   6.641   7.124  0.1530 -0.3115  0.8736
  560MOL0     C75505   5.940   6.747   7.179 -1.1292 -0.0236  0.5134
  560MOL0     C75506   5.994   6.864   7.272  0.2019 -0.2761 -0.0992
  560MOL0     C75507   6.108   6.941   7.211 -0.0713  0.1835 -0.3870
  560MOL0     C75508   6.163   7.050   7.298 -0.6503  0.1765  0.3682
  560MOL0     C75509   6.085   7.175   7.314 -0.1028 -0.4880  0.3207
  560MOL0    Cl75510   6.193   7.260   7.436 -0.5262  0.0719  0.3366
  560MOL0     C75511   5.781   6.211   7.215 -0.3163 -0.4961 -0.0615
  560MOL0     C75512   5.675   6.124   7.218 -0.0658  0.6330  0.0330
  560MOL0     O75513   5.306   6.100   7.418 -0.0788 -0.1466 -1.1395
  560MOL0     C75514   5.244   5.916   7.115 -0.1393 -0.3501 -0.3073
  560MOL0     C75515   5.175   5.812   7.058  0.0742 -0.1003 -0.5145
  560MOL0     N75516   4.581   5.591   7.195  1.3711  0.0010 -0.0648
  560MOL0     N75517   4.495   5.533   7.272  0.3073  0.0405  0.9700
  560MOL0     C75518   4.716   4.439   7.861  0.0851 -0.6431 -0.4430
  560MOL0     C75519   4.759   4.332   7.929  0.3395  0.4889  0.1957
  560MOL0     C75520   5.026   4.027   8.110 -0.3604  0.2553 -0.3387
  560MOL0     C75521   5.119   3.941   8.058 -0.0139  0.0565  0.6259
  560MOL0     C75522   5.176   3.843   8.140 -0.0309  0.2492  0.1288
  560MOL0     C75523   5.145   3.831   8.280  0.5268 -0.4603  0.2264
  560MOL0     O75524   5.198   3.741   8.366  0.1166 -0.5323  0.2564
  560MOL0     C75525   5.330   3.684   8.350  0.9469 -0.4053 -1.2956
  560MOL0     C75526   5.297   3.545   8.284 -0.1780 -0.6849 -0.2317
  560MOL0     C75527   5.417   3.441   8.282  0.0070  0.3857 -0.8902
  560MOL0     C75528   5.531   3.491   8.195 -0.0254  0.1011  0.4287
  560MOL0     C75529   5.637   3.549   8.277  0.6584  0.3268  0.3914
  560MOL0     C75530   5.730   3.590   8.348 -0.0831 -0.4813  0.0557
  560MOL0     C75531   5.051   3.928   8.327  0.4141  1.2220  0.8207
  560MOL0     C75532   4.989   4.018   8.243 -0.1053 -0.3761 -0.3874
  560MOL0     H75533   4.956   4.481   8.153  0.6323 -2.4335 -0.9913
  560MOL0     H75534   4.876   4.686   8.018  3.1030 -0.8551  0.5665
  560MOL0     H75535   4.587   4.634   7.693 -1.7141  0.8608 -0.2024
  560MOL0     H75536   4.511   4.682   7.842 -0.0623  1.9797  1.8840
  560MOL0     H75537   4.585   4.918   7.819  0.3126  0.1268 -0.8934
  560MOL0     H75538   4.672   4.875   7.667 -1.3808  1.0162 -1.4518
  560MOL0     H75539   4.464   4.793   7.563 -1.1587 -1.4532  0.9417
  560MOL0     H75540   4.369   4.861   7.699  0.0304 -1.1307 -1.2706
  560MOL0     H75541   4.421   5.085   7.642 -1.7884 -1.7808  0.8328
  560MOL0     H75542   4.547   5.036   7.518  2.0528  0.2250  2.9715
  560MOL0     H75543   4.382   4.952   7.380 -1.0121 -1.1861  0.4939
  560MOL0     H75544   4.243   4.964   7.499 -1.6269  2.5916  0.0289
  560MOL0     H75545   4.218   5.131   7.353 -1.1480 -0.6838  1.9643
  560MOL0     H75546   4.276   5.202   7.495 -0.7680 -0.4030 -0.5457
  560MOL0     H75547   4.501   5.229   7.379  3.0261 -3.0932 -2.5706
  560MOL0     H75548   4.457   5.124   7.253 -1.2930 -0.1148 -0.5472
  560MOL0     H75549   4.278   5.368   7.311  0.2233  1.0374 -1.0690
  560MOL0     H75550   4.315   5.269   7.160  5.4128 -1.3845 -2.2320
  560MOL0     H75551   4.506   5.331   7.007 -0.7673  1.8378 -0.9463
  560MOL0     H75552   4.627   5.532   6.875  0.6144  1.5123  0.5932
  560MOL0     H75553   4.698   5.658   6.974  3.3264 -0.3341  1.1095
  560MOL0     H75554   4.886   5.500   6.886 -0.2447 -2.0506 -1.2421
  560MOL0     H75555   4.771   5.376   6.899 -1.2916  0.7481 -0.0675
  560MOL0     H75556   4.971   5.362   7.044 -1.4915 -0.9042 -2.7449
  560MOL0     H75557   4.814   5.365   7.143 -1.5120 -1.7828 -2.3137
  560MOL0     H75558   4.989   5.525   7.245  0.9288 -0.4014 -1.1799
  560MOL0     H75559   4.845   5.608   7.183 -0.2352 -0.4338  1.2154
  560MOL0     H75560   5.017   5.718   7.344 -0.7099 -0.1487  0.4020
  560MOL0     H75561   5.250   5.891   7.519 -0.0561 -3.5374  1.7783
  560MOL0     H75562   5.089   5.988   7.520 -0.6863 -1.0188  0.0119
  560MOL0     H75563   5.080   5.826   7.531 -1.5832  1.1459 -0.9789
  560MOL0     H75564   5.444   6.311   7.371 -0.7019 -1.4299 -0.2854
  560MOL0     H75565   5.632   6.468   7.381 -1.2782 -0.6130  1.3367
  560MOL0     H75566   6.029   6.344   7.309 -1.8467  0.5676  2.6484
  560MOL0     H75567   5.991   6.363   7.141  1.9179 -0.9868  1.6022
  560MOL0     H75568   6.062   6.575   7.335  2.0521  0.4924 -0.3766
  560MOL0     H75569   6.174   6.519   7.217  0.3684  0.9026 -2.5388
  560MOL0     H75570   5.990   6.592   7.038  1.4450  1.2561 -0.7760
  560MOL0     H75571   6.125   6.695   7.092  0.5104 -0.4655  1.5866
  560MOL0     H75572   5.891   6.793   7.092 -0.5406  1.9173  1.1621
  560MOL0     H75573   5.858   6.703   7.236 -2.1783 -0.3863 -1.1925
  560MOL0     H75574   6.034   6.806   7.356  1.0884 -1.6047 -1.3916
  560MOL0     H75575   5.911   6.925   7.308  1.7859  1.9056  0.0507
  560MOL0     H75576   6.190   6.870   7.203  1.7010  2.1408 -0.3798
  560MOL0     H75577   6.089   6.981   7.111  1.3495  0.5057 -0.5483
  560MOL0     H75578   6.255   7.082   7.249  0.8704 -0.3014  2.7904
  560MOL0     H75579   6.193   7.002   7.391 -0.1638 -3.9464 -1.6717
  560MOL0     H75580   5.991   7.145   7.361  0.6485 -1.2351  1.3771
  560MOL0     H75581   6.075   7.232   7.221 -1.1292 -1.7078 -0.3569
  560MOL0     H75582   5.873   6.182   7.166 -1.2050 -2.2905 -0.7384
  560MOL0     H75583   5.681   6.028   7.167  0.4344  0.7319 -0.0986
  560MOL0     H75584   5.316   5.972   7.056 -1.1548 -0.3446 -1.5848
  560MOL0     H75585   5.185   5.781   6.955  0.6152 -1.6824 -0.0067
  560MOL0     H75586   4.663   4.444   7.766  0.2514 -0.8148 -0.5468
  560MOL0     H75587   4.731   4.242   7.874 -0.0139  1.1338 -0.7192
  560MOL0     H75588   5.159   3.946   7.958  1.2148  1.8669  1.1575
  560MOL0     H75589   5.269   3.798   8.107  1.1219  3.0630 -0.7552
  560MOL0     H75590   5.401   3.743   8.292  0.5154 -0.9710 -2.4293
  560MOL0     H75591   5.382   3.658   8.443  0.6845 -0.8447 -1.2650
  560MOL0     H75592   5.275   3.572   8.180 -0.1434  1.5278  0.2783
  560MOL0     H75593   5.204   3.500   8.320 -1.1211  3.2639  3.0729
  560MOL0     H75594   5.377   3.345   8.249 -0.2658 -0.4457  1.5862
  560MOL0     H75595   5.445   3.428   8.387 -2.7283  2.9547  0.3154
  560MOL0     H75596   5.491   3.564   8.124 -0.5311  0.1532  0.7615
  560MOL0     H75597   5.567   3.408   8.133 -1.6254 -1.2187  1.1805
  560MOL0     H75598   5.812   3.634   8.400 -1.0758  1.1298  0.3432
  560MOL0     H75599   5.019   3.939   8.430 -0.5569  2.5068  0.4093
  560MOL0     H75600   4.916   4.085   8.288  0.4797  0.7343 -1.0495
  561MOL0     O75601   1.883   3.179   6.593  0.0160  0.6873 -0.2446
  561MOL0     C75602   1.954   3.162   6.492  0.1987  0.2463  0.2167
  561MOL0     O75603   1.919   3.093   6.372 -0.2171 -0.4988 -0.4427
  561MOL0     C75604   1.788   3.077   6.334  0.0921 -0.3013 -0.9132
  561MOL0     C75605   1.672   3.086   6.409  0.6635 -0.3521  1.0641
  561MOL0     C75606   1.548   3.036   6.365  0.5883 -0.7404 -0.6078
  561MOL0     C75607   1.550   2.977   6.239 -0.6733  0.5213 -1.0766
  561MOL0     O75608   1.432   2.926   6.210 -0.1325 -0.1081  0.6607
  561MOL0     C75609   1.368   2.973   6.078  0.5057 -0.2644 -0.2459
  561MOL0     C75610   1.249   3.071   6.110 -0.5225  0.1664  0.2504
  561MOL0     C75611   1.131   2.991   6.163  0.7595 -0.2712  0.1632
  561MOL0     C75612   1.003   3.082   6.130  0.1003 -0.0130  0.0265
  561MOL0     C75613   0.885   3.030   6.208  0.5103 -0.4282  0.0698
  561MOL0     C75614   0.839   2.891   6.170 -0.0119  1.4163  0.2867
  561MOL0     C75615   0.811   2.867   6.020  0.4679  0.2358 -0.0436
  561MOL0     C75616   0.742   2.734   5.995  0.3108  0.2533  0.0564
  561MOL0     N75617   0.742   2.697   5.854 -0.5739 -0.5368  0.5266
  561MOL0     C75618   0.852   2.660   5.775  0.5568 -0.0963  0.3480
  561MOL0     C75619   0.795   2.631   5.655 -0.1312 -0.3640 -0.5552
  561MOL0     C75620   0.870   2.584   5.535 -0.0616  0.1855  0.4325
  561MOL0     C75621   0.888   2.435   5.536 -0.2627 -0.2164  0.6562
  561MOL0     C75622   0.755   2.354   5.523 -0.6549 -0.9326  0.0545
  561MOL0     C75623   0.783   2.208   5.513  0.1256 -0.2385 -0.3157
  561MOL0     O75624   0.797   2.156   5.641  0.0898 -0.3321  0.5216
  561MOL0     C75625   0.834   2.025   5.658 -0.1388 -0.7616  0.1578
  561MOL0     C75626   0.850   1.933   5.563  0.4520  0.4547  1.0826
  561MOL0     C75627   0.883   1.792   5.592  0.8542  0.1038  0.3999
  561MOL0     C75628   0.902   1.704   5.468  0.0400 -0.4092 -0.4057
  561MOL0     C75629   0.890   1.750   5.726 -0.4936  0.0412 -0.5914
  561MOL0     C75630   0.913   1.616   5.778 -0.3063  0.7321  0.4616
  561MOL0     O75631   0.873   1.580   5.894  0.8355  0.8239  0.4816
  561MOL0     C75632   0.912   1.462   5.959 -0.7915 -0.3129  0.4776
  561MOL0     C75633   0.864   1.333   5.926  0.4711  0.2447  0.6492
  561MOL0     C75634   0.911   1.219   6.004  1.0610 -0.5182 -0.3995
  561MOL0     C75635   0.992   1.238   6.115  0.9221 -0.5828 -0.2557
  561MOL0     O75636   1.035   1.143   6.199 -0.3322  0.9216 -0.1914
  561MOL0     C75637   0.978   1.010   6.177  0.0641 -0.3905 -0.6350
  561MOL0     C75638   1.064   0.910   6.260  0.7943 -0.5544 -0.1697
  561MOL0     C75639   1.040   0.754   6.223  0.3736  0.2343 -0.1680
  561MOL0     C75640   0.899   0.714   6.278  1.0650 -0.1887  0.5159
  561MOL0     C75641   0.796   0.712   6.165  0.3267 -1.0898 -0.3709
  561MOL0     C75642   0.664   0.658   6.221  0.3196 -0.3116  0.2683
  561MOL0     C75643   0.657   0.509   6.266  0.1834  0.2399  0.1762
  561MOL0     C75644   0.523   0.470   6.330 -0.6006  0.7816 -0.8265
  561MOL0    Cl75645   0.492   0.555   6.485  0.0499  0.0730  0.2777
  561MOL0     C75646   1.031   1.366   6.149 -0.2017 -0.0773 -0.4345
  561MOL0     C75647   0.991   1.474   6.075  0.5539 -0.9396 -0.8191
  561MOL0     O75648   0.976   1.547   5.698  0.1528  0.2233 -0.5702
  561MOL0     C75649   0.889   1.846   5.824  0.1799  0.0181  0.3579
  561MOL0     C75650   0.867   1.988   5.790  0.8375 -0.6026  0.4719
  561MOL0     N75651   0.657   2.646   5.664  0.3845 -0.0801  0.3757
  561MOL0     N75652   0.623   2.696   5.779  0.2340 -0.1974  0.0483
  561MOL0     C75653   1.656   2.984   6.159 -0.2483  0.2560  0.3315
  561MOL0     C75654   1.776   3.016   6.207  0.7066  0.5518 -0.7687
  561MOL0     C75655   2.086   3.228   6.500 -0.7907 -0.5368 -0.7266
  561MOL0     C75656   2.135   3.314   6.395 -0.3681  0.0635 -0.3494
  561MOL0     C75657   2.259   3.376   6.416  0.3435  0.4584  1.1892
  561MOL0     C75658   2.331   3.363   6.536  0.0489  0.7105  0.9375
  561MOL0     O75659   2.444   3.422   6.566  0.6185 -0.0977  0.7571
  561MOL0     C75660   2.454   3.564   6.553  0.0413  0.0021  0.4550
  561MOL0     C75661   2.353   3.626   6.639  0.3609 -0.8576  0.6581
  561MOL0     C75662   2.373   3.780   6.639 -0.3417 -0.4929  0.1448
  561MOL0     C75663   2.233   3.833   6.676  0.1716 -0.4214  0.8401
  561MOL0     C75664   2.192   3.821   6.813  0.4460  0.5716  0.1816
  561MOL0     C75665   2.166   3.814   6.932  0.3593 -0.6367  0.0785
  561MOL0     C75666   2.281   3.272   6.637  0.3440 -0.5079  0.5078
  561MOL0     C75667   2.161   3.202   6.610  0.4429 -0.6066  0.0223
  561MOL0     H75668   1.669   3.130   6.509 -2.5830  1.7292  0.2122
  561MOL0     H75669   1.454   3.040   6.419  1.0051  4.6188  0.2508
  561MOL0     H75670   1.451   3.023   6.027  1.8792 -0.1571  1.9260
  561MOL0     H75671   1.340   2.884   6.022 -0.7354 -0.2148  0.2642
  561MOL0     H75672   1.279   3.150   6.181 -0.4294 -0.2335  0.6643
  561MOL0     H75673   1.234   3.124   6.016  2.6352 -2.4703 -1.9759
  561MOL0     H75674   1.133   2.892   6.116  0.2270 -1.4595  2.5174
  561MOL0     H75675   1.135   2.977   6.271 -0.7300  1.2895  0.4592
  561MOL0     H75676   1.023   3.186   6.159 -1.9060  0.4285  0.0033
  561MOL0     H75677   0.976   3.082   6.024  0.3260  1.7049 -0.0575
  561MOL0     H75678   0.892   3.034   6.317 -0.6151  0.3203  0.1366
  561MOL0     H75679   0.803   3.096   6.177  1.6603  1.1067  0.1976
  561MOL0     H75680   0.908   2.807   6.181 -1.8298 -0.1831 -0.0313
  561MOL0     H75681   0.752   2.858   6.228  2.2497 -1.2780  2.4199
  561MOL0     H75682   0.748   2.944   5.975  1.6701 -0.3959 -3.0429
  561MOL0     H75683   0.905   2.871   5.963  0.9039 -2.6762  0.3124
  561MOL0     H75684   0.642   2.741   6.037  0.4487  0.9293  0.2725
  561MOL0     H75685   0.795   2.657   6.052  0.9314  3.2111  3.8254
  561MOL0     H75686   0.956   2.650   5.804  2.2373 -1.6603 -5.0648
  561MOL0     H75687   0.804   2.609   5.451  1.3719 -1.5198 -1.2767
  561MOL0     H75688   0.960   2.645   5.527 -0.7615  1.3688  1.3129
  561MOL0     H75689   0.937   2.415   5.631 -0.0425  2.0363  1.0752
  561MOL0     H75690   0.953   2.419   5.450 -1.2442 -0.8027 -0.0068
  561MOL0     H75691   0.707   2.374   5.426 -1.4368 -2.5807  0.0713
  561MOL0     H75692   0.687   2.382   5.605 -3.2502 -0.5184 -2.0868
  561MOL0     H75693   0.872   2.199   5.450 -0.0807  1.3032 -0.8722
  561MOL0     H75694   0.710   2.165   5.444 -1.1703  0.7388  0.4125
  561MOL0     H75695   0.824   1.951   5.460 -2.5940 -2.7122  1.0929
  561MOL0     H75696   1.005   1.669   5.454  0.3041  0.3344 -0.3486
  561MOL0     H75697   0.844   1.612   5.482  2.1277 -1.3108  4.0475
  561MOL0     H75698   0.873   1.755   5.375 -2.4004 -3.0136 -1.2292
  561MOL0     H75699   0.796   1.322   5.842 -0.1177 -2.9957  1.3885
  561MOL0     H75700   0.876   1.121   5.973  0.5456 -0.0892 -1.2182
  561MOL0     H75701   0.871   1.009   6.199 -0.2484 -0.4337 -2.0411
  561MOL0     H75702   0.994   0.984   6.072  2.1226  1.2723 -0.8093
  561MOL0     H75703   1.169   0.927   6.234  0.6521  0.3539 -0.1535
  561MOL0     H75704   1.059   0.924   6.368 -0.5701 -1.3342 -0.1130
  561MOL0     H75705   1.106   0.689   6.282  0.4968  2.2066  2.0122
  561MOL0     H75706   1.055   0.720   6.120  1.1885 -1.1173  0.3726
  561MOL0     H75707   0.913   0.611   6.311  0.7016  0.2042  1.9735
  561MOL0     H75708   0.861   0.765   6.367  0.7546 -1.2974  1.0348
  561MOL0     H75709   0.835   0.668   6.073 -0.2096 -0.9024 -0.6944
  561MOL0     H75710   0.769   0.813   6.133 -1.0894 -1.3550 -0.0896
  561MOL0     H75711   0.653   0.720   6.311  4.1343  0.2744  0.5067
  561MOL0     H75712   0.579   0.670   6.154 -1.3362  1.2999  2.4861
  561MOL0     H75713   0.748   0.480   6.319  0.8691 -0.7498 -1.4685
  561MOL0     H75714   0.661   0.449   6.174 -0.5256 -0.8363  0.8254
  561MOL0     H75715   0.530   0.362   6.345  1.3765  0.6349 -2.2953
  561MOL0     H75716   0.446   0.495   6.257 -0.3767  0.4877 -1.1671
  561MOL0     H75717   1.079   1.370   6.246 -0.3364  0.5564 -0.3884
  561MOL0     H75718   1.032   1.573   6.094 -0.9365  0.4121 -3.8583
  561MOL0     H75719   0.935   1.833   5.921  0.3511  0.4760  0.3399
  561MOL0     H75720   0.873   2.063   5.868 -1.5119  0.1270  0.0221
  561MOL0     H75721   1.655   2.949   6.056  1.7334  4.2378 -1.2486
  561MOL0     H75722   1.864   3.010   6.144  1.8066  1.3141  0.6381
  561MOL0     H75723   2.084   3.334   6.301 -1.0524 -0.1759 -0.0361
  561MOL0     H75724   2.310   3.436   6.341 -0.7982  0.1924  0.1624
  561MOL0     H75725   2.552   3.579   6.598  1.6884 -3.0601 -1.6617
  561MOL0     H75726   2.438   3.603   6.452 -0.8819  0.7032  0.8687
  561MOL0     H75727   2.351   3.586   6.741  1.4627 -1.7830  0.3427
  561MOL0     H75728   2.257   3.611   6.587  0.2899  1.4589  0.0082
  561MOL0     H75729   2.406   3.818   6.542  1.0585 -0.4488  0.6138
  561MOL0     H75730   2.454   3.804   6.708  2.2162 -1.2186 -2.3877
  561MOL0     H75731   2.156   3.802   6.606  0.1211 -5.9483  2.8349
  561MOL0     H75732   2.243   3.941   6.659 -0.4112 -0.7192 -1.7729
  561MOL0     H75733   2.147   3.809   7.037  4.6722  1.8239  1.2048
  561MOL0     H75734   2.333   3.254   6.730  3.2337 -0.5468 -1.0042
  561MOL0     H75735   2.133   3.130   6.686  0.1478  0.0031  0.5002
  562MOL0     O75736   7.168   7.831   2.682  0.1975  0.0775  0.4116
  562MOL0     C75737   7.067   7.759   2.663 -0.2700 -0.4672  0.1625
  562MOL0     O75738   6.962   7.743   2.747  0.2978 -0.4990 -0.0443
  562MOL0     C75739   6.978   7.762   2.876 -0.0895  0.4507  0.0279
  562MOL0     C75740   7.039   7.877   2.937 -0.2160  0.1473 -0.3562
  562MOL0     C75741   7.021   7.900   3.072 -0.2635 -0.2857 -0.2162
  562MOL0     C75742   6.972   7.800   3.160  0.2135 -0.3853  0.1053
  562MOL0     O75743   6.977   7.826   3.293  0.0982  0.1456 -0.4673
  562MOL0     C75744   6.942   7.742   3.406  0.0136  0.6770  0.5121
  562MOL0     C75745   6.790   7.738   3.427 -0.7584 -0.1669 -0.4355
  562MOL0     C75746   6.758   7.606   3.504 -1.2158 -0.2772  0.0116
  562MOL0     C75747   6.607   7.604   3.509  0.0396 -0.5329  0.3950
  562MOL0     C75748   6.543   7.466   3.533  0.1925  0.0492 -0.6674
  562MOL0     C75749   6.627   7.358   3.599  0.0258  0.1885 -0.2871
  562MOL0     C75750   6.539   7.237   3.639  0.0962 -0.4342  0.5672
  562MOL0     C75751   6.613   7.145   3.740  0.4877 -0.5847  0.6391
  562MOL0     N75752   6.625   7.179   3.884  0.1871  0.3979  0.2669
  562MOL0     C75753   6.519   7.213   3.967  0.6106  0.3708  0.6159
  562MOL0     C75754   6.568   7.231   4.093 -0.1762  0.5170  1.6025
  562MOL0     C75755   6.484   7.268   4.206 -0.2440 -0.6069  0.6336
  562MOL0     C75756   6.486   7.162   4.321  1.2749  0.0179 -0.2535
  562MOL0     C75757   6.393   7.192   4.442 -0.7294  0.7080 -0.2048
  562MOL0     C75758   6.246   7.219   4.399  0.1382 -0.2645  0.5800
  562MOL0     O75759   6.196   7.116   4.307 -0.6760 -0.1696 -0.6695
  562MOL0     C75760   6.060   7.130   4.268 -0.1479 -0.3526  1.1094
  562MOL0     C75761   5.973   7.238   4.306 -0.0834 -0.3910 -0.4155
  562MOL0     C75762   5.842   7.246   4.267 -0.1527  0.4596  0.1619
  562MOL0     C75763   5.746   7.355   4.293  1.2867 -0.0032 -0.3616
  562MOL0     C75764   5.793   7.134   4.198 -0.2903 -0.8718  0.2118
  562MOL0     C75765   5.658   7.136   4.139 -0.4159 -0.0388  0.4076
  562MOL0     O75766   5.533   7.122   4.217  0.0898  0.4943  0.6850
  562MOL0     C75767   5.419   7.164   4.155  0.2214 -0.6616  1.1803
  562MOL0     C75768   5.401   7.298   4.109 -0.3209  0.3664 -0.1891
  562MOL0     C75769   5.274   7.362   4.102  0.1623 -0.1638  0.8344
  562MOL0     C75770   5.153   7.294   4.132  0.0276 -0.7260  0.5318
  562MOL0     O75771   5.037   7.375   4.118 -0.0516  0.1692 -0.3766
  562MOL0     C75772   4.918   7.308   4.086  1.3010  0.1877  0.1929
  562MOL0     C75773   4.811   7.311   4.205 -0.3358  0.4704  0.1228
  562MOL0     C75774   4.675   7.247   4.162 -0.1891  0.5958 -0.5269
  562MOL0     C75775   4.572   7.243   4.283 -0.2244 -0.5040 -0.3303
  562MOL0     C75776   4.449   7.152   4.241  0.0323  0.4572  0.7896
  562MOL0     C75777   4.340   7.159   4.344  0.2801  0.0307  0.1315
  562MOL0     C75778   4.227   7.074   4.296  0.0352 -1.4073  0.3728
  562MOL0     C75779   4.101   7.080   4.394  0.0669  0.1466 -0.2148
  562MOL0    Cl75780   4.141   7.038   4.564  0.3597  0.1333 -0.5540
  562MOL0     C75781   5.175   7.159   4.160 -0.3813  0.1191 -0.7796
  562MOL0     C75782   5.301   7.092   4.175  0.5131 -0.7102  0.1675
  562MOL0     O75783   5.668   7.145   4.011  0.2174  0.3383  0.3227
  562MOL0     C75784   5.868   7.018   4.169  0.4892 -0.7684  0.1582
  562MOL0     C75785   6.001   7.016   4.205 -0.7564  0.4494 -0.2075
  562MOL0     N75786   6.709   7.196   4.081 -0.0781 -0.2982 -0.2187
  562MOL0     N75787   6.743   7.175   3.956 -0.0237 -0.1370  1.5192
  562MOL0     C75788   6.921   7.677   3.104  0.5104 -0.6450 -0.4447
  562MOL0     C75789   6.919   7.664   2.963  0.0632  0.3710 -0.3864
  562MOL0     C75790   7.051   7.698   2.531  0.8974  0.2820 -0.2700
  562MOL0     C75791   6.960   7.590   2.504 -0.2880  0.5389  0.1022
  562MOL0     C75792   6.965   7.528   2.377  0.4241 -0.3189 -0.1778
  562MOL0     C75793   7.048   7.561   2.268 -0.3370 -0.2375  0.9548
  562MOL0     O75794   7.022   7.511   2.139 -0.6419 -0.1628  0.0941
  562MOL0     C75795   7.122   7.569   2.045  0.5160  0.9345 -0.6590
  562MOL0     C75796   7.078   7.513   1.904  0.4084 -0.2759  0.2261
  562MOL0     C75797   7.143   7.592   1.794  0.1116 -0.3800 -0.3136
  562MOL0     C75798   7.096   7.536   1.659 -0.2339  0.1422 -0.2235
  562MOL0     C75799   7.148   7.601   1.537  0.3301  0.0380  0.2760
  562MOL0     C75800   7.188   7.637   1.428  0.0961 -0.1807  0.4839
  562MOL0     C75801   7.152   7.650   2.306 -0.3121  0.8491  0.5906
  562MOL0     C75802   7.148   7.717   2.434 -0.8557  0.1309  0.9399
  562MOL0     H75803   7.095   7.953   2.883  0.9188 -0.5967 -0.2534
  562MOL0     H75804   7.062   7.993   3.111 -2.9569  2.1079 -2.6548
  562MOL0     H75805   6.981   7.641   3.394  2.6331  1.5143  1.2975
  562MOL0     H75806   6.980   7.783   3.500 -1.8356 -0.6242  1.8993
  562MOL0     H75807   6.766   7.824   3.489  1.3528  0.9212 -1.0499
  562MOL0     H75808   6.737   7.740   3.331 -0.4804 -2.0210 -0.6717
  562MOL0     H75809   6.803   7.526   3.443 -0.3319  0.5439 -0.4518
  562MOL0     H75810   6.806   7.590   3.601 -0.3021  0.0853 -0.3601
  562MOL0     H75811   6.569   7.673   3.586  1.5516  2.4446 -1.3661
  562MOL0     H75812   6.572   7.646   3.415  2.7534  2.3324  0.5180
  562MOL0     H75813   6.448   7.481   3.585 -0.4889 -2.5094 -1.0728
  562MOL0     H75814   6.508   7.439   3.433  2.3456  1.2313 -1.8116
  562MOL0     H75815   6.712   7.329   3.537  0.7829  0.2053  0.7193
  562MOL0     H75816   6.670   7.402   3.689 -0.9974  2.6206 -0.9108
  562MOL0     H75817   6.449   7.276   3.687 -1.1758 -0.6150 -1.5557
  562MOL0     H75818   6.511   7.171   3.556 -1.3326  1.3163 -0.3872
  562MOL0     H75819   6.717   7.130   3.710  0.1603 -2.0487  0.1519
  562MOL0     H75820   6.559   7.050   3.741 -0.5633 -0.0092  1.5410
  562MOL0     H75821   6.416   7.230   3.938  0.8962  3.8209  1.1297
  562MOL0     H75822   6.513   7.366   4.245  1.1193 -0.5383 -0.4792
  562MOL0     H75823   6.382   7.283   4.169  0.9277 -0.4142 -2.9146
  562MOL0     H75824   6.590   7.152   4.354  1.3082  4.0302  1.4047
  562MOL0     H75825   6.454   7.067   4.278  0.9844 -0.3730  0.7925
  562MOL0     H75826   6.436   7.269   4.506  1.4784 -0.9344  0.4034
  562MOL0     H75827   6.408   7.106   4.508  1.6957 -0.0421 -1.6185
  562MOL0     H75828   6.243   7.320   4.357  1.1307  0.9914  3.2703
  562MOL0     H75829   6.182   7.236   4.485  0.6738  0.0434  0.9286
  562MOL0     H75830   6.012   7.326   4.355 -0.1058 -0.5275 -0.1481
  562MOL0     H75831   5.745   7.431   4.214 -1.0670  0.4874  0.0671
  562MOL0     H75832   5.644   7.320   4.304  1.4589 -0.6677 -0.8361
  562MOL0     H75833   5.764   7.415   4.383  1.9692  0.9354 -1.0914
  562MOL0     H75834   5.488   7.364   4.111 -0.5882  0.7081  1.1594
  562MOL0     H75835   5.261   7.469   4.087 -3.9876 -0.1359  3.2027
  562MOL0     H75836   4.870   7.371   4.010  0.8632 -0.4658 -0.0754
  562MOL0     H75837   4.934   7.208   4.045 -1.7987 -0.0814 -0.5550
  562MOL0     H75838   4.854   7.271   4.297 -2.4029  1.4332  1.5956
  562MOL0     H75839   4.785   7.414   4.231  1.6850  1.3109 -0.9394
  562MOL0     H75840   4.689   7.145   4.123 -3.8647 -1.4686  2.7835
  562MOL0     H75841   4.632   7.305   4.080 -0.2901  3.1263  1.1976
  562MOL0     H75842   4.626   7.194   4.364  1.8072  0.9335 -0.7456
  562MOL0     H75843   4.545   7.342   4.320 -2.6174 -0.5126 -1.8120
  562MOL0     H75844   4.489   7.050   4.232  0.3666  0.5428  1.2767
  562MOL0     H75845   4.416   7.193   4.145 -1.6182 -0.2934  1.0011
  562MOL0     H75846   4.379   7.117   4.437  1.5553  1.2728  0.1874
  562MOL0     H75847   4.303   7.258   4.374 -1.0917 -0.7344  1.0502
  562MOL0     H75848   4.260   6.971   4.278 -0.6281 -1.3558 -1.3439
  562MOL0     H75849   4.191   7.107   4.198 -0.6973  0.0805  1.1124
  562MOL0     H75850   4.030   7.004   4.362  1.5770 -0.5609 -2.0773
  562MOL0     H75851   4.056   7.180   4.390  0.6438  0.5171  1.5185
  562MOL0     H75852   5.099   7.085   4.183  0.0256 -0.3653 -0.9523
  562MOL0     H75853   5.304   6.991   4.215 -0.7759 -0.7123  0.3226
  562MOL0     H75854   5.825   6.935   4.114 -0.9414 -1.3881  2.0717
  562MOL0     H75855   6.070   6.939   4.171  0.7781  1.9113 -0.5133
  562MOL0     H75856   6.886   7.595   3.166 -1.6662 -1.0015 -2.0358
  562MOL0     H75857   6.864   7.579   2.925  2.0488 -1.5230  0.7324
  562MOL0     H75858   6.895   7.550   2.582  1.3443 -0.0998  1.1926
  562MOL0     H75859   6.886   7.454   2.362 -0.2776  0.2485  0.6037
  562MOL0     H75860   7.130   7.678   2.044  1.7921  0.9235  1.4563
  562MOL0     H75861   7.214   7.514   2.066 -1.1356 -1.5792  0.4740
  562MOL0     H75862   6.971   7.530   1.886  0.7652  0.6924 -1.2605
  562MOL0     H75863   7.093   7.405   1.895 -0.1288 -0.6647  3.1603
  562MOL0     H75864   7.252   7.586   1.793  0.7647  4.4627  3.4259
  562MOL0     H75865   7.107   7.693   1.815 -1.1194 -1.1510  1.6150
  562MOL0     H75866   6.988   7.534   1.644 -0.3622  3.5842 -0.5698
  562MOL0     H75867   7.126   7.432   1.672 -1.0448 -0.0018  0.5413
  562MOL0     H75868   7.228   7.670   1.334  0.8863 -1.6314  0.2820
  562MOL0     H75869   7.235   7.664   2.237 -1.9694  1.0137 -1.4412
  562MOL0     H75870   7.227   7.791   2.448  0.0575 -0.2240 -1.6708
  563MOL0     O75871   0.101   7.652   0.882  0.0605 -0.4385  0.4702
  563MOL0     C75872   0.118   7.761   0.820  0.5121 -0.0303  0.9177
  563MOL0     O75873   0.022   7.828   0.759 -0.4835  0.5603  0.1529
  563MOL0     C75874  -0.092   7.760   0.709  0.0312 -0.5350  0.6148
  563MOL0     C75875  -0.187   7.843   0.658  0.3035 -0.3933 -0.0137
  563MOL0     C75876  -0.306   7.791   0.595  0.3438 -0.7713  1.2599
  563MOL0     C75877  -0.317   7.656   0.570  0.5806  0.0336  0.1282
  563MOL0     O75878  -0.421   7.605   0.496  0.0004 -0.3047  0.0040
  563MOL0     C75879  -0.451   7.666   0.365  0.7269  0.0924  0.1909
  563MOL0     C75880  -0.359   7.601   0.262  0.5232 -0.0857  0.0329
  563MOL0     C75881  -0.388   7.636   0.122 -0.0054  0.3088 -0.6190
  563MOL0     C75882  -0.336   7.787   0.104 -0.1252  0.6589 -0.1157
  563MOL0     C75883  -0.292   7.799  -0.034  0.4863  0.1750  0.6944
  563MOL0     C75884  -0.205   7.925  -0.041 -0.3081 -0.2499 -0.1394
  563MOL0     C75885  -0.202   7.963  -0.186 -1.7378  0.2663 -0.3704
  563MOL0     C75886  -0.114   8.088  -0.215 -0.1525  0.4393  0.2773
  563MOL0     N75887  -0.131   8.119  -0.355 -0.1976  0.3115  0.1099
  563MOL0     C75888  -0.240   8.161  -0.425 -0.7276  0.2011 -0.1573
  563MOL0     C75889  -0.209   8.155  -0.554 -0.0068  0.1393 -0.0081
  563MOL0     C75890  -0.291   8.204  -0.674 -0.7801  1.5322 -1.4658
  563MOL0     C75891  -0.378   8.324  -0.656 -0.8993 -0.4705  1.0183
  563MOL0     C75892  -0.306   8.453  -0.658  0.0544  0.2894 -0.2788
  563MOL0     C75893  -0.398   8.570  -0.604 -0.3748  0.6089  0.0387
  563MOL0     O75894  -0.448   8.534  -0.471 -0.6133  0.0023 -0.1293
  563MOL0     C75895  -0.575   8.584  -0.441 -0.2300 -0.2576 -0.5464
  563MOL0     C75896  -0.638   8.520  -0.330 -0.9241 -0.4064 -1.3798
  563MOL0     C75897  -0.760   8.559  -0.290  0.2517  0.0302  0.5260
  563MOL0     C75898  -0.817   8.485  -0.172 -0.4893 -0.1375  0.4083
  563MOL0     C75899  -0.834   8.657  -0.357  0.4038 -0.0577  0.1090
  563MOL0     C75900  -0.972   8.708  -0.313  0.6746  0.3947  0.4979
  563MOL0     O75901  -1.013   8.822  -0.359  0.1881 -0.1626  0.9611
  563MOL0     C75902  -1.136   8.883  -0.334  1.4558 -0.0713 -0.1476
  563MOL0     C75903  -1.258   8.805  -0.340  0.9015 -0.1522  0.7688
  563MOL0     C75904  -1.381   8.862  -0.309  0.8077 -0.4759  0.5348
  563MOL0     C75905  -1.385   8.983  -0.238  0.1690 -0.2767 -0.4888
  563MOL0     O75906  -1.502   9.035  -0.195  0.1093 -0.0809 -0.2702
  563MOL0     C75907  -1.620   8.952  -0.183 -0.1756 -0.8684  0.4971
  563MOL0     C75908  -1.734   9.044  -0.127  0.5064  0.2015  0.2134
  563MOL0     C75909  -1.768   9.176  -0.197 -0.5342 -0.7416 -0.6581
  563MOL0     C75910  -1.850   9.277  -0.123 -0.2990  0.0696  0.4442
  563MOL0     C75911  -1.990   9.225  -0.080  1.1662  0.0740  0.1577
  563MOL0     C75912  -2.092   9.342  -0.047 -0.2792 -0.3365  0.6621
  563MOL0     C75913  -2.047   9.409   0.089 -0.7465 -0.4347  1.9767
  563MOL0     C75914  -2.158   9.492   0.153 -0.7817 -0.2667 -0.4696
  563MOL0    Cl75915  -2.281   9.375   0.215  0.0595  0.3604 -0.2808
  563MOL0     C75916  -1.267   9.055  -0.227  0.0345 -0.3159 -0.3768
  563MOL0     C75917  -1.142   9.004  -0.275  0.0240  0.4075 -0.3577
  563MOL0     O75918  -1.041   8.638  -0.242 -0.1690 -0.2280 -0.7711
  563MOL0     C75919  -0.765   8.730  -0.455  0.2730  0.9523  0.6648
  563MOL0     C75920  -0.635   8.698  -0.501 -0.0976 -0.8697 -0.5059
  563MOL0     N75921  -0.085   8.102  -0.555 -1.6621  0.4662 -0.4090
  563MOL0     N75922  -0.026   8.096  -0.443 -0.1143  0.3253  0.6014
  563MOL0     C75923  -0.222   7.571   0.628  0.0717  0.3702  0.1583
  563MOL0     C75924  -0.109   7.620   0.699 -0.6728 -0.2944  0.0519
  563MOL0     C75925   0.242   7.831   0.812 -0.0847 -0.8704  0.4532
  563MOL0     C75926   0.256   7.960   0.750 -0.3378 -0.6819 -1.2587
  563MOL0     C75927   0.380   8.011   0.727 -0.0751  0.7531  0.9727
  563MOL0     C75928   0.501   7.961   0.773 -0.2007  0.1573  0.1092
  563MOL0     O75929   0.618   8.022   0.734 -0.1566  0.1407 -0.1044
  563MOL0     C75930   0.705   8.036   0.845 -0.1517  0.1285 -0.2120
  563MOL0     C75931   0.721   8.183   0.857 -0.2660  0.1761  0.3277
  563MOL0     C75932   0.781   8.247   0.731 -0.1681  0.0816 -0.0148
  563MOL0     C75933   0.685   8.354   0.677  0.7147  0.3183  0.3830
  563MOL0     C75934   0.702   8.382   0.533 -0.2781  0.2602 -0.5736
  563MOL0     C75935   0.710   8.407   0.418 -0.3057  0.3123  0.6317
  563MOL0     C75936   0.493   7.835   0.829  0.2294  0.2644 -0.3535
  563MOL0     C75937   0.369   7.772   0.857  0.4247  0.4179 -0.7572
  563MOL0     H75938  -0.169   7.949   0.673  0.6610 -0.7389  2.2629
  563MOL0     H75939  -0.379   7.856   0.548  1.5435  1.2591  2.0789
  563MOL0     H75940  -0.553   7.642   0.332  1.0127  0.3144 -0.8752
  563MOL0     H75941  -0.438   7.775   0.376  0.3697 -0.0088  2.0586
  563MOL0     H75942  -0.259   7.633   0.292 -0.1541 -0.0289  2.4496
  563MOL0     H75943  -0.358   7.493   0.279 -0.6057 -0.0606  0.3354
  563MOL0     H75944  -0.328   7.567   0.063  1.4180 -1.3956  2.5645
  563MOL0     H75945  -0.490   7.619   0.085  0.8725 -2.1707 -2.0913
  563MOL0     H75946  -0.409   7.865   0.127  0.0696  1.2082 -1.2645
  563MOL0     H75947  -0.245   7.809   0.160 -0.6684  3.6670 -0.2151
  563MOL0     H75948  -0.232   7.711  -0.061 -1.1604 -0.5369 -0.8598
  563MOL0     H75949  -0.379   7.794  -0.100 -0.3270 -0.3794  1.7765
  563MOL0     H75950  -0.237   8.007   0.024  4.6432  1.8276  0.1473
  563MOL0     H75951  -0.108   7.902   0.006 -1.0909 -0.4075  1.4983
  563MOL0     H75952  -0.166   7.886  -0.255 -1.8135 -0.3253  0.2451
  563MOL0     H75953  -0.306   7.971  -0.222 -2.1795  1.9898  1.1610
  563MOL0     H75954  -0.009   8.058  -0.209  0.1907  0.7484 -2.6984
  563MOL0     H75955  -0.138   8.167  -0.143 -0.6440 -1.3204  2.1474
  563MOL0     H75956  -0.335   8.190  -0.381 -0.0672  0.7402  0.9565
  563MOL0     H75957  -0.219   8.216  -0.756 -0.6007 -1.2894 -1.8201
  563MOL0     H75958  -0.361   8.126  -0.706 -0.6487  0.3502  0.9056
  563MOL0     H75959  -0.436   8.314  -0.563  0.1847 -0.9028  1.6683
  563MOL0     H75960  -0.442   8.329  -0.744 -0.6807 -1.2908  0.8042
  563MOL0     H75961  -0.272   8.461  -0.762 -3.4176 -1.2657 -1.6629
  563MOL0     H75962  -0.222   8.440  -0.588 -0.0209  0.7707 -0.0939
  563MOL0     H75963  -0.479   8.589  -0.676 -1.0953  0.0380  0.6767
  563MOL0     H75964  -0.337   8.658  -0.582  0.0402  1.0188 -2.4356
  563MOL0     H75965  -0.585   8.450  -0.266 -2.4341  0.0362  0.4460
  563MOL0     H75966  -0.845   8.541  -0.083 -0.7309  1.0713 -0.4108
  563MOL0     H75967  -0.903   8.429  -0.211 -0.5776 -1.0261  1.8151
  563MOL0     H75968  -0.743   8.417  -0.129 -2.4910 -2.2858  0.6423
  563MOL0     H75969  -1.262   8.700  -0.370 -3.5930  0.8443 -3.4275
  563MOL0     H75970  -1.468   8.802  -0.332  0.5516  0.0501  0.1061
  563MOL0     H75971  -1.640   8.924  -0.287  3.8356 -2.4181 -0.0796
  563MOL0     H75972  -1.602   8.865  -0.118 -1.0913 -0.9225  0.6837
  563MOL0     H75973  -1.828   8.988  -0.123  0.6163 -0.2735 -2.2380
  563MOL0     H75974  -1.709   9.076  -0.025 -0.1661 -1.6176  0.9844
  563MOL0     H75975  -1.829   9.149  -0.284  0.5233  1.0317 -2.0219
  563MOL0     H75976  -1.676   9.222  -0.233 -0.4749  0.1760  0.5798
  563MOL0     H75977  -1.792   9.308  -0.036  2.1462 -0.3632 -0.9605
  563MOL0     H75978  -1.863   9.365  -0.187 -0.7401 -0.9057 -0.8403
  563MOL0     H75979  -1.984   9.146  -0.004  1.5769 -0.3671 -0.3313
  563MOL0     H75980  -2.033   9.177  -0.168  0.0179  0.4357  0.4996
  563MOL0     H75981  -2.081   9.418  -0.124  1.2588  0.1183  1.2842
  563MOL0     H75982  -2.196   9.309  -0.042 -0.2131 -0.8185 -0.7367
  563MOL0     H75983  -1.954   9.467   0.080 -1.2380  0.3698  1.9739
  563MOL0     H75984  -2.022   9.319   0.147 -1.9260 -1.3304  1.1422
  563MOL0     H75985  -2.216   9.563   0.092  0.6459  0.6011 -0.8624
  563MOL0     H75986  -2.118   9.556   0.232  1.5201  0.9112 -2.4469
  563MOL0     H75987  -1.261   9.160  -0.199  0.1330 -0.0641 -1.3021
  563MOL0     H75988  -1.046   9.056  -0.273 -0.2505  0.9724 -1.1440
  563MOL0     H75989  -0.823   8.794  -0.520 -0.9618 -1.9352 -1.2757
  563MOL0     H75990  -0.601   8.765  -0.579 -1.4333  2.2649  1.4482
  563MOL0     H75991  -0.240   7.464   0.624  0.4756  0.1931  2.0836
  563MOL0     H75992  -0.038   7.544   0.730  1.5370  1.7988  0.5151
  563MOL0     H75993   0.169   7.997   0.696  0.6678  0.7914 -1.9139
  563MOL0     H75994   0.394   8.092   0.656 -0.4437  0.2152  0.2764
  563MOL0     H75995   0.682   7.998   0.945  0.0028  3.5166  1.2430
  563MOL0     H75996   0.806   7.999   0.824  0.0567  0.7080 -0.2373
  563MOL0     H75997   0.797   8.198   0.935 -0.9317 -0.0852  1.0498
  563MOL0     H75998   0.630   8.231   0.894 -0.5588  1.2505 -1.7017
  563MOL0     H75999   0.811   8.178   0.651 -0.3035  0.2311 -0.1948
  563MOL0     H76000   0.877   8.294   0.757 -0.2789 -0.3874  1.3130
  563MOL0     H76001   0.698   8.447   0.733 -0.4573  0.4548  0.4608
  563MOL0     H76002   0.581   8.323   0.693  0.9070  1.1000  4.0175
  563MOL0     H76003   0.721   8.428   0.313 -0.2406 -1.2325  0.3132
  563MOL0     H76004   0.583   7.775   0.836 -1.3111 -2.0539  0.8606
  563MOL0     H76005   0.376   7.671   0.895  1.1717  1.4921  2.2539
  564MOL0     O76006   5.116   7.526   3.705  0.0431  0.2538 -0.1553
  564MOL0     C76007   5.182   7.629   3.736 -0.3433  0.3780 -0.0181
  564MOL0     O76008   5.130   7.744   3.760 -0.0655  0.0368  0.2331
  564MOL0     C76009   5.002   7.766   3.795  0.7040 -0.2630  0.7949
  564MOL0     C76010   4.927   7.675   3.857  0.3519 -0.4753 -0.5831
  564MOL0     C76011   4.798   7.705   3.908  0.2055 -0.1008  0.2391
  564MOL0     C76012   4.740   7.830   3.876  0.5617  0.2978  0.1312
  564MOL0     O76013   4.604   7.844   3.912 -0.9565  0.7888  0.2165
  564MOL0     C76014   4.530   7.904   3.814  0.0246  0.4209  0.6376
  564MOL0     C76015   4.499   7.796   3.709  0.9658  0.3573  0.1176
  564MOL0     C76016   4.596   7.781   3.588 -0.3533 -0.2677  0.8651
  564MOL0     C76017   4.514   7.731   3.474 -0.1867 -0.6080  1.1145
  564MOL0     C76018   4.584   7.684   3.358 -0.4979 -0.5081  0.2573
  564MOL0     C76019   4.619   7.534   3.367  0.1141 -0.3481  0.4193
  564MOL0     C76020   4.729   7.496   3.262  0.7113  0.4259 -0.7607
  564MOL0     C76021   4.801   7.377   3.315 -0.5895  0.9031 -0.2798
  564MOL0     N76022   4.906   7.353   3.223  0.5835 -0.7623  0.3430
  564MOL0     C76023   4.881   7.299   3.100 -0.8146 -0.4091 -0.1143
  564MOL0     C76024   5.009   7.301   3.046 -0.2837  0.1345  0.4355
  564MOL0     C76025   5.048   7.253   2.904 -0.0555 -0.1640 -0.3627
  564MOL0     C76026   5.162   7.343   2.847 -0.0180  1.5556 -0.2450
  564MOL0     C76027   5.201   7.322   2.697 -0.6402  0.0240 -0.4153
  564MOL0     C76028   5.290   7.185   2.684  0.1291  0.8873 -0.2282
  564MOL0     O76029   5.290   7.132   2.549 -0.4427  0.0712  0.0878
  564MOL0     C76030   5.197   7.044   2.504  0.2974 -0.5722  0.4580
  564MOL0     C76031   5.081   7.009   2.573 -0.7119 -0.1629  0.3485
  564MOL0     C76032   4.985   6.930   2.513 -0.0968  0.2932 -0.8165
  564MOL0     C76033   4.859   6.910   2.591 -0.7482 -0.9791 -0.2873
  564MOL0     C76034   5.005   6.883   2.382  0.0270  1.0013 -0.2441
  564MOL0     C76035   4.897   6.808   2.306 -0.0393  0.1813  1.3021
  564MOL0     O76036   4.943   6.727   2.204 -0.7428 -0.2489  0.2139
  564MOL0     C76037   4.854   6.678   2.117  0.1403 -0.7072 -0.5540
  564MOL0     C76038   4.829   6.747   1.999 -0.8196  0.1982 -0.6091
  564MOL0     C76039   4.719   6.708   1.925 -1.0831 -0.1723 -0.5630
  564MOL0     C76040   4.646   6.592   1.960  0.8860 -0.7149 -0.2431
  564MOL0     O76041   4.540   6.567   1.875 -0.5785  0.0961 -0.8618
  564MOL0     C76042   4.454   6.463   1.896 -0.1653  0.7707 -0.7273
  564MOL0     C76043   4.336   6.469   1.807 -0.2462  0.3930 -0.1129
  564MOL0     C76044   4.305   6.343   1.729 -0.3216 -0.1163  0.7504
  564MOL0     C76045   4.274   6.222   1.816  0.6440  0.6798 -0.0926
  564MOL0     C76046   4.138   6.158   1.769  0.4894  0.0988 -0.3399
  564MOL0     C76047   4.056   6.102   1.889  0.1327 -0.0117  0.2995
  564MOL0     C76048   3.923   6.019   1.853 -0.4781 -0.6759  0.3273
  564MOL0     C76049   3.860   5.959   1.977 -0.3271 -0.4538  0.1604
  564MOL0    Cl76050   3.818   6.104   2.087 -0.7432  0.1663  0.2644
  564MOL0     C76051   4.668   6.533   2.084 -0.4570 -0.2952 -1.1124
  564MOL0     C76052   4.772   6.569   2.162 -0.2819  0.0545 -0.6745
  564MOL0     O76053   4.778   6.818   2.334  0.4108 -0.0045 -0.2424
  564MOL0     C76054   5.131   6.908   2.315 -0.7026  1.1274  0.1849
  564MOL0     C76055   5.217   6.996   2.376  0.2087  0.7064 -0.6359
  564MOL0     N76056   5.102   7.326   3.143  0.6135 -0.5698 -0.0987
  564MOL0     N76057   5.041   7.373   3.242 -0.0620 -0.3934  0.6646
  564MOL0     C76058   4.817   7.918   3.804  0.9848 -0.7219 -0.4015
  564MOL0     C76059   4.951   7.898   3.777  0.2084  0.7487 -0.4258
  564MOL0     C76060   5.324   7.613   3.778 -0.2515 -0.0796 -0.3476
  564MOL0     C76061   5.389   7.723   3.835 -0.1070  0.1132 -0.2435
  564MOL0     C76062   5.521   7.713   3.870 -0.5988 -1.5349  0.2738
  564MOL0     C76063   5.590   7.600   3.846 -0.1160 -0.3714 -0.0127
  564MOL0     O76064   5.729   7.596   3.883 -0.6775  0.1989 -0.2227
  564MOL0     C76065   5.804   7.470   3.886  0.4899  0.7179  0.0087
  564MOL0     C76066   5.942   7.486   3.936  0.0152 -0.2025 -0.3100
  564MOL0     C76067   6.011   7.350   3.918  0.1681  0.8077  0.2431
  564MOL0     C76068   6.134   7.337   3.989 -0.3965  0.0245 -0.7130
  564MOL0     C76069   6.238   7.420   3.916  2.0165  0.3628 -0.5487
  564MOL0     C76070   6.312   7.487   3.853  0.1815 -0.4237  0.0512
  564MOL0     C76071   5.522   7.488   3.801  0.0935 -0.1584  0.3557
  564MOL0     C76072   5.386   7.493   3.764 -0.1690 -0.5435  0.8308
  564MOL0     H76073   4.962   7.576   3.887 -0.3256 -0.4925  0.1601
  564MOL0     H76074   4.754   7.622   3.962 -1.1705 -0.2126 -0.9673
  564MOL0     H76075   4.431   7.933   3.852 -1.0883 -2.0088 -0.2577
  564MOL0     H76076   4.581   7.985   3.761  0.9356 -1.4479 -1.4872
  564MOL0     H76077   4.489   7.700   3.760  1.6564  0.1918 -0.0594
  564MOL0     H76078   4.405   7.832   3.666  2.5173  1.7191 -2.3500
  564MOL0     H76079   4.635   7.877   3.555 -0.6949 -1.1533 -2.4383
  564MOL0     H76080   4.671   7.707   3.617 -0.3340  0.2604  2.2837
  564MOL0     H76081   4.428   7.669   3.499 -1.6819 -1.1547 -4.2602
  564MOL0     H76082   4.468   7.822   3.437  1.0727 -0.8896 -1.3212
  564MOL0     H76083   4.526   7.706   3.269  2.4696 -0.2490 -1.7617
  564MOL0     H76084   4.667   7.753   3.339 -2.5953  1.5398 -2.0418
  564MOL0     H76085   4.655   7.505   3.467 -1.3160 -0.6226  0.8872
  564MOL0     H76086   4.533   7.473   3.339  0.4923 -1.3275  1.3133
  564MOL0     H76087   4.676   7.472   3.169 -0.0136 -4.4615  0.6051
  564MOL0     H76088   4.793   7.583   3.243 -1.2630  2.1958  0.3285
  564MOL0     H76089   4.729   7.295   3.323 -3.8164  3.6645  2.6023
  564MOL0     H76090   4.839   7.407   3.413 -2.2663  2.1078  0.0495
  564MOL0     H76091   4.783   7.273   3.062 -0.5517 -0.1917 -0.9386
  564MOL0     H76092   5.087   7.151   2.898  1.6032  0.4277 -0.1416
  564MOL0     H76093   4.955   7.256   2.846 -0.3721  3.4051  0.1084
  564MOL0     H76094   5.258   7.326   2.896 -0.7438  0.1665  0.7565
  564MOL0     H76095   5.130   7.447   2.850 -1.6395  1.0972 -0.8483
  564MOL0     H76096   5.260   7.404   2.655 -2.1274  1.7133  0.7121
  564MOL0     H76097   5.115   7.324   2.629 -3.1314  1.0085  2.5397
  564MOL0     H76098   5.256   7.116   2.762  0.4787  1.8819  0.8244
  564MOL0     H76099   5.395   7.201   2.710  0.5278 -2.3698  0.6691
  564MOL0     H76100   5.049   7.056   2.666  0.7455  0.8788  0.3570
  564MOL0     H76101   4.776   6.972   2.557 -3.2207 -3.7858  0.2791
  564MOL0     H76102   4.821   6.807   2.587 -0.2775 -1.1201 -1.7274
  564MOL0     H76103   4.866   6.934   2.697  1.4612  0.2427 -0.6502
  564MOL0     H76104   4.879   6.840   1.972 -0.4413  0.0085 -0.5679
  564MOL0     H76105   4.715   6.757   1.828  0.8895  0.0748 -0.5549
  564MOL0     H76106   4.511   6.369   1.889 -0.4171  0.5163  0.3528
  564MOL0     H76107   4.418   6.470   1.999 -0.5223  0.9274 -0.8609
  564MOL0     H76108   4.248   6.507   1.860  0.6453 -0.0174  1.7478
  564MOL0     H76109   4.363   6.531   1.721  0.0797 -0.6491 -0.7885
  564MOL0     H76110   4.385   6.310   1.662 -1.3380 -1.4838  0.1487
  564MOL0     H76111   4.217   6.360   1.666 -1.2705 -1.6627  1.6096
  564MOL0     H76112   4.354   6.149   1.803  1.6608  1.5779  0.8732
  564MOL0     H76113   4.267   6.245   1.923 -2.8786  0.6161 -0.1905
  564MOL0     H76114   4.158   6.076   1.699 -0.3903  0.2841 -0.8146
  564MOL0     H76115   4.073   6.228   1.716 -1.1289 -0.5234  0.7381
  564MOL0     H76116   4.123   6.037   1.946  2.6987  1.6209 -0.6426
  564MOL0     H76117   4.031   6.186   1.954  0.4189  1.4760 -1.4175
  564MOL0     H76118   3.942   5.953   1.767  0.0650 -1.0428  0.7199
  564MOL0     H76119   3.850   6.093   1.820 -1.0818 -1.4351 -0.0831
  564MOL0     H76120   3.930   5.888   2.022 -0.9915 -0.0195  1.9370
  564MOL0     H76121   3.775   5.895   1.954 -2.4605  1.8730  1.0508
  564MOL0     H76122   4.611   6.450   2.125 -1.4946  0.7054 -0.4464
  564MOL0     H76123   4.791   6.510   2.251  1.1768 -1.1087 -1.7043
  564MOL0     H76124   5.142   6.879   2.211 -1.6979 -1.3487  0.6978
  564MOL0     H76125   5.310   7.015   2.324 -0.2610  4.2221 -0.4401
  564MOL0     H76126   4.770   8.012   3.775 -1.9492 -1.9541  0.0473
  564MOL0     H76127   5.009   7.978   3.733 -1.1126 -0.0240 -3.9085
  564MOL0     H76128   5.345   7.821   3.844 -1.2616 -0.5198  1.6874
  564MOL0     H76129   5.567   7.799   3.918 -1.2327 -1.1907  0.2742
  564MOL0     H76130   5.759   7.391   3.948  4.1669  0.5722  2.8799
  564MOL0     H76131   5.806   7.432   3.783 -0.4257 -3.0187  1.2026
  564MOL0     H76132   5.936   7.515   4.042  0.3616  3.1377 -1.0924
  564MOL0     H76133   6.005   7.566   3.896  1.4713 -0.7006  0.9090
  564MOL0     H76134   6.042   7.321   3.817  1.9613  2.0176  0.4034
  564MOL0     H76135   5.942   7.268   3.939 -1.7231  1.9902 -1.0803
  564MOL0     H76136   6.151   7.230   4.002 -2.4998 -0.1574  1.4349
  564MOL0     H76137   6.120   7.376   4.091 -1.6518 -3.0115  0.3979
  564MOL0     H76138   6.387   7.552   3.813  0.7162 -0.6648  0.6485
  564MOL0     H76139   5.567   7.389   3.799  1.2586  0.1492 -5.1932
  564MOL0     H76140   5.336   7.407   3.721  1.0483 -2.2855  2.7101
  565MOL0     O76141   0.721   5.434   6.294 -0.3214  0.3526 -0.3926
  565MOL0     C76142   0.722   5.540   6.361 -0.3925  0.7448  0.9427
  565MOL0     O76143   0.662   5.557   6.484  0.0960  0.0776 -0.9563
  565MOL0     C76144   0.609   5.456   6.562 -0.9819  0.3343 -0.0859
  565MOL0     C76145   0.547   5.339   6.512 -0.1400  0.0299  0.1285
  565MOL0     C76146   0.504   5.240   6.602  0.5383  0.2398  0.5335
  565MOL0     C76147   0.539   5.251   6.736  0.4379  1.0715  0.6056
  565MOL0     O76148   0.506   5.152   6.826  0.7961 -0.9276  0.5594
  565MOL0     C76149   0.563   5.025   6.797 -0.9489 -0.7866 -0.8818
  565MOL0     C76150   0.506   4.922   6.899  0.8276  0.3384  0.1196
  565MOL0     C76151   0.370   4.863   6.854  0.1327 -0.5398 -0.4010
  565MOL0     C76152   0.260   4.975   6.837 -0.7262  0.3505  0.7180
  565MOL0     C76153   0.126   4.917   6.780 -0.1319  0.7009 -0.0143
  565MOL0     C76154   0.129   4.833   6.650 -0.2205 -0.6432 -0.0068
  565MOL0     C76155  -0.016   4.831   6.594 -0.4683 -0.6425 -0.0570
  565MOL0     C76156  -0.118   4.762   6.682 -1.0858  0.5124  0.1323
  565MOL0     N76157  -0.252   4.810   6.630 -0.3642 -0.5665  0.2107
  565MOL0     C76158  -0.341   4.893   6.688 -0.7536 -0.6379 -0.1681
  565MOL0     C76159  -0.438   4.901   6.596 -0.4236 -0.3433  0.2907
  565MOL0     C76160  -0.554   4.992   6.601  0.0133  0.4395  0.8059
  565MOL0     C76161  -0.508   5.137   6.625  0.3066 -0.0668 -0.3122
  565MOL0     C76162  -0.627   5.228   6.670  0.3337 -0.2772  0.4248
  565MOL0     C76163  -0.736   5.252   6.562  0.1615  0.1948 -0.8510
  565MOL0     O76164  -0.873   5.253   6.608 -0.0756 -0.7182  0.4700
  565MOL0     C76165  -0.913   5.339   6.698 -0.2722 -0.6512 -0.3902
  565MOL0     C76166  -0.856   5.464   6.727  0.1333  0.4503  0.2781
  565MOL0     C76167  -0.897   5.542   6.831  0.0746 -0.5003 -0.6743
  565MOL0     C76168  -0.814   5.673   6.848 -0.1662  0.8215 -0.2121
  565MOL0     C76169  -1.008   5.507   6.911  1.2131  0.4114 -0.0554
  565MOL0     C76170  -1.063   5.584   7.025  0.5267  0.7662  0.3360
  565MOL0     O76171  -1.131   5.509   7.114  0.8843 -0.2142 -0.3410
  565MOL0     C76172  -1.206   5.558   7.220  0.7562  0.7877 -0.0562
  565MOL0     C76173  -1.276   5.676   7.219 -1.3063 -0.2021 -0.4314
  565MOL0     C76174  -1.341   5.721   7.328  1.3853 -0.5066 -0.2027
  565MOL0     C76175  -1.352   5.636   7.438 -0.0535  0.2321 -0.2709
  565MOL0     O76176  -1.432   5.663   7.548 -0.3306 -0.0373  0.2058
  565MOL0     C76177  -1.552   5.735   7.522 -0.9242  1.0820 -0.3739
  565MOL0     C76178  -1.659   5.711   7.621 -0.1619 -1.0874 -0.4607
  565MOL0     C76179  -1.623   5.751   7.760  0.2812  0.2859 -0.9808
  565MOL0     C76180  -1.741   5.742   7.854 -0.3244  0.2598  0.0999
  565MOL0     C76181  -1.704   5.787   7.996  0.0333 -1.2273 -0.0697
  565MOL0     C76182  -1.639   5.683   8.077 -0.6560  0.0218  0.1572
  565MOL0     C76183  -1.634   5.738   8.215 -0.1938  0.0233  0.2848
  565MOL0     C76184  -1.565   5.654   8.323  0.1416  0.2355 -0.3223
  565MOL0    Cl76185  -1.393   5.631   8.314  0.3367 -0.1857  0.4599
  565MOL0     C76186  -1.284   5.515   7.440 -0.0398  0.5021 -0.2073
  565MOL0     C76187  -1.211   5.470   7.329  0.9664  0.0211  0.5495
  565MOL0     O76188  -1.037   5.702   7.033  0.2690 -0.0410 -0.4568
  565MOL0     C76189  -1.068   5.388   6.874  0.1239  0.6058 -0.2908
  565MOL0     C76190  -1.025   5.302   6.768 -0.3045  0.4176 -0.1788
  565MOL0     N76191  -0.415   4.818   6.488 -0.3453  0.4309 -0.8429
  565MOL0     N76192  -0.298   4.771   6.513  0.3533  0.3783  0.3203
  565MOL0     C76193   0.590   5.367   6.779  0.4126 -0.2896  0.4757
  565MOL0     C76194   0.624   5.474   6.698  0.3079 -0.3500  0.2081
  565MOL0     C76195   0.781   5.656   6.298  0.0080 -0.9478 -0.7358
  565MOL0     C76196   0.883   5.728   6.376 -1.2412  0.3123  0.1600
  565MOL0     C76197   0.943   5.843   6.322 -0.4320 -0.0167  0.6430
  565MOL0     C76198   0.906   5.884   6.197  0.2588 -0.2808 -0.1670
  565MOL0     O76199   0.972   5.998   6.161  0.0279 -0.1327 -0.5736
  565MOL0     C76200   0.938   6.054   6.040  0.4896 -0.0899 -0.3255
  565MOL0     C76201   0.958   6.204   6.042  0.1731 -0.4957  0.1376
  565MOL0     C76202   0.870   6.273   6.142 -0.4583 -0.2712 -0.7965
  565MOL0     C76203   0.883   6.424   6.134 -0.6585 -0.6089  0.3704
  565MOL0     C76204   0.795   6.480   6.237 -0.0299 -0.1697 -0.2741
  565MOL0     C76205   0.731   6.523   6.335 -0.4691 -0.0054  0.8420
  565MOL0     C76206   0.808   5.820   6.120  0.8513 -0.2749 -0.3187
  565MOL0     C76207   0.742   5.709   6.173 -0.6026 -0.0718 -0.0784
  565MOL0     H76208   0.536   5.309   6.408 -1.9059 -5.7331  1.6189
  565MOL0     H76209   0.470   5.142   6.570  2.7622 -0.3122 -0.3084
  565MOL0     H76210   0.534   4.991   6.697 -0.1484 -2.2692 -0.6285
  565MOL0     H76211   0.671   5.021   6.816 -1.1014  0.0647  0.2993
  565MOL0     H76212   0.582   4.845   6.915 -1.4271 -1.2642  5.3655
  565MOL0     H76213   0.478   4.962   6.997 -0.0867  0.5964 -0.2291
  565MOL0     H76214   0.388   4.818   6.756 -0.3468 -1.3749 -0.1153
  565MOL0     H76215   0.344   4.794   6.935 -0.8355  1.5114  1.0936
  565MOL0     H76216   0.233   5.023   6.932  0.7887 -1.8763  2.3937
  565MOL0     H76217   0.292   5.048   6.763  0.7673  0.0477  1.0317
  565MOL0     H76218   0.079   4.854   6.856 -3.9441  1.2550 -1.7123
  565MOL0     H76219   0.060   5.002   6.764 -0.2972  1.1114  2.4238
  565MOL0     H76220   0.191   4.877   6.571 -2.3615 -0.0586 -1.4625
  565MOL0     H76221   0.168   4.731   6.665 -0.4164 -0.2989  3.7174
  565MOL0     H76222  -0.046   4.934   6.571 -0.8920 -0.5577  0.8481
  565MOL0     H76223  -0.015   4.777   6.499 -0.4616  0.6391 -0.8194
  565MOL0     H76224  -0.115   4.773   6.790 -2.5275 -1.1841  0.3862
  565MOL0     H76225  -0.106   4.657   6.654  1.5903  0.6715  0.4338
  565MOL0     H76226  -0.339   4.930   6.790 -1.8866 -1.1915  0.0714
  565MOL0     H76227  -0.608   4.982   6.506  0.5300 -0.0975  0.5620
  565MOL0     H76228  -0.615   4.955   6.684 -1.2331 -0.5835 -0.5036
  565MOL0     H76229  -0.460   5.184   6.538  0.5837 -0.5284 -0.4196
  565MOL0     H76230  -0.445   5.138   6.714  0.4595 -1.3289 -0.3840
  565MOL0     H76231  -0.580   5.326   6.685 -1.3275  0.1655  3.6392
  565MOL0     H76232  -0.673   5.190   6.762 -1.3216  3.2104  1.2495
  565MOL0     H76233  -0.720   5.174   6.486 -2.1173 -0.6770 -0.4932
  565MOL0     H76234  -0.719   5.349   6.515 -2.7472  1.3371  0.2265
  565MOL0     H76235  -0.791   5.508   6.652 -1.5623 -0.6197 -1.9522
  565MOL0     H76236  -0.863   5.757   6.798 -0.4445  1.6824  1.4188
  565MOL0     H76237  -0.791   5.706   6.950  1.7847  0.3844 -0.4678
  565MOL0     H76238  -0.714   5.662   6.805 -0.7946  0.3263 -1.5780
  565MOL0     H76239  -1.263   5.756   7.147  0.4002 -0.8111 -0.8511
  565MOL0     H76240  -1.389   5.818   7.318 -0.7681 -1.5743 -0.9471
  565MOL0     H76241  -1.525   5.841   7.518  0.3231  0.7486 -2.7720
  565MOL0     H76242  -1.598   5.706   7.427  0.3598  0.8031 -0.9335
  565MOL0     H76243  -1.753   5.755   7.587 -0.1818 -1.2546 -0.6196
  565MOL0     H76244  -1.676   5.604   7.635 -0.5249 -1.2281 -1.8228
  565MOL0     H76245  -1.582   5.852   7.751  1.5368 -0.0743  0.3270
  565MOL0     H76246  -1.537   5.694   7.796  1.6575  2.9143  0.2082
  565MOL0     H76247  -1.821   5.805   7.814  1.3625  1.2972 -1.8145
  565MOL0     H76248  -1.782   5.641   7.864 -1.1108  0.6443  0.9656
  565MOL0     H76249  -1.797   5.830   8.036 -0.8088 -1.8790 -1.2564
  565MOL0     H76250  -1.643   5.877   7.987 -2.8473  0.8957  0.3175
  565MOL0     H76251  -1.692   5.588   8.072 -0.6169 -0.0084  0.2984
  565MOL0     H76252  -1.538   5.671   8.038 -1.2512 -0.3504 -1.3432
  565MOL0     H76253  -1.739   5.750   8.243  0.1378  2.6146  0.7130
  565MOL0     H76254  -1.583   5.834   8.221  0.7744 -0.3851 -0.9033
  565MOL0     H76255  -1.612   5.555   8.330  0.7712  0.0436  3.0040
  565MOL0     H76256  -1.595   5.716   8.408  2.0436  1.2686 -0.3449
  565MOL0     H76257  -1.305   5.438   7.513 -0.8120 -1.2632 -2.2018
  565MOL0     H76258  -1.180   5.366   7.325  0.7796  0.0151 -1.2119
  565MOL0     H76259  -1.154   5.343   6.922  1.0768 -1.6567 -0.5774
  565MOL0     H76260  -1.066   5.204   6.746 -0.6230  0.3378  0.7266
  565MOL0     H76261   0.617   5.386   6.883  0.7863  1.3514  0.1068
  565MOL0     H76262   0.650   5.573   6.734 -2.3024  0.4987 -0.0689
  565MOL0     H76263   0.916   5.698   6.475 -1.5551  2.6426  1.0335
  565MOL0     H76264   1.026   5.894   6.371 -0.1741 -0.6942  0.9240
  565MOL0     H76265   1.007   6.012   5.965 -0.6805 -1.6557 -0.5783
  565MOL0     H76266   0.837   6.030   6.009  0.6496 -1.7732  0.3496
  565MOL0     H76267   0.924   6.233   5.942 -0.5675  0.4688  0.6519
  565MOL0     H76268   1.057   6.248   6.056 -1.6581  3.6434  1.5380
  565MOL0     H76269   0.886   6.232   6.242 -0.7445  0.4681 -0.4382
  565MOL0     H76270   0.765   6.247   6.128  0.1471 -2.1936 -2.2115
  565MOL0     H76271   0.854   6.459   6.034  0.1598  1.4397  0.8108
  565MOL0     H76272   0.988   6.450   6.149  0.9112 -4.0292 -2.9166
  565MOL0     H76273   0.685   6.564   6.422 -1.5738 -4.3534  2.5735
  565MOL0     H76274   0.781   5.838   6.016 -0.9239 -1.0004 -0.0243
  565MOL0     H76275   0.672   5.664   6.103  1.8303 -2.0779 -1.3781
  566MOL0     O76276   2.400   1.770   4.480 -0.0880 -0.5081 -0.8116
  566MOL0     C76277   2.430   1.693   4.574 -0.6579  0.5612 -0.9865
  566MOL0     O76278   2.353   1.652   4.675  0.4888  0.1885  0.8685
  566MOL0     C76279   2.220   1.614   4.640  0.0710  0.2373  0.1395
  566MOL0     C76280   2.192   1.478   4.589 -0.0826 -0.5960 -0.2921
  566MOL0     C76281   2.058   1.441   4.565  0.2261 -1.1580  0.9009
  566MOL0     C76282   1.957   1.540   4.564 -0.3604  0.6450 -0.0976
  566MOL0     O76283   1.824   1.520   4.532  0.3695 -0.1373  0.4158
  566MOL0     C76284   1.780   1.404   4.466 -0.1230 -0.0004 -0.4679
  566MOL0     C76285   1.631   1.385   4.491  0.0033  0.6353 -0.4182
  566MOL0     C76286   1.565   1.263   4.412 -0.0692 -0.3086 -0.2628
  566MOL0     C76287   1.418   1.249   4.468  0.9520  0.3040  0.1204
  566MOL0     C76288   1.333   1.156   4.378  0.1710  0.2728 -0.2491
  566MOL0     C76289   1.188   1.134   4.432 -1.1307  0.2194  0.0515
  566MOL0     C76290   1.104   1.056   4.330  0.2190  0.0433 -0.3914
  566MOL0     C76291   0.962   1.030   4.386  0.6791  0.6113  0.0819
  566MOL0     N76292   0.867   0.942   4.318 -1.0242 -0.0716  0.7340
  566MOL0     C76293   0.815   0.972   4.199  0.6208 -0.1552 -0.0039
  566MOL0     C76294   0.697   0.903   4.194  0.0064  0.0092  0.8829
  566MOL0     C76295   0.594   0.909   4.085  1.0638 -0.3050 -0.3324
  566MOL0     C76296   0.532   1.046   4.063  0.0546 -0.5908  0.0454
  566MOL0     C76297   0.389   1.054   4.012 -0.1493  0.2902  1.0742
  566MOL0     C76298   0.375   1.021   3.859 -0.2652 -0.5130  0.6379
  566MOL0     O76299   0.241   0.989   3.813 -0.0900 -0.7998 -0.6945
  566MOL0     C76300   0.130   1.078   3.831 -1.1275  0.6833 -0.7849
  566MOL0     C76301   0.006   1.020   3.806  0.3522 -0.4081  0.3998
  566MOL0     C76302  -0.113   1.094   3.791 -0.7849  0.1247  0.2049
  566MOL0     C76303  -0.238   1.013   3.756  0.5294  0.6554 -0.2274
  566MOL0     C76304  -0.109   1.234   3.821  0.1083 -0.7634 -0.2571
  566MOL0     C76305  -0.225   1.318   3.839  0.2734  0.4893 -0.2133
  566MOL0     O76306  -0.350   1.261   3.837  0.2798  0.3403 -0.4183
  566MOL0     C76307  -0.459   1.333   3.794 -0.0195 -0.4542  0.1681
  566MOL0     C76308  -0.508   1.291   3.675 -0.0515 -0.7551  0.0108
  566MOL0     C76309  -0.625   1.337   3.621 -0.2312 -0.1400  1.1941
  566MOL0     C76310  -0.695   1.431   3.688  0.4113 -1.1783 -0.0822
  566MOL0     O76311  -0.805   1.484   3.619 -0.0443  0.4123 -0.1867
  566MOL0     C76312  -0.918   1.514   3.701  0.3690 -0.2780  0.1058
  566MOL0     C76313  -0.975   1.394   3.784  0.2682  0.1480 -0.0322
  566MOL0     C76314  -1.130   1.398   3.779 -0.3227 -0.4029 -1.1741
  566MOL0     C76315  -1.200   1.523   3.827 -0.2127  0.3283 -0.6969
  566MOL0     C76316  -1.352   1.510   3.808 -0.5353 -0.1839  0.4350
  566MOL0     C76317  -1.419   1.396   3.886 -0.1196 -0.2907  0.2568
  566MOL0     C76318  -1.572   1.404   3.881  0.4224  0.7212 -0.0591
  566MOL0     C76319  -1.628   1.292   3.955  0.1465  0.9213  0.0639
  566MOL0    Cl76320  -1.599   1.313   4.139  0.1546 -0.1551 -0.0077
  566MOL0     C76321  -0.653   1.477   3.810 -0.1789  0.0622 -0.5132
  566MOL0     C76322  -0.532   1.429   3.868  0.5922 -0.4164 -0.0018
  566MOL0     O76323  -0.209   1.442   3.856 -0.1617 -0.5291 -0.6783
  566MOL0     C76324   0.019   1.290   3.859  0.0379 -0.4561 -1.0320
  566MOL0     C76325   0.130   1.215   3.866  0.2405  0.0374 -0.0373
  566MOL0     N76326   0.675   0.841   4.318  0.0438 -0.0708  0.3174
  566MOL0     N76327   0.785   0.854   4.387 -0.7097  0.2752  0.8077
  566MOL0     C76328   1.981   1.659   4.624  0.4542  1.1516 -0.3235
  566MOL0     C76329   2.110   1.705   4.654  0.0150  0.7699  0.2371
  566MOL0     C76330   2.576   1.678   4.604 -0.4750  0.2866 -0.6470
  566MOL0     C76331   2.677   1.741   4.532 -0.5877 -0.1204 -0.0742
  566MOL0     C76332   2.815   1.727   4.555  0.0192  0.5359  0.2550
  566MOL0     C76333   2.853   1.659   4.676  0.0722  0.7748  0.6671
  566MOL0     O76334   2.981   1.666   4.727 -0.1947  0.3138 -0.3495
  566MOL0     C76335   3.088   1.735   4.666  0.0214  0.1946  0.8563
  566MOL0     C76336   3.209   1.652   4.689 -0.9859  0.0153  0.8781
  566MOL0     C76337   3.220   1.618   4.840 -0.7646 -0.0542 -0.2636
  566MOL0     C76338   3.355   1.544   4.889 -0.5979 -1.0391  0.1696
  566MOL0     C76339   3.462   1.617   4.826 -0.1441  0.4595 -0.4719
  566MOL0     C76340   3.543   1.690   4.767  0.0453  0.2664 -0.4434
  566MOL0     C76341   2.754   1.595   4.753 -0.0582  0.3364 -0.7326
  566MOL0     C76342   2.621   1.604   4.716  1.1370 -0.6456 -0.1475
  566MOL0     H76343   2.272   1.407   4.572  1.3830  1.1358 -1.0043
  566MOL0     H76344   2.042   1.338   4.536  2.6698 -1.4268  0.3411
  566MOL0     H76345   1.804   1.404   4.360 -0.9804 -1.4349 -0.6826
  566MOL0     H76346   1.833   1.320   4.513 -2.0267 -1.3006 -0.5321
  566MOL0     H76347   1.631   1.365   4.599  1.8263  1.7703 -0.1588
  566MOL0     H76348   1.569   1.473   4.475 -3.4020 -1.4392  0.2725
  566MOL0     H76349   1.568   1.283   4.305 -2.1081  1.1368 -0.0985
  566MOL0     H76350   1.621   1.172   4.439 -2.5437 -1.8595  0.0004
  566MOL0     H76351   1.422   1.217   4.572 -0.8583 -0.1666  0.0660
  566MOL0     H76352   1.361   1.342   4.477 -3.8053 -2.1350 -1.7692
  566MOL0     H76353   1.327   1.213   4.286 -3.3858 -0.6968 -0.7603
  566MOL0     H76354   1.389   1.067   4.347  1.9692  1.3077 -0.1588
  566MOL0     H76355   1.191   1.065   4.517 -1.7495 -0.8176 -0.7354
  566MOL0     H76356   1.136   1.223   4.470  0.1427 -0.0302  2.5684
  566MOL0     H76357   1.090   1.111   4.236 -1.3116  0.6469  0.1590
  566MOL0     H76358   1.153   0.965   4.293 -0.2622 -0.5277  0.3537
  566MOL0     H76359   0.907   1.123   4.402 -0.2012 -0.1366  1.4912
  566MOL0     H76360   0.978   0.982   4.483  2.9379 -0.2542 -0.6333
  566MOL0     H76361   0.853   1.052   4.137 -1.6233  2.4459  1.7338
  566MOL0     H76362   0.636   0.863   3.995  0.6628 -0.8289 -0.2590
  566MOL0     H76363   0.517   0.840   4.121  0.7401  1.8139  3.5306
  566MOL0     H76364   0.605   1.084   3.991  0.4615  0.5617  1.0336
  566MOL0     H76365   0.542   1.103   4.156 -1.0273  1.3770 -0.9652
  566MOL0     H76366   0.343   1.153   4.017 -0.0832  0.6915 -2.9756
  566MOL0     H76367   0.333   0.987   4.078 -2.1724  2.8898  2.1916
  566MOL0     H76368   0.449   0.943   3.839 -0.6216 -1.0441  1.3383
  566MOL0     H76369   0.415   1.110   3.810  1.4845  0.8771  4.2343
  566MOL0     H76370   0.009   0.914   3.787 -0.6496 -1.2005  3.8390
  566MOL0     H76371  -0.273   1.053   3.661  0.3203 -2.4042 -1.5560
  566MOL0     H76372  -0.218   0.906   3.746  0.4167  0.6861 -0.8167
  566MOL0     H76373  -0.313   1.022   3.836 -0.1994 -0.5276 -0.7397
  566MOL0     H76374  -0.446   1.223   3.618 -0.7819 -1.2083 -0.2657
  566MOL0     H76375  -0.662   1.304   3.524 -1.2575  0.4259  1.3801
  566MOL0     H76376  -0.902   1.589   3.779  3.2913 -1.1246  0.4181
  566MOL0     H76377  -1.000   1.540   3.634  1.0787 -2.3356 -1.6796
  566MOL0     H76378  -0.955   1.293   3.746  0.3921  0.2485 -0.2373
  566MOL0     H76379  -0.928   1.387   3.882  0.0268  1.7324  0.2193
  566MOL0     H76380  -1.166   1.315   3.840  0.8965 -0.4407 -0.4743
  566MOL0     H76381  -1.155   1.379   3.674  3.1735  2.5829 -2.7461
  566MOL0     H76382  -1.184   1.541   3.934 -4.5777  1.5183 -0.0633
  566MOL0     H76383  -1.172   1.614   3.774  2.7642  0.8563  1.4861
  566MOL0     H76384  -1.377   1.500   3.702  0.9162  2.0961 -0.2031
  566MOL0     H76385  -1.398   1.602   3.845  0.7409  0.2428  1.0318
  566MOL0     H76386  -1.396   1.300   3.839  1.0275  0.4356 -0.7098
  566MOL0     H76387  -1.379   1.407   3.988  1.8584 -0.4017 -0.4682
  566MOL0     H76388  -1.624   1.404   3.785 -0.3659  0.2269  0.3513
  566MOL0     H76389  -1.603   1.500   3.925  0.3725  2.4290 -3.4581
  566MOL0     H76390  -1.604   1.193   3.914 -1.3619  1.3320 -1.9368
  566MOL0     H76391  -1.736   1.296   3.943 -0.0285 -1.0357  0.5874
  566MOL0     H76392  -0.713   1.546   3.868 -1.8829 -2.2343  0.6350
  566MOL0     H76393  -0.497   1.459   3.966  0.3330  0.2469 -0.1050
  566MOL0     H76394   0.033   1.391   3.895  1.5495 -0.8903 -0.3127
  566MOL0     H76395   0.224   1.267   3.883 -0.3692  1.6007 -1.2514
  566MOL0     H76396   1.901   1.733   4.618  1.2244  1.8971 -3.4975
  566MOL0     H76397   2.137   1.807   4.680 -0.1226  0.4038  1.9717
  566MOL0     H76398   2.638   1.794   4.445 -1.2870  0.5248  0.6188
  566MOL0     H76399   2.879   1.793   4.497  1.1511 -1.3991 -0.7845
  566MOL0     H76400   3.067   1.733   4.558  1.1018  1.3215  0.5956
  566MOL0     H76401   3.093   1.842   4.689  0.0157  0.5622 -0.7363
  566MOL0     H76402   3.299   1.706   4.661  0.4703 -1.3193  2.7237
  566MOL0     H76403   3.195   1.556   4.638  1.8710 -2.0185  3.5439
  566MOL0     H76404   3.140   1.547   4.864 -1.8246  1.2014  0.0697
  566MOL0     H76405   3.212   1.706   4.905  0.2887  0.7032 -1.1232
  566MOL0     H76406   3.355   1.439   4.858 -0.9535 -0.7344 -0.8995
  566MOL0     H76407   3.364   1.546   4.998  2.2973 -1.4784  0.0175
  566MOL0     H76408   3.620   1.754   4.729 -0.7565  3.1895  2.4193
  566MOL0     H76409   2.787   1.552   4.846 -2.4551 -1.3445 -0.5588
  566MOL0     H76410   2.552   1.563   4.789  0.1079 -0.4856 -1.0022
  567MOL0     O76411   8.972   6.462   2.269  0.3496 -0.0167  0.5720
  567MOL0     C76412   9.067   6.486   2.344 -0.1337  0.3653 -0.4375
  567MOL0     O76413   9.063   6.495   2.479  0.1500  0.3552  0.3226
  567MOL0     C76414   8.942   6.471   2.534 -0.1870  0.8441 -0.0539
  567MOL0     C76415   8.927   6.378   2.637 -0.2910  0.3475 -0.1928
  567MOL0     C76416   8.806   6.358   2.704  0.0192 -0.3947 -0.3415
  567MOL0     C76417   8.696   6.448   2.682  0.3013 -0.8131 -0.4453
  567MOL0     O76418   8.578   6.460   2.758 -0.0592 -0.3786 -0.8297
  567MOL0     C76419   8.552   6.348   2.842  0.1216 -0.8653  0.6914
  567MOL0     C76420   8.447   6.396   2.940 -0.6110 -0.2643 -0.6661
  567MOL0     C76421   8.418   6.302   3.050  0.0182 -0.2661  0.6825
  567MOL0     C76422   8.296   6.359   3.129 -0.4899  0.0759  0.3536
  567MOL0     C76423   8.265   6.258   3.244  0.7247  0.2106 -0.2237
  567MOL0     C76424   8.166   6.153   3.197 -0.5153  1.3177 -0.0362
  567MOL0     C76425   8.135   6.046   3.301  0.5780 -0.4224  0.7139
  567MOL0     C76426   8.054   6.103   3.424  0.0838 -0.8388 -0.2431
  567MOL0     N76427   7.922   6.148   3.378 -0.8968 -0.4121 -0.2100
  567MOL0     C76428   7.815   6.067   3.338 -0.4981 -0.1483 -0.1154
  567MOL0     C76429   7.731   6.156   3.288 -0.3990  0.7177 -1.0272
  567MOL0     C76430   7.610   6.129   3.194  0.4267  0.0337 -0.3958
  567MOL0     C76431   7.645   6.047   3.077  0.0633  0.4264 -0.8062
  567MOL0     C76432   7.551   6.050   2.959 -0.0751 -0.3958 -0.0399
  567MOL0     C76433   7.412   5.995   2.996 -0.1253 -0.2878 -0.1891
  567MOL0     O76434   7.352   5.972   2.869 -0.2683  0.3817  0.0906
  567MOL0     C76435   7.222   5.939   2.851  0.0190 -0.5396  0.2256
  567MOL0     C76436   7.175   5.946   2.723  0.7929 -0.6986 -1.0043
  567MOL0     C76437   7.046   5.891   2.684 -0.8883  0.2595  0.1518
  567MOL0     C76438   7.000   5.907   2.539  0.0660  0.0485 -1.0117
  567MOL0     C76439   6.973   5.840   2.785  0.5583  0.7801  0.5748
  567MOL0     C76440   6.824   5.802   2.764 -1.2089 -0.6839  0.3057
  567MOL0     O76441   6.761   5.749   2.883 -0.2794 -0.7812  0.3266
  567MOL0     C76442   6.629   5.719   2.877  0.3131 -0.3526  0.9218
  567MOL0     C76443   6.534   5.824   2.878 -0.5026 -0.7932 -0.2548
  567MOL0     C76444   6.399   5.798   2.882  0.2451 -0.4153  0.4348
  567MOL0     C76445   6.353   5.665   2.883  0.1669  0.2935  0.1398
  567MOL0     O76446   6.226   5.625   2.877 -0.3654  0.4537 -0.0794
  567MOL0     C76447   6.125   5.714   2.859  0.6117 -0.2221  0.2419
  567MOL0     C76448   6.000   5.632   2.861  0.1104 -0.0269 -0.3458
  567MOL0     C76449   5.997   5.525   2.752 -0.4919 -0.3413  0.3211
  567MOL0     C76450   5.873   5.447   2.776  0.3415 -0.1281  0.3903
  567MOL0     C76451   5.830   5.372   2.652 -0.1909 -0.3414 -0.1307
  567MOL0     C76452   5.708   5.281   2.695  0.2349 -0.1838  0.7038
  567MOL0     C76453   5.633   5.243   2.572 -0.3479  0.7732  0.8922
  567MOL0     C76454   5.574   5.107   2.591  0.4653 -0.1595  0.9218
  567MOL0    Cl76455   5.488   5.070   2.439  0.3238  0.4202 -0.6678
  567MOL0     C76456   6.449   5.564   2.892  0.0062 -1.0855 -0.0798
  567MOL0     C76457   6.583   5.588   2.889 -0.2403  0.6472  0.1507
  567MOL0     O76458   6.759   5.820   2.661 -0.1680 -0.4265  0.4882
  567MOL0     C76459   7.023   5.820   2.914 -0.0890 -0.4881  0.1318
  567MOL0     C76460   7.149   5.866   2.944 -0.5729 -0.2927  0.2049
  567MOL0     N76461   7.781   6.284   3.295  0.2508  1.1110 -0.2097
  567MOL0     N76462   7.896   6.280   3.355 -0.0287 -0.3521 -0.0751
  567MOL0     C76463   8.719   6.554   2.588  0.5978  0.8088  0.7490
  567MOL0     C76464   8.838   6.552   2.514 -0.5948 -0.6591  0.4681
  567MOL0     C76465   9.193   6.508   2.284 -0.8945 -0.5242 -0.3338
  567MOL0     C76466   9.306   6.462   2.348 -0.2947 -0.7966 -0.6205
  567MOL0     C76467   9.435   6.497   2.296 -0.5304  0.2123 -0.4431
  567MOL0     C76468   9.457   6.566   2.172  0.2451 -0.1782  0.5347
  567MOL0     O76469   9.573   6.607   2.109 -0.0164  0.2989  0.3947
  567MOL0     C76470   9.698   6.602   2.186  0.3505 -1.0523 -0.3341
  567MOL0     C76471   9.803   6.653   2.090 -0.2156  0.5635  0.3317
  567MOL0     C76472   9.934   6.695   2.163  0.0545  0.8431  0.3678
  567MOL0     C76473  10.045   6.693   2.057  0.1752 -0.4780  0.1492
  567MOL0     C76474  10.069   6.553   2.008  0.3251 -1.1423  0.7401
  567MOL0     C76475  10.084   6.436   1.986  1.1872  0.2944 -0.5733
  567MOL0     C76476   9.339   6.583   2.102 -0.1961 -0.2772 -0.2201
  567MOL0     C76477   9.215   6.563   2.153  0.6371 -0.8529  0.1116
  567MOL0     H76478   9.012   6.310   2.644 -0.2500  0.5576  1.7519
  567MOL0     H76479   8.800   6.277   2.776  0.3802 -1.2576 -1.2642
  567MOL0     H76480   8.507   6.271   2.779 -1.1721  0.1098  0.3958
  567MOL0     H76481   8.635   6.316   2.906 -1.2070 -2.2417  1.7938
  567MOL0     H76482   8.481   6.490   2.984 -2.7188  1.1838 -1.9131
  567MOL0     H76483   8.360   6.425   2.879 -1.2142 -0.6927 -0.0191
  567MOL0     H76484   8.392   6.208   3.000 -0.4569 -1.0681  2.3430
  567MOL0     H76485   8.506   6.290   3.114 -2.2247 -1.5556  3.7705
  567MOL0     H76486   8.318   6.458   3.172  0.0819 -0.0011  0.2390
  567MOL0     H76487   8.206   6.357   3.068  0.5840 -2.1046 -1.2666
  567MOL0     H76488   8.353   6.224   3.299  2.1883  1.9847 -1.3462
  567MOL0     H76489   8.206   6.321   3.311 -0.0702 -0.5239 -0.2208
  567MOL0     H76490   8.076   6.207   3.164  0.2588  1.4807 -2.0433
  567MOL0     H76491   8.201   6.102   3.107 -0.0013 -0.6999  1.2599
  567MOL0     H76492   8.071   5.974   3.250 -0.2695  0.8058  0.0158
  567MOL0     H76493   8.230   5.995   3.321  0.9011 -0.7755 -1.4831
  567MOL0     H76494   8.108   6.182   3.478 -1.0280 -2.4263  3.5687
  567MOL0     H76495   8.026   6.026   3.497 -0.8283 -1.0075 -0.7602
  567MOL0     H76496   7.808   5.959   3.335 -3.2156 -0.1258  1.6611
  567MOL0     H76497   7.527   6.110   3.263  0.4227  0.7672 -0.1909
  567MOL0     H76498   7.581   6.225   3.152  1.1232 -0.2852 -1.6664
  567MOL0     H76499   7.649   5.941   3.106 -0.9993 -0.0789 -2.3693
  567MOL0     H76500   7.744   6.080   3.045  0.1034  1.3887  0.2568
  567MOL0     H76501   7.587   5.986   2.877 -2.9722 -0.7642 -1.1470
  567MOL0     H76502   7.541   6.153   2.925 -0.3372 -1.0861 -2.2083
  567MOL0     H76503   7.348   6.062   3.054 -0.6661  1.5500 -2.6994
  567MOL0     H76504   7.432   5.901   3.048  0.0592 -0.6792 -0.9499
  567MOL0     H76505   7.238   6.005   2.657  2.3180  0.7675  1.6323
  567MOL0     H76506   6.959   5.813   2.500  2.6649 -2.0473  0.8676
  567MOL0     H76507   6.933   5.993   2.531 -1.1008 -0.8829 -1.5070
  567MOL0     H76508   7.090   5.919   2.477  0.9980 -1.6672 -0.0843
  567MOL0     H76509   6.574   5.925   2.876 -2.5709  0.0553 -1.0591
  567MOL0     H76510   6.332   5.881   2.864  0.8882  0.5917  2.3599
  567MOL0     H76511   6.122   5.796   2.931  1.3243  0.2818 -0.2804
  567MOL0     H76512   6.136   5.750   2.756 -0.5093 -0.7396 -0.0733
  567MOL0     H76513   5.992   5.569   2.950 -2.3273  0.2356 -0.3095
  567MOL0     H76514   5.916   5.703   2.865  0.3360  0.2016  2.9892
  567MOL0     H76515   6.087   5.463   2.760 -1.1187 -1.2036  0.8644
  567MOL0     H76516   5.993   5.576   2.656 -0.3578  1.6317  1.3264
  567MOL0     H76517   5.875   5.373   2.857  0.2714 -0.6633 -0.0874
  567MOL0     H76518   5.790   5.512   2.806  3.2503  1.8185  5.4467
  567MOL0     H76519   5.922   5.324   2.616 -0.6367  0.8481 -3.1185
  567MOL0     H76520   5.791   5.447   2.583  1.3302  2.1145  1.5380
  567MOL0     H76521   5.758   5.196   2.742  0.0748  0.9103  3.0215
  567MOL0     H76522   5.642   5.321   2.773  1.5559 -0.8361  2.2058
  567MOL0     H76523   5.713   5.246   2.497 -0.5223 -0.4149  0.6328
  567MOL0     H76524   5.557   5.316   2.545  0.5440  1.0360 -1.1400
  567MOL0     H76525   5.501   5.106   2.672 -0.5558  0.2327  0.0353
  567MOL0     H76526   5.646   5.027   2.610  1.8702  0.4890 -1.3079
  567MOL0     H76527   6.413   5.463   2.914 -0.1512 -0.3230  3.8059
  567MOL0     H76528   6.645   5.498   2.890  0.9314  1.3398 -2.1200
  567MOL0     H76529   6.973   5.773   2.998 -1.8292  1.7221  0.3932
  567MOL0     H76530   7.182   5.851   3.046 -0.6622  1.7878  0.5970
  567MOL0     H76531   8.636   6.622   2.570  0.0780 -0.2008 -0.9105
  567MOL0     H76532   8.854   6.626   2.437  0.9270 -2.9622 -1.5661
  567MOL0     H76533   9.300   6.405   2.440  1.6081 -2.0535 -1.2017
  567MOL0     H76534   9.521   6.460   2.352  0.3206  1.3165 -0.9908
  567MOL0     H76535   9.687   6.669   2.272 -0.6341  0.4408 -1.5718
  567MOL0     H76536   9.731   6.505   2.224  0.3664 -0.2480  1.8605
  567MOL0     H76537   9.752   6.733   2.034 -1.1988  1.1121  1.9301
  567MOL0     H76538   9.815   6.573   2.016  1.2105  3.0782 -2.3857
  567MOL0     H76539   9.963   6.620   2.237 -0.8160 -2.9494 -2.7910
  567MOL0     H76540   9.932   6.794   2.209  3.2172  2.9003 -3.2283
  567MOL0     H76541  10.138   6.725   2.105 -0.5499  0.4190  1.0088
  567MOL0     H76542  10.021   6.761   1.975  0.3674  3.3418  2.9721
  567MOL0     H76543  10.087   6.332   1.964  0.7220 -0.3840  2.2356
  567MOL0     H76544   9.351   6.627   2.004 -0.8274  1.4389  0.4216
  567MOL0     H76545   9.129   6.589   2.094  2.3029 -0.0652 -2.1040
  568MOL0     O76546   8.545  10.528   1.399 -0.6137  0.2905  0.1563
  568MOL0     C76547   8.603  10.571   1.501  0.5088 -0.2677  0.3880
  568MOL0     O76548   8.553  10.586   1.628  0.1496 -0.0526  0.8496
  568MOL0     C76549   8.419  10.553   1.645 -0.4145  0.2887  0.4259
  568MOL0     C76550   8.325  10.656   1.660  0.0010 -0.3925 -0.4465
  568MOL0     C76551   8.188  10.624   1.671 -1.0859  0.3219  0.6073
  568MOL0     C76552   8.143  10.490   1.652 -0.5462  0.8014 -0.5985
  568MOL0     O76553   8.005  10.461   1.656  0.1227  0.3813 -0.4631
  568MOL0     C76554   7.969  10.367   1.764  0.6897 -0.7918 -0.4655
  568MOL0     C76555   7.888  10.255   1.704  0.0323  0.1538 -0.5128
  568MOL0     C76556   7.863  10.148   1.812 -0.2284 -0.3532 -0.0779
  568MOL0     C76557   7.793  10.026   1.748 -0.1938 -0.2134 -0.6694
  568MOL0     C76558   7.780   9.903   1.842 -0.3482  0.7179 -0.1992
  568MOL0     C76559   7.712   9.789   1.754  0.9871  0.6211 -0.2209
  568MOL0     C76560   7.662   9.677   1.843 -0.0094 -0.7924 -0.3646
  568MOL0     C76561   7.749   9.556   1.885 -1.1732 -0.2000  0.5153
  568MOL0     N76562   7.861   9.588   1.977  0.4297 -0.6683 -0.2012
  568MOL0     C76563   7.854   9.629   2.115 -0.3060  0.0869 -0.3999
  568MOL0     C76564   7.979   9.657   2.157 -0.0564  0.3658  0.9418
  568MOL0     C76565   8.016   9.722   2.285 -0.1949 -0.7056  0.0512
  568MOL0     C76566   8.063   9.610   2.379  0.3193 -0.0626 -0.7561
  568MOL0     C76567   8.130   9.668   2.501 -0.6931  0.5764  0.1418
  568MOL0     C76568   8.032   9.746   2.598 -0.0707 -0.2889  0.2024
  568MOL0     O76569   7.924   9.662   2.637  0.3806 -0.1174 -0.3427
  568MOL0     C76570   7.830   9.714   2.725  0.2442  0.1503  0.5823
  568MOL0     C76571   7.700   9.663   2.702  0.3866 -0.7591 -0.1760
  568MOL0     C76572   7.588   9.704   2.782 -0.0202  0.6645 -0.6061
  568MOL0     C76573   7.446   9.646   2.739 -0.6869 -0.2010 -0.2621
  568MOL0     C76574   7.617   9.788   2.890  0.2227 -0.3300  0.5510
  568MOL0     C76575   7.521   9.851   2.980  0.0006  0.0740  0.3386
  568MOL0     O76576   7.572   9.942   3.061 -0.0659 -0.1486  0.5063
  568MOL0     C76577   7.506   9.982   3.170  1.2632  1.2532 -0.5891
  568MOL0     C76578   7.542  10.100   3.240  1.1717 -0.0155  0.2280
  568MOL0     C76579   7.476  10.148   3.346  1.3664 -0.0222  0.5722
  568MOL0     C76580   7.375  10.080   3.409 -0.5506 -0.4759 -0.9154
  568MOL0     O76581   7.321  10.139   3.525 -0.1062 -0.3469 -0.2983
  568MOL0     C76582   7.206  10.081   3.595 -0.1849  0.9001 -0.2514
  568MOL0     C76583   7.097  10.186   3.584 -0.3417 -2.2287  0.0236
  568MOL0     C76584   6.954  10.139   3.622  0.3666  0.7082 -0.5672
  568MOL0     C76585   6.894  10.048   3.514 -0.4402  0.5039 -0.7903
  568MOL0     C76586   6.860  10.134   3.384  0.5530 -0.4214 -0.2631
  568MOL0     C76587   6.747  10.233   3.381  0.2405  0.1805  0.1179
  568MOL0     C76588   6.728  10.307   3.249  0.2107 -0.3333  1.2987
  568MOL0     C76589   6.613  10.412   3.242 -0.7317 -1.0019 -0.1474
  568MOL0    Cl76590   6.445  10.346   3.231 -0.4419 -0.0565 -0.0758
  568MOL0     C76591   7.340   9.957   3.356  0.1676  0.4996  0.4880
  568MOL0     C76592   7.400   9.913   3.232  0.2060  0.0522  0.1070
  568MOL0     O76593   7.400   9.820   2.968  0.6602  0.7145 -0.3935
  568MOL0     C76594   7.747   9.845   2.903 -0.5580  0.0223 -0.9351
  568MOL0     C76595   7.847   9.822   2.813 -0.2249  0.9021  0.0381
  568MOL0     N76596   8.067   9.620   2.051 -0.0139  1.2996  0.8194
  568MOL0     N76597   7.993   9.592   1.943 -0.3542 -0.6302 -0.4802
  568MOL0     C76598   8.240  10.390   1.633 -0.1620 -0.1345 -0.3243
  568MOL0     C76599   8.379  10.416   1.637  0.0061 -0.6521  0.1044
  568MOL0     C76600   8.749  10.602   1.484 -0.7026  1.2378  0.1773
  568MOL0     C76601   8.826  10.650   1.593 -0.2643 -0.7396  1.0261
  568MOL0     C76602   8.954  10.709   1.568  0.4419 -0.5043  0.4848
  568MOL0     C76603   9.012  10.706   1.437 -0.5312 -0.3628 -0.4575
  568MOL0     O76604   9.149  10.728   1.405  0.8954 -0.5742  0.2964
  568MOL0     C76605   9.223  10.793   1.510  0.7392 -0.0712  0.1581
  568MOL0     C76606   9.179  10.942   1.536  0.7918 -0.7900  1.0282
  568MOL0     C76607   9.277  11.009   1.623  0.8447  0.7583 -0.3814
  568MOL0     C76608   9.220  11.125   1.690 -0.3386  0.9431 -0.5751
  568MOL0     C76609   9.128  11.079   1.797  0.5568 -0.4758  0.1790
  568MOL0     C76610   9.060  11.057   1.894  1.2866  0.0273 -0.1929
  568MOL0     C76611   8.939  10.647   1.333  0.5316  0.5201 -0.0272
  568MOL0     C76612   8.812  10.603   1.361 -0.4931  1.1386  1.4068
  568MOL0     H76613   8.350  10.762   1.665 -1.0059 -0.1956  1.2770
  568MOL0     H76614   8.123  10.710   1.685 -0.9049  0.0106  4.0927
  568MOL0     H76615   8.061  10.326   1.805  2.1564  2.1859 -0.5367
  568MOL0     H76616   7.912  10.421   1.840  0.7224 -0.6074 -0.5713
  568MOL0     H76617   7.796  10.302   1.669 -0.3128  1.3171  1.7547
  568MOL0     H76618   7.926  10.225   1.606 -0.8308  1.6402 -1.3479
  568MOL0     H76619   7.962  10.114   1.843  0.1236  0.5744 -0.1490
  568MOL0     H76620   7.802  10.195   1.889  2.3201  1.2052  1.1154
  568MOL0     H76621   7.702  10.057   1.696  1.3832  4.7569 -0.9502
  568MOL0     H76622   7.861   9.997   1.666 -2.1324  1.1337 -2.8559
  568MOL0     H76623   7.883   9.880   1.870 -0.5380 -0.5265 -0.4558
  568MOL0     H76624   7.731   9.925   1.937  0.9237  1.9252  0.2233
  568MOL0     H76625   7.627   9.842   1.711  1.4874  0.3839 -1.5412
  568MOL0     H76626   7.779   9.757   1.674  0.3082  1.1399 -1.0007
  568MOL0     H76627   7.628   9.725   1.935  2.0082  0.7214 -0.3213
  568MOL0     H76628   7.576   9.638   1.789  0.2133 -1.4477 -0.2640
  568MOL0     H76629   7.800   9.516   1.797  3.0042  0.9598  2.1631
  568MOL0     H76630   7.685   9.483   1.933  0.1115 -1.9035 -0.2668
  568MOL0     H76631   7.772   9.630   2.186 -1.4279  0.6881 -1.6493
  568MOL0     H76632   8.098   9.792   2.267 -0.0954 -0.2975  1.8906
  568MOL0     H76633   7.921   9.768   2.313  0.9927  2.1233 -0.2788
  568MOL0     H76634   8.132   9.553   2.317 -1.3074 -0.9750 -1.8050
  568MOL0     H76635   7.986   9.539   2.411  1.9870 -1.3504  0.6312
  568MOL0     H76636   8.210   9.734   2.469  0.1814 -0.4973  0.0739
  568MOL0     H76637   8.176   9.580   2.549  3.6270  4.3830  3.9533
  568MOL0     H76638   7.988   9.840   2.564  0.7013 -0.5810 -1.7723
  568MOL0     H76639   8.091   9.768   2.687 -2.0003 -0.0791  1.4958
  568MOL0     H76640   7.682   9.587   2.627 -1.9924 -0.9185  0.4916
  568MOL0     H76641   7.462   9.557   2.677 -0.3228 -0.2835 -0.0526
  568MOL0     H76642   7.390   9.610   2.826  1.7450 -0.4040  1.3011
  568MOL0     H76643   7.387   9.718   2.681 -1.5235 -0.2687  0.4718
  568MOL0     H76644   7.629  10.156   3.207  2.3001 -0.7414  1.8632
  568MOL0     H76645   7.506  10.243   3.390 -0.3274  0.4064  0.8770
  568MOL0     H76646   7.166   9.991   3.547  0.6218  0.3823  0.0447
  568MOL0     H76647   7.244  10.038   3.688  0.5421 -0.8642 -1.3226
  568MOL0     H76648   7.137  10.260   3.653 -0.3416 -1.1918 -1.0483
  568MOL0     H76649   7.090  10.237   3.487  1.1698 -1.7236  0.1570
  568MOL0     H76650   6.890  10.227   3.626  0.0850  0.5001 -0.4186
  568MOL0     H76651   6.957  10.092   3.721  0.3150 -0.5549 -1.1444
  568MOL0     H76652   6.966   9.971   3.486  0.6339 -0.3751  3.6303
  568MOL0     H76653   6.809   9.993   3.556  0.4246 -1.6513 -1.7266
  568MOL0     H76654   6.839  10.057   3.310  1.4541 -0.0687 -0.9118
  568MOL0     H76655   6.953  10.175   3.343  0.5125 -2.6244 -2.7781
  568MOL0     H76656   6.650  10.189   3.405 -0.3781  2.2094  1.5752
  568MOL0     H76657   6.771  10.306   3.459  1.5086  0.7205 -0.7278
  568MOL0     H76658   6.699  10.225   3.182  2.2395  0.4005 -0.5960
  568MOL0     H76659   6.816  10.354   3.205 -0.8476  1.3692  0.9308
  568MOL0     H76660   6.632  10.484   3.162 -2.1367 -1.7439 -1.1772
  568MOL0     H76661   6.630  10.469   3.334 -0.0952 -1.5168  0.0619
  568MOL0     H76662   7.281   9.896   3.424 -0.9693  0.9514 -0.0594
  568MOL0     H76663   7.364   9.825   3.180 -0.5532  1.5588 -2.0698
  568MOL0     H76664   7.776   9.901   2.991 -1.1852 -2.6676  1.1090
  568MOL0     H76665   7.945   9.867   2.824  0.8894 -0.8796 -1.8784
  568MOL0     H76666   8.208  10.290   1.604 -2.1579 -0.1251  1.5504
  568MOL0     H76667   8.446  10.339   1.599  1.0725 -0.1909  0.9698
  568MOL0     H76668   8.788  10.654   1.695 -1.3263 -2.2330  0.7321
  568MOL0     H76669   9.007  10.763   1.646 -3.1977  1.7716  1.6210
  568MOL0     H76670   9.210  10.730   1.599 -1.7030 -0.6827 -0.5528
  568MOL0     H76671   9.327  10.774   1.481  0.7441 -1.5797  1.0627
  568MOL0     H76672   9.078  10.947   1.578  0.0436  2.9201 -0.7525
  568MOL0     H76673   9.183  11.002   1.445  1.2962 -2.0545  0.1882
  568MOL0     H76674   9.369  11.037   1.570  1.9205 -0.0950  0.9521
  568MOL0     H76675   9.292  10.930   1.698 -3.2103 -1.9279 -2.0505
  568MOL0     H76676   9.169  11.193   1.621 -0.0312  2.4370  0.6288
  568MOL0     H76677   9.307  11.169   1.740  1.6142 -1.4361 -1.6632
  568MOL0     H76678   8.997  11.028   1.976  3.1694 -1.1433  0.9133
  568MOL0     H76679   8.968  10.646   1.228 -1.4748  0.8663 -0.6216
  568MOL0     H76680   8.753  10.580   1.273  2.1507  2.8803 -1.0000
  569MOL0     O76681   2.862   0.751   4.537  0.5916  0.6748 -0.3082
  569MOL0     C76682   2.896   0.851   4.481  0.4332 -0.3552  0.1216
  569MOL0     O76683   2.809   0.951   4.450  0.1639  0.7169 -0.0973
  569MOL0     C76684   2.676   0.926   4.474 -0.0055 -0.5596  1.2960
  569MOL0     C76685   2.592   0.874   4.369 -1.0682 -0.4271  0.1859
  569MOL0     C76686   2.453   0.882   4.386 -0.2104 -0.5143 -1.4348
  569MOL0     C76687   2.404   0.928   4.512 -0.3045 -0.9318 -0.9718
  569MOL0     O76688   2.271   0.939   4.546  0.2935  0.9064 -0.0796
  569MOL0     C76689   2.194   1.032   4.470  0.3000 -0.2916 -0.0498
  569MOL0     C76690   2.051   1.016   4.505 -0.4369  0.9690  0.4072
  569MOL0     C76691   2.027   1.054   4.654 -0.6672 -0.2957  0.8703
  569MOL0     C76692   1.868   1.052   4.666 -0.4484 -0.2253 -0.1518
  569MOL0     C76693   1.793   1.074   4.800  0.2392  0.8283 -0.8082
  569MOL0     C76694   1.639   1.054   4.789  0.3075 -0.0494 -0.3266
  569MOL0     C76695   1.573   1.110   4.912  0.4025 -0.0055 -0.2002
  569MOL0     C76696   1.549   1.263   4.901 -0.2816 -1.1910 -0.1442
  569MOL0     N76697   1.412   1.309   4.856  0.1862 -0.7199  0.7507
  569MOL0     C76698   1.291   1.249   4.853  0.0624  0.1176 -0.0334
  569MOL0     C76699   1.202   1.332   4.804 -0.0391  0.6992 -0.7444
  569MOL0     C76700   1.063   1.299   4.760 -0.1042  0.0292  0.0455
  569MOL0     C76701   0.971   1.281   4.887 -0.1542 -0.2999  0.3112
  569MOL0     C76702   0.837   1.214   4.854  0.7246  0.3855 -0.6128
  569MOL0     C76703   0.749   1.289   4.750 -0.0855  0.5614  0.1773
  569MOL0     O76704   0.711   1.193   4.659  0.6546  0.0237  0.6472
  569MOL0     C76705   0.590   1.122   4.667 -0.2316  1.5083 -0.0932
  569MOL0     C76706   0.532   1.057   4.555 -0.1525  0.6662 -0.8654
  569MOL0     C76707   0.404   1.001   4.547 -0.5480  0.3153 -0.0945
  569MOL0     C76708   0.357   0.943   4.411 -0.6254 -0.3926  0.0229
  569MOL0     C76709   0.329   0.997   4.670 -0.2563 -0.3145  0.1579
  569MOL0     C76710   0.199   0.935   4.684  0.2622  0.2534 -0.2846
  569MOL0     O76711   0.088   1.018   4.662  0.0129  0.0755 -0.1074
  569MOL0     C76712  -0.038   0.975   4.655  0.1290  1.1590  0.5812
  569MOL0     C76713  -0.082   0.847   4.609  0.9212 -0.1134 -0.3279
  569MOL0     C76714  -0.216   0.836   4.562  0.1621  0.3977 -0.3086
  569MOL0     C76715  -0.314   0.931   4.594 -0.7071  0.0729  0.8348
  569MOL0     O76716  -0.448   0.901   4.559  0.5052  0.2680 -0.2116
  569MOL0     C76717  -0.543   1.010   4.569 -0.1140 -0.3376  0.7220
  569MOL0     C76718  -0.684   0.966   4.522  0.0298  0.0583  0.0220
  569MOL0     C76719  -0.810   1.055   4.565 -0.7526  0.1568  0.3693
  569MOL0     C76720  -0.930   1.034   4.470 -0.6325  0.1867 -0.3345
  569MOL0     C76721  -1.060   1.083   4.535 -0.0078  0.0780 -1.1394
  569MOL0     C76722  -1.065   1.235   4.554  0.4393 -0.0414  0.7675
  569MOL0     C76723  -1.104   1.323   4.433  0.2496  0.0464  0.1115
  569MOL0     C76724  -1.030   1.455   4.439  0.1800 -1.2696 -0.5539
  569MOL0    Cl76725  -0.858   1.435   4.391  0.6750  0.1215  0.0495
  569MOL0     C76726  -0.271   1.045   4.659 -0.0253 -0.0661  0.4342
  569MOL0     C76727  -0.132   1.068   4.684  0.8329 -0.1811 -0.5234
  569MOL0     O76728   0.195   0.811   4.692 -0.1166 -0.0812  0.5708
  569MOL0     C76729   0.397   1.038   4.785  0.6560 -0.0620 -0.3331
  569MOL0     C76730   0.514   1.109   4.785 -0.7795 -0.0592  0.0462
  569MOL0     N76731   1.270   1.452   4.788  0.0967 -0.3971  1.0800
  569MOL0     N76732   1.395   1.437   4.816 -0.5553 -0.0225 -1.0217
  569MOL0     C76733   2.494   0.960   4.622 -0.8918  0.4842 -0.5624
  569MOL0     C76734   2.629   0.954   4.603  0.2929 -0.9601 -0.2153
  569MOL0     C76735   3.037   0.873   4.454  0.3076  1.1269 -0.4099
  569MOL0     C76736   3.134   0.788   4.521 -0.1525  0.2120 -0.8327
  569MOL0     C76737   3.274   0.807   4.503  0.4653  0.2582 -0.3315
  569MOL0     C76738   3.316   0.904   4.417 -0.2466 -0.0389 -0.0205
  569MOL0     O76739   3.456   0.913   4.400 -0.3515 -0.4466  0.6543
  569MOL0     C76740   3.497   1.030   4.329 -0.5260  0.1797 -0.3552
  569MOL0     C76741   3.649   1.051   4.324  0.5504 -0.1945  0.1890
  569MOL0     C76742   3.713   0.963   4.211  0.3152  0.0074  1.0488
  569MOL0     C76743   3.859   1.002   4.188 -0.5529 -0.0261 -0.0684
  569MOL0     C76744   3.865   1.106   4.085 -0.9198 -0.8533 -0.3132
  569MOL0     C76745   3.846   1.185   3.994 -0.6854 -0.9904 -0.4390
  569MOL0     C76746   3.223   0.967   4.334 -1.0673 -0.3466 -0.3150
  569MOL0     C76747   3.093   0.955   4.358  0.9095  1.0835  0.4352
  569MOL0     H76748   2.632   0.838   4.275 -3.5444 -0.1194 -1.0659
  569MOL0     H76749   2.376   0.864   4.312  2.0193 -0.8510 -3.7901
  569MOL0     H76750   2.217   1.127   4.519  0.5837 -0.3806 -0.0028
  569MOL0     H76751   2.207   1.021   4.362 -1.7245  0.5945 -0.4181
  569MOL0     H76752   1.994   1.084   4.441 -0.3200  0.7522  0.0731
  569MOL0     H76753   2.031   0.911   4.483 -2.7424  1.4115  0.1047
  569MOL0     H76754   2.058   0.976   4.725  1.7487 -0.1991 -0.0023
  569MOL0     H76755   2.072   1.154   4.665  0.4284 -0.6571 -0.1599
  569MOL0     H76756   1.823   1.126   4.599 -0.0057  1.7918  1.6288
  569MOL0     H76757   1.844   0.949   4.638  0.3543 -0.9531  1.6576
  569MOL0     H76758   1.834   0.998   4.868 -0.1822 -0.7549 -2.2439
  569MOL0     H76759   1.818   1.171   4.842  0.1424 -0.3354  2.2104
  569MOL0     H76760   1.598   1.101   4.698 -2.3632 -0.4888  0.5586
  569MOL0     H76761   1.619   0.947   4.798 -3.9085  0.6332  1.1870
  569MOL0     H76762   1.478   1.059   4.935 -1.5937  1.9867 -3.2442
  569MOL0     H76763   1.637   1.094   4.999  0.6124 -0.6865 -0.4725
  569MOL0     H76764   1.625   1.308   4.836  0.1245  0.3189  1.3322
  569MOL0     H76765   1.557   1.306   5.001  0.3091  0.3518 -0.8269
  569MOL0     H76766   1.265   1.153   4.897  0.5636 -0.4470 -0.9420
  569MOL0     H76767   1.029   1.383   4.700 -2.3356  0.6154  1.9797
  569MOL0     H76768   1.060   1.208   4.700 -0.2086  0.7316 -1.0251
  569MOL0     H76769   0.950   1.375   4.938 -0.1568 -1.5252  2.6834
  569MOL0     H76770   1.033   1.218   4.952 -0.4584 -0.5971  0.3129
  569MOL0     H76771   0.775   1.206   4.943 -0.8872  0.5637 -1.6752
  569MOL0     H76772   0.850   1.108   4.832 -2.5553 -0.6915  1.9205
  569MOL0     H76773   0.800   1.371   4.697 -3.9609  2.3737 -1.1302
  569MOL0     H76774   0.658   1.328   4.797  0.2375  1.2824  0.2205
  569MOL0     H76775   0.588   1.054   4.462  1.6277 -0.3282  0.1694
  569MOL0     H76776   0.351   0.834   4.415  0.8559 -0.6135 -2.1529
  569MOL0     H76777   0.255   0.972   4.381 -0.6667 -0.5661 -0.0027
  569MOL0     H76778   0.428   0.971   4.332 -0.6602  1.5825  0.6298
  569MOL0     H76779  -0.015   0.767   4.578  0.0524 -0.3707 -1.6075
  569MOL0     H76780  -0.253   0.746   4.516  1.7054  0.7670 -2.4049
  569MOL0     H76781  -0.550   1.047   4.672 -1.5485  1.0715  0.1504
  569MOL0     H76782  -0.513   1.090   4.501  1.8289 -1.0799  0.6373
  569MOL0     H76783  -0.676   0.962   4.413  0.2377  0.1807  0.0327
  569MOL0     H76784  -0.694   0.867   4.567  0.4632  0.6325  1.4293
  569MOL0     H76785  -0.781   1.159   4.548 -1.6158  0.8147  2.5803
  569MOL0     H76786  -0.832   1.047   4.672  0.0954  1.7330  0.6847
  569MOL0     H76787  -0.909   1.086   4.376 -0.1055  0.4415 -0.0828
  569MOL0     H76788  -0.936   0.926   4.453  1.5010 -0.3050  1.4497
  569MOL0     H76789  -1.070   1.037   4.634  0.8492 -1.6872 -1.8241
  569MOL0     H76790  -1.152   1.048   4.487 -0.6787  3.2253 -2.4007
  569MOL0     H76791  -1.135   1.255   4.636 -0.5716  1.3708 -0.3945
  569MOL0     H76792  -0.969   1.269   4.595  0.4230  0.4624  0.3940
  569MOL0     H76793  -1.214   1.322   4.437  0.0907 -4.8077  0.4350
  569MOL0     H76794  -1.082   1.283   4.333 -1.9259  2.7462 -1.6110
  569MOL0     H76795  -1.046   1.513   4.530 -2.8341  2.2180 -3.0092
  569MOL0     H76796  -1.081   1.521   4.367  0.4989  2.7014  2.5448
  569MOL0     H76797  -0.344   1.124   4.675  0.8729  0.5831  1.4610
  569MOL0     H76798  -0.114   1.165   4.730 -1.6819  0.3621 -0.5368
  569MOL0     H76799   0.352   1.021   4.883  0.4125 -0.3264 -0.4868
  569MOL0     H76800   0.550   1.132   4.885 -1.0694 -1.6021  0.5249
  569MOL0     H76801   2.451   0.991   4.717 -0.7338  1.1134 -0.6929
  569MOL0     H76802   2.704   0.998   4.669  3.4618 -3.3977 -1.8894
  569MOL0     H76803   3.118   0.696   4.578  2.1062 -0.9955 -2.0145
  569MOL0     H76804   3.345   0.731   4.535 -1.5389 -1.5084  0.1384
  569MOL0     H76805   3.459   1.027   4.227 -1.8292 -3.3086  0.0959
  569MOL0     H76806   3.442   1.112   4.376 -0.7496  0.2083 -0.6670
  569MOL0     H76807   3.683   1.021   4.424 -1.6266  0.1979  1.0989
  569MOL0     H76808   3.673   1.158   4.316  0.1604  0.1691  2.8621
  569MOL0     H76809   3.663   0.972   4.114  2.3829  1.2734  0.0577
  569MOL0     H76810   3.712   0.858   4.241 -0.1715 -0.3439 -0.1279
  569MOL0     H76811   3.904   0.910   4.150  0.3437  1.5183 -3.0983
  569MOL0     H76812   3.914   1.021   4.280  2.5128 -0.8653 -1.5678
  569MOL0     H76813   3.825   1.255   3.916 -3.6679 -0.7185  0.4550
  569MOL0     H76814   3.259   1.041   4.263  0.4076  0.3188  1.0615
  569MOL0     H76815   3.028   1.004   4.286  0.0279 -2.2238 -1.2597
  570MOL0     O76816   8.977   0.121   4.770  0.0370 -0.1289  0.7871
  570MOL0     C76817   9.068   0.159   4.846  0.3867  1.0249  0.3397
  570MOL0     O76818   9.045   0.181   4.983 -0.0191 -0.5848  0.4791
  570MOL0     C76819   8.934   0.115   5.037  0.6814 -0.1837  0.0106
  570MOL0     C76820   8.946  -0.001   5.109  0.7052 -0.4711  0.3257
  570MOL0     C76821   8.836  -0.071   5.154  0.0368  0.1084 -0.6359
  570MOL0     C76822   8.704  -0.044   5.126 -0.6823  1.1803  0.3333
  570MOL0     O76823   8.611  -0.128   5.170  0.1101 -1.1858 -0.5117
  570MOL0     C76824   8.484  -0.121   5.102  0.6460  0.4561 -0.5962
  570MOL0     C76825   8.408  -0.251   5.135 -0.0604 -0.1278 -0.2326
  570MOL0     C76826   8.303  -0.309   5.030 -0.9703 -0.0335 -0.8666
  570MOL0     C76827   8.388  -0.387   4.923  0.2252 -0.5681  0.0085
  570MOL0     C76828   8.314  -0.467   4.811 -0.2568 -0.1992  0.0420
  570MOL0     C76829   8.403  -0.510   4.695 -0.4631 -0.1611 -0.3998
  570MOL0     C76830   8.330  -0.609   4.589 -0.1777 -0.0813 -0.7259
  570MOL0     C76831   8.246  -0.561   4.480 -0.5445 -0.3198 -0.0734
  570MOL0     N76832   8.146  -0.464   4.518 -0.0516  0.8010  0.5715
  570MOL0     C76833   8.039  -0.494   4.593 -0.2331  0.2075 -0.1281
  570MOL0     C76834   7.988  -0.368   4.610  0.2352 -0.2179  1.0109
  570MOL0     C76835   7.854  -0.333   4.674  0.0772 -0.0808 -0.0737
  570MOL0     C76836   7.877  -0.330   4.817 -0.0231 -0.2182 -1.3766
  570MOL0     C76837   7.780  -0.236   4.890 -0.0206 -0.0824  0.4661
  570MOL0     C76838   7.792  -0.238   5.045 -0.4009 -0.4447 -0.3778
  570MOL0     O76839   7.905  -0.156   5.078 -0.0327 -0.0908 -0.4981
  570MOL0     C76840   7.957  -0.160   5.208 -0.5548  0.2080 -0.6311
  570MOL0     C76841   7.865  -0.187   5.323  0.6793  0.6802 -1.4098
  570MOL0     C76842   7.895  -0.183   5.461 -0.2338  1.1494  0.5682
  570MOL0     C76843   7.787  -0.180   5.567 -0.2139 -0.1064  0.2771
  570MOL0     C76844   8.033  -0.140   5.485  0.7427  0.4423 -0.1509
  570MOL0     C76845   8.085  -0.119   5.621 -0.2058  0.1813  0.0167
  570MOL0     O76846   8.121   0.000   5.666  0.5191 -1.0863  0.5110
  570MOL0     C76847   8.176   0.022   5.793 -0.0221 -0.6015 -0.2327
  570MOL0     C76848   8.246   0.140   5.812 -0.3019  0.0632 -0.8834
  570MOL0     C76849   8.289   0.166   5.945 -0.0620  0.5899  0.9060
  570MOL0     C76850   8.255   0.090   6.056  1.1765 -0.0947  0.1217
  570MOL0     O76851   8.306   0.142   6.165  0.5248 -0.6021  0.0769
  570MOL0     C76852   8.329   0.045   6.264 -0.4724  0.4776  0.3925
  570MOL0     C76853   8.435   0.116   6.353  0.6897  0.2993 -0.2764
  570MOL0     C76854   8.521   0.005   6.429 -0.1097 -0.6353  0.3088
  570MOL0     C76855   8.658  -0.004   6.357 -0.2676  0.1674  0.1798
  570MOL0     C76856   8.752  -0.097   6.432  0.6165  0.1419  0.0202
  570MOL0     C76857   8.712  -0.252   6.454 -0.2923  0.9941  0.2034
  570MOL0     C76858   8.677  -0.343   6.326 -0.1671 -0.1970 -0.0524
  570MOL0     C76859   8.788  -0.341   6.215  1.4177 -0.2430 -0.3851
  570MOL0    Cl76860   8.845  -0.504   6.195 -0.3105 -0.1114 -0.0543
  570MOL0     C76861   8.179  -0.024   6.041  0.0530  0.1526 -0.3450
  570MOL0     C76862   8.150  -0.057   5.910  0.2065  0.7239  0.3522
  570MOL0     O76863   8.104  -0.226   5.689 -1.0027 -0.7448 -0.1602
  570MOL0     C76864   8.128  -0.118   5.386 -0.5525 -0.7194  0.0736
  570MOL0     C76865   8.089  -0.120   5.249  0.3749  0.7190 -0.7945
  570MOL0     N76866   8.064  -0.280   4.543 -0.2935 -0.5961 -0.3743
  570MOL0     N76867   8.159  -0.338   4.487 -0.1299 -0.1580  0.1553
  570MOL0     C76868   8.687   0.073   5.047  0.0162 -1.3961  0.9344
  570MOL0     C76869   8.800   0.157   5.009 -0.6729  0.1463 -0.4230
  570MOL0     C76870   9.197   0.200   4.784  0.3754 -0.8608  0.1434
  570MOL0     C76871   9.234   0.188   4.645 -0.2348 -0.4119 -0.1493
  570MOL0     C76872   9.347   0.255   4.592  0.0292  0.2257 -0.0120
  570MOL0     C76873   9.438   0.320   4.672 -0.1465 -0.8144 -0.3849
  570MOL0     O76874   9.561   0.349   4.609 -0.0243 -0.6400  0.8411
  570MOL0     C76875   9.651   0.439   4.682  0.3368 -0.0647  0.3244
  570MOL0     C76876   9.735   0.522   4.591  0.3501 -0.7432  0.3344
  570MOL0     C76877   9.822   0.440   4.497 -0.2079  0.3927  0.4639
  570MOL0     C76878   9.916   0.527   4.407  0.3184 -0.1940 -0.5213
  570MOL0     C76879   9.842   0.589   4.298 -0.4667 -1.0607 -0.6598
  570MOL0     C76880   9.777   0.658   4.217  0.0686 -0.1936  1.0867
  570MOL0     C76881   9.405   0.333   4.809 -0.3869  0.0074  0.9985
  570MOL0     C76882   9.291   0.281   4.860  1.3180 -0.4740 -0.0517
  570MOL0     H76883   9.043  -0.036   5.143  0.7006  1.0605  2.0898
  570MOL0     H76884   8.855  -0.155   5.219 -3.2059 -1.0696 -0.9927
  570MOL0     H76885   8.422  -0.032   5.121 -1.3531 -0.6974 -1.4904
  570MOL0     H76886   8.492  -0.118   4.993 -2.3299 -2.2501 -1.0234
  570MOL0     H76887   8.481  -0.328   5.159  0.5387 -0.5157 -2.9414
  570MOL0     H76888   8.350  -0.232   5.226 -1.2806 -4.7201  0.2149
  570MOL0     H76889   8.225  -0.361   5.086  1.3210  1.9163  4.8735
  570MOL0     H76890   8.262  -0.227   4.970 -0.6088  0.4041 -0.5196
  570MOL0     H76891   8.456  -0.316   4.874 -0.2523 -0.6949 -0.8549
  570MOL0     H76892   8.458  -0.450   4.979 -1.2894 -0.4025  2.2231
  570MOL0     H76893   8.263  -0.552   4.857 -1.7048  0.6716  0.0986
  570MOL0     H76894   8.235  -0.402   4.773  1.8041  2.0631 -0.6790
  570MOL0     H76895   8.440  -0.429   4.630  1.1607 -2.4836 -2.5472
  570MOL0     H76896   8.491  -0.565   4.730  1.5471  3.5239  1.0225
  570MOL0     H76897   8.414  -0.662   4.541  0.3964  0.8877 -0.8282
  570MOL0     H76898   8.278  -0.683   4.651  1.2654  1.5703  2.6919
  570MOL0     H76899   8.183  -0.640   4.437 -0.5423 -0.4851  0.2269
  570MOL0     H76900   8.314  -0.526   4.402  0.1721 -2.2147 -0.3689
  570MOL0     H76901   8.003  -0.592   4.621  4.4038 -1.3271  1.4512
  570MOL0     H76902   7.806  -0.238   4.647  0.2242 -0.0734 -0.3124
  570MOL0     H76903   7.789  -0.416   4.645 -0.8285 -0.1101  1.9097
  570MOL0     H76904   7.972  -0.280   4.839  0.0693  0.7334 -3.6695
  570MOL0     H76905   7.874  -0.434   4.850 -2.9020 -1.7173 -5.6278
  570MOL0     H76906   7.680  -0.266   4.857 -0.1404 -0.2926  1.0057
  570MOL0     H76907   7.791  -0.138   4.842 -0.9492  0.5492  1.4720
  570MOL0     H76908   7.809  -0.338   5.085 -2.5527  0.3995  3.0157
  570MOL0     H76909   7.701  -0.194   5.088 -0.1941 -0.8414  0.4852
  570MOL0     H76910   7.762  -0.216   5.307 -0.0839  0.9095  2.3282
  570MOL0     H76911   7.693  -0.148   5.522 -0.8718 -2.6423 -0.3250
  570MOL0     H76912   7.755  -0.281   5.594 -1.7396 -0.1248 -1.4478
  570MOL0     H76913   7.821  -0.116   5.650 -3.6647  1.3097  0.7476
  570MOL0     H76914   8.265   0.210   5.731 -0.4288 -1.4453 -2.2663
  570MOL0     H76915   8.352   0.251   5.968 -1.7242  2.5258 -1.1874
  570MOL0     H76916   8.241   0.019   6.322  0.2083  1.4345  1.9084
  570MOL0     H76917   8.373  -0.047   6.222  1.6354  1.0629  1.1547
  570MOL0     H76918   8.499   0.191   6.307 -0.6637  2.2819  0.9192
  570MOL0     H76919   8.377   0.172   6.427 -0.2687 -0.3003 -0.5539
  570MOL0     H76920   8.475  -0.093   6.420 -1.8216  0.0099  1.5767
  570MOL0     H76921   8.526   0.033   6.535 -2.2441 -0.5226  0.4107
  570MOL0     H76922   8.641  -0.046   6.257  1.5658  2.1702 -1.0620
  570MOL0     H76923   8.705   0.093   6.342 -2.6198  1.9131  3.1991
  570MOL0     H76924   8.773  -0.057   6.532 -0.5690 -0.9549  0.7355
  570MOL0     H76925   8.849  -0.105   6.381  0.4606 -0.2174 -0.2254
  570MOL0     H76926   8.792  -0.304   6.507 -1.5372 -1.3036 -0.0262
  570MOL0     H76927   8.627  -0.256   6.524 -1.0191 -2.3923 -0.6764
  570MOL0     H76928   8.587  -0.312   6.271  0.7819 -0.7340 -1.9899
  570MOL0     H76929   8.654  -0.443   6.365 -2.6061 -0.4454 -1.8426
  570MOL0     H76930   8.873  -0.287   6.258  0.4293  0.2598  1.0154
  570MOL0     H76931   8.763  -0.281   6.127  1.6172 -0.4483 -0.5819
  570MOL0     H76932   8.146  -0.089   6.123  0.5292 -1.8085 -1.6397
  570MOL0     H76933   8.081  -0.139   5.893  0.3820  1.1467 -3.0632
  570MOL0     H76934   8.225  -0.079   5.414 -1.0759  0.3790  0.4022
  570MOL0     H76935   8.155  -0.087   5.170  0.3658 -1.0763 -1.5970
  570MOL0     H76936   8.587   0.110   5.028  0.0107 -1.1991  1.3512
  570MOL0     H76937   8.780   0.254   4.965 -2.1115 -0.3302 -0.8852
  570MOL0     H76938   9.180   0.127   4.573  0.7757 -1.8149  0.2531
  570MOL0     H76939   9.378   0.237   4.489  1.0308  1.1033  0.1227
  570MOL0     H76940   9.600   0.502   4.756 -0.2303  0.3620 -0.4177
  570MOL0     H76941   9.711   0.370   4.742 -1.1772 -2.1769 -0.4418
  570MOL0     H76942   9.792   0.577   4.666 -0.4325 -0.8452  1.0169
  570MOL0     H76943   9.661   0.590   4.546  0.9334  0.0251  0.5200
  570MOL0     H76944   9.769   0.371   4.431  0.6123  0.6552 -0.5031
  570MOL0     H76945   9.886   0.387   4.568 -1.6770  0.1029  1.6200
  570MOL0     H76946   9.998   0.466   4.368  0.9598  2.3170 -3.6111
  570MOL0     H76947   9.955   0.610   4.468 -2.3570  2.3180 -2.0058
  570MOL0     H76948   9.723   0.723   4.151  1.4571 -1.8555 -1.8880
  570MOL0     H76949   9.462   0.388   4.883  1.2160  0.1979 -0.3231
  570MOL0     H76950   9.260   0.298   4.962 -0.0490 -0.0469 -0.5171
  571MOL0     O76951  10.890   2.149   1.405  0.4114  0.2488 -0.3603
  571MOL0     C76952  10.860   2.115   1.518  0.4858 -1.0380  0.2519
  571MOL0     O76953  10.948   2.086   1.619 -0.3379  0.0763 -0.6976
  571MOL0     C76954  11.089   2.083   1.595  0.0383  0.1386 -0.4894
  571MOL0     C76955  11.156   1.999   1.509  0.4801 -1.2250  0.8222
  571MOL0     C76956  11.295   1.979   1.513  0.6034 -0.4772 -1.0820
  571MOL0     C76957  11.365   2.037   1.617  0.1699  0.3074 -0.7890
  571MOL0     O76958  11.500   2.017   1.650  0.3041  0.3772  0.5214
  571MOL0     C76959  11.578   1.915   1.589  0.6603 -0.3791  0.6539
  571MOL0     C76960  11.695   1.871   1.689  0.2938  0.7868  0.0126
  571MOL0     C76961  11.781   1.745   1.652 -0.7958 -0.4507 -0.5589
  571MOL0     C76962  11.908   1.726   1.750 -0.1859 -0.0179 -0.5504
  571MOL0     C76963  11.899   1.608   1.851  0.2926 -0.1314 -0.2388
  571MOL0     C76964  11.786   1.616   1.950  0.3068  0.0878  1.2728
  571MOL0     C76965  11.816   1.517   2.060  0.5438 -0.9724  0.4698
  571MOL0     C76966  11.835   1.372   2.013 -0.6005  0.2490 -0.5971
  571MOL0     N76967  11.714   1.326   1.940  0.3108 -0.2223 -0.1528
  571MOL0     C76968  11.598   1.287   2.006 -0.0340 -0.4633 -0.5379
  571MOL0     C76969  11.530   1.244   1.899 -0.1533 -0.8998  0.5644
  571MOL0     C76970  11.392   1.201   1.885  0.4098  0.0201  0.6980
  571MOL0     C76971  11.333   1.185   1.743 -0.0572  0.0604 -0.4179
  571MOL0     C76972  11.186   1.152   1.733  0.8372  0.4423 -0.5488
  571MOL0     C76973  11.128   1.049   1.834  0.5667  0.8561  0.3885
  571MOL0     O76974  10.998   1.012   1.789 -0.1613 -0.5497  0.3235
  571MOL0     C76975  10.925   0.941   1.877 -0.0085  1.0430  0.0683
  571MOL0     C76976  10.795   0.920   1.828  0.0371  0.3410 -0.3274
  571MOL0     C76977  10.699   0.858   1.911  0.8536 -0.7149 -0.1019
  571MOL0     C76978  10.557   0.854   1.862  0.1686 -0.1236  0.3256
  571MOL0     C76979  10.737   0.806   2.033  0.1793 -0.1334  0.1282
  571MOL0     C76980  10.638   0.743   2.123  0.1272  1.0341  0.0813
  571MOL0     O76981  10.651   0.770   2.259 -0.4549 -0.0625 -0.8884
  571MOL0     C76982  10.566   0.713   2.355 -0.4484  0.7147 -0.0275
  571MOL0     C76983  10.614   0.669   2.479 -0.0511 -1.3058 -0.2055
  571MOL0     C76984  10.529   0.632   2.583 -0.0106 -0.6693 -0.3580
  571MOL0     C76985  10.391   0.619   2.562  0.6549 -0.7983  0.1241
  571MOL0     O76986  10.301   0.585   2.660 -0.5455 -0.7764 -0.3665
  571MOL0     C76987  10.339   0.602   2.803 -0.2450  0.2875  0.3859
  571MOL0     C76988  10.339   0.751   2.840 -0.2339  0.2342 -0.2134
  571MOL0     C76989  10.403   0.782   2.973  0.3775  0.8749  0.4290
  571MOL0     C76990  10.306   0.740   3.085  0.1347  0.7300  0.3766
  571MOL0     C76991  10.359   0.781   3.227  0.3104  0.2381  0.6013
  571MOL0     C76992  10.266   0.736   3.336  0.4577  0.5113 -0.3946
  571MOL0     C76993  10.248   0.582   3.355 -0.6983  0.6827  0.2334
  571MOL0     C76994  10.189   0.542   3.487  0.0024 -0.4852 -1.1615
  571MOL0    Cl76995  10.139   0.373   3.470  0.5795 -0.0746  0.2967
  571MOL0     C76996  10.341   0.645   2.436 -0.1918 -0.1128  1.0051
  571MOL0     C76997  10.428   0.700   2.335  0.3362 -0.2569 -0.3408
  571MOL0     O76998  10.560   0.659   2.078 -0.1595  0.5160 -0.0619
  571MOL0     C76999  10.869   0.823   2.082  0.2754 -0.1778 -0.0152
  571MOL0     C77000  10.964   0.886   2.000 -0.1549  0.3619 -0.7688
  571MOL0     N77001  11.609   1.247   1.785  0.8046  1.0301  0.6319
  571MOL0     N77002  11.702   1.313   1.811 -0.4997  0.2234  0.1550
  571MOL0     C77003  11.295   2.124   1.707  0.0549  0.9442  0.1334
  571MOL0     C77004  11.158   2.156   1.689 -1.0674 -0.0132 -0.3606
  571MOL0     C77005  10.715   2.111   1.554 -0.2892 -0.6968 -0.9799
  571MOL0     C77006  10.679   2.096   1.690 -0.1595  0.0239 -0.1414
  571MOL0     C77007  10.541   2.086   1.717  0.7910  0.3048  0.0665
  571MOL0     C77008  10.451   2.103   1.621  0.3104 -0.4035 -0.1819
  571MOL0     O77009  10.317   2.091   1.661 -0.1981  0.8352 -1.1806
  571MOL0     C77010  10.202   2.106   1.572 -0.1410  0.0037 -0.1212
  571MOL0     C77011  10.081   2.069   1.659  0.1830 -1.0461  0.5452
  571MOL0     C77012  10.069   2.170   1.779 -0.9071  0.3020 -0.0877
  571MOL0     C77013   9.977   2.120   1.890  0.0723  0.4648 -0.5110
  571MOL0     C77014  10.050   2.051   1.997  0.1946  1.7533  0.4237
  571MOL0     C77015  10.127   2.001   2.082  0.2124 -0.2626  0.3717
  571MOL0     C77016  10.482   2.120   1.486 -0.0547 -0.6865 -0.1810
  571MOL0     C77017  10.622   2.118   1.450  0.5103  0.6611  0.6151
  571MOL0     H77018  11.101   1.949   1.430 -1.8171  2.0409  0.1231
  571MOL0     H77019  11.335   1.918   1.433  0.3048 -2.1705  0.0081
  571MOL0     H77020  11.516   1.827   1.574  3.0991 -2.2651  0.9055
  571MOL0     H77021  11.613   1.946   1.490  2.7418 -0.2665  1.3640
  571MOL0     H77022  11.754   1.963   1.681  0.2770  0.8254  0.3313
  571MOL0     H77023  11.660   1.844   1.789  0.8211 -0.1587 -0.0457
  571MOL0     H77024  11.718   1.656   1.649 -0.3084 -0.8763  0.9381
  571MOL0     H77025  11.812   1.769   1.550 -0.3099  2.0898  0.1038
  571MOL0     H77026  11.988   1.689   1.685  1.7533 -4.6372  3.7510
  571MOL0     H77027  11.943   1.825   1.781  1.8783 -0.4343 -1.4070
  571MOL0     H77028  11.891   1.516   1.793  2.1188  0.4987 -1.6219
  571MOL0     H77029  11.997   1.611   1.899  0.6098 -1.0745 -0.8060
  571MOL0     H77030  11.791   1.717   1.993 -0.4122 -0.2229  2.1160
  571MOL0     H77031  11.690   1.609   1.897  0.0986  1.6230  1.3999
  571MOL0     H77032  11.906   1.557   2.108  1.5423  1.6494 -3.1213
  571MOL0     H77033  11.731   1.528   2.127 -1.4271  3.6234 -2.2500
  571MOL0     H77034  11.863   1.298   2.088 -2.3016 -0.4769 -0.6439
  571MOL0     H77035  11.917   1.367   1.941  0.4100  3.0137  0.2275
  571MOL0     H77036  11.571   1.283   2.111 -2.8903 -0.1877 -1.1795
  571MOL0     H77037  11.386   1.106   1.940  0.4425  1.0901  2.6367
  571MOL0     H77038  11.330   1.268   1.944 -0.3083  2.6501 -2.7448
  571MOL0     H77039  11.387   1.108   1.688 -0.0765 -0.6492  0.5290
  571MOL0     H77040  11.358   1.278   1.691 -4.2642  2.1768  0.8371
  571MOL0     H77041  11.174   1.111   1.632  2.2370 -1.4050  0.0017
  571MOL0     H77042  11.123   1.242   1.730 -1.7082 -1.2423 -0.4878
  571MOL0     H77043  11.130   1.098   1.932 -0.0984  2.4026 -0.3393
  571MOL0     H77044  11.192   0.961   1.840  1.6286  1.6649  1.4651
  571MOL0     H77045  10.768   0.964   1.732 -0.6698 -2.3687 -1.4559
  571MOL0     H77046  10.556   0.906   1.766  0.3511 -1.2390 -0.3076
  571MOL0     H77047  10.514   0.754   1.849 -4.4035  1.5206  0.7512
  571MOL0     H77048  10.493   0.908   1.932  1.0981 -0.1672  1.2292
  571MOL0     H77049  10.718   0.695   2.492 -0.1446  0.5822 -2.4919
  571MOL0     H77050  10.572   0.619   2.682 -1.1941  0.9514  0.4201
  571MOL0     H77051  10.269   0.558   2.875 -0.6837  0.4325  0.0473
  571MOL0     H77052  10.437   0.561   2.829 -1.1138 -1.3267  1.3111
  571MOL0     H77053  10.387   0.803   2.756 -0.1023  0.2795 -0.1107
  571MOL0     H77054  10.236   0.788   2.839 -0.3431 -0.0751 -0.5653
  571MOL0     H77055  10.423   0.889   2.977 -1.1594  1.1813  0.1807
  571MOL0     H77056  10.495   0.723   2.979 -0.6862 -1.4349 -2.8312
  571MOL0     H77057  10.212   0.789   3.060  0.0069 -0.1882 -1.1197
  571MOL0     H77058  10.286   0.632   3.085 -1.3932  0.9902  0.0790
  571MOL0     H77059  10.363   0.889   3.242  0.9002  0.2545  0.3409
  571MOL0     H77060  10.454   0.731   3.246  0.3715  0.1763  0.1493
  571MOL0     H77061  10.295   0.786   3.429  0.3831  0.2571 -0.2351
  571MOL0     H77062  10.165   0.773   3.315  0.7710  1.0656 -0.9681
  571MOL0     H77063  10.341   0.524   3.351 -0.8845  0.3728  0.3384
  571MOL0     H77064  10.183   0.546   3.275 -0.5366  0.6618  0.1104
  571MOL0     H77065  10.109   0.610   3.516  1.5596  0.0604  2.3299
  571MOL0     H77066  10.265   0.551   3.565  0.6434  1.9826 -1.9817
  571MOL0     H77067  10.234   0.640   2.419  0.0339 -1.2689 -0.2447
  571MOL0     H77068  10.382   0.721   2.239  1.8919 -0.8422 -1.2473
  571MOL0     H77069  10.899   0.782   2.178 -0.7003  0.0788  0.4060
  571MOL0     H77070  11.068   0.885   2.030 -0.4778 -2.9253  0.7097
  571MOL0     H77071  11.357   2.175   1.781  0.9817 -1.1754  0.9036
  571MOL0     H77072  11.103   2.204   1.769  4.9782 -0.6655  4.9986
  571MOL0     H77073  10.752   2.099   1.771  0.4757 -1.7621 -0.5983
  571MOL0     H77074  10.501   2.071   1.816 -0.2141  0.5200 -0.2913
  571MOL0     H77075  10.199   2.211   1.542  0.8056  0.6354  1.8365
  571MOL0     H77076  10.217   2.039   1.486 -1.0685 -0.3868  0.0090
  571MOL0     H77077  10.109   1.972   1.701 -1.2727 -0.9153  1.9014
  571MOL0     H77078   9.985   2.057   1.608 -0.8067 -1.0818  2.3370
  571MOL0     H77079  10.022   2.257   1.733 -2.9790 -0.8208 -0.1994
  571MOL0     H77080  10.163   2.208   1.821 -1.1989  0.5010  0.3957
  571MOL0     H77081   9.895   2.064   1.845 -0.0296 -0.1139  0.3614
  571MOL0     H77082   9.930   2.207   1.936  0.5546 -1.7263  4.9490
  571MOL0     H77083  10.195   1.949   2.146 -0.1634 -0.3651  0.6918
  571MOL0     H77084  10.420   2.137   1.399  0.0833 -3.9753 -1.0614
  571MOL0     H77085  10.655   2.130   1.347 -0.7304 -2.7131 -0.3116
  572MOL0     O77086   9.952   3.490   3.212 -0.1233  0.4186  0.3525
  572MOL0     C77087  10.069   3.457   3.216 -0.8739 -0.2202  0.3674
  572MOL0     O77088  10.156   3.476   3.316  0.1670  0.4184  0.4172
  572MOL0     C77089  10.106   3.519   3.435  0.1460 -0.4742  0.4433
  572MOL0     C77090  10.043   3.433   3.533  0.1166  0.2254  0.1804
  572MOL0     C77091  10.005   3.487   3.657 -0.0733 -0.2036 -0.6218
  572MOL0     C77092  10.015   3.624   3.690 -0.3390 -0.1372 -1.1179
  572MOL0     O77093   9.996   3.659   3.826 -0.1563 -0.1602  0.6620
  572MOL0     C77094   9.996   3.804   3.860 -0.0235  0.9407 -0.2883
  572MOL0     C77095  10.136   3.846   3.915  0.2277 -0.4867 -0.1817
  572MOL0     C77096  10.139   3.985   3.953 -0.3412  0.8628 -0.1624
  572MOL0     C77097  10.279   4.034   3.972  0.1118 -0.3362  0.2932
  572MOL0     C77098  10.271   4.181   4.003  1.0946  0.9062 -0.3369
  572MOL0     C77099  10.402   4.257   4.021  0.8170  0.8867  0.7070
  572MOL0     C77100  10.375   4.403   4.063  0.5812 -0.7658 -1.0712
  572MOL0     C77101  10.502   4.484   4.067 -0.1290  0.2102 -0.4744
  572MOL0     N77102  10.546   4.520   3.927  0.8964  0.7358 -1.3160
  572MOL0     C77103  10.666   4.561   3.891 -0.6270 -0.3433  0.4939
  572MOL0     C77104  10.655   4.583   3.756  0.4881  0.3979 -0.9782
  572MOL0     C77105  10.772   4.636   3.679  0.5594 -0.1195  0.0212
  572MOL0     C77106  10.760   4.612   3.529  0.7151  0.0861  0.3388
  572MOL0     C77107  10.745   4.468   3.486  0.9591 -0.0081 -0.3053
  572MOL0     C77108  10.858   4.384   3.552 -0.0504  0.9875  0.5273
  572MOL0     O77109  10.986   4.436   3.538  0.1131  0.0762 -0.4584
  572MOL0     C77110  11.090   4.381   3.609 -1.0135  0.6917 -0.5587
  572MOL0     C77111  11.079   4.319   3.736 -0.0768 -0.0792 -0.5570
  572MOL0     C77112  11.189   4.278   3.813 -1.3488 -0.0144  0.4862
  572MOL0     C77113  11.172   4.217   3.954  0.8595  0.4092 -0.5485
  572MOL0     C77114  11.321   4.291   3.748 -0.3645 -0.3115  0.3643
  572MOL0     C77115  11.440   4.265   3.820 -0.2910 -0.2015 -0.6900
  572MOL0     O77116  11.543   4.347   3.805  0.5679 -0.0243 -0.5335
  572MOL0     C77117  11.663   4.280   3.842  0.2339 -1.1130 -0.2121
  572MOL0     C77118  11.709   4.186   3.755  0.0472 -0.4992  0.3787
  572MOL0     C77119  11.824   4.115   3.778  0.2228  0.9928 -0.5242
  572MOL0     C77120  11.914   4.156   3.876 -0.4964 -0.8992 -0.6712
  572MOL0     O77121  12.039   4.108   3.885 -0.0222  0.0240  0.5683
  572MOL0     C77122  12.074   3.990   3.810 -0.7873  0.1607 -0.5212
  572MOL0     C77123  12.002   3.853   3.860  0.2935  0.0642 -0.5549
  572MOL0     C77124  12.012   3.737   3.771 -0.0225 -0.6676  0.2020
  572MOL0     C77125  11.955   3.761   3.633 -0.6941 -0.4750 -0.4758
  572MOL0     C77126  11.887   3.641   3.566  0.1914  0.3798 -0.0715
  572MOL0     C77127  11.983   3.549   3.489 -0.4687  0.1154  0.1773
  572MOL0     C77128  11.904   3.455   3.393  0.2848  0.7941  0.3568
  572MOL0     C77129  11.997   3.353   3.333 -0.0214  0.2395 -0.2425
  572MOL0    Cl77130  11.904   3.238   3.232 -0.1558 -0.2859 -0.2205
  572MOL0     C77131  11.876   4.269   3.959 -0.0451  0.1167  0.4847
  572MOL0     C77132  11.747   4.321   3.951  0.0764  0.3858  0.4261
  572MOL0     O77133  11.448   4.162   3.884 -1.0278 -0.1238 -0.5824
  572MOL0     C77134  11.326   4.350   3.613  0.2953 -0.7174 -0.2211
  572MOL0     C77135  11.214   4.409   3.558  0.1191  0.8956  0.1306
  572MOL0     N77136  10.525   4.559   3.716  0.0634 -0.1077  0.3676
  572MOL0     N77137  10.459   4.529   3.825  1.2216  0.0800  0.2576
  572MOL0     C77138  10.059   3.709   3.586  0.7081 -0.1583  0.4398
  572MOL0     C77139  10.105   3.656   3.457 -0.2892 -0.6581 -0.6055
  572MOL0     C77140  10.109   3.356   3.114 -0.6138 -0.4631 -0.0731
  572MOL0     C77141  10.029   3.309   3.010 -0.2672  0.2952  0.1536
  572MOL0     C77142  10.070   3.210   2.917  1.0340  0.0244  0.8253
  572MOL0     C77143  10.196   3.161   2.931  0.9166 -0.1886  0.0663
  572MOL0     O77144  10.233   3.066   2.836  0.2677 -0.2488 -0.7171
  572MOL0     C77145  10.293   2.954   2.893 -0.1721 -0.2353 -0.0674
  572MOL0     C77146  10.189   2.885   2.981  0.2913 -0.2293 -0.5689
  572MOL0     C77147  10.213   2.736   2.975 -0.2274  1.2655  0.4321
  572MOL0     C77148  10.147   2.674   3.098 -0.8007 -0.8111  0.7048
  572MOL0     C77149  10.123   2.534   3.053  0.1524  0.8464  1.0236
  572MOL0     C77150  10.092   2.423   3.027 -0.4406  0.4673  0.8203
  572MOL0     C77151  10.275   3.199   3.045  0.6465 -0.3706  0.7182
  572MOL0     C77152  10.241   3.305   3.128  0.1886 -0.2506  0.2602
  572MOL0     H77153  10.053   3.327   3.511  2.9426  0.6139 -0.7876
  572MOL0     H77154   9.962   3.414   3.725 -1.6235  1.1769 -0.0514
  572MOL0     H77155   9.965   3.859   3.770 -0.6175 -0.0536 -0.7047
  572MOL0     H77156   9.925   3.806   3.943  0.4420 -2.1598  0.2879
  572MOL0     H77157  10.157   3.773   3.994 -1.9457  0.2966  1.2169
  572MOL0     H77158  10.211   3.823   3.839 -0.0113  0.2362 -0.6422
  572MOL0     H77159  10.072   4.037   3.883 -0.1825  1.3893  0.0768
  572MOL0     H77160  10.088   3.988   4.049 -0.1745 -0.9982  0.0193
  572MOL0     H77161  10.318   3.981   4.060 -2.5157 -0.0754  1.7220
  572MOL0     H77162  10.348   4.018   3.889  1.4130 -1.5474  1.5365
  572MOL0     H77163  10.221   4.241   3.927  2.9888  1.6556 -1.0504
  572MOL0     H77164  10.213   4.188   4.096  2.6692  3.2062  0.5600
  572MOL0     H77165  10.451   4.209   4.106 -1.5535 -2.1116  0.5341
  572MOL0     H77166  10.471   4.251   3.936 -1.4345  2.4678 -1.3615
  572MOL0     H77167  10.298   4.449   4.002  1.3088  1.8752 -0.1515
  572MOL0     H77168  10.343   4.402   4.168  0.4636  0.8846 -1.0741
  572MOL0     H77169  10.579   4.425   4.117 -1.6355  0.3334  2.1674
  572MOL0     H77170  10.476   4.573   4.124  2.8450 -1.2807  3.7043
  572MOL0     H77171  10.759   4.568   3.945  1.4788 -3.2405 -2.3409
  572MOL0     H77172  10.787   4.741   3.704  1.5482 -0.1372 -0.4684
  572MOL0     H77173  10.867   4.594   3.713  2.6991  2.9979 -1.6628
  572MOL0     H77174  10.845   4.660   3.479  0.8306 -2.7630 -2.4844
  572MOL0     H77175  10.668   4.662   3.496  0.5868 -0.9079 -0.8822
  572MOL0     H77176  10.753   4.459   3.378 -0.2729 -1.9681 -0.2743
  572MOL0     H77177  10.646   4.432   3.516  0.8467  0.9160  0.4990
  572MOL0     H77178  10.871   4.286   3.506  1.8240  1.8258 -0.8798
  572MOL0     H77179  10.829   4.360   3.654  0.4695 -0.8670  0.2634
  572MOL0     H77180  10.989   4.306   3.795  0.0830  2.2335  0.3262
  572MOL0     H77181  11.214   4.282   4.031 -0.8867  1.2068 -0.2085
  572MOL0     H77182  11.066   4.202   3.976  0.1293  3.1121 -1.8851
  572MOL0     H77183  11.215   4.117   3.945  2.6686  0.8473  2.2050
  572MOL0     H77184  11.648   4.156   3.671  0.1830 -2.1677  0.8540
  572MOL0     H77185  11.846   4.034   3.709 -2.1708 -0.3440  0.1682
  572MOL0     H77186  12.054   4.017   3.706 -2.0371  5.6351  0.7863
  572MOL0     H77187  12.181   3.984   3.829 -1.1545  0.3748  2.0588
  572MOL0     H77188  12.045   3.813   3.952 -1.8537 -1.7099 -0.2344
  572MOL0     H77189  11.895   3.876   3.860  0.1981 -0.1046 -2.7454
  572MOL0     H77190  11.962   3.658   3.828  0.6190  0.3153  2.2103
  572MOL0     H77191  12.118   3.713   3.763  0.0548 -0.1964 -0.2293
  572MOL0     H77192  11.868   3.826   3.647 -1.7895 -1.9841  0.0571
  572MOL0     H77193  12.043   3.803   3.584  0.1237 -1.5821  0.0014
  572MOL0     H77194  11.829   3.685   3.484 -0.3901 -1.0441 -0.4637
  572MOL0     H77195  11.824   3.584   3.635  0.4251 -0.0799 -0.2366
  572MOL0     H77196  12.052   3.620   3.442 -2.0947  1.3211 -0.4858
  572MOL0     H77197  12.034   3.487   3.564 -0.2687  0.2362  0.1405
  572MOL0     H77198  11.851   3.510   3.315  0.9456  0.8478 -0.0617
  572MOL0     H77199  11.823   3.395   3.437  1.3135  0.1109  1.4006
  572MOL0     H77200  12.036   3.294   3.416 -1.0929  0.5935  0.5361
  572MOL0     H77201  12.075   3.399   3.272 -2.6176  2.0560 -2.4598
  572MOL0     H77202  11.949   4.307   4.030 -1.4658  0.5645  1.7718
  572MOL0     H77203  11.722   4.398   4.023 -0.4826 -0.2640  0.9473
  572MOL0     H77204  11.428   4.373   3.583 -0.1151  1.7525  0.0413
  572MOL0     H77205  11.224   4.474   3.472 -1.2193  1.6902  0.5617
  572MOL0     H77206  10.035   3.814   3.595 -3.6639 -0.6927 -2.0738
  572MOL0     H77207  10.130   3.726   3.379 -1.1459  0.6588  0.2632
  572MOL0     H77208   9.934   3.358   2.995 -1.0940 -1.0363  0.9091
  572MOL0     H77209  10.018   3.168   2.832  3.7313 -1.2416 -0.3324
  572MOL0     H77210  10.327   2.888   2.813  2.7301  3.4803 -2.2462
  572MOL0     H77211  10.384   2.971   2.953 -0.4742  4.6903 -0.6253
  572MOL0     H77212  10.090   2.911   2.943 -0.4415 -0.2509  1.2248
  572MOL0     H77213  10.193   2.918   3.085  2.8778 -0.8149 -0.4273
  572MOL0     H77214  10.319   2.708   2.978 -0.7289 -0.7494  1.0109
  572MOL0     H77215  10.164   2.706   2.882  1.2355  1.7289 -0.5127
  572MOL0     H77216  10.048   2.715   3.122 -0.7294  0.6970 -1.4128
  572MOL0     H77217  10.223   2.678   3.177 -1.5163  2.2180  1.3402
  572MOL0     H77218  10.070   2.322   2.998 -0.4074  1.1780 -1.9314
  572MOL0     H77219  10.377   3.161   3.042  1.0558  0.6224 -2.5544
  572MOL0     H77220  10.311   3.358   3.192 -0.5049  0.6664  0.2777
  573MOL0     O77221  10.498   4.100   4.912  0.5989 -0.8098  0.5304
  573MOL0     C77222  10.536   3.994   4.968  0.4615 -0.4899  0.0778
  573MOL0     O77223  10.665   3.942   4.962  0.0339 -0.4029  0.4228
  573MOL0     C77224  10.776   4.016   4.930 -0.7835 -0.7601 -0.3778
  573MOL0     C77225  10.886   3.951   4.874  0.0588 -0.2050  0.0023
  573MOL0     C77226  11.011   4.014   4.860 -0.1367 -0.0187  0.8237
  573MOL0     C77227  11.022   4.148   4.905  1.0227  0.8117  0.1657
  573MOL0     O77228  11.147   4.197   4.919 -0.1679 -0.0942  0.0310
  573MOL0     C77229  11.167   4.327   4.869 -0.1811 -0.2086  0.1024
  573MOL0     C77230  11.218   4.317   4.727  0.9879  0.1305  0.2256
  573MOL0     C77231  11.258   4.459   4.683  0.2630 -0.1445  0.5106
  573MOL0     C77232  11.313   4.441   4.544 -0.2791 -0.0866  0.7060
  573MOL0     C77233  11.369   4.574   4.492  0.3684 -0.1341  0.8457
  573MOL0     C77234  11.414   4.547   4.339  0.4191  0.0051  0.8502
  573MOL0     C77235  11.466   4.684   4.278 -0.9453 -1.1277  0.2058
  573MOL0     C77236  11.563   4.661   4.157 -0.3929  0.1253  0.1067
  573MOL0     N77237  11.483   4.641   4.037  0.2501  0.8337  0.1371
  573MOL0     C77238  11.434   4.739   3.955  0.5550 -0.7656 -0.0578
  573MOL0     C77239  11.333   4.681   3.880 -0.5917  1.3222  0.1717
  573MOL0     C77240  11.258   4.741   3.773  1.0956  0.4836  0.3269
  573MOL0     C77241  11.323   4.847   3.686 -0.3712  0.2035 -0.5046
  573MOL0     C77242  11.245   4.872   3.556 -0.7489 -0.5111  0.0570
  573MOL0     C77243  11.281   4.766   3.453 -0.1530 -1.0468  0.5522
  573MOL0     O77244  11.395   4.813   3.384 -0.0352  0.2448 -0.1436
  573MOL0     C77245  11.489   4.708   3.343  0.5893 -0.1365 -0.4638
  573MOL0     C77246  11.565   4.637   3.439 -0.0976 -0.1873  0.1214
  573MOL0     C77247  11.663   4.544   3.400 -0.3413  0.0050  0.7163
  573MOL0     C77248  11.741   4.491   3.518 -0.6632  0.1761 -0.1791
  573MOL0     C77249  11.684   4.518   3.256 -0.8946  0.4895  0.4358
  573MOL0     C77250  11.794   4.429   3.220  0.8027  0.2283  0.0375
  573MOL0     O77251  11.786   4.300   3.259  0.1503 -0.8218 -0.7466
  573MOL0     C77252  11.905   4.238   3.283 -0.7752  0.9116 -0.6462
  573MOL0     C77253  12.040   4.278   3.273 -0.3733  0.3239 -0.9231
  573MOL0     C77254  12.136   4.185   3.302 -0.6362  0.2212 -0.1651
  573MOL0     C77255  12.119   4.056   3.350  0.0838  0.5071  1.3454
  573MOL0     O77256  12.220   3.964   3.370 -0.4564  0.3177  0.3255
  573MOL0     C77257  12.329   3.997   3.444 -1.0856  0.0755 -1.0457
  573MOL0     C77258  12.443   3.884   3.421 -0.2691  0.0590 -0.5509
  573MOL0     C77259  12.406   3.751   3.485 -1.2551 -0.0299 -0.8364
  573MOL0     C77260  12.479   3.715   3.616 -0.4380 -0.9705 -0.4001
  573MOL0     C77261  12.451   3.822   3.724  0.7941  0.1070  0.2132
  573MOL0     C77262  12.488   3.764   3.857  0.4663  0.4149  0.7197
  573MOL0     C77263  12.386   3.661   3.908 -0.5774 -0.0756  0.6458
  573MOL0     C77264  12.386   3.645   4.063 -0.3307  0.2214 -0.2627
  573MOL0    Cl77265  12.308   3.785   4.138 -0.0988  0.1738  0.6133
  573MOL0     C77266  11.980   4.013   3.357  0.2337 -0.1554  0.2426
  573MOL0     C77267  11.882   4.104   3.321 -0.5193 -0.0296  0.5199
  573MOL0     O77268  11.861   4.476   3.132  0.7066 -0.6466 -0.3701
  573MOL0     C77269  11.606   4.590   3.165  0.0073 -0.0605  0.3298
  573MOL0     C77270  11.511   4.685   3.208  0.3363 -0.3681 -0.0891
  573MOL0     N77271  11.325   4.553   3.920 -0.4298  0.5316  1.0291
  573MOL0     N77272  11.406   4.533   4.016 -0.2907  0.0759 -0.3674
  573MOL0     C77273  10.920   4.206   4.972  0.1303 -0.4080  0.5592
  573MOL0     C77274  10.801   4.142   4.987  0.1717 -0.8457 -0.9430
  573MOL0     C77275  10.437   3.914   5.046  0.7323  1.0882  0.7836
  573MOL0     C77276  10.317   3.977   5.083  0.9750 -0.1798  1.4259
  573MOL0     C77277  10.216   3.910   5.158 -0.2068 -0.5652 -0.1312
  573MOL0     C77278  10.250   3.790   5.222  0.1293  0.6515 -0.2102
  573MOL0     O77279  10.166   3.735   5.322  0.3483  0.2744 -0.5431
  573MOL0     C77280  10.048   3.812   5.369 -0.3434  0.4432 -0.5030
  573MOL0     C77281   9.979   3.739   5.484  0.7653 -0.2853 -1.0110
  573MOL0     C77282   9.893   3.618   5.443 -0.0579 -0.1297 -0.2638
  573MOL0     C77283   9.796   3.584   5.554  0.4211 -0.1810  0.0759
  573MOL0     C77284   9.862   3.535   5.674  0.4821 -0.4491 -0.0409
  573MOL0     C77285   9.906   3.486   5.778 -0.2068 -0.5065 -0.6443
  573MOL0     C77286  10.385   3.733   5.190  0.8673  0.1900  0.2378
  573MOL0     C77287  10.475   3.793   5.105  0.3443  0.0361  0.0173
  573MOL0     H77288  10.862   3.850   4.841  2.2095 -0.8515  0.3014
  573MOL0     H77289  11.094   3.969   4.808 -2.1602 -1.2550 -1.5577
  573MOL0     H77290  11.076   4.386   4.885  0.3353 -0.0649  3.0533
  573MOL0     H77291  11.245   4.361   4.937 -0.5178  2.0145 -0.5473
  573MOL0     H77292  11.297   4.242   4.713  0.9573 -0.3290  2.1276
  573MOL0     H77293  11.130   4.285   4.671 -0.1503  0.3990  1.7719
  573MOL0     H77294  11.170   4.523   4.678  1.3501  1.5294  1.8691
  573MOL0     H77295  11.330   4.502   4.752  0.1671  0.0036  0.5195
  573MOL0     H77296  11.397   4.373   4.560  0.9763  0.9658 -1.0894
  573MOL0     H77297  11.234   4.403   4.480  0.4905  0.9031 -0.8835
  573MOL0     H77298  11.295   4.652   4.509 -2.5361 -3.0308  2.6909
  573MOL0     H77299  11.454   4.602   4.555  0.8835  0.1402  0.0437
  573MOL0     H77300  11.495   4.475   4.323  0.4700  0.5786 -2.0121
  573MOL0     H77301  11.335   4.505   4.276  1.4281 -0.4262 -0.1687
  573MOL0     H77302  11.388   4.757   4.254 -1.2439 -1.3339  0.5392
  573MOL0     H77303  11.522   4.726   4.362 -3.1414 -0.4403  1.3947
  573MOL0     H77304  11.621   4.569   4.170  1.7045  1.3927  0.3274
  573MOL0     H77305  11.630   4.746   4.139 -0.2071  0.1576  0.9082
  573MOL0     H77306  11.471   4.841   3.966 -3.7870  0.9786  0.3602
  573MOL0     H77307  11.228   4.653   3.716 -0.1421  2.4146 -2.2087
  573MOL0     H77308  11.166   4.782   3.817 -0.0189 -0.6767 -0.8457
  573MOL0     H77309  11.426   4.814   3.671 -0.6609 -1.4924  1.0100
  573MOL0     H77310  11.316   4.939   3.745  1.4295 -0.6486  1.1245
  573MOL0     H77311  11.258   4.974   3.520  2.5022 -0.5877  0.7269
  573MOL0     H77312  11.142   4.863   3.593  0.3101 -3.3165  2.9206
  573MOL0     H77313  11.198   4.746   3.384 -2.1700 -0.0005  2.5636
  573MOL0     H77314  11.308   4.681   3.515  1.7929  2.6601  5.4709
  573MOL0     H77315  11.555   4.658   3.545  0.0724  1.7304 -0.1905
  573MOL0     H77316  11.779   4.392   3.489 -1.1877 -0.1365  0.1895
  573MOL0     H77317  11.824   4.556   3.550 -1.4876  1.0873  0.1686
  573MOL0     H77318  11.676   4.472   3.604 -1.6525 -0.7465 -1.1129
  573MOL0     H77319  12.066   4.378   3.239 -3.9163  1.1797 -1.4623
  573MOL0     H77320  12.238   4.217   3.281 -0.7708  0.6650 -0.1423
  573MOL0     H77321  12.374   4.091   3.409 -1.6193  1.2013  1.1754
  573MOL0     H77322  12.300   4.001   3.549 -1.0987 -0.8793 -1.0043
  573MOL0     H77323  12.460   3.879   3.314  1.3158  1.0515 -0.3832
  573MOL0     H77324  12.531   3.925   3.472 -0.3343 -1.5481  0.9588
  573MOL0     H77325  12.435   3.665   3.423 -1.4716 -0.1036 -0.8359
  573MOL0     H77326  12.297   3.741   3.494 -1.0165 -1.4396  1.2054
  573MOL0     H77327  12.460   3.611   3.643  0.3894 -1.3273 -1.1625
  573MOL0     H77328  12.588   3.710   3.603 -0.5637 -1.8471 -1.1692
  573MOL0     H77329  12.345   3.848   3.722  0.1906 -2.1535 -1.1000
  573MOL0     H77330  12.504   3.914   3.695 -1.9231  1.5235 -0.6323
  573MOL0     H77331  12.590   3.724   3.851 -0.0378 -0.8165 -0.0708
  573MOL0     H77332  12.488   3.842   3.933 -2.5790 -0.1995  1.4876
  573MOL0     H77333  12.409   3.563   3.866  1.9440 -0.6211  3.0286
  573MOL0     H77334  12.286   3.699   3.883  0.1234  1.5402  0.1337
  573MOL0     H77335  12.490   3.627   4.090 -1.1033 -2.8272  1.1473
  573MOL0     H77336  12.337   3.555   4.100 -1.1467  1.1324  0.9624
  573MOL0     H77337  11.957   3.911   3.385 -3.1194 -0.4576 -2.8878
  573MOL0     H77338  11.779   4.069   3.328 -0.5658 -1.0197 -3.0185
  573MOL0     H77339  11.629   4.564   3.062 -1.0715 -0.7791  0.2512
  573MOL0     H77340  11.460   4.741   3.131  0.7361  0.0981 -0.0221
  573MOL0     H77341  10.950   4.294   5.028  1.1779 -2.3430  3.2565
  573MOL0     H77342  10.726   4.192   5.047 -0.6510 -1.7740 -1.1766
  573MOL0     H77343  10.285   4.076   5.052  3.1415 -0.5216 -2.5732
  573MOL0     H77344  10.120   3.959   5.174  0.8811  0.9466  2.4839
  573MOL0     H77345  10.091   3.908   5.401  0.5118  0.2299 -0.9816
  573MOL0     H77346   9.986   3.833   5.281 -1.0190 -0.4834 -0.2540
  573MOL0     H77347   9.924   3.814   5.541 -1.7243 -1.8417 -1.2312
  573MOL0     H77348  10.055   3.697   5.550 -0.7870 -0.6168  0.6352
  573MOL0     H77349   9.960   3.534   5.425  2.3753  1.7374 -0.3805
  573MOL0     H77350   9.837   3.637   5.351 -1.2150 -1.2684  0.1743
  573MOL0     H77351   9.738   3.496   5.523  2.4096 -1.5449  0.0010
  573MOL0     H77352   9.727   3.666   5.574 -0.3914 -1.2230  1.7009
  573MOL0     H77353   9.948   3.452   5.871  2.4130  3.0148 -0.3310
  573MOL0     H77354  10.414   3.642   5.243 -2.7986 -0.8797  0.7393
  573MOL0     H77355  10.576   3.752   5.105  0.2563 -0.2135 -1.1858
  574MOL0     O77356   2.800  10.975   3.168 -0.4861 -0.0717  0.1544
  574MOL0     C77357   2.819  10.931   3.058 -0.2012  0.2460 -0.4980
  574MOL0     O77358   2.726  10.857   2.975 -0.0717 -0.7320 -0.0124
  574MOL0     C77359   2.647  10.776   3.043 -0.1478 -0.0034  0.3009
  574MOL0     C77360   2.693  10.640   3.057  0.9156 -0.4307 -0.4246
  574MOL0     C77361   2.623  10.559   3.145 -0.5428 -0.0374 -0.1266
  574MOL0     C77362   2.519  10.597   3.225  0.2093 -0.1567 -0.3084
  574MOL0     O77363   2.461  10.527   3.330 -0.0504 -0.2752  0.1265
  574MOL0     C77364   2.555  10.464   3.425 -0.1593 -0.1471  0.0721
  574MOL0     C77365   2.480  10.360   3.515  0.7662  1.2691  0.0343
  574MOL0     C77366   2.430  10.243   3.432  0.5035 -0.5024  0.3818
  574MOL0     C77367   2.542  10.137   3.416  0.4409 -0.7242  0.0106
  574MOL0     C77368   2.486  10.002   3.357 -0.2252 -0.5916  0.6424
  574MOL0     C77369   2.446  10.005   3.203  0.3865 -0.2786 -0.1085
  574MOL0     C77370   2.390   9.873   3.147 -1.1366  0.8237 -0.7474
  574MOL0     C77371   2.512   9.775   3.125 -0.0053 -0.9704 -0.3691
  574MOL0     N77372   2.478   9.657   3.039 -0.5392  0.1701  0.1827
  574MOL0     C77373   2.385   9.561   3.072  0.3351 -0.7998  0.7177
  574MOL0     C77374   2.378   9.490   2.958  0.2860  0.4993 -0.2568
  574MOL0     C77375   2.287   9.367   2.940 -0.7130 -0.0674 -0.1288
  574MOL0     C77376   2.357   9.255   3.017 -0.0611 -0.1616  0.5921
  574MOL0     C77377   2.285   9.120   2.997  0.0652 -0.4434  0.1788
  574MOL0     C77378   2.364   8.998   3.052  0.5168  0.2503  0.3563
  574MOL0     O77379   2.276   8.896   3.108  0.9254  0.4007 -0.1345
  574MOL0     C77380   2.217   8.796   3.030 -0.6519 -0.2580 -0.8787
  574MOL0     C77381   2.294   8.686   2.985  0.4507  0.5612 -1.3964
  574MOL0     C77382   2.240   8.580   2.921 -0.1435 -0.4443 -0.4030
  574MOL0     C77383   2.342   8.472   2.897 -0.1239 -0.1114 -0.3536
  574MOL0     C77384   2.103   8.587   2.877  0.0281 -0.1221  0.1077
  574MOL0     C77385   2.037   8.480   2.791  0.5182 -0.2161  0.2247
  574MOL0     O77386   1.938   8.534   2.717 -0.2583 -0.1803  0.5331
  574MOL0     C77387   1.840   8.466   2.645 -0.2729  0.1073 -0.2099
  574MOL0     C77388   1.786   8.343   2.686  0.0075  0.0405 -0.1542
  574MOL0     C77389   1.676   8.278   2.614 -0.3020 -0.4714 -0.3663
  574MOL0     C77390   1.637   8.337   2.490  0.0619 -0.5635 -0.5790
  574MOL0     O77391   1.535   8.267   2.428  0.7176  0.2596  0.0708
  574MOL0     C77392   1.440   8.338   2.339 -0.3356 -0.0857  0.0454
  574MOL0     C77393   1.393   8.231   2.254  0.4033  0.5312 -0.2471
  574MOL0     C77394   1.315   8.124   2.337  0.5309  1.6263  0.0467
  574MOL0     C77395   1.227   8.035   2.245  0.1843  0.6153 -0.9727
  574MOL0     C77396   1.166   7.910   2.315 -0.0398 -0.3752  0.2404
  574MOL0     C77397   1.092   7.952   2.437  0.5931 -0.8712 -0.1655
  574MOL0     C77398   1.005   7.832   2.489  0.6353 -0.3085 -0.6329
  574MOL0     C77399   0.914   7.881   2.605 -0.4457 -0.7898  0.6248
  574MOL0    Cl77400   0.778   7.783   2.620 -0.0361 -0.2489  0.0003
  574MOL0     C77401   1.701   8.453   2.448  0.7648  0.1103  0.5839
  574MOL0     C77402   1.803   8.518   2.528 -0.5320 -0.7788  0.3166
  574MOL0     O77403   2.064   8.363   2.810 -0.5794 -0.8101 -0.0708
  574MOL0     C77404   2.026   8.693   2.921 -0.8507  0.3192  0.2180
  574MOL0     C77405   2.084   8.791   2.997 -0.4331  0.6021  0.3545
  574MOL0     N77406   2.472   9.530   2.862 -0.1956 -0.2308 -0.1935
  574MOL0     N77407   2.531   9.634   2.912 -0.1609 -0.6911 -0.2198
  574MOL0     C77408   2.475  10.724   3.205 -0.2923 -0.5233 -0.2811
  574MOL0     C77409   2.538  10.821   3.114  0.2644  0.2484 -0.1587
  574MOL0     C77410   2.938  10.974   2.990 -0.3626 -0.0733  0.1049
  574MOL0     C77411   2.955  10.970   2.850 -0.0029 -0.1754  0.1655
  574MOL0     C77412   3.074  11.005   2.793  0.3103 -0.1520 -0.6014
  574MOL0     C77413   3.188  11.044   2.869 -0.3918  0.3204 -0.3756
  574MOL0     O77414   3.308  11.084   2.810 -0.1741 -0.8132  0.4098
  574MOL0     C77415   3.316  11.114   2.664 -0.6033 -1.1740 -0.9422
  574MOL0     C77416   3.452  11.189   2.633 -0.2365  0.7828  0.7241
  574MOL0     C77417   3.560  11.093   2.639  0.1127  0.6245  1.1560
  574MOL0     C77418   3.687  11.150   2.700 -0.4187 -0.2159 -0.2469
  574MOL0     C77419   3.739  11.266   2.632 -0.3288 -0.1363 -0.0773
  574MOL0     C77420   3.773  11.353   2.557  0.3404  0.0664 -0.2697
  574MOL0     C77421   3.181  11.027   3.005  0.1373 -0.7280  0.3539
  574MOL0     C77422   3.057  10.995   3.062  0.2058 -0.4599 -0.0636
  574MOL0     H77423   2.773  10.605   2.993 -2.6742 -3.2319 -3.9021
  574MOL0     H77424   2.657  10.458   3.166  2.1970  1.4651  4.1337
  574MOL0     H77425   2.639  10.417   3.372 -0.6100  0.9105 -1.6898
  574MOL0     H77426   2.579  10.548   3.490  2.3836 -0.2545 -0.6335
  574MOL0     H77427   2.541  10.314   3.593 -0.4305  1.5350  1.1481
  574MOL0     H77428   2.396  10.408   3.565  0.8910  0.8219  0.6770
  574MOL0     H77429   2.348  10.203   3.492 -0.4725  2.3936  1.1664
  574MOL0     H77430   2.387  10.266   3.334  1.6550  1.8772  0.3484
  574MOL0     H77431   2.622  10.187   3.361 -1.3214  2.4975  0.1123
  574MOL0     H77432   2.578  10.095   3.511 -0.8618  1.2765  1.4820
  574MOL0     H77433   2.556   9.920   3.370 -1.2233 -1.4711  0.5998
  574MOL0     H77434   2.394   9.968   3.406 -1.1492  1.1580  0.2058
  574MOL0     H77435   2.379  10.090   3.184  1.3806  0.6870  0.6412
  574MOL0     H77436   2.536  10.027   3.146 -0.9244  0.1402 -2.1287
  574MOL0     H77437   2.326   9.823   3.220  0.5702  0.9307  0.9198
  574MOL0     H77438   2.332   9.901   3.059 -0.6183  1.1031 -1.0071
  574MOL0     H77439   2.549   9.756   3.227 -2.9109  3.3890  1.7947
  574MOL0     H77440   2.590   9.835   3.078 -1.3946  1.9662  0.8141
  574MOL0     H77441   2.321   9.562   3.159 -2.0486  3.7972 -0.7595
  574MOL0     H77442   2.188   9.388   2.981 -0.7641 -1.8289  0.7754
  574MOL0     H77443   2.273   9.336   2.836 -0.3347 -1.6755  0.2643
  574MOL0     H77444   2.349   9.287   3.122 -2.7790 -0.5804  0.6007
  574MOL0     H77445   2.458   9.234   2.981 -0.4991 -0.5216 -0.4640
  574MOL0     H77446   2.252   9.110   2.893  1.0546 -1.1865 -0.0769
  574MOL0     H77447   2.194   9.124   3.058  1.4205  0.8120  2.2360
  574MOL0     H77448   2.431   9.025   3.134  1.3616 -0.3382 -0.1263
  574MOL0     H77449   2.421   8.960   2.967 -1.5122  1.7375 -1.7982
  574MOL0     H77450   2.393   8.687   3.031 -0.0568  0.4210 -0.2527
  574MOL0     H77451   2.310   8.373   2.931  4.2852 -0.7220  2.9236
  574MOL0     H77452   2.366   8.466   2.790  0.3204  2.1628 -0.4435
  574MOL0     H77453   2.437   8.478   2.951 -0.1496 -1.5311 -0.1239
  574MOL0     H77454   1.808   8.307   2.787 -0.8974 -1.0054 -0.3153
  574MOL0     H77455   1.605   8.205   2.654 -2.6760  1.9275  0.1226
  574MOL0     H77456   1.360   8.381   2.400 -0.9011 -0.2777 -0.5442
  574MOL0     H77457   1.472   8.419   2.274 -2.7777  1.0224  0.0955
  574MOL0     H77458   1.328   8.265   2.173 -1.5576 -1.9534  0.1434
  574MOL0     H77459   1.465   8.171   2.198 -2.0916 -1.5583 -1.4800
  574MOL0     H77460   1.244   8.173   2.403 -0.4138  0.5539 -0.1323
  574MOL0     H77461   1.385   8.062   2.393 -0.2882  2.2902  1.8678
  574MOL0     H77462   1.143   8.092   2.204 -0.4135  0.0461 -0.5703
  574MOL0     H77463   1.290   7.996   2.164  2.5807  0.2835  0.9530
  574MOL0     H77464   1.248   7.843   2.343  1.2748  0.6913 -0.9118
  574MOL0     H77465   1.104   7.853   2.244 -1.2867  0.4565  0.6422
  574MOL0     H77466   1.156   7.982   2.520 -0.8400  1.2494  0.2615
  574MOL0     H77467   1.031   8.040   2.414  0.9150 -0.5857  0.0636
  574MOL0     H77468   1.075   7.752   2.515  1.7774  0.1805 -2.0280
  574MOL0     H77469   0.940   7.779   2.419  0.8815  0.2303 -1.2898
  574MOL0     H77470   0.885   7.981   2.573  1.4340 -0.1684  0.7336
  574MOL0     H77471   0.979   7.878   2.693 -0.4107 -4.4353  0.6159
  574MOL0     H77472   1.667   8.505   2.358 -0.3620  0.0875  0.9871
  574MOL0     H77473   1.853   8.605   2.486  1.0447 -0.2916  2.9256
  574MOL0     H77474   1.921   8.677   2.895 -0.5003 -2.8160  0.4111
  574MOL0     H77475   2.015   8.873   3.014  1.2371  1.7910  1.7479
  574MOL0     H77476   2.386  10.759   3.255  0.3928  2.7947 -1.1253
  574MOL0     H77477   2.497  10.921   3.111 -0.7517 -0.1578 -0.3006
  574MOL0     H77478   2.878  10.931   2.784  0.0909 -0.0921  0.0071
  574MOL0     H77479   3.082  11.007   2.684 -0.8670  1.9287 -0.6952
  574MOL0     H77480   3.298  11.022   2.606  1.1213 -1.3703 -1.2289
  574MOL0     H77481   3.232  11.181   2.641  0.5719  1.4804  1.9077
  574MOL0     H77482   3.470  11.273   2.701  0.6486  0.5818  0.7396
  574MOL0     H77483   3.439  11.225   2.530  0.5631 -1.3909 -0.2022
  574MOL0     H77484   3.591  11.047   2.545 -0.6173  1.7172  0.3578
  574MOL0     H77485   3.523  11.014   2.705  2.1205  0.1214  1.7443
  574MOL0     H77486   3.755  11.065   2.712 -0.3541 -0.3341 -1.2821
  574MOL0     H77487   3.670  11.189   2.800  1.0477 -1.1188  0.3859
  574MOL0     H77488   3.818  11.432   2.500  2.3069  0.1797  1.3274
  574MOL0     H77489   3.272  11.049   3.060  1.4496 -2.3288 -1.0332
  574MOL0     H77490   3.054  10.997   3.170 -0.3082  0.9450 -0.0816
  575MOL0     O77491   8.926   8.263   8.946  0.5614  0.1835  0.2402
  575MOL0     C77492   8.916   8.144   8.910 -0.2043 -0.2050 -0.0856
  575MOL0     O77493   8.945   8.094   8.786 -0.2614 -0.3726 -0.6234
  575MOL0     C77494   8.968   8.183   8.685 -0.2550  0.1974 -0.5157
  575MOL0     C77495   8.862   8.258   8.633 -0.2863  0.1274 -0.2923
  575MOL0     C77496   8.892   8.362   8.541  0.6631  0.1163 -0.7753
  575MOL0     C77497   9.022   8.375   8.488  0.3956  0.3997 -1.2725
  575MOL0     O77498   9.027   8.469   8.395 -0.1387 -0.3207 -0.1019
  575MOL0     C77499   9.048   8.423   8.265 -0.6413 -0.2924  0.8933
  575MOL0     C77500   9.031   8.542   8.154  0.0133 -0.8755  0.0703
  575MOL0     C77501   8.892   8.605   8.148  0.3766 -0.1222  0.0494
  575MOL0     C77502   8.877   8.720   8.047 -0.2172  0.2450 -0.1059
  575MOL0     C77503   8.891   8.668   7.903 -0.2171 -0.7884  0.8077
  575MOL0     C77504   8.915   8.784   7.817  0.2031  0.2659 -0.1207
  575MOL0     C77505   8.794   8.884   7.808  0.2147  0.0959  0.0577
  575MOL0     C77506   8.769   8.924   7.663 -0.3277  0.5032 -0.7467
  575MOL0     N77507   8.687   9.037   7.645  0.1193  0.6054 -0.6195
  575MOL0     C77508   8.727   9.167   7.670 -0.6779  0.2202 -0.1275
  575MOL0     C77509   8.618   9.242   7.632  0.2469 -0.3091  0.1707
  575MOL0     C77510   8.628   9.392   7.624  0.8007 -0.6999 -0.8119
  575MOL0     C77511   8.529   9.450   7.524  0.4595 -0.0341 -0.1167
  575MOL0     C77512   8.488   9.597   7.560 -0.2195 -0.7874 -0.6331
  575MOL0     C77513   8.384   9.654   7.467  0.6748  0.0161  0.2469
  575MOL0     O77514   8.258   9.580   7.477 -0.6538 -0.0296 -0.3195
  575MOL0     C77515   8.158   9.589   7.389 -0.3266  0.0663 -0.0754
  575MOL0     C77516   8.155   9.670   7.279  0.3477 -0.4621  0.0940
  575MOL0     C77517   8.044   9.686   7.199 -0.4340 -0.0228 -1.2140
  575MOL0     C77518   8.052   9.797   7.095  0.1838 -0.5160  0.2685
  575MOL0     C77519   7.926   9.607   7.226  1.0608 -0.4228 -0.3739
  575MOL0     C77520   7.815   9.600   7.132 -0.0756  0.0964  1.2277
  575MOL0     O77521   7.702   9.522   7.163  0.4705 -0.2219 -0.0375
  575MOL0     C77522   7.630   9.479   7.051 -0.8862 -0.0939 -0.8983
  575MOL0     C77523   7.662   9.366   6.966  0.8567 -0.0132 -0.1499
  575MOL0     C77524   7.582   9.321   6.865  0.5751 -0.1443 -0.3020
  575MOL0     C77525   7.463   9.392   6.832 -0.5024 -0.3212  0.2346
  575MOL0     O77526   7.387   9.368   6.723 -0.3157  0.1350  0.2766
  575MOL0     C77527   7.464   9.363   6.598  0.4444  0.0319 -1.0982
  575MOL0     C77528   7.369   9.398   6.475  0.0679 -0.5465  0.3811
  575MOL0     C77529   7.315   9.533   6.490  0.6417  0.1455  0.9780
  575MOL0     C77530   7.217   9.565   6.376  0.2630 -0.3976  0.8418
  575MOL0     C77531   7.138   9.694   6.414 -0.3840 -0.3782 -0.0994
  575MOL0     C77532   6.993   9.669   6.471  0.7200 -0.0697  0.4112
  575MOL0     C77533   6.902   9.793   6.441 -0.7502 -0.2345  0.5841
  575MOL0     C77534   6.762   9.773   6.494 -0.4245 -0.3819 -0.5318
  575MOL0    Cl77535   6.694   9.650   6.376  0.2423 -0.1321 -0.1470
  575MOL0     C77536   7.422   9.492   6.921 -0.9060  0.6832 -0.0067
  575MOL0     C77537   7.505   9.537   7.026 -0.3181  0.5528 -0.8581
  575MOL0     O77538   7.832   9.648   7.017 -0.4422  0.4962 -0.4587
  575MOL0     C77539   7.924   9.522   7.341 -0.6352  0.3440 -0.0938
  575MOL0     C77540   8.039   9.517   7.415  0.2484 -0.2763 -0.5557
  575MOL0     N77541   8.526   9.155   7.570  0.6708 -0.2728  0.2936
  575MOL0     N77542   8.574   9.036   7.571  0.2418  0.1143 -0.5536
  575MOL0     C77543   9.126   8.299   8.538  0.3828  0.1539 -0.7569
  575MOL0     C77544   9.104   8.205   8.640 -1.0252  0.0737  0.4493
  575MOL0     C77545   8.896   8.044   9.021 -0.2151 -1.2087 -0.2238
  575MOL0     C77546   8.936   7.910   9.017  0.6648 -1.3353  0.6156
  575MOL0     C77547   8.935   7.826   9.127 -0.1596 -0.3728  0.3507
  575MOL0     C77548   8.893   7.875   9.254 -0.3788  0.2951 -1.0836
  575MOL0     O77549   8.896   7.788   9.363  0.2935  0.0281  0.1536
  575MOL0     C77550   8.986   7.683   9.371 -1.0862  1.0025  0.5052
  575MOL0     C77551   9.133   7.731   9.407  0.5218  1.1537  0.3393
  575MOL0     C77552   9.224   7.618   9.430 -0.0616  0.3393  0.8701
  575MOL0     C77553   9.222   7.549   9.574  0.5667 -0.0054 -0.1009
  575MOL0     C77554   9.237   7.641   9.688 -1.5626 -0.2237  0.5944
  575MOL0     C77555   9.245   7.711   9.786  0.0065  0.0650  0.1965
  575MOL0     C77556   8.849   8.008   9.267 -0.6921  0.2573  0.3571
  575MOL0     C77557   8.850   8.084   9.147  0.6942  0.3878 -0.3201
  575MOL0     H77558   8.758   8.236   8.657 -0.0905  0.3801  0.8343
  575MOL0     H77559   8.811   8.418   8.496 -2.4822 -3.2868  0.1650
  575MOL0     H77560   9.152   8.391   8.270  0.0466  1.4464 -0.8784
  575MOL0     H77561   8.979   8.343   8.238  0.7920 -0.2408 -3.9205
  575MOL0     H77562   9.105   8.618   8.183  0.5404 -2.7324  4.3894
  575MOL0     H77563   9.050   8.509   8.051 -4.7422  3.1751 -2.5919
  575MOL0     H77564   8.817   8.528   8.127  0.2185  0.1582 -0.4093
  575MOL0     H77565   8.874   8.642   8.249  1.0091 -0.3393  0.2489
  575MOL0     H77566   8.782   8.770   8.063  0.3080  0.7148  1.8466
  575MOL0     H77567   8.958   8.792   8.066  1.8431 -1.7324 -0.8739
  575MOL0     H77568   8.960   8.587   7.881 -1.1265 -0.5832 -3.7960
  575MOL0     H77569   8.789   8.633   7.883  0.3639 -1.6191 -0.8309
  575MOL0     H77570   9.007   8.838   7.840 -0.7753  1.2485  1.7255
  575MOL0     H77571   8.930   8.747   7.715  1.1896 -1.3432  0.5677
  575MOL0     H77572   8.700   8.847   7.850 -0.3244  2.2595  0.8704
  575MOL0     H77573   8.820   8.968   7.873 -0.4309  0.0579  0.3701
  575MOL0     H77574   8.723   8.839   7.611  1.5332 -1.0225  0.0175
  575MOL0     H77575   8.868   8.933   7.618  0.0037 -1.7878 -0.5668
  575MOL0     H77576   8.823   9.202   7.709 -1.3983 -0.3416  2.3609
  575MOL0     H77577   8.598   9.428   7.723 -0.6146 -1.6113 -0.8769
  575MOL0     H77578   8.728   9.425   7.595  2.5906 -3.7024  1.3212
  575MOL0     H77579   8.434   9.397   7.528  0.8066 -0.6470  3.3935
  575MOL0     H77580   8.584   9.447   7.429  0.5447  1.7253 -0.1589
  575MOL0     H77581   8.582   9.653   7.561 -0.2697 -0.6305  2.4204
  575MOL0     H77582   8.449   9.611   7.661 -0.2816 -1.0237 -0.6231
  575MOL0     H77583   8.425   9.662   7.365 -0.3443  0.1388 -0.1600
  575MOL0     H77584   8.344   9.749   7.502  1.4155  0.4080  0.0472
  575MOL0     H77585   8.240   9.736   7.267  0.9127 -1.2063 -0.0784
  575MOL0     H77586   8.064   9.760   6.992 -2.2774 -0.8212  0.0297
  575MOL0     H77587   7.965   9.862   7.079  2.3872  2.3171 -1.3332
  575MOL0     H77588   8.127   9.871   7.125  2.0131 -1.9112 -0.6593
  575MOL0     H77589   7.752   9.314   6.999  1.9267  1.5059 -0.5669
  575MOL0     H77590   7.601   9.227   6.815 -2.4816 -0.5042 -0.9626
  575MOL0     H77591   7.548   9.434   6.598 -0.4133  1.0717 -0.9061
  575MOL0     H77592   7.501   9.262   6.580  1.6368  0.0882  0.8257
  575MOL0     H77593   7.431   9.407   6.385 -1.6456  1.2645 -0.7156
  575MOL0     H77594   7.299   9.320   6.443  2.0134 -1.7536 -1.1444
  575MOL0     H77595   7.392   9.609   6.474  1.1340 -0.5589 -0.0672
  575MOL0     H77596   7.269   9.545   6.589 -3.5340 -2.2678 -0.4289
  575MOL0     H77597   7.279   9.585   6.288 -1.4257  1.7961  0.0278
  575MOL0     H77598   7.156   9.481   6.342  3.9017 -2.4836 -1.2154
  575MOL0     H77599   7.128   9.747   6.319  0.9175 -0.1386 -0.1289
  575MOL0     H77600   7.200   9.750   6.485  3.6127 -1.3858 -2.4463
  575MOL0     H77601   6.949   9.578   6.428  1.1318  0.2040 -0.6315
  575MOL0     H77602   6.994   9.657   6.580  2.1902 -1.0839  0.3327
  575MOL0     H77603   6.891   9.801   6.333  0.1624 -2.6690  0.2665
  575MOL0     H77604   6.948   9.881   6.488 -1.6221  0.2525  0.5537
  575MOL0     H77605   6.698   9.861   6.483  0.5387  0.2092 -1.6019
  575MOL0     H77606   6.771   9.754   6.602  0.9151  2.7728  0.0221
  575MOL0     H77607   7.322   9.533   6.916 -1.4308 -0.5344 -0.0034
  575MOL0     H77608   7.462   9.616   7.087 -2.1681 -0.5040 -0.7091
  575MOL0     H77609   7.838   9.473   7.387 -0.5395  0.6039  0.3737
  575MOL0     H77610   8.038   9.461   7.508  1.0335  0.5183 -0.0641
  575MOL0     H77611   9.221   8.309   8.486 -0.0922 -2.4314 -2.2781
  575MOL0     H77612   9.188   8.146   8.674 -0.6785 -0.7270 -1.6519
  575MOL0     H77613   8.972   7.873   8.922  1.7927 -0.7264  0.7870
  575MOL0     H77614   8.967   7.725   9.106  1.4595  0.8194 -3.9075
  575MOL0     H77615   8.962   7.618   9.456  0.5019  0.5793  0.6600
  575MOL0     H77616   8.986   7.615   9.285 -2.6751 -1.3324  2.2098
  575MOL0     H77617   9.136   7.804   9.488  1.9842  3.3614 -1.5815
  575MOL0     H77618   9.157   7.792   9.320 -1.6868  0.7897 -0.6058
  575MOL0     H77619   9.326   7.650   9.405  0.2657 -1.2923 -0.0698
  575MOL0     H77620   9.209   7.547   9.348  0.6014 -0.3776  1.3596
  575MOL0     H77621   9.307   7.480   9.577  0.0189 -0.7881 -1.3869
  575MOL0     H77622   9.128   7.494   9.583  1.2101 -1.0784  0.2641
  575MOL0     H77623   9.241   7.777   9.870 -2.0847  1.0136 -0.5802
  575MOL0     H77624   8.829   8.056   9.363 -1.8154  4.4940 -1.7295
  575MOL0     H77625   8.818   8.187   9.158  0.5058  0.4420 -1.3239
  576MOL0     O77626   6.882   6.167   4.508 -0.1189  0.1521 -0.6495
  576MOL0     C77627   6.852   6.222   4.615 -0.8167  0.3335 -0.1529
  576MOL0     O77628   6.934   6.237   4.720  0.0805  0.1261 -0.2024
  576MOL0     C77629   7.068   6.203   4.707  0.9526 -0.2572  0.4557
  576MOL0     C77630   7.163   6.294   4.759 -0.3231 -0.1696  0.3612
  576MOL0     C77631   7.303   6.280   4.748 -1.4773  0.3606  0.2672
  576MOL0     C77632   7.349   6.163   4.694  0.4359  0.6523  0.3471
  576MOL0     O77633   7.482   6.129   4.701 -0.4691  0.1318  0.4642
  576MOL0     C77634   7.523   5.987   4.717 -0.4308 -0.6273 -0.4300
  576MOL0     C77635   7.655   5.965   4.795  0.0741 -0.0488 -0.1348
  576MOL0     C77636   7.738   5.839   4.768  0.5454  0.1991 -0.1755
  576MOL0     C77637   7.869   5.852   4.851 -0.1635  0.0943 -0.0613
  576MOL0     C77638   7.869   5.788   4.992 -0.4525  0.0283 -0.3174
  576MOL0     C77639   7.764   5.831   5.102 -0.1031 -0.1946 -0.1001
  576MOL0     C77640   7.822   5.783   5.233  0.4769 -0.4883  0.1507
  576MOL0     C77641   7.737   5.824   5.362 -0.6987  1.0885  0.4476
  576MOL0     N77642   7.637   5.725   5.394 -0.4312 -1.0541 -0.3329
  576MOL0     C77643   7.509   5.716   5.352 -0.5559  0.1937 -0.8214
  576MOL0     C77644   7.457   5.600   5.410 -0.0798  0.2127  0.4401
  576MOL0     C77645   7.311   5.566   5.403 -0.0837 -0.7590 -0.0140
  576MOL0     C77646   7.212   5.650   5.481 -0.5148 -0.4428  0.5203
  576MOL0     C77647   7.065   5.590   5.471 -0.1348  0.0693  0.0391
  576MOL0     C77648   6.955   5.689   5.522  0.5464 -0.2753 -0.7550
  576MOL0     O77649   6.837   5.606   5.519  0.5193 -0.1274  0.4018
  576MOL0     C77650   6.718   5.661   5.526  0.1351 -0.5085  0.9191
  576MOL0     C77651   6.680   5.794   5.538 -0.6680  0.0554  0.4389
  576MOL0     C77652   6.547   5.841   5.544 -0.0856 -0.0163  0.5103
  576MOL0     C77653   6.525   5.985   5.575 -0.0876 -0.3326 -0.0619
  576MOL0     C77654   6.442   5.747   5.520  0.3564  0.4720  0.0828
  576MOL0     C77655   6.303   5.779   5.508 -0.4659  0.6186  0.0317
  576MOL0     O77656   6.215   5.684   5.523  0.5571  0.3268  0.1438
  576MOL0     C77657   6.087   5.682   5.467  0.6660 -0.2773 -0.6965
  576MOL0     C77658   6.056   5.725   5.338 -0.3887 -0.7622 -0.0238
  576MOL0     C77659   5.925   5.727   5.285  0.2112  0.1268  0.4178
  576MOL0     C77660   5.824   5.677   5.369  0.5113  0.8655  0.0829
  576MOL0     O77661   5.693   5.686   5.325 -0.0905  0.3452  0.6561
  576MOL0     C77662   5.593   5.587   5.360 -1.4914  0.4527 -0.3258
  576MOL0     C77663   5.462   5.620   5.284 -0.1391 -0.9413  0.8217
  576MOL0     C77664   5.459   5.609   5.134  0.6276 -1.5537 -0.2609
  576MOL0     C77665   5.332   5.671   5.067 -0.0392  0.7352  0.4884
  576MOL0     C77666   5.227   5.567   5.016 -1.1781  0.6275 -0.2924
  576MOL0     C77667   5.185   5.458   5.116 -0.1016  0.1057 -0.7546
  576MOL0     C77668   5.075   5.487   5.215  0.2933 -0.6668  0.6720
  576MOL0     C77669   4.993   5.366   5.265 -0.3795  0.1747  0.5330
  576MOL0    Cl77670   4.915   5.389   5.423 -0.2329 -0.1447 -0.5261
  576MOL0     C77671   5.850   5.649   5.501 -0.4417  1.0544  0.1775
  576MOL0     C77672   5.977   5.644   5.553  0.1365 -0.0141 -0.2926
  576MOL0     O77673   6.274   5.891   5.462 -0.2536 -0.7401  1.0298
  576MOL0     C77674   6.472   5.619   5.506  0.5498  1.1270  0.0948
  576MOL0     C77675   6.607   5.580   5.506  0.2664 -0.0666  0.2003
  576MOL0     N77676   7.553   5.552   5.496 -0.3042 -0.0398  0.3082
  576MOL0     N77677   7.653   5.631   5.488  0.2294 -0.2855  1.4516
  576MOL0     C77678   7.259   6.060   4.649  0.0350 -0.5855  0.0557
  576MOL0     C77679   7.114   6.082   4.657 -0.8465 -0.0657  0.4549
  576MOL0     C77680   6.707   6.253   4.619 -1.1450 -0.6699  0.4605
  576MOL0     C77681   6.620   6.245   4.512  0.2224  0.3595  0.4103
  576MOL0     C77682   6.486   6.277   4.528 -1.0412  0.8952  0.2232
  576MOL0     C77683   6.436   6.323   4.645  0.1447 -1.1971  0.3929
  576MOL0     O77684   6.316   6.383   4.656  0.6891 -1.0756 -0.0537
  576MOL0     C77685   6.200   6.328   4.599 -0.3603  0.1489 -0.3130
  576MOL0     C77686   6.082   6.283   4.690 -0.2017  1.4437 -0.5376
  576MOL0     C77687   6.123   6.166   4.791  0.3454 -0.1511  0.3053
  576MOL0     C77688   6.007   6.109   4.873  0.2181  0.0513 -0.2095
  576MOL0     C77689   5.950   6.210   4.960  0.0435  0.3846 -0.0947
  576MOL0     C77690   5.919   6.304   5.027  0.8315  0.3739 -1.1294
  576MOL0     C77691   6.531   6.347   4.752  0.5671  0.2218  0.5915
  576MOL0     C77692   6.660   6.303   4.744 -0.3233  0.2996 -0.0266
  576MOL0     H77693   7.113   6.368   4.821 -0.3298  1.9718 -2.0259
  576MOL0     H77694   7.364   6.357   4.796  1.3483 -0.6196 -1.5249
  576MOL0     H77695   7.455   5.912   4.758  1.0566 -1.0831  1.3141
  576MOL0     H77696   7.549   5.951   4.617  0.4514  1.2195 -0.9176
  576MOL0     H77697   7.720   6.047   4.763  2.9693 -1.1372  2.4394
  576MOL0     H77698   7.652   5.988   4.902 -0.0838  1.2717 -0.3951
  576MOL0     H77699   7.680   5.758   4.813 -0.7955  1.0593 -0.3275
  576MOL0     H77700   7.757   5.816   4.663 -1.5417  0.6399 -0.6906
  576MOL0     H77701   7.940   5.785   4.801  1.5716  0.2498  2.0302
  576MOL0     H77702   7.901   5.956   4.857 -2.2786  0.7347  1.1897
  576MOL0     H77703   7.862   5.680   4.972  0.9165  0.0910 -1.2836
  576MOL0     H77704   7.972   5.811   5.022 -0.7473  0.0824  0.6925
  576MOL0     H77705   7.745   5.939   5.095 -2.0920 -0.5267 -0.5264
  576MOL0     H77706   7.669   5.781   5.081  0.5337 -2.0340  1.1577
  576MOL0     H77707   7.830   5.674   5.233 -2.1673 -0.7595  0.7584
  576MOL0     H77708   7.920   5.830   5.244 -0.5135  1.3411  2.0434
  576MOL0     H77709   7.700   5.925   5.343  2.7784  2.5183  0.4982
  576MOL0     H77710   7.798   5.836   5.452 -1.6248  2.5338  0.9199
  576MOL0     H77711   7.454   5.784   5.288 -2.7799  3.3915  3.9415
  576MOL0     H77712   7.278   5.573   5.299  0.5966 -1.1717 -0.2659
  576MOL0     H77713   7.312   5.462   5.434  1.5455 -0.5639  0.7031
  576MOL0     H77714   7.225   5.752   5.444 -0.2053 -0.2541  1.1277
  576MOL0     H77715   7.238   5.648   5.588  0.5677 -2.3619  0.2572
  576MOL0     H77716   7.075   5.497   5.529  0.9958 -0.4883 -1.0270
  576MOL0     H77717   7.049   5.567   5.366  2.1030  1.1134 -0.5686
  576MOL0     H77718   6.947   5.770   5.448  2.8284  1.1499  0.4372
  576MOL0     H77719   6.978   5.718   5.624  1.2956 -2.4542 -0.2428
  576MOL0     H77720   6.761   5.864   5.558 -1.3765  1.0266 -0.0035
  576MOL0     H77721   6.439   6.012   5.637 -0.5621  0.8049 -1.1894
  576MOL0     H77722   6.605   6.017   5.643 -0.1221 -2.3572  1.0334
  576MOL0     H77723   6.523   6.039   5.480  2.5807 -0.2434 -0.1388
  576MOL0     H77724   6.134   5.773   5.280 -0.4617 -0.5191  0.0788
  576MOL0     H77725   5.912   5.773   5.188  1.1738  0.0231  0.2266
  576MOL0     H77726   5.623   5.490   5.319 -1.4824  0.3874 -0.1671
  576MOL0     H77727   5.571   5.565   5.465 -1.4692 -2.5070 -0.8427
  576MOL0     H77728   5.392   5.538   5.303 -1.3854 -0.0867  0.0852
  576MOL0     H77729   5.423   5.715   5.321  0.6969 -0.9207  1.6990
  576MOL0     H77730   5.477   5.506   5.102 -1.9389 -2.4269  0.8108
  576MOL0     H77731   5.530   5.683   5.097 -1.6446  1.5113  1.0596
  576MOL0     H77732   5.279   5.740   5.133 -1.1720  2.2085 -1.8141
  576MOL0     H77733   5.363   5.725   4.977 -2.0021  1.9175  0.4638
  576MOL0     H77734   5.268   5.507   4.935  1.5008  0.7337  0.8947
  576MOL0     H77735   5.137   5.619   4.981 -2.2282 -1.3290 -0.6554
  576MOL0     H77736   5.155   5.379   5.046  1.2226 -0.7928 -0.3592
  576MOL0     H77737   5.266   5.412   5.173 -0.6394  2.5604  2.2080
  576MOL0     H77738   4.993   5.546   5.173  0.1225 -1.3775 -0.0102
  576MOL0     H77739   5.125   5.534   5.301 -0.3772 -1.4524  1.5052
  576MOL0     H77740   5.060   5.280   5.274  0.5841  0.7144 -1.0991
  576MOL0     H77741   4.916   5.349   5.189  0.8635 -1.8518 -0.3548
  576MOL0     H77742   5.761   5.625   5.558 -1.5996  2.3323 -1.0079
  576MOL0     H77743   5.998   5.626   5.658  0.6075  0.8978 -0.2236
  576MOL0     H77744   6.401   5.538   5.494  2.3852 -0.4022 -1.0507
  576MOL0     H77745   6.637   5.475   5.502 -1.8828 -0.7266 -0.4436
  576MOL0     H77746   7.287   5.959   4.619 -1.2025 -1.0769  0.4985
  576MOL0     H77747   7.056   5.998   4.620  1.4194 -1.4412 -0.1225
  576MOL0     H77748   6.659   6.230   4.412  3.7051 -0.2957  1.7239
  576MOL0     H77749   6.443   6.271   4.428  0.9661  1.0461 -0.7020
  576MOL0     H77750   6.160   6.399   4.526  0.6714  1.7201  0.5865
  576MOL0     H77751   6.231   6.246   4.534  0.4008  1.1991 -1.3368
  576MOL0     H77752   5.996   6.258   4.628  0.2131 -1.1062 -0.2193
  576MOL0     H77753   6.049   6.373   4.743 -0.5335  2.9470 -3.1473
  576MOL0     H77754   6.193   6.203   4.867 -1.9487  0.9713  1.9843
  576MOL0     H77755   6.158   6.093   4.717  0.2655  0.7710 -0.6715
  576MOL0     H77756   6.053   6.030   4.933  0.2948  1.6209  1.9206
  576MOL0     H77757   5.923   6.068   4.816 -2.3775  0.3954  3.0664
  576MOL0     H77758   5.884   6.374   5.100  0.6220 -1.4997  0.6469
  576MOL0     H77759   6.500   6.376   4.852 -1.4381  0.5208 -0.0750
  576MOL0     H77760   6.724   6.326   4.829  2.2570 -2.2616 -1.0954
  577MOL0     O77761   4.746   1.095   4.698 -0.3781  0.5673 -0.3052
  577MOL0     C77762   4.719   1.050   4.584  0.4136 -0.8834  0.9105
  577MOL0     O77763   4.602   1.073   4.510  0.4719  0.6077 -0.2482
  577MOL0     C77764   4.515   1.150   4.574 -0.2012 -0.3816 -0.4895
  577MOL0     C77765   4.468   1.120   4.705  0.8293 -0.5385 -0.8405
  577MOL0     C77766   4.366   1.204   4.753  0.1738  0.6099 -0.4545
  577MOL0     C77767   4.317   1.317   4.692  0.7649  0.0553 -0.7744
  577MOL0     O77768   4.218   1.379   4.764 -0.0640 -0.1377 -0.4548
  577MOL0     C77769   4.179   1.511   4.723 -1.4373  1.0104 -0.2780
  577MOL0     C77770   4.081   1.576   4.826  0.4606 -0.1255 -0.1250
  577MOL0     C77771   3.953   1.499   4.842 -0.4674  0.4648 -0.4497
  577MOL0     C77772   3.848   1.563   4.930 -0.0214 -0.6302  0.2110
  577MOL0     C77773   3.885   1.573   5.078 -1.4121 -0.1843 -0.8255
  577MOL0     C77774   3.763   1.609   5.166 -0.7244  0.4393 -0.2318
  577MOL0     C77775   3.653   1.504   5.192 -0.2002  0.0290  0.2138
  577MOL0     C77776   3.680   1.430   5.323  0.8529  0.5274 -0.1473
  577MOL0     N77777   3.767   1.313   5.295  0.2729  0.9178 -0.5145
  577MOL0     C77778   3.894   1.296   5.343  0.7021 -0.2881  0.5428
  577MOL0     C77779   3.944   1.185   5.281 -0.4939  0.5245  0.3572
  577MOL0     C77780   4.088   1.147   5.299 -0.8593  0.2610  0.3400
  577MOL0     C77781   4.134   1.066   5.422 -0.1297  0.1575 -0.9172
  577MOL0     C77782   4.069   0.929   5.444 -0.3001  0.3917 -0.0450
  577MOL0     C77783   4.133   0.880   5.581  0.1860  0.5280 -0.1892
  577MOL0     O77784   4.052   0.774   5.625 -0.0208  0.5315 -0.1252
  577MOL0     C77785   3.937   0.797   5.689  1.3002  1.1569 -0.1901
  577MOL0     C77786   3.874   0.923   5.712  0.3058 -0.1211  0.9264
  577MOL0     C77787   3.750   0.948   5.782  0.5022  0.5472 -0.4388
  577MOL0     C77788   3.697   1.096   5.783  0.0074 -0.3959  0.4289
  577MOL0     C77789   3.688   0.836   5.852  1.2405 -0.4788  0.6725
  577MOL0     C77790   3.558   0.839   5.917  0.8666  0.1284  0.3021
  577MOL0     O77791   3.488   0.949   5.921 -0.0185  0.3186 -0.1615
  577MOL0     C77792   3.373   0.957   5.987 -0.0203  0.0663  0.5159
  577MOL0     C77793   3.368   0.932   6.121  0.2648 -1.0557 -0.4659
  577MOL0     C77794   3.242   0.959   6.188  0.5974  0.1729 -0.1046
  577MOL0     C77795   3.131   1.016   6.119 -0.4921  0.7250 -0.3503
  577MOL0     O77796   3.007   1.052   6.170  0.0538 -0.0718  0.5827
  577MOL0     C77797   2.990   1.071   6.310 -0.2420  0.2580 -1.4519
  577MOL0     C77798   2.843   1.108   6.342 -0.1575 -0.7667 -0.3939
  577MOL0     C77799   2.824   1.260   6.307  0.0448 -0.6638 -0.0670
  577MOL0     C77800   2.883   1.338   6.423  0.5054  0.0162  0.2940
  577MOL0     C77801   2.839   1.486   6.422  0.7548  0.1951 -0.8403
  577MOL0     C77802   2.886   1.575   6.538 -0.6058  0.6501 -0.0094
  577MOL0     C77803   2.832   1.718   6.525  0.3972  0.2168  0.4923
  577MOL0     C77804   2.919   1.811   6.586 -0.5982  0.3247 -0.6652
  577MOL0    Cl77805   2.834   1.974   6.583 -0.0510  0.2746  0.2811
  577MOL0     C77806   3.150   1.021   5.982  0.2652  0.3655  0.0243
  577MOL0     C77807   3.269   0.994   5.917 -0.6494 -0.4499 -0.2799
  577MOL0     O77808   3.525   0.739   5.976  0.0756  0.1782  0.1910
  577MOL0     C77809   3.755   0.715   5.833  0.1648 -1.2865  0.9226
  577MOL0     C77810   3.868   0.693   5.748 -0.0704  0.0919 -0.0441
  577MOL0     N77811   3.836   1.125   5.213  1.5392 -1.2514 -0.2720
  577MOL0     N77812   3.731   1.200   5.224 -0.6692 -0.3149 -0.0695
  577MOL0     C77813   4.372   1.345   4.568 -0.7474 -0.1348 -0.0867
  577MOL0     C77814   4.473   1.269   4.511  0.5303  0.3851 -0.3272
  577MOL0     C77815   4.824   0.985   4.513  0.3476  0.3401 -1.1087
  577MOL0     C77816   4.790   0.928   4.387  0.0972  0.1842 -0.1486
  577MOL0     C77817   4.883   0.839   4.341 -0.4187 -0.1369 -0.3889
  577MOL0     C77818   5.013   0.823   4.389 -0.1803  0.5541 -0.6579
  577MOL0     O77819   5.098   0.725   4.335  0.4333 -0.0271 -0.3032
  577MOL0     C77820   5.234   0.752   4.329  0.1818 -0.5700  0.1586
  577MOL0     C77821   5.292   0.669   4.214 -0.3573  0.5353  0.3156
  577MOL0     C77822   5.267   0.525   4.244  0.0960 -0.3203  0.6011
  577MOL0     C77823   5.357   0.427   4.168 -0.0247 -0.1255  0.4102
  577MOL0     C77824   5.314   0.288   4.182 -0.5550  0.5878 -0.5064
  577MOL0     C77825   5.306   0.169   4.209  0.4046 -0.0492 -0.6297
  577MOL0     C77826   5.041   0.887   4.511  0.1333 -0.9230 -0.5678
  577MOL0     C77827   4.946   0.958   4.577  0.3378  0.1266 -0.3752
  577MOL0     H77828   4.503   1.032   4.757 -0.0172 -1.2866 -1.5073
  577MOL0     H77829   4.313   1.182   4.845  0.2339 -1.4517 -0.8545
  577MOL0     H77830   4.265   1.577   4.710 -0.3235 -0.1036  1.0783
  577MOL0     H77831   4.130   1.505   4.626  1.5270 -0.7691 -1.7969
  577MOL0     H77832   4.129   1.579   4.924 -1.8388 -0.7893  1.0731
  577MOL0     H77833   4.053   1.678   4.797 -0.5941  0.0926  1.5333
  577MOL0     H77834   3.899   1.480   4.749 -2.7780 -2.3578  1.2753
  577MOL0     H77835   3.981   1.404   4.888 -2.1363 -0.1156 -0.5780
  577MOL0     H77836   3.834   1.668   4.901 -3.9595 -0.5708  1.7884
  577MOL0     H77837   3.755   1.506   4.928 -0.3119 -0.1513 -0.1347
  577MOL0     H77838   3.929   1.475   5.095 -2.2255 -0.3722  0.3575
  577MOL0     H77839   3.969   1.642   5.093 -2.3005  0.6540  0.6190
  577MOL0     H77840   3.804   1.631   5.265  1.6194 -3.1092 -0.2594
  577MOL0     H77841   3.708   1.694   5.124 -1.7654 -1.2668 -2.5312
  577MOL0     H77842   3.555   1.551   5.204 -0.1224 -0.2885  2.5391
  577MOL0     H77843   3.655   1.431   5.110  2.0343 -0.0980  0.3098
  577MOL0     H77844   3.581   1.392   5.352 -0.7176  0.6017 -4.5971
  577MOL0     H77845   3.708   1.498   5.404  1.7215 -0.5084  0.4589
  577MOL0     H77846   3.935   1.356   5.424 -0.3139  1.4496 -0.1821
  577MOL0     H77847   4.116   1.084   5.214  0.9643  0.0926  1.0201
  577MOL0     H77848   4.144   1.241   5.292  2.1319 -1.3047  1.1524
  577MOL0     H77849   4.116   1.129   5.509  1.2646 -1.9718  1.0020
  577MOL0     H77850   4.243   1.059   5.419  0.1634  3.1019 -3.7742
  577MOL0     H77851   4.082   0.859   5.361  1.7397  0.8600 -0.1723
  577MOL0     H77852   3.960   0.933   5.454 -0.2649 -2.1634  2.3530
  577MOL0     H77853   4.143   0.963   5.651 -0.7319  0.3903  0.1112
  577MOL0     H77854   4.229   0.831   5.559 -1.0651 -1.0999 -2.4380
  577MOL0     H77855   3.925   1.009   5.669 -2.8620  1.1969 -0.4718
  577MOL0     H77856   3.591   1.104   5.807 -0.3376 -0.8954 -0.8371
  577MOL0     H77857   3.756   1.157   5.851  0.6796 -1.2873  0.6683
  577MOL0     H77858   3.696   1.138   5.683 -1.0518  0.5989  0.8390
  577MOL0     H77859   3.444   0.879   6.178  0.5083  1.7735  2.0827
  577MOL0     H77860   3.228   0.913   6.285 -1.7494 -4.3093 -2.2461
  577MOL0     H77861   3.044   0.989   6.359 -1.8817  0.2301  0.4411
  577MOL0     H77862   3.057   1.149   6.348  1.4138 -1.9977  0.6192
  577MOL0     H77863   2.775   1.053   6.276 -1.1678  0.9179 -0.8126
  577MOL0     H77864   2.818   1.104   6.448 -2.7157  2.2704 -0.7442
  577MOL0     H77865   2.717   1.284   6.308 -0.1983 -1.5697 -1.7056
  577MOL0     H77866   2.849   1.289   6.205  0.7564  2.2829  0.8319
  577MOL0     H77867   2.863   1.303   6.524  1.0823 -0.2284  0.3255
  577MOL0     H77868   2.991   1.344   6.402  0.1278  2.4778 -1.3590
  577MOL0     H77869   2.731   1.502   6.431  1.0377  1.2573  1.1510
  577MOL0     H77870   2.875   1.521   6.325  1.5018 -0.0621 -0.6599
  577MOL0     H77871   2.858   1.527   6.632  1.5983 -1.4080 -0.3013
  577MOL0     H77872   2.994   1.560   6.542 -0.8713 -1.5988  3.5949
  577MOL0     H77873   2.741   1.741   6.581  0.8619  1.2104  0.8608
  577MOL0     H77874   2.807   1.742   6.421 -3.5770  2.1439  1.7089
  577MOL0     H77875   3.015   1.811   6.534 -0.1395 -0.4402  0.1481
  577MOL0     H77876   2.954   1.781   6.685 -1.1564 -1.6694 -1.0370
  577MOL0     H77877   3.065   1.065   5.931  0.2056 -0.6028 -0.7422
  577MOL0     H77878   3.272   0.997   5.808  0.0979 -0.4493 -0.2639
  577MOL0     H77879   3.711   0.627   5.879 -1.3185 -1.1586 -0.1975
  577MOL0     H77880   3.917   0.597   5.737  1.3700  0.8145 -0.2320
  577MOL0     H77881   4.350   1.444   4.530 -1.1688  0.4031  1.4657
  577MOL0     H77882   4.517   1.318   4.425 -0.9251  1.9223 -0.2334
  577MOL0     H77883   4.700   0.947   4.329  0.4328 -1.2729 -1.2112
  577MOL0     H77884   4.861   0.778   4.254  0.9430  0.2700 -1.0419
  577MOL0     H77885   5.257   0.855   4.302  0.1663 -0.0304  2.0846
  577MOL0     H77886   5.279   0.731   4.427 -0.9503 -0.8014  0.6498
  577MOL0     H77887   5.399   0.688   4.207 -0.2105 -0.0824  0.8010
  577MOL0     H77888   5.252   0.703   4.118  1.8289  0.8891 -0.5204
  577MOL0     H77889   5.164   0.498   4.218  0.9533 -1.8772 -1.5008
  577MOL0     H77890   5.291   0.511   4.350  4.0137 -0.8578 -0.2205
  577MOL0     H77891   5.457   0.450   4.203 -0.1421  0.3776  0.4206
  577MOL0     H77892   5.342   0.467   4.067 -1.7336  2.2811  1.5111
  577MOL0     H77893   5.281   0.066   4.225  0.4992  0.2112  1.5097
  577MOL0     H77894   5.131   0.874   4.569  0.6307 -1.8748 -1.5197
  577MOL0     H77895   4.967   0.992   4.678  1.4112  4.2791 -1.7868
  578MOL0     O77896   4.718   1.809   7.014 -0.6362  0.1038 -0.7800
  578MOL0     C77897   4.649   1.713   6.976 -0.4457 -0.3168 -0.0436
  578MOL0     O77898   4.683   1.581   7.004 -0.1562  0.3715  0.2204
  578MOL0     C77899   4.801   1.541   7.069  0.1693 -0.6595  0.0730
  578MOL0     C77900   4.926   1.582   7.016  0.3642  0.0222  0.1637
  578MOL0     C77901   5.046   1.527   7.069  0.1382 -0.5275  0.3234
  578MOL0     C77902   5.045   1.438   7.173 -0.1700 -0.2450 -0.4473
  578MOL0     O77903   5.150   1.381   7.234  0.4122 -0.0745 -0.4726
  578MOL0     C77904   5.268   1.453   7.255 -0.3267  0.1856 -0.3980
  578MOL0     C77905   5.255   1.573   7.354 -0.0310 -0.1463 -0.2451
  578MOL0     C77906   5.187   1.541   7.491 -0.1200  0.2177 -0.3997
  578MOL0     C77907   5.265   1.458   7.600  0.3104 -0.7379  0.6187
  578MOL0     C77908   5.189   1.459   7.734 -0.5799  0.0762 -0.1508
  578MOL0     C77909   5.239   1.349   7.828  0.4449 -0.2232  0.9370
  578MOL0     C77910   5.384   1.341   7.852  0.7387  0.0204  1.1997
  578MOL0     C77911   5.471   1.281   7.735  0.9523 -0.5227 -0.5037
  578MOL0     N77912   5.575   1.197   7.791 -0.6554  0.0682 -0.4075
  578MOL0     C77913   5.551   1.106   7.884 -0.4470  0.3193 -0.2034
  578MOL0     C77914   5.668   1.039   7.895  0.2918  0.2592 -0.4003
  578MOL0     C77915   5.677   0.922   7.984  0.6210 -0.0111  0.9643
  578MOL0     C77916   5.671   0.792   7.898 -0.0977  0.8031 -0.4513
  578MOL0     C77917   5.718   0.665   7.971  0.6538 -0.4507 -0.5666
  578MOL0     C77918   5.623   0.598   8.073 -0.4767 -0.1660  0.4191
  578MOL0     O77919   5.654   0.631   8.211  0.0576 -0.1521 -0.4153
  578MOL0     C77920   5.598   0.736   8.283 -0.1150  0.0873 -0.2485
  578MOL0     C77921   5.467   0.779   8.280 -0.6780  0.2397  0.7121
  578MOL0     C77922   5.432   0.901   8.342  0.0462  1.0666  0.1069
  578MOL0     C77923   5.291   0.953   8.318  0.0177 -0.3640  0.6143
  578MOL0     C77924   5.523   0.969   8.416 -0.8263 -0.9458 -0.2071
  578MOL0     C77925   5.501   1.103   8.485 -0.3263  0.3459  0.7627
  578MOL0     O77926   5.587   1.141   8.577 -0.3924  0.2227  0.3186
  578MOL0     C77927   5.559   1.226   8.683  0.9048  0.1605 -0.2123
  578MOL0     C77928   5.424   1.267   8.717  0.4262 -0.5513  0.2868
  578MOL0     C77929   5.404   1.328   8.839  0.1537 -0.5210  0.0041
  578MOL0     C77930   5.504   1.342   8.936 -0.6316  0.9176  0.5789
  578MOL0     O77931   5.470   1.403   9.054 -0.0259 -0.8231  0.1707
  578MOL0     C77932   5.346   1.440   9.111 -0.1576  0.5192 -0.2491
  578MOL0     C77933   5.246   1.336   9.156 -0.5764  0.7706 -0.3783
  578MOL0     C77934   5.103   1.406   9.177  0.1426  0.5946  1.0740
  578MOL0     C77935   5.106   1.518   9.288 -0.3989  0.2071 -0.6239
  578MOL0     C77936   4.991   1.502   9.385 -0.0470  0.5348  0.4644
  578MOL0     C77937   4.872   1.563   9.315 -0.4194 -0.3661  0.3406
  578MOL0     C77938   4.756   1.526   9.389  0.9975  0.3371  0.6042
  578MOL0     C77939   4.634   1.515   9.315 -0.2562 -0.1843  0.8327
  578MOL0    Cl77940   4.500   1.506   9.425 -0.1239 -0.1459  0.0512
  578MOL0     C77941   5.635   1.296   8.904  0.2150 -0.8259  0.1248
  578MOL0     C77942   5.666   1.256   8.772  0.4391  0.1389 -0.8012
  578MOL0     O77943   5.432   1.178   8.423  0.6041  0.0259 -0.0785
  578MOL0     C77944   5.651   0.913   8.434  0.5092  0.0589 -0.9330
  578MOL0     C77945   5.687   0.797   8.363 -0.0864  0.4252 -0.4749
  578MOL0     N77946   5.769   1.091   7.819  1.0341 -0.0602  0.9140
  578MOL0     N77947   5.703   1.184   7.752  0.3619 -0.2693 -0.1594
  578MOL0     C77948   4.919   1.401   7.223 -0.8089  0.5053  0.3462
  578MOL0     C77949   4.797   1.450   7.175  0.3337  0.3525 -0.7903
  578MOL0     C77950   4.519   1.740   6.916  0.2263 -0.0111 -0.7620
  578MOL0     C77951   4.435   1.627   6.880 -0.0451 -0.0995 -1.3107
  578MOL0     C77952   4.319   1.654   6.808 -1.0235  0.6176 -0.9358
  578MOL0     C77953   4.274   1.783   6.781 -0.0022 -0.3196  0.2019
  578MOL0     O77954   4.150   1.807   6.719  0.1906  0.5510  0.0239
  578MOL0     C77955   4.168   1.885   6.592  0.6717 -0.4255  0.0583
  578MOL0     C77956   4.248   1.806   6.491 -0.3326  0.2493  0.6304
  578MOL0     C77957   4.161   1.697   6.434  0.4523 -0.4798 -0.3150
  578MOL0     C77958   4.230   1.600   6.338 -0.5429  0.3543 -0.6366
  578MOL0     C77959   4.317   1.507   6.410  0.2751 -0.8082  0.6074
  578MOL0     C77960   4.399   1.446   6.466  1.1431 -0.8422  0.0304
  578MOL0     C77961   4.357   1.893   6.821  0.2326  0.6356  0.2277
  578MOL0     C77962   4.476   1.863   6.885  0.1482 -0.2573  0.3810
  578MOL0     H77963   4.923   1.648   6.931  2.6755 -2.3541 -1.9325
  578MOL0     H77964   5.141   1.555   7.024 -0.2246  0.0480 -0.0974
  578MOL0     H77965   5.344   1.386   7.294 -0.3828  1.6927  2.5875
  578MOL0     H77966   5.304   1.485   7.157 -1.2720  2.8257  0.0273
  578MOL0     H77967   5.354   1.609   7.383 -0.2430  0.1486  0.1162
  578MOL0     H77968   5.200   1.655   7.306  1.6142  1.8026  1.0334
  578MOL0     H77969   5.176   1.636   7.545 -0.9391  0.6659 -1.3301
  578MOL0     H77970   5.088   1.500   7.469 -2.2804  3.1464  2.7360
  578MOL0     H77971   5.271   1.360   7.553 -3.0925 -0.4112 -0.8094
  578MOL0     H77972   5.365   1.500   7.614  0.9289 -2.2110  0.7237
  578MOL0     H77973   5.195   1.560   7.776 -0.2462 -0.4044  0.9961
  578MOL0     H77974   5.083   1.434   7.727 -0.6714  0.8041 -1.5356
  578MOL0     H77975   5.199   1.352   7.930  0.6815 -2.8993  1.1675
  578MOL0     H77976   5.205   1.256   7.782  3.0465 -0.2722 -1.1279
  578MOL0     H77977   5.413   1.442   7.883  0.7036 -0.1730  1.8961
  578MOL0     H77978   5.393   1.276   7.940 -0.7813 -3.8911 -1.2728
  578MOL0     H77979   5.519   1.365   7.685  0.9676 -1.2341 -1.7048
  578MOL0     H77980   5.410   1.228   7.661 -1.0634  1.8690 -0.6994
  578MOL0     H77981   5.468   1.086   7.952  1.3391  1.9286  2.6750
  578MOL0     H77982   5.761   0.927   8.053  2.2258  2.7038 -1.0108
  578MOL0     H77983   5.586   0.918   8.045 -0.7548 -1.7411 -1.0596
  578MOL0     H77984   5.740   0.810   7.815 -1.0356 -0.3500 -1.5404
  578MOL0     H77985   5.565   0.772   7.879  0.0635 -1.0539  0.3412
  578MOL0     H77986   5.816   0.685   8.017  0.5265 -2.4141  0.6664
  578MOL0     H77987   5.718   0.591   7.891 -2.1464 -0.0924 -1.0005
  578MOL0     H77988   5.622   0.489   8.058  0.6003 -0.0988 -0.2522
  578MOL0     H77989   5.524   0.637   8.047  1.1338  4.2739  0.0649
  578MOL0     H77990   5.395   0.715   8.229  0.9403  0.2301 -1.6738
  578MOL0     H77991   5.223   0.876   8.280  2.1923 -1.7580 -0.6954
  578MOL0     H77992   5.248   0.987   8.413 -0.0892 -0.9306  0.7758
  578MOL0     H77993   5.293   1.029   8.240  2.5743 -0.9924 -0.0161
  578MOL0     H77994   5.330   1.261   8.663 -1.5369  3.1733  2.7953
  578MOL0     H77995   5.304   1.361   8.865 -0.2271 -2.0500  0.5358
  578MOL0     H77996   5.367   1.500   9.200 -1.7814 -2.0846  2.0471
  578MOL0     H77997   5.292   1.509   9.045 -1.5294  0.0302  0.3245
  578MOL0     H77998   5.240   1.264   9.074 -2.2696 -1.2506  1.4037
  578MOL0     H77999   5.283   1.286   9.246 -0.1495 -0.1877 -1.0694
  578MOL0     H78000   5.020   1.338   9.201 -0.3524  0.9303  0.3201
  578MOL0     H78001   5.079   1.463   9.088  0.4354 -0.1357  0.5183
  578MOL0     H78002   5.200   1.515   9.343 -0.5035  2.1453 -0.2424
  578MOL0     H78003   5.112   1.619   9.246 -0.1766  0.9270  1.0597
  578MOL0     H78004   5.016   1.550   9.480 -2.9984  1.8941  0.6367
  578MOL0     H78005   4.985   1.393   9.401  0.3272  0.3210 -0.7797
  578MOL0     H78006   4.876   1.673   9.309  3.3205 -0.2882  1.9084
  578MOL0     H78007   4.858   1.545   9.208  0.1951  5.6569 -1.1306
  578MOL0     H78008   4.737   1.608   9.460  0.5961  2.6492 -2.0205
  578MOL0     H78009   4.765   1.430   9.441  3.0291 -0.8483 -1.7343
  578MOL0     H78010   4.627   1.439   9.236  1.6434  1.8306 -1.4575
  578MOL0     H78011   4.630   1.604   9.251 -0.2033 -1.6383 -1.3182
  578MOL0     H78012   5.716   1.297   8.977 -1.9972  1.0001  2.7252
  578MOL0     H78013   5.770   1.236   8.750  0.7251 -0.7050  1.1328
  578MOL0     H78014   5.726   0.967   8.491  0.1741  2.1543 -2.3726
  578MOL0     H78015   5.787   0.757   8.375 -1.3995 -2.7059  0.9439
  578MOL0     H78016   4.918   1.319   7.294 -0.7055 -1.0767 -1.3827
  578MOL0     H78017   4.700   1.412   7.205  0.7726 -1.5870 -1.6666
  578MOL0     H78018   4.474   1.526   6.891 -2.9526 -1.0763  1.9425
  578MOL0     H78019   4.255   1.573   6.774  0.4434 -0.4512 -1.2449
  578MOL0     H78020   4.071   1.924   6.560  0.6114  0.1683  0.9361
  578MOL0     H78021   4.224   1.977   6.604 -3.0887  2.0941  0.1648
  578MOL0     H78022   4.341   1.761   6.525 -0.5191 -0.1958  0.5648
  578MOL0     H78023   4.279   1.868   6.406  1.6505 -0.7779  0.5414
  578MOL0     H78024   4.072   1.732   6.381 -1.8124 -5.1858 -0.1488
  578MOL0     H78025   4.116   1.639   6.516 -0.5483 -0.2941 -0.7146
  578MOL0     H78026   4.290   1.646   6.259 -2.8768  0.8390 -2.2173
  578MOL0     H78027   4.153   1.541   6.286  1.6213 -0.9281 -2.5557
  578MOL0     H78028   4.467   1.382   6.518  1.3860 -0.3467  0.3371
  578MOL0     H78029   4.341   2.001   6.825  1.0257  0.7426  2.9213
  578MOL0     H78030   4.518   1.961   6.903 -2.2299  0.5658  1.9365
  579MOL0     O78031   3.828   0.855   8.831 -0.5684 -0.0025 -0.3860
  579MOL0     C78032   3.903   0.796   8.750  0.6056 -0.9104 -0.0525
  579MOL0     O78033   3.881   0.669   8.691  0.0417 -0.7974  0.1834
  579MOL0     C78034   3.765   0.611   8.726  0.1255  0.4877  1.6314
  579MOL0     C78035   3.678   0.579   8.614 -0.2525  0.4944  0.5777
  579MOL0     C78036   3.564   0.499   8.633 -0.7180  0.4991 -0.1849
  579MOL0     C78037   3.532   0.451   8.756  0.9433  0.1600 -0.9941
  579MOL0     O78038   3.428   0.366   8.778  0.0306 -0.2540 -1.3163
  579MOL0     C78039   3.388   0.263   8.676  0.1039 -0.1704  0.0960
  579MOL0     C78040   3.244   0.299   8.649  0.8396 -0.2224  0.1815
  579MOL0     C78041   3.183   0.198   8.548 -0.3138  0.6899 -0.6424
  579MOL0     C78042   3.038   0.175   8.567  0.1288  0.5852 -0.6977
  579MOL0     C78043   2.977   0.058   8.491 -0.0195 -0.5988 -0.0674
  579MOL0     C78044   3.011   0.050   8.344 -0.2625 -0.9174 -0.5773
  579MOL0     C78045   2.933  -0.061   8.290 -0.0932 -0.4790 -0.1612
  579MOL0     C78046   2.959  -0.067   8.136 -0.2041 -0.4174 -0.6480
  579MOL0     N78047   2.862  -0.165   8.068 -0.1367 -0.5811  0.0701
  579MOL0     C78048   2.724  -0.174   8.075 -0.8018 -1.0904 -0.2551
  579MOL0     C78049   2.697  -0.295   8.029  0.2450  0.0436  0.0628
  579MOL0     C78050   2.572  -0.380   8.030 -0.1545 -0.8682  0.0804
  579MOL0     C78051   2.447  -0.309   8.089  0.1622  0.7370 -0.9169
  579MOL0     C78052   2.444  -0.287   8.252  0.0753  1.0396  0.0353
  579MOL0     C78053   2.301  -0.289   8.299  0.9379  0.4851  0.4784
  579MOL0     O78054   2.254  -0.430   8.292  0.3406 -0.0660  0.9344
  579MOL0     C78055   2.113  -0.454   8.295 -1.3092  0.2309  0.1734
  579MOL0     C78056   2.016  -0.354   8.285 -0.7768 -0.4410 -0.6633
  579MOL0     C78057   1.885  -0.387   8.285  0.0539  1.0865 -0.1758
  579MOL0     C78058   1.787  -0.284   8.251 -0.5328 -0.5385 -0.2693
  579MOL0     C78059   1.838  -0.514   8.304  0.7562 -0.8558  0.6208
  579MOL0     C78060   1.694  -0.556   8.296 -0.0323  0.5712 -1.4413
  579MOL0     O78061   1.602  -0.498   8.201 -0.5283 -0.6345  0.1895
  579MOL0     C78062   1.469  -0.535   8.213 -0.4591 -0.6786  0.6209
  579MOL0     C78063   1.378  -0.434   8.205 -0.1163  0.4426  0.1460
  579MOL0     C78064   1.242  -0.470   8.226  0.2629 -0.6550  0.6003
  579MOL0     C78065   1.198  -0.598   8.254 -0.0857  0.7490 -0.4602
  579MOL0     O78066   1.064  -0.606   8.273 -0.5395  0.5032  0.1029
  579MOL0     C78067   1.003  -0.730   8.239 -0.2805 -0.2535 -0.2825
  579MOL0     C78068   0.858  -0.700   8.230 -0.3982  0.3922  0.4270
  579MOL0     C78069   0.769  -0.806   8.159 -0.5752 -0.2743  0.6867
  579MOL0     C78070   0.641  -0.757   8.082  0.7633  0.5590  1.1993
  579MOL0     C78071   0.547  -0.869   8.020 -0.7284 -0.6858  0.2975
  579MOL0     C78072   0.451  -0.795   7.927  1.5276 -0.4696 -0.1052
  579MOL0     C78073   0.367  -0.675   7.988 -0.6298  0.9527  0.1051
  579MOL0     C78074   0.261  -0.607   7.908 -0.2319  0.4551  0.3057
  579MOL0    Cl78075   0.122  -0.717   7.894  0.0541 -0.1076 -0.5365
  579MOL0     C78076   1.291  -0.703   8.252 -0.1887 -0.7056  0.3296
  579MOL0     C78077   1.432  -0.674   8.227  0.1999 -0.6460 -0.3951
  579MOL0     O78078   1.660  -0.647   8.375  0.6685  0.1993 -0.0036
  579MOL0     C78079   1.936  -0.621   8.316  0.0277 -0.4616  0.2549
  579MOL0     C78080   2.079  -0.588   8.319  0.2467  0.2505  0.7858
  579MOL0     N78081   2.814  -0.350   7.978  0.0591 -0.1539 -1.2697
  579MOL0     N78082   2.915  -0.276   8.016  0.4346  0.6583 -0.1880
  579MOL0     C78083   3.615   0.484   8.865  0.1232 -0.3469  0.4708
  579MOL0     C78084   3.731   0.563   8.853  0.5082  0.3011  0.5296
  579MOL0     C78085   4.029   0.865   8.700 -0.4204 -0.3380  0.4695
  579MOL0     C78086   4.083   0.985   8.752  0.1431  0.5667  0.8449
  579MOL0     C78087   4.205   1.032   8.712  0.0181 -0.7254 -0.3145
  579MOL0     C78088   4.278   0.966   8.608 -0.1073  0.1395 -0.2867
  579MOL0     O78089   4.405   1.002   8.573  0.1940  0.2872 -0.0361
  579MOL0     C78090   4.460   1.128   8.617  0.4389  0.2452 -0.3209
  579MOL0     C78091   4.554   1.176   8.518 -0.0229  0.0907  0.4790
  579MOL0     C78092   4.697   1.118   8.539 -0.4219  0.7217 -0.8117
  579MOL0     C78093   4.806   1.162   8.438 -0.8044  0.2074 -0.0986
  579MOL0     C78094   4.755   1.143   8.297  0.3412 -0.8391 -0.1471
  579MOL0     C78095   4.695   1.120   8.197  0.7660 -0.0998 -0.6667
  579MOL0     C78096   4.218   0.844   8.553  0.0282  0.0084 -0.1780
  579MOL0     C78097   4.092   0.805   8.594  0.3997  0.4490  0.2257
  579MOL0     H78098   3.697   0.623   8.517 -0.4618  1.9547  1.1737
  579MOL0     H78099   3.493   0.480   8.552  1.2831 -2.0515 -1.4961
  579MOL0     H78100   3.456   0.258   8.591 -1.0122  1.5940 -0.9527
  579MOL0     H78101   3.378   0.172   8.736 -0.4794 -0.8066 -0.9380
  579MOL0     H78102   3.188   0.290   8.743  1.1455 -0.9216  0.3010
  579MOL0     H78103   3.237   0.403   8.615 -0.8715 -0.6649 -0.8884
  579MOL0     H78104   3.202   0.244   8.451  0.7767 -0.4592 -0.9970
  579MOL0     H78105   3.244   0.107   8.547 -3.4508 -1.6915  2.3320
  579MOL0     H78106   3.027   0.160   8.675 -1.6949  2.6271 -0.5319
  579MOL0     H78107   2.972   0.257   8.537  0.8429  1.0248 -1.0742
  579MOL0     H78108   3.019  -0.024   8.550 -1.9860 -0.0037  2.3544
  579MOL0     H78109   2.868   0.056   8.500 -0.2391 -3.0359 -2.0684
  579MOL0     H78110   2.986   0.142   8.290  0.1759 -0.5976 -0.2451
  579MOL0     H78111   3.118   0.027   8.337 -0.3634 -2.4186  1.7783
  579MOL0     H78112   2.966  -0.153   8.339  0.3413 -0.5724 -0.6201
  579MOL0     H78113   2.825  -0.059   8.306 -0.7822 -1.4229 -3.7873
  579MOL0     H78114   3.067  -0.070   8.120  0.7214 -1.0186  4.1076
  579MOL0     H78115   2.938   0.036   8.106 -0.8282  0.0898  1.3494
  579MOL0     H78116   2.653  -0.101   8.112 -1.8730 -0.5509 -3.1096
  579MOL0     H78117   2.545  -0.424   7.934 -1.2371  0.8724 -0.4507
  579MOL0     H78118   2.587  -0.471   8.090 -5.4084 -1.0618  1.5988
  579MOL0     H78119   2.360  -0.372   8.069  0.7928 -0.6434  0.4857
  579MOL0     H78120   2.429  -0.214   8.038 -0.3956  0.7653 -0.6760
  579MOL0     H78121   2.478  -0.186   8.276 -1.1836  1.3005  0.8260
  579MOL0     H78122   2.515  -0.359   8.292  0.6932 -0.1165 -2.8541
  579MOL0     H78123   2.253  -0.219   8.230  0.1599 -0.8020 -0.3340
  579MOL0     H78124   2.292  -0.258   8.404  0.6608  0.1874  0.5451
  579MOL0     H78125   2.054  -0.255   8.262 -0.0683 -0.9959 -1.9866
  579MOL0     H78126   1.703  -0.280   8.320 -1.0097  3.3146 -0.8650
  579MOL0     H78127   1.833  -0.185   8.248 -1.9504  0.1350 -0.3392
  579MOL0     H78128   1.744  -0.293   8.151  1.6518  1.7559 -1.5200
  579MOL0     H78129   1.399  -0.332   8.173 -2.1340  2.0844  3.4641
  579MOL0     H78130   1.162  -0.397   8.220 -0.8780 -2.0070 -2.0553
  579MOL0     H78131   1.039  -0.751   8.137 -2.8632  0.1725 -1.3644
  579MOL0     H78132   1.011  -0.820   8.301 -1.1022  1.1140  1.9009
  579MOL0     H78133   0.826  -0.696   8.334 -1.0873 -1.0617  0.2969
  579MOL0     H78134   0.839  -0.609   8.172 -1.9862 -1.5983 -2.4412
  579MOL0     H78135   0.742  -0.871   8.242  0.8143  1.7962  2.8870
  579MOL0     H78136   0.837  -0.860   8.092  0.0664  4.6409 -3.1734
  579MOL0     H78137   0.586  -0.692   8.150  1.1386  0.9455  1.1410
  579MOL0     H78138   0.669  -0.690   8.000 -2.9722  1.5645  0.5747
  579MOL0     H78139   0.497  -0.932   8.094 -0.0343 -0.8076  0.6719
  579MOL0     H78140   0.606  -0.936   7.957 -5.0669 -0.1956 -5.1202
  579MOL0     H78141   0.500  -0.776   7.831 -1.3273 -1.1907 -1.8301
  579MOL0     H78142   0.365  -0.855   7.897 -0.3479  2.8954 -1.9391
  579MOL0     H78143   0.435  -0.591   8.001  0.5569 -0.2394  2.1375
  579MOL0     H78144   0.329  -0.707   8.085  0.2442  2.0860  0.8546
  579MOL0     H78145   0.287  -0.582   7.804 -2.0845 -2.0341 -0.8540
  579MOL0     H78146   0.231  -0.514   7.956 -0.5644  0.6312 -0.2410
  579MOL0     H78147   1.254  -0.804   8.261 -1.0195 -0.4340  0.0115
  579MOL0     H78148   1.511  -0.747   8.214 -0.2279 -0.9025 -1.7764
  579MOL0     H78149   1.906  -0.724   8.331 -2.1173 -0.0646 -0.8440
  579MOL0     H78150   2.150  -0.669   8.334 -1.5860 -2.0387 -1.9743
  579MOL0     H78151   3.596   0.455   8.967  2.3275  2.5784  1.8505
  579MOL0     H78152   3.793   0.574   8.941  0.7207 -1.7646  0.6847
  579MOL0     H78153   4.039   1.038   8.836  1.1770  1.0793  1.0735
  579MOL0     H78154   4.246   1.118   8.763  1.5002 -1.2793 -0.5252
  579MOL0     H78155   4.379   1.201   8.625  0.0624 -0.2960  1.2981
  579MOL0     H78156   4.510   1.109   8.713 -1.9086 -2.5984  0.4885
  579MOL0     H78157   4.567   1.281   8.543  1.0177 -0.8176  4.6230
  579MOL0     H78158   4.522   1.167   8.414  2.9872 -4.0755 -0.3377
  579MOL0     H78159   4.690   1.009   8.545  0.2159  0.7499  0.8857
  579MOL0     H78160   4.736   1.148   8.636  0.2871  2.0362 -1.4674
  579MOL0     H78161   4.898   1.105   8.451 -1.6447 -1.4865 -1.1343
  579MOL0     H78162   4.836   1.265   8.455  0.8061 -0.3799  0.9067
  579MOL0     H78163   4.631   1.088   8.118 -0.4744  0.0199  0.2461
  579MOL0     H78164   4.255   0.773   8.480 -0.5696 -0.5031  0.0108
  579MOL0     H78165   4.046   0.721   8.542  0.1064  1.6377 -1.5188
  580MOL0     O78166   5.571   0.815   0.409 -0.5810 -0.9926  0.3702
  580MOL0     C78167   5.517   0.820   0.295 -0.3295 -0.1771 -0.1975
  580MOL0     O78168   5.395   0.860   0.256 -0.1444  0.6250 -0.7264
  580MOL0     C78169   5.304   0.891   0.358 -0.1119 -0.4784  0.0673
  580MOL0     C78170   5.330   0.942   0.486  0.9397  1.2679 -0.0178
  580MOL0     C78171   5.230   0.963   0.585 -0.7433  0.2545  0.6819
  580MOL0     C78172   5.099   0.921   0.560 -0.0436 -0.7484 -0.6637
  580MOL0     O78173   5.000   0.943   0.652 -0.5500 -0.5383  0.3586
  580MOL0     C78174   5.043   0.928   0.793  0.5024  0.3957 -0.5738
  580MOL0     C78175   4.923   0.857   0.863 -0.4064 -0.0344 -0.9220
  580MOL0     C78176   4.786   0.911   0.827 -0.2066 -0.6466 -0.2115
  580MOL0     C78177   4.663   0.843   0.893 -0.1106  0.3895  0.4598
  580MOL0     C78178   4.537   0.919   0.867  0.3295 -0.5539  0.6586
  580MOL0     C78179   4.421   0.868   0.952  0.2860  0.1513 -0.2934
  580MOL0     C78180   4.284   0.929   0.911  0.1607 -0.1951 -0.0913
  580MOL0     C78181   4.174   0.891   1.012  0.5484  0.4700  0.5197
  580MOL0     N78182   4.049   0.948   0.958 -0.4106  0.5422  0.1762
  580MOL0     C78183   3.967   0.876   0.877 -0.0481 -0.6083 -0.4549
  580MOL0     C78184   3.855   0.956   0.864  0.2423  0.1951 -0.2773
  580MOL0     C78185   3.739   0.924   0.780  0.3278  0.0857  0.2602
  580MOL0     C78186   3.653   0.819   0.847 -0.0697 -0.2221 -1.0736
  580MOL0     C78187   3.562   0.871   0.951 -0.4787  0.1896 -0.5968
  580MOL0     C78188   3.419   0.829   0.934 -0.3832  0.7149 -0.2512
  580MOL0     O78189   3.352   0.908   0.840 -0.4079 -0.0725 -0.0113
  580MOL0     C78190   3.230   0.864   0.794 -0.0844 -0.1035 -0.5409
  580MOL0     C78191   3.163   0.930   0.691 -0.0517  0.1179 -1.0752
  580MOL0     C78192   3.052   0.879   0.619  0.0130 -0.6011  0.2163
  580MOL0     C78193   3.008   0.966   0.505  0.4124  0.1945 -1.2771
  580MOL0     C78194   3.005   0.758   0.663 -0.0746  0.7136 -0.2026
  580MOL0     C78195   2.905   0.676   0.579  0.9057  0.1647 -0.0116
  580MOL0     O78196   2.850   0.736   0.469 -0.9289 -0.3053 -0.1291
  580MOL0     C78197   2.780   0.670   0.376  0.4481 -0.3489 -0.9260
  580MOL0     C78198   2.777   0.731   0.257 -0.4589  0.8932 -0.4870
  580MOL0     C78199   2.716   0.675   0.142 -0.1926 -0.2121 -0.2444
  580MOL0     C78200   2.655   0.549   0.147 -0.0816 -0.0543 -0.1730
  580MOL0     O78201   2.589   0.497   0.041 -0.9092 -0.2756 -0.0661
  580MOL0     C78202   2.588   0.563  -0.089 -0.6285  0.0047  0.9967
  580MOL0     C78203   2.494   0.485  -0.194  0.4583 -0.3673 -0.7834
  580MOL0     C78204   2.566   0.356  -0.260 -0.4333 -0.9821 -0.5549
  580MOL0     C78205   2.490   0.311  -0.378  0.0240  0.1404 -0.2819
  580MOL0     C78206   2.559   0.186  -0.431  0.4113  0.3203  0.9718
  580MOL0     C78207   2.499   0.157  -0.575 -0.2597 -0.7448 -0.3620
  580MOL0     C78208   2.557   0.031  -0.652  0.1708  1.1802 -1.0677
  580MOL0     C78209   2.539  -0.093  -0.569 -1.5075  0.0487 -0.9971
  580MOL0    Cl78210   2.367  -0.153  -0.597  0.3720 -0.0322  0.1826
  580MOL0     C78211   2.649   0.487   0.273  0.0247 -0.0283 -0.3541
  580MOL0     C78212   2.709   0.549   0.388  0.3111  0.1155  0.0945
  580MOL0     O78213   2.887   0.553   0.609 -0.3757 -0.7211  0.2062
  580MOL0     C78214   3.046   0.701   0.786  0.7214  0.1433 -0.1134
  580MOL0     C78215   3.160   0.750   0.848  0.6040 -0.3949  0.4881
  580MOL0     N78216   3.870   1.077   0.933  0.6556  0.6201  0.2863
  580MOL0     N78217   3.979   1.057   0.995 -0.3171 -0.7755 -0.3026
  580MOL0     C78218   5.073   0.876   0.428 -0.9357  0.4797  0.0996
  580MOL0     C78219   5.180   0.862   0.337 -1.0717  0.2928  0.1977
  580MOL0     C78220   5.604   0.773   0.182  2.0252  0.1424 -1.0472
  580MOL0     C78221   5.737   0.739   0.208  0.3456  0.7622  0.1060
  580MOL0     C78222   5.813   0.698   0.098 -0.4936  0.0118 -0.5317
  580MOL0     C78223   5.760   0.690  -0.031 -1.5444 -0.2164 -0.7958
  580MOL0     O78224   5.853   0.648  -0.132 -0.0925 -0.6983 -0.3753
  580MOL0     C78225   5.798   0.580  -0.251  0.4458  0.1008  0.0650
  580MOL0     C78226   5.916   0.516  -0.323  0.5700 -0.0950 -0.2745
  580MOL0     C78227   5.983   0.626  -0.414 -0.1640 -0.1872 -0.1158
  580MOL0     C78228   6.100   0.576  -0.485 -0.3912  1.1804 -0.8408
  580MOL0     C78229   6.165   0.688  -0.556 -0.5619  0.0742  0.4104
  580MOL0     C78230   6.222   0.769  -0.624 -0.5804 -0.7912 -0.3076
  580MOL0     C78231   5.629   0.721  -0.056 -0.2781 -0.8800 -0.5559
  580MOL0     C78232   5.547   0.762   0.049  0.6703 -0.1790  0.2771
  580MOL0     H78233   5.428   0.981   0.513  2.3989 -0.5133 -2.3898
  580MOL0     H78234   5.256   1.002   0.682 -1.2885  1.3469  0.4012
  580MOL0     H78235   5.130   0.863   0.805  0.5848  0.7574  1.0178
  580MOL0     H78236   5.062   1.025   0.840 -1.4736  0.9711 -0.8778
  580MOL0     H78237   4.918   0.750   0.842 -0.2218 -0.2234 -0.0305
  580MOL0     H78238   4.927   0.863   0.972 -0.1932 -0.9235 -0.8783
  580MOL0     H78239   4.795   1.020   0.828  1.9547 -0.6881 -3.1476
  580MOL0     H78240   4.761   0.902   0.721 -3.6497  1.5950  0.2256
  580MOL0     H78241   4.646   0.738   0.868 -2.4415  1.1808 -1.7499
  580MOL0     H78242   4.676   0.847   1.002  1.2336 -1.4777  0.4093
  580MOL0     H78243   4.539   1.026   0.893 -1.0838  0.1433 -1.7510
  580MOL0     H78244   4.506   0.914   0.762 -2.0560  0.0069  1.2724
  580MOL0     H78245   4.397   0.761   0.941  2.7459 -0.6586  1.3485
  580MOL0     H78246   4.447   0.889   1.057 -2.6759 -2.4174  1.1280
  580MOL0     H78247   4.286   1.038   0.906 -2.4914 -0.0067  1.3276
  580MOL0     H78248   4.259   0.898   0.809 -0.9767 -2.4261  0.7961
  580MOL0     H78249   4.202   0.917   1.114  2.9055 -0.8832  0.3067
  580MOL0     H78250   4.149   0.786   1.029  0.3559  0.4869  0.3440
  580MOL0     H78251   3.987   0.778   0.834  0.1523  0.0377 -1.8619
  580MOL0     H78252   3.672   1.010   0.771 -0.1204 -0.0347  2.0815
  580MOL0     H78253   3.768   0.884   0.682  0.3523 -3.7380  1.6485
  580MOL0     H78254   3.706   0.738   0.898  0.3233  0.1759 -0.8408
  580MOL0     H78255   3.593   0.763   0.775  0.2688 -1.8065 -0.1578
  580MOL0     H78256   3.554   0.980   0.944  0.4627  0.2755 -0.4803
  580MOL0     H78257   3.590   0.855   1.056 -0.5368 -0.2856 -0.6514
  580MOL0     H78258   3.360   0.843   1.026 -1.8796 -4.6203 -0.0553
  580MOL0     H78259   3.412   0.721   0.917 -2.8887  0.2745  2.5966
  580MOL0     H78260   3.209   1.025   0.665 -1.0161  0.5603 -1.1972
  580MOL0     H78261   3.011   0.910   0.411 -0.0113 -1.0164 -0.5901
  580MOL0     H78262   2.903   0.986   0.528  0.2278 -1.5621 -0.4575
  580MOL0     H78263   3.060   1.062   0.502 -1.5566  1.6443  3.1044
  580MOL0     H78264   2.831   0.826   0.249 -3.0872  2.5520  0.2577
  580MOL0     H78265   2.726   0.728   0.048 -1.3102 -2.1125 -1.5108
  580MOL0     H78266   2.557   0.667  -0.073 -0.4419  0.1434  0.4533
  580MOL0     H78267   2.687   0.561  -0.133 -0.6947 -0.2878  0.8622
  580MOL0     H78268   2.401   0.453  -0.146 -0.7216  2.1544 -1.2182
  580MOL0     H78269   2.462   0.557  -0.271 -1.8660  1.8959  2.0633
  580MOL0     H78270   2.588   0.277  -0.187  0.1966 -1.6896 -1.4825
  580MOL0     H78271   2.663   0.384  -0.301 -2.0628  0.0201 -4.0546
  580MOL0     H78272   2.387   0.286  -0.350 -0.6690  1.2589 -1.6965
  580MOL0     H78273   2.483   0.385  -0.458  0.0675 -0.8226 -1.2071
  580MOL0     H78274   2.521   0.118  -0.354  2.7425 -0.3297  1.6368
  580MOL0     H78275   2.668   0.197  -0.432  0.5743 -0.6965 -2.1569
  580MOL0     H78276   2.391   0.144  -0.566 -0.4828  0.4445 -1.0727
  580MOL0     H78277   2.521   0.241  -0.641  0.1683  0.9243  1.7700
  580MOL0     H78278   2.665   0.042  -0.664  0.2778  0.5699 -0.6994
  580MOL0     H78279   2.506   0.016  -0.748  1.2985  0.7935 -1.6221
  580MOL0     H78280   2.560  -0.070  -0.464  0.9892 -0.0461 -1.4192
  580MOL0     H78281   2.608  -0.171  -0.601 -2.0776  0.1308 -2.5171
  580MOL0     H78282   2.594   0.394   0.279  0.3106 -0.3587 -2.2357
  580MOL0     H78283   2.692   0.489   0.477 -0.0083  1.6307  1.0949
  580MOL0     H78284   2.994   0.615   0.828 -2.4564  1.7684 -0.3897
  580MOL0     H78285   3.211   0.694   0.925  3.0319  0.8434 -0.1233
  580MOL0     H78286   4.970   0.849   0.407 -0.3768 -1.2621 -0.5876
  580MOL0     H78287   5.152   0.838   0.235 -0.2814 -0.0235  0.0469
  580MOL0     H78288   5.788   0.749   0.303 -0.6640 -0.2209  0.7820
  580MOL0     H78289   5.916   0.679   0.127 -0.8769  1.4873  2.1533
  580MOL0     H78290   5.722   0.505  -0.229  2.5785 -2.0801  0.4291
  580MOL0     H78291   5.742   0.657  -0.306 -0.9064 -1.6067 -1.0479
  580MOL0     H78292   5.894   0.421  -0.372  0.9504 -0.2770 -0.0947
  580MOL0     H78293   5.991   0.498  -0.245  1.4915  0.7630 -0.9437
  580MOL0     H78294   6.019   0.708  -0.351 -1.3167 -0.1622  0.5326
  580MOL0     H78295   5.911   0.654  -0.491  0.4166  0.9681 -0.2656
  580MOL0     H78296   6.061   0.505  -0.559 -1.1578 -1.7919  2.1972
  580MOL0     H78297   6.171   0.534  -0.414  0.7701  1.8372 -1.5758
  580MOL0     H78298   6.270   0.849  -0.677  0.6570 -2.4991 -1.8871
  580MOL0     H78299   5.585   0.708  -0.154 -1.8984  0.2013 -0.0257
  580MOL0     H78300   5.441   0.773   0.029  0.8155 -0.3736 -0.6282
  581MOL0     O78301   7.789   3.665   7.159 -0.6430 -0.2734 -0.4761
  581MOL0     C78302   7.809   3.631   7.273  0.2453 -0.3014  0.9242
  581MOL0     O78303   7.929   3.644   7.346 -0.4620 -0.2663  0.7190
  581MOL0     C78304   8.050   3.672   7.279 -0.1750 -0.9261  0.1947
  581MOL0     C78305   8.152   3.749   7.335 -0.2836  0.1414 -0.0739
  581MOL0     C78306   8.283   3.767   7.273  0.2281 -0.1014  0.1860
  581MOL0     C78307   8.296   3.716   7.139  0.1493  0.1545  0.8873
  581MOL0     O78308   8.406   3.752   7.059  0.3695 -0.0171 -0.1430
  581MOL0     C78309   8.427   3.895   7.065  0.1330 -0.1572 -0.4757
  581MOL0     C78310   8.519   3.945   6.951  0.4114 -0.2792  0.1192
  581MOL0     C78311   8.446   3.919   6.808 -0.4580  0.3885 -1.2851
  581MOL0     C78312   8.533   3.932   6.690  0.1994 -0.2093 -0.0579
  581MOL0     C78313   8.465   3.996   6.571  0.4874 -0.0303  0.0170
  581MOL0     C78314   8.345   3.908   6.531  0.1530 -0.3549  0.5627
  581MOL0     C78315   8.274   3.967   6.410 -0.4201 -0.8548  0.1494
  581MOL0     C78316   8.182   3.873   6.340  0.4815 -0.8039  0.0790
  581MOL0     N78317   8.237   3.737   6.314  0.1261  0.3687  1.1798
  581MOL0     C78318   8.327   3.722   6.213  0.2650  0.1708  0.2126
  581MOL0     C78319   8.378   3.600   6.228  0.1164 -0.2269  1.6652
  581MOL0     C78320   8.479   3.540   6.137 -1.0145  0.1459  0.3939
  581MOL0     C78321   8.627   3.586   6.168 -0.3361  0.4727  0.1014
  581MOL0     C78322   8.672   3.697   6.070  0.4990 -0.7605  0.4221
  581MOL0     C78323   8.823   3.742   6.082 -0.0970  0.0020  0.6535
  581MOL0     O78324   8.842   3.818   6.202 -0.6832 -0.0466 -0.4342
  581MOL0     C78325   8.798   3.946   6.208 -0.1541 -0.8167 -0.3755
  581MOL0     C78326   8.756   4.024   6.098  0.5037  1.6532 -0.0153
  581MOL0     C78327   8.706   4.148   6.111  0.3916  0.5375 -1.1220
  581MOL0     C78328   8.653   4.205   5.982  0.6030 -0.3103  1.3321
  581MOL0     C78329   8.699   4.212   6.240 -0.8595  0.1891 -0.0053
  581MOL0     C78330   8.662   4.351   6.264  1.4315 -0.1952  0.8608
  581MOL0     O78331   8.634   4.422   6.150  0.7016  0.2439 -0.1839
  581MOL0     C78332   8.551   4.533   6.165  0.2826  0.9008  0.4845
  581MOL0     C78333   8.609   4.658   6.153  0.1081  0.0263 -0.3481
  581MOL0     C78334   8.534   4.781   6.154 -0.9776 -0.8302 -0.0793
  581MOL0     C78335   8.389   4.770   6.145  0.2859 -0.0960 -0.3931
  581MOL0     O78336   8.290   4.872   6.134 -0.3930 -0.7107 -0.7412
  581MOL0     C78337   8.345   5.006   6.113 -0.2416 -0.4559  0.0715
  581MOL0     C78338   8.231   5.111   6.105  0.2317 -0.0580 -0.5240
  581MOL0     C78339   8.173   5.156   6.243  0.1945 -0.1459 -0.2477
  581MOL0     C78340   8.119   5.032   6.320  0.0603  1.4905  0.1538
  581MOL0     C78341   8.055   5.064   6.445 -0.5036 -0.5610 -0.0815
  581MOL0     C78342   7.964   4.946   6.494 -0.2817 -1.1358 -0.2340
  581MOL0     C78343   7.886   4.988   6.613  0.4049  0.1209  0.1757
  581MOL0     C78344   7.932   4.899   6.726  0.6695  0.3004 -0.2166
  581MOL0    Cl78345   7.915   4.979   6.887 -0.1153  0.3749  0.1995
  581MOL0     C78346   8.331   4.645   6.165 -0.6806  0.5847 -0.1407
  581MOL0     C78347   8.408   4.524   6.181  0.2766  0.6701  1.0876
  581MOL0     O78348   8.656   4.404   6.375 -0.2164 -0.4037  0.6064
  581MOL0     C78349   8.750   4.136   6.353 -0.5370 -0.0129  0.6331
  581MOL0     C78350   8.813   4.010   6.331  0.2791  0.6657  0.1133
  581MOL0     N78351   8.334   3.542   6.348  0.2260 -0.6946  0.2634
  581MOL0     N78352   8.240   3.617   6.391  0.4370 -0.1806 -0.6105
  581MOL0     C78353   8.196   3.632   7.085  0.0968  0.1591  0.2199
  581MOL0     C78354   8.079   3.608   7.155 -0.4060 -0.1510  0.1254
  581MOL0     C78355   7.706   3.558   7.353 -0.1423 -0.3752  0.3361
  581MOL0     C78356   7.721   3.504   7.479  0.0463 -1.0022 -0.5388
  581MOL0     C78357   7.613   3.440   7.541  0.8767 -0.5040 -0.3101
  581MOL0     C78358   7.484   3.438   7.496  0.6092  0.1270 -0.2443
  581MOL0     O78359   7.385   3.380   7.569 -0.3936 -0.0246  0.3684
  581MOL0     C78360   7.303   3.281   7.498  0.2992 -0.4127  0.2809
  581MOL0     C78361   7.362   3.145   7.534 -0.1070  0.3019 -0.0941
  581MOL0     C78362   7.505   3.109   7.473 -0.2567 -0.2420  0.5908
  581MOL0     C78363   7.509   3.013   7.355 -0.4109 -0.2846  0.1787
  581MOL0     C78364   7.471   3.081   7.229 -0.6308 -0.2827  0.4492
  581MOL0     C78365   7.442   3.130   7.112  0.8493 -0.5824 -0.1506
  581MOL0     C78366   7.463   3.495   7.371  0.6423  0.1115 -0.4564
  581MOL0     C78367   7.578   3.553   7.304  1.0905  0.0586  0.4352
  581MOL0     H78368   8.126   3.800   7.427 -0.0990  1.8262 -0.9201
  581MOL0     H78369   8.361   3.828   7.317 -1.0727  1.5459  0.2896
  581MOL0     H78370   8.333   3.949   7.079 -0.1213 -0.4368 -1.0606
  581MOL0     H78371   8.486   3.919   7.154  0.0843 -2.4050  0.2226
  581MOL0     H78372   8.539   4.052   6.949  0.3007 -0.2488  0.6439
  581MOL0     H78373   8.607   3.880   6.956 -1.9515 -3.9206 -1.0082
  581MOL0     H78374   8.418   3.813   6.817 -2.1922  0.8939 -0.3366
  581MOL0     H78375   8.355   3.978   6.796 -1.6235 -0.7865  1.0997
  581MOL0     H78376   8.620   3.994   6.714 -0.7546  1.7338 -1.3177
  581MOL0     H78377   8.568   3.836   6.652  1.8846  0.0096  0.8540
  581MOL0     H78378   8.435   4.095   6.605  2.9658  0.5280  0.7662
  581MOL0     H78379   8.541   3.997   6.493  1.2210  0.3775  0.7170
  581MOL0     H78380   8.369   3.803   6.510 -1.5792 -1.3820  3.2334
  581MOL0     H78381   8.270   3.907   6.610  1.0742  0.4278  1.4706
  581MOL0     H78382   8.229   4.064   6.433  1.0992 -0.1872  0.4043
  581MOL0     H78383   8.349   3.987   6.333 -1.8099 -0.5257 -1.1844
  581MOL0     H78384   8.134   3.916   6.252  0.6074 -4.2723 -1.8217
  581MOL0     H78385   8.095   3.867   6.407 -1.0504 -4.4991 -1.9748
  581MOL0     H78386   8.352   3.798   6.140 -3.2265  1.5338  0.2515
  581MOL0     H78387   8.493   3.432   6.140 -1.7363  0.0773  1.9282
  581MOL0     H78388   8.455   3.552   6.031 -0.9827 -3.0916 -0.0633
  581MOL0     H78389   8.703   3.508   6.154 -0.5657  0.5423 -1.8407
  581MOL0     H78390   8.640   3.636   6.264 -1.7341  1.3640 -0.1435
  581MOL0     H78391   8.606   3.784   6.075 -1.7096 -2.2623 -0.7565
  581MOL0     H78392   8.665   3.660   5.967 -4.1570  0.1810  0.1495
  581MOL0     H78393   8.872   3.797   6.001  0.6488  0.3991  1.3579
  581MOL0     H78394   8.876   3.648   6.096  0.0432  0.2570  1.9272
  581MOL0     H78395   8.761   3.962   6.009 -0.1998 -2.1051  2.3568
  581MOL0     H78396   8.722   4.284   5.953  1.4234 -0.3635  3.0209
  581MOL0     H78397   8.650   4.139   5.895  3.2372 -0.2852  1.1460
  581MOL0     H78398   8.552   4.245   5.996  0.2851 -0.0557 -1.2701
  581MOL0     H78399   8.717   4.662   6.152  0.1969  0.4707  2.3061
  581MOL0     H78400   8.589   4.874   6.169 -1.4930 -0.8527  2.4648
  581MOL0     H78401   8.411   5.041   6.193 -1.5493  1.2713  0.4784
  581MOL0     H78402   8.398   5.012   6.018 -0.0422  0.8099  0.2369
  581MOL0     H78403   8.270   5.201   6.056  1.0290  0.6436  1.3032
  581MOL0     H78404   8.146   5.064   6.056 -0.9200  0.6492  0.7284
  581MOL0     H78405   8.091   5.218   6.206  1.6015  1.5867 -0.6232
  581MOL0     H78406   8.239   5.213   6.308 -0.7400  0.6733 -0.0022
  581MOL0     H78407   8.039   4.990   6.258 -0.4285 -2.6608  3.1826
  581MOL0     H78408   8.199   4.964   6.353  0.1946  2.1102  1.1186
  581MOL0     H78409   7.994   5.150   6.416 -0.2202 -0.7234 -1.2096
  581MOL0     H78410   8.123   5.096   6.524  0.6155 -2.5963 -0.1582
  581MOL0     H78411   7.897   4.913   6.414 -0.9148  1.5878 -0.9157
  581MOL0     H78412   8.031   4.863   6.516 -1.6519 -1.8979  1.2483
  581MOL0     H78413   7.779   4.986   6.589 -0.4373  2.9076  3.0831
  581MOL0     H78414   7.915   5.088   6.647  2.6635 -0.7647  1.0707
  581MOL0     H78415   8.036   4.866   6.718  0.2167 -1.1376 -0.4368
  581MOL0     H78416   7.876   4.805   6.723 -2.0483  1.7479  1.3020
  581MOL0     H78417   8.224   4.644   6.184 -1.1787 -2.5247 -2.3454
  581MOL0     H78418   8.377   4.422   6.202  3.1140 -1.1212 -2.4690
  581MOL0     H78419   8.750   4.194   6.445  0.5650  1.0241  0.0100
  581MOL0     H78420   8.871   3.964   6.411  0.4887  0.5011 -0.1287
  581MOL0     H78421   8.207   3.584   6.988  0.2778 -0.1553  0.3932
  581MOL0     H78422   8.008   3.543   7.105  0.3117 -1.1207  0.3315
  581MOL0     H78423   7.816   3.523   7.527 -0.2851 -0.8269  0.0671
  581MOL0     H78424   7.632   3.386   7.633 -0.4559  1.1272  0.9844
  581MOL0     H78425   7.209   3.297   7.552  1.0401  0.0818  1.4581
  581MOL0     H78426   7.283   3.305   7.394  0.0165  2.9082  1.0041
  581MOL0     H78427   7.288   3.074   7.494  2.6449 -3.8500  1.4856
  581MOL0     H78428   7.353   3.146   7.643 -0.5114  0.5215 -0.1263
  581MOL0     H78429   7.561   3.062   7.555 -1.8035 -3.6995 -0.1216
  581MOL0     H78430   7.569   3.195   7.451 -1.3144  0.5293  0.4608
  581MOL0     H78431   7.443   2.927   7.366 -0.3623 -0.6383 -1.8953
  581MOL0     H78432   7.612   2.978   7.341 -0.2708  0.4202 -0.6849
  581MOL0     H78433   7.408   3.176   7.021 -1.6597  0.3526  1.1543
  581MOL0     H78434   7.365   3.502   7.325  0.8084  1.7386 -0.6250
  581MOL0     H78435   7.553   3.586   7.203  1.0344  2.8042  1.2682
  582MOL0     O78436  10.569   1.002   0.655 -0.2939  0.0119  0.5860
  582MOL0     C78437  10.561   0.907   0.573 -0.1283 -0.5165  0.1050
  582MOL0     O78438  10.659   0.858   0.502 -0.4618  0.1924 -0.4837
  582MOL0     C78439  10.783   0.917   0.526 -1.3579 -0.2318 -0.7001
  582MOL0     C78440  10.856   0.899   0.652  0.0656 -0.1026  1.1277
  582MOL0     C78441  10.986   0.939   0.663 -0.5551 -0.3374  0.2867
  582MOL0     C78442  11.052   1.011   0.565 -0.6364 -0.9543 -0.0735
  582MOL0     O78443  11.185   1.047   0.576 -0.8541  0.4851 -0.0649
  582MOL0     C78444  11.270   1.019   0.688  0.8301  0.3906  0.5607
  582MOL0     C78445  11.413   1.041   0.652  0.1577 -0.3428 -0.0601
  582MOL0     C78446  11.476   0.936   0.567 -0.4895  0.0459  0.0910
  582MOL0     C78447  11.600   0.982   0.491  0.2499  0.0136 -0.2372
  582MOL0     C78448  11.711   1.038   0.578 -0.0782  0.4297 -0.6673
  582MOL0     C78449  11.757   0.925   0.670  0.2992  0.6675 -0.2343
  582MOL0     C78450  11.836   0.966   0.792  0.6169 -0.7298 -0.1458
  582MOL0     C78451  11.976   1.009   0.734  0.5781  0.8610  0.2199
  582MOL0     N78452  12.051   1.053   0.849  0.3968 -0.6146  0.0759
  582MOL0     C78453  12.026   1.161   0.938 -0.2235 -0.4327  0.0592
  582MOL0     C78454  12.129   1.171   1.020  0.5952  0.0484  0.0458
  582MOL0     C78455  12.132   1.275   1.133  1.0945 -0.4823  0.1308
  582MOL0     C78456  12.068   1.235   1.270 -0.1175 -0.3125 -0.0743
  582MOL0     C78457  11.916   1.197   1.271 -0.1793  0.4946 -0.2018
  582MOL0     C78458  11.814   1.312   1.238  0.3676  1.5157  1.3065
  582MOL0     O78459  11.692   1.290   1.317  0.2688 -0.8689  0.2924
  582MOL0     C78460  11.602   1.204   1.281 -0.0570  0.5978  1.0447
  582MOL0     C78461  11.598   1.119   1.169  0.2260  0.1092 -0.1635
  582MOL0     C78462  11.487   1.032   1.143 -0.0365 -0.5956 -0.5632
  582MOL0     C78463  11.490   0.949   1.021 -0.2918  0.9686 -0.4262
  582MOL0     C78464  11.375   1.036   1.241 -0.5117  0.0759  0.3125
  582MOL0     C78465  11.260   0.937   1.240  0.7648  0.0891  0.5018
  582MOL0     O78466  11.216   0.894   1.370 -0.2689 -0.3338 -0.0126
  582MOL0     C78467  11.101   0.835   1.375 -0.2251  0.4582 -0.0126
  582MOL0     C78468  10.996   0.894   1.446  0.2352 -0.0192 -0.7882
  582MOL0     C78469  10.866   0.835   1.459 -0.3227 -0.3308  0.1230
  582MOL0     C78470  10.840   0.713   1.388  0.2590 -0.4669 -0.4574
  582MOL0     O78471  10.715   0.656   1.386  0.8314  0.1374  0.1903
  582MOL0     C78472  10.652   0.642   1.519  0.0965 -0.3449 -0.4311
  582MOL0     C78473  10.529   0.563   1.507 -0.2406 -0.8249  0.3879
  582MOL0     C78474  10.462   0.545   1.641 -0.0743  0.8230  0.7958
  582MOL0     C78475  10.337   0.459   1.628 -0.4931  0.1704  0.4658
  582MOL0     C78476  10.279   0.427   1.763 -0.1489  0.7602 -0.1476
  582MOL0     C78477  10.217   0.551   1.825  0.0045 -0.5449 -0.5982
  582MOL0     C78478  10.143   0.521   1.954 -0.3835  1.4673 -0.0463
  582MOL0     C78479  10.075   0.647   2.008  0.2443 -0.1507  0.6255
  582MOL0    Cl78480  10.001   0.620   2.169  0.0189  0.2216 -0.4076
  582MOL0     C78481  10.946   0.662   1.312  0.2054  0.2735 -0.3930
  582MOL0     C78482  11.069   0.723   1.307  0.3645  1.2050 -0.1063
  582MOL0     O78483  11.193   0.934   1.139  0.3476  0.6511 -0.8603
  582MOL0     C78484  11.384   1.120   1.354 -0.4551  0.2734  0.2649
  582MOL0     C78485  11.496   1.199   1.376  0.3299  0.2687 -0.4387
  582MOL0     N78486  12.230   1.086   0.988 -0.0517 -0.1551 -0.4065
  582MOL0     N78487  12.182   1.009   0.887 -0.0427 -0.5462 -0.0281
  582MOL0     C78488  10.984   1.036   0.451 -0.4249 -0.0612  0.2822
  582MOL0     C78489  10.850   0.998   0.431  0.6890 -0.5834 -0.2029
  582MOL0     C78490  10.427   0.861   0.537  0.5974  0.8874  1.0760
  582MOL0     C78491  10.412   0.760   0.447  0.4786 -0.0032  0.4076
  582MOL0     C78492  10.281   0.727   0.407  0.4292 -0.2046  0.3247
  582MOL0     C78493  10.166   0.789   0.460  0.3383  0.3669  0.9734
  582MOL0     O78494  10.049   0.729   0.428 -0.1596 -0.4582  0.0413
  582MOL0     C78495   9.953   0.813   0.362  0.3320 -0.6611  0.6237
  582MOL0     C78496   9.971   0.830   0.207  0.5716 -0.6426 -0.3566
  582MOL0     C78497   9.986   0.702   0.122 -0.1850 -0.8129  0.1899
  582MOL0     C78498   9.954   0.731  -0.026  0.0463 -0.5201  0.0967
  582MOL0     C78499   9.929   0.614  -0.108  0.1240  0.0758  0.2918
  582MOL0     C78500   9.898   0.511  -0.175 -0.4709 -1.3834 -0.0251
  582MOL0     C78501  10.180   0.887   0.553  0.2247  0.0253  0.4613
  582MOL0     C78502  10.313   0.927   0.590 -0.0526 -0.4226  0.7493
  582MOL0     H78503  10.809   0.842   0.732 -1.5986 -2.0283 -1.0651
  582MOL0     H78504  11.038   0.926   0.758 -0.9620 -2.9724  0.2345
  582MOL0     H78505  11.256   1.082   0.776  3.2907  1.5013  0.2558
  582MOL0     H78506  11.256   0.913   0.715 -2.3456  0.9972  1.7030
  582MOL0     H78507  11.423   1.137   0.601 -0.1030 -0.4058 -0.2334
  582MOL0     H78508  11.472   1.056   0.743  3.3916 -1.4727 -1.8195
  582MOL0     H78509  11.491   0.840   0.617  0.4377 -0.1099 -0.4514
  582MOL0     H78510  11.406   0.906   0.489 -1.5643  0.9140  0.7097
  582MOL0     H78511  11.626   0.885   0.448 -2.1098 -1.0505  0.5781
  582MOL0     H78512  11.576   1.063   0.422  1.7048  1.4416  0.8564
  582MOL0     H78513  11.798   1.083   0.530  0.1871  2.1127  1.2493
  582MOL0     H78514  11.675   1.122   0.639 -1.0472 -0.6942  0.3759
  582MOL0     H78515  11.677   0.861   0.707  2.2057 -0.9359  1.3534
  582MOL0     H78516  11.814   0.857   0.606 -1.9233  0.2660 -1.8743
  582MOL0     H78517  11.776   1.041   0.846  0.9208 -1.2324  0.9138
  582MOL0     H78518  11.848   0.885   0.865  1.8420  1.9666  2.8733
  582MOL0     H78519  11.960   1.096   0.669 -0.3950  1.3953  1.1380
  582MOL0     H78520  12.025   0.932   0.674 -0.7053 -0.7631  1.2073
  582MOL0     H78521  11.942   1.228   0.936  2.4860  3.2810 -2.1669
  582MOL0     H78522  12.237   1.298   1.152  1.4095 -1.8832  0.1901
  582MOL0     H78523  12.079   1.366   1.104  0.4993 -0.4476  1.2644
  582MOL0     H78524  12.083   1.294   1.361  1.1414 -1.4406  0.4989
  582MOL0     H78525  12.120   1.139   1.282 -0.6205 -0.8724 -1.9391
  582MOL0     H78526  11.903   1.171   1.377 -1.1371  0.5586 -0.2952
  582MOL0     H78527  11.892   1.113   1.206 -0.4762  1.4630 -1.3627
  582MOL0     H78528  11.797   1.317   1.130  3.2460  1.2337  0.7659
  582MOL0     H78529  11.856   1.411   1.260 -1.2395  2.5059  0.1208
  582MOL0     H78530  11.681   1.123   1.099  2.8733 -1.0820  2.6947
  582MOL0     H78531  11.403   0.886   1.003  0.5957 -0.7185  0.9302
  582MOL0     H78532  11.515   1.013   0.936  0.2797  1.7302  0.2946
  582MOL0     H78533  11.567   0.873   1.039 -2.4144 -0.6592  2.8602
  582MOL0     H78534  11.027   0.985   1.496  1.7934 -2.3871  2.9391
  582MOL0     H78535  10.791   0.881   1.522  1.5135  0.2252  1.9868
  582MOL0     H78536  10.724   0.594   1.585 -2.6047 -1.6891  1.7418
  582MOL0     H78537  10.639   0.738   1.571  1.4655  1.2012 -2.7559
  582MOL0     H78538  10.464   0.611   1.433 -0.3474 -0.9157  0.4225
  582MOL0     H78539  10.561   0.467   1.465  0.5080 -0.5400  0.2958
  582MOL0     H78540  10.439   0.640   1.691  0.3267 -0.1660  2.9276
  582MOL0     H78541  10.524   0.506   1.722 -0.1765 -0.9745  0.0492
  582MOL0     H78542  10.267   0.520   1.570  1.3283  0.3809 -1.6599
  582MOL0     H78543  10.360   0.375   1.562  0.3610  1.3004 -0.7272
  582MOL0     H78544  10.357   0.381   1.824 -0.0688 -0.6236 -1.2378
  582MOL0     H78545  10.205   0.349   1.745  0.5847  0.3266 -1.4373
  582MOL0     H78546  10.283   0.635   1.848 -0.7000 -0.8192  3.0461
  582MOL0     H78547  10.144   0.596   1.757 -1.8366  1.0753  2.2099
  582MOL0     H78548  10.222   0.490   2.023  1.0094  1.5283 -1.5447
  582MOL0     H78549  10.080   0.431   1.949 -1.1201  1.9792 -0.1015
  582MOL0     H78550   9.997   0.668   1.934  0.5853 -4.8075 -1.4185
  582MOL0     H78551  10.130   0.741   2.012 -1.7690  1.1595 -0.4939
  582MOL0     H78552  10.945   0.572   1.251  2.9678  0.0679 -0.2862
  582MOL0     H78553  11.147   0.683   1.242  0.9795 -0.0777  1.3818
  582MOL0     H78554  11.300   1.129   1.423 -1.6201 -0.7818 -0.9559
  582MOL0     H78555  11.503   1.259   1.466 -1.4503  0.0738 -0.1216
  582MOL0     H78556  11.045   1.092   0.382 -1.3234  1.8273  0.9452
  582MOL0     H78557  10.803   1.000   0.333  2.7749 -3.1576 -1.3688
  582MOL0     H78558  10.500   0.715   0.402  0.1335  2.5075 -3.1765
  582MOL0     H78559  10.264   0.640   0.345 -3.7881 -0.0029  0.9193
  582MOL0     H78560   9.855   0.774   0.391  0.5687 -0.8789  1.1536
  582MOL0     H78561   9.950   0.913   0.405 -3.0346 -0.3366 -0.1015
  582MOL0     H78562  10.052   0.899   0.182 -0.5869 -0.2352 -3.3592
  582MOL0     H78563   9.879   0.882   0.182  2.5437  1.0135 -5.2488
  582MOL0     H78564   9.916   0.628   0.161 -1.1286  0.0586  0.1569
  582MOL0     H78565  10.085   0.655   0.120 -0.7053 -1.9345 -1.0045
  582MOL0     H78566  10.041   0.782  -0.069  2.4747 -2.4037  2.4455
  582MOL0     H78567   9.877   0.809  -0.021  0.8572  0.3891 -1.1065
  582MOL0     H78568   9.893   0.423  -0.237 -0.7622 -1.0963 -0.4103
  582MOL0     H78569  10.089   0.940   0.578  0.0096  0.9918 -2.0773
  582MOL0     H78570  10.324   1.014   0.654  2.0758  0.2197 -0.3754
  583MOL0     O78571   0.281  10.688   2.875  0.2943  0.2197 -0.0782
  583MOL0     C78572   0.264  10.572   2.879  0.0183 -0.1456 -0.5803
  583MOL0     O78573   0.146  10.502   2.845  1.0356 -0.7610 -0.7110
  583MOL0     C78574   0.022  10.564   2.857  0.2705  0.6104 -1.0998
  583MOL0     C78575  -0.011  10.662   2.965 -0.4306  0.6648 -0.2815
  583MOL0     C78576  -0.141  10.714   2.986  0.8822 -0.4654  0.0238
  583MOL0     C78577  -0.238  10.680   2.892 -0.3172  0.5701  0.0453
  583MOL0     O78578  -0.363  10.737   2.899 -0.7568 -0.0864 -0.3187
  583MOL0     C78579  -0.412  10.814   3.010  0.7499 -0.0926 -0.3884
  583MOL0     C78580  -0.569  10.803   3.031 -0.4932 -0.2810 -0.1401
  583MOL0     C78581  -0.601  10.850   3.175 -1.0404  0.0456  0.6858
  583MOL0     C78582  -0.746  10.905   3.190  0.3746 -0.0120  0.1149
  583MOL0     C78583  -0.863  10.815   3.159 -0.9290 -0.3659  0.2605
  583MOL0     C78584  -0.872  10.695   3.247 -0.4615  0.9149 -0.1261
  583MOL0     C78585  -0.918  10.731   3.403 -0.3121  0.1225 -0.6847
  583MOL0     C78586  -1.056  10.793   3.429 -0.8262  0.1014 -0.3143
  583MOL0     N78587  -1.148  10.743   3.336  0.6075 -0.1357 -0.2775
  583MOL0     C78588  -1.231  10.638   3.362  0.8276  0.9740 -0.1813
  583MOL0     C78589  -1.303  10.618   3.249  0.1483 -0.9196 -0.1859
  583MOL0     C78590  -1.415  10.515   3.252 -0.1286 -0.1752  0.0138
  583MOL0     C78591  -1.533  10.571   3.332 -0.5169 -0.2737 -0.1522
  583MOL0     C78592  -1.604  10.671   3.236  1.0425  0.1796 -0.6524
  583MOL0     C78593  -1.732  10.746   3.283 -0.1228  0.1928 -0.0209
  583MOL0     O78594  -1.743  10.734   3.429  0.3950 -0.4013  0.0606
  583MOL0     C78595  -1.848  10.798   3.493 -0.1401 -0.9135  0.3231
  583MOL0     C78596  -1.881  10.933   3.478 -0.0022 -1.0453 -0.1695
  583MOL0     C78597  -2.003  10.987   3.534 -1.2224 -0.1752 -0.9786
  583MOL0     C78598  -2.026  11.127   3.504  0.0101 -0.3109 -0.4128
  583MOL0     C78599  -2.079  10.911   3.623 -0.6996  0.1865  1.3534
  583MOL0     C78600  -2.199  10.964   3.695 -0.8456  0.2037 -0.2335
  583MOL0     O78601  -2.205  11.103   3.707  0.1309  0.3384 -0.0068
  583MOL0     C78602  -2.314  11.178   3.733 -0.2689 -0.2539  0.3212
  583MOL0     C78603  -2.427  11.138   3.807  0.3557 -0.3758 -0.0967
  583MOL0     C78604  -2.537  11.228   3.818  0.5726 -0.3274 -0.4204
  583MOL0     C78605  -2.535  11.363   3.778  0.2447 -0.3288  0.8918
  583MOL0     O78606  -2.644  11.445   3.798 -0.3505 -0.4380 -0.1485
  583MOL0     C78607  -2.767  11.378   3.780 -0.0762  0.0723  0.1485
  583MOL0     C78608  -2.854  11.491   3.825  1.2931  0.0159 -0.9509
  583MOL0     C78609  -3.001  11.452   3.810  1.0324  0.0825  0.5934
  583MOL0     C78610  -3.090  11.569   3.851 -0.0046 -0.4029  0.2537
  583MOL0     C78611  -3.233  11.530   3.887  0.2632 -0.6576  1.0055
  583MOL0     C78612  -3.324  11.649   3.894  0.1838 -0.1360  1.0916
  583MOL0     C78613  -3.476  11.591   3.894 -0.3340 -0.5924 -0.8882
  583MOL0     C78614  -3.577  11.699   3.920  0.6267 -1.3081 -0.4221
  583MOL0    Cl78615  -3.531  11.806   4.055 -0.0504  0.2463 -0.5138
  583MOL0     C78616  -2.427  11.402   3.699 -0.4136  0.1345 -0.4968
  583MOL0     C78617  -2.316  11.311   3.676  0.9187 -0.8121 -0.0978
  583MOL0     O78618  -2.281  10.879   3.731  0.1136  0.6938  0.3948
  583MOL0     C78619  -2.048  10.776   3.639 -0.3663  0.1859  0.5406
  583MOL0     C78620  -1.937  10.719   3.570 -0.1875 -0.7985  0.6163
  583MOL0     N78621  -1.276  10.713   3.164 -0.1634 -1.0423  0.7389
  583MOL0     N78622  -1.196  10.802   3.220  0.0370  0.4397 -0.0180
  583MOL0     C78623  -0.206  10.586   2.793 -0.9046  0.2781  0.2636
  583MOL0     C78624  -0.083  10.533   2.774 -0.0536 -0.0859 -0.3378
  583MOL0     C78625   0.374  10.490   2.945  0.0810 -0.0971  0.3084
  583MOL0     C78626   0.369  10.350   2.923 -0.2356  0.7216  0.4448
  583MOL0     C78627   0.484  10.267   2.955  1.0327 -0.2109  0.0225
  583MOL0     C78628   0.593  10.328   3.012  0.1379  0.1223  0.5584
  583MOL0     O78629   0.683  10.239   3.051  0.3160 -0.3017 -0.1706
  583MOL0     C78630   0.799  10.267   3.123  0.2626 -0.5287 -0.2360
  583MOL0     C78631   0.934  10.217   3.066  0.2623  0.4603  0.0061
  583MOL0     C78632   0.942  10.071   3.030  0.3587 -0.6057 -0.2412
  583MOL0     C78633   0.862  10.025   2.912  0.3630 -0.7320  0.3172
  583MOL0     C78634   0.888  10.107   2.788 -0.6392  0.1623 -0.6735
  583MOL0     C78635   0.922  10.165   2.689 -1.7437 -0.4755  0.3424
  583MOL0     C78636   0.595  10.468   3.046  1.2718  0.3055  0.3963
  583MOL0     C78637   0.484  10.548   3.008 -0.4056 -0.1611 -0.2545
  583MOL0     H78638   0.071  10.703   3.023  0.0490  0.4084 -0.7787
  583MOL0     H78639  -0.153  10.790   3.062  1.7122 -0.3055 -0.0000
  583MOL0     H78640  -0.375  10.780   3.107 -3.6998 -0.7139  1.3444
  583MOL0     H78641  -0.388  10.918   2.989  0.7429 -0.5240 -2.8055
  583MOL0     H78642  -0.620  10.868   2.959  2.1011  1.8707 -0.2100
  583MOL0     H78643  -0.596  10.698   3.024 -0.0074 -0.3582 -1.0401
  583MOL0     H78644  -0.575  10.779   3.254  1.8725  2.7919  2.4312
  583MOL0     H78645  -0.542  10.940   3.194 -0.7181  0.9686 -3.5236
  583MOL0     H78646  -0.756  10.932   3.295  3.4335 -2.1450  1.0970
  583MOL0     H78647  -0.755  10.998   3.133 -0.0399  0.0874  0.3403
  583MOL0     H78648  -0.952  10.877   3.171 -2.9589 -2.9670 -0.5372
  583MOL0     H78649  -0.860  10.780   3.056 -0.5783  0.2969  0.0384
  583MOL0     H78650  -0.944  10.625   3.204  0.1282  1.0474 -1.3668
  583MOL0     H78651  -0.773  10.650   3.239 -0.0847  2.0045 -2.2499
  583MOL0     H78652  -0.914  10.645   3.470 -0.9014  0.8922  0.3651
  583MOL0     H78653  -0.849  10.804   3.445 -0.1889  0.9931 -2.3169
  583MOL0     H78654  -1.067  10.901   3.424 -1.2571  0.1804  1.5672
  583MOL0     H78655  -1.082  10.757   3.529  0.0396  2.6747  0.9258
  583MOL0     H78656  -1.225  10.589   3.459  1.2433 -1.4935 -1.3685
  583MOL0     H78657  -1.447  10.504   3.147 -0.4877 -0.9335  0.1955
  583MOL0     H78658  -1.388  10.419   3.297  2.6977  1.0508  1.1933
  583MOL0     H78659  -1.497  10.624   3.421 -1.5786 -0.4904  0.4250
  583MOL0     H78660  -1.596  10.485   3.356  1.5182 -1.9305 -0.5025
  583MOL0     H78661  -1.639  10.614   3.149  0.1486  1.1360 -0.9556
  583MOL0     H78662  -1.543  10.744   3.182 -0.4735 -0.4738 -3.4559
  583MOL0     H78663  -1.827  10.706   3.247 -0.3193  1.2227 -0.6958
  583MOL0     H78664  -1.736  10.852   3.257 -0.7407  0.1118 -0.2730
  583MOL0     H78665  -1.812  10.990   3.417 -1.0241 -0.5356 -0.8840
  583MOL0     H78666  -2.003  11.179   3.598 -0.0625  1.0557 -1.1235
  583MOL0     H78667  -1.949  11.163   3.435  1.2859 -1.8612  0.1283
  583MOL0     H78668  -2.127  11.142   3.467  0.2222  2.3371 -0.1287
  583MOL0     H78669  -2.435  11.042   3.857 -2.8091  1.5639  3.8133
  583MOL0     H78670  -2.621  11.186   3.874 -1.1266  2.0561 -1.0474
  583MOL0     H78671  -2.789  11.354   3.675 -1.6932 -3.9806  1.2089
  583MOL0     H78672  -2.785  11.289   3.841 -1.4834  0.5765  0.5033
  583MOL0     H78673  -2.843  11.530   3.927  0.1446  2.5603 -1.7071
  583MOL0     H78674  -2.850  11.572   3.752  1.4469  0.9650  0.0750
  583MOL0     H78675  -3.022  11.375   3.884  1.1516  0.9482  1.5507
  583MOL0     H78676  -3.020  11.418   3.707  1.0780 -3.1880  1.5605
  583MOL0     H78677  -3.040  11.630   3.928  2.8112  0.2677 -1.9387
  583MOL0     H78678  -3.094  11.629   3.760  0.5061  0.6348  0.8930
  583MOL0     H78679  -3.231  11.479   3.983 -3.3345 -1.1733  0.9439
  583MOL0     H78680  -3.268  11.455   3.815  0.7026  0.1901 -0.1353
  583MOL0     H78681  -3.291  11.704   3.983  3.1148 -0.6394  0.4235
  583MOL0     H78682  -3.303  11.708   3.804  1.0489 -0.8609  0.8003
  583MOL0     H78683  -3.486  11.521   3.977 -1.1707  0.6162  0.0582
  583MOL0     H78684  -3.499  11.538   3.801 -2.3985 -1.4173  0.0401
  583MOL0     H78685  -3.673  11.650   3.935 -0.0503  0.6019  1.9541
  583MOL0     H78686  -3.582  11.759   3.828 -0.9913 -1.3873 -0.4161
  583MOL0     H78687  -2.405  11.500   3.657 -0.9271 -0.7956 -3.1091
  583MOL0     H78688  -2.233  11.351   3.618  3.1610 -1.6317  2.3587
  583MOL0     H78689  -2.111  10.707   3.693  1.7434 -0.4272  2.3344
  583MOL0     H78690  -1.917  10.612   3.574  0.6733 -0.6554  0.2908
  583MOL0     H78691  -0.282  10.564   2.718  2.0828  0.9946 -3.2714
  583MOL0     H78692  -0.063  10.467   2.690 -0.9025  0.5459 -1.0535
  583MOL0     H78693   0.289  10.315   2.859  2.0409  0.1883 -2.2966
  583MOL0     H78694   0.480  10.164   2.920 -2.0716 -0.7724  1.6504
  583MOL0     H78695   0.812  10.372   3.149  0.7905 -0.2750 -1.4620
  583MOL0     H78696   0.788  10.225   3.223  1.2693  1.2511  0.6570
  583MOL0     H78697   1.013  10.238   3.139  0.5153 -1.4773  0.3425
  583MOL0     H78698   0.956  10.280   2.980 -3.4776  3.2005  0.7878
  583MOL0     H78699   0.923  10.000   3.112 -0.0433 -2.2291 -1.6897
  583MOL0     H78700   1.046  10.051   3.002 -0.3262 -3.7100 -0.9507
  583MOL0     H78701   0.753  10.017   2.923 -0.1282  2.4782 -0.8597
  583MOL0     H78702   0.901   9.925   2.896  2.3577 -0.2731  1.9311
  583MOL0     H78703   0.960  10.212   2.601  1.5660 -1.8023  0.9085
  583MOL0     H78704   0.674  10.531   3.087  2.4419 -2.0723  2.0460
  583MOL0     H78705   0.489  10.656   3.009 -2.1989 -0.0565 -0.7714
  584MOL0     O78706   8.030   0.043   8.123  1.1778 -0.4021 -0.3321
  584MOL0     C78707   8.110  -0.009   8.046  0.5919  0.0880  0.1230
  584MOL0     O78708   8.086  -0.099   7.950  0.5332 -0.3639 -0.3894
  584MOL0     C78709   7.949  -0.125   7.930  0.3605  0.3848 -0.8433
  584MOL0     C78710   7.892  -0.250   7.967  1.2046  0.7890  0.2392
  584MOL0     C78711   7.755  -0.267   7.962 -0.0686  0.9796 -0.3185
  584MOL0     C78712   7.672  -0.162   7.917 -0.8076  1.1581 -0.1826
  584MOL0     O78713   7.535  -0.166   7.919  0.2377  0.2939 -0.2647
  584MOL0     C78714   7.459  -0.292   7.903  0.5975 -0.2115 -0.2718
  584MOL0     C78715   7.310  -0.243   7.878 -0.4607  0.2618 -0.5992
  584MOL0     C78716   7.239  -0.356   7.798 -0.1766 -0.5082  0.6997
  584MOL0     C78717   7.093  -0.337   7.778  1.1131  0.2770 -0.1105
  584MOL0     C78718   7.029  -0.468   7.715  1.0350 -0.0611 -1.6280
  584MOL0     C78719   7.028  -0.461   7.563 -0.3960 -0.1813 -0.0204
  584MOL0     C78720   7.026  -0.602   7.508 -1.0580 -0.3164  0.6452
  584MOL0     C78721   6.924  -0.616   7.392  0.8379 -0.4180 -0.0263
  584MOL0     N78722   6.797  -0.669   7.447  0.1792 -0.1986  0.0075
  584MOL0     C78723   6.739  -0.796   7.448  0.3468  0.2496 -0.2040
  584MOL0     C78724   6.623  -0.779   7.531 -0.1718  0.4255 -0.9965
  584MOL0     C78725   6.527  -0.883   7.579  0.9461 -0.5371 -0.2031
  584MOL0     C78726   6.561  -0.935   7.720 -0.1682  0.0993 -0.3684
  584MOL0     C78727   6.482  -1.058   7.760 -0.2858  0.8037 -0.0523
  584MOL0     C78728   6.337  -1.022   7.766  0.7254  0.7709 -0.3186
  584MOL0     O78729   6.270  -1.134   7.823 -0.8806 -0.2835 -0.3122
  584MOL0     C78730   6.187  -1.109   7.926 -0.9537 -0.5574 -0.1998
  584MOL0     C78731   6.237  -1.053   8.046 -0.1107  0.4295 -0.9335
  584MOL0     C78732   6.149  -1.004   8.154  0.3321  0.5614 -0.2905
  584MOL0     C78733   6.205  -0.940   8.283 -0.3391 -0.1570 -0.3376
  584MOL0     C78734   6.002  -1.009   8.112 -0.0629  0.1178  0.1957
  584MOL0     C78735   5.911  -0.962   8.212 -0.3782 -1.0303  0.0508
  584MOL0     O78736   5.792  -1.025   8.223 -1.2855  0.1458  0.3360
  584MOL0     C78737   5.683  -0.964   8.271  0.3668 -1.0397 -0.0657
  584MOL0     C78738   5.673  -0.934   8.403  0.2476 -0.9356 -0.2331
  584MOL0     C78739   5.555  -0.884   8.461 -0.3137 -0.5671  0.4113
  584MOL0     C78740   5.442  -0.852   8.377 -0.3668 -0.5786  0.6877
  584MOL0     O78741   5.338  -0.777   8.423  0.1395 -0.6306 -0.9192
  584MOL0     C78742   5.215  -0.835   8.399  0.2452 -0.1587 -0.0114
  584MOL0     C78743   5.201  -0.969   8.479 -0.0035  0.1606 -0.5613
  584MOL0     C78744   5.230  -0.958   8.629  0.9973 -0.7659  0.2293
  584MOL0     C78745   5.090  -0.940   8.699  0.5292  0.0907 -0.6499
  584MOL0     C78746   5.103  -0.951   8.861  0.4449 -0.4723  0.0054
  584MOL0     C78747   4.976  -0.959   8.943 -0.5441  0.3845 -0.5114
  584MOL0     C78748   5.000  -0.970   9.094 -0.7066 -0.0146 -0.4377
  584MOL0     C78749   4.863  -0.934   9.167 -1.1533  0.0416  0.4002
  584MOL0    Cl78750   4.723  -1.045   9.114  0.1354  0.3299 -0.0165
  584MOL0     C78751   5.455  -0.882   8.238 -0.4299  0.2649 -0.8826
  584MOL0     C78752   5.576  -0.937   8.193 -0.0768  0.4761 -0.1778
  584MOL0     O78753   5.935  -0.862   8.280 -0.2345  0.1572  0.0103
  584MOL0     C78754   5.962  -1.057   7.997  1.0876  0.3127  0.9719
  584MOL0     C78755   6.053  -1.100   7.900 -0.0385 -0.0222  0.9713
  584MOL0     N78756   6.614  -0.646   7.558  0.3469  0.4121  0.4527
  584MOL0     N78757   6.709  -0.582   7.504 -0.8382 -0.3101 -0.3802
  584MOL0     C78758   7.732  -0.048   7.866 -0.3318  0.5929  0.4814
  584MOL0     C78759   7.873  -0.028   7.860 -0.3453  0.2693  0.3262
  584MOL0     C78760   8.247   0.019   8.070  0.0170  0.3869  0.3234
  584MOL0     C78761   8.285   0.122   8.150 -0.4981 -0.3887  0.2057
  584MOL0     C78762   8.420   0.162   8.172 -0.1781 -0.5871  0.1228
  584MOL0     C78763   8.520   0.090   8.106 -0.8595 -0.3426  0.8025
  584MOL0     O78764   8.653   0.145   8.106 -0.4460 -0.4565  0.4558
  584MOL0     C78765   8.753   0.041   8.133  0.1503 -0.2772 -0.3519
  584MOL0     C78766   8.886   0.108   8.181  0.3399 -0.4841 -0.9412
  584MOL0     C78767   8.849   0.225   8.271 -0.7209 -0.1962  0.3134
  584MOL0     C78768   8.976   0.267   8.353  0.8949  0.3650  0.4008
  584MOL0     C78769   9.099   0.301   8.262  1.7938 -0.4634 -1.3066
  584MOL0     C78770   9.184   0.340   8.185 -0.0779  0.4518 -0.0527
  584MOL0     C78771   8.481  -0.019   8.041  0.2032  0.6718  0.0480
  584MOL0     C78772   8.351  -0.062   8.024 -0.0249 -0.8643  0.4245
  584MOL0     H78773   7.957  -0.320   8.018  3.6396  2.2102 -0.7290
  584MOL0     H78774   7.724  -0.358   8.012 -1.8543  1.6402 -0.1485
  584MOL0     H78775   7.495  -0.355   7.821 -2.0791 -0.9671 -0.9527
  584MOL0     H78776   7.463  -0.344   8.000 -1.7856  0.1201  0.0536
  584MOL0     H78777   7.254  -0.234   7.972 -2.0451  0.6924 -1.5462
  584MOL0     H78778   7.308  -0.153   7.817  0.9869 -0.1965 -1.3676
  584MOL0     H78779   7.284  -0.366   7.699 -1.6996  1.7369 -0.3109
  584MOL0     H78780   7.267  -0.447   7.852 -2.0969 -0.5374  1.7420
  584MOL0     H78781   7.051  -0.322   7.878 -0.0025 -0.7302 -0.4116
  584MOL0     H78782   7.064  -0.253   7.714 -1.0398 -0.1081  0.3069
  584MOL0     H78783   7.084  -0.560   7.739  1.7710  0.9535  0.9013
  584MOL0     H78784   6.924  -0.477   7.742  0.9988  0.9629 -1.4124
  584MOL0     H78785   6.944  -0.398   7.530 -0.3383  1.6604  2.9681
  584MOL0     H78786   7.119  -0.404   7.543 -1.6892  4.3769  4.7249
  584MOL0     H78787   7.128  -0.616   7.470 -0.9370  0.3341  0.7277
  584MOL0     H78788   7.016  -0.684   7.579  0.9467 -1.6202 -0.4718
  584MOL0     H78789   6.957  -0.687   7.316  0.5716  0.0528 -0.5873
  584MOL0     H78790   6.911  -0.518   7.347  2.6018 -0.8519 -1.6041
  584MOL0     H78791   6.768  -0.885   7.394 -1.2044 -0.1420 -0.4504
  584MOL0     H78792   6.424  -0.846   7.580 -0.4087 -3.7600  2.6641
  584MOL0     H78793   6.552  -0.967   7.514  0.9179 -0.7188  0.0162
  584MOL0     H78794   6.544  -0.855   7.792  1.5011 -0.6644  0.9575
  584MOL0     H78795   6.668  -0.954   7.733 -0.5652 -1.4885  0.8690
  584MOL0     H78796   6.522  -1.089   7.857  3.3414  0.6937 -1.4281
  584MOL0     H78797   6.503  -1.137   7.688 -3.9766  0.6019 -1.1196
  584MOL0     H78798   6.293  -1.005   7.668  0.0525  2.5084  0.2522
  584MOL0     H78799   6.312  -0.931   7.823 -0.2281  0.0702  0.4325
  584MOL0     H78800   6.344  -1.056   8.062  0.1499 -1.2797 -2.6183
  584MOL0     H78801   6.137  -0.961   8.366 -0.3245  3.0386  0.5893
  584MOL0     H78802   6.310  -0.966   8.301  0.5033  2.4364 -1.1776
  584MOL0     H78803   6.203  -0.831   8.284 -2.3259 -0.1258  1.5340
  584MOL0     H78804   5.757  -0.955   8.468  1.6031  2.1430 -0.8428
  584MOL0     H78805   5.555  -0.863   8.568 -0.1154  0.5062  0.2136
  584MOL0     H78806   5.137  -0.773   8.444  0.5860  0.0407  0.3105
  584MOL0     H78807   5.209  -0.843   8.290  1.8170  5.1804 -0.7780
  584MOL0     H78808   5.103  -1.011   8.457  0.0599  0.0513 -0.6380
  584MOL0     H78809   5.279  -1.033   8.436  0.7078 -0.2746  1.2387
  584MOL0     H78810   5.303  -0.883   8.660 -0.6545  2.5214 -3.0837
  584MOL0     H78811   5.272  -1.057   8.652  1.4705 -0.8686 -1.0228
  584MOL0     H78812   5.058  -0.837   8.680  3.3622  1.2542  0.3334
  584MOL0     H78813   5.026  -1.019   8.659 -1.5755  1.9607 -1.2268
  584MOL0     H78814   5.158  -0.860   8.884 -1.4891  0.9180 -0.6416
  584MOL0     H78815   5.169  -1.031   8.896  4.2648  3.1478  1.8666
  584MOL0     H78816   4.915  -0.873   8.915 -0.0988  0.0655 -2.6838
  584MOL0     H78817   4.927  -1.047   8.900  0.2266 -1.8359  2.7519
  584MOL0     H78818   5.078  -0.906   9.134  2.3011 -2.6964 -1.5992
  584MOL0     H78819   5.025  -1.075   9.112 -0.9615  0.1769  1.2493
  584MOL0     H78820   4.840  -0.832   9.135  0.1871 -0.6997 -3.3752
  584MOL0     H78821   4.876  -0.941   9.275 -2.2709 -2.9727  0.4400
  584MOL0     H78822   5.379  -0.873   8.161 -2.5283 -0.5116  0.9944
  584MOL0     H78823   5.578  -0.950   8.085 -1.0246  3.2356 -0.5833
  584MOL0     H78824   5.857  -1.075   7.975  1.0562 -2.7363  2.9565
  584MOL0     H78825   6.029  -1.142   7.803  1.6855  1.5187 -0.1961
  584MOL0     H78826   7.661   0.025   7.826  2.2727  2.0130 -1.9040
  584MOL0     H78827   7.910   0.064   7.815  0.6356 -0.6379 -0.8076
  584MOL0     H78828   8.213   0.192   8.189  2.6201  2.9781  0.4638
  584MOL0     H78829   8.440   0.258   8.219  0.3162 -0.3344 -0.5833
  584MOL0     H78830   8.709  -0.024   8.210 -1.9185  2.4097  0.9272
  584MOL0     H78831   8.776  -0.019   8.045 -3.9791 -1.8288 -0.5931
  584MOL0     H78832   8.940   0.151   8.096  0.7105 -0.4033 -0.6659
  584MOL0     H78833   8.953   0.034   8.225 -0.9802 -1.6345 -0.7667
  584MOL0     H78834   8.776   0.181   8.339 -1.6301 -0.2969 -0.6992
  584MOL0     H78835   8.811   0.309   8.212  3.0931  0.6624 -1.1965
  584MOL0     H78836   9.001   0.184   8.420  1.5111 -1.4706 -1.9131
  584MOL0     H78837   8.948   0.360   8.402 -1.8260 -0.0344 -0.1973
  584MOL0     H78838   9.261   0.369   8.117  1.5112 -2.0881  0.5185
  584MOL0     H78839   8.557  -0.088   8.004 -0.2905  0.4811 -0.6218
  584MOL0     H78840   8.334  -0.147   7.959 -0.4979 -0.3921 -0.0694
  585MOL0     O78841   8.947   1.364   7.925 -0.3949  0.4609 -0.3343
  585MOL0     C78842   8.957   1.245   7.878  0.1200  0.1948  0.3344
  585MOL0     O78843   9.069   1.179   7.839  0.7146 -0.9841  0.2538
  585MOL0     C78844   9.176   1.250   7.800  0.3733  0.3987  0.1809
  585MOL0     C78845   9.253   1.341   7.874 -0.1889 -0.4673 -0.1315
  585MOL0     C78846   9.370   1.405   7.831 -0.1994  0.2218 -0.1164
  585MOL0     C78847   9.419   1.388   7.698  0.2052 -0.4459  0.0633
  585MOL0     O78848   9.533   1.450   7.667 -0.5432  0.5025 -0.2797
  585MOL0     C78849   9.588   1.401   7.552 -0.3466  0.1769  0.7882
  585MOL0     C78850   9.713   1.479   7.510  0.4460 -0.2396 -0.9446
  585MOL0     C78851   9.767   1.418   7.391  0.2519 -0.3193  0.0756
  585MOL0     C78852   9.894   1.481   7.333 -0.0192 -0.3426 -0.2995
  585MOL0     C78853   9.924   1.406   7.204 -0.2219  0.5883 -0.3144
  585MOL0     C78854  10.054   1.447   7.129 -1.1218  0.8286 -1.0725
  585MOL0     C78855  10.185   1.396   7.189  0.1583  0.5083  0.9797
  585MOL0     C78856  10.214   1.245   7.193  0.1066 -1.0416 -0.3612
  585MOL0     N78857  10.230   1.205   7.050 -0.5335  0.3610  0.2659
  585MOL0     C78858  10.332   1.243   6.961 -0.0508 -0.5823  0.5450
  585MOL0     C78859  10.293   1.211   6.838  0.4499 -0.1646  0.2759
  585MOL0     C78860  10.373   1.244   6.715  0.3536 -0.9151  0.1361
  585MOL0     C78861  10.343   1.377   6.638  0.5158 -0.0252  0.2900
  585MOL0     C78862  10.381   1.506   6.703  0.1210  0.7356 -0.0120
  585MOL0     C78863  10.290   1.545   6.819 -0.1413 -0.0412  0.3924
  585MOL0     O78864  10.240   1.683   6.796 -0.1088 -0.1950 -0.2080
  585MOL0     C78865  10.211   1.769   6.899  0.5512  0.3935 -0.0898
  585MOL0     C78866  10.100   1.850   6.897  0.3164  0.6568 -0.2328
  585MOL0     C78867  10.062   1.928   7.011  0.1303  0.8438 -0.6894
  585MOL0     C78868   9.931   1.995   7.020  0.1677 -0.6039  0.4166
  585MOL0     C78869  10.148   1.930   7.127 -0.2114 -0.4736  0.5610
  585MOL0     C78870  10.123   2.007   7.259  0.5611 -0.1036  0.3459
  585MOL0     O78871  10.030   2.110   7.254  0.3870  0.0126  1.2379
  585MOL0     C78872   9.998   2.183   7.371  0.3968 -0.2815 -0.4752
  585MOL0     C78873   9.955   2.317   7.351  0.1007 -0.0750 -0.1404
  585MOL0     C78874   9.904   2.399   7.457 -0.6036  0.0533 -0.3184
  585MOL0     C78875   9.899   2.347   7.587 -1.3857  0.1635  0.1114
  585MOL0     O78876   9.846   2.432   7.681 -0.4655  0.4654 -0.3290
  585MOL0     C78877   9.770   2.373   7.794  0.1969 -0.7102  0.4537
  585MOL0     C78878   9.669   2.482   7.838  0.0252  0.4650 -0.1018
  585MOL0     C78879   9.545   2.420   7.900  0.6316  0.8835 -0.6472
  585MOL0     C78880   9.457   2.518   7.978 -0.0556 -0.1338  0.1195
  585MOL0     C78881   9.322   2.470   8.024 -0.1082 -0.0126  0.5345
  585MOL0     C78882   9.236   2.449   7.898 -0.4156  0.0255 -0.0229
  585MOL0     C78883   9.090   2.474   7.944 -0.3594 -0.2279 -0.8916
  585MOL0     C78884   8.996   2.411   7.835 -1.3819 -0.4420 -0.1507
  585MOL0    Cl78885   9.000   2.520   7.692  0.1729  0.1995 -0.0504
  585MOL0     C78886   9.955   2.224   7.604  0.5590  0.7037  0.1026
  585MOL0     C78887   9.999   2.134   7.506  0.1104  0.4234 -0.8226
  585MOL0     O78888  10.190   1.979   7.357  0.4530  0.1426  0.1368
  585MOL0     C78889  10.262   1.857   7.116 -0.7220  0.1576 -0.4060
  585MOL0     C78890  10.292   1.780   7.007  0.1986 -0.2399 -0.3946
  585MOL0     N78891  10.162   1.161   6.848  0.8204 -0.5157 -0.6853
  585MOL0     N78892  10.132   1.162   6.972 -0.1980  0.6428  0.3660
  585MOL0     C78893   9.342   1.290   7.624 -0.8782 -0.3422  0.5118
  585MOL0     C78894   9.222   1.237   7.670 -0.0097  0.0650  0.1631
  585MOL0     C78895   8.829   1.166   7.866 -0.0157  0.0736 -0.5057
  585MOL0     C78896   8.838   1.029   7.871 -0.5084 -0.0675 -0.7760
  585MOL0     C78897   8.723   0.947   7.865  0.3885 -0.7225 -0.5784
  585MOL0     C78898   8.598   1.003   7.850 -0.7493  0.1956  0.9778
  585MOL0     O78899   8.490   0.915   7.867  0.7289 -0.3638  0.3367
  585MOL0     C78900   8.368   0.986   7.859  0.0811  0.7232 -0.1942
  585MOL0     C78901   8.247   0.894   7.853  0.3060  0.3603  0.3866
  585MOL0     C78902   8.242   0.827   7.714  1.0095 -0.1261 -0.0652
  585MOL0     C78903   8.146   0.711   7.725  0.1180  0.3383  0.5440
  585MOL0     C78904   8.013   0.765   7.753 -0.8464 -0.5827  1.4811
  585MOL0     C78905   7.912   0.815   7.777 -0.8728 -0.3000 -0.1191
  585MOL0     C78906   8.586   1.147   7.834  1.3025  0.8787  0.7019
  585MOL0     C78907   8.699   1.220   7.850 -1.0645 -0.1560  0.1696
  585MOL0     H78908   9.228   1.368   7.976  0.5814  2.5161 -0.6126
  585MOL0     H78909   9.428   1.470   7.896 -1.1887  2.1614 -1.0549
  585MOL0     H78910   9.613   1.297   7.575 -0.8534  0.6949  4.1407
  585MOL0     H78911   9.519   1.411   7.467  0.3002 -1.4434  0.0208
  585MOL0     H78912   9.693   1.586   7.503 -4.5080 -0.8451  0.3805
  585MOL0     H78913   9.790   1.466   7.586 -0.6420  0.0917  0.2500
  585MOL0     H78914   9.789   1.316   7.423  1.8963  0.2270  0.8048
  585MOL0     H78915   9.693   1.418   7.311  2.0144  2.9176 -1.8000
  585MOL0     H78916   9.897   1.590   7.327  1.2978 -0.2900  0.8081
  585MOL0     H78917   9.976   1.460   7.402  1.1160  1.8268 -0.8965
  585MOL0     H78918   9.930   1.298   7.221  3.7563  0.7076 -0.0282
  585MOL0     H78919   9.837   1.427   7.140 -2.8751  2.7264  3.6020
  585MOL0     H78920  10.050   1.412   7.025 -0.6180 -0.9817 -0.5186
  585MOL0     H78921  10.055   1.556   7.120 -1.2147  0.8575 -0.7412
  585MOL0     H78922  10.261   1.446   7.128 -2.4605  1.3721 -1.7805
  585MOL0     H78923  10.191   1.423   7.295 -4.6265  0.0894  1.5615
  585MOL0     H78924  10.138   1.193   7.251  0.0854 -0.9031 -0.2642
  585MOL0     H78925  10.310   1.234   7.245  0.3678  1.3911 -0.2298
  585MOL0     H78926  10.425   1.290   6.992 -0.3436  1.9280 -1.9725
  585MOL0     H78927  10.480   1.243   6.740  0.8424  1.6968 -1.5330
  585MOL0     H78928  10.359   1.173   6.633  1.2725  1.3735 -2.1216
  585MOL0     H78929  10.239   1.386   6.606  1.3617 -1.6617 -3.4116
  585MOL0     H78930  10.392   1.380   6.540  1.0892  0.8604  0.5922
  585MOL0     H78931  10.377   1.588   6.631  2.7122  3.3537  2.5670
  585MOL0     H78932  10.485   1.515   6.736 -0.6713  3.5855  2.0982
  585MOL0     H78933  10.359   1.560   6.902  0.6321  0.0865 -0.2587
  585MOL0     H78934  10.218   1.466   6.840  1.0468 -1.2087  0.2048
  585MOL0     H78935  10.031   1.852   6.813 -0.1925  2.5300  0.1824
  585MOL0     H78936   9.885   1.968   7.116 -2.0426  1.7262  0.1322
  585MOL0     H78937   9.943   2.104   7.025  1.0842 -0.7104  0.8082
  585MOL0     H78938   9.854   1.964   6.949 -0.4381  0.0368  0.7801
  585MOL0     H78939   9.956   2.355   7.249 -0.0238  0.3156  0.0013
  585MOL0     H78940   9.865   2.499   7.444  2.4269  1.2409 -0.9025
  585MOL0     H78941   9.719   2.287   7.749 -2.1317 -0.8921  3.1574
  585MOL0     H78942   9.839   2.352   7.877 -0.5140  2.2317  1.9169
  585MOL0     H78943   9.728   2.541   7.908  3.1441 -0.5595 -1.6695
  585MOL0     H78944   9.641   2.540   7.749 -0.1067 -0.9695 -1.0164
  585MOL0     H78945   9.568   2.339   7.970 -1.7576  1.4778  0.9667
  585MOL0     H78946   9.490   2.366   7.822  1.9170 -5.9861  2.5143
  585MOL0     H78947   9.509   2.564   8.063  0.2691  0.5170 -0.4209
  585MOL0     H78948   9.455   2.602   7.908 -0.2605 -2.6147 -3.0998
  585MOL0     H78949   9.283   2.562   8.069  1.2036 -0.2320  2.2512
  585MOL0     H78950   9.317   2.383   8.090 -0.1400 -1.1801 -0.9491
  585MOL0     H78951   9.260   2.528   7.826 -1.2739  0.0246 -0.3134
  585MOL0     H78952   9.253   2.347   7.864 -0.2611  0.8682 -2.7581
  585MOL0     H78953   9.066   2.581   7.954  2.0810  0.2481  0.7795
  585MOL0     H78954   9.080   2.428   8.042  3.2635  0.0418 -0.2555
  585MOL0     H78955   8.897   2.406   7.882 -0.3244  0.1076  2.3184
  585MOL0     H78956   9.029   2.314   7.799  1.7138 -0.6952  2.8277
  585MOL0     H78957   9.965   2.182   7.704  0.6735 -0.3599 -0.3367
  585MOL0     H78958  10.031   2.036   7.539  0.4998  1.1102  0.9325
  585MOL0     H78959  10.344   1.865   7.187  0.5360  2.8600 -1.9791
  585MOL0     H78960  10.393   1.741   7.002 -0.4831 -2.8651  2.6315
  585MOL0     H78961   9.379   1.246   7.532  2.0373 -0.4837  1.6409
  585MOL0     H78962   9.187   1.155   7.608  2.4461 -0.9142 -0.0464
  585MOL0     H78963   8.933   0.981   7.891 -0.5292  0.0076 -0.4892
  585MOL0     H78964   8.736   0.842   7.885  5.0708  0.0856  2.2960
  585MOL0     H78965   8.364   1.043   7.952 -1.3465  2.4251 -1.2573
  585MOL0     H78966   8.359   1.050   7.771 -1.1386  0.2918 -0.3913
  585MOL0     H78967   8.154   0.949   7.868 -0.1565  0.7558 -3.1046
  585MOL0     H78968   8.258   0.822   7.935  0.3221 -0.3304 -0.2049
  585MOL0     H78969   8.339   0.789   7.681 -0.1556 -4.7025  1.1234
  585MOL0     H78970   8.200   0.894   7.639 -3.2542 -1.2417  1.0012
  585MOL0     H78971   8.173   0.641   7.805 -1.4386 -0.7129  0.2095
  585MOL0     H78972   8.142   0.648   7.636 -3.0001 -2.0740  2.1468
  585MOL0     H78973   7.833   0.881   7.808 -2.4496 -2.3629  0.4610
  585MOL0     H78974   8.491   1.199   7.831  1.3542  0.9873  0.9927
  585MOL0     H78975   8.702   1.328   7.842  2.3366  0.1047  2.5190
  586MOL0     O78976   3.462   7.065   8.825  0.6760  0.0949  0.4224
  586MOL0     C78977   3.465   7.051   8.947 -0.6118  0.2254  0.5842
  586MOL0     O78978   3.575   7.047   9.022  0.3892  0.4843 -0.7707
  586MOL0     C78979   3.699   7.069   8.967 -0.1818 -0.2602  0.1872
  586MOL0     C78980   3.719   7.197   8.907  0.0504  1.0059 -0.9571
  586MOL0     C78981   3.843   7.220   8.841  0.9886  0.9685 -0.6836
  586MOL0     C78982   3.950   7.129   8.849 -0.8543 -0.6728 -0.0259
  586MOL0     O78983   4.069   7.157   8.784 -0.1731  0.7553 -0.5844
  586MOL0     C78984   4.185   7.060   8.796 -0.8128  1.1619 -0.1675
  586MOL0     C78985   4.306   7.120   8.711  0.9786  0.0765 -0.0714
  586MOL0     C78986   4.435   7.055   8.746 -0.0927 -0.2993  0.2159
  586MOL0     C78987   4.547   7.115   8.670  0.0661 -0.1078  0.8507
  586MOL0     C78988   4.667   7.017   8.656 -0.2284  0.4689  0.5803
  586MOL0     C78989   4.764   7.033   8.541 -0.1715  0.1377  0.4778
  586MOL0     C78990   4.846   7.163   8.561 -0.4725 -1.0367 -0.3931
  586MOL0     C78991   4.974   7.169   8.487 -0.1172  0.9816  0.6952
  586MOL0     N78992   5.044   7.297   8.464 -0.4747  0.6664  0.0187
  586MOL0     C78993   5.039   7.358   8.350 -0.4828 -0.2124  0.7267
  586MOL0     C78994   5.146   7.436   8.342  0.4184  0.6431 -1.1043
  586MOL0     C78995   5.187   7.526   8.230 -0.2644  0.6713 -0.7948
  586MOL0     C78996   5.295   7.629   8.251 -0.3281 -0.5603  0.7805
  586MOL0     C78997   5.280   7.758   8.165 -1.2699 -0.3478 -0.2940
  586MOL0     C78998   5.315   7.730   8.025 -0.4385 -1.2596 -0.0451
  586MOL0     O78999   5.209   7.658   7.967  0.5798 -0.5947 -0.8284
  586MOL0     C79000   5.103   7.726   7.895 -0.0355 -0.3657 -0.0032
  586MOL0     C79001   5.050   7.848   7.932 -0.4694  0.1800 -0.3710
  586MOL0     C79002   4.963   7.917   7.848  0.2746 -0.8613 -1.0329
  586MOL0     C79003   4.921   8.057   7.895  0.6860  0.1564  0.3063
  586MOL0     C79004   4.917   7.857   7.728 -0.8821  0.2497 -0.4004
  586MOL0     C79005   4.821   7.914   7.634 -0.4434  0.3073  0.4381
  586MOL0     O79006   4.840   7.883   7.501  0.7825 -0.1684  0.1552
  586MOL0     C79007   4.752   7.948   7.416 -1.2802  0.2131  0.8263
  586MOL0     C79008   4.628   7.888   7.386  0.2491 -1.0045 -0.4905
  586MOL0     C79009   4.524   7.963   7.315  0.3377  0.2274 -0.4020
  586MOL0     C79010   4.568   8.088   7.259  0.2741  0.3656 -0.3510
  586MOL0     O79011   4.485   8.167   7.185 -0.2107 -0.0064 -0.2926
  586MOL0     C79012   4.351   8.155   7.220 -0.8923 -0.3770  0.6934
  586MOL0     C79013   4.287   8.295   7.202  0.1967 -0.3034  0.5806
  586MOL0     C79014   4.130   8.278   7.195  0.4959 -0.4563 -0.7929
  586MOL0     C79015   4.073   8.211   7.321  0.2214  0.9498  0.0760
  586MOL0     C79016   3.951   8.128   7.275 -0.2881  0.3343 -0.4122
  586MOL0     C79017   3.973   7.995   7.211  0.1054 -0.2067 -0.3404
  586MOL0     C79018   3.837   7.945   7.179 -0.7122  0.5182 -0.0470
  586MOL0     C79019   3.849   7.799   7.138  0.5360  0.6665  0.6177
  586MOL0    Cl79020   3.687   7.737   7.096 -0.6757  0.5198  0.1084
  586MOL0     C79021   4.697   8.136   7.272  0.2426  0.4750  0.8156
  586MOL0     C79022   4.783   8.068   7.358  0.2424 -0.4895  0.6297
  586MOL0     O79023   4.734   7.988   7.677 -0.4957 -0.5436 -0.2113
  586MOL0     C79024   4.964   7.729   7.701  0.4467  0.7817  0.0485
  586MOL0     C79025   5.062   7.669   7.781  0.7412  0.2354  0.0353
  586MOL0     N79026   5.215   7.432   8.458 -0.4293 -0.7590 -0.4059
  586MOL0     N79027   5.147   7.356   8.537 -0.1270 -0.1770  0.1960
  586MOL0     C79028   3.927   6.999   8.921 -0.2866 -0.3161 -0.2859
  586MOL0     C79029   3.800   6.976   8.974 -0.2872 -0.1750  0.4159
  586MOL0     C79030   3.333   7.033   9.011 -0.7299  0.0092  0.5549
  586MOL0     C79031   3.230   6.972   8.937  0.0169  0.2469  0.3290
  586MOL0     C79032   3.105   6.958   8.990 -0.4529 -0.0488  0.1763
  586MOL0     C79033   3.075   7.007   9.119 -1.1175  1.0867  0.8114
  586MOL0     O79034   2.945   7.007   9.166  0.5563 -0.6300 -0.8872
  586MOL0     C79035   2.917   6.907   9.275  0.4954 -0.6898 -0.1480
  586MOL0     C79036   2.865   6.779   9.225 -0.6976  0.1016 -0.6489
  586MOL0     C79037   2.792   6.686   9.333  0.9243  0.1538  0.3484
  586MOL0     C79038   2.653   6.747   9.366  0.3756 -0.5356  0.3969
  586MOL0     C79039   2.580   6.670   9.466  0.1317  0.0859  1.6939
  586MOL0     C79040   2.523   6.601   9.552 -0.1353 -0.3613  0.6950
  586MOL0     C79041   3.172   7.071   9.189 -1.2431 -0.5625 -0.5122
  586MOL0     C79042   3.305   7.086   9.139 -0.6405  0.2667 -0.8688
  586MOL0     H79043   3.642   7.273   8.905 -0.5335  0.4818  0.6522
  586MOL0     H79044   3.858   7.307   8.778  0.2353  0.5775 -1.4205
  586MOL0     H79045   4.216   7.036   8.898 -0.2903  0.7755 -0.4142
  586MOL0     H79046   4.158   6.964   8.751 -0.7503  0.8055  0.5462
  586MOL0     H79047   4.283   7.110   8.605  1.6765  1.0886 -0.3261
  586MOL0     H79048   4.306   7.226   8.738  3.3830 -0.4644  2.6005
  586MOL0     H79049   4.457   7.068   8.852 -1.1983 -0.6711  0.5064
  586MOL0     H79050   4.424   6.949   8.720 -0.7249 -0.4065  0.8704
  586MOL0     H79051   4.515   7.143   8.569  1.2932 -0.6922  0.2784
  586MOL0     H79052   4.584   7.208   8.714  1.2587 -0.5877  0.9116
  586MOL0     H79053   4.714   7.014   8.754  0.1819 -4.8590  0.5211
  586MOL0     H79054   4.621   6.919   8.638 -0.6731  1.2911 -4.2825
  586MOL0     H79055   4.830   6.947   8.530 -2.8526 -1.9906  0.0905
  586MOL0     H79056   4.704   7.037   8.450 -0.1271  1.7652  0.4746
  586MOL0     H79057   4.794   7.254   8.529  2.8719  0.3009 -2.5493
  586MOL0     H79058   4.876   7.169   8.666  0.0034 -0.2044 -0.5666
  586MOL0     H79059   4.962   7.113   8.394  1.1887  1.9665 -0.1091
  586MOL0     H79060   5.046   7.119   8.552 -0.1219 -1.8946 -1.3422
  586MOL0     H79061   4.966   7.347   8.270  0.5350  1.2578 -0.4712
  586MOL0     H79062   5.223   7.458   8.152  1.6074  0.3639  0.2801
  586MOL0     H79063   5.099   7.580   8.193 -0.0969  2.8870  1.7630
  586MOL0     H79064   5.390   7.583   8.224  0.0117  0.2805  0.5041
  586MOL0     H79065   5.305   7.669   8.352 -1.4452 -0.9474  1.0581
  586MOL0     H79066   5.346   7.842   8.192 -0.9120 -0.6699 -0.1426
  586MOL0     H79067   5.178   7.794   8.173 -1.0481 -0.1109  2.4972
  586MOL0     H79068   5.409   7.675   8.017 -0.4014 -1.0217 -1.3982
  586MOL0     H79069   5.330   7.820   7.965 -0.8432 -1.9051 -1.1269
  586MOL0     H79070   5.076   7.892   8.028 -1.6697 -0.7513  0.3970
  586MOL0     H79071   4.820   8.052   7.936 -0.1161  6.4902  0.2202
  586MOL0     H79072   4.982   8.111   7.968  3.6039  0.0154 -1.8392
  586MOL0     H79073   4.917   8.120   7.805 -1.3183  0.5134  0.6010
  586MOL0     H79074   4.601   7.787   7.413  1.9588 -1.6576 -1.1174
  586MOL0     H79075   4.428   7.916   7.295  1.4057 -2.0647 -0.3819
  586MOL0     H79076   4.301   8.075   7.165  0.2324  0.8535 -2.2776
  586MOL0     H79077   4.346   8.122   7.325 -0.4544 -1.8591  0.2730
  586MOL0     H79078   4.311   8.357   7.288 -2.7213  1.3353  0.3344
  586MOL0     H79079   4.317   8.352   7.114 -2.0274  1.8898  1.1312
  586MOL0     H79080   4.098   8.239   7.098 -3.7242  3.4568 -1.2869
  586MOL0     H79081   4.085   8.376   7.184 -1.4782 -1.3441 -0.9894
  586MOL0     H79082   4.150   8.152   7.371 -0.2175  3.6117  4.3150
  586MOL0     H79083   4.048   8.287   7.396  0.4259 -0.2695  1.4104
  586MOL0     H79084   3.886   8.189   7.210 -1.6323 -0.8824 -0.2610
  586MOL0     H79085   3.900   8.118   7.371  0.6083  4.6636  0.7404
  586MOL0     H79086   4.013   8.022   7.113 -3.8596 -0.6072 -2.2762
  586MOL0     H79087   4.041   7.925   7.262  0.9567  1.5323  1.0112
  586MOL0     H79088   3.798   8.008   7.098 -0.9112  2.7311  1.6607
  586MOL0     H79089   3.775   7.954   7.269  1.3451 -0.0468  1.5067
  586MOL0     H79090   3.903   7.743   7.215 -2.2740 -0.1152  2.1467
  586MOL0     H79091   3.911   7.791   7.048 -0.8004 -1.8349 -0.1725
  586MOL0     H79092   4.715   8.237   7.239 -3.0498  1.0397  0.3953
  586MOL0     H79093   4.880   8.115   7.368 -0.5274  0.9336  1.7055
  586MOL0     H79094   4.917   7.674   7.620 -2.3763  0.9896  1.4424
  586MOL0     H79095   5.108   7.573   7.762  1.3689  0.2794  1.2906
  586MOL0     H79096   4.008   6.933   8.950  0.4874  1.1400  1.0182
  586MOL0     H79097   3.794   6.881   9.026 -0.6956  0.2402  1.1524
  586MOL0     H79098   3.246   6.937   8.836 -0.0070  3.2126 -0.7943
  586MOL0     H79099   3.024   6.903   8.942 -0.4944 -0.2071  0.4263
  586MOL0     H79100   3.011   6.896   9.330  0.8433 -0.5018 -0.6865
  586MOL0     H79101   2.848   6.945   9.350  1.0414  0.6254 -0.2817
  586MOL0     H79102   2.942   6.719   9.175 -1.2195 -2.3419  1.2978
  586MOL0     H79103   2.785   6.794   9.152  1.0579  0.4999 -2.6277
  586MOL0     H79104   2.858   6.674   9.420  0.9770  1.0774  0.4535
  586MOL0     H79105   2.772   6.584   9.300 -0.1878  0.6293 -0.4908
  586MOL0     H79106   2.596   6.752   9.273  1.5438  2.2482 -0.2687
  586MOL0     H79107   2.653   6.851   9.399  0.2035 -0.2130 -0.5905
  586MOL0     H79108   2.480   6.542   9.631 -1.1448  1.4434  1.5715
  586MOL0     H79109   3.148   7.108   9.288  1.7188  2.1880 -0.6397
  586MOL0     H79110   3.381   7.131   9.202  0.8612 -0.4642 -2.0922
  587MOL0     O79111   9.104   7.636   8.911 -0.1492 -0.2760  0.4934
  587MOL0     C79112   9.124   7.518   8.906 -0.1073  0.5726 -0.3423
  587MOL0     O79113   9.232   7.456   8.947  0.1486  1.3996 -0.2311
  587MOL0     C79114   9.339   7.503   9.016  0.2054  0.5124  0.7122
  587MOL0     C79115   9.351   7.640   9.066  0.1226  1.0180  0.4634
  587MOL0     C79116   9.468   7.668   9.136 -0.1150  0.0826 -0.9928
  587MOL0     C79117   9.570   7.575   9.158  0.1487 -1.2185 -0.3653
  587MOL0     O79118   9.676   7.623   9.236 -1.0701  1.0718  0.4641
  587MOL0     C79119   9.809   7.566   9.217 -0.2294  0.2658  0.9540
  587MOL0     C79120   9.910   7.660   9.264 -0.5238  0.8371  0.4289
  587MOL0     C79121  10.040   7.593   9.251  0.1563 -0.8976  1.2035
  587MOL0     C79122  10.149   7.685   9.303 -0.5172 -0.4150 -0.6409
  587MOL0     C79123  10.295   7.621   9.302  0.1730  0.0523  0.8547
  587MOL0     C79124  10.344   7.600   9.154  0.5928 -0.9260 -0.0459
  587MOL0     C79125  10.415   7.719   9.105  0.6137 -0.9913 -0.2975
  587MOL0     C79126  10.548   7.725   9.170  0.8730  0.0704 -0.0998
  587MOL0     N79127  10.627   7.810   9.092 -0.6037 -0.1351 -0.6637
  587MOL0     C79128  10.633   7.941   9.073  0.0388 -0.5045  0.7165
  587MOL0     C79129  10.754   7.967   9.007  1.0008 -0.0371  0.3105
  587MOL0     C79130  10.808   8.102   8.972 -0.6408  0.2731  0.5287
  587MOL0     C79131  10.967   8.112   9.006  0.3038  0.2780  0.3098
  587MOL0     C79132  10.983   8.109   9.162 -0.6281 -0.6502  0.1829
  587MOL0     C79133  11.015   7.971   9.215 -0.9152 -0.1978 -0.0083
  587MOL0     O79134  11.143   7.922   9.155 -0.0502  0.6969 -0.4949
  587MOL0     C79135  11.225   7.835   9.232  0.2832  0.4060  0.2849
  587MOL0     C79136  11.312   7.762   9.148  0.6096  0.2039 -0.5561
  587MOL0     C79137  11.395   7.656   9.200  0.1443 -0.2677 -0.8506
  587MOL0     C79138  11.505   7.609   9.117 -0.5398  0.2045 -0.5023
  587MOL0     C79139  11.394   7.643   9.352 -0.1423 -0.4229  0.5749
  587MOL0     C79140  11.481   7.550   9.427  0.0051 -0.8335 -0.6570
  587MOL0     O79141  11.535   7.445   9.359  0.7144 -0.4050 -0.3253
  587MOL0     C79142  11.623   7.364   9.420 -0.6873 -0.0383  1.0747
  587MOL0     C79143  11.595   7.225   9.411 -0.1611 -0.2059  0.1221
  587MOL0     C79144  11.703   7.136   9.442 -0.6823  0.8558  1.1553
  587MOL0     C79145  11.823   7.178   9.497 -0.0984  0.0384  0.1283
  587MOL0     O79146  11.928   7.086   9.541  1.0772 -0.7536  0.0118
  587MOL0     C79147  11.952   6.979   9.446 -1.3762  0.9020  0.1032
  587MOL0     C79148  12.094   6.936   9.455 -0.0931  0.5473 -0.4623
  587MOL0     C79149  12.194   7.049   9.428 -0.1082  0.2530 -0.6479
  587MOL0     C79150  12.320   6.994   9.353  1.1138  0.3090  0.1467
  587MOL0     C79151  12.443   7.086   9.357 -0.3525 -0.3709  0.1984
  587MOL0     C79152  12.437   7.191   9.248 -1.0986 -0.7112  0.1787
  587MOL0     C79153  12.545   7.293   9.271 -0.4591 -0.7837  0.5004
  587MOL0     C79154  12.551   7.399   9.157  0.8655 -0.4558 -0.2987
  587MOL0    Cl79155  12.406   7.513   9.172  0.2032  0.1369  0.2569
  587MOL0     C79156  11.851   7.319   9.491  0.8685 -0.0882  0.3692
  587MOL0     C79157  11.758   7.412   9.454  0.5152  0.4142  0.1813
  587MOL0     O79158  11.509   7.586   9.537 -0.4297 -0.6929 -0.9696
  587MOL0     C79159  11.302   7.719   9.425  0.0834  0.1166 -0.3304
  587MOL0     C79160  11.217   7.812   9.363  0.0422 -0.0864 -0.2960
  587MOL0     N79161  10.809   7.850   8.970  0.1480 -0.3680 -0.4026
  587MOL0     N79162  10.728   7.756   9.012  1.6941  0.3819  0.9510
  587MOL0     C79163   9.551   7.452   9.106 -0.2709  0.2242 -0.4943
  587MOL0     C79164   9.439   7.406   9.035 -0.5445 -0.5970 -1.5946
  587MOL0     C79165   9.014   7.429   8.852  1.0932 -0.9073 -0.1151
  587MOL0     C79166   9.034   7.301   8.822  0.9473  0.1653 -0.8140
  587MOL0     C79167   8.927   7.213   8.795  0.5185 -0.7139  0.4854
  587MOL0     C79168   8.798   7.260   8.807  1.1383  0.6607  0.4819
  587MOL0     O79169   8.700   7.158   8.795  0.2783  0.3524 -1.0333
  587MOL0     C79170   8.561   7.205   8.811 -0.1061  0.6818  0.0058
  587MOL0     C79171   8.471   7.081   8.775  0.1080 -0.3927 -0.8145
  587MOL0     C79172   8.335   7.108   8.837 -0.1300  0.3481 -0.0203
  587MOL0     C79173   8.246   6.979   8.842 -0.1852 -0.4831 -0.4743
  587MOL0     C79174   8.238   6.904   8.716 -0.7397 -0.1739 -0.3496
  587MOL0     C79175   8.213   6.846   8.611 -0.8735 -0.6469  0.4200
  587MOL0     C79176   8.772   7.388   8.842 -0.2578 -0.5299 -0.0666
  587MOL0     C79177   8.876   7.475   8.864  0.7688  0.5710 -0.6012
  587MOL0     H79178   9.263   7.703   9.059 -0.9674 -0.6442 -2.2214
  587MOL0     H79179   9.484   7.759   9.192  0.0972 -1.3710  1.4188
  587MOL0     H79180   9.805   7.470   9.270 -0.7800 -0.8138 -0.9409
  587MOL0     H79181   9.834   7.548   9.112 -1.8191  2.7982  0.0606
  587MOL0     H79182   9.900   7.753   9.208  0.6073  0.6631 -0.0916
  587MOL0     H79183   9.888   7.682   9.369 -1.2165  2.7884 -0.0885
  587MOL0     H79184  10.054   7.499   9.304  1.2093 -1.6958 -0.4104
  587MOL0     H79185  10.056   7.578   9.144  0.1204  0.4820  0.9792
  587MOL0     H79186  10.142   7.768   9.232 -0.7559  1.5148  1.5197
  587MOL0     H79187  10.129   7.727   9.402  1.1212 -3.5186  1.1319
  587MOL0     H79188  10.360   7.689   9.356  3.0776 -2.3237  0.6324
  587MOL0     H79189  10.291   7.525   9.355 -1.0149 -2.9660 -4.0255
  587MOL0     H79190  10.412   7.515   9.143 -0.4586 -1.7508 -0.3354
  587MOL0     H79191  10.264   7.582   9.082 -0.1878  2.4027 -0.1991
  587MOL0     H79192  10.432   7.703   8.999 -0.1119 -2.4640 -0.2141
  587MOL0     H79193  10.355   7.810   9.120 -0.1676 -1.4265 -0.7456
  587MOL0     H79194  10.593   7.626   9.172 -1.8851 -1.2820  0.4605
  587MOL0     H79195  10.543   7.764   9.272 -1.3460 -0.0156 -0.1150
  587MOL0     H79196  10.567   8.022   9.103 -0.2424 -0.8967  1.1736
  587MOL0     H79197  10.805   8.117   8.864  1.6428  0.1707  0.3984
  587MOL0     H79198  10.752   8.184   9.017  2.0843  3.8641 -2.0399
  587MOL0     H79199  10.987   8.215   8.977 -0.8612  1.3325  2.9162
  587MOL0     H79200  11.034   8.043   8.954  0.8808  0.7926  0.3550
  587MOL0     H79201  10.899   8.148   9.221  1.5050 -0.9927  3.7385
  587MOL0     H79202  11.066   8.180   9.173 -0.3484 -0.9248 -0.1631
  587MOL0     H79203  10.931   7.904   9.193  0.1633 -1.7716  0.4427
  587MOL0     H79204  11.019   7.970   9.324  0.8743 -0.9902 -0.0435
  587MOL0     H79205  11.312   7.770   9.040 -0.3922 -1.9945 -0.7837
  587MOL0     H79206  11.599   7.606   9.173 -0.9144 -1.1350  0.0825
  587MOL0     H79207  11.479   7.512   9.073 -1.5154  0.6652 -0.9575
  587MOL0     H79208  11.524   7.676   9.032  1.4757  1.0965  0.5649
  587MOL0     H79209  11.502   7.193   9.364  0.8141 -2.4800 -0.3727
  587MOL0     H79210  11.692   7.029   9.428  2.0146  0.6252  0.1004
  587MOL0     H79211  11.884   6.895   9.462 -2.3238  2.0925  3.0041
  587MOL0     H79212  11.935   6.999   9.340 -0.1116  3.6460  0.3154
  587MOL0     H79213  12.116   6.892   9.553  2.1973  2.8088  0.1668
  587MOL0     H79214  12.093   6.858   9.378 -2.0180  2.1110 -2.1232
  587MOL0     H79215  12.211   7.106   9.520 -0.4156 -2.7939  1.4067
  587MOL0     H79216  12.140   7.113   9.357 -0.2780 -1.0754 -1.7474
  587MOL0     H79217  12.340   6.904   9.413 -1.5184  3.0094  5.8922
  587MOL0     H79218  12.299   6.948   9.256  0.1466 -0.0363  0.5149
  587MOL0     H79219  12.531   7.021   9.345  0.6148  1.3386 -3.8857
  587MOL0     H79220  12.439   7.135   9.454  0.3003 -0.0848  0.0862
  587MOL0     H79221  12.459   7.139   9.155  0.1967 -1.4164  0.8612
  587MOL0     H79222  12.339   7.240   9.245  0.5064  2.8220 -3.1336
  587MOL0     H79223  12.636   7.232   9.262  0.0468  0.0801 -0.4032
  587MOL0     H79224  12.542   7.337   9.371  1.5682 -2.5511  1.4126
  587MOL0     H79225  12.558   7.351   9.059  2.4902 -0.9917  0.0399
  587MOL0     H79226  12.647   7.451   9.156  0.0552  1.1113 -0.1342
  587MOL0     H79227  11.942   7.370   9.522 -0.0369  1.8921 -0.0530
  587MOL0     H79228  11.785   7.517   9.456  1.6990  0.1997 -1.8409
  587MOL0     H79229  11.297   7.692   9.530 -1.8920 -1.0943 -0.6901
  587MOL0     H79230  11.148   7.857   9.434  0.1457 -0.4865  0.0625
  587MOL0     H79231   9.627   7.387   9.150 -0.3537  1.6454  1.9301
  587MOL0     H79232   9.415   7.300   9.028 -0.4280 -0.8651  1.0322
  587MOL0     H79233   9.135   7.262   8.820  1.6024  1.1644  3.1892
  587MOL0     H79234   8.954   7.110   8.772 -0.6819 -0.5833 -1.8349
  587MOL0     H79235   8.537   7.238   8.912 -0.3235  0.5139  0.0099
  587MOL0     H79236   8.549   7.286   8.738  0.1337  0.6717 -0.0463
  587MOL0     H79237   8.502   6.989   8.825 -1.2359  1.0990  3.2422
  587MOL0     H79238   8.458   7.067   8.668  0.7929  2.7573 -1.4062
  587MOL0     H79239   8.275   7.180   8.780 -0.6466  1.2090  1.5436
  587MOL0     H79240   8.347   7.155   8.935  2.0183  1.9657 -0.9984
  587MOL0     H79241   8.144   6.996   8.879  0.8270 -1.7442  3.2676
  587MOL0     H79242   8.295   6.906   8.907  0.6027 -0.4879 -1.0603
  587MOL0     H79243   8.196   6.783   8.526 -2.9896 -2.7253  2.2083
  587MOL0     H79244   8.670   7.428   8.845  0.2369  0.8471 -0.7359
  587MOL0     H79245   8.857   7.573   8.907  1.3172 -0.3747  2.0029
  588MOL0     O79246   5.409   4.443   0.077  0.6962 -0.1073  0.2688
  588MOL0     C79247   5.455   4.335   0.050  0.0614  0.2710  0.8433
  588MOL0     O79248   5.386   4.245  -0.035 -0.1401  0.1299 -0.4121
  588MOL0     C79249   5.248   4.278  -0.058 -0.5625  0.9842  0.3401
  588MOL0     C79250   5.223   4.373  -0.158  0.7703  0.7238 -0.7157
  588MOL0     C79251   5.085   4.396  -0.185  0.2122 -0.2736  0.6371
  588MOL0     C79252   4.983   4.333  -0.118 -0.5821 -0.8899  0.5355
  588MOL0     O79253   4.851   4.345  -0.161  0.4422  0.0838  0.6390
  588MOL0     C79254   4.752   4.370  -0.068  0.7289 -0.4272  0.7646
  588MOL0     C79255   4.609   4.344  -0.125  0.5636 -0.2854  0.0101
  588MOL0     C79256   4.576   4.432  -0.245  0.7228  0.1897  0.7637
  588MOL0     C79257   4.598   4.578  -0.222 -0.0477 -0.1294 -0.0996
  588MOL0     C79258   4.556   4.649  -0.354 -0.1292  0.4828  1.1231
  588MOL0     C79259   4.536   4.794  -0.331  0.5346  0.1330 -0.3074
  588MOL0     C79260   4.665   4.853  -0.269  0.2264  0.1469 -0.1434
  588MOL0     C79261   4.677   5.001  -0.289  0.3958  0.0082  1.2801
  588MOL0     N79262   4.797   5.063  -0.239 -0.1892 -0.2802 -0.2843
  588MOL0     C79263   4.871   5.018  -0.133  0.5097  0.1345 -0.9927
  588MOL0     C79264   4.993   5.090  -0.124  0.5534  0.1742 -0.9740
  588MOL0     C79265   5.103   5.086  -0.029  0.0134  1.2723  0.4455
  588MOL0     C79266   5.067   4.982   0.081  0.3293  0.2391 -0.4549
  588MOL0     C79267   5.140   5.014   0.210  0.2704  0.0550  0.2399
  588MOL0     C79268   5.089   4.929   0.327 -0.4433 -0.1308 -0.6293
  588MOL0     O79269   4.947   4.928   0.328  0.0674 -0.1949  0.1482
  588MOL0     C79270   4.879   4.866   0.428 -0.5090  0.1375 -0.3441
  588MOL0     C79271   4.764   4.924   0.476  0.6180  0.3872  0.1134
  588MOL0     C79272   4.679   4.851   0.569 -0.6454 -0.0907 -0.4334
  588MOL0     C79273   4.547   4.915   0.617  0.0156 -0.1748 -0.2010
  588MOL0     C79274   4.713   4.722   0.620 -1.1658  0.6925  0.5344
  588MOL0     C79275   4.647   4.632   0.716  0.5188 -0.6304 -0.4747
  588MOL0     O79276   4.723   4.515   0.762 -0.3261 -0.0166 -0.3226
  588MOL0     C79277   4.671   4.418   0.844 -0.9261 -1.6082  0.4560
  588MOL0     C79278   4.563   4.434   0.927  0.7587  0.0432  0.1044
  588MOL0     C79279   4.529   4.333   1.018 -0.1520 -0.2845 -0.1431
  588MOL0     C79280   4.616   4.225   1.036  0.3589 -0.2274  0.3842
  588MOL0     O79281   4.595   4.127   1.137 -0.5966  0.8721 -0.1776
  588MOL0     C79282   4.551   4.182   1.264  0.7406 -0.7623  1.4585
  588MOL0     C79283   4.571   4.094   1.379 -0.7107 -0.6299  0.1690
  588MOL0     C79284   4.487   4.134   1.491  0.0313 -0.1369 -0.6267
  588MOL0     C79285   4.538   4.053   1.615 -0.1013 -0.3216  0.0790
  588MOL0     C79286   4.439   4.054   1.731 -0.3600  0.0231 -0.0861
  588MOL0     C79287   4.461   3.937   1.831  0.4391  0.3061  0.6708
  588MOL0     C79288   4.364   3.935   1.947  0.4049  0.0175 -0.1774
  588MOL0     C79289   4.361   3.807   2.023  0.9575 -0.1867 -0.8593
  588MOL0    Cl79290   4.271   3.845   2.176 -0.2852  0.2581  0.4345
  588MOL0     C79291   4.719   4.209   0.940 -0.5774 -0.4672  0.0849
  588MOL0     C79292   4.747   4.308   0.843 -0.4453 -0.3175 -0.3228
  588MOL0     O79293   4.529   4.661   0.750  0.2400  0.7007  0.7294
  588MOL0     C79294   4.843   4.676   0.578 -1.0066 -0.5163 -0.6437
  588MOL0     C79295   4.919   4.746   0.487 -0.3889  0.3464 -0.4475
  588MOL0     N79296   4.985   5.166  -0.238  1.1699 -0.0693 -0.0802
  588MOL0     N79297   4.882   5.147  -0.300  1.2620 -0.5974  0.6008
  588MOL0     C79298   5.014   4.234  -0.030  0.0492  0.1083  0.9253
  588MOL0     C79299   5.143   4.209   0.003 -0.7212  0.1508  0.4384
  588MOL0     C79300   5.583   4.295   0.100  0.0408  1.1618  0.6040
  588MOL0     C79301   5.635   4.168   0.058  1.1461  0.0879 -0.4200
  588MOL0     C79302   5.740   4.115   0.120 -0.1097  0.5031  0.6883
  588MOL0     C79303   5.814   4.180   0.219 -1.2447 -0.0121 -0.0033
  588MOL0     O79304   5.925   4.131   0.285  0.5581 -0.5308  0.2202
  588MOL0     C79305   5.940   3.992   0.281 -0.5617  0.2402  0.3611
  588MOL0     C79306   6.034   3.941   0.392  0.8309  0.7470 -0.5191
  588MOL0     C79307   5.981   3.961   0.534 -0.0459 -0.0843  0.5263
  588MOL0     C79308   6.094   3.992   0.632  0.5970 -0.8225  0.1964
  588MOL0     C79309   6.166   3.864   0.661 -0.0792 -0.8683  0.7846
  588MOL0     C79310   6.236   3.765   0.667  0.4625 -1.0388 -0.2475
  588MOL0     C79311   5.771   4.307   0.260  0.1990 -0.4286 -1.1739
  588MOL0     C79312   5.651   4.361   0.200  0.2529 -0.1066 -0.2896
  588MOL0     H79313   5.301   4.428  -0.210  0.2452  1.2339 -0.9823
  588MOL0     H79314   5.056   4.472  -0.257  1.3620  1.1552  1.6278
  588MOL0     H79315   4.763   4.306   0.020 -1.6700 -2.0367 -0.0019
  588MOL0     H79316   4.759   4.474  -0.035 -1.5933 -0.0396  0.2039
  588MOL0     H79317   4.596   4.239  -0.153 -2.3606  0.2630 -1.0387
  588MOL0     H79318   4.529   4.366  -0.053 -0.0551  1.6975 -1.2281
  588MOL0     H79319   4.625   4.404  -0.339  0.3732  4.2992 -0.8621
  588MOL0     H79320   4.469   4.420  -0.265  1.5466 -5.4812 -2.0610
  588MOL0     H79321   4.546   4.618  -0.134 -2.9917  1.3047 -2.3594
  588MOL0     H79322   4.704   4.601  -0.202 -0.1758  0.3489  0.0517
  588MOL0     H79323   4.637   4.620  -0.422  0.3823  0.2601  1.8089
  588MOL0     H79324   4.468   4.593  -0.387  1.2426 -0.9505 -0.2710
  588MOL0     H79325   4.514   4.846  -0.425  0.3976 -1.1664 -1.0327
  588MOL0     H79326   4.448   4.811  -0.269 -0.3834  1.8040 -1.9433
  588MOL0     H79327   4.660   4.839  -0.161 -0.7552 -2.3724 -0.4389
  588MOL0     H79328   4.754   4.808  -0.313  0.0248  1.3924 -1.9553
  588MOL0     H79329   4.595   5.048  -0.235 -3.8898 -2.0319 -2.7609
  588MOL0     H79330   4.663   5.026  -0.395 -0.4700 -2.9596  0.6128
  588MOL0     H79331   4.843   4.933  -0.072 -0.1130  0.8855 -0.2187
  588MOL0     H79332   5.195   5.054  -0.080  0.5045  0.5912  1.7010
  588MOL0     H79333   5.126   5.183   0.015 -0.0112  2.3564 -1.7934
  588MOL0     H79334   5.093   4.881   0.046  0.4996 -0.6096  1.9161
  588MOL0     H79335   4.960   4.985   0.107 -0.3625  1.0827 -3.0841
  588MOL0     H79336   5.108   5.113   0.242  1.5253  0.0091  1.7422
  588MOL0     H79337   5.249   5.012   0.200  0.1757 -0.1698 -0.8909
  588MOL0     H79338   5.136   4.977   0.413  0.8949  1.2462 -2.0541
  588MOL0     H79339   5.117   4.825   0.307  1.0384  0.7295 -3.6608
  588MOL0     H79340   4.746   5.024   0.437  1.3991 -0.3618 -2.3481
  588MOL0     H79341   4.534   5.018   0.584  0.9090  0.2416  0.6826
  588MOL0     H79342   4.465   4.846   0.593 -2.2045  2.3144 -0.1550
  588MOL0     H79343   4.549   4.925   0.726 -2.5421 -0.0321 -0.0930
  588MOL0     H79344   4.498   4.521   0.928  0.9759  0.2068  1.2380
  588MOL0     H79345   4.449   4.360   1.086 -0.2274 -0.0451 -0.3249
  588MOL0     H79346   4.607   4.276   1.265 -0.5124  0.1120 -1.6012
  588MOL0     H79347   4.445   4.204   1.253  1.5898  3.6589  0.1434
  588MOL0     H79348   4.553   3.989   1.355  2.3747 -1.4635  1.1308
  588MOL0     H79349   4.678   4.099   1.399 -0.2617 -0.7127 -2.0030
  588MOL0     H79350   4.381   4.117   1.470 -0.0166  1.4265 -1.8783
  588MOL0     H79351   4.494   4.241   1.513  2.2189  0.2412 -2.6949
  588MOL0     H79352   4.566   3.950   1.590 -3.5585 -1.0546 -1.3553
  588MOL0     H79353   4.625   4.106   1.656 -0.9463  2.5507 -1.5776
  588MOL0     H79354   4.343   4.031   1.684  1.3785 -2.6938 -2.6805
  588MOL0     H79355   4.444   4.153   1.780 -2.8251 -0.9113  2.3460
  588MOL0     H79356   4.443   3.844   1.777 -4.4165  0.7836  0.9851
  588MOL0     H79357   4.561   3.954   1.870  1.2790 -1.5648 -0.5330
  588MOL0     H79358   4.259   3.961   1.930  0.5773  3.4328  2.7680
  588MOL0     H79359   4.394   4.017   2.013 -2.2514  0.9174  0.0534
  588MOL0     H79360   4.461   3.767   2.044  1.1112  0.2869 -0.6760
  588MOL0     H79361   4.305   3.724   1.980  0.3652  0.5626 -1.5639
  588MOL0     H79362   4.785   4.123   0.946 -1.8626 -1.5581 -0.8265
  588MOL0     H79363   4.833   4.295   0.778  0.0326  0.3303  0.1663
  588MOL0     H79364   4.893   4.585   0.611  0.1587  0.7176  1.2006
  588MOL0     H79365   5.006   4.694   0.448  1.4738  1.0227  2.5173
  588MOL0     H79366   4.923   4.192   0.011  0.1394 -0.4718  0.5483
  588MOL0     H79367   5.150   4.131   0.077  1.3390 -0.8137 -0.6736
  588MOL0     H79368   5.585   4.101  -0.012  0.7232  0.0977 -0.1261
  588MOL0     H79369   5.766   4.012   0.094  0.4191  0.2314  2.1866
  588MOL0     H79370   5.848   3.932   0.281  0.3437 -1.3399 -2.5611
  588MOL0     H79371   5.996   3.966   0.191 -1.6823 -0.0895 -0.2654
  588MOL0     H79372   6.126   4.000   0.382  1.5804 -0.3635 -0.3177
  588MOL0     H79373   6.046   3.834   0.374  1.8595  0.5302  1.2426
  588MOL0     H79374   5.924   3.872   0.565 -2.2045  0.7950 -0.6786
  588MOL0     H79375   5.917   4.050   0.539 -0.4878 -0.3640 -0.0616
  588MOL0     H79376   6.046   4.016   0.727 -0.2165  1.2474 -0.6868
  588MOL0     H79377   6.158   4.074   0.599  2.1993 -1.5501  1.3212
  588MOL0     H79378   6.313   3.691   0.667  1.2354 -0.2537  0.3280
  588MOL0     H79379   5.831   4.355   0.335 -0.7330  1.6441 -1.6909
  588MOL0     H79380   5.606   4.457   0.223 -3.0773 -1.1830 -1.6021
  589MOL0     O79381  10.420  10.457   4.311 -0.5604 -0.1260 -0.7524
  589MOL0     C79382  10.480  10.402   4.403 -0.5207 -0.8215  0.4626
  589MOL0     O79383  10.452  10.399   4.538 -0.2398 -0.1629  0.3405
  589MOL0     C79384  10.352  10.474   4.583  0.6332  0.1177  0.0787
  589MOL0     C79385  10.220  10.436   4.569  0.9376 -0.7591  0.0519
  589MOL0     C79386  10.120  10.517   4.636 -0.8188 -0.3773  0.7227
  589MOL0     C79387  10.156  10.627   4.717 -0.1259  0.4467 -0.0674
  589MOL0     O79388  10.075  10.697   4.797 -0.7029 -0.3331  0.1604
  589MOL0     C79389   9.939  10.701   4.765  0.0752  0.4651 -0.0810
  589MOL0     C79390   9.911  10.780   4.629  0.4180  1.2395  0.1947
  589MOL0     C79391   9.970  10.924   4.631  0.0800 -0.4075  0.1099
  589MOL0     C79392   9.923  11.009   4.511 -0.2537  0.0894 -0.3826
  589MOL0     C79393   9.985  11.142   4.506  0.1707 -0.2327  0.5575
  589MOL0     C79394  10.111  11.142   4.424  0.9080 -1.0738 -0.1396
  589MOL0     C79395  10.233  11.055   4.469  0.7928  0.0256 -0.4516
  589MOL0     C79396  10.344  11.092   4.381  0.0279  0.1065 -0.0475
  589MOL0     N79397  10.456  10.991   4.391  0.5581 -0.3820 -0.0862
  589MOL0     C79398  10.499  10.899   4.298  0.7497 -0.0021  0.3026
  589MOL0     C79399  10.610  10.845   4.345  0.2671 -1.0912  0.0769
  589MOL0     C79400  10.697  10.734   4.286 -0.1218 -0.1043 -0.2835
  589MOL0     C79401  10.849  10.740   4.307  0.4529 -0.0046 -0.8748
  589MOL0     C79402  10.900  10.875   4.240  0.7846  0.9147  0.0980
  589MOL0     C79403  11.048  10.876   4.227  0.5956  0.3750  0.2917
  589MOL0     O79404  11.087  10.988   4.147 -1.0075  0.2350 -1.1050
  589MOL0     C79405  11.206  10.990   4.077  0.4447  0.9550 -0.5537
  589MOL0     C79406  11.318  10.933   4.125  0.7491  0.0056  0.1908
  589MOL0     C79407  11.438  10.931   4.061 -0.3895  0.6018  0.9383
  589MOL0     C79408  11.553  10.878   4.141  1.4194 -0.3542  0.6707
  589MOL0     C79409  11.449  10.998   3.935 -0.1495 -0.5669  0.0148
  589MOL0     C79410  11.569  11.000   3.843  0.6081  0.5468  0.2360
  589MOL0     O79411  11.689  10.954   3.891 -0.6010  0.7683 -0.1733
  589MOL0     C79412  11.810  10.991   3.834 -0.1355  0.1868 -1.0582
  589MOL0     C79413  11.840  11.116   3.776 -0.0829  0.1471  0.6791
  589MOL0     C79414  11.965  11.143   3.719  0.6789  0.3698 -0.0200
  589MOL0     C79415  12.059  11.039   3.713 -0.2687  0.4671 -0.6063
  589MOL0     O79416  12.184  11.041   3.654 -0.2675 -0.0755 -0.4187
  589MOL0     C79417  12.252  11.168   3.638  0.6510 -0.4223 -0.6419
  589MOL0     C79418  12.373  11.162   3.541 -0.6728 -0.0042  0.2403
  589MOL0     C79419  12.462  11.047   3.543 -0.5220  0.1784  0.3431
  589MOL0     C79420  12.575  11.064   3.446  1.0580  0.2011  0.0249
  589MOL0     C79421  12.687  10.962   3.480  0.0639 -1.0986 -0.2650
  589MOL0     C79422  12.819  10.960   3.400 -0.5563 -0.3014  0.3209
  589MOL0     C79423  12.928  10.867   3.442  0.0254  0.1581 -0.0853
  589MOL0     C79424  13.016  10.829   3.328 -0.4078 -0.4558  0.1069
  589MOL0    Cl79425  13.135  10.726   3.391  0.1496  0.3531 -0.7559
  589MOL0     C79426  12.025  10.913   3.770 -0.0091 -1.2294  0.4213
  589MOL0     C79427  11.908  10.886   3.839  0.5054  0.0828  0.2736
  589MOL0     O79428  11.558  11.069   3.745 -0.8811 -0.1739  0.5671
  589MOL0     C79429  11.330  11.067   3.893 -0.7222 -0.5593  0.0708
  589MOL0     C79430  11.220  11.072   3.961  0.7315  0.3451 -0.8304
  589MOL0     N79431  10.634  10.909   4.470 -0.1937  0.5737  0.3862
  589MOL0     N79432  10.547  10.996   4.491 -0.3718  0.0928  0.5325
  589MOL0     C79433  10.288  10.655   4.730 -0.1288 -0.2779 -0.3277
  589MOL0     C79434  10.390  10.580   4.666  0.2071  0.3120  0.6457
  589MOL0     C79435  10.599  10.333   4.352 -0.7058 -0.8843  0.4649
  589MOL0     C79436  10.716  10.343   4.435 -0.6869 -0.4900  0.5235
  589MOL0     C79437  10.835  10.270   4.417 -0.6467 -0.5700 -0.0819
  589MOL0     C79438  10.831  10.177   4.311  0.0628 -0.0353  0.4358
  589MOL0     O79439  10.943  10.109   4.289 -0.6705  0.3539  0.2466
  589MOL0     C79440  10.925   9.978   4.223 -0.6161  0.5466  0.4323
  589MOL0     C79441  11.050   9.889   4.254 -0.0894  0.2400  0.6049
  589MOL0     C79442  11.179   9.941   4.177 -1.0642 -0.4556  0.1146
  589MOL0     C79443  11.289   9.843   4.206 -0.6620 -0.5896  1.0046
  589MOL0     C79444  11.357   9.874   4.329  0.1974 -0.4587  0.6719
  589MOL0     C79445  11.387   9.897   4.441  0.1315 -0.0493  0.4797
  589MOL0     C79446  10.723  10.168   4.228  0.2964 -0.2511  0.5257
  589MOL0     C79447  10.601  10.243   4.245 -0.2515 -0.2949  0.1150
  589MOL0     H79448  10.205  10.347   4.509  1.1765 -1.9907  1.7425
  589MOL0     H79449  10.017  10.493   4.612 -2.5024  1.9696  4.5650
  589MOL0     H79450   9.896  10.601   4.759  0.0709  0.4513  0.1545
  589MOL0     H79451   9.885  10.756   4.843  1.7074 -1.6406  2.7701
  589MOL0     H79452   9.942  10.725   4.539  0.5465  1.3625  0.1634
  589MOL0     H79453   9.801  10.782   4.629  0.2465 -0.5585  3.5994
  589MOL0     H79454   9.933  10.966   4.724  0.3449 -1.9646  0.9585
  589MOL0     H79455  10.078  10.913   4.644  0.6249  2.2344 -1.3374
  589MOL0     H79456   9.951  10.951   4.423  1.5026  0.6297 -0.2148
  589MOL0     H79457   9.814  11.017   4.507 -0.3292 -0.0358  1.1707
  589MOL0     H79458   9.912  11.212   4.462 -0.1206 -0.9871 -0.1953
  589MOL0     H79459  10.008  11.166   4.610  0.5977 -1.0839  0.6682
  589MOL0     H79460  10.086  11.120   4.320  0.9627  0.0634 -0.3982
  589MOL0     H79461  10.133  11.249   4.421 -1.5698 -0.5371 -2.1844
  589MOL0     H79462  10.258  11.081   4.572 -3.6138 -0.1522  0.8544
  589MOL0     H79463  10.214  10.948   4.463  2.9996 -0.4336 -0.4182
  589MOL0     H79464  10.379  11.189   4.415 -1.1368  1.2690 -1.9689
  589MOL0     H79465  10.313  11.113   4.278  3.5428  1.8459 -0.9102
  589MOL0     H79466  10.449  10.870   4.206 -1.5019 -3.2874  2.3302
  589MOL0     H79467  10.657  10.645   4.336  1.8820 -0.0795  1.5152
  589MOL0     H79468  10.678  10.743   4.179 -0.5488  1.1378 -0.1162
  589MOL0     H79469  10.898  10.655   4.259  0.0905 -0.6055 -0.2090
  589MOL0     H79470  10.872  10.736   4.414  0.6462  4.5996 -0.5775
  589MOL0     H79471  10.863  10.966   4.288 -1.4738  1.1353 -1.8987
  589MOL0     H79472  10.859  10.881   4.139  1.3956  2.2127 -0.0886
  589MOL0     H79473  11.070  10.788   4.166 -1.3133 -1.3064  1.8872
  589MOL0     H79474  11.092  10.862   4.326  1.5660  0.9474 -0.0364
  589MOL0     H79475  11.313  10.884   4.222  1.7561  1.7179  1.1550
  589MOL0     H79476  11.634  10.950   4.155  2.7082 -1.6209  0.0094
  589MOL0     H79477  11.527  10.827   4.233 -0.4664  0.0130  0.3848
  589MOL0     H79478  11.585  10.798   4.073 -0.8781 -0.2219 -0.6687
  589MOL0     H79479  11.756  11.184   3.763 -1.7921 -2.0191 -0.2822
  589MOL0     H79480  11.988  11.245   3.691  2.4673  1.0155  3.3506
  589MOL0     H79481  12.183  11.242   3.598 -1.6920 -1.5774  1.0713
  589MOL0     H79482  12.289  11.211   3.731 -2.6829  0.8480  0.1994
  589MOL0     H79483  12.327  11.165   3.442  2.1906 -0.0403 -1.1924
  589MOL0     H79484  12.428  11.255   3.562 -1.6257  0.1141  2.4603
  589MOL0     H79485  12.416  10.953   3.513  1.6551 -0.3381 -1.7013
  589MOL0     H79486  12.500  11.025   3.643 -2.0759 -2.4437  0.4429
  589MOL0     H79487  12.538  11.031   3.348  2.5911 -0.1106 -0.4802
  589MOL0     H79488  12.614  11.166   3.442  1.5455  0.0028 -2.8573
  589MOL0     H79489  12.648  10.863   3.454 -3.1244 -0.0918  0.2539
  589MOL0     H79490  12.709  10.970   3.587 -1.7647 -0.7139  0.1282
  589MOL0     H79491  12.806  10.949   3.291 -0.0527 -1.8479  0.3914
  589MOL0     H79492  12.852  11.063   3.417 -0.9203 -0.4222  1.8486
  589MOL0     H79493  12.874  10.776   3.470  1.0007 -1.0095 -1.7912
  589MOL0     H79494  12.979  10.914   3.526 -3.5145 -1.4604  3.2738
  589MOL0     H79495  13.047  10.910   3.261 -0.6345 -1.3443 -1.0888
  589MOL0     H79496  12.961  10.767   3.257  0.3647  0.9593 -1.8057
  589MOL0     H79497  12.109  10.844   3.773  0.1144 -1.0800  0.3767
  589MOL0     H79498  11.878  10.793   3.886  0.1585  0.8674  1.6356
  589MOL0     H79499  11.324  11.119   3.797 -1.1049  0.0383  0.4079
  589MOL0     H79500  11.125  11.117   3.934 -0.5080 -0.5646  1.7159
  589MOL0     H79501  10.317  10.736   4.796 -0.9722 -0.4245  0.2381
  589MOL0     H79502  10.493  10.610   4.684  1.5306 -1.3097 -3.1533
  589MOL0     H79503  10.716  10.421   4.511  3.0008 -0.6715  0.8931
  589MOL0     H79504  10.930  10.281   4.468 -1.6774 -2.0379  2.2997
  589MOL0     H79505  10.832   9.937   4.265  1.0494 -4.4048 -0.0440
  589MOL0     H79506  10.896   9.978   4.118 -3.2323 -4.3784  0.8859
  589MOL0     H79507  11.030   9.786   4.224  1.9391 -1.4712  4.4493
  589MOL0     H79508  11.066   9.879   4.361 -2.4553 -4.1317  0.7937
  589MOL0     H79509  11.196  10.048   4.198  1.1278  0.3959 -4.7381
  589MOL0     H79510  11.173   9.927   4.069  2.7821  2.7159 -0.7681
  589MOL0     H79511  11.369   9.850   4.132 -0.9300  1.0746  0.8345
  589MOL0     H79512  11.256   9.739   4.201  1.1465 -1.1910  0.9188
  589MOL0     H79513  11.400   9.923   4.545  1.7705  0.1000  0.2716
  589MOL0     H79514  10.726  10.115   4.133 -0.2321  2.2897 -1.0139
  589MOL0     H79515  10.524  10.242   4.168  1.7256  1.0805 -2.0061
  590MOL0     O79516   3.041  11.338  10.756  0.7031 -0.2295 -0.0444
  590MOL0     C79517   3.030  11.371  10.643 -0.9522  1.1677 -0.1528
  590MOL0     O79518   2.929  11.326  10.558 -0.3778 -0.6389  0.7958
  590MOL0     C79519   2.840  11.222  10.583  0.2014 -0.7175 -0.7812
  590MOL0     C79520   2.726  11.209  10.502  0.3877  0.1353 -1.4329
  590MOL0     C79521   2.628  11.113  10.526 -1.0636  0.2858  0.2966
  590MOL0     C79522   2.650  11.016  10.620  0.5598  0.0837 -1.0488
  590MOL0     O79523   2.562  10.912  10.649  0.2273  0.0194  0.2999
  590MOL0     C79524   2.449  10.891  10.556  0.0197  0.3883 -0.2063
  590MOL0     C79525   2.365  10.778  10.624 -0.1044  0.2681  0.7390
  590MOL0     C79526   2.214  10.778  10.590  0.3074 -0.3829  0.1266
  590MOL0     C79527   2.126  10.855  10.696 -0.1962  0.6751 -0.2626
  590MOL0     C79528   1.979  10.840  10.660  0.0338  0.1522  0.0330
  590MOL0     C79529   1.910  10.712  10.723 -0.1838 -0.1843  0.3904
  590MOL0     C79530   1.759  10.719  10.704  0.5401  0.0958 -0.4587
  590MOL0     C79531   1.676  10.598  10.777  1.1872 -1.0688  0.3584
  590MOL0     N79532   1.527  10.635  10.808  0.3621  0.3059  0.7621
  590MOL0     C79533   1.428  10.629  10.713 -0.1358 -0.3339 -0.1105
  590MOL0     C79534   1.320  10.676  10.778 -0.0617 -0.3793 -0.2980
  590MOL0     C79535   1.180  10.678  10.716  0.4754  0.3019 -0.6493
  590MOL0     C79536   1.108  10.819  10.747  0.4014  0.7091  0.5042
  590MOL0     C79537   0.966  10.830  10.681 -0.7016  0.5552  0.2908
  590MOL0     C79538   0.861  10.735  10.751 -0.0792 -0.6953  0.0581
  590MOL0     O79539   0.725  10.775  10.711  0.3376  0.3482  0.2107
  590MOL0     C79540   0.658  10.865  10.788  0.4416 -0.4671  0.6521
  590MOL0     C79541   0.553  10.928  10.729  0.1386  0.4232  0.1815
  590MOL0     C79542   0.479  11.028  10.784 -0.0912 -0.6337  0.4398
  590MOL0     C79543   0.374  11.099  10.702  0.6326 -0.4225  0.6873
  590MOL0     C79544   0.513  11.073  10.916  0.4346 -0.1095 -0.6687
  590MOL0     C79545   0.438  11.172  10.993 -0.3513 -0.7674 -0.3004
  590MOL0     O79546   0.432  11.144  11.127  0.5963 -0.8045 -0.1763
  590MOL0     C79547   0.350  11.212  11.215  0.2983  0.0518  0.3334
  590MOL0     C79548   0.238  11.297  11.175  0.8614 -0.4002 -0.1525
  590MOL0     C79549   0.158  11.367  11.266 -0.2921 -0.6492 -0.8650
  590MOL0     C79550   0.194  11.354  11.406 -0.2352 -0.2034  0.2136
  590MOL0     O79551   0.125  11.436  11.496 -0.0205 -0.3194 -0.0513
  590MOL0     C79552   0.115  11.577  11.466  1.0632 -0.1674  0.0884
  590MOL0     C79553   0.062  11.670  11.579  0.0728 -0.1514  0.3736
  590MOL0     C79554  -0.078  11.707  11.564  0.9126 -0.4113  0.0232
  590MOL0     C79555  -0.083  11.856  11.495  0.1522 -0.3648  0.6717
  590MOL0     C79556  -0.219  11.916  11.482  0.3706  0.0167  0.4162
  590MOL0     C79557  -0.313  11.816  11.408 -0.2267 -0.1990  0.3553
  590MOL0     C79558  -0.446  11.884  11.372 -0.5003  1.1133 -0.3377
  590MOL0     C79559  -0.545  11.779  11.314 -0.5157  0.2151  0.4471
  590MOL0    Cl79560  -0.644  11.684  11.443  0.1999  0.0250  0.3880
  590MOL0     C79561   0.296  11.268  11.446  0.5736  0.5240  0.3705
  590MOL0     C79562   0.370  11.203  11.358 -0.0547  1.1468 -0.8308
  590MOL0     O79563   0.397  11.273  10.940  0.4133  0.2084  0.6014
  590MOL0     C79564   0.620  11.005  10.977  0.0264 -0.4753 -0.4206
  590MOL0     C79565   0.696  10.909  10.918 -0.6135  0.5922 -0.0720
  590MOL0     N79566   1.349  10.703  10.911 -0.3066  0.7716 -0.4240
  590MOL0     N79567   1.476  10.683  10.927  0.2593 -0.4694  0.2095
  590MOL0     C79568   2.778  11.011  10.684 -0.2640  0.1877 -0.5040
  590MOL0     C79569   2.868  11.114  10.663  0.1553 -0.3092 -0.6867
  590MOL0     C79570   3.137  11.466  10.576 -0.2015 -0.0572  0.2566
  590MOL0     C79571   3.225  11.534  10.662 -0.3550  0.6333 -0.1026
  590MOL0     C79572   3.312  11.633  10.612  0.7636  0.7124  0.8477
  590MOL0     C79573   3.327  11.641  10.471 -0.3113 -0.0867 -0.0622
  590MOL0     O79574   3.438  11.708  10.420  0.9820 -0.1132  0.7294
  590MOL0     C79575   3.421  11.766  10.292 -0.0055  0.4581  0.0389
  590MOL0     C79576   3.522  11.878  10.270  0.4052  0.4854 -0.2748
  590MOL0     C79577   3.543  11.909  10.117 -0.5914 -0.3085 -0.1613
  590MOL0     C79578   3.419  11.960  10.042 -0.6757 -0.9059 -0.5025
  590MOL0     C79579   3.356  12.077  10.097  0.2021  1.2987  0.9626
  590MOL0     C79580   3.307  12.174  10.148 -0.5148 -0.0399  0.0067
  590MOL0     C79581   3.239  11.569  10.386 -0.5606  0.1767 -0.2222
  590MOL0     C79582   3.139  11.484  10.431 -0.3614 -0.1492  0.4428
  590MOL0     H79583   2.716  11.282  10.422  0.3708  0.9998 -0.6647
  590MOL0     H79584   2.537  11.111  10.467 -1.2475 -5.2373  0.2219
  590MOL0     H79585   2.390  10.982  10.548  1.9999  2.1565  2.9377
  590MOL0     H79586   2.491  10.871  10.457 -1.4578  2.5916 -1.3417
  590MOL0     H79587   2.408  10.685  10.584  0.2727 -0.2250  2.2115
  590MOL0     H79588   2.384  10.772  10.732  4.0601 -2.0756  0.0846
  590MOL0     H79589   2.203  10.832  10.496 -1.1636  0.7121  0.8690
  590MOL0     H79590   2.176  10.676  10.583  0.6914 -0.5128 -0.0284
  590MOL0     H79591   2.142  10.811  10.795 -2.3536  0.8346  0.2098
  590MOL0     H79592   2.154  10.961  10.699 -0.6476  0.7816  0.5284
  590MOL0     H79593   1.919  10.926  10.692 -2.8648 -1.4738 -0.7209
  590MOL0     H79594   1.985  10.843  10.551  4.8291  2.4146  0.1140
  590MOL0     H79595   1.944  10.615  10.684 -0.1798  0.1224 -0.3895
  590MOL0     H79596   1.939  10.698  10.827  0.8630  1.3830  0.3399
  590MOL0     H79597   1.718  10.804  10.759  0.2796 -2.6864  4.1870
  590MOL0     H79598   1.725  10.716  10.600  1.3980 -2.9262 -0.7557
  590MOL0     H79599   1.727  10.584  10.873  0.8114 -1.7783  0.4557
  590MOL0     H79600   1.681  10.509  10.714 -0.5193 -1.2229  0.4051
  590MOL0     H79601   1.440  10.589  10.612 -3.9603 -2.4172  0.0851
  590MOL0     H79602   1.177  10.660  10.608  0.1165 -1.1939 -0.4115
  590MOL0     H79603   1.128  10.600  10.772 -0.4576  1.0468 -0.4552
  590MOL0     H79604   1.166  10.904  10.709 -3.3229  2.2285 -2.4336
  590MOL0     H79605   1.088  10.827  10.854  1.6836  1.1582  0.7342
  590MOL0     H79606   0.975  10.803  10.575 -1.4386 -3.7889  1.1367
  590MOL0     H79607   0.927  10.931  10.693 -1.2534  0.6589 -1.9295
  590MOL0     H79608   0.877  10.743  10.859 -1.3047 -2.4247  0.4193
  590MOL0     H79609   0.890  10.634  10.721  1.3890 -0.5541  0.8618
  590MOL0     H79610   0.534  10.904  10.625 -0.0387 -2.2866  0.7663
  590MOL0     H79611   0.419  11.192  10.667 -2.3231  1.2287  0.9203
  590MOL0     H79612   0.352  11.036  10.616  1.6309  2.9025 -2.2344
  590MOL0     H79613   0.285  11.120  10.761 -0.0206  0.0145 -0.4175
  590MOL0     H79614   0.205  11.313  11.073 -1.6819  0.0934  0.6755
  590MOL0     H79615   0.077  11.431  11.232  0.0427  0.4820  0.3807
  590MOL0     H79616   0.209  11.618  11.428 -0.0492  1.1618 -1.4073
  590MOL0     H79617   0.052  11.585  11.377  2.6549 -0.4378 -1.0960
  590MOL0     H79618   0.083  11.622  11.675 -0.3825 -3.6185 -1.1243
  590MOL0     H79619   0.113  11.767  11.576 -0.2295 -0.0131 -1.9304
  590MOL0     H79620  -0.127  11.721  11.660  0.1401  2.4956 -0.7070
  590MOL0     H79621  -0.138  11.631  11.512 -3.5179  1.4250  1.9103
  590MOL0     H79622  -0.023  11.924  11.555  0.6755 -1.3448  1.2763
  590MOL0     H79623  -0.038  11.824  11.400  0.8308 -2.3068  1.5961
  590MOL0     H79624  -0.216  12.003  11.415 -2.8846 -1.3692 -1.8047
  590MOL0     H79625  -0.265  11.941  11.578 -1.3283  2.1881 -0.8621
  590MOL0     H79626  -0.261  11.786  11.317 -0.7874 -0.7777  0.2214
  590MOL0     H79627  -0.345  11.726  11.462 -2.5521  1.4576  1.9519
  590MOL0     H79628  -0.430  11.962  11.297  1.4908  2.3693  1.2625
  590MOL0     H79629  -0.487  11.931  11.462 -0.0077 -0.4567  0.7600
  590MOL0     H79630  -0.494  11.700  11.259 -0.9777 -0.7558  1.3714
  590MOL0     H79631  -0.608  11.839  11.247 -1.3105 -1.3979 -0.3163
  590MOL0     H79632   0.314  11.256  11.553 -0.6083 -1.1046  0.4355
  590MOL0     H79633   0.459  11.146  11.383 -0.8936 -1.9608 -4.0079
  590MOL0     H79634   0.644  11.039  11.077 -1.3410  2.7050 -1.0454
  590MOL0     H79635   0.767  10.865  10.987  0.7210 -2.4011 -3.0797
  590MOL0     H79636   2.809  10.934  10.754  1.0475 -1.7094 -3.0024
  590MOL0     H79637   2.974  11.110  10.688 -0.1868 -3.2830  0.6550
  590MOL0     H79638   3.227  11.515  10.769 -3.2308  0.8950  0.0712
  590MOL0     H79639   3.386  11.674  10.680  2.1934 -1.9382  1.0590
  590MOL0     H79640   3.435  11.689  10.216  0.3116  2.3564 -1.8969
  590MOL0     H79641   3.323  11.814  10.279 -0.4749 -0.7442 -1.0626
  590MOL0     H79642   3.612  11.837  10.317 -0.6475 -1.2543  0.2856
  590MOL0     H79643   3.491  11.964  10.330 -0.4632  0.5073 -0.7400
  590MOL0     H79644   3.597  11.827  10.069 -0.8235 -1.1116  0.9152
  590MOL0     H79645   3.608  11.996  10.105  0.5253 -1.4275 -3.0066
  590MOL0     H79646   3.344  11.881  10.032  0.2040 -1.5817 -2.1991
  590MOL0     H79647   3.450  11.975   9.938  0.3481  0.6780 -0.0033
  590MOL0     H79648   3.261  12.247  10.211 -0.3865 -0.2285  0.3191
  590MOL0     H79649   3.265  11.576  10.281  1.7017  0.4849  0.3073
  590MOL0     H79650   3.080  11.413  10.374 -0.7676  0.6009 -0.0911
  591MOL0     O79651   4.209   2.851   8.006  0.2035 -0.2844  0.1233
  591MOL0     C79652   4.204   2.740   8.067  0.3756 -1.1537  0.1208
  591MOL0     O79653   4.297   2.692   8.160  0.1345 -0.1833  0.6451
  591MOL0     C79654   4.421   2.758   8.194  1.1079  0.1323 -0.4617
  591MOL0     C79655   4.540   2.728   8.118 -0.1847  0.7904  0.1795
  591MOL0     C79656   4.668   2.764   8.168  0.3509  0.8762  0.5370
  591MOL0     C79657   4.678   2.847   8.286  0.0839 -0.1732  0.8359
  591MOL0     O79658   4.795   2.869   8.348 -0.2664  0.6798 -0.0315
  591MOL0     C79659   4.838   2.749   8.426  0.2266  0.0148 -0.1233
  591MOL0     C79660   4.772   2.737   8.567  0.2514 -0.8118  0.6231
  591MOL0     C79661   4.794   2.868   8.653 -0.8671 -0.0237 -0.5150
  591MOL0     C79662   4.695   2.868   8.767 -0.1899  0.5115  0.2455
  591MOL0     C79663   4.702   2.992   8.856 -0.3301  0.0607 -0.4391
  591MOL0     C79664   4.622   2.981   8.992 -0.1624 -0.1861 -0.5717
  591MOL0     C79665   4.668   3.088   9.087  0.3715 -0.4351  0.2325
  591MOL0     C79666   4.585   3.064   9.213 -0.6337 -0.1003 -0.0982
  591MOL0     N79667   4.624   3.162   9.317  1.4032 -0.5608 -0.3546
  591MOL0     C79668   4.585   3.297   9.300 -0.2257 -0.3424 -0.4998
  591MOL0     C79669   4.650   3.358   9.405 -0.9836  0.8304 -0.5537
  591MOL0     C79670   4.596   3.496   9.447 -0.0481  0.2813  0.7744
  591MOL0     C79671   4.690   3.616   9.408  0.2414 -1.0095  0.4008
  591MOL0     C79672   4.803   3.644   9.500  0.0631 -0.5765 -0.2737
  591MOL0     C79673   4.872   3.780   9.451  0.1371  0.1002 -0.4595
  591MOL0     O79674   4.987   3.811   9.530  0.0105 -0.1704  0.2302
  591MOL0     C79675   5.071   3.915   9.476  0.8191  0.3327  0.3679
  591MOL0     C79676   5.032   4.028   9.400  0.2586 -0.1732  0.1632
  591MOL0     C79677   5.122   4.125   9.354 -0.0194  0.3373  0.2391
  591MOL0     C79678   5.074   4.232   9.265 -0.1428  0.0360  0.7832
  591MOL0     C79679   5.259   4.115   9.404 -1.2404 -0.3514 -0.3683
  591MOL0     C79680   5.374   4.197   9.353  0.0079 -0.1392  0.2826
  591MOL0     O79681   5.375   4.328   9.383 -0.0255  0.4319  0.7806
  591MOL0     C79682   5.482   4.405   9.353 -0.4120  1.0190 -0.2846
  591MOL0     C79683   5.572   4.443   9.464  0.3556 -0.6480 -1.1323
  591MOL0     C79684   5.679   4.527   9.438  0.6201 -0.3383 -0.2294
  591MOL0     C79685   5.705   4.577   9.313 -0.9776 -0.1217 -0.1485
  591MOL0     O79686   5.823   4.642   9.283 -0.4608  0.1208  0.1305
  591MOL0     C79687   5.938   4.613   9.353 -0.6971 -0.0403 -0.7382
  591MOL0     C79688   6.044   4.697   9.282 -0.2628 -0.7950  0.1829
  591MOL0     C79689   6.164   4.731   9.379  1.1987  0.3581  0.6454
  591MOL0     C79690   6.275   4.637   9.366 -0.3323  0.3645 -0.5388
  591MOL0     C79691   6.401   4.681   9.444  0.3886 -0.1742 -0.0990
  591MOL0     C79692   6.454   4.826   9.401  0.0155 -0.1575 -0.6732
  591MOL0     C79693   6.598   4.822   9.437 -0.4045 -0.3966  0.3995
  591MOL0     C79694   6.673   4.949   9.400 -0.0537 -0.4815  0.0967
  591MOL0    Cl79695   6.626   5.076   9.510  0.5814 -0.4441  0.4208
  591MOL0     C79696   5.619   4.545   9.209  0.6580  0.8854 -0.5233
  591MOL0     C79697   5.504   4.464   9.231  0.1353  0.7515  0.1999
  591MOL0     O79698   5.462   4.134   9.294  0.6462  0.4379 -0.0345
  591MOL0     C79699   5.291   4.010   9.485 -0.0973  0.2726 -0.0835
  591MOL0     C79700   5.203   3.904   9.514 -0.5506  0.4473 -0.1196
  591MOL0     N79701   4.735   3.269   9.466 -0.4263 -0.7927  0.1841
  591MOL0     N79702   4.720   3.149   9.415 -0.1354 -0.1579 -0.1488
  591MOL0     C79703   4.564   2.875   8.353 -0.4156 -0.7932 -0.4437
  591MOL0     C79704   4.433   2.827   8.317 -0.9381  0.2512  0.1124
  591MOL0     C79705   4.090   2.652   8.031 -0.5798 -0.2042 -0.4914
  591MOL0     C79706   3.988   2.685   7.940 -0.2320 -0.1447  0.7851
  591MOL0     C79707   3.890   2.601   7.905  1.1426  1.2099 -0.8562
  591MOL0     C79708   3.877   2.469   7.970  0.2625 -0.6012 -0.5740
  591MOL0     O79709   3.785   2.368   7.936  0.4862  0.5016  0.5840
  591MOL0     C79710   3.681   2.406   7.850  0.5710 -0.0339  0.0603
  591MOL0     C79711   3.596   2.279   7.806 -0.1824 -0.5578 -0.6271
  591MOL0     C79712   3.456   2.313   7.748  0.3365  0.0975  0.7636
  591MOL0     C79713   3.475   2.421   7.642 -0.2773  0.5086 -0.6425
  591MOL0     C79714   3.357   2.463   7.576 -0.4105 -0.4448  0.5217
  591MOL0     C79715   3.264   2.488   7.503 -0.0644  0.2683 -1.2011
  591MOL0     C79716   3.968   2.438   8.070 -0.7088  0.1874 -0.1239
  591MOL0     C79717   4.085   2.520   8.091 -0.2220 -0.1606 -0.3511
  591MOL0     H79718   4.541   2.668   8.028  0.6811  1.4415 -0.2528
  591MOL0     H79719   4.757   2.728   8.117 -0.7525  1.6280 -2.0913
  591MOL0     H79720   4.833   2.655   8.371  0.2698 -0.1415  0.1390
  591MOL0     H79721   4.946   2.763   8.437  0.2237  0.3454 -0.4802
  591MOL0     H79722   4.667   2.706   8.560  0.3323 -0.8428 -0.6526
  591MOL0     H79723   4.817   2.648   8.613 -0.3704 -1.0606  0.7723
  591MOL0     H79724   4.897   2.866   8.690  0.2263  0.2421 -3.2881
  591MOL0     H79725   4.775   2.963   8.602 -0.8669  0.2592  0.0101
  591MOL0     H79726   4.602   2.858   8.710 -0.9163  1.5727  1.2072
  591MOL0     H79727   4.703   2.779   8.829  1.8336  0.5115  0.0434
  591MOL0     H79728   4.807   3.011   8.880 -0.4278  2.3695 -1.5865
  591MOL0     H79729   4.667   3.075   8.794  0.3161  3.5510  3.4066
  591MOL0     H79730   4.517   2.981   8.961 -0.5095  2.4154  0.4132
  591MOL0     H79731   4.642   2.886   9.043 -0.1871 -0.0017 -0.2186
  591MOL0     H79732   4.773   3.085   9.115 -0.0746 -3.8825  1.9739
  591MOL0     H79733   4.633   3.178   9.036  0.9430 -1.0955 -1.3992
  591MOL0     H79734   4.617   2.970   9.260  0.6044  0.4352  0.1516
  591MOL0     H79735   4.477   3.069   9.197 -1.0591 -1.5343  1.8587
  591MOL0     H79736   4.510   3.354   9.246 -0.5410  2.2329  2.3535
  591MOL0     H79737   4.498   3.506   9.401  0.3209 -1.1428 -0.4030
  591MOL0     H79738   4.583   3.501   9.556 -2.6202  0.4695  0.5149
  591MOL0     H79739   4.625   3.705   9.410  2.2549  1.0169 -5.0505
  591MOL0     H79740   4.727   3.606   9.306 -2.2132 -0.0875 -0.6644
  591MOL0     H79741   4.875   3.562   9.490  1.0673  0.1821  0.5002
  591MOL0     H79742   4.763   3.660   9.601  2.2050 -0.6463  0.6338
  591MOL0     H79743   4.808   3.868   9.461  1.7992  1.1304  2.2181
  591MOL0     H79744   4.910   3.767   9.349  2.2603  2.0789 -0.0050
  591MOL0     H79745   4.929   4.035   9.365 -0.0219  2.3430  1.2612
  591MOL0     H79746   5.008   4.302   9.317 -1.9141 -0.0291 -1.2257
  591MOL0     H79747   5.167   4.271   9.222 -0.3806 -0.6241 -0.3674
  591MOL0     H79748   5.022   4.194   9.176 -2.3148  1.8084  1.2028
  591MOL0     H79749   5.557   4.419   9.569 -0.5804  2.8911 -0.3259
  591MOL0     H79750   5.752   4.538   9.517  1.6199  0.2852 -1.2009
  591MOL0     H79751   5.929   4.653   9.454 -4.5659  0.0117 -0.9472
  591MOL0     H79752   5.959   4.506   9.345 -2.4645 -0.3853 -1.1375
  591MOL0     H79753   6.072   4.640   9.193 -0.9469 -0.0674 -0.5183
  591MOL0     H79754   6.008   4.796   9.251  0.5326 -0.0694  1.4908
  591MOL0     H79755   6.134   4.748   9.483  3.7532  3.1371  1.0351
  591MOL0     H79756   6.204   4.830   9.358  0.4668  1.0640  2.4166
  591MOL0     H79757   6.245   4.540   9.405 -1.5435  0.9145 -0.0746
  591MOL0     H79758   6.287   4.637   9.257 -1.2310 -1.4151 -0.6665
  591MOL0     H79759   6.483   4.609   9.435  2.3139  1.8257  0.4928
  591MOL0     H79760   6.386   4.684   9.553  0.4720 -1.8661 -0.0101
  591MOL0     H79761   6.449   4.832   9.292  0.8271  1.5255 -0.6546
  591MOL0     H79762   6.397   4.910   9.442  0.4307 -0.2469  0.1126
  591MOL0     H79763   6.632   4.730   9.389 -0.6586 -0.2000 -0.1576
  591MOL0     H79764   6.601   4.799   9.544  0.0723 -1.6869  0.1190
  591MOL0     H79765   6.649   4.975   9.296  0.7723 -0.4003 -0.0815
  591MOL0     H79766   6.782   4.943   9.411  0.1892  3.4162  1.3047
  591MOL0     H79767   5.646   4.605   9.123  3.5506  3.7474  2.1342
  591MOL0     H79768   5.434   4.447   9.150  0.3205  0.0320  0.1855
  591MOL0     H79769   5.389   3.996   9.529  0.1777 -1.3444 -1.1313
  591MOL0     H79770   5.231   3.815   9.569  1.0041  0.8943 -0.1184
  591MOL0     H79771   4.578   2.932   8.445  2.0053 -1.0836 -0.5776
  591MOL0     H79772   4.336   2.850   8.360 -0.8754 -0.5188  0.6877
  591MOL0     H79773   3.983   2.777   7.882  1.9956 -0.1265  0.5291
  591MOL0     H79774   3.826   2.636   7.825 -1.2773  0.2827  0.5593
  591MOL0     H79775   3.622   2.477   7.909 -0.7734 -0.0368 -1.2299
  591MOL0     H79776   3.724   2.458   7.764 -0.6817  2.6496  0.9422
  591MOL0     H79777   3.586   2.205   7.885 -1.8742  0.7512  0.4612
  591MOL0     H79778   3.655   2.231   7.727  2.1742 -0.0083  0.7135
  591MOL0     H79779   3.397   2.364   7.824  1.1097 -0.3610  1.7028
  591MOL0     H79780   3.404   2.226   7.707  1.6875 -1.3134  1.8727
  591MOL0     H79781   3.543   2.395   7.560 -0.5457  1.7812 -1.2936
  591MOL0     H79782   3.510   2.509   7.695 -0.5030 -0.6397  1.5477
  591MOL0     H79783   3.177   2.517   7.448 -0.3322 -0.6874 -1.2957
  591MOL0     H79784   3.956   2.342   8.119  2.1461  0.0694  0.5722
  591MOL0     H79785   4.162   2.496   8.163 -0.7883  3.6360  1.7949
  592MOL0     O79786  10.994   3.846  10.702  0.1682 -0.3911 -0.1905
  592MOL0     C79787  11.091   3.895  10.647  0.1213 -0.4023 -0.6557
  592MOL0     O79788  11.116   4.032  10.641 -0.2075  0.3632  0.2497
  592MOL0     C79789  11.026   4.112  10.711  0.1259  0.1841 -0.4928
  592MOL0     C79790  10.904   4.119  10.644  0.3923 -0.6026  0.2888
  592MOL0     C79791  10.796   4.195  10.704 -0.2428  0.0251 -0.1776
  592MOL0     C79792  10.819   4.266  10.820 -0.7481  0.6333 -0.0595
  592MOL0     O79793  10.706   4.313  10.883  0.2077  0.1909  0.0049
  592MOL0     C79794  10.717   4.454  10.927 -0.2366  0.3870  0.3315
  592MOL0     C79795  10.577   4.514  10.963  0.1035  0.0987 -0.1883
  592MOL0     C79796  10.507   4.574  10.839  0.1024  0.6579  0.9919
  592MOL0     C79797  10.359   4.537  10.818  0.6130 -0.0517 -0.2181
  592MOL0     C79798  10.334   4.390  10.775  0.4427  1.0656 -0.5681
  592MOL0     C79799  10.182   4.346  10.770  0.1354 -0.1826  0.9315
  592MOL0     C79800  10.154   4.219  10.693 -0.1913  0.7023 -1.2346
  592MOL0     C79801  10.038   4.139  10.754 -0.0527 -0.3176  0.5435
  592MOL0     N79802   9.904   4.199  10.729 -0.3765  0.9572 -0.1594
  592MOL0     C79803   9.876   4.269  10.620  0.1402 -0.1218 -0.4454
  592MOL0     C79804   9.749   4.315  10.640  0.0705 -0.1682 -0.1568
  592MOL0     C79805   9.648   4.383  10.548 -0.0049 -0.4855 -0.0011
  592MOL0     C79806   9.578   4.281  10.461 -0.3978 -0.7252  0.3544
  592MOL0     C79807   9.671   4.216  10.351 -0.4436 -0.1858 -0.4109
  592MOL0     C79808   9.715   4.309  10.244  0.2973 -0.2130  0.7264
  592MOL0     O79809   9.597   4.349  10.174  0.2103  0.3802  0.3222
  592MOL0     C79810   9.617   4.449  10.081  0.1041  0.5458 -0.3599
  592MOL0     C79811   9.504   4.498  10.019 -0.7398 -0.0310  0.2557
  592MOL0     C79812   9.514   4.584   9.906 -0.6113 -0.9817 -0.3654
  592MOL0     C79813   9.385   4.614   9.833 -0.0391 -0.3783 -0.0626
  592MOL0     C79814   9.639   4.620   9.852  0.7388  0.3284 -0.9950
  592MOL0     C79815   9.665   4.690   9.727  0.4922 -0.2208  0.6865
  592MOL0     O79816   9.797   4.730   9.716  0.0288  0.1758  0.2030
  592MOL0     C79817   9.840   4.782   9.597  0.2404  0.3268 -0.6778
  592MOL0     C79818   9.786   4.895   9.555  0.2113 -0.2373 -0.2978
  592MOL0     C79819   9.835   4.968   9.450 -0.6980 -0.4073  0.0897
  592MOL0     C79820   9.942   4.920   9.379 -0.7433  1.1007 -0.2003
  592MOL0     O79821   9.976   4.983   9.270 -0.0043  0.1966 -0.0023
  592MOL0     C79822  10.084   4.949   9.185 -1.2176 -0.1668  0.3444
  592MOL0     C79823  10.070   4.980   9.036 -0.1663 -0.1936  0.1488
  592MOL0     C79824   9.963   4.891   8.971 -0.4746  0.0102  0.0710
  592MOL0     C79825   9.955   4.908   8.819 -0.0753 -0.0988  0.8160
  592MOL0     C79826   9.867   4.790   8.756  0.3633 -0.3896  0.9285
  592MOL0     C79827   9.959   4.677   8.729  0.3253  0.3806 -0.4939
  592MOL0     C79828   9.911   4.572   8.631 -0.1161  0.2453 -0.0675
  592MOL0     C79829   9.775   4.511   8.669  1.0435 -1.1801 -0.1987
  592MOL0    Cl79830   9.798   4.441   8.835  0.6207 -0.2720 -0.6695
  592MOL0     C79831  10.001   4.801   9.425 -0.4304  0.3181 -0.6772
  592MOL0     C79832   9.955   4.734   9.540  1.4444 -0.4748  0.1557
  592MOL0     O79833   9.579   4.699   9.639 -0.3944 -0.3990 -0.6009
  592MOL0     C79834   9.749   4.566   9.912  0.4788  0.7154 -0.3975
  592MOL0     C79835   9.738   4.485  10.028 -0.3350  0.1363 -0.3033
  592MOL0     N79836   9.719   4.290  10.774 -0.3971 -0.1338  0.7315
  592MOL0     N79837   9.812   4.218  10.831  0.5667  0.0105 -0.1985
  592MOL0     C79838  10.953   4.276  10.877 -0.1750 -1.0799  0.0491
  592MOL0     C79839  11.050   4.187  10.828  1.7079 -0.0723 -0.1851
  592MOL0     C79840  11.195   3.804  10.589  0.1125  0.4766  0.4200
  592MOL0     C79841  11.184   3.664  10.612  0.0069 -0.7134 -0.0760
  592MOL0     C79842  11.286   3.575  10.571 -1.3386  0.1767 -1.3392
  592MOL0     C79843  11.406   3.627  10.507  0.6134 -0.0632  0.3064
  592MOL0     O79844  11.501   3.528  10.503  0.4624  0.4602 -0.2850
  592MOL0     C79845  11.634   3.562  10.460  0.7450  0.7299  0.3489
  592MOL0     C79846  11.731   3.446  10.504  0.4615 -0.0017 -0.2464
  592MOL0     C79847  11.865   3.473  10.446 -0.0744 -0.2664  0.1065
  592MOL0     C79848  11.964   3.361  10.474 -0.1261 -0.4382 -0.9850
  592MOL0     C79849  11.921   3.238  10.409 -0.3486  0.4500  1.0588
  592MOL0     C79850  11.893   3.126  10.357 -0.0268 -0.1013 -0.2290
  592MOL0     C79851  11.419   3.761  10.482 -0.4359 -0.1476  0.1011
  592MOL0     C79852  11.313   3.849  10.521 -0.5955 -1.4217 -0.3539
  592MOL0     H79853  10.886   4.057  10.557  0.6944  0.7153 -0.7625
  592MOL0     H79854  10.694   4.186  10.668  0.3276  1.2395 -2.3230
  592MOL0     H79855  10.785   4.456  11.012 -2.4632  0.3423  2.2241
  592MOL0     H79856  10.761   4.504  10.840  0.0901 -1.5217 -0.6715
  592MOL0     H79857  10.500   4.447  11.003 -0.8953  1.0034 -0.5615
  592MOL0     H79858  10.589   4.599  11.030  0.1737  2.8030 -3.4012
  592MOL0     H79859  10.507   4.683  10.835  2.4619  0.6737 -2.0795
  592MOL0     H79860  10.568   4.542  10.754 -2.8257  2.4773 -2.0245
  592MOL0     H79861  10.310   4.557  10.914  1.3001 -1.6411  0.5009
  592MOL0     H79862  10.315   4.607  10.747  2.5027  2.2452  0.7381
  592MOL0     H79863  10.375   4.393  10.673 -0.0395  1.9569 -0.7421
  592MOL0     H79864  10.384   4.315  10.836 -0.1656 -0.2239 -1.6007
  592MOL0     H79865  10.132   4.350  10.868 -1.4938  1.8732  0.0947
  592MOL0     H79866  10.126   4.418  10.710  2.1345 -0.1203 -0.9655
  592MOL0     H79867  10.137   4.250  10.590  0.9772 -0.8341 -1.9342
  592MOL0     H79868  10.240   4.151  10.691 -3.0275 -3.1705 -3.2345
  592MOL0     H79869  10.042   4.127  10.862 -1.2494  1.5287  0.8428
  592MOL0     H79870  10.033   4.042  10.702 -0.7792  0.0332 -0.0676
  592MOL0     H79871   9.941   4.278  10.533  2.6840 -5.4283  0.5587
  592MOL0     H79872   9.578   4.439  10.611 -0.5005 -1.8223  0.6868
  592MOL0     H79873   9.702   4.448  10.479 -1.2698  0.4682 -0.1400
  592MOL0     H79874   9.492   4.325  10.411 -1.6981 -2.6745  0.7911
  592MOL0     H79875   9.544   4.199  10.525  2.8257 -0.5158  2.5771
  592MOL0     H79876   9.622   4.125  10.317  2.9785 -1.8672 -1.2426
  592MOL0     H79877   9.763   4.192  10.405 -1.2396 -0.8172  0.6918
  592MOL0     H79878   9.780   4.256  10.173  1.7637  2.2278  0.1189
  592MOL0     H79879   9.771   4.395  10.282  1.8681  0.2629 -2.2885
  592MOL0     H79880   9.410   4.476  10.068 -0.2506  1.4169  1.9443
  592MOL0     H79881   9.384   4.722   9.816  0.0507 -0.3167  0.3118
  592MOL0     H79882   9.389   4.552   9.744  1.3415 -1.7777  0.9172
  592MOL0     H79883   9.297   4.577   9.887 -1.7513 -1.1443 -3.1268
  592MOL0     H79884   9.718   4.938   9.627  3.0790 -1.8332  3.7083
  592MOL0     H79885   9.809   5.068   9.419  3.5681  1.1597  0.8725
  592MOL0     H79886  10.170   5.013   9.207 -0.0017 -2.4883  2.8833
  592MOL0     H79887  10.102   4.843   9.201 -2.8986 -0.1273  3.3993
  592MOL0     H79888  10.049   5.087   9.033 -1.5793 -0.2515  3.3693
  592MOL0     H79889  10.163   4.971   8.980  1.4259 -1.8299  2.8162
  592MOL0     H79890   9.861   4.909   9.005 -1.2936 -1.5516 -1.4010
  592MOL0     H79891   9.983   4.786   8.997  0.3859  0.2292  0.3407
  592MOL0     H79892   9.894   4.999   8.809  0.8650  0.2792 -3.4194
  592MOL0     H79893  10.048   4.925   8.764 -0.2970  2.4630  1.0883
  592MOL0     H79894   9.827   4.816   8.657 -2.4974  0.7793  2.2579
  592MOL0     H79895   9.781   4.759   8.816 -2.9003  2.5446 -1.7678
  592MOL0     H79896  10.060   4.712   8.705  0.7884  0.3037  1.1977
  592MOL0     H79897   9.979   4.628   8.825  1.3405  2.0982  0.2172
  592MOL0     H79898   9.975   4.483   8.632 -2.4658 -1.6324  2.9457
  592MOL0     H79899   9.898   4.608   8.529 -2.0161  1.5578  0.5898
  592MOL0     H79900   9.740   4.438   8.596  0.2542 -0.5423 -0.4735
  592MOL0     H79901   9.710   4.599   8.673  4.3823  1.5516 -1.4175
  592MOL0     H79902  10.097   4.760   9.394  0.9910 -0.2535  3.7437
  592MOL0     H79903   9.994   4.642   9.581 -1.9086 -2.1752 -0.1098
  592MOL0     H79904   9.848   4.576   9.869 -0.0737  0.5980 -1.7449
  592MOL0     H79905   9.833   4.434  10.039  1.9665  3.6860 -1.8446
  592MOL0     H79906  10.967   4.336  10.967 -1.1512  0.7918 -0.9932
  592MOL0     H79907  11.148   4.190  10.876  2.8124  1.8521 -2.3572
  592MOL0     H79908  11.101   3.628  10.671 -0.9969 -2.3905 -2.3533
  592MOL0     H79909  11.276   3.477  10.617 -2.6155  1.6400  1.7984
  592MOL0     H79910  11.645   3.572  10.352  2.2440  4.6521  0.7013
  592MOL0     H79911  11.675   3.653  10.505  0.0221  2.1274 -1.7048
  592MOL0     H79912  11.685   3.356  10.461  0.5162 -0.1893  0.0770
  592MOL0     H79913  11.736   3.429  10.612  0.1890  0.6759 -0.1229
  592MOL0     H79914  11.895   3.573  10.479 -2.1061  0.0192  1.3089
  592MOL0     H79915  11.861   3.478  10.337  0.2802 -1.9192 -0.0023
  592MOL0     H79916  11.970   3.341  10.581  2.6222 -2.6819 -1.4387
  592MOL0     H79917  12.068   3.383  10.449  0.4311 -0.7191  0.9299
  592MOL0     H79918  11.847   3.047  10.302 -1.0901 -0.4621  1.1444
  592MOL0     H79919  11.503   3.793  10.421 -0.9756  0.6753 -0.2227
  592MOL0     H79920  11.339   3.954  10.511 -4.3544 -0.3790 -0.5448
  593MOL0     O79921   5.888   1.973   8.298  0.4489  0.2524  0.7345
  593MOL0     C79922   5.950   1.993   8.400 -0.4608 -0.1045 -0.0887
  593MOL0     O79923   5.914   2.064   8.504  0.5879  1.1814 -0.7821
  593MOL0     C79924   5.799   2.142   8.508  1.2547 -0.7833 -0.3336
  593MOL0     C79925   5.743   2.178   8.629  0.8554 -0.4224 -0.0225
  593MOL0     C79926   5.626   2.252   8.644  0.3527 -0.5332 -0.0891
  593MOL0     C79927   5.561   2.300   8.526  1.0096  0.4961  0.4769
  593MOL0     O79928   5.448   2.369   8.530 -0.9135  0.3986 -0.1878
  593MOL0     C79929   5.466   2.503   8.576 -0.7126  0.2461  0.4673
  593MOL0     C79930   5.337   2.587   8.552  0.1926  0.3472  0.6949
  593MOL0     C79931   5.220   2.555   8.649 -0.0317 -0.1138 -1.0967
  593MOL0     C79932   5.133   2.429   8.596  0.4649 -0.1013  1.0762
  593MOL0     C79933   5.013   2.392   8.688  0.1256  0.4666  0.6593
  593MOL0     C79934   4.951   2.262   8.634  0.4648  0.4427 -0.0695
  593MOL0     C79935   4.821   2.234   8.705  0.7456 -0.6288 -0.1869
  593MOL0     C79936   4.757   2.103   8.652 -0.0180  0.0749 -0.7395
  593MOL0     N79937   4.636   2.065   8.721 -0.0686 -0.7159 -0.8599
  593MOL0     C79938   4.519   2.140   8.715 -0.0371 -0.3357  0.1118
  593MOL0     C79939   4.419   2.057   8.762 -0.6633  0.0850 -0.1770
  593MOL0     C79940   4.276   2.110   8.799 -0.7304  0.6867  0.7163
  593MOL0     C79941   4.218   2.037   8.925 -0.1881 -0.8838  0.8847
  593MOL0     C79942   4.095   2.126   8.973 -0.1935  1.0809 -0.7094
  593MOL0     C79943   4.018   2.068   9.102  0.4291  1.3875  0.4582
  593MOL0     O79944   3.948   1.953   9.057  0.5129  0.3141  0.3593
  593MOL0     C79945   3.875   1.882   9.154  0.7515 -1.1618 -0.5515
  593MOL0     C79946   3.823   1.759   9.120 -1.0438  0.5038 -0.4436
  593MOL0     C79947   3.736   1.686   9.208 -0.8150 -1.1274 -0.4398
  593MOL0     C79948   3.687   1.547   9.165  0.5757  0.0833  1.2232
  593MOL0     C79949   3.698   1.747   9.327  0.1069  0.4563 -0.4706
  593MOL0     C79950   3.608   1.689   9.428  0.0875  0.1166  0.0592
  593MOL0     O79951   3.557   1.564   9.405  0.8199  0.5430 -0.3675
  593MOL0     C79952   3.493   1.497   9.502  0.1722  1.0456  0.6003
  593MOL0     C79953   3.359   1.527   9.538 -0.3262  0.7981 -0.6505
  593MOL0     C79954   3.292   1.458   9.641 -0.6033  0.4128  0.5207
  593MOL0     C79955   3.363   1.355   9.708 -0.5801 -0.2890 -0.3120
  593MOL0     O79956   3.276   1.288   9.791  0.2224 -0.3957  0.4880
  593MOL0     C79957   3.331   1.170   9.868  0.3587 -1.1915  0.8361
  593MOL0     C79958   3.370   1.215  10.012  0.2411 -0.5603  0.9413
  593MOL0     C79959   3.234   1.257  10.071  0.4929  0.2761 -0.4592
  593MOL0     C79960   3.244   1.309  10.221  0.0139 -0.7692  0.1336
  593MOL0     C79961   3.120   1.379  10.278  0.4943 -0.3269 -0.2011
  593MOL0     C79962   2.991   1.298  10.280  0.3030 -0.1530  0.4791
  593MOL0     C79963   2.876   1.373  10.344 -0.2163 -0.2792  0.6313
  593MOL0     C79964   2.742   1.290  10.341 -0.5786  0.5622 -0.5442
  593MOL0    Cl79965   2.696   1.231  10.174 -0.3863 -0.0541 -0.3245
  593MOL0     C79966   3.504   1.338   9.685 -0.4055 -0.4180 -0.1313
  593MOL0     C79967   3.568   1.404   9.578 -0.1104  0.0162 -0.0559
  593MOL0     O79968   3.584   1.752   9.527 -0.3610 -0.1748 -0.9562
  593MOL0     C79969   3.737   1.875   9.354 -0.4028  0.5989  0.2560
  593MOL0     C79970   3.822   1.938   9.264 -0.0629 -0.2734  0.7021
  593MOL0     N79971   4.477   1.932   8.782 -0.1002  0.5463  0.5382
  593MOL0     N79972   4.601   1.944   8.758  1.0414  0.0459  0.2737
  593MOL0     C79973   5.618   2.270   8.403  0.3500  0.1922 -0.3954
  593MOL0     C79974   5.736   2.197   8.393  0.5088 -0.4292  0.3082
  593MOL0     C79975   6.094   1.953   8.388 -0.2533  0.0570 -0.7746
  593MOL0     C79976   6.185   1.976   8.495  0.2610  0.2267  0.7311
  593MOL0     C79977   6.308   1.912   8.491 -0.5553 -0.7796  0.0126
  593MOL0     C79978   6.354   1.838   8.388  0.0614  0.3494 -0.4191
  593MOL0     O79979   6.481   1.781   8.402  0.3693 -0.6574  0.3116
  593MOL0     C79980   6.523   1.681   8.315 -0.3936  0.2481 -0.0502
  593MOL0     C79981   6.650   1.616   8.366 -0.4495  0.3645 -0.3795
  593MOL0     C79982   6.644   1.533   8.505 -0.4259  0.6073  0.5475
  593MOL0     C79983   6.782   1.458   8.508  0.7160  0.3843  0.0516
  593MOL0     C79984   6.790   1.347   8.413 -0.7557 -0.3606 -1.2766
  593MOL0     C79985   6.792   1.254   8.336 -0.0887  0.0749  1.4014
  593MOL0     C79986   6.267   1.816   8.286  1.0712 -0.8191 -0.1513
  593MOL0     C79987   6.140   1.873   8.281  0.0693 -0.1787  0.2225
  593MOL0     H79988   5.781   2.143   8.724  2.5683 -2.8693 -1.5248
  593MOL0     H79989   5.597   2.279   8.745  0.7733 -0.1615 -0.0637
  593MOL0     H79990   5.493   2.507   8.682  2.7521  1.8218 -0.3461
  593MOL0     H79991   5.553   2.534   8.518  0.1108 -1.2692  0.8418
  593MOL0     H79992   5.363   2.693   8.559 -1.1496  0.7504 -0.0496
  593MOL0     H79993   5.300   2.573   8.450 -1.6787  1.3748  1.1820
  593MOL0     H79994   5.266   2.534   8.746 -0.9777  0.4652 -0.5050
  593MOL0     H79995   5.151   2.639   8.664  0.0787 -0.2020  0.0071
  593MOL0     H79996   5.103   2.449   8.493  0.3350 -1.8097  0.7646
  593MOL0     H79997   5.197   2.341   8.598 -1.2969 -1.4575  0.5692
  593MOL0     H79998   5.053   2.373   8.788 -1.6093 -2.9622  0.8537
  593MOL0     H79999   4.932   2.465   8.692 -2.4230 -1.9183 -2.0477
  593MOL0     H80000   4.933   2.285   8.528  0.2747  1.4743  0.1687
  593MOL0     H80001   5.024   2.182   8.644 -0.2730 -0.3571 -0.9309
  593MOL0     H80002   4.848   2.211   8.808 -1.5460 -1.1371  0.3535
  593MOL0     H80003   4.755   2.322   8.711  1.0388 -0.1887 -2.3881
  593MOL0     H80004   4.836   2.029   8.668 -3.2552 -3.2631  1.4361
  593MOL0     H80005   4.741   2.125   8.546  0.5863  0.6154 -0.7237
  593MOL0     H80006   4.499   2.236   8.669 -0.7577  0.1940  1.4676
  593MOL0     H80007   4.277   2.218   8.817 -1.3620  1.1595 -1.7707
  593MOL0     H80008   4.218   2.098   8.707 -1.7572  2.2079  1.1210
  593MOL0     H80009   4.295   2.029   9.003 -0.0796  0.9700  0.9958
  593MOL0     H80010   4.177   1.939   8.897  3.0689 -1.6007 -1.9746
  593MOL0     H80011   4.016   2.137   8.899 -1.0812  0.3896  0.1054
  593MOL0     H80012   4.132   2.227   8.993  0.1308  0.6958  0.8051
  593MOL0     H80013   3.940   2.137   9.135 -0.4247  0.4650  0.4192
  593MOL0     H80014   4.091   2.039   9.179  1.1868 -2.3673 -1.4577
  593MOL0     H80015   3.852   1.711   9.027 -1.6817 -1.2117  0.1992
  593MOL0     H80016   3.697   1.466   9.238  1.1694 -0.3688  0.6540
  593MOL0     H80017   3.581   1.556   9.139  1.0554 -2.8683 -2.5533
  593MOL0     H80018   3.730   1.505   9.074 -0.8949  3.9023 -1.5124
  593MOL0     H80019   3.300   1.604   9.490  0.8019  2.8666  1.0964
  593MOL0     H80020   3.191   1.478   9.674 -0.1614  1.7074  1.1334
  593MOL0     H80021   3.253   1.094   9.864 -1.5888  0.7221 -1.9359
  593MOL0     H80022   3.418   1.131   9.815  0.9687  0.8852  0.2015
  593MOL0     H80023   3.405   1.127  10.065  2.0187 -0.0863  0.6110
  593MOL0     H80024   3.446   1.293  10.009 -0.1016 -0.1976  1.5511
  593MOL0     H80025   3.170   1.171  10.053  0.7148 -0.3736  1.6545
  593MOL0     H80026   3.197   1.336  10.004 -1.0750 -2.8840 -3.6669
  593MOL0     H80027   3.264   1.222  10.285 -1.9387 -0.0404  1.8546
  593MOL0     H80028   3.329   1.377  10.237 -0.7954  0.1904  0.4561
  593MOL0     H80029   3.112   1.477  10.230 -2.9622 -0.4382 -0.1425
  593MOL0     H80030   3.135   1.403  10.383  1.2794 -1.0120 -0.1497
  593MOL0     H80031   2.960   1.270  10.179 -3.3372  0.0676  1.3610
  593MOL0     H80032   3.014   1.207  10.336 -1.2624 -0.3640  0.8503
  593MOL0     H80033   2.869   1.467  10.290 -0.3537 -0.0187  1.0964
  593MOL0     H80034   2.890   1.401  10.449 -2.8085  3.6117  0.1303
  593MOL0     H80035   2.660   1.347  10.386  1.2698  0.8675  2.7873
  593MOL0     H80036   2.762   1.202  10.402 -3.2711 -0.2868 -0.7672
  593MOL0     H80037   3.551   1.264   9.748 -1.5018 -0.6532  0.4328
  593MOL0     H80038   3.675   1.383   9.574 -0.2341 -1.3514  2.2013
  593MOL0     H80039   3.708   1.934   9.440 -0.6802 -1.0934  1.3607
  593MOL0     H80040   3.854   2.036   9.299 -4.4144  0.5169  3.2552
  593MOL0     H80041   5.563   2.297   8.314 -2.2639 -0.0872  1.0430
  593MOL0     H80042   5.766   2.175   8.291 -5.5572  0.8527 -2.1827
  593MOL0     H80043   6.169   2.052   8.571  5.5292  0.6160  1.8227
  593MOL0     H80044   6.381   1.940   8.566 -0.8351  1.2079 -0.3827
  593MOL0     H80045   6.437   1.614   8.305 -2.6476  3.2444 -3.1849
  593MOL0     H80046   6.536   1.720   8.213 -1.4887  1.4253  0.2303
  593MOL0     H80047   6.721   1.699   8.379  0.4191 -0.1934 -1.4193
  593MOL0     H80048   6.679   1.549   8.286  0.8294  0.7640 -0.2740
  593MOL0     H80049   6.560   1.464   8.508  1.2791 -2.0745 -3.6194
  593MOL0     H80050   6.648   1.603   8.589  0.3932  0.5670  0.5447
  593MOL0     H80051   6.796   1.416   8.608 -0.5491  0.3220  0.2212
  593MOL0     H80052   6.856   1.537   8.495  3.3648 -1.8633  0.6687
  593MOL0     H80053   6.788   1.171   8.268  0.7133  2.8344 -2.3278
  593MOL0     H80054   6.299   1.751   8.205  1.4514 -2.0672  0.9658
  593MOL0     H80055   6.064   1.857   8.206  1.4509  0.0282 -1.2779
  594MOL0     O80056   8.805   4.873   0.220 -0.4773  0.0567  0.0482
  594MOL0     C80057   8.814   4.837   0.101 -0.4692  0.0906  0.1087
  594MOL0     O80058   8.720   4.777   0.020  0.3359  0.2559 -0.3959
  594MOL0     C80059   8.612   4.710   0.079 -0.8248 -0.8938 -0.7368
  594MOL0     C80060   8.615   4.644   0.204 -0.0146  0.5198  0.0560
  594MOL0     C80061   8.489   4.593   0.249 -0.2917  0.5549  0.8628
  594MOL0     C80062   8.367   4.598   0.176 -0.5017  0.4897 -0.2756
  594MOL0     O80063   8.258   4.527   0.227  0.2450 -0.2960  0.1424
  594MOL0     C80064   8.142   4.516   0.147  0.4984  0.3357  0.6489
  594MOL0     C80065   8.045   4.406   0.202 -0.1462  0.4774  0.4083
  594MOL0     C80066   8.009   4.430   0.356  0.0583  0.4344  0.3737
  594MOL0     C80067   7.915   4.553   0.364  1.2337 -0.2638  0.3757
  594MOL0     C80068   7.851   4.583   0.498 -0.2594 -0.8193  0.2523
  594MOL0     C80069   7.951   4.639   0.605  0.3399  0.4945 -0.1846
  594MOL0     C80070   7.879   4.668   0.747 -0.5263  0.1238 -0.9711
  594MOL0     C80071   7.803   4.541   0.786 -0.0225 -0.7159 -0.1665
  594MOL0     N80072   7.767   4.547   0.927  0.6789  0.0137  0.3825
  594MOL0     C80073   7.848   4.522   1.039 -0.4639 -0.3169  0.8850
  594MOL0     C80074   7.770   4.544   1.147 -0.6472  0.0160 -0.0996
  594MOL0     C80075   7.819   4.525   1.289  0.0981  0.0064  1.0179
  594MOL0     C80076   7.875   4.378   1.305  0.0282 -0.1593  0.0450
  594MOL0     C80077   7.781   4.263   1.268  0.1038  0.2872 -0.3844
  594MOL0     C80078   7.841   4.171   1.164 -0.0604  0.9160 -0.8074
  594MOL0     O80079   7.963   4.105   1.213  0.3077  0.3330 -0.2480
  594MOL0     C80080   7.952   3.984   1.274  0.7012 -0.1346 -0.2477
  594MOL0     C80081   7.913   3.872   1.198  0.1640  0.0843  0.5194
  594MOL0     C80082   7.880   3.744   1.254  0.0858  0.6030  0.0751
  594MOL0     C80083   7.833   3.641   1.157 -0.8348 -0.2267  0.0702
  594MOL0     C80084   7.914   3.719   1.388  0.6767 -0.0392 -0.2743
  594MOL0     C80085   7.878   3.598   1.460 -0.0455 -0.8148 -0.1486
  594MOL0     O80086   7.905   3.592   1.590  0.4240  0.2616  0.2547
  594MOL0     C80087   7.880   3.476   1.660 -0.9709  0.2767  0.1026
  594MOL0     C80088   7.758   3.411   1.675 -0.2254 -0.3893 -0.5307
  594MOL0     C80089   7.757   3.283   1.730 -0.3245 -0.1460 -0.3550
  594MOL0     C80090   7.867   3.226   1.796 -0.0139 -0.2865  0.5900
  594MOL0     O80091   7.855   3.100   1.858 -0.9103 -0.3793  0.0286
  594MOL0     C80092   7.943   3.036   1.946 -0.5055 -0.4127  0.7586
  594MOL0     C80093   8.044   2.955   1.865  0.3934 -0.5304  0.3106
  594MOL0     C80094   7.974   2.839   1.793 -0.3197  0.0271  0.2820
  594MOL0     C80095   8.079   2.762   1.721 -0.2065  0.3003  0.2489
  594MOL0     C80096   8.117   2.823   1.585  0.6086 -0.8574  0.2713
  594MOL0     C80097   8.078   2.726   1.473  0.4042  1.5960 -0.4242
  594MOL0     C80098   7.929   2.706   1.432 -0.3763  0.1946  0.1215
  594MOL0     C80099   7.916   2.600   1.316 -0.1021  0.0311 -0.1406
  594MOL0    Cl80100   7.984   2.661   1.157  0.2356  0.0492  0.0569
  594MOL0     C80101   7.993   3.298   1.791  0.7732 -0.8167 -0.3923
  594MOL0     C80102   7.996   3.427   1.728 -0.4218 -0.7950 -0.3034
  594MOL0     O80103   7.835   3.502   1.396 -0.4320 -0.3371  0.4962
  594MOL0     C80104   7.974   3.824   1.462  0.4718  0.8721  0.7857
  594MOL0     C80105   7.985   3.952   1.401 -0.4833  0.3125 -0.9456
  594MOL0     N80106   7.642   4.584   1.111 -0.2750 -0.4651  0.1273
  594MOL0     N80107   7.644   4.589   0.982  0.1937 -0.3423  0.6817
  594MOL0     C80108   8.374   4.655   0.052 -0.1178 -0.4974  0.1724
  594MOL0     C80109   8.491   4.716   0.010  0.4656 -0.0784  0.3534
  594MOL0     C80110   8.938   4.879   0.032 -0.1211  0.9009 -0.5005
  594MOL0     C80111   9.047   4.931   0.107  1.0270  0.0998 -0.7486
  594MOL0     C80112   9.169   4.973   0.049  0.1311  0.1976 -0.1579
  594MOL0     C80113   9.181   4.968  -0.090  0.0271  0.0856 -0.9064
  594MOL0     O80114   9.284   5.010  -0.155 -0.1924  0.3731  0.0548
  594MOL0     C80115   9.403   5.044  -0.087  0.1846 -0.0322  0.3660
  594MOL0     C80116   9.511   5.072  -0.201 -0.1345  0.0286 -0.2158
  594MOL0     C80117   9.642   5.104  -0.125 -0.3823 -0.8473 -0.3977
  594MOL0     C80118   9.760   5.125  -0.230  0.2953  0.0776  0.2413
  594MOL0     C80119   9.875   5.168  -0.150  0.6446  0.5698  0.6753
  594MOL0     C80120   9.974   5.204  -0.099 -0.2533  0.6638  0.2664
  594MOL0     C80121   9.074   4.923  -0.167 -0.7390 -0.0692  0.7655
  594MOL0     C80122   8.959   4.880  -0.104 -0.6316  0.8196  0.7151
  594MOL0     H80123   8.702   4.649   0.268 -1.4201  0.4477  2.0570
  594MOL0     H80124   8.481   4.548   0.348 -2.1506 -1.8567 -0.2941
  594MOL0     H80125   8.089   4.609   0.128 -0.0698  0.1541  1.3142
  594MOL0     H80126   8.170   4.493   0.044  2.0697  0.6430  0.9669
  594MOL0     H80127   7.956   4.412   0.139  0.2748  1.4714 -0.1088
  594MOL0     H80128   8.105   4.317   0.180 -0.7528  0.9277 -3.8820
  594MOL0     H80129   7.959   4.340   0.394  1.5880 -0.6141  0.0041
  594MOL0     H80130   8.097   4.452   0.418 -0.6453  1.7417  0.9611
  594MOL0     H80131   7.986   4.634   0.347  1.2587 -0.3587  0.0141
  594MOL0     H80132   7.827   4.557   0.300 -0.7794  0.4824  3.0184
  594MOL0     H80133   7.784   4.666   0.476  1.6413  1.0247  1.0767
  594MOL0     H80134   7.794   4.495   0.528  0.5626 -1.4688 -0.0366
  594MOL0     H80135   8.027   4.563   0.624 -1.9949 -1.6702  1.0844
  594MOL0     H80136   8.006   4.729   0.576 -1.8174  1.5431 -1.1972
  594MOL0     H80137   7.954   4.695   0.822 -1.5760 -1.5822  0.8002
  594MOL0     H80138   7.805   4.748   0.735 -2.4086 -1.6583 -1.9294
  594MOL0     H80139   7.865   4.452   0.775  2.3692  0.7138  1.0034
  594MOL0     H80140   7.709   4.530   0.731 -0.9615 -2.3901  1.6489
  594MOL0     H80141   7.953   4.498   1.028 -0.7353 -0.4041 -3.1366
  594MOL0     H80142   7.907   4.587   1.304  0.4374 -0.5312  1.2715
  594MOL0     H80143   7.735   4.535   1.359 -1.6581  2.1730 -1.2310
  594MOL0     H80144   7.901   4.377   1.411  0.6184 -1.1125 -0.0977
  594MOL0     H80145   7.970   4.369   1.252  0.4386 -1.0733  0.9144
  594MOL0     H80146   7.682   4.289   1.230  0.8524  4.5318  0.1480
  594MOL0     H80147   7.766   4.204   1.359  1.5782 -4.5252 -2.9205
  594MOL0     H80148   7.865   4.227   1.074 -0.3607  1.4248 -0.5745
  594MOL0     H80149   7.757   4.103   1.147  0.3876  0.1733 -0.1489
  594MOL0     H80150   7.904   3.894   1.093  0.4899 -1.3772  0.1562
  594MOL0     H80151   7.840   3.689   1.059 -0.0728  0.5468  0.4839
  594MOL0     H80152   7.887   3.547   1.162 -2.0249 -0.8804  1.5762
  594MOL0     H80153   7.736   3.607   1.193  0.6815 -2.1447  2.7289
  594MOL0     H80154   7.670   3.455   1.629 -1.0783 -0.8668  0.5937
  594MOL0     H80155   7.663   3.230   1.741 -0.0128 -0.4055  1.3578
  594MOL0     H80156   8.005   3.106   2.002 -0.9429  1.8712 -1.4558
  594MOL0     H80157   7.886   2.967   2.009 -0.2960 -3.7368 -2.3408
  594MOL0     H80158   8.070   3.024   1.784 -0.0750  0.1934  0.7644
  594MOL0     H80159   8.129   2.924   1.927 -0.5225 -1.7711  0.9868
  594MOL0     H80160   7.897   2.870   1.722 -0.3000 -2.0867 -0.7372
  594MOL0     H80161   7.919   2.780   1.868 -0.8807  1.0722  0.7244
  594MOL0     H80162   8.176   2.757   1.770  0.1129  1.8061 -0.1947
  594MOL0     H80163   8.052   2.655   1.723  1.1859 -0.0730  2.2558
  594MOL0     H80164   8.224   2.845   1.580  0.0941  1.8460 -1.6511
  594MOL0     H80165   8.082   2.925   1.563  1.1816 -0.7971 -0.3935
  594MOL0     H80166   8.134   2.757   1.384  0.8456  2.5643  0.1730
  594MOL0     H80167   8.110   2.626   1.504 -0.3899  1.5232  0.1653
  594MOL0     H80168   7.886   2.806   1.420  1.2722  1.0845  1.2323
  594MOL0     H80169   7.887   2.662   1.523 -0.4228  2.3772  1.2087
  594MOL0     H80170   7.809   2.580   1.305 -0.4187  1.6858 -0.4086
  594MOL0     H80171   7.962   2.505   1.344 -1.1141  0.4988  3.6945
  594MOL0     H80172   8.087   3.258   1.827  1.0772  0.1738 -0.0596
  594MOL0     H80173   8.090   3.481   1.719 -0.8259 -0.1115 -0.4940
  594MOL0     H80174   8.013   3.818   1.563  0.6012 -0.3443  0.6744
  594MOL0     H80175   8.024   4.016   1.479  3.5400 -1.6168 -1.1123
  594MOL0     H80176   8.289   4.664  -0.014  0.0760  3.3844  0.2612
  594MOL0     H80177   8.494   4.785  -0.073 -0.7512  0.2962  0.5918
  594MOL0     H80178   9.042   4.933   0.215 -1.2967  0.4927 -0.7985
  594MOL0     H80179   9.246   5.016   0.112  0.7924  0.2495 -0.9919
  594MOL0     H80180   9.383   5.135  -0.030  2.1345  0.2254  0.7347
  594MOL0     H80181   9.436   4.968  -0.016  0.5771  2.1246  2.6324
  594MOL0     H80182   9.474   5.142  -0.277 -0.5457 -0.8738 -0.8676
  594MOL0     H80183   9.526   4.977  -0.254  1.6819 -3.0147  4.9606
  594MOL0     H80184   9.660   5.022  -0.055  1.8732  0.8709  1.1766
  594MOL0     H80185   9.635   5.189  -0.057  1.9063  0.1117 -1.2619
  594MOL0     H80186   9.744   5.204  -0.304 -0.3971 -0.3302 -0.0534
  594MOL0     H80187   9.776   5.025  -0.273 -0.1219 -0.6424  1.6942
  594MOL0     H80188  10.065   5.231  -0.049 -0.6086  0.1562  1.2138
  594MOL0     H80189   9.084   4.918  -0.275 -1.7115 -0.3720  0.6837
  594MOL0     H80190   8.872   4.846  -0.160 -0.0112 -2.2537  1.4155
  595MOL0     O80191   1.992   2.755   6.140 -0.2187  0.1216  0.3167
  595MOL0     C80192   1.928   2.653   6.155  0.4378 -0.5645  0.3388
  595MOL0     O80193   1.963   2.549   6.244  0.1718 -0.0547 -0.0911
  595MOL0     C80194   2.015   2.579   6.372 -0.0176 -0.7215 -0.8004
  595MOL0     C80195   2.052   2.471   6.448 -0.0579  0.8630 -1.0340
  595MOL0     C80196   2.108   2.484   6.579  0.5412  0.5215  0.3326
  595MOL0     C80197   2.121   2.610   6.633 -0.0705  0.1619  0.0527
  595MOL0     O80198   2.175   2.639   6.755 -0.3171 -0.0878 -0.0358
  595MOL0     C80199   2.235   2.532   6.845  0.5065 -0.3435  1.0669
  595MOL0     C80200   2.321   2.584   6.959  0.0391 -0.9269  0.4799
  595MOL0     C80201   2.432   2.491   7.009 -0.3952  0.2760  0.4935
  595MOL0     C80202   2.525   2.551   7.116 -0.2298  0.1981 -0.9759
  595MOL0     C80203   2.673   2.524   7.083  0.2333 -0.5060  0.6925
  595MOL0     C80204   2.775   2.543   7.205  0.3420 -0.1230  0.0342
  595MOL0     C80205   2.775   2.421   7.296  0.5625 -0.0357 -0.3100
  595MOL0     C80206   2.845   2.469   7.429  0.1505  0.3193  0.0648
  595MOL0     N80207   2.830   2.387   7.546  0.6636  0.2531 -0.3949
  595MOL0     C80208   2.714   2.342   7.601  0.7169  0.2292 -0.1229
  595MOL0     C80209   2.748   2.247   7.688 -0.3407  0.4193 -0.6657
  595MOL0     C80210   2.668   2.165   7.784  0.0535  0.3965  0.9637
  595MOL0     C80211   2.683   2.022   7.741 -0.8218 -0.1316 -0.1116
  595MOL0     C80212   2.579   1.932   7.806 -0.4256 -0.6205 -0.2867
  595MOL0     C80213   2.576   1.788   7.776  0.2818 -0.2786  0.1596
  595MOL0     O80214   2.573   1.761   7.642  0.7829  0.3458  1.3217
  595MOL0     C80215   2.450   1.759   7.582  0.1046  0.5638 -0.8623
  595MOL0     C80216   2.315   1.746   7.629  0.1569  1.0939 -1.2006
  595MOL0     C80217   2.204   1.772   7.547 -0.0102  0.5932 -0.1558
  595MOL0     C80218   2.066   1.782   7.613 -0.0096  0.6467 -0.6057
  595MOL0     C80219   2.225   1.799   7.410  0.8310 -0.0376  0.1161
  595MOL0     C80220   2.112   1.816   7.315 -0.1075  0.2308  0.2460
  595MOL0     O80221   2.136   1.764   7.194  0.0071 -0.8909  0.6265
  595MOL0     C80222   2.040   1.721   7.107 -0.5017 -0.0313 -0.2325
  595MOL0     C80223   1.916   1.673   7.139  0.4159 -0.0536  0.4369
  595MOL0     C80224   1.821   1.656   7.034  0.8937 -0.9661 -0.1329
  595MOL0     C80225   1.858   1.671   6.906  0.4664 -0.4275  0.1393
  595MOL0     O80226   1.764   1.643   6.810  0.7191  0.4139 -0.4228
  595MOL0     C80227   1.772   1.692   6.671 -0.2839 -1.1106 -0.4165
  595MOL0     C80228   1.652   1.645   6.592 -0.2063 -0.7275 -0.4999
  595MOL0     C80229   1.532   1.748   6.622  0.0150 -0.2560  0.2679
  595MOL0     C80230   1.407   1.712   6.541  0.7665 -0.4988  0.1302
  595MOL0     C80231   1.279   1.789   6.585 -0.8652  0.0341 -0.6113
  595MOL0     C80232   1.165   1.758   6.482 -0.4109 -0.4171  0.0360
  595MOL0     C80233   1.159   1.860   6.361  0.7025 -0.0491 -0.7819
  595MOL0     C80234   1.010   1.855   6.317 -0.6021 -0.6313  0.6814
  595MOL0    Cl80235   1.024   1.896   6.148  0.1573  0.1292  0.4479
  595MOL0     C80236   1.993   1.707   6.874  0.5005  0.1651  0.3530
  595MOL0     C80237   2.088   1.730   6.976  1.8810  0.0797  0.6121
  595MOL0     O80238   2.008   1.868   7.347 -1.1728  0.2967 -0.5123
  595MOL0     C80239   2.356   1.799   7.357  0.7940 -0.3210 -1.2397
  595MOL0     C80240   2.462   1.776   7.440 -0.6177 -0.2620  0.4639
  595MOL0     N80241   2.886   2.230   7.672 -0.3325 -0.6639 -0.2873
  595MOL0     N80242   2.933   2.327   7.602 -0.0873  0.0748 -0.1349
  595MOL0     C80243   2.107   2.726   6.555  0.1169 -0.4664  0.3819
  595MOL0     C80244   2.053   2.707   6.424  0.3105  1.1218 -0.0060
  595MOL0     C80245   1.804   2.659   6.071 -0.5856  0.2026  0.0885
  595MOL0     C80246   1.716   2.557   6.087  1.4191  0.8170  0.3531
  595MOL0     C80247   1.625   2.518   5.984  0.0263 -0.7747  0.3783
  595MOL0     C80248   1.609   2.611   5.882  0.8117 -0.8309 -0.1002
  595MOL0     O80249   1.523   2.575   5.778 -0.1022  0.2482  0.2598
  595MOL0     C80250   1.525   2.630   5.640  0.1108  0.3889 -0.9742
  595MOL0     C80251   1.453   2.772   5.655  0.0010  0.0832 -0.3460
  595MOL0     C80252   1.300   2.746   5.655 -0.0110  0.5423 -0.3783
  595MOL0     C80253   1.197   2.861   5.644 -0.5297 -0.1335 -1.1207
  595MOL0     C80254   1.251   2.992   5.683 -1.0773  0.4873  0.3960
  595MOL0     C80255   1.295   3.091   5.733  0.1919  0.3572 -0.4625
  595MOL0     C80256   1.701   2.715   5.862  0.3322  0.4583 -0.6168
  595MOL0     C80257   1.799   2.740   5.958 -0.7516 -0.1040  0.2292
  595MOL0     H80258   2.012   2.376   6.413 -0.4845  0.8104 -0.4009
  595MOL0     H80259   2.113   2.395   6.640 -2.2983  0.2866  0.3663
  595MOL0     H80260   2.157   2.468   6.887  0.6245 -0.9131  0.4421
  595MOL0     H80261   2.297   2.473   6.776  0.7401  0.8255  0.2346
  595MOL0     H80262   2.358   2.683   6.928  2.5577 -0.3411  4.6258
  595MOL0     H80263   2.257   2.599   7.046 -1.8937 -3.0027 -0.4802
  595MOL0     H80264   2.383   2.403   7.051  1.9758 -0.0799  2.7226
  595MOL0     H80265   2.506   2.466   6.933 -0.0305  1.3679  0.4743
  595MOL0     H80266   2.518   2.660   7.112 -1.1951  0.1683 -0.5170
  595MOL0     H80267   2.487   2.512   7.211 -0.5043  1.9005 -0.3418
  595MOL0     H80268   2.693   2.422   7.048  3.5979 -0.8120  2.9965
  595MOL0     H80269   2.697   2.598   7.007 -1.6781  3.2416  3.4514
  595MOL0     H80270   2.874   2.561   7.161 -0.1338  1.6928 -0.3899
  595MOL0     H80271   2.752   2.634   7.261 -0.1046 -1.5690  2.3070
  595MOL0     H80272   2.673   2.384   7.299  1.6469 -3.3709 -0.2721
  595MOL0     H80273   2.836   2.337   7.259  0.0131 -1.3263  1.5696
  595MOL0     H80274   2.804   2.565   7.460 -3.6739 -1.1065 -0.0494
  595MOL0     H80275   2.949   2.498   7.410  0.8438  0.3730  3.3402
  595MOL0     H80276   2.613   2.378   7.583  0.0939 -0.7874  1.1173
  595MOL0     H80277   2.710   2.184   7.884 -0.8409  2.1891  1.0267
  595MOL0     H80278   2.565   2.198   7.774 -0.5598 -1.9791 -2.1689
  595MOL0     H80279   2.783   1.999   7.778 -0.5483  0.7451 -0.2738
  595MOL0     H80280   2.688   2.015   7.632  3.0282 -0.1578 -0.0733
  595MOL0     H80281   2.476   1.964   7.788 -2.0774 -4.3074  1.6845
  595MOL0     H80282   2.603   1.936   7.912 -0.3323  2.4727 -0.3339
  595MOL0     H80283   2.489   1.748   7.829  0.3094  1.4610  1.6149
  595MOL0     H80284   2.665   1.744   7.822 -1.0002 -2.8121  0.3528
  595MOL0     H80285   2.289   1.739   7.734 -0.5575  1.6852 -1.3258
  595MOL0     H80286   2.044   1.887   7.631 -2.0863  0.1291  0.1108
  595MOL0     H80287   1.983   1.750   7.549  0.8895 -1.5352 -0.7616
  595MOL0     H80288   2.059   1.723   7.705  0.3763 -2.3538 -2.3441
  595MOL0     H80289   1.875   1.653   7.238 -4.0062  1.1829 -0.9055
  595MOL0     H80290   1.725   1.609   7.054  0.2219  0.0787 -0.8043
  595MOL0     H80291   1.784   1.801   6.677 -0.0062 -1.1431 -0.3369
  595MOL0     H80292   1.866   1.655   6.629  0.2429 -1.8565  1.2988
  595MOL0     H80293   1.666   1.646   6.483  0.1941 -0.2828 -0.4476
  595MOL0     H80294   1.634   1.544   6.629  0.2630 -1.0842 -1.2255
  595MOL0     H80295   1.576   1.842   6.586  0.5342 -0.6832 -0.2269
  595MOL0     H80296   1.503   1.757   6.727  1.6753 -1.4991  0.8576
  595MOL0     H80297   1.437   1.756   6.445 -1.7160 -1.0713 -0.9895
  595MOL0     H80298   1.394   1.604   6.542 -1.3846 -0.3733 -2.3543
  595MOL0     H80299   1.295   1.897   6.592 -0.7171 -0.0610  0.7798
  595MOL0     H80300   1.228   1.757   6.676 -0.0371  2.5449  0.8298
  595MOL0     H80301   1.166   1.655   6.445 -0.5309  0.2208 -1.8626
  595MOL0     H80302   1.068   1.780   6.526 -0.5774 -1.3838  0.1661
  595MOL0     H80303   1.216   1.831   6.273  1.2475  1.8914 -1.1180
  595MOL0     H80304   1.197   1.957   6.395  0.1133  0.1293 -0.6007
  595MOL0     H80305   0.954   1.933   6.370 -0.5871 -0.0446 -0.1483
  595MOL0     H80306   0.967   1.755   6.331 -1.4430 -0.0254  2.8262
  595MOL0     H80307   2.022   1.710   6.769 -1.6940 -0.6968 -0.3227
  595MOL0     H80308   2.182   1.766   6.936  1.5681 -2.9925 -3.5845
  595MOL0     H80309   2.376   1.816   7.252  1.0294  2.1560 -0.8546
  595MOL0     H80310   2.565   1.770   7.409 -0.5387  0.0448  0.6683
  595MOL0     H80311   2.123   2.818   6.610  1.7597 -0.6703  0.2939
  595MOL0     H80312   2.021   2.800   6.378 -1.5593 -0.0186 -1.1789
  595MOL0     H80313   1.708   2.501   6.180  1.6567 -2.6498 -1.5318
  595MOL0     H80314   1.552   2.437   5.989 -0.5987 -0.7008 -3.9741
  595MOL0     H80315   1.632   2.642   5.624  0.7188  1.2811  2.7147
  595MOL0     H80316   1.484   2.560   5.566  0.5736  0.1271 -0.9832
  595MOL0     H80317   1.475   2.846   5.577  0.3356  2.3577  1.7751
  595MOL0     H80318   1.486   2.818   5.748 -1.1333 -2.0111  1.1715
  595MOL0     H80319   1.277   2.710   5.756 -0.7588  0.5590 -0.5397
  595MOL0     H80320   1.278   2.673   5.577 -0.7952  1.0619 -0.6568
  595MOL0     H80321   1.110   2.837   5.706  0.7001 -0.0016  0.7253
  595MOL0     H80322   1.159   2.875   5.542 -3.9967 -1.6718 -0.1800
  595MOL0     H80323   1.344   3.178   5.773 -1.9238  1.3594  0.0783
  595MOL0     H80324   1.713   2.778   5.774  1.3607  2.2212  0.7361
  595MOL0     H80325   1.878   2.810   5.932  1.4671 -1.5105  2.5680
  596MOL0     O80326  11.173   0.052   6.506 -0.4419  0.2419 -0.2469
  596MOL0     C80327  11.112   0.140   6.444  0.2611  0.5412 -0.5018
  596MOL0     O80328  11.107   0.272   6.472 -0.0547 -1.3899  0.8429
  596MOL0     C80329  11.190   0.331   6.565 -0.3604 -0.8366 -0.2236
  596MOL0     C80330  11.197   0.292   6.697  0.4158 -0.3700 -0.1297
  596MOL0     C80331  11.269   0.366   6.792  0.5569  0.1708  0.5707
  596MOL0     C80332  11.350   0.474   6.758 -0.1399  0.6115 -0.0123
  596MOL0     O80333  11.433   0.532   6.843  0.1586  0.1472  0.4464
  596MOL0     C80334  11.579   0.536   6.815  1.0736 -0.4898  0.2647
  596MOL0     C80335  11.647   0.601   6.934 -0.2460 -0.4664 -0.1378
  596MOL0     C80336  11.605   0.528   7.061 -0.3868  0.0671 -0.1075
  596MOL0     C80337  11.706   0.540   7.178  0.6788 -0.3587 -0.2684
  596MOL0     C80338  11.667   0.461   7.298 -0.5649 -0.3054 -0.5827
  596MOL0     C80339  11.762   0.470   7.422  0.0906 -0.2579  0.4350
  596MOL0     C80340  11.687   0.534   7.539  0.4854  0.8815 -0.0809
  596MOL0     C80341  11.794   0.559   7.637  0.2473 -0.3305  0.0790
  596MOL0     N80342  11.736   0.627   7.752  0.6576 -0.1269  0.1018
  596MOL0     C80343  11.664   0.745   7.747  0.4435 -0.3154 -0.2664
  596MOL0     C80344  11.637   0.776   7.877 -0.5516  0.3216  0.3854
  596MOL0     C80345  11.553   0.885   7.920  0.4210 -0.1507 -0.0430
  596MOL0     C80346  11.408   0.848   7.946  0.2740 -0.1146 -0.5241
  596MOL0     C80347  11.323   0.967   8.008  0.3109  0.1478  0.2133
  596MOL0     C80348  11.179   0.973   7.966  0.3850  0.1086 -0.2521
  596MOL0     O80349  11.161   1.042   7.836  0.2853 -0.2739  0.4842
  596MOL0     C80350  11.039   1.043   7.771  0.4986  0.4775  0.4563
  596MOL0     C80351  11.041   1.087   7.639  0.4263 -0.6004 -0.0079
  596MOL0     C80352  10.918   1.111   7.569  0.2980  0.0548  0.1096
  596MOL0     C80353  10.939   1.206   7.445  0.7617 -0.1511  1.0315
  596MOL0     C80354  10.794   1.063   7.625  0.4270 -0.1950  0.3086
  596MOL0     C80355  10.662   1.085   7.559  0.1339 -0.6068  1.1261
  596MOL0     O80356  10.555   1.036   7.626 -0.4148 -0.4829  0.3632
  596MOL0     C80357  10.423   1.060   7.581  0.1840  0.2350  0.4623
  596MOL0     C80358  10.362   0.959   7.507 -0.8708 -0.6262  0.5756
  596MOL0     C80359  10.225   0.976   7.484 -0.2836  0.4395 -1.1480
  596MOL0     C80360  10.158   1.090   7.515  0.5334  0.0680  0.0424
  596MOL0     O80361  10.021   1.104   7.495  0.2593 -0.5871  0.5603
  596MOL0     C80362   9.949   0.986   7.470 -0.0519 -1.2031  0.1734
  596MOL0     C80363   9.804   1.032   7.481 -0.4072  0.3287  0.1285
  596MOL0     C80364   9.715   0.912   7.514 -0.2508  0.3061  0.1500
  596MOL0     C80365   9.569   0.938   7.464  0.1590 -0.4758 -0.2779
  596MOL0     C80366   9.479   0.818   7.516  0.1720  0.0924 -0.1231
  596MOL0     C80367   9.329   0.841   7.496  0.2438  0.6277 -0.6954
  596MOL0     C80368   9.251   0.713   7.529 -0.4088  0.0737 -0.8209
  596MOL0     C80369   9.103   0.705   7.467  0.0588 -0.4166  0.1548
  596MOL0    Cl80370   9.117   0.667   7.286 -0.4150 -0.1437  0.1839
  596MOL0     C80371  10.232   1.195   7.572  0.1038 -0.0417 -0.5014
  596MOL0     C80372  10.368   1.183   7.601  0.4641  0.1253  0.3552
  596MOL0     O80373  10.659   1.143   7.453 -0.0606 -1.1506 -0.3559
  596MOL0     C80374  10.800   0.983   7.741 -0.0690 -0.4770 -0.0825
  596MOL0     C80375  10.921   0.983   7.820  0.6116 -0.7199 -0.3648
  596MOL0     N80376  11.684   0.670   7.952 -0.1769  0.2617  0.3402
  596MOL0     N80377  11.748   0.585   7.880  0.4356 -0.3321 -0.3036
  596MOL0     C80378  11.346   0.508   6.620 -0.4464  0.4011 -0.7228
  596MOL0     C80379  11.266   0.444   6.532 -0.6924 -0.5770 -0.0993
  596MOL0     C80380  11.043   0.101   6.316 -0.6527  0.1504  0.3879
  596MOL0     C80381  10.989   0.191   6.225 -0.7461 -0.8581 -0.6258
  596MOL0     C80382  10.907   0.146   6.126  0.3180 -1.0894  0.2099
  596MOL0     C80383  10.880   0.016   6.097 -0.0981  0.3746  0.2039
  596MOL0     O80384  10.795  -0.013   5.989 -0.4791  0.1371 -0.0959
  596MOL0     C80385  10.823  -0.132   5.914 -0.9463 -1.4791  0.0689
  596MOL0     C80386  10.753  -0.248   5.979  0.4774  0.1533 -0.2060
  596MOL0     C80387  10.785  -0.389   5.936 -0.1312 -0.1322  0.0199
  596MOL0     C80388  10.922  -0.436   5.997  0.0561 -0.2046 -0.7784
  596MOL0     C80389  10.917  -0.473   6.136  0.6326 -0.5797  0.1627
  596MOL0     C80390  10.911  -0.522   6.251 -0.7712  0.1158  0.1718
  596MOL0     C80391  10.950  -0.082   6.177  1.6256 -0.3828 -0.3932
  596MOL0     C80392  11.029  -0.035   6.287 -0.5796  0.4595 -0.2328
  596MOL0     H80393  11.135   0.203   6.710  1.3377 -0.9016  0.7483
  596MOL0     H80394  11.262   0.337   6.897 -1.4657 -1.8101 -0.0238
  596MOL0     H80395  11.620   0.436   6.799 -0.7011 -1.2086 -0.0319
  596MOL0     H80396  11.615   0.594   6.729  4.5005 -2.3467  0.2393
  596MOL0     H80397  11.755   0.602   6.915 -0.0719  1.3313  0.6676
  596MOL0     H80398  11.614   0.706   6.940  0.8967 -0.0827 -0.2436
  596MOL0     H80399  11.506   0.565   7.091 -0.3818 -0.4215  0.5262
  596MOL0     H80400  11.584   0.421   7.048  0.8776  0.0802 -2.9807
  596MOL0     H80401  11.803   0.500   7.150  0.5707 -1.5667  0.9832
  596MOL0     H80402  11.719   0.649   7.186 -2.8700  0.2707 -1.2932
  596MOL0     H80403  11.564   0.485   7.329  0.6889  2.4373  2.0177
  596MOL0     H80404  11.676   0.357   7.267  0.0317 -0.1608 -0.9175
  596MOL0     H80405  11.788   0.366   7.445 -3.3582 -1.4492 -0.5418
  596MOL0     H80406  11.845   0.532   7.390  0.5759 -2.3613 -2.8291
  596MOL0     H80407  11.620   0.618   7.516 -1.0126 -0.4596 -0.8389
  596MOL0     H80408  11.625   0.456   7.585 -0.2975  1.4041 -0.2329
  596MOL0     H80409  11.875   0.621   7.597 -0.5728  2.1226  1.9831
  596MOL0     H80410  11.849   0.469   7.668  3.8237  2.2898  2.0949
  596MOL0     H80411  11.650   0.811   7.662  0.7797 -0.1041 -0.1589
  596MOL0     H80412  11.589   0.948   8.002 -1.7978 -0.3016  1.1192
  596MOL0     H80413  11.555   0.948   7.831  0.0506 -2.4226 -1.7444
  596MOL0     H80414  11.423   0.771   8.023  2.7783  1.0991  0.3095
  596MOL0     H80415  11.360   0.797   7.862  0.3520 -0.7539 -0.1841
  596MOL0     H80416  11.367   1.062   7.978  0.3688 -0.3574 -1.4063
  596MOL0     H80417  11.335   0.966   8.117 -0.6335 -0.2339  0.3331
  596MOL0     H80418  11.113   1.006   8.046  0.2880 -5.1192  2.2319
  596MOL0     H80419  11.159   0.866   7.956  2.0590 -0.3228  0.5873
  596MOL0     H80420  11.136   1.131   7.609  1.1374  0.0020  2.8129
  596MOL0     H80421  11.045   1.231   7.436  0.7195 -0.6473 -2.0461
  596MOL0     H80422  10.917   1.160   7.348 -2.7481 -0.7187  1.9703
  596MOL0     H80423  10.888   1.302   7.456 -0.6759 -0.4129 -2.3041
  596MOL0     H80424  10.410   0.862   7.498 -2.3606 -1.5008  1.5278
  596MOL0     H80425  10.184   0.892   7.430  0.3412  0.0920 -1.0961
  596MOL0     H80426   9.968   0.941   7.373  0.0880  2.0068 -1.4143
  596MOL0     H80427   9.963   0.919   7.556  2.2001 -0.5050  0.4201
  596MOL0     H80428   9.802   1.100   7.566  1.0427 -0.9804  1.2664
  596MOL0     H80429   9.774   1.089   7.392  1.1694  0.9871 -0.0159
  596MOL0     H80430   9.714   0.893   7.622  1.6195  5.6222  1.3934
  596MOL0     H80431   9.757   0.825   7.462 -0.9953 -0.6207  1.0355
  596MOL0     H80432   9.525   1.035   7.486  2.3233  0.0565  2.2617
  596MOL0     H80433   9.572   0.924   7.355  3.5529  3.4463 -0.9534
  596MOL0     H80434   9.498   0.799   7.621  1.4159  5.1879  0.8711
  596MOL0     H80435   9.496   0.728   7.456 -1.1055 -0.7159  0.6839
  596MOL0     H80436   9.302   0.927   7.559 -0.3144 -0.6324  0.8494
  596MOL0     H80437   9.296   0.868   7.395 -1.6368  0.7806 -0.0866
  596MOL0     H80438   9.244   0.708   7.638  0.8605  0.7163 -0.6906
  596MOL0     H80439   9.311   0.627   7.497  1.0161 -1.4951  4.7731
  596MOL0     H80440   9.050   0.799   7.484 -2.8749 -1.5175 -2.0452
  596MOL0     H80441   9.046   0.627   7.518 -1.1049 -1.3698 -2.4056
  596MOL0     H80442  10.184   1.290   7.591 -0.0739 -0.2866  0.3224
  596MOL0     H80443  10.437   1.257   7.638  0.7336  1.0012 -1.7741
  596MOL0     H80444  10.707   0.945   7.781 -0.7491  0.7423 -0.4473
  596MOL0     H80445  10.913   0.944   7.921  2.0905 -0.1232  0.0101
  596MOL0     H80446  11.424   0.575   6.585  0.7445 -1.6161 -2.1512
  596MOL0     H80447  11.264   0.474   6.428 -1.9862 -3.4572 -1.0145
  596MOL0     H80448  11.018   0.294   6.242  1.9234 -1.4256 -1.3395
  596MOL0     H80449  10.852   0.221   6.071  1.9076 -0.0887 -0.0689
  596MOL0     H80450  10.767  -0.105   5.823 -0.5186  0.7996  0.4345
  596MOL0     H80451  10.927  -0.160   5.898  0.5861  2.9041  1.2332
  596MOL0     H80452  10.645  -0.227   5.977  0.2716 -0.6513  1.2225
  596MOL0     H80453  10.769  -0.246   6.087 -0.3096 -2.8973  0.0490
  596MOL0     H80454  10.798  -0.381   5.828 -3.2523 -1.0890 -0.5422
  596MOL0     H80455  10.699  -0.456   5.949  0.1693 -0.5948 -0.3556
  596MOL0     H80456  11.002  -0.363   5.981 -1.6134  1.8717 -0.0809
  596MOL0     H80457  10.956  -0.523   5.939  0.3798  1.3246 -3.0097
  596MOL0     H80458  10.906  -0.556   6.352  3.0896 -0.3950  0.3134
  596MOL0     H80459  10.943  -0.191   6.170  0.1945 -0.5288  2.0174
  596MOL0     H80460  11.088  -0.100   6.352 -0.3679 -0.5777 -1.4418
  597MOL0     O80461   7.918   0.072   8.490 -0.0696  0.1423 -0.2580
  597MOL0     C80462   7.932   0.173   8.416  0.1742  0.4122 -0.1102
  597MOL0     O80463   7.843   0.219   8.331 -0.2600 -0.5188 -0.5492
  597MOL0     C80464   7.711   0.165   8.338 -0.6818 -0.4312  0.6179
  597MOL0     C80465   7.644   0.156   8.455  0.3627 -0.0388 -0.2433
  597MOL0     C80466   7.510   0.117   8.467 -0.3200 -0.0040  0.6828
  597MOL0     C80467   7.442   0.071   8.355 -0.0470  0.5283  0.0334
  597MOL0     O80468   7.318   0.018   8.355 -0.9948  0.2488 -0.8278
  597MOL0     C80469   7.228   0.045   8.461 -0.5976 -0.2619  0.1034
  597MOL0     C80470   7.077   0.068   8.420 -0.9140  0.0380  0.4111
  597MOL0     C80471   7.013  -0.055   8.357 -1.4966 -0.7696  0.3171
  597MOL0     C80472   6.870  -0.062   8.352  0.5229  0.0606 -0.3921
  597MOL0     C80473   6.817  -0.184   8.269 -0.4501 -0.4308 -0.8990
  597MOL0     C80474   6.832  -0.155   8.113 -0.6545 -0.1050 -1.0169
  597MOL0     C80475   6.788  -0.265   8.026 -1.0802  0.0003 -0.0026
  597MOL0     C80476   6.639  -0.258   7.999 -0.1593 -0.0387  0.0515
  597MOL0     N80477   6.612  -0.199   7.866 -0.2645  0.4962 -0.1419
  597MOL0     C80478   6.611  -0.269   7.749 -0.1779  0.4752 -0.5609
  597MOL0     C80479   6.556  -0.187   7.667  0.1767  0.6026 -0.5355
  597MOL0     C80480   6.537  -0.226   7.524 -0.4563 -0.3607 -1.0965
  597MOL0     C80481   6.479  -0.117   7.431  0.3671  0.2395  0.6116
  597MOL0     C80482   6.324  -0.118   7.396  0.6074 -0.0438  0.0736
  597MOL0     C80483   6.262  -0.007   7.482 -0.9949  0.2297 -0.6986
  597MOL0     O80484   6.134   0.027   7.435  0.6078  0.2236 -0.2123
  597MOL0     C80485   6.031  -0.062   7.472 -0.8143 -0.3833  0.0770
  597MOL0     C80486   5.929  -0.082   7.379 -0.2866 -0.5090  0.3524
  597MOL0     C80487   5.830  -0.175   7.406  0.3715 -0.1725 -0.2772
  597MOL0     C80488   5.725  -0.196   7.295 -0.1718  1.1827 -0.5483
  597MOL0     C80489   5.824  -0.245   7.532 -0.8249  0.2038 -0.0239
  597MOL0     C80490   5.725  -0.349   7.571  0.9399 -0.0445 -0.0792
  597MOL0     O80491   5.757  -0.440   7.673 -0.2373 -0.7371  0.2515
  597MOL0     C80492   5.667  -0.515   7.734  0.1290  0.7261  0.0581
  597MOL0     C80493   5.685  -0.548   7.873  0.8408 -0.0759  0.0282
  597MOL0     C80494   5.595  -0.637   7.940  0.4468  1.1038  0.5724
  597MOL0     C80495   5.484  -0.688   7.864  0.9262 -0.3044 -0.8113
  597MOL0     O80496   5.395  -0.776   7.926 -0.2443 -0.1602  0.0467
  597MOL0     C80497   5.252  -0.737   7.922  0.8570  0.4166  0.4112
  597MOL0     C80498   5.240  -0.623   8.029  0.1297  0.7009  0.6538
  597MOL0     C80499   5.097  -0.566   8.019  0.1493  0.3880 -0.0354
  597MOL0     C80500   5.090  -0.435   7.959 -0.4311  0.1791  0.5578
  597MOL0     C80501   4.944  -0.385   7.956  0.3294 -0.3634 -0.1289
  597MOL0     C80502   4.918  -0.276   7.847 -0.5882 -0.3190  0.3051
  597MOL0     C80503   4.762  -0.245   7.824  0.4455  0.2913  0.3161
  597MOL0     C80504   4.729  -0.122   7.732 -0.4774 -0.2501 -0.2296
  597MOL0    Cl80505   4.741  -0.165   7.555  0.1397  0.2538 -0.0132
  597MOL0     C80506   5.468  -0.662   7.728  0.2932  0.4334 -0.1653
  597MOL0     C80507   5.553  -0.577   7.669 -0.3823 -0.5462  0.3147
  597MOL0     O80508   5.615  -0.332   7.522  0.4603 -0.1592  0.8741
  597MOL0     C80509   5.920  -0.217   7.627 -0.0364  0.2934 -0.2841
  597MOL0     C80510   6.031  -0.146   7.587 -0.3806  0.2955 -0.7247
  597MOL0     N80511   6.526  -0.064   7.733 -0.3486  0.3430  0.5156
  597MOL0     N80512   6.563  -0.072   7.860 -0.0326 -0.1689  0.4437
  597MOL0     C80513   7.517   0.070   8.231  0.6553 -0.0511 -0.0859
  597MOL0     C80514   7.648   0.113   8.229 -1.2367  0.1837 -0.2030
  597MOL0     C80515   8.055   0.249   8.439 -0.0455 -0.2959  0.1147
  597MOL0     C80516   8.141   0.206   8.544 -0.4463  0.1944 -0.0234
  597MOL0     C80517   8.257   0.281   8.572 -0.0909  0.1559  0.3068
  597MOL0     C80518   8.318   0.372   8.477 -0.4575  0.1493 -0.2515
  597MOL0     O80519   8.443   0.429   8.496  1.2444  0.0881  0.7382
  597MOL0     C80520   8.536   0.373   8.588 -0.0534  1.1694  1.4691
  597MOL0     C80521   8.675   0.421   8.556 -0.2382 -0.2582 -0.1604
  597MOL0     C80522   8.688   0.568   8.592  0.5951  0.2301 -0.0345
  597MOL0     C80523   8.800   0.632   8.519  0.4861  0.3670 -0.0023
  597MOL0     C80524   8.844   0.753   8.577  0.3191 -1.0099  0.5767
  597MOL0     C80525   8.879   0.859   8.607 -0.0581 -0.2569  0.2580
  597MOL0     C80526   8.237   0.413   8.372 -0.1462  0.5777 -0.3638
  597MOL0     C80527   8.108   0.356   8.359 -0.5073  0.7705  0.4285
  597MOL0     H80528   7.690   0.197   8.544  0.5948 -0.9718  0.0839
  597MOL0     H80529   7.463   0.111   8.564  0.3011 -1.4027  0.9350
  597MOL0     H80530   7.231  -0.033   8.538 -2.0408 -0.7957 -0.3511
  597MOL0     H80531   7.247   0.142   8.508 -1.4649  0.1495 -0.3790
  597MOL0     H80532   7.024   0.095   8.512 -0.5332 -0.1765  0.6952
  597MOL0     H80533   7.063   0.144   8.343  1.1099  0.3466  0.2938
  597MOL0     H80534   7.062  -0.076   8.262  0.3206 -1.3048  1.3240
  597MOL0     H80535   7.044  -0.123   8.437  0.6047  0.9062  1.0397
  597MOL0     H80536   6.823  -0.058   8.450  2.0772 -1.4029  0.4630
  597MOL0     H80537   6.828   0.017   8.290 -2.6223 -4.0329 -4.1283
  597MOL0     H80538   6.853  -0.276   8.316 -2.1039 -2.0747 -2.6883
  597MOL0     H80539   6.710  -0.189   8.289 -0.2970 -1.9531 -0.2514
  597MOL0     H80540   6.768  -0.068   8.093 -4.7741 -1.9188  2.6900
  597MOL0     H80541   6.939  -0.138   8.093 -0.4431  3.4976  2.0209
  597MOL0     H80542   6.846  -0.252   7.934  0.9134  1.6104  1.3851
  597MOL0     H80543   6.816  -0.368   8.050 -2.7985 -0.1413  1.5898
  597MOL0     H80544   6.595  -0.203   8.082  0.7785  1.2247 -0.2423
  597MOL0     H80545   6.599  -0.360   7.999 -2.1688  0.7066 -0.1023
  597MOL0     H80546   6.662  -0.363   7.730  3.5431  1.9705  1.1039
  597MOL0     H80547   6.640  -0.249   7.496 -0.3562 -3.8114  1.5351
  597MOL0     H80548   6.474  -0.312   7.499  0.4875 -0.6389 -2.6306
  597MOL0     H80549   6.519  -0.132   7.331 -1.4215  1.3995 -0.3351
  597MOL0     H80550   6.522  -0.022   7.466  3.3036  0.4727 -3.0132
  597MOL0     H80551   6.273  -0.213   7.415 -0.7844  0.1861 -2.2034
  597MOL0     H80552   6.303  -0.096   7.291  0.7185 -1.9885 -0.4027
  597MOL0     H80553   6.322   0.084   7.473  1.5865 -0.7732  3.4690
  597MOL0     H80554   6.275  -0.039   7.586  2.3756 -0.0334 -1.0954
  597MOL0     H80555   5.910  -0.015   7.296  1.2703  0.7428  0.9732
  597MOL0     H80556   5.722  -0.305   7.285 -0.9584  1.0948  0.5355
  597MOL0     H80557   5.627  -0.163   7.330 -0.2580 -0.2701  0.7020
  597MOL0     H80558   5.758  -0.154   7.199  3.5143 -1.7852 -0.7992
  597MOL0     H80559   5.780  -0.517   7.915  2.2475  0.7345 -3.4190
  597MOL0     H80560   5.605  -0.674   8.042  1.7006 -1.5371 -0.4009
  597MOL0     H80561   5.213  -0.697   7.828  0.7568  2.2011  1.1815
  597MOL0     H80562   5.191  -0.824   7.948 -2.4883  3.5842  4.6313
  597MOL0     H80563   5.262  -0.668   8.126 -0.3446  2.2476  1.5257
  597MOL0     H80564   5.318  -0.548   8.013  2.0057 -0.0250  4.8848
  597MOL0     H80565   5.043  -0.576   8.113  2.2366 -2.5489  0.9984
  597MOL0     H80566   5.042  -0.634   7.954  2.3422  0.3267 -1.9673
  597MOL0     H80567   5.153  -0.365   8.015  2.0015 -2.1839  0.9707
  597MOL0     H80568   5.119  -0.439   7.853 -1.0923 -2.9980  0.4025
  597MOL0     H80569   4.916  -0.338   8.051  1.9085  1.9646 -0.7048
  597MOL0     H80570   4.873  -0.466   7.938  0.2200  0.3461 -3.6229
  597MOL0     H80571   4.973  -0.185   7.872 -1.9985  0.9698 -1.0589
  597MOL0     H80572   4.949  -0.318   7.752 -1.2572 -1.9505  0.7783
  597MOL0     H80573   4.719  -0.228   7.923  0.9421  3.1689  0.1053
  597MOL0     H80574   4.728  -0.340   7.781  3.7340 -0.4573 -0.9881
  597MOL0     H80575   4.797  -0.038   7.751 -1.7627  1.8557 -4.0144
  597MOL0     H80576   4.632  -0.071   7.740 -1.0095 -0.0589 -5.2188
  597MOL0     H80577   5.392  -0.714   7.670  1.3517 -1.4272  0.0546
  597MOL0     H80578   5.541  -0.566   7.562  0.0236 -2.1005  0.0891
  597MOL0     H80579   5.926  -0.254   7.729 -2.6129  2.9549  0.9878
  597MOL0     H80580   6.108  -0.156   7.663 -0.1076 -1.2254 -1.1526
  597MOL0     H80581   7.478   0.025   8.140 -0.2903  0.2570  0.1462
  597MOL0     H80582   7.706   0.106   8.137 -2.9246  0.3489 -1.3175
  597MOL0     H80583   8.124   0.124   8.613  1.7060 -0.1508  0.1501
  597MOL0     H80584   8.312   0.237   8.654 -0.8460 -0.8874  0.2877
  597MOL0     H80585   8.524   0.412   8.690  2.1747  0.4885  2.0498
  597MOL0     H80586   8.529   0.264   8.586 -2.1116  1.2232 -2.0202
  597MOL0     H80587   8.696   0.415   8.448 -0.6776 -0.1535 -0.2520
  597MOL0     H80588   8.740   0.351   8.610  0.3484 -1.6991 -2.5666
  597MOL0     H80589   8.699   0.578   8.700 -0.6996  1.6564  0.0089
  597MOL0     H80590   8.591   0.616   8.576  0.1609 -0.3092  0.9420
  597MOL0     H80591   8.770   0.658   8.417 -4.4819  2.8783  1.7620
  597MOL0     H80592   8.891   0.572   8.512 -1.1964 -2.2324 -0.7618
  597MOL0     H80593   8.902   0.960   8.632  4.3987 -1.5484  2.5826
  597MOL0     H80594   8.267   0.485   8.296  0.5680 -1.9642 -2.6590
  597MOL0     H80595   8.048   0.394   8.277 -2.3065  0.6452  1.6119
  598MOL0     O80596   1.254   9.461   6.257 -0.0705  0.1501 -0.1713
  598MOL0     C80597   1.171   9.379   6.294 -0.1230  0.1670 -0.6294
  598MOL0     O80598   1.038   9.382   6.270 -0.7591 -0.2609 -0.3522
  598MOL0     C80599   0.999   9.425   6.144  0.6843 -0.4680  0.7024
  598MOL0     C80600   1.024   9.554   6.104 -0.5952 -0.8369 -0.4506
  598MOL0     C80601   1.002   9.599   5.971  0.7811  0.5115 -0.7726
  598MOL0     C80602   0.959   9.512   5.878  0.4872  0.5075 -0.0471
  598MOL0     O80603   0.941   9.570   5.753 -0.2263  0.7120  0.9345
  598MOL0     C80604   0.861   9.493   5.659 -0.3264  0.3144 -0.4484
  598MOL0     C80605   0.853   9.553   5.521 -0.3645 -0.6674  0.2222
  598MOL0     C80606   0.772   9.459   5.427 -0.2735 -0.0419  1.2175
  598MOL0     C80607   0.742   9.515   5.280  0.3162  0.2285 -0.3392
  598MOL0     C80608   0.656   9.644   5.288  0.9473 -0.2307  0.5512
  598MOL0     C80609   0.581   9.656   5.155  0.1487  0.3034  0.0018
  598MOL0     C80610   0.512   9.790   5.139 -0.4849  0.0451 -0.7651
  598MOL0     C80611   0.469   9.797   4.986 -0.2470 -0.3947 -0.9668
  598MOL0     N80612   0.367   9.704   4.947  0.2395 -0.6416 -0.5148
  598MOL0     C80613   0.246   9.694   5.011  0.1735 -0.4665 -0.1718
  598MOL0     C80614   0.169   9.596   4.937 -0.1224  0.5084  0.8064
  598MOL0     C80615   0.029   9.554   4.974 -0.2146  0.8123  0.8308
  598MOL0     C80616  -0.080   9.634   4.910 -0.0908 -0.0118 -0.7908
  598MOL0     C80617  -0.064   9.659   4.764 -0.8516  0.4882  0.7159
  598MOL0     C80618  -0.201   9.655   4.698 -0.1060 -0.1557  0.8059
  598MOL0     O80619  -0.274   9.768   4.742  0.7493  0.5774  0.2146
  598MOL0     C80620  -0.396   9.786   4.684  0.0081  0.0705  0.9787
  598MOL0     C80621  -0.451   9.715   4.574 -0.1657 -0.1157  1.2555
  598MOL0     C80622  -0.580   9.723   4.529  0.3966  0.0327 -0.2977
  598MOL0     C80623  -0.624   9.633   4.413 -0.0666 -0.0284 -0.4622
  598MOL0     C80624  -0.669   9.812   4.592  0.6159  0.0718 -0.8953
  598MOL0     C80625  -0.808   9.832   4.563  0.3722  0.0611 -0.9909
  598MOL0     O80626  -0.888   9.878   4.661  0.2453 -0.8846  0.0505
  598MOL0     C80627  -1.020   9.916   4.643 -0.5028 -0.2254 -0.3065
  598MOL0     C80628  -1.112   9.866   4.731 -0.5531  0.5542  0.9165
  598MOL0     C80629  -1.246   9.903   4.714 -0.2477 -0.5697  0.6053
  598MOL0     C80630  -1.292   9.989   4.617  0.1821 -0.6540  0.5168
  598MOL0     O80631  -1.424  10.016   4.607  0.6657  0.0613  0.1480
  598MOL0     C80632  -1.472  10.117   4.510  0.2930  1.2259  0.2280
  598MOL0     C80633  -1.613  10.156   4.532  0.7068 -1.5427 -0.2504
  598MOL0     C80634  -1.659  10.175   4.668  0.1302 -0.9319 -0.0775
  598MOL0     C80635  -1.799  10.241   4.688  0.7021  0.3863 -0.4466
  598MOL0     C80636  -1.912  10.164   4.617 -0.7129  0.9526 -0.1181
  598MOL0     C80637  -2.051  10.180   4.657  0.1792 -0.9832  0.1794
  598MOL0     C80638  -2.095  10.326   4.661 -0.1430 -1.1574  0.5439
  598MOL0     C80639  -2.236  10.350   4.682  0.6241  0.5463  0.4306
  598MOL0    Cl80640  -2.275  10.529   4.698  0.2488  0.4101  0.1915
  598MOL0     C80641  -1.194  10.039   4.527 -0.9368  0.7603  0.4372
  598MOL0     C80642  -1.061   9.994   4.537 -0.2684  0.8825  0.4633
  598MOL0     O80643  -0.844   9.780   4.458 -1.2603 -0.9898 -0.4723
  598MOL0     C80644  -0.615   9.885   4.703  0.8496  0.8282 -0.1899
  598MOL0     C80645  -0.490   9.865   4.746 -0.1912 -0.3493  0.4732
  598MOL0     N80646   0.250   9.573   4.824  0.5042  0.3330  0.3111
  598MOL0     N80647   0.365   9.629   4.832  0.3596  1.0897  1.2171
  598MOL0     C80648   0.935   9.379   5.910 -0.2352  0.5010 -0.7342
  598MOL0     C80649   0.954   9.338   6.044  1.4468  0.1007 -0.1331
  598MOL0     C80650   1.217   9.265   6.382 -0.0769  0.0075 -0.4752
  598MOL0     C80651   1.149   9.139   6.387 -0.3900  0.5686  0.2374
  598MOL0     C80652   1.198   9.033   6.467 -0.0138  0.0593  0.4648
  598MOL0     C80653   1.311   9.042   6.549 -0.5015  0.5371  0.0880
  598MOL0     O80654   1.372   8.932   6.611 -0.7813 -0.6900  0.2996
  598MOL0     C80655   1.294   8.809   6.619 -0.4007  0.2913 -0.3093
  598MOL0     C80656   1.201   8.824   6.743  0.1470  0.2131  0.2629
  598MOL0     C80657   1.281   8.836   6.879  0.3171  0.1754 -1.2169
  598MOL0     C80658   1.321   8.705   6.935 -0.2170  0.2013 -0.1778
  598MOL0     C80659   1.381   8.725   7.073 -0.7434  0.5801  0.3699
  598MOL0     C80660   1.422   8.740   7.188  0.7362  0.2533  0.0232
  598MOL0     C80661   1.375   9.168   6.555 -1.1907  0.2228  0.5244
  598MOL0     C80662   1.337   9.273   6.462  0.9319  0.6970  0.3681
  598MOL0     H80663   1.063   9.620   6.181 -1.6925 -1.6098  0.8150
  598MOL0     H80664   0.998   9.706   5.953  2.6410  0.6726 -0.4210
  598MOL0     H80665   0.912   9.398   5.644 -1.6297 -1.1075  2.9935
  598MOL0     H80666   0.759   9.481   5.697 -0.8327 -1.0494 -2.0884
  598MOL0     H80667   0.811   9.653   5.536  1.7014 -0.0215  2.2892
  598MOL0     H80668   0.956   9.569   5.487  0.3767  1.4445  3.0646
  598MOL0     H80669   0.827   9.365   5.424 -1.0703 -0.4978 -0.7729
  598MOL0     H80670   0.673   9.445   5.471  0.0555 -0.2206  1.9134
  598MOL0     H80671   0.839   9.529   5.232 -0.6774  0.8393 -2.2563
  598MOL0     H80672   0.691   9.441   5.219 -3.0691  2.0736  0.0153
  598MOL0     H80673   0.594   9.626   5.376  1.5981  0.8205  1.2438
  598MOL0     H80674   0.728   9.722   5.312  1.8097 -1.7749  3.4640
  598MOL0     H80675   0.652   9.628   5.077  0.1851 -0.3974  0.2798
  598MOL0     H80676   0.504   9.578   5.153 -1.1674  1.5516  0.5018
  598MOL0     H80677   0.424   9.787   5.203  2.5258 -0.4845  3.8265
  598MOL0     H80678   0.570   9.879   5.168  0.5100 -0.5402 -0.9155
  598MOL0     H80679   0.559   9.765   4.933  0.6990 -2.1779  1.5248
  598MOL0     H80680   0.445   9.901   4.963 -1.2991 -0.4559 -0.2144
  598MOL0     H80681   0.203   9.747   5.096  2.2069  1.7349 -0.4053
  598MOL0     H80682   0.026   9.456   4.926  1.0069  1.4751 -0.6961
  598MOL0     H80683   0.014   9.565   5.082  0.1137  1.3849  0.8191
  598MOL0     H80684  -0.092   9.721   4.974  0.1609 -1.2841  1.0623
  598MOL0     H80685  -0.174   9.582   4.926 -1.4413  2.1579 -1.2596
  598MOL0     H80686   0.017   9.594   4.728  1.0985  1.5378  2.9006
  598MOL0     H80687  -0.033   9.762   4.744  0.4612  0.3538  1.8654
  598MOL0     H80688  -0.249   9.564   4.734 -1.1475  0.9047  2.2235
  598MOL0     H80689  -0.184   9.669   4.590  2.5069  6.0290  1.5571
  598MOL0     H80690  -0.401   9.632   4.526  0.4529  1.1703 -0.4065
  598MOL0     H80691  -0.609   9.694   4.323 -0.7145  1.4267  0.3879
  598MOL0     H80692  -0.545   9.559   4.397 -0.0484 -0.0956 -0.0623
  598MOL0     H80693  -0.720   9.582   4.412 -0.1612  0.0754 -2.5972
  598MOL0     H80694  -1.078   9.812   4.818 -2.7156  3.0346  3.4773
  598MOL0     H80695  -1.324   9.863   4.777  0.0004 -1.0874  0.5901
  598MOL0     H80696  -1.410  10.207   4.507 -0.4292  1.7351  0.2850
  598MOL0     H80697  -1.469  10.066   4.414 -3.3677 -0.2007  0.7177
  598MOL0     H80698  -1.632  10.250   4.479 -0.0058 -1.3801  0.2744
  598MOL0     H80699  -1.672  10.077   4.484 -1.1280  0.9725 -2.4525
  598MOL0     H80700  -1.594  10.253   4.709  1.9613 -1.5234 -1.6792
  598MOL0     H80701  -1.656  10.088   4.734 -1.2499 -1.8991 -1.2160
  598MOL0     H80702  -1.822  10.245   4.795 -3.1334 -1.7325 -0.9822
  598MOL0     H80703  -1.797  10.343   4.648  0.8421  0.3162 -0.6215
  598MOL0     H80704  -1.892  10.057   4.631  1.6293  0.9419 -2.6136
  598MOL0     H80705  -1.908  10.189   4.511  1.4904  2.0048  0.1527
  598MOL0     H80706  -2.130  10.122   4.607 -0.2222 -0.1963 -0.1238
  598MOL0     H80707  -2.050  10.147   4.761 -0.2121 -3.3902 -0.5071
  598MOL0     H80708  -2.077  10.378   4.566 -1.8504 -2.4996 -0.5890
  598MOL0     H80709  -2.052  10.378   4.747 -3.0454 -2.4528  2.9270
  598MOL0     H80710  -2.273  10.296   4.769 -1.9774  0.8799 -0.3831
  598MOL0     H80711  -2.294  10.314   4.596  2.5270 -1.4171 -0.1433
  598MOL0     H80712  -1.226  10.097   4.440 -2.4217 -0.3614  0.1840
  598MOL0     H80713  -0.988  10.034   4.468 -1.5617  3.1603  0.2900
  598MOL0     H80714  -0.685   9.943   4.762  1.0556  0.2325  0.6612
  598MOL0     H80715  -0.457   9.898   4.844 -1.4876 -1.2818  1.2544
  598MOL0     H80716   0.905   9.306   5.836 -0.5563  1.4924 -1.6159
  598MOL0     H80717   0.973   9.232   6.059 -0.6205 -0.3551 -0.3991
  598MOL0     H80718   1.072   9.117   6.314  0.4317  0.0921 -0.5092
  598MOL0     H80719   1.149   8.937   6.475  1.5236 -0.6575  2.0295
  598MOL0     H80720   1.236   8.777   6.531  2.4822 -0.7176 -1.9910
  598MOL0     H80721   1.366   8.729   6.639 -0.1072  0.7249  0.3862
  598MOL0     H80722   1.123   8.749   6.728 -1.5158  2.0876 -1.1169
  598MOL0     H80723   1.147   8.919   6.738 -0.8638 -0.4068 -2.9479
  598MOL0     H80724   1.222   8.887   6.957  1.5461  1.2558 -0.9622
  598MOL0     H80725   1.373   8.893   6.866  0.9547 -0.2583  0.8748
  598MOL0     H80726   1.386   8.650   6.867  1.7794  1.1541  0.8662
  598MOL0     H80727   1.226   8.661   6.966 -1.0166  1.4098 -0.8382
  598MOL0     H80728   1.463   8.762   7.285  2.1290  0.1817 -0.5159
  598MOL0     H80729   1.469   9.165   6.609 -1.4776  0.0983  1.0201
  598MOL0     H80730   1.408   9.352   6.437  0.8332 -0.3658 -4.2014
  599MOL0     O80731   5.807   8.941  11.386  0.1502 -0.8028  0.3324
  599MOL0     C80732   5.776   8.822  11.386 -0.0727 -0.5310  0.2750
  599MOL0     O80733   5.654   8.771  11.379 -0.5719 -0.7600  0.6920
  599MOL0     C80734   5.539   8.855  11.359  1.1555  0.4060  0.5410
  599MOL0     C80735   5.522   8.976  11.424  1.5933 -0.2208  0.0207
  599MOL0     C80736   5.408   9.062  11.406 -0.0871  0.8008 -0.3106
  599MOL0     C80737   5.321   9.034  11.300  0.5034 -0.4005 -0.2993
  599MOL0     O80738   5.210   9.102  11.260 -0.2408  0.3484 -0.0595
  599MOL0     C80739   5.179   9.219  11.337  0.3943 -0.7065 -0.0127
  599MOL0     C80740   5.063   9.292  11.270  0.5768  0.2968 -0.0856
  599MOL0     C80741   4.941   9.214  11.226 -1.1230  0.1316  0.2627
  599MOL0     C80742   4.869   9.125  11.333 -0.5060 -0.2581  0.1509
  599MOL0     C80743   4.749   9.039  11.280  0.1504  0.5452 -0.2016
  599MOL0     C80744   4.626   9.111  11.247 -0.2880  0.3877 -0.4442
  599MOL0     C80745   4.562   9.181  11.369  0.3765 -0.0950 -0.5888
  599MOL0     C80746   4.444   9.274  11.332  0.0112 -0.0145 -0.1193
  599MOL0     N80747   4.362   9.326  11.445  0.5540  0.4965 -0.5359
  599MOL0     C80748   4.287   9.442  11.438 -0.0207 -0.0734 -0.9148
  599MOL0     C80749   4.221   9.447  11.554 -0.7786  0.2456  1.0335
  599MOL0     C80750   4.159   9.570  11.617  0.6120  0.2841  0.7797
  599MOL0     C80751   4.073   9.556  11.738 -0.0508  0.3400  0.3857
  599MOL0     C80752   4.060   9.700  11.810  1.0975 -0.1411 -0.3305
  599MOL0     C80753   3.964   9.700  11.934  0.1036 -0.2755  1.2637
  599MOL0     O80754   3.980   9.591  12.023  0.0994  0.4689  0.0302
  599MOL0     C80755   3.867   9.551  12.084  0.3199  0.4547  0.0655
  599MOL0     C80756   3.789   9.633  12.162  0.0880  0.8234  0.0764
  599MOL0     C80757   3.661   9.598  12.205  0.0414 -0.0853 -0.7752
  599MOL0     C80758   3.562   9.709  12.259 -0.0849  0.7153 -0.8280
  599MOL0     C80759   3.618   9.471  12.158 -0.2127 -0.0913 -0.9611
  599MOL0     C80760   3.475   9.435  12.175  0.0381  0.1500  0.5753
  599MOL0     O80761   3.425   9.440  12.299  0.0645 -0.3887  0.6083
  599MOL0     C80762   3.301   9.381  12.311 -0.4443  0.0090  0.6143
  599MOL0     C80763   3.257   9.267  12.249 -0.6454 -0.1274  0.3645
  599MOL0     C80764   3.122   9.211  12.251  0.6845  0.5839  0.6045
  599MOL0     C80765   3.022   9.270  12.326 -0.2210  0.6551 -0.3132
  599MOL0     O80766   2.891   9.213  12.325 -0.3337 -0.5853  0.4972
  599MOL0     C80767   2.794   9.306  12.372  0.0374 -0.6472  1.2354
  599MOL0     C80768   2.662   9.237  12.413  0.0789  1.1702  0.1809
  599MOL0     C80769   2.562   9.251  12.292  0.7487 -0.1672 -0.0531
  599MOL0     C80770   2.421   9.258  12.332  0.8872  0.6145 -1.1047
  599MOL0     C80771   2.326   9.274  12.208 -0.4124  0.4637  0.5319
  599MOL0     C80772   2.182   9.247  12.254 -1.5160  0.3157  0.0346
  599MOL0     C80773   2.095   9.247  12.130 -0.2501  0.7566  0.4608
  599MOL0     C80774   1.955   9.281  12.164 -0.6647 -0.2013  0.8082
  599MOL0    Cl80775   1.894   9.154  12.275  0.0992 -0.1867  0.0402
  599MOL0     C80776   3.068   9.387  12.397  0.3198 -0.0655  0.1192
  599MOL0     C80777   3.203   9.437  12.392  0.2024  0.0085 -0.3708
  599MOL0     O80778   3.418   9.399  12.068 -0.0050  0.1893 -0.3025
  599MOL0     C80779   3.700   9.378  12.095  0.0024 -0.5428 -0.3812
  599MOL0     C80780   3.819   9.422  12.047 -0.4739 -0.0632 -0.1978
  599MOL0     N80781   4.235   9.325  11.613 -0.2789  0.9370 -0.2292
  599MOL0     N80782   4.320   9.254  11.551  0.7030 -0.2636 -0.1439
  599MOL0     C80783   5.335   8.909  11.240  0.2643 -0.2184 -0.0804
  599MOL0     C80784   5.442   8.821  11.270 -0.2250  0.7498 -0.0669
  599MOL0     C80785   5.888   8.734  11.384 -0.9548  0.6056  0.0530
  599MOL0     C80786   5.866   8.600  11.409 -0.2423  0.6467  0.0893
  599MOL0     C80787   5.979   8.509  11.438 -0.9727  0.1662 -0.0406
  599MOL0     C80788   6.115   8.549  11.406  1.9043  0.3680 -0.2587
  599MOL0     O80789   6.215   8.459  11.397 -0.3709 -0.2585 -0.2696
  599MOL0     C80790   6.336   8.503  11.468  0.1164 -0.3379  0.1903
  599MOL0     C80791   6.318   8.554  11.613  1.0285  0.3546  0.4782
  599MOL0     C80792   6.445   8.572  11.686  0.4710 -0.3664 -0.1134
  599MOL0     C80793   6.424   8.604  11.830 -0.6948 -0.2505 -0.6666
  599MOL0     C80794   6.374   8.492  11.912  0.2441  0.1725 -0.0060
  599MOL0     C80795   6.337   8.384  11.960  0.6525  0.0740  0.2152
  599MOL0     C80796   6.134   8.685  11.372 -0.1582 -0.6340  0.7041
  599MOL0     C80797   6.025   8.776  11.371 -0.1323 -0.8761  0.1603
  599MOL0     H80798   5.595   9.013  11.495  0.0213  1.7427  0.7309
  599MOL0     H80799   5.386   9.140  11.477  1.0438  0.3481  0.5615
  599MOL0     H80800   5.169   9.183  11.439  0.5218 -3.0439 -0.7602
  599MOL0     H80801   5.266   9.285  11.340 -0.3513  0.2240  1.7218
  599MOL0     H80802   5.037   9.372  11.340  0.5238 -0.7594  1.1441
  599MOL0     H80803   5.103   9.338  11.179 -2.0665 -0.0219 -1.4924
  599MOL0     H80804   4.881   9.290  11.175  0.6132  2.3028  1.2964
  599MOL0     H80805   4.978   9.144  11.150 -2.9992 -1.3035  0.5901
  599MOL0     H80806   4.941   9.058  11.382 -1.7496 -1.2370  0.6937
  599MOL0     H80807   4.838   9.200  11.407  3.3337 -0.6436  2.4355
  599MOL0     H80808   4.781   8.984  11.191  2.2889  0.8089  0.3510
  599MOL0     H80809   4.720   8.970  11.360  0.0989  1.8090  0.9051
  599MOL0     H80810   4.655   9.184  11.171 -2.2527  1.9065  0.1913
  599MOL0     H80811   4.549   9.040  11.216 -0.5974 -0.2197  1.5781
  599MOL0     H80812   4.519   9.102  11.431 -1.4473  4.1894  4.4267
  599MOL0     H80813   4.628   9.240  11.434 -0.9652 -0.7018  1.4047
  599MOL0     H80814   4.368   9.218  11.275  0.2195  1.7099 -2.1921
  599MOL0     H80815   4.470   9.361  11.271  1.4234 -1.4070 -1.6094
  599MOL0     H80816   4.295   9.531  11.377  1.7132  0.9171  0.6807
  599MOL0     H80817   4.252   9.617  11.651  0.2672  0.7321  1.1148
  599MOL0     H80818   4.112   9.619  11.532 -0.0471  0.1208  1.0452
  599MOL0     H80819   4.132   9.494  11.806  0.8695  0.3726 -0.3712
  599MOL0     H80820   3.975   9.511  11.716  0.2570  0.6828 -1.9388
  599MOL0     H80821   4.024   9.780  11.746  1.6620  2.2277  2.1224
  599MOL0     H80822   4.160   9.725  11.849  1.0926 -1.4028  0.5677
  599MOL0     H80823   3.867   9.690  11.885  0.4212  1.6834  0.1298
  599MOL0     H80824   3.964   9.797  11.985 -0.5396 -0.3376  1.3801
  599MOL0     H80825   3.825   9.734  12.172  0.6469  0.6423 -0.1017
  599MOL0     H80826   3.547   9.786  12.183  0.0854  1.1792 -0.3990
  599MOL0     H80827   3.467   9.668  12.295  1.0972 -2.1605 -0.7346
  599MOL0     H80828   3.607   9.769  12.338 -1.8851  0.6687  0.2899
  599MOL0     H80829   3.326   9.215  12.182 -1.7615 -1.1974  0.0208
  599MOL0     H80830   3.102   9.126  12.186 -1.1711  1.0663  0.4805
  599MOL0     H80831   2.823   9.343  12.471 -1.0527 -0.1709  1.3894
  599MOL0     H80832   2.777   9.385  12.299 -0.6915 -2.5478 -0.7739
  599MOL0     H80833   2.684   9.134  12.442 -3.3543  0.0562 -0.7592
  599MOL0     H80834   2.610   9.280  12.499  0.7037 -1.8550  2.2278
  599MOL0     H80835   2.567   9.172  12.217 -1.6021 -2.2658  1.8345
  599MOL0     H80836   2.583   9.344  12.238  3.1374 -2.0350 -2.6061
  599MOL0     H80837   2.401   9.170  12.394  1.5099 -0.2663 -2.1202
  599MOL0     H80838   2.402   9.343  12.398 -0.4121 -0.4468 -0.0185
  599MOL0     H80839   2.354   9.191  12.143  1.7163 -1.3306  3.4947
  599MOL0     H80840   2.343   9.374  12.166  2.6611  0.4273  1.4752
  599MOL0     H80841   2.166   9.157  12.313 -0.5808  0.7310  0.9411
  599MOL0     H80842   2.164   9.341  12.307  1.4173  0.1706  1.4390
  599MOL0     H80843   2.094   9.149  12.082 -1.3880  1.6891 -1.5610
  599MOL0     H80844   2.128   9.316  12.051  4.2248 -0.7672  0.7307
  599MOL0     H80845   1.890   9.270  12.077 -2.1041  1.2532  1.6454
  599MOL0     H80846   1.946   9.380  12.210  2.0359  0.5944 -0.1484
  599MOL0     H80847   2.992   9.460  12.424  1.2997  2.1312 -2.5533
  599MOL0     H80848   3.219   9.530  12.446 -2.0663  0.6309 -0.6742
  599MOL0     H80849   3.654   9.282  12.074 -0.2460 -0.6301  0.5203
  599MOL0     H80850   3.885   9.367  11.980  1.0593  0.4177  0.8715
  599MOL0     H80851   5.251   8.874  11.180 -0.8698  2.5940 -0.2698
  599MOL0     H80852   5.441   8.730  11.211 -0.2356  1.5942 -1.4248
  599MOL0     H80853   5.774   8.550  11.438 -1.6622  2.7814 -0.5246
  599MOL0     H80854   5.955   8.408  11.468 -0.2008  0.1480  0.5547
  599MOL0     H80855   6.389   8.407  11.460  0.7005  0.1353 -2.5347
  599MOL0     H80856   6.398   8.571  11.408  0.4194  0.1833  1.0832
  599MOL0     H80857   6.247   8.503  11.678 -1.1219  1.7397 -0.6780
  599MOL0     H80858   6.276   8.654  11.604 -0.2327 -0.1636  0.4509
  599MOL0     H80859   6.503   8.649  11.634  1.4504 -1.1889 -0.2767
  599MOL0     H80860   6.501   8.478  11.685 -1.5755 -1.6754 -2.0550
  599MOL0     H80861   6.349   8.682  11.848 -0.2725  0.0204 -0.0408
  599MOL0     H80862   6.511   8.639  11.887 -2.4764 -1.2784  3.0351
  599MOL0     H80863   6.294   8.292  11.994 -0.2232 -0.0551 -1.1675
  599MOL0     H80864   6.227   8.722  11.331 -0.8649 -1.4723 -1.8384
  599MOL0     H80865   6.038   8.883  11.358 -1.5721 -0.5991  0.7889
  600MOL0     O80866  10.715  10.163   3.512  0.5520  0.3568 -0.4290
  600MOL0     C80867  10.688  10.195   3.626  0.3644 -0.1725  0.6849
  600MOL0     O80868  10.563  10.215   3.671 -0.5747 -0.8872  0.2489
  600MOL0     C80869  10.453  10.199   3.586  0.8863 -1.1731 -0.2364
  600MOL0     C80870  10.355  10.110   3.640 -0.4374  0.7953 -0.5802
  600MOL0     C80871  10.244  10.076   3.561 -0.2064 -0.4347  0.4211
  600MOL0     C80872  10.221  10.144   3.434 -0.5696  0.6663  0.2897
  600MOL0     O80873  10.114  10.096   3.349  0.2417 -0.8418  0.1189
  600MOL0     C80874  10.095  10.127   3.213 -0.2494  0.4127  0.0276
  600MOL0     C80875   9.982  10.044   3.163  0.2382 -0.1906 -0.0092
  600MOL0     C80876   9.959  10.084   3.017  0.6764 -0.5301 -0.5831
  600MOL0     C80877  10.032   9.982   2.939  1.0561  0.2556 -0.1622
  600MOL0     C80878  10.040  10.034   2.802  0.5683  0.6455 -0.8709
  600MOL0     C80879   9.908  10.056   2.736  0.3547  0.0399 -0.1786
  600MOL0     C80880   9.926  10.058   2.578  0.5797  0.7566  0.3455
  600MOL0     C80881   9.919   9.918   2.517  0.1874 -0.0391 -0.6522
  600MOL0     N80882   9.916   9.919   2.374  1.0771 -0.0681 -0.7770
  600MOL0     C80883   9.862   9.822   2.299  0.0092  0.4798 -0.0707
  600MOL0     C80884   9.887   9.859   2.167 -0.9746  0.0009  0.3852
  600MOL0     C80885   9.846   9.775   2.051 -0.6878  0.0201  0.8563
  600MOL0     C80886   9.715   9.824   2.008 -0.1488 -0.6915  0.8837
  600MOL0     C80887   9.690   9.769   1.861  0.9061  0.7515 -0.0559
  600MOL0     C80888   9.759   9.852   1.759 -0.1385 -0.7091  0.0789
  600MOL0     O80889   9.893   9.806   1.738  0.3209 -0.3706 -0.2552
  600MOL0     C80890   9.978   9.894   1.671 -0.6642 -0.3511 -1.0068
  600MOL0     C80891   9.965   9.943   1.538  0.5430  0.0524  0.6905
  600MOL0     C80892  10.054  10.033   1.481  0.8801  0.5476  0.4251
  600MOL0     C80893  10.024  10.102   1.347  0.4822  0.1545 -1.2367
  600MOL0     C80894  10.166  10.080   1.555  1.0215  0.0067 -0.1224
  600MOL0     C80895  10.268  10.177   1.499  0.7704  0.0378  0.3672
  600MOL0     O80896  10.324  10.135   1.388  0.5861 -0.3231 -0.4935
  600MOL0     C80897  10.416  10.205   1.326 -0.7833 -0.7213  0.7818
  600MOL0     C80898  10.376  10.267   1.207  0.2404  0.1610 -0.2802
  600MOL0     C80899  10.469  10.353   1.142 -0.3890 -0.2775  1.3814
  600MOL0     C80900  10.591  10.394   1.205 -1.1421  1.1859 -0.0866
  600MOL0     O80901  10.669  10.492   1.149 -0.5275 -0.0308  1.0632
  600MOL0     C80902  10.684  10.608   1.234 -0.0578 -0.6363  0.0779
  600MOL0     C80903  10.559  10.685   1.257 -0.8840 -1.0360 -0.8258
  600MOL0     C80904  10.593  10.831   1.303  0.1749  0.7514  0.1171
  600MOL0     C80905  10.640  10.836   1.445 -0.0136  0.2997 -0.6220
  600MOL0     C80906  10.626  10.979   1.482 -0.0317 -0.5747 -0.5095
  600MOL0     C80907  10.712  11.012   1.611 -0.1380  0.0768  0.0683
  600MOL0     C80908  10.859  11.044   1.576  0.3222  0.6926  0.0695
  600MOL0     C80909  10.918  11.109   1.705 -0.0551 -0.9584  0.3787
  600MOL0    Cl80910  10.928  10.988   1.841  0.0457 -0.1703 -0.2967
  600MOL0     C80911  10.631  10.317   1.320  0.0250  0.1975  0.4040
  600MOL0     C80912  10.545  10.227   1.379  0.0055  1.2997  0.3431
  600MOL0     O80913  10.310  10.275   1.562  0.5501 -0.5445 -0.4636
  600MOL0     C80914  10.182  10.018   1.678  0.4144  0.1133  0.0040
  600MOL0     C80915  10.089   9.937   1.741 -0.6526  0.2011 -0.0075
  600MOL0     N80916   9.944   9.980   2.170 -0.4407 -0.0663 -0.5312
  600MOL0     N80917   9.961  10.016   2.289  0.5431 -0.2128 -0.5645
  600MOL0     C80918  10.311  10.239   3.391 -0.3024  0.9015  0.4130
  600MOL0     C80919  10.428  10.259   3.465  0.3273  0.0156 -0.0390
  600MOL0     C80920  10.801  10.226   3.715 -0.4765  0.7941 -0.4761
  600MOL0     C80921  10.777  10.238   3.852 -0.1480 -0.2265  0.2483
  600MOL0     C80922  10.878  10.251   3.942 -1.1974  0.5985  0.4152
  600MOL0     C80923  11.012  10.241   3.903 -0.1593  0.4695 -1.0575
  600MOL0     O80924  11.102  10.236   4.005  0.4728 -0.3611  0.0967
  600MOL0     C80925  11.194  10.347   4.005 -0.2118 -0.3524 -0.8875
  600MOL0     C80926  11.258  10.374   4.142 -0.3068 -0.1573  0.6059
  600MOL0     C80927  11.321  10.514   4.169  0.8051 -0.0015  0.2767
  600MOL0     C80928  11.340  10.540   4.316  0.2186  0.5755 -0.0108
  600MOL0     C80929  11.212  10.564   4.387  0.4549  0.5043 -0.3358
  600MOL0     C80930  11.112  10.574   4.454  0.4333  0.0060 -0.4809
  600MOL0     C80931  11.034  10.223   3.765  0.3301  0.6834  0.0507
  600MOL0     C80932  10.930  10.216   3.671 -1.2104 -0.2798  0.0066
  600MOL0     H80933  10.355  10.068   3.741 -0.7376 -1.3529 -1.4244
  600MOL0     H80934  10.163  10.005   3.575 -2.4945  1.3562 -2.4825
  600MOL0     H80935  10.079  10.234   3.204 -1.6147  0.2534  0.2456
  600MOL0     H80936  10.181  10.107   3.149 -1.2722  0.6695 -1.4560
  600MOL0     H80937   9.991   9.935   3.171 -0.0868 -0.2166  0.0094
  600MOL0     H80938   9.900  10.081   3.224  1.7206  4.1455 -0.3358
  600MOL0     H80939   9.852  10.091   2.994  1.0332  1.9326 -1.7936
  600MOL0     H80940   9.995  10.186   3.002  1.2269 -0.2465  2.2263
  600MOL0     H80941  10.133   9.963   2.978  1.1422 -0.8653 -0.9181
  600MOL0     H80942   9.981   9.886   2.940 -0.0124  0.7552 -2.0901
  600MOL0     H80943  10.105  10.122   2.802 -0.6510  1.7625 -4.9942
  600MOL0     H80944  10.092   9.950   2.754  1.3231  1.2489 -1.1384
  600MOL0     H80945   9.836   9.977   2.759  1.0572 -1.6680 -3.2900
  600MOL0     H80946   9.866  10.152   2.767  0.9435 -0.0016  0.7752
  600MOL0     H80947   9.845  10.109   2.524  1.5838 -0.6862 -2.7502
  600MOL0     H80948  10.014  10.105   2.534 -0.4193  0.7051 -1.8180
  600MOL0     H80949   9.833   9.859   2.548  1.6111 -2.8448 -1.7458
  600MOL0     H80950  10.013   9.872   2.548 -0.3419 -1.1989 -0.7197
  600MOL0     H80951   9.792   9.743   2.327 -0.0830  0.8487  0.7398
  600MOL0     H80952   9.921   9.794   1.974 -2.3923  2.1547 -0.3702
  600MOL0     H80953   9.836   9.667   2.063 -2.7500 -0.8795 -5.3042
  600MOL0     H80954   9.704   9.933   2.018  2.4378 -0.0524 -1.8136
  600MOL0     H80955   9.637   9.771   2.064 -1.4602 -0.3926 -0.6005
  600MOL0     H80956   9.583   9.777   1.842  0.8984  1.8653  0.4007
  600MOL0     H80957   9.716   9.663   1.846  0.2417  0.8165 -1.7809
  600MOL0     H80958   9.760   9.958   1.785 -0.3733 -0.5916 -0.3833
  600MOL0     H80959   9.714   9.848   1.659 -1.3176  0.0028  0.5584
  600MOL0     H80960   9.882   9.918   1.472  0.2245  1.2815  0.6043
  600MOL0     H80961  10.000  10.206   1.371  0.0358 -0.1294 -0.4144
  600MOL0     H80962  10.099  10.097   1.268 -1.5266 -1.7771 -3.1967
  600MOL0     H80963   9.929  10.065   1.307  0.3105 -0.8928  0.0619
  600MOL0     H80964  10.277  10.249   1.165 -0.3948  0.8610  0.8684
  600MOL0     H80965  10.427  10.397   1.052 -2.4049 -2.1076  1.3486
  600MOL0     H80966  10.719  10.574   1.332  0.3648 -3.0513 -0.8348
  600MOL0     H80967  10.754  10.676   1.186  0.6019 -1.6946 -0.4999
  600MOL0     H80968  10.500  10.693   1.166 -0.2696 -0.6090 -1.1927
  600MOL0     H80969  10.502  10.637   1.337  0.6218  0.6143  1.3501
  600MOL0     H80970  10.498  10.882   1.284 -0.1900  1.3241  2.9400
  600MOL0     H80971  10.675  10.880   1.249  0.8824 -0.6444 -0.1010
  600MOL0     H80972  10.574  10.783   1.514  0.1146  2.2070  1.0480
  600MOL0     H80973  10.743  10.800   1.458 -0.2869  0.5383  3.2162
  600MOL0     H80974  10.523  11.000   1.512 -0.0044 -0.9343 -0.1502
  600MOL0     H80975  10.665  11.044   1.403 -0.6656 -0.4282 -0.7069
  600MOL0     H80976  10.662  11.091   1.667  0.5850  2.9380 -2.9663
  600MOL0     H80977  10.708  10.925   1.677  0.8259  0.4815  0.6909
  600MOL0     H80978  10.871  11.115   1.494  0.5586  0.5713 -0.0016
  600MOL0     H80979  10.912  10.953   1.545 -1.1525 -0.2942  0.3498
  600MOL0     H80980  10.860  11.200   1.725 -0.1175 -0.4087 -2.0326
  600MOL0     H80981  11.016  11.152   1.685 -0.1071 -1.5666 -1.3054
  600MOL0     H80982  10.728  10.331   1.365  0.2477 -1.0844  0.3665
  600MOL0     H80983  10.583  10.185   1.472  1.7559  0.7580 -0.5705
  600MOL0     H80984  10.268  10.051   1.737  0.0690  0.6834  0.1994
  600MOL0     H80985  10.115   9.894   1.838 -0.1956  1.0152  0.2406
  600MOL0     H80986  10.300  10.293   3.297 -0.2548  0.7821  0.3393
  600MOL0     H80987  10.500  10.334   3.434  0.5966  0.3642  1.3570
  600MOL0     H80988  10.674  10.235   3.886  0.0487 -1.8037  0.8380
  600MOL0     H80989  10.858  10.273   4.046 -0.3630  1.0951  0.4789
  600MOL0     H80990  11.281  10.336   3.938 -1.6626 -0.0826 -2.9098
  600MOL0     H80991  11.145  10.441   3.980 -0.5009 -0.2418  0.0567
  600MOL0     H80992  11.336  10.300   4.160 -1.2094 -2.0145 -2.4341
  600MOL0     H80993  11.181  10.364   4.219 -1.8292  3.8160 -0.1724
  600MOL0     H80994  11.256  10.590   4.126  0.7114  0.7006  1.6088
  600MOL0     H80995  11.420  10.518   4.123  1.3643 -2.1072  1.1522
  600MOL0     H80996  11.406  10.626   4.333 -0.6499  1.1647  0.4711
  600MOL0     H80997  11.389  10.452   4.357  0.8147  0.5894 -0.6660
  600MOL0     H80998  11.017  10.579   4.504  1.1658  2.1890  0.8162
  600MOL0     H80999  11.138  10.206   3.737  0.5884 -0.1844  1.4327
  600MOL0     H81000  10.949  10.198   3.566  0.4541 -2.9336  0.6766
  601MOL0     O81001   3.463   5.010   2.386 -0.3022 -0.9037  0.3885
  601MOL0     C81002   3.466   5.134   2.359 -0.0413  0.7288 -1.0857
  601MOL0     O81003   3.400   5.195   2.255  0.0888 -0.1259 -0.2010
  601MOL0     C81004   3.326   5.111   2.169 -0.5606 -0.1577 -0.7518
  601MOL0     C81005   3.382   5.003   2.106 -0.5228  0.0916  0.1044
  601MOL0     C81006   3.299   4.925   2.018 -0.4731 -0.5367  0.5122
  601MOL0     C81007   3.166   4.960   2.005 -0.3977 -1.0317 -0.1639
  601MOL0     O81008   3.076   4.896   1.927  0.0458 -0.4799  1.1611
  601MOL0     C81009   3.047   4.768   1.974  0.8891  0.6276  0.2701
  601MOL0     C81010   2.904   4.742   1.922  0.2491  0.4825  0.2797
  601MOL0     C81011   2.797   4.851   1.961  0.0085  0.0656  0.8846
  601MOL0     C81012   2.789   4.874   2.112  0.2002  0.4710  0.1697
  601MOL0     C81013   2.693   4.976   2.151  0.2003 -1.0944 -0.4798
  601MOL0     C81014   2.690   5.007   2.302 -0.3691  0.8526 -0.4020
  601MOL0     C81015   2.578   4.914   2.353  0.3799  0.6702  0.2849
  601MOL0     C81016   2.571   4.910   2.510  0.0733 -0.3845  0.0731
  601MOL0     N81017   2.689   4.830   2.563  0.6335 -0.3642  0.8472
  601MOL0     C81018   2.760   4.733   2.499 -0.0684  1.1309 -0.1755
  601MOL0     C81019   2.829   4.670   2.591  1.0501  0.6421 -0.4679
  601MOL0     C81020   2.934   4.564   2.557  0.8473 -0.0439 -0.2479
  601MOL0     C81021   3.002   4.572   2.419  0.6867 -1.0831 -0.7253
  601MOL0     C81022   3.085   4.699   2.395 -0.4100 -0.4699  0.9161
  601MOL0     C81023   3.214   4.716   2.473 -0.3123  0.0523 -0.1724
  601MOL0     O81024   3.156   4.739   2.606 -0.3065  0.1048 -0.3065
  601MOL0     C81025   3.234   4.794   2.704 -0.1394 -0.6526  0.2755
  601MOL0     C81026   3.161   4.821   2.815  0.0701 -0.2411 -1.5278
  601MOL0     C81027   3.220   4.876   2.934 -1.4341 -0.0144 -0.3430
  601MOL0     C81028   3.134   4.883   3.061  0.1219  0.6326  1.5406
  601MOL0     C81029   3.358   4.913   2.928 -0.0920 -0.1738  0.0568
  601MOL0     C81030   3.417   4.991   3.042  0.7824 -0.9794  0.3664
  601MOL0     O81031   3.510   5.079   3.001 -0.2251  0.6343  0.1045
  601MOL0     C81032   3.579   5.151   3.096  0.1576 -0.2095  0.4468
  601MOL0     C81033   3.528   5.252   3.186  0.0799  0.3630  0.1367
  601MOL0     C81034   3.613   5.322   3.267  0.4852 -0.0443 -0.4172
  601MOL0     C81035   3.746   5.288   3.288 -0.0862 -1.1909 -0.1900
  601MOL0     O81036   3.824   5.344   3.383 -1.3325  0.9445  0.1693
  601MOL0     C81037   3.768   5.396   3.507  0.0351  0.5287 -0.0630
  601MOL0     C81038   3.703   5.293   3.602 -0.2495  0.0741  0.0888
  601MOL0     C81039   3.795   5.177   3.643  0.6640 -0.1149  0.2857
  601MOL0     C81040   3.931   5.215   3.692 -0.3302 -0.6567  0.3779
  601MOL0     C81041   4.032   5.108   3.727  0.0266 -0.1458 -0.5393
  601MOL0     C81042   4.077   5.023   3.606 -0.5888 -0.8490  0.2082
  601MOL0     C81043   4.180   5.103   3.517 -0.1946 -0.0939  0.0263
  601MOL0     C81044   4.308   5.146   3.568  0.3038 -0.0689 -0.4385
  601MOL0    Cl81045   4.359   5.032   3.686  0.3939  0.4161  0.3157
  601MOL0     C81046   3.795   5.181   3.205 -0.5870  0.1316  1.0301
  601MOL0     C81047   3.715   5.114   3.115  0.5812 -0.0803 -0.5168
  601MOL0     O81048   3.365   4.993   3.152  0.9778  0.2800  0.1714
  601MOL0     C81049   3.429   4.896   2.805 -0.2321  0.3595  0.0694
  601MOL0     C81050   3.369   4.833   2.698  0.0331 -0.1640 -0.0614
  601MOL0     N81051   2.812   4.741   2.715 -0.0944  0.5970  0.7377
  601MOL0     N81052   2.722   4.838   2.695 -0.0149  0.0749  0.3974
  601MOL0     C81053   3.112   5.077   2.059 -0.7289  0.0744  0.3866
  601MOL0     C81054   3.197   5.153   2.134 -0.2848  0.0302  0.4623
  601MOL0     C81055   3.541   5.208   2.459 -0.6287 -0.4004  0.1169
  601MOL0     C81056   3.614   5.141   2.558  0.1393  0.6234  0.0878
  601MOL0     C81057   3.692   5.203   2.654  0.3715 -0.0225  0.4653
  601MOL0     C81058   3.710   5.333   2.640  0.0272 -0.7447  0.3480
  601MOL0     O81059   3.796   5.394   2.732 -0.1063 -0.0143 -0.3593
  601MOL0     C81060   3.733   5.421   2.857  0.8688 -0.3364  0.5816
  601MOL0     C81061   3.793   5.546   2.909 -0.0869  0.0120 -0.5168
  601MOL0     C81062   3.728   5.675   2.855  0.0407 -0.1935  0.6546
  601MOL0     C81063   3.783   5.799   2.914  0.2503 -0.1587 -0.6645
  601MOL0     C81064   3.750   5.815   3.061 -1.2275  0.2199  0.7839
  601MOL0     C81065   3.713   5.824   3.172  0.5196 -0.4692  0.1641
  601MOL0     C81066   3.628   5.409   2.564  0.0445 -0.2843  0.3951
  601MOL0     C81067   3.544   5.349   2.466  0.2089 -0.1298 -0.3730
  601MOL0     H81068   3.487   4.979   2.119 -0.7654 -1.8804 -1.1905
  601MOL0     H81069   3.345   4.840   1.970 -0.3598 -1.2405  1.8170
  601MOL0     H81070   3.122   4.701   1.931  1.1863  1.3174 -0.3007
  601MOL0     H81071   3.041   4.747   2.081  1.8348 -1.9409 -0.0889
  601MOL0     H81072   2.896   4.742   1.813  0.3352  1.3657  0.2631
  601MOL0     H81073   2.871   4.647   1.965  3.7833 -0.2365  1.7699
  601MOL0     H81074   2.820   4.947   1.915  1.1424 -1.4048 -1.8409
  601MOL0     H81075   2.703   4.815   1.918  0.2355 -1.2783  1.4508
  601MOL0     H81076   2.764   4.775   2.153  0.9151 -0.8941 -2.4930
  601MOL0     H81077   2.886   4.894   2.158 -0.3584 -1.7097  2.5794
  601MOL0     H81078   2.714   5.070   2.098  2.2557  0.2222  2.4083
  601MOL0     H81079   2.598   4.937   2.112 -0.2039  1.5686 -2.5674
  601MOL0     H81080   2.788   4.993   2.348  2.1603 -0.7164 -5.5483
  601MOL0     H81081   2.662   5.112   2.319 -1.2134  0.4096  1.1451
  601MOL0     H81082   2.476   4.944   2.327 -0.5763 -0.9702  1.9074
  601MOL0     H81083   2.585   4.814   2.310 -2.4759  0.5863 -0.1391
  601MOL0     H81084   2.475   4.869   2.542 -2.1975  4.8962  1.1692
  601MOL0     H81085   2.567   5.013   2.546 -4.2644 -0.2776 -0.1593
  601MOL0     H81086   2.767   4.710   2.393 -0.0228 -1.4674  0.3275
  601MOL0     H81087   3.006   4.557   2.639 -1.4091  0.7085  1.9452
  601MOL0     H81088   2.878   4.470   2.566 -4.5580  2.7220 -0.6103
  601MOL0     H81089   2.924   4.554   2.344 -0.6774  0.0380  0.3693
  601MOL0     H81090   3.079   4.494   2.414 -1.5482 -3.5549  0.8175
  601MOL0     H81091   3.016   4.782   2.414  0.1984  0.1540  0.4006
  601MOL0     H81092   3.121   4.688   2.293  2.2320  1.1144  1.5692
  601MOL0     H81093   3.269   4.805   2.440  1.4152 -0.1828  1.8454
  601MOL0     H81094   3.282   4.632   2.458 -0.3950  0.1319 -1.0626
  601MOL0     H81095   3.053   4.815   2.818 -0.0378  1.3337  1.3038
  601MOL0     H81096   3.036   4.856   3.021  1.9441  0.5283 -3.5646
  601MOL0     H81097   3.167   4.814   3.139 -1.8751 -1.2931  0.7641
  601MOL0     H81098   3.130   4.984   3.103 -0.9421  0.7905  1.0873
  601MOL0     H81099   3.434   5.299   3.158  0.2995  2.2907  2.3021
  601MOL0     H81100   3.565   5.408   3.313  0.1037 -0.3484 -0.2391
  601MOL0     H81101   3.836   5.453   3.571 -1.2832 -0.0653  1.9731
  601MOL0     H81102   3.688   5.465   3.480 -0.2875  0.2607  0.1961
  601MOL0     H81103   3.675   5.350   3.690  1.1461  0.7545  0.1297
  601MOL0     H81104   3.621   5.245   3.547  1.7006 -0.9877 -2.0876
  601MOL0     H81105   3.793   5.110   3.557  0.2789  0.7997 -0.4454
  601MOL0     H81106   3.750   5.133   3.732 -0.2269 -0.0341 -0.1125
  601MOL0     H81107   3.969   5.271   3.606 -0.8490 -1.0289 -0.1031
  601MOL0     H81108   3.910   5.284   3.773  3.1717 -0.0684  0.9595
  601MOL0     H81109   3.975   5.045   3.796 -0.1418 -0.0313 -0.5734
  601MOL0     H81110   4.117   5.147   3.783  0.4501 -1.6369 -0.0836
  601MOL0     H81111   4.117   4.925   3.633  0.7928 -0.3748 -0.0060
  601MOL0     H81112   3.992   5.000   3.541  0.0184 -0.1390 -0.8777
  601MOL0     H81113   4.130   5.188   3.469 -0.5296 -1.1201 -1.5300
  601MOL0     H81114   4.208   5.036   3.435  1.0306  0.5845 -0.1260
  601MOL0     H81115   4.301   5.249   3.604 -3.2917 -0.4481  0.3834
  601MOL0     H81116   4.387   5.145   3.492 -1.0373  1.2656 -1.9367
  601MOL0     H81117   3.900   5.154   3.202 -0.7060 -0.5789 -4.0987
  601MOL0     H81118   3.755   5.039   3.048  0.2752 -1.2665  0.5897
  601MOL0     H81119   3.534   4.922   2.803 -0.4916  1.4260  0.0865
  601MOL0     H81120   3.426   4.835   2.606 -0.2742 -1.1538 -0.2854
  601MOL0     H81121   3.012   5.107   2.028 -0.6935 -0.6723 -0.4972
  601MOL0     H81122   3.158   5.249   2.166 -1.1291  0.3194 -1.3694
  601MOL0     H81123   3.601   5.033   2.562 -2.8490  0.8968 -0.1003
  601MOL0     H81124   3.751   5.150   2.728  0.3861 -0.2081  0.3212
  601MOL0     H81125   3.625   5.422   2.836  0.4446 -3.2738  2.0874
  601MOL0     H81126   3.751   5.333   2.919 -2.2918 -1.0722  0.6628
  601MOL0     H81127   3.899   5.538   2.883 -0.2638 -1.6078 -0.8871
  601MOL0     H81128   3.777   5.542   3.018  1.5113  1.6490 -0.1632
  601MOL0     H81129   3.620   5.666   2.866  0.0698 -3.8401 -0.6964
  601MOL0     H81130   3.751   5.688   2.749 -2.8671  0.0603 -0.0153
  601MOL0     H81131   3.752   5.884   2.854  2.7415  2.0042  0.8758
  601MOL0     H81132   3.892   5.810   2.913  0.1800  1.0658  1.1502
  601MOL0     H81133   3.669   5.841   3.268 -1.3037  1.0706 -0.8742
  601MOL0     H81134   3.633   5.518   2.570  0.1424 -0.2078 -0.8233
  601MOL0     H81135   3.482   5.420   2.412  1.8408  1.7041  0.0356
  602MOL0     O81136   2.240   5.688  10.771  0.4094  0.4449 -0.4687
  602MOL0     C81137   2.234   5.564  10.803  0.3923  0.3333 -0.3940
  602MOL0     O81138   2.140   5.469  10.749  0.0941 -0.1385  0.1498
  602MOL0     C81139   2.039   5.510  10.672 -0.4273 -0.0729  0.8214
  602MOL0     C81140   2.031   5.460  10.541 -0.2139 -0.1241 -0.7199
  602MOL0     C81141   1.933   5.506  10.453 -0.1491  0.5798  0.4161
  602MOL0     C81142   1.835   5.597  10.490 -0.7046  1.7007  0.6162
  602MOL0     O81143   1.732   5.623  10.403  0.4187  0.0026  0.2454
  602MOL0     C81144   1.599   5.580  10.435 -0.9344  0.1496 -0.3698
  602MOL0     C81145   1.495   5.647  10.335  0.6811  0.4889 -0.0784
  602MOL0     C81146   1.497   5.577  10.197 -0.1451  0.1486 -1.0347
  602MOL0     C81147   1.404   5.652  10.101 -0.6516  0.1359 -0.0277
  602MOL0     C81148   1.428   5.611   9.949  0.1583 -1.5956 -0.1000
  602MOL0     C81149   1.411   5.456   9.915 -0.0980 -0.0379 -0.0892
  602MOL0     C81150   1.399   5.436   9.760 -0.1968  0.4288 -0.6622
  602MOL0     C81151   1.402   5.282   9.715 -0.8341  0.1515 -0.2770
  602MOL0     N81152   1.499   5.206   9.796 -0.4768 -0.0461 -0.0151
  602MOL0     C81153   1.455   5.107   9.885 -0.3989  0.3279  0.2950
  602MOL0     C81154   1.565   5.030   9.900 -0.2197  0.5265  1.1456
  602MOL0     C81155   1.585   4.915   9.989  0.3100 -0.5252  0.5070
  602MOL0     C81156   1.724   4.925  10.070 -0.2516  0.0049 -0.4077
  602MOL0     C81157   1.720   4.821  10.185 -0.2983  0.1477  0.2181
  602MOL0     C81158   1.863   4.782  10.231  0.3870  0.0418 -0.2997
  602MOL0     O81159   1.942   4.714  10.130 -0.3156 -0.2081 -0.1087
  602MOL0     C81160   2.067   4.659  10.150  0.2672  0.4201 -0.6461
  602MOL0     C81161   2.153   4.674  10.044 -0.2874 -0.1226  0.1818
  602MOL0     C81162   2.280   4.625  10.066 -0.4941  0.5770 -0.2657
  602MOL0     C81163   2.377   4.641   9.951  0.1021  0.3242  0.0827
  602MOL0     C81164   2.319   4.548  10.186  0.5740 -0.4286  0.1649
  602MOL0     C81165   2.455   4.495  10.217  0.1292  0.5023  0.3814
  602MOL0     O81166   2.459   4.379  10.284  0.3046  0.0009  0.2009
  602MOL0     C81167   2.576   4.307  10.304  0.8896  1.0129  0.2199
  602MOL0     C81168   2.675   4.294  10.209  0.2945  0.0959  0.4980
  602MOL0     C81169   2.802   4.240  10.232 -0.2297  0.2779  0.0523
  602MOL0     C81170   2.838   4.185  10.354  0.4005 -0.2869  0.3628
  602MOL0     O81171   2.968   4.134  10.383  0.0912  0.4931 -0.4340
  602MOL0     C81172   3.076   4.202  10.320  0.1997  0.0586  0.5039
  602MOL0     C81173   3.136   4.289  10.435  0.5401  0.1196 -0.1817
  602MOL0     C81174   3.137   4.215  10.567  0.0651 -0.3644 -0.7812
  602MOL0     C81175   3.247   4.281  10.662 -0.5813  0.7071 -0.1675
  602MOL0     C81176   3.225   4.242  10.816  0.1060 -0.1875 -0.0130
  602MOL0     C81177   3.243   4.093  10.826 -0.5713  0.8206  0.7322
  602MOL0     C81178   3.255   4.053  10.968  0.1134 -1.0010 -1.0311
  602MOL0     C81179   3.122   4.061  11.047 -0.4354  1.3421 -0.0988
  602MOL0    Cl81180   2.982   3.980  10.951  0.2280  0.1555 -0.1228
  602MOL0     C81181   2.732   4.177  10.458  0.0248 -0.7642  1.4479
  602MOL0     C81182   2.606   4.248  10.432 -0.8922 -0.0225  0.8235
  602MOL0     O81183   2.550   4.576  10.195  0.3524  1.3343 -0.0424
  602MOL0     C81184   2.220   4.524  10.293 -0.3625 -0.1490 -0.3829
  602MOL0     C81185   2.095   4.590  10.268  0.2893 -0.0446  0.7092
  602MOL0     N81186   1.668   5.078   9.821  0.3569  0.2329  0.3624
  602MOL0     N81187   1.624   5.185   9.754 -0.1594 -0.5391 -1.1249
  602MOL0     C81188   1.843   5.655  10.617 -0.3196  0.5989 -0.2113
  602MOL0     C81189   1.948   5.622  10.700  0.3191 -0.0623  0.2550
  602MOL0     C81190   2.327   5.522  10.911  0.3546 -0.4108 -0.7097
  602MOL0     C81191   2.341   5.383  10.933  0.1783 -0.4935 -0.3002
  602MOL0     C81192   2.429   5.342  11.038  0.1409  0.3046 -0.0279
  602MOL0     C81193   2.496   5.438  11.120 -0.0334 -0.4151  0.5196
  602MOL0     O81194   2.585   5.407  11.224  0.6618  0.6687  0.4920
  602MOL0     C81195   2.604   5.265  11.258  0.0882 -0.7607  0.2827
  602MOL0     C81196   2.469   5.206  11.317 -1.1158  0.6981  0.0915
  602MOL0     C81197   2.453   5.244  11.467  0.6204  0.1249 -0.3340
  602MOL0     C81198   2.447   5.117  11.559  0.3063  0.0757  0.7409
  602MOL0     C81199   2.397   5.120  11.700  0.2676 -0.1920 -0.7216
  602MOL0     C81200   2.334   5.137  11.800  0.6524 -0.0334  0.5650
  602MOL0     C81201   2.467   5.574  11.093 -0.0634  0.5195  0.3205
  602MOL0     C81202   2.387   5.611  10.988 -0.2620 -0.0548  0.4536
  602MOL0     H81203   2.102   5.391  10.496  2.1009  2.7940 -1.8922
  602MOL0     H81204   1.923   5.469  10.352 -0.7930  1.3673  0.1806
  602MOL0     H81205   1.602   5.471  10.449  0.7463  0.4705  2.4965
  602MOL0     H81206   1.580   5.625  10.532 -0.9375 -1.1681  0.2615
  602MOL0     H81207   1.402   5.638  10.393  1.7903 -1.1376  1.5895
  602MOL0     H81208   1.515   5.755  10.330 -0.2364  0.6254 -0.8943
  602MOL0     H81209   1.598   5.566  10.156  0.0803 -0.4846 -0.3368
  602MOL0     H81210   1.446   5.480  10.199  1.7957 -0.9197  0.0986
  602MOL0     H81211   1.301   5.619  10.121 -0.4296 -0.2089  0.5807
  602MOL0     H81212   1.397   5.758  10.128 -0.1930 -0.1141  1.1207
  602MOL0     H81213   1.359   5.676   9.894  2.3932 -0.2264 -1.4343
  602MOL0     H81214   1.527   5.648   9.921 -1.3608 -0.2339 -4.4925
  602MOL0     H81215   1.498   5.400   9.949  1.5027  2.0449 -0.5997
  602MOL0     H81216   1.329   5.411   9.973 -1.4813  0.2710 -1.7210
  602MOL0     H81217   1.316   5.497   9.725  0.8895  2.4881  0.1142
  602MOL0     H81218   1.484   5.492   9.719 -1.2530  3.6359  1.1749
  602MOL0     H81219   1.447   5.269   9.616  3.4894 -1.2449  1.6000
  602MOL0     H81220   1.301   5.242   9.724 -0.2045 -1.0098  2.9372
  602MOL0     H81221   1.353   5.097   9.922 -0.3708  2.5190  1.1165
  602MOL0     H81222   1.505   4.921  10.064 -0.6507  3.0234 -0.5695
  602MOL0     H81223   1.580   4.819   9.937  1.8281 -0.1045 -0.5011
  602MOL0     H81224   1.748   5.024  10.109 -0.9990  0.0520 -0.0339
  602MOL0     H81225   1.804   4.902  10.000  1.1941  2.9561  0.1004
  602MOL0     H81226   1.666   4.734  10.147 -1.9207  2.0238 -1.9846
  602MOL0     H81227   1.660   4.869  10.263  1.2747  2.7899 -0.1006
  602MOL0     H81228   1.844   4.712  10.313 -2.6952 -0.1901 -1.0799
  602MOL0     H81229   1.931   4.863  10.260  1.3825 -0.8641 -0.0279
  602MOL0     H81230   2.133   4.731   9.954 -3.0229 -2.7642 -1.0443
  602MOL0     H81231   2.376   4.545   9.898  0.8182  0.7490 -0.7282
  602MOL0     H81232   2.348   4.720   9.881  0.5451  0.5481  0.1449
  602MOL0     H81233   2.482   4.635   9.982 -0.3522  1.1154  1.9344
  602MOL0     H81234   2.669   4.353  10.119  1.7317 -0.0553  0.2777
  602MOL0     H81235   2.874   4.238  10.150 -0.8558 -1.4621 -0.4960
  602MOL0     H81236   3.148   4.127  10.285  0.2769  0.3334  0.0598
  602MOL0     H81237   3.057   4.266  10.233  1.9060  0.4466  0.3675
  602MOL0     H81238   3.235   4.318  10.397  1.2502  0.6073  1.8970
  602MOL0     H81239   3.077   4.381  10.444 -0.7264 -0.7390  0.6583
  602MOL0     H81240   3.155   4.108  10.551 -0.8558 -0.2622 -3.0214
  602MOL0     H81241   3.044   4.223  10.624  0.8778  0.2214  0.5072
  602MOL0     H81242   3.352   4.260  10.638 -0.1351  0.9938  1.3926
  602MOL0     H81243   3.245   4.390  10.655 -0.4673  0.6193 -2.4250
  602MOL0     H81244   3.126   4.277  10.847 -0.0294 -0.3557 -0.2520
  602MOL0     H81245   3.294   4.300  10.877 -1.5726  1.2742  0.6102
  602MOL0     H81246   3.164   4.036  10.776 -0.0312  0.5756  0.1398
  602MOL0     H81247   3.336   4.064  10.775 -2.0249 -2.5970 -0.2579
  602MOL0     H81248   3.330   4.109  11.024 -1.3705 -2.3602  2.6938
  602MOL0     H81249   3.297   3.952  10.968  3.6481  0.3163 -2.7195
  602MOL0     H81250   3.086   4.164  11.055 -1.2589  1.1239 -0.9471
  602MOL0     H81251   3.136   4.014  11.145 -0.9334 -2.1551 -1.5680
  602MOL0     H81252   2.757   4.136  10.555  3.2702 -0.1340  1.0166
  602MOL0     H81253   2.538   4.262  10.515  0.3836 -0.3487  1.9669
  602MOL0     H81254   2.231   4.458  10.378  0.5428  0.2192 -0.1979
  602MOL0     H81255   2.012   4.573  10.336 -0.1164  0.6082  0.3872
  602MOL0     H81256   1.781   5.740  10.645 -0.3028  1.5758 -2.7782
  602MOL0     H81257   1.945   5.676  10.794 -0.8942 -2.0320  1.4306
  602MOL0     H81258   2.293   5.305  10.875 -0.4287 -0.6245  0.3568
  602MOL0     H81259   2.438   5.237  11.066  4.0989  0.4853 -0.0932
  602MOL0     H81260   2.641   5.214  11.169 -0.7100  1.0654 -1.1648
  602MOL0     H81261   2.676   5.259  11.340  0.4222 -3.0803 -0.1223
  602MOL0     H81262   2.483   5.098  11.307 -0.9630  0.7520 -0.2868
  602MOL0     H81263   2.375   5.220  11.263 -0.4570 -1.1812 -1.7081
  602MOL0     H81264   2.354   5.288  11.460  0.6262 -0.1582 -2.9356
  602MOL0     H81265   2.516   5.320  11.514 -0.4718  0.7723  0.1019
  602MOL0     H81266   2.549   5.078  11.566  0.9785  1.9065  1.9996
  602MOL0     H81267   2.375   5.044  11.521 -0.9844  0.7564  1.8010
  602MOL0     H81268   2.291   5.156  11.896  2.5358  0.9280  1.2639
  602MOL0     H81269   2.514   5.643  11.162 -0.2974  0.1099  0.8955
  602MOL0     H81270   2.382   5.718  10.971  1.0941  0.3341  2.2039
  603MOL0     O81271   5.544   7.372   4.780 -0.0655  0.1629  0.7966
  603MOL0     C81272   5.568   7.281   4.693 -0.3157  0.4435 -0.9450
  603MOL0     O81273   5.479   7.237   4.600  0.1286 -0.9448  0.0006
  603MOL0     C81274   5.336   7.250   4.617 -0.2115  0.1385 -0.3073
  603MOL0     C81275   5.256   7.257   4.502 -0.3558 -0.4047 -0.1785
  603MOL0     C81276   5.116   7.259   4.504 -0.4354  0.7547  0.6788
  603MOL0     C81277   5.055   7.265   4.625  0.0069 -1.0691 -0.6777
  603MOL0     O81278   4.918   7.275   4.614  0.5640 -0.1279  0.2963
  603MOL0     C81279   4.847   7.206   4.714  0.2557 -0.0885 -0.8400
  603MOL0     C81280   4.699   7.210   4.686  0.1513  0.1697 -0.4275
  603MOL0     C81281   4.644   7.348   4.657  0.3036 -0.3605  0.5527
  603MOL0     C81282   4.493   7.351   4.704 -0.7483 -0.2709 -0.5696
  603MOL0     C81283   4.466   7.397   4.851  0.7287 -0.5588  0.1224
  603MOL0     C81284   4.460   7.555   4.858  0.0777  0.3014 -0.4529
  603MOL0     C81285   4.427   7.606   4.999 -0.5388 -0.4208 -0.1456
  603MOL0     C81286   4.498   7.739   5.029 -0.4558  0.0019  0.1040
  603MOL0     N81287   4.491   7.846   4.932 -0.4620 -0.4433  0.2323
  603MOL0     C81288   4.373   7.899   4.883 -0.9041  1.3187  0.0336
  603MOL0     C81289   4.407   7.979   4.777  0.7695  0.8325  0.0691
  603MOL0     C81290   4.316   8.077   4.704 -0.6155 -0.8389 -0.1270
  603MOL0     C81291   4.197   8.014   4.633 -0.3275  0.4409  0.8901
  603MOL0     C81292   4.193   8.056   4.485  0.0820 -0.7094  1.4227
  603MOL0     C81293   4.155   8.199   4.476 -1.2098 -0.5288 -0.3101
  603MOL0     O81294   4.020   8.201   4.518 -0.0093  0.3517  0.0734
  603MOL0     C81295   3.936   8.277   4.444  0.9266  0.6697  0.5495
  603MOL0     C81296   3.969   8.396   4.385  1.0651  1.0288  0.1353
  603MOL0     C81297   3.883   8.463   4.299  0.0046  1.3156  0.0105
  603MOL0     C81298   3.939   8.586   4.229 -0.3670  0.4719 -1.0081
  603MOL0     C81299   3.747   8.414   4.279  0.3267  0.2430  0.3863
  603MOL0     C81300   3.641   8.480   4.196  0.1201  0.9559 -0.2761
  603MOL0     O81301   3.523   8.516   4.256  0.8821 -0.1849 -0.2415
  603MOL0     C81302   3.424   8.568   4.178  1.0006  0.4207 -0.0441
  603MOL0     C81303   3.300   8.501   4.167  0.0860 -0.2837  0.0403
  603MOL0     C81304   3.211   8.529   4.067  1.1887 -1.3533  0.2436
  603MOL0     C81305   3.239   8.642   3.982 -0.2912  0.0508  0.2407
  603MOL0     O81306   3.160   8.687   3.888  0.5794  0.8264 -0.5126
  603MOL0     C81307   3.101   8.589   3.800 -0.7553  0.1525 -0.1695
  603MOL0     C81308   3.044   8.641   3.677 -0.6598 -0.4153 -0.1426
  603MOL0     C81309   2.932   8.743   3.704  0.0981  0.4950 -0.2256
  603MOL0     C81310   2.880   8.795   3.573  0.7258  0.3074  0.2873
  603MOL0     C81311   2.769   8.897   3.591  0.0655  0.0845  0.2853
  603MOL0     C81312   2.632   8.836   3.633  0.6168  0.0883 -0.0740
  603MOL0     C81313   2.564   8.736   3.539 -0.0396 -0.2899  0.1266
  603MOL0     C81314   2.544   8.779   3.393  0.0277  0.6657  0.3248
  603MOL0    Cl81315   2.587   8.633   3.278  0.2743 -0.1147  0.7032
  603MOL0     C81316   3.353   8.724   4.008 -0.6708  0.5616 -0.1937
  603MOL0     C81317   3.452   8.688   4.101 -0.4788  0.8933 -0.2234
  603MOL0     O81318   3.657   8.493   4.068  0.7370  0.4212  0.2915
  603MOL0     C81319   3.709   8.302   4.347 -0.0150 -1.3113 -0.3327
  603MOL0     C81320   3.804   8.231   4.427 -0.0594  0.6514 -0.5596
  603MOL0     N81321   4.539   7.973   4.757 -0.3579  0.8697 -0.3872
  603MOL0     N81322   4.589   7.899   4.852  0.4216 -0.5593 -0.1302
  603MOL0     C81323   5.125   7.278   4.748 -0.6740  1.1280  1.0757
  603MOL0     C81324   5.269   7.261   4.747  0.1100 -0.7955 -0.1377
  603MOL0     C81325   5.696   7.223   4.686 -0.3255  0.6015  0.3777
  603MOL0     C81326   5.729   7.111   4.598 -0.4187  0.5511 -0.3928
  603MOL0     C81327   5.859   7.059   4.599  1.2843 -0.5182  0.2517
  603MOL0     C81328   5.952   7.100   4.688  0.0894 -1.1901  0.3219
  603MOL0     O81329   6.078   7.054   4.705 -0.1765  0.0357 -0.2132
  603MOL0     C81330   6.119   6.932   4.632 -0.2236 -0.3105  0.0187
  603MOL0     C81331   6.064   6.805   4.705  0.3958  0.5225  0.1652
  603MOL0     C81332   6.109   6.796   4.857  0.1891  0.1356  0.7889
  603MOL0     C81333   6.098   6.662   4.931  0.3153  0.2715 -1.4052
  603MOL0     C81334   5.958   6.641   4.982 -0.0403 -1.0035 -0.0500
  603MOL0     C81335   5.851   6.604   5.010  0.5324 -0.4124 -0.3276
  603MOL0     C81336   5.928   7.212   4.777  0.5756  0.5943 -0.2836
  603MOL0     C81337   5.803   7.265   4.773  0.3074 -0.3755 -0.1025
  603MOL0     H81338   5.308   7.254   4.407  0.4174 -0.0019  0.2295
  603MOL0     H81339   5.047   7.252   4.420 -0.3600 -0.6166  0.7093
  603MOL0     H81340   4.878   7.101   4.714  1.7283  0.2364  2.2681
  603MOL0     H81341   4.858   7.252   4.813 -1.3500  0.9755 -1.1227
  603MOL0     H81342   4.666   7.144   4.606 -1.7306  1.3518 -0.6721
  603MOL0     H81343   4.640   7.166   4.767  1.4156 -1.2735 -0.2445
  603MOL0     H81344   4.701   7.425   4.709  0.3994 -1.6023  2.3779
  603MOL0     H81345   4.651   7.365   4.549 -1.7081  1.2219  0.6036
  603MOL0     H81346   4.423   7.403   4.637 -3.6120 -1.7727  1.0535
  603MOL0     H81347   4.456   7.248   4.702 -1.1537 -0.1506  0.2693
  603MOL0     H81348   4.375   7.346   4.886 -1.6714  1.1276 -3.0783
  603MOL0     H81349   4.547   7.350   4.907  2.4587  0.6547 -1.2869
  603MOL0     H81350   4.556   7.600   4.832 -1.5438  3.0278 -2.1678
  603MOL0     H81351   4.385   7.608   4.800  0.3586  1.0252 -0.1598
  603MOL0     H81352   4.321   7.633   5.009  0.0674  2.1847 -0.0502
  603MOL0     H81353   4.454   7.532   5.075  1.4167 -0.6272 -0.9944
  603MOL0     H81354   4.604   7.714   5.040 -0.4872  0.2305  0.9628
  603MOL0     H81355   4.472   7.788   5.123  3.8002  1.2465  0.8539
  603MOL0     H81356   4.280   7.887   4.937  0.6749 -2.9136  2.3192
  603MOL0     H81357   4.287   8.159   4.769 -3.1255  0.6445 -2.8674
  603MOL0     H81358   4.390   8.125   4.640  0.9040 -1.2477  1.2417
  603MOL0     H81359   4.102   8.039   4.681 -0.5619 -0.8774  1.1587
  603MOL0     H81360   4.222   7.908   4.646  2.4012  0.7678 -0.9217
  603MOL0     H81361   4.123   7.985   4.438 -2.0420  0.4804  2.6304
  603MOL0     H81362   4.288   8.034   4.435  0.3238 -0.9040  1.9667
  603MOL0     H81363   4.165   8.229   4.371 -1.7486 -3.1819 -1.2058
  603MOL0     H81364   4.219   8.255   4.544 -0.9761  0.4709 -1.3198
  603MOL0     H81365   4.073   8.424   4.400  2.5283 -1.9456 -2.9981
  603MOL0     H81366   3.906   8.679   4.275 -0.5107 -0.3729  0.6810
  603MOL0     H81367   4.045   8.596   4.251 -0.9457  1.8058  1.5422
  603MOL0     H81368   3.916   8.584   4.122 -2.6188  0.2255 -0.5799
  603MOL0     H81369   3.290   8.427   4.246 -1.5213  1.2747  1.4180
  603MOL0     H81370   3.113   8.481   4.057  0.3645  0.2596  0.2719
  603MOL0     H81371   3.185   8.527   3.767  0.3735  1.1327  0.7492
  603MOL0     H81372   3.033   8.523   3.855  3.0220 -4.0515  0.0925
  603MOL0     H81373   3.128   8.685   3.623  0.1186 -2.0281 -0.2992
  603MOL0     H81374   3.015   8.557   3.615  2.1215 -0.5960 -1.3543
  603MOL0     H81375   2.968   8.829   3.761 -3.6795 -0.1108  3.4839
  603MOL0     H81376   2.851   8.700   3.763 -0.0434 -0.3406 -0.9958
  603MOL0     H81377   2.957   8.850   3.517  0.8975 -1.3792 -1.2205
  603MOL0     H81378   2.856   8.716   3.502  1.9586  2.4376 -2.7516
  603MOL0     H81379   2.747   8.942   3.494 -2.2960 -1.7439 -0.1254
  603MOL0     H81380   2.804   8.968   3.666 -2.1801  0.4770  1.0130
  603MOL0     H81381   2.637   8.791   3.732 -1.3452 -0.0436  0.0125
  603MOL0     H81382   2.551   8.907   3.654  0.2925 -0.2040 -0.3307
  603MOL0     H81383   2.465   8.714   3.579  0.4537  0.2042  1.6757
  603MOL0     H81384   2.624   8.645   3.540  0.0317 -0.2476 -0.1253
  603MOL0     H81385   2.602   8.870   3.377 -0.2195  0.4969 -2.0259
  603MOL0     H81386   2.438   8.805   3.379  0.3868  1.0353 -2.1689
  603MOL0     H81387   3.368   8.822   3.963  0.4547  0.7613  0.5865
  603MOL0     H81388   3.542   8.748   4.108 -0.8686  1.3411  1.2816
  603MOL0     H81389   3.616   8.248   4.338 -0.1852 -2.1764  4.3277
  603MOL0     H81390   3.778   8.132   4.462 -0.5022  0.6772 -0.8021
  603MOL0     H81391   5.068   7.289   4.839 -2.6501 -1.4373  0.2647
  603MOL0     H81392   5.326   7.278   4.838  2.1986  2.2685 -1.8864
  603MOL0     H81393   5.652   7.060   4.540 -0.5755  1.0148 -0.5944
  603MOL0     H81394   5.878   6.966   4.546  0.9233 -1.9980  2.5662
  603MOL0     H81395   6.084   6.928   4.528  1.2446  1.8208 -0.6148
  603MOL0     H81396   6.228   6.930   4.627 -0.2704 -1.5055 -2.3192
  603MOL0     H81397   6.099   6.717   4.650  0.6654  1.9066 -1.9923
  603MOL0     H81398   5.955   6.803   4.706  0.3949 -0.9069 -0.3797
  603MOL0     H81399   6.043   6.864   4.912 -1.6511 -2.4821  2.0461
  603MOL0     H81400   6.213   6.828   4.848  0.5734 -1.4863 -1.4164
  603MOL0     H81401   6.167   6.664   5.016 -1.2099  0.0243 -0.0955
  603MOL0     H81402   6.131   6.575   4.874  2.2389  0.7068 -1.0242
  603MOL0     H81403   5.759   6.551   5.016 -0.7493  1.3369 -2.7927
  603MOL0     H81404   5.990   7.264   4.849 -1.9475  1.0458  1.7410
  603MOL0     H81405   5.788   7.341   4.849  2.8223 -1.0238  1.1353
  604MOL0     O81406   2.413  11.290   0.827 -0.0037 -0.4494 -0.1217
  604MOL0     C81407   2.484  11.199   0.864 -0.2736 -0.5729 -0.1216
  604MOL0     O81408   2.470  11.073   0.839 -0.5253 -0.5740 -0.3800
  604MOL0     C81409   2.359  11.014   0.777 -1.1274  1.4160  0.7684
  604MOL0     C81410   2.374  10.875   0.751 -0.2869  0.3464  0.7676
  604MOL0     C81411   2.270  10.799   0.695  0.6026 -0.4567  0.0884
  604MOL0     C81412   2.151  10.859   0.670 -0.1685  0.1836  0.7655
  604MOL0     O81413   2.066  10.788   0.590  0.0501  0.1242 -0.1720
  604MOL0     C81414   1.931  10.832   0.600  0.2955  0.5594 -0.1423
  604MOL0     C81415   1.845  10.708   0.564  0.3305  0.0001  0.1407
  604MOL0     C81416   1.696  10.743   0.567  0.2657  0.2770 -0.0483
  604MOL0     C81417   1.613  10.653   0.478 -0.8759  0.3322  0.5044
  604MOL0     C81418   1.631  10.508   0.523  0.4527 -0.8541 -0.3990
  604MOL0     C81419   1.542  10.416   0.439 -0.1526  0.4245 -0.0888
  604MOL0     C81420   1.558  10.262   0.481  0.6264 -0.2179  0.4699
  604MOL0     C81421   1.501  10.240   0.621 -0.6408 -0.1093  0.4609
  604MOL0     N81422   1.461  10.096   0.642 -0.6474  0.3841 -0.3844
  604MOL0     C81423   1.338  10.038   0.609  0.0121 -1.2603  1.1910
  604MOL0     C81424   1.348   9.911   0.654  0.5415 -0.1669  0.5160
  604MOL0     C81425   1.243   9.797   0.651  0.0805  0.7021 -0.6471
  604MOL0     C81426   1.176   9.765   0.513 -0.4620  0.4499  0.9315
  604MOL0     C81427   1.110   9.625   0.514 -0.0806 -0.2816  0.0380
  604MOL0     C81428   1.001   9.623   0.623  1.1391 -0.1434 -0.8257
  604MOL0     O81429   0.899   9.723   0.583  0.5786  0.4232 -0.7407
  604MOL0     C81430   0.788   9.690   0.508 -0.1465 -0.8270 -0.3239
  604MOL0     C81431   0.720   9.808   0.465 -0.4676  1.1261 -0.8805
  604MOL0     C81432   0.618   9.791   0.371 -0.7860  0.5966 -0.3138
  604MOL0     C81433   0.551   9.919   0.339 -0.7789  0.2509 -0.6670
  604MOL0     C81434   0.573   9.666   0.329 -0.4298  0.3109  0.5469
  604MOL0     C81435   0.447   9.654   0.251  0.0720 -0.0074  0.1637
  604MOL0     O81436   0.370   9.539   0.273  0.3857 -0.7603  0.0577
  604MOL0     C81437   0.233   9.549   0.305 -0.6525  0.2463 -0.5034
  604MOL0     C81438   0.163   9.673   0.324 -0.2420  0.0901  0.3596
  604MOL0     C81439   0.035   9.681   0.368 -0.1275  0.4638  0.0079
  604MOL0     C81440  -0.039   9.563   0.378 -0.3934  0.5597 -0.2195
  604MOL0     O81441  -0.175   9.581   0.389 -0.9678 -0.1446  0.0396
  604MOL0     C81442  -0.254   9.472   0.332  0.2399 -0.6800 -0.3612
  604MOL0     C81443  -0.386   9.514   0.294 -0.5630  0.5743  0.2713
  604MOL0     C81444  -0.487   9.401   0.302  0.5735 -0.5610  0.0998
  604MOL0     C81445  -0.603   9.441   0.206  0.6054  0.3111 -0.5753
  604MOL0     C81446  -0.742   9.405   0.268  0.4632 -0.4379  0.5994
  604MOL0     C81447  -0.858   9.362   0.168 -0.4277  0.0013 -0.0371
  604MOL0     C81448  -0.918   9.483   0.091  0.1843  0.0175 -0.2028
  604MOL0     C81449  -1.042   9.420   0.019 -0.7088 -0.5130 -1.1016
  604MOL0    Cl81450  -1.183   9.391   0.133 -0.2255 -0.1178  0.1349
  604MOL0     C81451   0.028   9.438   0.371 -0.0055 -0.2869 -0.6937
  604MOL0     C81452   0.161   9.432   0.334  0.5013 -0.1237 -0.3551
  604MOL0     O81453   0.424   9.735   0.169 -0.4228 -0.2176 -0.4163
  604MOL0     C81454   0.644   9.550   0.376 -0.3771 -0.3814  0.3329
  604MOL0     C81455   0.755   9.562   0.459 -0.8270  0.1888 -0.2730
  604MOL0     N81456   1.474   9.890   0.708 -0.4714 -0.1451  0.8711
  604MOL0     N81457   1.538   9.995   0.689 -0.2275 -0.1693 -0.2571
  604MOL0     C81458   2.137  10.987   0.689 -0.4033 -0.3038  0.0318
  604MOL0     C81459   2.240  11.069   0.738 -0.3768 -0.3206  0.3886
  604MOL0     C81460   2.607  11.229   0.943 -0.7348  0.4720  0.0972
  604MOL0     C81461   2.686  11.122   0.986 -0.3456  0.1047  0.6214
  604MOL0     C81462   2.803  11.155   1.054  0.5522 -0.8246  0.8306
  604MOL0     C81463   2.830  11.283   1.093  0.0284 -0.8538  0.4610
  604MOL0     O81464   2.936  11.290   1.190  0.4515 -0.6111  1.0062
  604MOL0     C81465   2.941  11.405   1.282 -0.5866  1.0334 -0.5543
  604MOL0     C81466   3.030  11.366   1.390 -0.5330 -0.4165  0.6344
  604MOL0     C81467   3.148  11.276   1.357  0.3723  0.6367  0.1313
  604MOL0     C81468   3.224  11.224   1.482  0.5793 -0.2312  0.1761
  604MOL0     C81469   3.349  11.153   1.459  0.5606  0.3645 -0.3537
  604MOL0     C81470   3.466  11.128   1.447  0.9945  0.0909 -0.3804
  604MOL0     C81471   2.753  11.396   1.054  0.8077 -0.5171 -0.2976
  604MOL0     C81472   2.638  11.362   0.979 -0.0410 -0.2160  0.8890
  604MOL0     H81473   2.471  10.831   0.774  0.5487  2.1656  0.8886
  604MOL0     H81474   2.289  10.696   0.665 -2.4329 -0.6320 -1.6526
  604MOL0     H81475   1.908  10.857   0.705 -2.2109  0.2536 -0.5594
  604MOL0     H81476   1.900  10.919   0.542  1.0772  1.2486  0.4471
  604MOL0     H81477   1.872  10.664   0.468 -0.9805  3.1767 -1.8833
  604MOL0     H81478   1.869  10.637   0.643 -2.2220  2.5804  3.5843
  604MOL0     H81479   1.663  10.739   0.671 -0.1208 -1.2021 -0.2069
  604MOL0     H81480   1.685  10.845   0.530 -0.0321 -0.0555 -0.8920
  604MOL0     H81481   1.515  10.691   0.446 -1.5544 -0.3449  1.6870
  604MOL0     H81482   1.675  10.634   0.390  3.9136 -0.3672  3.6869
  604MOL0     H81483   1.736  10.477   0.517  1.4885  1.8835  1.5018
  604MOL0     H81484   1.604  10.494   0.628  1.4120 -0.7758 -0.1265
  604MOL0     H81485   1.437  10.446   0.441  1.0025  5.1660  0.5268
  604MOL0     H81486   1.567  10.431   0.333 -1.9322  1.2356 -0.4317
  604MOL0     H81487   1.495  10.213   0.407 -1.2255  1.2700  0.9977
  604MOL0     H81488   1.649  10.202   0.468  0.0999 -0.3502 -4.3045
  604MOL0     H81489   1.422  10.314   0.635  0.4124  1.4231 -1.2005
  604MOL0     H81490   1.578  10.274   0.691 -0.4551  3.1877 -1.1516
  604MOL0     H81491   1.255  10.081   0.555  2.2729  1.0310 -0.6711
  604MOL0     H81492   1.300   9.705   0.669 -1.1735 -0.5862 -2.7975
  604MOL0     H81493   1.168   9.815   0.729 -0.1175 -0.3538 -0.5784
  604MOL0     H81494   1.246   9.775   0.430 -0.3036  1.0547  1.1322
  604MOL0     H81495   1.104   9.844   0.490 -0.2395  0.1592 -0.9061
  604MOL0     H81496   1.185   9.547   0.520  0.1744 -0.3794 -2.8274
  604MOL0     H81497   1.070   9.609   0.413  0.3978 -5.1038  0.3987
  604MOL0     H81498   1.054   9.635   0.717  0.0685  0.1295 -0.2389
  604MOL0     H81499   0.954   9.525   0.635  0.7827  0.3813  3.3765
  604MOL0     H81500   0.732   9.901   0.521 -0.4326  0.3668  0.4173
  604MOL0     H81501   0.566   9.939   0.233  0.6953 -0.8658 -0.6957
  604MOL0     H81502   0.444   9.909   0.362 -0.3842  0.9276  1.7515
  604MOL0     H81503   0.590  10.003   0.397  0.2582 -1.3108  1.0277
  604MOL0     H81504   0.224   9.762   0.308  1.0472 -0.9208 -0.6216
  604MOL0     H81505   0.004   9.785   0.372  2.2471  1.3611 -2.2144
  604MOL0     H81506  -0.205   9.441   0.239 -0.8166  1.1999 -1.6276
  604MOL0     H81507  -0.260   9.385   0.398 -0.2275  0.2470  0.8432
  604MOL0     H81508  -0.426   9.582   0.370 -1.3474 -1.2895  1.5978
  604MOL0     H81509  -0.377   9.566   0.198  2.2224 -0.7972 -0.2947
  604MOL0     H81510  -0.529   9.374   0.399 -2.2039 -1.8094 -1.3447
  604MOL0     H81511  -0.442   9.312   0.257 -0.4891  0.3942 -3.1643
  604MOL0     H81512  -0.620   9.547   0.184 -2.2850  0.0189 -0.1388
  604MOL0     H81513  -0.586   9.387   0.112  2.8673  2.1654 -1.3316
  604MOL0     H81514  -0.769   9.500   0.316  1.3070 -0.2289  0.6769
  604MOL0     H81515  -0.738   9.325   0.342  0.1954 -0.1184  0.9686
  604MOL0     H81516  -0.833   9.274   0.108 -2.4801 -0.3258 -0.4762
  604MOL0     H81517  -0.943   9.330   0.229  2.3805 -1.0405  3.7572
  604MOL0     H81518  -0.857   9.519   0.007 -0.6976  1.3661 -0.2952
  604MOL0     H81519  -0.941   9.563   0.162 -0.6969  0.7763 -1.2887
  604MOL0     H81520  -1.014   9.324  -0.026 -1.1655 -1.6707  0.9590
  604MOL0     H81521  -1.075   9.491  -0.057  0.6406  2.2969  0.7874
  604MOL0     H81522  -0.026   9.344   0.367 -0.6359  0.0987 -2.5787
  604MOL0     H81523   0.206   9.336   0.309 -1.5480 -1.4034  0.6512
  604MOL0     H81524   0.612   9.450   0.350  0.2864 -1.1086  2.2137
  604MOL0     H81525   0.811   9.471   0.477  1.3359  1.7491  1.3446
  604MOL0     H81526   2.058  11.050   0.651  0.3409  1.5570  1.3965
  604MOL0     H81527   2.215  11.175   0.746 -2.2886 -0.6096 -1.1290
  604MOL0     H81528   2.656  11.020   0.963 -2.4860  0.8823 -0.3603
  604MOL0     H81529   2.890  11.091   1.063  1.0082 -1.1043 -3.4354
  604MOL0     H81530   2.976  11.494   1.229  0.9277 -0.5314 -2.3344
  604MOL0     H81531   2.843  11.433   1.322  0.6422  3.1841  1.1292
  604MOL0     H81532   2.971  11.318   1.469 -1.9020  0.2524  0.0533
  604MOL0     H81533   3.067  11.455   1.443 -1.3707  1.5114 -1.8099
  604MOL0     H81534   3.222  11.320   1.289  1.8769 -1.6124  0.1810
  604MOL0     H81535   3.103  11.190   1.307 -5.0544  2.4030  1.3911
  604MOL0     H81536   3.149  11.166   1.537  0.4149  0.2848  0.5037
  604MOL0     H81537   3.244  11.308   1.550 -1.4452  0.0045  0.5473
  604MOL0     H81538   3.569  11.106   1.431  0.7604 -1.1828 -0.2166
  604MOL0     H81539   2.764  11.496   1.095 -0.3643  0.6687 -2.6168
  604MOL0     H81540   2.570  11.442   0.953 -0.5617  0.9744  5.0622
  605MOL0     O81541   6.968   0.798   1.217  0.1331 -0.9978 -0.1220
  605MOL0     C81542   6.893   0.826   1.122  0.2016 -0.2575 -0.2154
  605MOL0     O81543   6.909   0.790   0.987 -0.4124  0.1078  0.4089
  605MOL0     C81544   7.023   0.731   0.949 -1.5302 -0.3785  0.7474
  605MOL0     C81545   7.079   0.778   0.826  0.1416 -0.2355 -0.3306
  605MOL0     C81546   7.187   0.710   0.767 -0.6473  0.1304  0.1898
  605MOL0     C81547   7.249   0.597   0.837 -0.5422 -0.8781  0.4430
  605MOL0     O81548   7.367   0.531   0.794  0.6581  0.7649 -0.1326
  605MOL0     C81549   7.434   0.583   0.682  0.4712  0.2004  0.3005
  605MOL0     C81550   7.564   0.510   0.654 -0.2238  0.0841  0.2930
  605MOL0     C81551   7.669   0.577   0.560  0.5431 -0.0285 -0.4656
  605MOL0     C81552   7.805   0.513   0.561 -0.3557 -0.4545  0.4921
  605MOL0     C81553   7.881   0.550   0.429 -0.3010 -0.0441 -0.4995
  605MOL0     C81554   8.027   0.495   0.413 -0.5398  0.3246 -0.3201
  605MOL0     C81555   8.086   0.536   0.275  0.2739  0.9508  0.2908
  605MOL0     C81556   8.120   0.680   0.264 -0.3299  0.5010  0.2041
  605MOL0     N81557   8.192   0.712   0.142  0.3773  0.1588  0.2940
  605MOL0     C81558   8.312   0.648   0.101  0.5245 -0.1020 -0.3245
  605MOL0     C81559   8.345   0.728  -0.003 -0.9300  0.1698  0.6175
  605MOL0     C81560   8.457   0.709  -0.106  0.3680 -0.5473  0.2966
  605MOL0     C81561   8.433   0.588  -0.186  0.2589 -0.2506  0.3572
  605MOL0     C81562   8.313   0.602  -0.279 -0.3777 -0.2153 -0.0838
  605MOL0     C81563   8.290   0.475  -0.349  0.4380 -0.1453 -0.1325
  605MOL0     O81564   8.392   0.441  -0.447  0.6581 -0.6284  0.3189
  605MOL0     C81565   8.380   0.325  -0.519  0.1113  0.5641  0.6037
  605MOL0     C81566   8.489   0.281  -0.598  0.0603 -0.4121  0.5835
  605MOL0     C81567   8.500   0.156  -0.661  0.0359 -0.1049  0.2857
  605MOL0     C81568   8.623   0.136  -0.749  0.3198  0.6326 -0.8022
  605MOL0     C81569   8.394   0.066  -0.646  0.5346  0.0014  0.7995
  605MOL0     C81570   8.410  -0.068  -0.704 -0.8452 -0.9139 -0.3458
  605MOL0     O81571   8.412  -0.069  -0.840  0.3437  0.9446 -0.0296
  605MOL0     C81572   8.429  -0.185  -0.920 -0.0725 -0.1322 -0.3418
  605MOL0     C81573   8.343  -0.200  -1.026 -0.2444 -0.3943 -0.0589
  605MOL0     C81574   8.350  -0.315  -1.118  0.5663  0.9016 -0.2729
  605MOL0     C81575   8.446  -0.413  -1.098  0.7491 -0.0327  0.7998
  605MOL0     O81576   8.450  -0.538  -1.170 -0.2891 -0.9702 -0.0602
  605MOL0     C81577   8.338  -0.580  -1.251  1.0388  1.0037 -1.1829
  605MOL0     C81578   8.367  -0.708  -1.314 -0.7546  0.5823  0.0910
  605MOL0     C81579   8.318  -0.829  -1.227 -0.1354 -0.0830  0.0321
  605MOL0     C81580   8.370  -0.956  -1.301 -0.4142  0.7380 -0.1914
  605MOL0     C81581   8.383  -1.084  -1.214 -0.4045 -0.0358  0.5442
  605MOL0     C81582   8.413  -1.205  -1.298 -0.1587  0.0553 -0.0919
  605MOL0     C81583   8.422  -1.339  -1.223  0.1514  0.1296  0.8067
  605MOL0     C81584   8.294  -1.360  -1.139  0.2109  0.7210 -0.3960
  605MOL0    Cl81585   8.314  -1.521  -1.053  0.1346 -0.0014 -0.4837
  605MOL0     C81586   8.525  -0.405  -0.989 -1.0392 -0.5005 -0.9444
  605MOL0     C81587   8.514  -0.296  -0.895  0.8220 -0.4857 -0.4662
  605MOL0     O81588   8.425  -0.166  -0.635  0.2967 -0.4011 -0.3953
  605MOL0     C81589   8.282   0.110  -0.570  0.1856  0.1174 -0.2586
  605MOL0     C81590   8.279   0.238  -0.513  0.2164  0.4126  0.1510
  605MOL0     N81591   8.255   0.833  -0.017 -0.2063 -0.5305  0.1146
  605MOL0     N81592   8.161   0.823   0.070 -0.6250  0.0928 -1.0229
  605MOL0     C81593   7.195   0.556   0.963  0.4952 -1.1924 -0.4348
  605MOL0     C81594   7.074   0.622   1.016  0.4688  0.5305 -0.1203
  605MOL0     C81595   6.766   0.895   1.155  0.9770  0.8143  0.2426
  605MOL0     C81596   6.666   0.917   1.057 -0.9411  0.4740  0.4718
  605MOL0     C81597   6.543   0.971   1.090 -0.3500  0.3709 -0.2253
  605MOL0     C81598   6.524   1.018   1.226  0.3912 -0.5081  0.5947
  605MOL0     O81599   6.397   1.080   1.237 -0.6426 -0.2655  0.5346
  605MOL0     C81600   6.361   1.158   1.352 -0.0901  0.5116 -1.3415
  605MOL0     C81601   6.208   1.177   1.347 -0.0493  0.6380 -0.3216
  605MOL0     C81602   6.148   1.053   1.411  0.0839 -0.4211  0.4472
  605MOL0     C81603   6.001   1.057   1.378 -0.7517 -0.2766  0.4946
  605MOL0     C81604   5.922   0.952   1.433  0.2487 -0.8904 -0.7870
  605MOL0     C81605   5.829   0.885   1.470 -0.2260  0.5641  0.0676
  605MOL0     C81606   6.622   1.002   1.322 -0.2838 -0.4529 -0.1480
  605MOL0     C81607   6.743   0.938   1.289 -0.9077  0.1788 -0.4685
  605MOL0     H81608   7.035   0.859   0.769  3.0006 -0.9288 -3.8736
  605MOL0     H81609   7.214   0.746   0.668 -0.3969  1.2327  0.6424
  605MOL0     H81610   7.367   0.580   0.596  1.3082  0.1683 -0.3540
  605MOL0     H81611   7.458   0.686   0.711  0.1280  1.0718 -2.2420
  605MOL0     H81612   7.604   0.482   0.752 -2.5816  1.1275  1.6501
  605MOL0     H81613   7.538   0.411   0.616 -0.4058  0.0043  0.6185
  605MOL0     H81614   7.633   0.588   0.458  0.7568  1.6984 -0.3863
  605MOL0     H81615   7.672   0.675   0.607  0.4349  0.2024 -0.9355
  605MOL0     H81616   7.854   0.549   0.652  0.0432  3.0541 -0.9305
  605MOL0     H81617   7.792   0.406   0.580 -1.5155 -0.1568  1.4702
  605MOL0     H81618   7.821   0.510   0.347  0.1182 -3.5132  0.7159
  605MOL0     H81619   7.876   0.659   0.421 -3.2658 -0.0118  0.6199
  605MOL0     H81620   8.099   0.529   0.488  0.6505  1.1486 -1.7816
  605MOL0     H81621   8.025   0.386   0.417 -1.7341  0.2976 -1.1193
  605MOL0     H81622   8.175   0.473   0.263  0.3870  1.2018 -0.1991
  605MOL0     H81623   8.013   0.512   0.197 -0.3386  1.6176  0.6485
  605MOL0     H81624   8.184   0.720   0.344 -2.7043  3.9047  0.6335
  605MOL0     H81625   8.030   0.742   0.265 -0.1852  0.7188 -0.2122
  605MOL0     H81626   8.375   0.571   0.145  2.0551  1.3405  0.1368
  605MOL0     H81627   8.459   0.796  -0.173 -1.7945 -1.5338 -1.1504
  605MOL0     H81628   8.551   0.705  -0.050  2.2183 -0.2976 -2.5652
  605MOL0     H81629   8.427   0.506  -0.115  0.9493  0.7302  1.5959
  605MOL0     H81630   8.521   0.577  -0.250 -1.1412 -0.1106 -1.6946
  605MOL0     H81631   8.325   0.684  -0.350 -2.2724  0.7014  0.6041
  605MOL0     H81632   8.227   0.633  -0.219 -0.1462  1.0892 -0.3931
  605MOL0     H81633   8.192   0.463  -0.396  1.1564 -3.0433 -1.0586
  605MOL0     H81634   8.295   0.398  -0.271  2.8360  0.4573  0.3929
  605MOL0     H81635   8.565   0.357  -0.607 -0.2227  0.0406  1.8648
  605MOL0     H81636   8.698   0.199  -0.701  2.4991 -1.7558 -0.8114
  605MOL0     H81637   8.658   0.032  -0.742  2.7740  1.3296 -1.5691
  605MOL0     H81638   8.616   0.169  -0.853  0.8302  0.7096 -0.8173
  605MOL0     H81639   8.273  -0.120  -1.049  0.9441  1.0502  1.1310
  605MOL0     H81640   8.297  -0.325  -1.212 -0.1754 -0.7647  0.2855
  605MOL0     H81641   8.251  -0.578  -1.186  0.6272  0.4047 -1.7098
  605MOL0     H81642   8.318  -0.499  -1.322 -0.8094  2.8055  1.2348
  605MOL0     H81643   8.322  -0.707  -1.414 -1.9087  1.3347  0.5947
  605MOL0     H81644   8.476  -0.708  -1.325 -0.7190  0.7994  0.4413
  605MOL0     H81645   8.211  -0.826  -1.209 -0.7529  3.4175 -3.0099
  605MOL0     H81646   8.385  -0.829  -1.141  2.7870  0.2554 -2.0518
  605MOL0     H81647   8.308  -0.977  -1.388 -2.3783  1.0379  1.0755
  605MOL0     H81648   8.474  -0.938  -1.328  0.7805 -2.6287  1.5906
  605MOL0     H81649   8.278  -1.096  -1.188 -1.0363  1.9333 -0.8672
  605MOL0     H81650   8.450  -1.070  -1.129  1.6508  2.7858 -1.3522
  605MOL0     H81651   8.330  -1.203  -1.369 -1.6054  3.6140  1.4625
  605MOL0     H81652   8.508  -1.192  -1.352 -0.9897  1.3600 -1.3152
  605MOL0     H81653   8.505  -1.340  -1.152 -0.4465  0.4467  1.5239
  605MOL0     H81654   8.432  -1.421  -1.295 -0.5195  1.8811 -1.4289
  605MOL0     H81655   8.199  -1.359  -1.192  0.5301  0.7764 -0.9724
  605MOL0     H81656   8.283  -1.282  -1.062 -0.8748 -0.6665  0.9109
  605MOL0     H81657   8.597  -0.485  -0.977 -0.6746 -0.0051  0.4617
  605MOL0     H81658   8.594  -0.281  -0.823  2.5619  0.1539 -2.4298
  605MOL0     H81659   8.194   0.048  -0.562 -1.3447  2.2190  0.2550
  605MOL0     H81660   8.194   0.268  -0.452 -1.6841 -2.5427 -0.8290
  605MOL0     H81661   7.237   0.476   1.022  0.8490  0.2468  1.3474
  605MOL0     H81662   7.033   0.579   1.107  1.0438 -1.4124 -0.7224
  605MOL0     H81663   6.686   0.894   0.953 -2.5509 -0.4826  0.3362
  605MOL0     H81664   6.468   0.991   1.014 -0.2046  0.5270 -0.3299
  605MOL0     H81665   6.401   1.120   1.446 -1.7385 -0.5175 -1.0240
  605MOL0     H81666   6.411   1.253   1.331  0.7550  0.9501  2.1120
  605MOL0     H81667   6.184   1.187   1.241  2.8843  0.4677 -1.0801
  605MOL0     H81668   6.176   1.261   1.409 -1.3210  0.0653 -0.1705
  605MOL0     H81669   6.168   1.058   1.519  0.3168 -1.9071  0.5041
  605MOL0     H81670   6.189   0.962   1.366 -0.2679  0.0121 -0.7835
  605MOL0     H81671   5.986   1.065   1.270  2.4293  0.2664  0.0001
  605MOL0     H81672   5.956   1.149   1.418 -0.2885  2.4211 -4.4321
  605MOL0     H81673   5.751   0.820   1.505 -0.6417  0.8940 -0.2253
  605MOL0     H81674   6.623   1.047   1.421  2.7573  2.1847 -1.2054
  605MOL0     H81675   6.814   0.923   1.370 -1.1675 -1.5774 -0.5190
  606MOL0     O81676   3.811   1.450   6.270 -0.0733 -0.2599 -0.3095
  606MOL0     C81677   3.828   1.534   6.360  0.3227  0.8627  0.0958
  606MOL0     O81678   3.817   1.671   6.352  0.2910 -0.1921 -0.0583
  606MOL0     C81679   3.802   1.716   6.224  0.1594  0.3451 -0.2864
  606MOL0     C81680   3.680   1.784   6.202 -0.1254 -0.0378  0.5884
  606MOL0     C81681   3.646   1.816   6.070 -0.3295  0.5097 -0.5851
  606MOL0     C81682   3.729   1.789   5.962 -0.2823  0.4125 -0.2668
  606MOL0     O81683   3.674   1.825   5.842  1.3259 -0.5098  0.1628
  606MOL0     C81684   3.753   1.826   5.720 -0.0660  0.2512 -0.9366
  606MOL0     C81685   3.647   1.859   5.614  0.0574 -0.5788 -0.0900
  606MOL0     C81686   3.713   1.890   5.475 -0.1926  0.4049 -0.1239
  606MOL0     C81687   3.603   1.870   5.375  1.2456 -0.4881 -0.9721
  606MOL0     C81688   3.657   1.931   5.252  0.1811 -0.0075 -0.1434
  606MOL0     C81689   3.555   1.922   5.134 -0.0061  0.5927  0.3202
  606MOL0     C81690   3.451   2.037   5.147  0.0937  1.4849  0.1170
  606MOL0     C81691   3.339   2.030   5.042 -0.1946  0.0921  0.5938
  606MOL0     N81692   3.406   2.078   4.917 -0.0690  0.5408 -0.3234
  606MOL0     C81693   3.414   2.002   4.803  0.2557  0.5347  0.0753
  606MOL0     C81694   3.473   2.084   4.714 -0.5201  0.4276  0.0975
  606MOL0     C81695   3.507   2.037   4.577  0.4932 -0.6026 -0.1534
  606MOL0     C81696   3.510   2.141   4.468  0.2138  0.4321  0.3211
  606MOL0     C81697   3.383   2.196   4.411  0.1157 -0.1919  0.3661
  606MOL0     C81698   3.268   2.234   4.504 -0.2531  0.5337 -0.2860
  606MOL0     O81699   3.205   2.114   4.545  0.3669 -0.4722 -0.5072
  606MOL0     C81700   3.105   2.067   4.457  0.1237  0.4429  0.0456
  606MOL0     C81701   2.978   2.127   4.460  0.1088  0.2671 -0.9858
  606MOL0     C81702   2.873   2.077   4.379 -1.1215 -0.3930  1.1740
  606MOL0     C81703   2.747   2.159   4.376 -0.2103  0.7491  0.1869
  606MOL0     C81704   2.902   1.969   4.293 -0.6382  1.0146  0.0648
  606MOL0     C81705   2.807   1.898   4.188  0.4331  1.4327  0.8406
  606MOL0     O81706   2.861   1.795   4.110 -0.2625  0.0895  0.1913
  606MOL0     C81707   2.789   1.705   4.036 -0.3888  0.1583  0.8529
  606MOL0     C81708   2.670   1.736   3.980  0.5236 -0.8119 -0.5963
  606MOL0     C81709   2.605   1.650   3.898 -0.5555  0.2554 -0.2642
  606MOL0     C81710   2.655   1.525   3.865 -0.2262 -0.1761  0.5291
  606MOL0     O81711   2.586   1.433   3.787 -0.4453 -0.6784 -0.4487
  606MOL0     C81712   2.638   1.395   3.662 -0.0867 -0.1701  1.2527
  606MOL0     C81713   2.665   1.248   3.661 -0.7812 -0.2548 -0.4325
  606MOL0     C81714   2.743   1.211   3.537  0.2173 -0.5622 -0.1632
  606MOL0     C81715   2.752   1.063   3.495 -1.0821  0.1082 -0.1045
  606MOL0     C81716   2.869   1.015   3.407  0.2536 -0.4695  0.2363
  606MOL0     C81717   2.870   0.869   3.367  0.2968 -0.3289 -0.6886
  606MOL0     C81718   2.966   0.812   3.264  0.0430 -0.1713  0.4208
  606MOL0     C81719   2.932   0.869   3.128  0.1931  0.1350 -0.0790
  606MOL0    Cl81720   2.786   0.792   3.085  0.6239  0.1088  0.2525
  606MOL0     C81721   2.777   1.488   3.926 -0.1223  0.0290 -0.0480
  606MOL0     C81722   2.842   1.579   4.008 -0.1260 -0.1796  0.3531
  606MOL0     O81723   2.682   1.913   4.204 -0.2856  0.3117  0.6602
  606MOL0     C81724   3.030   1.907   4.298  0.8998 -0.0406 -0.0469
  606MOL0     C81725   3.133   1.961   4.369  0.2054  0.5355  0.0942
  606MOL0     N81726   3.492   2.207   4.769  0.7520  0.0141  0.5866
  606MOL0     N81727   3.452   2.198   4.889 -0.8383  0.5401 -0.1781
  606MOL0     C81728   3.861   1.739   5.984  0.4282 -0.1686 -0.1998
  606MOL0     C81729   3.890   1.690   6.118  0.0064  0.9052  0.1531
  606MOL0     C81730   3.861   1.481   6.495  0.5088  0.4179  1.1146
  606MOL0     C81731   3.880   1.568   6.601 -0.0950 -0.0762 -0.3084
  606MOL0     C81732   3.907   1.521   6.728 -0.0473 -0.4629 -0.4099
  606MOL0     C81733   3.909   1.378   6.756  0.2097  0.1421 -0.9512
  606MOL0     O81734   3.936   1.331   6.881 -0.0800 -0.2338 -0.3387
  606MOL0     C81735   4.071   1.296   6.905 -0.1287 -0.4326  1.0039
  606MOL0     C81736   4.049   1.191   7.016 -0.9002  0.3849 -0.5813
  606MOL0     C81737   4.036   1.043   6.957 -0.3634  0.7280 -1.0438
  606MOL0     C81738   4.065   0.943   7.072  0.1289 -0.1561 -0.1492
  606MOL0     C81739   4.094   0.812   7.013 -0.0548 -0.3249  0.1930
  606MOL0     C81740   4.125   0.701   6.975  0.4541  0.5966 -0.1304
  606MOL0     C81741   3.885   1.290   6.647 -0.1227 -0.3035 -0.2312
  606MOL0     C81742   3.869   1.341   6.516  0.6893  0.6081  0.3512
  606MOL0     H81743   3.618   1.809   6.287 -2.9733  2.0733 -1.9059
  606MOL0     H81744   3.557   1.869   6.040 -0.3653  1.1345  0.5596
  606MOL0     H81745   3.844   1.886   5.719  1.1498 -1.5317 -0.8868
  606MOL0     H81746   3.783   1.722   5.704 -1.0274 -0.3366  0.8405
  606MOL0     H81747   3.577   1.775   5.607 -0.9920 -0.2099  3.6667
  606MOL0     H81748   3.585   1.947   5.636  0.8260 -0.0398 -0.0420
  606MOL0     H81749   3.743   1.995   5.474 -1.0196  0.6426 -0.6395
  606MOL0     H81750   3.797   1.820   5.463  0.4988  0.9528  1.3055
  606MOL0     H81751   3.572   1.766   5.361 -1.1853 -0.0282  0.5725
  606MOL0     H81752   3.510   1.915   5.409  0.7964 -0.8453 -1.6897
  606MOL0     H81753   3.674   2.037   5.273  0.7548 -0.1212 -0.0181
  606MOL0     H81754   3.761   1.897   5.244  0.0295 -0.7679  0.9390
  606MOL0     H81755   3.612   1.947   5.044  1.7797 -2.3103  0.5210
  606MOL0     H81756   3.512   1.822   5.120  1.3449  0.3192 -2.6908
  606MOL0     H81757   3.397   2.024   5.241  0.6091 -0.1585  0.2231
  606MOL0     H81758   3.497   2.136   5.143  0.5661  1.2430 -2.4873
  606MOL0     H81759   3.259   2.103   5.059 -1.7280 -0.1862 -4.1073
  606MOL0     H81760   3.294   1.932   5.024  2.8415 -1.1150 -1.0974
  606MOL0     H81761   3.382   1.900   4.781  2.3197  0.3156 -2.4290
  606MOL0     H81762   3.610   2.004   4.596  0.4084 -0.9053 -0.2058
  606MOL0     H81763   3.444   1.951   4.553  2.6618 -2.3757  0.1502
  606MOL0     H81764   3.589   2.108   4.400 -2.2855 -2.5918 -1.3662
  606MOL0     H81765   3.552   2.230   4.517  1.3243  1.5844 -2.5192
  606MOL0     H81766   3.352   2.125   4.335 -0.6479 -0.2640  0.7398
  606MOL0     H81767   3.413   2.291   4.365 -1.6009  1.3865  2.2894
  606MOL0     H81768   3.188   2.298   4.467 -2.3527 -0.6972  1.8246
  606MOL0     H81769   3.309   2.288   4.590 -1.1591  3.7624 -1.7196
  606MOL0     H81770   2.962   2.214   4.524  2.7454 -0.2993  0.6101
  606MOL0     H81771   2.705   2.160   4.275  1.0875 -1.8671 -0.4625
  606MOL0     H81772   2.667   2.106   4.430 -0.7078  0.4808 -0.7896
  606MOL0     H81773   2.768   2.258   4.416  0.0835  0.9019 -0.3506
  606MOL0     H81774   2.628   1.835   3.999 -1.1368 -1.7500  0.9184
  606MOL0     H81775   2.505   1.668   3.860 -0.1414  2.2952 -0.4588
  606MOL0     H81776   2.563   1.413   3.585  0.0595 -0.2559  1.0885
  606MOL0     H81777   2.731   1.448   3.639  1.0735 -2.2539  0.8501
  606MOL0     H81778   2.720   1.232   3.754 -1.1920  0.5972 -0.0325
  606MOL0     H81779   2.566   1.204   3.671 -0.1514 -1.6121  0.0092
  606MOL0     H81780   2.845   1.249   3.552 -1.3577  3.5153  1.6181
  606MOL0     H81781   2.710   1.271   3.452  1.1325  2.0072  1.1786
  606MOL0     H81782   2.747   1.000   3.584 -1.6878  4.1924  3.0732
  606MOL0     H81783   2.658   1.040   3.443 -0.5592  0.7770 -1.3681
  606MOL0     H81784   2.963   1.030   3.460 -1.2675 -0.1192  3.0404
  606MOL0     H81785   2.868   1.071   3.314  3.4372 -1.8891 -0.8057
  606MOL0     H81786   2.895   0.816   3.459 -0.5075 -3.5371 -2.1421
  606MOL0     H81787   2.765   0.853   3.341 -0.6732  0.4089  2.4232
  606MOL0     H81788   2.959   0.702   3.262  0.9560 -0.2408  0.2968
  606MOL0     H81789   3.068   0.838   3.294 -0.8038  1.1882  2.2509
  606MOL0     H81790   3.009   0.855   3.052  2.3277 -0.4882  2.0613
  606MOL0     H81791   2.909   0.976   3.134  0.3788  0.4433 -3.4079
  606MOL0     H81792   2.825   1.393   3.904 -0.2266  0.8691 -5.4183
  606MOL0     H81793   2.936   1.556   4.057 -1.7186 -1.7592  2.9571
  606MOL0     H81794   3.051   1.809   4.255  1.3213 -1.2748  2.7348
  606MOL0     H81795   3.226   1.907   4.381  0.5657  1.2133  0.3709
  606MOL0     H81796   3.926   1.730   5.898  1.2820 -0.8641  0.5069
  606MOL0     H81797   3.979   1.630   6.131 -0.6228  0.3832  2.4479
  606MOL0     H81798   3.873   1.675   6.586 -2.4479 -0.2096 -0.4110
  606MOL0     H81799   3.934   1.585   6.811 -1.7525 -0.2333 -0.0038
  606MOL0     H81800   4.129   1.271   6.816 -0.0573 -0.8583  1.1688
  606MOL0     H81801   4.112   1.389   6.946 -1.6853  1.6194 -1.7127
  606MOL0     H81802   3.957   1.199   7.075  1.0457 -0.6100  2.8913
  606MOL0     H81803   4.135   1.203   7.081  1.0721  0.0311 -2.9768
  606MOL0     H81804   4.112   1.029   6.879  0.6850 -1.2967  0.2304
  606MOL0     H81805   3.939   1.024   6.911 -0.2117 -1.7608 -0.5097
  606MOL0     H81806   3.976   0.931   7.134 -1.3248  1.2371 -1.8440
  606MOL0     H81807   4.145   0.983   7.135 -0.5414  0.4488  0.3290
  606MOL0     H81808   4.136   0.607   6.926  1.8839 -0.1045  1.4608
  606MOL0     H81809   3.883   1.183   6.666 -4.5861 -0.3202  0.2345
  606MOL0     H81810   3.845   1.270   6.438  0.8022  0.0782  0.7936
  607MOL0     O81811  10.069   0.222   4.200 -0.0870 -0.2703  0.2139
  607MOL0     C81812   9.985   0.277   4.123 -1.2489  1.1206  0.5052
  607MOL0     O81813   9.873   0.217   4.075  0.6999  0.4539  0.1174
  607MOL0     C81814   9.839   0.096   4.122 -0.4207  0.4519 -0.7406
  607MOL0     C81815   9.921  -0.012   4.098  0.0832  0.8714 -0.4992
  607MOL0     C81816   9.881  -0.141   4.143  0.0024  0.3190 -0.4299
  607MOL0     C81817   9.765  -0.158   4.221  1.0374  0.5328  0.2665
  607MOL0     O81818   9.732  -0.284   4.263 -0.4635 -0.5729  0.1070
  607MOL0     C81819   9.614  -0.322   4.337  0.2489 -0.0418 -0.4905
  607MOL0     C81820   9.586  -0.482   4.340  0.0608 -0.3192  0.4199
  607MOL0     C81821   9.465  -0.515   4.437  0.6403 -0.7069 -1.3834
  607MOL0     C81822   9.529  -0.545   4.576  0.6883  0.1361 -0.2298
  607MOL0     C81823   9.421  -0.583   4.675 -0.8608 -0.0379  0.2738
  607MOL0     C81824   9.486  -0.678   4.785 -0.7515  0.7447 -0.0829
  607MOL0     C81825   9.598  -0.616   4.869  0.2623 -0.2706 -0.1055
  607MOL0     C81826   9.543  -0.524   4.990 -0.1197  0.7661  1.0088
  607MOL0     N81827   9.655  -0.443   5.021  0.0113 -0.1460 -0.7054
  607MOL0     C81828   9.721  -0.445   5.140 -0.0832  0.0501  0.6550
  607MOL0     C81829   9.835  -0.364   5.118 -0.4966  0.1980 -0.5992
  607MOL0     C81830   9.956  -0.356   5.216  0.4620 -0.9285 -0.0445
  607MOL0     C81831  10.026  -0.494   5.242  0.7799 -0.4118  0.5538
  607MOL0     C81832  10.067  -0.558   5.110  0.2064  0.6108 -0.4621
  607MOL0     C81833  10.160  -0.479   5.021  0.2281 -0.7588 -0.4850
  607MOL0     O81834  10.278  -0.425   5.089 -0.3306  0.0657  0.3609
  607MOL0     C81835  10.370  -0.356   5.001  0.4488 -0.2225  0.1989
  607MOL0     C81836  10.476  -0.304   5.069  0.2104  0.1409  0.1440
  607MOL0     C81837  10.572  -0.223   5.007  0.2508  0.2082 -1.1477
  607MOL0     C81838  10.677  -0.167   5.100  0.0999 -1.1434 -0.7833
  607MOL0     C81839  10.567  -0.189   4.876  0.1017 -0.6348 -0.3041
  607MOL0     C81840  10.667  -0.113   4.801  0.1536 -0.5524 -0.4557
  607MOL0     O81841  10.629  -0.053   4.681 -0.2571  0.8069  0.2111
  607MOL0     C81842  10.734  -0.047   4.589  0.2082 -0.6180  0.5954
  607MOL0     C81843  10.749  -0.139   4.486  0.0107 -0.5536  0.4691
  607MOL0     C81844  10.865  -0.134   4.406  0.8639  0.1422 -0.4661
  607MOL0     C81845  10.959  -0.035   4.418 -0.6723 -0.0300 -0.3522
  607MOL0     O81846  11.076  -0.028   4.347  0.0726  0.1088 -0.5347
  607MOL0     C81847  11.056  -0.045   4.208  0.2887 -0.4708  0.3901
  607MOL0     C81848  11.178  -0.056   4.126  0.2267  0.9941  0.8705
  607MOL0     C81849  11.258   0.078   4.146 -0.5693  0.2215  1.9624
  607MOL0     C81850  11.374   0.081   4.039 -0.2981 -0.1955 -0.0066
  607MOL0     C81851  11.448   0.220   4.033 -0.8283 -0.0393  0.7496
  607MOL0     C81852  11.556   0.227   4.145  1.0130 -0.6871  0.2430
  607MOL0     C81853  11.598   0.374   4.159  0.2264  0.0517  0.0350
  607MOL0     C81854  11.729   0.384   4.232 -0.1284  0.0367 -0.4981
  607MOL0    Cl81855  11.807   0.536   4.209 -0.1570 -0.1103  0.4493
  607MOL0     C81856  10.935   0.064   4.502  0.5041  0.1633 -0.4010
  607MOL0     C81857  10.828   0.057   4.591  0.2904 -0.0498  0.3334
  607MOL0     O81858  10.783  -0.124   4.835 -0.6793 -0.2487  0.5919
  607MOL0     C81859  10.464  -0.250   4.800 -0.2780  0.2338  0.1038
  607MOL0     C81860  10.361  -0.327   4.868 -0.0501 -0.5264 -0.3121
  607MOL0     N81861   9.821  -0.301   5.000  0.1940  0.4588  0.1767
  607MOL0     N81862   9.716  -0.353   4.935  0.0731  0.7006  0.5210
  607MOL0     C81863   9.688  -0.045   4.240 -0.3294 -0.4006 -0.2633
  607MOL0     C81864   9.713   0.077   4.177  0.2938 -0.3987 -0.3280
  607MOL0     C81865  10.004   0.405   4.062 -0.1112 -1.0062 -0.9249
  607MOL0     C81866   9.907   0.473   3.991 -0.3889 -0.3656  0.0054
  607MOL0     C81867   9.940   0.595   3.925 -0.9921 -0.3207  1.4253
  607MOL0     C81868  10.066   0.655   3.934 -0.7548 -0.6207  0.9453
  607MOL0     O81869  10.072   0.781   3.877 -0.5352 -0.5178  0.5657
  607MOL0     C81870  10.182   0.876   3.908  0.9245 -0.6052 -0.0854
  607MOL0     C81871  10.172   0.930   4.051  0.1326 -0.5831 -0.1566
  607MOL0     C81872  10.308   0.984   4.098 -1.0568  0.4303 -0.8297
  607MOL0     C81873  10.330   1.132   4.064  1.0490  0.7559  0.6560
  607MOL0     C81874  10.464   1.181   4.082 -0.0327  1.1925 -0.2819
  607MOL0     C81875  10.564   1.236   4.110  0.4582 -0.3335 -0.1808
  607MOL0     C81876  10.158   0.590   4.016  0.6370 -0.4281 -0.1204
  607MOL0     C81877  10.126   0.471   4.080  0.0184 -1.4346 -0.5380
  607MOL0     H81878  10.007   0.000   4.033 -1.4256 -2.3272 -3.3971
  607MOL0     H81879   9.933  -0.233   4.117 -1.0710 -0.2045 -0.7544
  607MOL0     H81880   9.608  -0.274   4.434  3.2533  3.4235 -1.7799
  607MOL0     H81881   9.536  -0.278   4.274  0.9570 -0.8347 -1.9781
  607MOL0     H81882   9.545  -0.499   4.240  1.0398  1.5569 -0.3573
  607MOL0     H81883   9.672  -0.545   4.364  0.3212 -0.5406 -1.0210
  607MOL0     H81884   9.411  -0.425   4.468  1.1543 -1.1464  0.9492
  607MOL0     H81885   9.400  -0.589   4.390  1.5294 -2.3129 -0.1853
  607MOL0     H81886   9.599  -0.629   4.566 -0.4953 -0.6612 -2.5554
  607MOL0     H81887   9.585  -0.462   4.620  0.1227 -0.2586  1.2721
  607MOL0     H81888   9.362  -0.502   4.720 -2.3698 -1.1868  0.4596
  607MOL0     H81889   9.342  -0.637   4.622 -1.0871  1.3737 -0.9176
  607MOL0     H81890   9.414  -0.729   4.850 -1.7573  3.8346  1.4164
  607MOL0     H81891   9.547  -0.749   4.728  1.2810  3.7260 -1.8969
  607MOL0     H81892   9.668  -0.689   4.911  1.5722  1.3870  0.7163
  607MOL0     H81893   9.647  -0.548   4.798 -2.0916  2.4133  0.6631
  607MOL0     H81894   9.518  -0.579   5.080 -1.3902  0.5983  0.5656
  607MOL0     H81895   9.453  -0.467   4.964  1.0207  1.5452 -1.6485
  607MOL0     H81896   9.706  -0.495   5.236 -2.0788 -4.0682 -1.5597
  607MOL0     H81897  10.037  -0.293   5.178  1.6642 -2.3185  0.1306
  607MOL0     H81898   9.930  -0.311   5.313 -0.8246 -0.2635 -0.6804
  607MOL0     H81899   9.950  -0.554   5.293  0.4777 -0.9720 -0.5353
  607MOL0     H81900  10.111  -0.486   5.311  1.4058  0.5217 -0.2982
  607MOL0     H81901   9.981  -0.589   5.051 -1.2491  3.5211 -0.0754
  607MOL0     H81902  10.110  -0.654   5.138  1.6550  1.5644  0.8250
  607MOL0     H81903  10.116  -0.389   4.979  1.3350 -1.1618 -2.6504
  607MOL0     H81904  10.194  -0.540   4.936  2.0795 -2.0617  1.0824
  607MOL0     H81905  10.488  -0.315   5.176  1.6633  1.1053  0.1138
  607MOL0     H81906  10.700  -0.062   5.081 -0.5560 -0.9483 -0.5375
  607MOL0     H81907  10.647  -0.176   5.205 -0.7981 -0.0318 -0.9206
  607MOL0     H81908  10.770  -0.223   5.086 -0.8738 -2.7075 -1.2688
  607MOL0     H81909  10.681  -0.223   4.500 -0.3744 -0.0715  1.6085
  607MOL0     H81910  10.878  -0.218   4.339  0.3577  0.1203 -0.5460
  607MOL0     H81911  10.993  -0.134   4.198 -0.1967 -0.7373  4.2692
  607MOL0     H81912  11.004   0.047   4.179  3.7453  1.3139 -0.6709
  607MOL0     H81913  11.239  -0.143   4.153 -0.8018 -0.7059 -1.9344
  607MOL0     H81914  11.158  -0.076   4.021 -0.8888 -2.4736  1.6077
  607MOL0     H81915  11.294   0.080   4.249  0.3734 -0.4762  1.6637
  607MOL0     H81916  11.192   0.158   4.112 -0.0510  0.3986  1.3473
  607MOL0     H81917  11.444   0.003   4.070 -0.5037 -2.2084 -3.9793
  607MOL0     H81918  11.345   0.064   3.935  1.3187  1.5584 -0.7974
  607MOL0     H81919  11.371   0.293   4.059 -2.8644 -2.0819  0.7598
  607MOL0     H81920  11.497   0.237   3.936 -0.7531  2.1213  1.1135
  607MOL0     H81921  11.515   0.186   4.238  2.7108  2.7289  2.7012
  607MOL0     H81922  11.641   0.167   4.112 -0.2427 -2.2439 -0.2983
  607MOL0     H81923  11.523   0.438   4.206  2.3359  1.6844  1.3310
  607MOL0     H81924  11.614   0.410   4.056 -0.0355 -0.2427 -0.1103
  607MOL0     H81925  11.799   0.309   4.195  1.7640  0.2690  2.3162
  607MOL0     H81926  11.711   0.370   4.339 -0.1058  2.6408 -0.0729
  607MOL0     H81927  11.015   0.137   4.505  0.5725  0.0681  3.0274
  607MOL0     H81928  10.804   0.132   4.665 -3.2244 -0.4325 -0.2370
  607MOL0     H81929  10.458  -0.242   4.692  0.9400 -2.1425 -0.2257
  607MOL0     H81930  10.266  -0.365   4.832 -1.0020 -0.3524  1.8811
  607MOL0     H81931   9.592  -0.048   4.291 -0.6522  2.9050 -0.4739
  607MOL0     H81932   9.649   0.165   4.178  0.5200 -0.2249 -0.9168
  607MOL0     H81933   9.802   0.446   3.981 -0.6172  0.9145 -1.4972
  607MOL0     H81934   9.858   0.646   3.876  0.0508 -0.1551 -0.2049
  607MOL0     H81935  10.275   0.819   3.898  1.4144  0.0908  0.3564
  607MOL0     H81936  10.186   0.963   3.843  2.1563  0.2797  1.1154
  607MOL0     H81937  10.131   0.853   4.116  0.8347 -1.5561 -0.8442
  607MOL0     H81938  10.094   1.007   4.056 -0.4675 -1.2126  0.3071
  607MOL0     H81939  10.386   0.927   4.046 -3.0997 -0.6505 -2.8800
  607MOL0     H81940  10.323   0.970   4.205  3.0912 -2.7418 -1.5548
  607MOL0     H81941  10.279   1.207   4.124  1.0987  0.4964  1.0227
  607MOL0     H81942  10.320   1.141   3.955  0.8855  0.4345  0.6421
  607MOL0     H81943  10.659   1.271   4.146  2.8746 -1.9785 -4.1718
  607MOL0     H81944  10.257   0.632   4.033  1.2549 -1.4064 -1.1565
  607MOL0     H81945  10.204   0.433   4.146  1.2236 -0.5355 -1.4063
  608MOL0     O81946   4.595   0.404   4.300  0.2741  0.1959  0.4389
  608MOL0     C81947   4.664   0.317   4.347 -0.4184 -0.0817 -0.9279
  608MOL0     O81948   4.659   0.290   4.482 -0.0430 -0.7464  0.7148
  608MOL0     C81949   4.587   0.372   4.563 -0.2382  0.0305 -0.8627
  608MOL0     C81950   4.513   0.317   4.669  0.8022 -0.1995  0.2259
  608MOL0     C81951   4.456   0.396   4.771 -0.0207  0.1113  0.4513
  608MOL0     C81952   4.448   0.536   4.754  0.7144 -0.3617 -0.4642
  608MOL0     O81953   4.370   0.591   4.853  0.6749 -0.3165  0.1901
  608MOL0     C81954   4.375   0.732   4.848 -0.5936  0.2196 -0.4124
  608MOL0     C81955   4.271   0.794   4.948  0.2747  0.6234  0.6512
  608MOL0     C81956   4.129   0.769   4.895 -0.1904 -0.2235  0.6061
  608MOL0     C81957   4.033   0.822   4.998  0.3205 -0.4323  0.0446
  608MOL0     C81958   3.890   0.780   4.966 -0.2603 -0.0777 -0.3472
  608MOL0     C81959   3.778   0.839   5.061  0.0422  0.2782  0.8328
  608MOL0     C81960   3.638   0.779   5.042  0.2198 -0.4242  0.0926
  608MOL0     C81961   3.536   0.853   5.132  0.2856 -0.6491 -0.1157
  608MOL0     N81962   3.411   0.793   5.136  0.1876 -0.7422 -0.4790
  608MOL0     C81963   3.395   0.664   5.155 -0.3526 -0.0497  0.3589
  608MOL0     C81964   3.267   0.648   5.166 -0.3481  0.8841  0.1599
  608MOL0     C81965   3.204   0.510   5.163  0.4417  0.0482  0.0516
  608MOL0     C81966   3.175   0.465   5.303  0.2309 -0.1427 -0.1758
  608MOL0     C81967   3.105   0.327   5.327 -0.2095 -0.1563 -0.3556
  608MOL0     C81968   3.188   0.207   5.268 -0.7974 -0.0017 -0.7299
  608MOL0     O81969   3.122   0.086   5.302 -0.3201  0.2575 -0.4824
  608MOL0     C81970   2.992   0.074   5.272 -0.2908 -0.1794 -0.2642
  608MOL0     C81971   2.931   0.082   5.147 -0.7566 -0.8865  1.1205
  608MOL0     C81972   2.796   0.059   5.132  0.0489 -0.1113  0.1759
  608MOL0     C81973   2.744   0.058   4.994  0.2296 -0.2289  0.1319
  608MOL0     C81974   2.718   0.030   5.248  0.5525  0.5217  0.8387
  608MOL0     C81975   2.577  -0.019   5.242  0.5136  0.1426 -0.7916
  608MOL0     O81976   2.500   0.000   5.356 -0.0040  0.2556 -0.4444
  608MOL0     C81977   2.360  -0.005   5.351 -0.0682  0.2127 -0.2267
  608MOL0     C81978   2.284   0.047   5.247  0.3051 -0.2700  0.7850
  608MOL0     C81979   2.142   0.036   5.255  0.4513  0.4043 -0.7709
  608MOL0     C81980   2.083  -0.021   5.367  1.5904 -0.9669 -0.6153
  608MOL0     O81981   1.943  -0.035   5.369  0.0127 -0.2052  0.7033
  608MOL0     C81982   1.861  -0.087   5.462  0.9419 -0.4356  0.0959
  608MOL0     C81983   1.842   0.001   5.584  0.5070  0.5616 -0.2070
  608MOL0     C81984   1.794   0.144   5.546 -0.3555 -0.6084 -0.0450
  608MOL0     C81985   1.772   0.220   5.678 -0.3912  0.0799  0.6848
  608MOL0     C81986   1.746   0.369   5.640 -0.4600 -0.5441  0.2444
  608MOL0     C81987   1.692   0.455   5.750 -0.4111  1.5895  0.5035
  608MOL0     C81988   1.734   0.605   5.730 -0.0050 -0.0317  0.0452
  608MOL0     C81989   1.729   0.695   5.860  0.0999  0.0496 -1.2472
  608MOL0    Cl81990   1.597   0.641   5.967  0.1536  0.7533 -0.4532
  608MOL0     C81991   2.156  -0.064   5.475 -0.6735  0.9162  0.1875
  608MOL0     C81992   2.295  -0.055   5.465 -0.0628  1.0421  0.8327
  608MOL0     O81993   2.520  -0.062   5.142  0.3161 -0.7191  0.0154
  608MOL0     C81994   2.769   0.036   5.372  0.7521 -1.2260  0.1989
  608MOL0     C81995   2.914   0.053   5.383 -0.3545  0.1111 -0.1261
  608MOL0     N81996   3.207   0.769   5.159  0.2317 -0.0385 -0.8826
  608MOL0     N81997   3.295   0.854   5.145 -0.3019  0.0919 -1.3432
  608MOL0     C81998   4.526   0.601   4.656  1.1363  0.3610 -0.2700
  608MOL0     C81999   4.584   0.515   4.560  0.3446 -0.3163  0.9058
  608MOL0     C82000   4.748   0.258   4.246 -0.8664  0.1787  0.2784
  608MOL0     C82001   4.816   0.145   4.274  0.5546  0.3696  0.0921
  608MOL0     C82002   4.906   0.083   4.191 -0.1533 -0.3148  0.3173
  608MOL0     C82003   4.934   0.142   4.065 -0.0541 -0.9248  0.8291
  608MOL0     O82004   5.018   0.078   3.981 -0.8860 -0.7071  0.0388
  608MOL0     C82005   5.056   0.135   3.854  0.4687  0.1079 -0.4486
  608MOL0     C82006   5.194   0.104   3.818 -0.4573  0.7274 -0.0803
  608MOL0     C82007   5.216  -0.035   3.761 -0.4253 -0.9036 -0.3527
  608MOL0     C82008   5.368  -0.065   3.735  0.0593  0.1928 -1.0779
  608MOL0     C82009   5.426   0.006   3.626 -0.1042  0.0984  0.5505
  608MOL0     C82010   5.460   0.071   3.528 -0.2995  0.2151  0.0476
  608MOL0     C82011   4.871   0.261   4.041  0.0647  0.4444 -0.1761
  608MOL0     C82012   4.782   0.323   4.129  0.7297  0.2056  0.1125
  608MOL0     H82013   4.510   0.210   4.685 -1.1436 -0.1866  0.2411
  608MOL0     H82014   4.404   0.349   4.854  2.4305 -1.9140  0.9640
  608MOL0     H82015   4.471   0.772   4.882 -0.9199  0.7723 -0.1426
  608MOL0     H82016   4.353   0.770   4.748 -0.2567 -1.9017 -1.3565
  608MOL0     H82017   4.290   0.744   5.044  0.4042 -1.3014 -0.3167
  608MOL0     H82018   4.285   0.902   4.961  0.1775  0.7790 -0.4643
  608MOL0     H82019   4.108   0.820   4.800 -2.4554 -1.9172  0.1295
  608MOL0     H82020   4.116   0.663   4.872  0.5087  0.0393 -1.2210
  608MOL0     H82021   4.055   0.790   5.100 -1.2220  3.1830  1.6770
  608MOL0     H82022   4.046   0.930   4.998 -0.3143 -0.2775 -2.4258
  608MOL0     H82023   3.877   0.820   4.865 -1.5345 -0.2426 -0.2645
  608MOL0     H82024   3.889   0.670   4.964 -0.3016 -0.1425  1.4683
  608MOL0     H82025   3.814   0.827   5.163  2.3285 -1.5160 -0.1035
  608MOL0     H82026   3.776   0.948   5.046  1.0534  0.3515  1.1903
  608MOL0     H82027   3.616   0.800   4.937 -0.8208 -0.0126  0.3832
  608MOL0     H82028   3.646   0.674   5.068  0.3482 -0.2383  0.8129
  608MOL0     H82029   3.542   0.961   5.117 -0.8262 -0.6952 -1.0758
  608MOL0     H82030   3.577   0.858   5.233 -1.1812  2.7087  0.4418
  608MOL0     H82031   3.461   0.577   5.154 -1.5683 -1.0556 -2.2263
  608MOL0     H82032   3.108   0.509   5.110 -1.2474  0.0010  2.9188
  608MOL0     H82033   3.272   0.444   5.108 -1.1992 -2.0504  0.3806
  608MOL0     H82034   3.114   0.547   5.340  0.9180  0.7018 -0.8670
  608MOL0     H82035   3.275   0.470   5.349  1.1629  3.1933 -2.2492
  608MOL0     H82036   3.005   0.341   5.285 -0.4628  1.7937  0.7904
  608MOL0     H82037   3.097   0.309   5.434 -0.0154  0.5990 -0.2053
  608MOL0     H82038   3.284   0.205   5.321 -0.6412 -4.2552 -0.8363
  608MOL0     H82039   3.210   0.226   5.162  1.4781  0.2609 -0.2631
  608MOL0     H82040   2.993   0.084   5.058 -1.0349 -3.1895  0.8106
  608MOL0     H82041   2.818   0.095   4.922  0.6658 -2.9403 -0.9475
  608MOL0     H82042   2.712  -0.044   4.974 -2.3507  0.4283  0.5996
  608MOL0     H82043   2.661   0.125   4.970 -0.0359 -0.9117 -0.8969
  608MOL0     H82044   2.325   0.111   5.169  1.4983 -1.7776  0.1103
  608MOL0     H82045   2.079   0.065   5.172 -1.7853 -2.3456 -0.1652
  608MOL0     H82046   1.760  -0.092   5.420  0.4698 -0.2724  1.1849
  608MOL0     H82047   1.895  -0.188   5.487 -3.7647 -1.5809  3.0649
  608MOL0     H82048   1.765  -0.044   5.648  0.7309 -0.2332 -0.4826
  608MOL0     H82049   1.938   0.018   5.633  0.3667  1.5691 -0.2566
  608MOL0     H82050   1.705   0.141   5.483  1.1183  0.3377 -2.3298
  608MOL0     H82051   1.870   0.194   5.484 -1.3559  1.7010  0.4647
  608MOL0     H82052   1.679   0.178   5.720 -1.4015  0.7039 -0.8577
  608MOL0     H82053   1.856   0.208   5.747 -1.7127 -0.8639  2.2340
  608MOL0     H82054   1.681   0.365   5.552  1.4871 -3.1199 -1.2416
  608MOL0     H82055   1.844   0.405   5.607 -0.0283 -1.2078  0.7767
  608MOL0     H82056   1.586   0.428   5.754  0.0961 -0.5121  0.9228
  608MOL0     H82057   1.737   0.416   5.842  0.8182  0.2774 -0.5859
  608MOL0     H82058   1.670   0.648   5.653 -0.4528 -1.0357 -0.1437
  608MOL0     H82059   1.837   0.608   5.693 -0.5186 -0.9175 -1.5301
  608MOL0     H82060   1.697   0.797   5.836 -2.2500  0.8403  3.9203
  608MOL0     H82061   1.822   0.694   5.916 -1.6843  1.3344  2.0125
  608MOL0     H82062   2.122  -0.104   5.571  0.6546  0.2140  0.3859
  608MOL0     H82063   2.352  -0.073   5.556 -2.2515 -1.2157  1.8451
  608MOL0     H82064   2.721   0.021   5.468  1.7722 -0.1074  0.9091
  608MOL0     H82065   2.969   0.041   5.476  1.4258  0.9678 -1.0200
  608MOL0     H82066   4.538   0.708   4.668  0.4752  0.2567  1.5293
  608MOL0     H82067   4.625   0.580   4.484 -2.2474  1.7989  1.1613
  608MOL0     H82068   4.801   0.101   4.372 -1.2285  2.6060  0.9158
  608MOL0     H82069   4.948  -0.011   4.226 -1.4635 -0.7800  0.7007
  608MOL0     H82070   4.991   0.107   3.771 -0.2557  1.2188 -0.2847
  608MOL0     H82071   5.051   0.244   3.865  2.0085  0.0833  0.9311
  608MOL0     H82072   5.268   0.109   3.898  1.1298  2.3382 -1.5247
  608MOL0     H82073   5.222   0.180   3.743 -1.0228  0.7777 -0.2434
  608MOL0     H82074   5.164  -0.044   3.665 -0.9572 -0.8828 -0.0725
  608MOL0     H82075   5.179  -0.108   3.834  0.0383  0.8488  1.7205
  608MOL0     H82076   5.366  -0.168   3.698 -3.2085  0.0219 -0.7199
  608MOL0     H82077   5.426  -0.054   3.828 -0.6614  1.4471 -0.7588
  608MOL0     H82078   5.498   0.116   3.439  1.1270 -0.9204  0.0411
  608MOL0     H82079   4.866   0.308   3.943 -0.2795  0.4218 -0.1687
  608MOL0     H82080   4.741   0.415   4.088 -1.0387 -0.0469  1.2312
  609MOL0     O82081   9.250   3.930   4.771  0.1699 -0.8535  0.1380
  609MOL0     C82082   9.216   4.011   4.679 -0.1798  0.2281 -0.8011
  609MOL0     O82083   9.087   4.027   4.637 -0.2745  0.5858 -0.0663
  609MOL0     C82084   8.983   3.948   4.675  0.2347 -0.2035  0.3310
  609MOL0     C82085   8.963   3.916   4.813 -0.2232  0.0382  0.1598
  609MOL0     C82086   8.857   3.832   4.847  0.3488 -0.4784  0.3020
  609MOL0     C82087   8.763   3.792   4.749 -0.7192  0.7205 -0.2451
  609MOL0     O82088   8.652   3.711   4.769 -0.0619  0.4451 -0.0174
  609MOL0     C82089   8.694   3.581   4.829  0.6886  0.4058 -0.0495
  609MOL0     C82090   8.578   3.510   4.896  0.5249 -0.3060  0.0083
  609MOL0     C82091   8.462   3.458   4.806 -0.0510  0.1303 -1.1051
  609MOL0     C82092   8.429   3.303   4.834 -0.9511 -0.7371  0.9635
  609MOL0     C82093   8.329   3.238   4.734  0.0658  0.2521 -0.4043
  609MOL0     C82094   8.301   3.089   4.764  0.1105  0.3094 -0.3856
  609MOL0     C82095   8.203   3.040   4.658 -0.4128  0.4378  0.6145
  609MOL0     C82096   8.137   2.905   4.700  0.7738 -1.0631 -0.7412
  609MOL0     N82097   8.040   2.944   4.814 -0.4665 -1.0309 -0.2175
  609MOL0     C82098   7.931   3.026   4.810  0.3275 -0.1947  0.8647
  609MOL0     C82099   7.905   3.053   4.942  0.5758  0.6170  0.0380
  609MOL0     C82100   7.798   3.150   4.991 -1.5141 -1.0205 -0.2521
  609MOL0     C82101   7.677   3.078   5.055  0.9821 -0.8654  0.5921
  609MOL0     C82102   7.579   3.185   5.119  0.8715  0.5790 -0.5527
  609MOL0     C82103   7.478   3.096   5.201 -0.3085 -0.3982  1.1509
  609MOL0     O82104   7.408   3.187   5.293 -0.3265  0.1970 -0.0569
  609MOL0     C82105   7.272   3.177   5.302 -0.3732  0.2310 -0.6582
  609MOL0     C82106   7.194   3.069   5.265  0.2413 -0.0274  0.2870
  609MOL0     C82107   7.057   3.067   5.262  0.9021 -0.9661  0.4469
  609MOL0     C82108   6.991   2.935   5.215  0.0014 -0.0803  0.6560
  609MOL0     C82109   6.986   3.184   5.312  0.2655 -0.4429 -0.0032
  609MOL0     C82110   6.841   3.202   5.301 -0.3205  0.1128  0.0035
  609MOL0     O82111   6.777   3.278   5.393 -0.0649 -0.7287 -0.2839
  609MOL0     C82112   6.645   3.296   5.367  0.1573 -0.4603  0.0694
  609MOL0     C82113   6.543   3.219   5.428 -0.3985  0.5499  0.1484
  609MOL0     C82114   6.402   3.244   5.405  0.2248 -0.5895 -0.0933
  609MOL0     C82115   6.384   3.351   5.316  0.9429  0.9976 -0.4257
  609MOL0     O82116   6.245   3.362   5.280 -0.5494 -0.2848 -0.4417
  609MOL0     C82117   6.221   3.404   5.147  0.1128 -0.3307  0.3231
  609MOL0     C82118   6.068   3.405   5.117 -0.4008  0.2804  0.2166
  609MOL0     C82119   5.995   3.495   5.221  0.5018  0.1434 -0.1052
  609MOL0     C82120   6.025   3.637   5.172  1.4278  0.4243 -0.1112
  609MOL0     C82121   5.938   3.736   5.249  0.4198 -0.3749 -0.5518
  609MOL0     C82122   5.968   3.873   5.186 -0.2510  0.2944 -0.0781
  609MOL0     C82123   5.922   3.878   5.038  0.4054  0.0143 -0.0135
  609MOL0     C82124   5.865   4.025   5.009  0.5973  1.2048  0.1420
  609MOL0    Cl82125   5.784   4.054   4.848 -0.3871  0.1657 -0.6278
  609MOL0     C82126   6.483   3.425   5.252 -0.5722 -0.1435 -0.5574
  609MOL0     C82127   6.612   3.400   5.288 -0.6089 -1.3805 -0.5861
  609MOL0     O82128   6.791   3.145   5.206  0.5396  0.8097 -0.4046
  609MOL0     C82129   7.062   3.295   5.360 -0.1864  0.1415  0.1022
  609MOL0     C82130   7.206   3.288   5.357  1.2499 -0.1619  0.4115
  609MOL0     N82131   7.980   2.972   5.024 -0.6630 -0.1370  0.0097
  609MOL0     N82132   8.069   2.928   4.947 -0.4604  0.3181 -1.0917
  609MOL0     C82133   8.791   3.819   4.611  0.7126  0.2379 -0.2164
  609MOL0     C82134   8.891   3.896   4.570  0.1021  1.1455  0.6339
  609MOL0     C82135   9.326   4.079   4.618 -0.3199 -0.4174 -0.2190
  609MOL0     C82136   9.320   4.204   4.558  0.0444 -0.3577  0.2408
  609MOL0     C82137   9.422   4.267   4.489 -0.7459 -0.1275 -0.1207
  609MOL0     C82138   9.551   4.203   4.481  0.1184  0.3094 -0.5241
  609MOL0     O82139   9.670   4.260   4.435 -0.3142  0.5448 -0.6564
  609MOL0     C82140   9.654   4.390   4.384 -0.1226  0.6896  0.5083
  609MOL0     C82141   9.787   4.408   4.321  0.0388  0.1052  0.0891
  609MOL0     C82142   9.814   4.555   4.286 -1.1762  0.5232  0.9837
  609MOL0     C82143   9.964   4.576   4.256  0.5327  0.0722  0.2767
  609MOL0     C82144   9.998   4.550   4.114  0.0941 -0.3265 -0.0811
  609MOL0     C82145  10.042   4.524   4.010  0.3410 -0.3389  0.4544
  609MOL0     C82146   9.568   4.085   4.555  0.3609  0.0588 -0.4455
  609MOL0     C82147   9.459   4.039   4.633 -0.3060  0.4668 -0.0454
  609MOL0     H82148   9.039   3.946   4.884 -0.4470  2.2210 -0.4501
  609MOL0     H82149   8.828   3.799   4.946  2.7093  0.9998  1.5799
  609MOL0     H82150   8.739   3.509   4.759  0.6349  1.2878 -1.0061
  609MOL0     H82151   8.774   3.597   4.903  0.2210 -0.8375  0.7600
  609MOL0     H82152   8.619   3.424   4.950  0.0672 -1.2392 -1.0833
  609MOL0     H82153   8.531   3.580   4.965  2.6142  0.2365  0.9506
  609MOL0     H82154   8.376   3.523   4.823 -1.6165 -1.3347 -2.9204
  609MOL0     H82155   8.491   3.457   4.701 -2.0584  0.6719 -1.7146
  609MOL0     H82156   8.520   3.243   4.840  1.2618  2.4248  0.7564
  609MOL0     H82157   8.385   3.305   4.935 -0.5267  1.9819  1.1503
  609MOL0     H82158   8.237   3.297   4.731 -0.2215  0.0782  2.4442
  609MOL0     H82159   8.381   3.236   4.638 -0.3661 -2.8365 -0.6555
  609MOL0     H82160   8.387   3.022   4.775 -1.0101 -1.0681  0.2080
  609MOL0     H82161   8.242   3.092   4.856  0.7146  2.7254 -0.0038
  609MOL0     H82162   8.124   3.115   4.651 -0.2828  0.9326  3.3358
  609MOL0     H82163   8.254   3.039   4.561 -4.3923  2.2247 -1.7495
  609MOL0     H82164   8.199   2.819   4.728  0.5605 -1.2303 -0.7743
  609MOL0     H82165   8.081   2.869   4.613 -3.5076  0.3749  1.1521
  609MOL0     H82166   7.882   3.075   4.726 -0.1070 -2.4469 -0.2979
  609MOL0     H82167   7.844   3.228   5.052  0.2755 -2.3577  0.1818
  609MOL0     H82168   7.757   3.212   4.910 -0.1964 -0.8294 -0.7868
  609MOL0     H82169   7.691   3.008   5.138 -3.0183 -1.7901  0.6962
  609MOL0     H82170   7.628   3.017   4.979  0.7131  1.4027 -1.1728
  609MOL0     H82171   7.511   3.239   5.052 -1.6149  3.0205  3.5358
  609MOL0     H82172   7.636   3.250   5.185 -0.3589  0.9491  0.1716
  609MOL0     H82173   7.524   3.016   5.260  2.5994  3.3496  4.5707
  609MOL0     H82174   7.418   3.051   5.122 -0.3509  2.1680 -0.3870
  609MOL0     H82175   7.243   2.980   5.226 -0.0359  0.2806 -0.7928
  609MOL0     H82176   7.000   2.917   5.108  1.6207  1.5604  0.4612
  609MOL0     H82177   7.030   2.853   5.276 -3.7077 -2.5318  0.0513
  609MOL0     H82178   6.883   2.932   5.234 -0.1567  1.3975  0.1627
  609MOL0     H82179   6.576   3.150   5.505  1.1011  0.0254 -0.9128
  609MOL0     H82180   6.314   3.192   5.444  0.7560 -1.4592 -0.0202
  609MOL0     H82181   6.262   3.502   5.123  2.2181 -1.7528 -2.4584
  609MOL0     H82182   6.274   3.332   5.083 -1.0096 -1.2974  0.4218
  609MOL0     H82183   6.061   3.447   5.017  1.4494  2.3491  0.8725
  609MOL0     H82184   6.035   3.301   5.121 -2.8516  1.0286  0.8479
  609MOL0     H82185   6.029   3.489   5.325 -0.9687 -0.2160  0.3853
  609MOL0     H82186   5.887   3.479   5.216  0.4890 -0.3142  1.2208
  609MOL0     H82187   6.132   3.652   5.192  1.3362  1.5123 -0.3595
  609MOL0     H82188   6.013   3.660   5.066 -1.5087  1.4663  0.3490
  609MOL0     H82189   5.955   3.735   5.358 -1.6152 -1.7650 -0.1900
  609MOL0     H82190   5.834   3.703   5.243  0.4504 -1.2660  2.1616
  609MOL0     H82191   5.921   3.949   5.249  1.5974 -0.3538  2.2332
  609MOL0     H82192   6.075   3.894   5.186 -0.1769  0.0370 -1.7560
  609MOL0     H82193   5.851   3.802   5.005  0.5507  0.2407 -0.8501
  609MOL0     H82194   6.013   3.868   4.980  0.3087  2.3724 -0.6850
  609MOL0     H82195   5.952   4.092   5.008  1.1702  0.6084 -3.0907
  609MOL0     H82196   5.796   4.065   5.083 -1.6449 -1.8605 -0.1231
  609MOL0     H82197   6.462   3.506   5.182  2.2266  0.8626 -0.3555
  609MOL0     H82198   6.690   3.472   5.267 -1.3494 -0.6351 -0.8412
  609MOL0     H82199   7.008   3.387   5.383  0.3703  1.8029 -4.2756
  609MOL0     H82200   7.262   3.378   5.378 -1.1406  0.9423  2.5602
  609MOL0     H82201   8.721   3.782   4.536  0.2372  1.5422 -0.4473
  609MOL0     H82202   8.896   3.927   4.466 -0.0981  0.4028  0.4019
  609MOL0     H82203   9.221   4.249   4.551 -1.4975 -3.3194  1.1215
  609MOL0     H82204   9.404   4.358   4.432  2.0389  1.0416  0.7347
  609MOL0     H82205   9.566   4.410   4.321 -1.1667  2.4122  2.3893
  609MOL0     H82206   9.640   4.454   4.472  2.4278  0.0011  1.4909
  609MOL0     H82207   9.796   4.358   4.224  1.8232 -0.9188  0.7267
  609MOL0     H82208   9.862   4.362   4.386 -2.3786 -0.2695  2.8251
  609MOL0     H82209   9.781   4.619   4.369  0.1102  3.5916 -0.6688
  609MOL0     H82210   9.762   4.604   4.203  1.7833  1.5196 -0.4248
  609MOL0     H82211  10.024   4.519   4.327  1.3718  0.8187  0.1852
  609MOL0     H82212   9.970   4.683   4.280 -1.2248  0.2705  0.0175
  609MOL0     H82213  10.080   4.499   3.913  1.0021 -2.0807  1.1311
  609MOL0     H82214   9.654   4.021   4.571  0.2863 -0.1314 -0.8045
  609MOL0     H82215   9.481   3.951   4.693  1.4705  0.5654 -0.4981
  610MOL0     O82216   3.085  10.544   2.148 -0.2112 -0.2035  0.0650
  610MOL0     C82217   3.061  10.665   2.128 -1.1344  0.0442 -0.0424
  610MOL0     O82218   3.149  10.775   2.143 -0.4115 -0.5106 -0.4375
  610MOL0     C82219   3.284  10.767   2.175 -0.0681  0.3547 -0.6336
  610MOL0     C82220   3.359  10.653   2.162 -0.5452 -0.2136  0.0550
  610MOL0     C82221   3.490  10.640   2.205 -1.0955  0.2661  0.2669
  610MOL0     C82222   3.543  10.749   2.272 -0.0851  0.3720 -0.0222
  610MOL0     O82223   3.662  10.765   2.338 -0.4127 -0.4488 -0.1563
  610MOL0     C82224   3.746  10.651   2.370  0.1294 -0.5192  0.3201
  610MOL0     C82225   3.889  10.707   2.394 -0.1837  1.0891 -0.5370
  610MOL0     C82226   3.911  10.781   2.532  0.0228  0.7564  0.5964
  610MOL0     C82227   4.056  10.814   2.534 -0.0264 -0.6934 -0.4865
  610MOL0     C82228   4.097  10.860   2.673 -0.2133  0.0458  0.8736
  610MOL0     C82229   4.249  10.888   2.699  0.0231 -0.1804 -0.1867
  610MOL0     C82230   4.279  10.912   2.854 -0.2473  0.4209  0.1410
  610MOL0     C82231   4.426  10.908   2.884 -0.2241  0.4320 -0.3529
  610MOL0     N82232   4.489  11.044   2.886  0.3945 -0.2495  0.1480
  610MOL0     C82233   4.440  11.169   2.839  0.6890  0.0716  0.1474
  610MOL0     C82234   4.532  11.263   2.873  0.1380 -0.2448  1.2591
  610MOL0     C82235   4.543  11.411   2.839  0.2980  0.2102 -0.2345
  610MOL0     C82236   4.427  11.502   2.885 -0.5386 -0.4083 -0.2982
  610MOL0     C82237   4.479  11.649   2.883 -0.5320 -0.2288 -0.1666
  610MOL0     C82238   4.493  11.696   2.736  0.5996  0.1534  0.5561
  610MOL0     O82239   4.384  11.656   2.654 -0.1932 -0.3603  1.4049
  610MOL0     C82240   4.279  11.745   2.647  0.0536  0.0042 -0.4570
  610MOL0     C82241   4.165  11.698   2.692 -0.5362 -0.7448 -0.5988
  610MOL0     C82242   4.055  11.769   2.686  0.7078 -1.3935  0.5375
  610MOL0     C82243   3.924  11.698   2.726  0.3459 -1.4135  0.1548
  610MOL0     C82244   4.044  11.900   2.632  0.9971 -1.4349 -0.5468
  610MOL0     C82245   3.923  11.989   2.622  0.2109 -1.0745 -0.0871
  610MOL0     O82246   3.944  12.124   2.647  0.6492 -0.2836 -0.3127
  610MOL0     C82247   3.830  12.203   2.639 -0.8758  0.2625  0.6793
  610MOL0     C82248   3.796  12.268   2.759  0.3971  0.5189 -0.3585
  610MOL0     C82249   3.695  12.362   2.764  1.6087 -0.9196 -0.2028
  610MOL0     C82250   3.629  12.394   2.640  0.5303 -0.0513 -0.7600
  610MOL0     O82251   3.521  12.482   2.629 -1.0220  0.0263  0.2026
  610MOL0     C82252   3.473  12.560   2.739  0.6112 -1.3344 -0.0067
  610MOL0     C82253   3.386  12.675   2.693 -0.9503  0.9750  0.4621
  610MOL0     C82254   3.259  12.633   2.619 -0.6123 -0.0907  0.4557
  610MOL0     C82255   3.182  12.768   2.591 -0.3385  0.3697  0.0724
  610MOL0     C82256   3.047  12.737   2.533  0.3400  1.3500 -0.3295
  610MOL0     C82257   2.984  12.864   2.479  0.3584 -0.4847  0.5103
  610MOL0     C82258   2.835  12.866   2.448  0.3597  0.4327 -0.1350
  610MOL0     C82259   2.796  13.011   2.452  0.1651  0.3018 -0.5851
  610MOL0    Cl82260   2.620  13.015   2.440 -0.0402 -0.1803  0.0072
  610MOL0     C82261   3.674  12.338   2.526 -0.3676 -0.0519 -0.0237
  610MOL0     C82262   3.779  12.248   2.519 -0.0690 -0.0621 -0.4028
  610MOL0     O82263   3.819  11.936   2.582  0.3250  0.6549 -0.4251
  610MOL0     C82264   4.166  11.952   2.579 -0.7665  0.2218 -0.2039
  610MOL0     C82265   4.283  11.871   2.587 -0.2169  0.2822 -0.1907
  610MOL0     N82266   4.623  11.194   2.963  0.0392  0.2973 -0.3500
  610MOL0     N82267   4.590  11.071   2.977 -0.0755  0.0346 -0.3287
  610MOL0     C82268   3.468  10.863   2.291  0.0246 -0.6220 -0.1353
  610MOL0     C82269   3.337  10.874   2.244 -0.1135 -0.4518 -0.3821
  610MOL0     C82270   2.921  10.686   2.065 -0.1161  1.1874  0.2884
  610MOL0     C82271   2.867  10.579   1.984 -0.2765 -0.1194 -0.3116
  610MOL0     C82272   2.745  10.610   1.919 -0.2190 -0.9116 -0.1589
  610MOL0     C82273   2.683  10.744   1.927 -0.6218  0.1712 -0.5999
  610MOL0     O82274   2.561  10.752   1.861 -0.0433 -0.0611 -0.1167
  610MOL0     C82275   2.491  10.880   1.862  0.9893 -0.3944 -0.7892
  610MOL0     C82276   2.390  10.879   1.746  0.7896 -0.0278 -0.5735
  610MOL0     C82277   2.466  10.876   1.609  0.5473 -0.0375  0.8791
  610MOL0     C82278   2.385  10.913   1.477  0.1565  0.7225  0.5112
  610MOL0     C82279   2.444  10.859   1.360  0.0871 -0.1242  0.3577
  610MOL0     C82280   2.493  10.811   1.259 -0.8229  0.1230 -0.2982
  610MOL0     C82281   2.745  10.841   2.006 -0.0341  0.0462  0.1914
  610MOL0     C82282   2.862  10.808   2.081 -0.2359  0.1386  0.1043
  610MOL0     H82283   3.332  10.566   2.102 -0.8347 -1.0618  1.3776
  610MOL0     H82284   3.542  10.546   2.191 -1.6695  0.2716 -2.5171
  610MOL0     H82285   3.701  10.611   2.462 -1.6177 -0.3731 -0.4386
  610MOL0     H82286   3.743  10.569   2.297  0.7100 -0.8347  0.6399
  610MOL0     H82287   3.953  10.618   2.402  1.8497  2.3745 -1.6710
  610MOL0     H82288   3.923  10.764   2.307  0.2078  0.7114 -0.6394
  610MOL0     H82289   3.854  10.874   2.524  0.9008  1.1804 -1.0920
  610MOL0     H82290   3.874  10.722   2.616 -0.1037 -2.9476 -1.8184
  610MOL0     H82291   4.107  10.720   2.509  1.0222 -0.5728  1.0305
  610MOL0     H82292   4.073  10.891   2.458  0.4976  0.1018  0.4132
  610MOL0     H82293   4.035  10.949   2.692  1.9576  2.1335 -1.2019
  610MOL0     H82294   4.073  10.787   2.750 -0.9862 -0.2115  0.4007
  610MOL0     H82295   4.305  10.804   2.655 -1.0090 -1.2419  0.4471
  610MOL0     H82296   4.276  10.973   2.637 -3.5590  0.8941 -0.5112
  610MOL0     H82297   4.226  11.004   2.880  2.2871  2.1257 -0.3293
  610MOL0     H82298   4.238  10.823   2.903  0.7904  0.9845  2.1140
  610MOL0     H82299   4.483  10.853   2.809  0.7245  1.2899 -0.2848
  610MOL0     H82300   4.439  10.868   2.985 -3.3191 -3.6537 -1.3145
  610MOL0     H82301   4.350  11.183   2.780  0.3595  0.2497  0.6883
  610MOL0     H82302   4.636  11.460   2.871  1.1176 -1.3670 -0.1270
  610MOL0     H82303   4.535  11.414   2.730 -0.3601 -2.8780 -0.3538
  610MOL0     H82304   4.392  11.482   2.986 -0.5416 -1.5240 -0.5089
  610MOL0     H82305   4.343  11.489   2.816 -0.2633  1.2085 -0.9888
  610MOL0     H82306   4.578  11.657   2.931 -1.3368  1.2853  1.3355
  610MOL0     H82307   4.422  11.722   2.940  1.0125 -0.6998  2.1490
  610MOL0     H82308   4.573  11.637   2.690 -0.7829 -3.8628  2.7942
  610MOL0     H82309   4.509  11.803   2.726 -0.2235  0.2692  0.4936
  610MOL0     H82310   4.168  11.597   2.731 -1.8844 -1.3316 -1.8814
  610MOL0     H82311   3.941  11.635   2.813  1.6100 -3.6613 -1.6190
  610MOL0     H82312   3.851  11.771   2.762  2.0879 -0.7367  2.6193
  610MOL0     H82313   3.884  11.633   2.648  0.3732  0.7363 -1.7671
  610MOL0     H82314   3.849  12.236   2.848  0.8896  0.5925 -0.6230
  610MOL0     H82315   3.675  12.420   2.854 -2.2493 -2.9126  0.4446
  610MOL0     H82316   3.428  12.497   2.816 -0.1476 -2.4994 -1.3562
  610MOL0     H82317   3.571  12.598   2.770  0.6714 -0.8641 -0.7531
  610MOL0     H82318   3.349  12.722   2.785  0.7633 -2.6116  3.2175
  610MOL0     H82319   3.442  12.753   2.640  0.8104 -0.9375 -0.6133
  610MOL0     H82320   3.202  12.570   2.687  0.9080 -0.6445  1.2736
  610MOL0     H82321   3.289  12.573   2.532  2.1301 -0.7756  1.7533
  610MOL0     H82322   3.165  12.831   2.678  0.8595  0.2547  0.4137
  610MOL0     H82323   3.244  12.821   2.518  0.8990  0.2140  0.9843
  610MOL0     H82324   2.985  12.687   2.608  3.0351 -0.0431  1.1000
  610MOL0     H82325   3.052  12.671   2.446 -1.6250  0.3689  0.2382
  610MOL0     H82326   2.996  12.936   2.560 -0.5037 -2.5284  2.5438
  610MOL0     H82327   3.047  12.881   2.391  3.3121  0.8540  2.6994
  610MOL0     H82328   2.781  12.803   2.520  2.5322 -0.2260  1.0120
  610MOL0     H82329   2.812  12.813   2.355  2.6442 -1.1423  0.0938
  610MOL0     H82330   2.850  13.078   2.385  0.5701  0.5771  0.0124
  610MOL0     H82331   2.820  13.050   2.551  1.4905 -0.1903 -0.6970
  610MOL0     H82332   3.629  12.377   2.435  1.2634  2.6650  0.2132
  610MOL0     H82333   3.816  12.203   2.427 -0.0663  0.0737 -0.4687
  610MOL0     H82334   4.178  12.049   2.531  1.1776 -0.0669 -0.4103
  610MOL0     H82335   4.376  11.914   2.550  0.2902  0.7834  1.5407
  610MOL0     H82336   3.533  10.939   2.333  0.7699 -0.0978 -2.1383
  610MOL0     H82337   3.283  10.967   2.260  0.8530  0.3367 -1.5221
  610MOL0     H82338   2.906  10.477   1.985  0.3072  0.0774  2.0108
  610MOL0     H82339   2.683  10.534   1.872 -1.6985  2.0446 -3.3883
  610MOL0     H82340   2.441  10.887   1.960  1.3324 -0.1701 -0.6322
  610MOL0     H82341   2.557  10.967   1.859  1.6551 -0.8440  0.2779
  610MOL0     H82342   2.326  10.968   1.748  1.5281  0.4994 -0.1395
  610MOL0     H82343   2.325  10.793   1.765  0.2428  0.4448 -0.2823
  610MOL0     H82344   2.504  10.777   1.583  4.8124  2.1361 -2.7172
  610MOL0     H82345   2.556  10.939   1.609  1.6776 -1.5988  0.5039
  610MOL0     H82346   2.379  11.021   1.467  1.1494  0.5731 -2.4182
  610MOL0     H82347   2.287  10.867   1.498  1.0014 -0.1974  2.8151
  610MOL0     H82348   2.542  10.760   1.179 -3.7348  0.2631 -2.3215
  610MOL0     H82349   2.695  10.936   2.021  3.0859  1.9025 -0.2255
  610MOL0     H82350   2.887  10.898   2.136  1.5139  0.3395 -0.9318
  611MOL0     O82351   5.746   0.795   7.031  0.1507  0.5407 -0.1043
  611MOL0     C82352   5.810   0.691   7.033 -0.5433  0.2773 -0.0905
  611MOL0     O82353   5.754   0.567   7.047  0.3792 -0.3371  0.6623
  611MOL0     C82354   5.619   0.565   7.068 -0.4695 -0.1962  0.1009
  611MOL0     C82355   5.544   0.475   6.990 -0.4535 -0.5947 -0.3863
  611MOL0     C82356   5.401   0.475   7.006 -0.2723 -0.5388 -0.1770
  611MOL0     C82357   5.330   0.553   7.098 -0.0843  0.8442  0.1267
  611MOL0     O82358   5.193   0.533   7.108 -0.1951  0.4003  0.1253
  611MOL0     C82359   5.114   0.624   7.178 -0.3567  0.5481 -0.6163
  611MOL0     C82360   4.967   0.585   7.167 -0.1435  0.3368 -0.1263
  611MOL0     C82361   4.883   0.676   7.255  0.6254  0.0772  0.6704
  611MOL0     C82362   4.851   0.806   7.181  0.5709 -0.7077 -0.2694
  611MOL0     C82363   4.732   0.887   7.247  0.0830  0.0860 -0.5208
  611MOL0     C82364   4.709   1.004   7.152  0.0985  0.0233  0.3996
  611MOL0     C82365   4.608   1.099   7.210 -0.4393  0.4023  0.6649
  611MOL0     C82366   4.468   1.078   7.147  0.1965 -0.7608 -0.3427
  611MOL0     N82367   4.435   1.135   7.009  0.0374 -0.1369 -0.3947
  611MOL0     C82368   4.400   1.055   6.891  0.4266 -0.6909 -0.2249
  611MOL0     C82369   4.384   1.147   6.795 -0.0172 -0.2044 -1.0855
  611MOL0     C82370   4.345   1.116   6.648 -0.0612 -0.9660 -0.2149
  611MOL0     C82371   4.271   0.982   6.633 -0.1784 -0.6504 -0.1219
  611MOL0     C82372   4.155   0.999   6.536  0.1046  0.5920  1.3126
  611MOL0     C82373   4.083   0.855   6.513  0.0194 -0.6370 -0.8513
  611MOL0     O82374   4.001   0.842   6.623 -0.1418  0.3485 -0.3654
  611MOL0     C82375   3.919   0.731   6.642  0.4335 -0.8933  0.1104
  611MOL0     C82376   3.855   0.726   6.766  0.2233  0.1074  0.1596
  611MOL0     C82377   3.774   0.617   6.796 -0.6188  0.9135 -0.0472
  611MOL0     C82378   3.696   0.625   6.923 -0.2127  0.5953 -0.9629
  611MOL0     C82379   3.766   0.505   6.702  0.5203 -0.0224  0.3124
  611MOL0     C82380   3.672   0.409   6.735  0.6330 -0.4653  0.8118
  611MOL0     O82381   3.542   0.420   6.680  0.3051 -0.8571  0.0014
  611MOL0     C82382   3.448   0.317   6.695 -0.4182 -0.0524 -0.8324
  611MOL0     C82383   3.406   0.258   6.578 -0.1437  0.9212 -0.1719
  611MOL0     C82384   3.312   0.155   6.577 -0.0158  0.3072  0.2777
  611MOL0     C82385   3.247   0.123   6.696  0.1135 -0.2600 -0.2182
  611MOL0     O82386   3.136   0.040   6.686  0.9423 -0.6088  0.2983
  611MOL0     C82387   3.036   0.020   6.787  0.8060 -0.3712 -0.3223
  611MOL0     C82388   2.900  -0.003   6.738 -0.6321 -0.4663 -0.3167
  611MOL0     C82389   2.790  -0.009   6.849  0.2684  1.4126  0.3890
  611MOL0     C82390   2.644  -0.019   6.802 -1.4086  0.6146  0.2175
  611MOL0     C82391   2.551  -0.009   6.926  0.0965  0.1043 -0.0190
  611MOL0     C82392   2.534  -0.146   7.003 -0.6499 -0.3934 -0.4061
  611MOL0     C82393   2.439  -0.134   7.128 -0.3123 -0.4187  0.5248
  611MOL0     C82394   2.296  -0.133   7.079 -0.7165 -0.0108 -0.0893
  611MOL0    Cl82395   2.241  -0.302   7.068  0.0608 -0.0576  0.0637
  611MOL0     C82396   3.293   0.183   6.818  0.2969 -0.1800  0.2908
  611MOL0     C82397   3.397   0.284   6.818  0.0415 -0.2443 -0.1834
  611MOL0     O82398   3.712   0.320   6.808 -1.0093  1.3144  0.2810
  611MOL0     C82399   3.839   0.506   6.584 -0.5620  0.7561  0.1884
  611MOL0     C82400   3.912   0.619   6.553  0.1452 -0.3116 -0.2598
  611MOL0     N82401   4.393   1.269   6.851  0.4375  0.0947  0.7712
  611MOL0     N82402   4.424   1.266   6.974 -1.0698 -0.2508 -0.6877
  611MOL0     C82403   5.409   0.627   7.189 -0.0457  0.2432  0.1144
  611MOL0     C82404   5.548   0.643   7.167 -1.1501  0.3615 -0.2190
  611MOL0     C82405   5.956   0.704   7.022  0.0327  0.2622 -0.6653
  611MOL0     C82406   6.027   0.592   6.967 -0.2600 -1.1472 -0.1563
  611MOL0     C82407   6.169   0.620   6.977  0.4017  0.6068  0.8827
  611MOL0     C82408   6.236   0.727   7.028  0.3589  0.1947  0.4260
  611MOL0     O82409   6.370   0.701   7.043  0.3482 -0.3251  0.1241
  611MOL0     C82410   6.444   0.797   7.121 -1.0066  0.2706 -0.2331
  611MOL0     C82411   6.600   0.768   7.147  0.7863 -0.3277  0.6225
  611MOL0     C82412   6.665   0.720   7.018  0.1978 -0.1880  0.4372
  611MOL0     C82413   6.665   0.566   7.003  0.4427  0.9101  0.6612
  611MOL0     C82414   6.727   0.555   6.865  0.1346  0.5284 -0.6839
  611MOL0     C82415   6.786   0.560   6.758 -0.5252 -0.4243 -0.6106
  611MOL0     C82416   6.163   0.835   7.074  0.9403  0.0111 -0.9171
  611MOL0     C82417   6.023   0.822   7.073 -0.9824 -0.1094  0.1478
  611MOL0     H82418   5.590   0.397   6.931  1.8498 -0.5600  1.2385
  611MOL0     H82419   5.345   0.398   6.954 -0.4866  0.0364 -0.8133
  611MOL0     H82420   5.148   0.614   7.282  0.4877 -0.9774 -1.0135
  611MOL0     H82421   5.138   0.723   7.138  2.7674 -0.0209 -0.4342
  611MOL0     H82422   4.928   0.595   7.065 -1.0180 -2.2003 -0.1138
  611MOL0     H82423   4.944   0.484   7.202 -2.2586  0.3764 -1.2504
  611MOL0     H82424   4.788   0.626   7.278 -1.0509  2.2075 -1.1099
  611MOL0     H82425   4.941   0.707   7.342 -2.3811 -2.8114  4.0261
  611MOL0     H82426   4.942   0.867   7.189  0.8169 -1.2803  2.0988
  611MOL0     H82427   4.823   0.782   7.078 -5.5944 -0.2905  0.9100
  611MOL0     H82428   4.647   0.819   7.248 -0.8696  1.2527 -0.0342
  611MOL0     H82429   4.743   0.918   7.351 -1.0363 -0.6088 -0.1821
  611MOL0     H82430   4.803   1.058   7.137  1.4136 -2.3398 -0.3191
  611MOL0     H82431   4.670   0.963   7.058 -0.8142 -2.3948  1.7337
  611MOL0     H82432   4.603   1.090   7.319  1.0436 -0.4585  0.6770
  611MOL0     H82433   4.636   1.199   7.175 -2.6568  0.5171 -1.0747
  611MOL0     H82434   4.395   1.109   7.222 -1.6036 -0.0435 -2.2669
  611MOL0     H82435   4.446   0.971   7.141 -1.8750 -0.6230  2.6552
  611MOL0     H82436   4.395   0.947   6.892 -0.0912 -0.9088  5.3622
  611MOL0     H82437   4.289   1.204   6.617  0.7207  0.1733  1.4551
  611MOL0     H82438   4.436   1.106   6.588  1.7463 -3.1284  2.6129
  611MOL0     H82439   4.247   0.939   6.731  1.4041 -1.9535 -0.2552
  611MOL0     H82440   4.333   0.905   6.586 -0.2113 -1.9183  1.7922
  611MOL0     H82441   4.188   1.024   6.435 -2.2517 -1.6245 -0.1044
  611MOL0     H82442   4.084   1.076   6.569  0.0166  1.3472 -0.5343
  611MOL0     H82443   4.160   0.779   6.499  1.2999 -0.5408  4.0071
  611MOL0     H82444   4.021   0.871   6.424  0.5568  1.7627 -0.8744
  611MOL0     H82445   3.870   0.806   6.838  4.3186 -1.0451  0.8129
  611MOL0     H82446   3.701   0.721   6.974 -2.5274 -0.5001  1.6208
  611MOL0     H82447   3.587   0.619   6.915 -0.3469  1.6745 -0.1123
  611MOL0     H82448   3.724   0.542   6.988 -2.7315  1.4734  1.4386
  611MOL0     H82449   3.458   0.279   6.485 -3.0053  3.5967 -1.3404
  611MOL0     H82450   3.285   0.095   6.491  0.4081 -0.7045  0.8293
  611MOL0     H82451   3.063  -0.067   6.846  0.6421 -0.5410 -0.4974
  611MOL0     H82452   3.028   0.099   6.862  1.2335  1.1976 -1.8571
  611MOL0     H82453   2.872   0.075   6.667  1.5490  0.3738 -0.3245
  611MOL0     H82454   2.903  -0.100   6.688  3.1339  0.9616 -3.3213
  611MOL0     H82455   2.795   0.073   6.921 -1.9584  1.3599  0.6747
  611MOL0     H82456   2.805  -0.103   6.904 -0.8458  0.4524 -0.8958
  611MOL0     H82457   2.626   0.072   6.744 -0.5896  2.0566  2.1281
  611MOL0     H82458   2.624  -0.105   6.737  2.2025  0.7423 -1.2846
  611MOL0     H82459   2.451   0.026   6.900  0.3594  3.3015  2.7060
  611MOL0     H82460   2.588   0.066   6.996  1.2248  1.6972 -2.1992
  611MOL0     H82461   2.492  -0.227   6.943 -0.0688 -1.3172  0.4105
  611MOL0     H82462   2.629  -0.179   7.047  1.0911  3.4825 -0.8475
  611MOL0     H82463   2.460  -0.036   7.172 -2.7117  0.5039 -0.2342
  611MOL0     H82464   2.449  -0.219   7.196 -0.8513 -2.9344 -2.3291
  611MOL0     H82465   2.282  -0.085   6.981  2.6019  1.6768  0.1388
  611MOL0     H82466   2.231  -0.085   7.153  1.3617  0.8434  1.2559
  611MOL0     H82467   3.239   0.159   6.909  0.4945 -4.6143 -0.5310
  611MOL0     H82468   3.437   0.338   6.904 -0.1396 -1.2508  0.5463
  611MOL0     H82469   3.843   0.421   6.517 -2.8969  0.3236  0.5282
  611MOL0     H82470   3.964   0.616   6.458 -0.1720 -0.8288 -0.4220
  611MOL0     H82471   5.365   0.674   7.276  1.3476  1.4939  0.1783
  611MOL0     H82472   5.609   0.703   7.234  0.5381 -1.2620 -0.2061
  611MOL0     H82473   5.984   0.504   6.922 -2.6505 -2.0710  3.5011
  611MOL0     H82474   6.236   0.558   6.919 -1.4591 -0.0143 -0.7088
  611MOL0     H82475   6.447   0.892   7.067  0.3423  0.4744  0.1645
  611MOL0     H82476   6.399   0.812   7.220 -2.5244 -1.1479 -0.6600
  611MOL0     H82477   6.628   0.702   7.230  2.7057 -0.8291 -0.3631
  611MOL0     H82478   6.638   0.869   7.161  1.0243 -0.3627  0.2370
  611MOL0     H82479   6.767   0.758   7.018  0.3835 -0.6775  1.1397
  611MOL0     H82480   6.613   0.760   6.930  0.6633  0.9545  0.6698
  611MOL0     H82481   6.564   0.526   7.017 -0.0604  1.8167 -0.1953
  611MOL0     H82482   6.740   0.525   7.071 -0.2105 -0.2962  0.6795
  611MOL0     H82483   6.847   0.579   6.672 -1.6828 -2.7097 -2.0484
  611MOL0     H82484   6.205   0.921   7.124 -1.3754  0.6967 -0.0266
  611MOL0     H82485   5.973   0.911   7.111  0.4828  1.1968 -0.8896
  612MOL0     O82486   7.911   7.955   3.588 -0.4769  0.1032  0.5068
  612MOL0     C82487   7.994   8.038   3.543 -0.0986  0.5508 -0.3819
  612MOL0     O82488   8.035   8.146   3.605 -0.1651 -0.3238  0.0763
  612MOL0     C82489   7.988   8.182   3.726  0.2685  1.0992  0.5826
  612MOL0     C82490   7.901   8.285   3.728  0.2376 -0.0410  0.1617
  612MOL0     C82491   7.844   8.328   3.852 -0.7770 -1.0104  0.6767
  612MOL0     C82492   7.874   8.263   3.969 -0.0432 -0.0706  0.7501
  612MOL0     O82493   7.814   8.311   4.082  0.8295  0.0160  0.0406
  612MOL0     C82494   7.880   8.279   4.214  0.4603  0.3457 -0.1481
  612MOL0     C82495   7.838   8.382   4.312 -0.1710 -1.6928  0.3571
  612MOL0     C82496   7.916   8.383   4.448  0.0350 -1.1337 -0.1502
  612MOL0     C82497   7.858   8.475   4.556 -0.4466  0.0400 -0.9725
  612MOL0     C82498   7.719   8.451   4.601  0.2974 -0.6123  0.6777
  612MOL0     C82499   7.674   8.308   4.625  0.0356  0.5091  0.2998
  612MOL0     C82500   7.763   8.263   4.741  0.1130  0.5644  0.4586
  612MOL0     C82501   7.686   8.158   4.820  1.1111  0.0185  0.6949
  612MOL0     N82502   7.625   8.045   4.752 -0.1307 -0.3873  1.0369
  612MOL0     C82503   7.668   7.962   4.646 -0.0404 -0.4903  0.9406
  612MOL0     C82504   7.561   7.873   4.630  0.5599  0.3068 -0.1991
  612MOL0     C82505   7.552   7.752   4.536  0.5121  0.0103  0.0243
  612MOL0     C82506   7.592   7.791   4.385  0.0286  0.5432 -0.9062
  612MOL0     C82507   7.517   7.910   4.316 -0.1848  0.1812  0.0565
  612MOL0     C82508   7.575   7.952   4.175  0.5833  0.2162 -0.8820
  612MOL0     O82509   7.534   7.846   4.088  0.3511  0.4889 -0.2900
  612MOL0     C82510   7.533   7.876   3.952  0.3982  0.6841  0.0160
  612MOL0     C82511   7.422   7.830   3.878 -0.5806 -0.2225 -0.0360
  612MOL0     C82512   7.428   7.828   3.738 -0.4245 -0.0094  0.5869
  612MOL0     C82513   7.333   7.735   3.674 -0.1600 -0.4463 -0.2247
  612MOL0     C82514   7.529   7.911   3.673 -0.7958  0.6859  0.0180
  612MOL0     C82515   7.547   7.912   3.528 -0.2937  0.3104  0.1396
  612MOL0     O82516   7.560   8.036   3.472  0.0008 -0.6109 -0.2154
  612MOL0     C82517   7.569   8.033   3.341  0.2299  0.0745  0.3455
  612MOL0     C82518   7.690   8.059   3.275  0.2195  0.2825  0.3280
  612MOL0     C82519   7.687   8.049   3.132  0.6805  0.1275 -0.3033
  612MOL0     C82520   7.567   8.027   3.064  0.4814 -0.6097  1.1688
  612MOL0     O82521   7.560   7.995   2.931  0.5500  0.4396  0.2543
  612MOL0     C82522   7.648   8.050   2.828  0.1834  0.6542 -0.2096
  612MOL0     C82523   7.568   8.108   2.709  1.2438 -0.4337  0.4834
  612MOL0     C82524   7.497   8.245   2.732 -0.2770 -0.9887 -0.7434
  612MOL0     C82525   7.368   8.257   2.648 -0.0902  0.6040 -0.4940
  612MOL0     C82526   7.286   8.373   2.709 -0.3642 -0.3844 -0.2548
  612MOL0     C82527   7.153   8.386   2.639 -0.1511 -0.2437 -0.3926
  612MOL0     C82528   7.071   8.483   2.730  0.4120 -0.7088  0.6451
  612MOL0     C82529   6.925   8.507   2.685  0.0725 -0.1437 -0.0247
  612MOL0    Cl82530   6.951   8.593   2.524 -0.4846 -0.2110  0.9724
  612MOL0     C82531   7.447   8.010   3.129  0.6517 -0.1841 -1.8204
  612MOL0     C82532   7.443   8.008   3.272  0.0371  0.3388  0.3193
  612MOL0     O82533   7.576   7.801   3.473  0.1506 -0.3077 -0.2477
  612MOL0     C82534   7.630   7.967   3.749 -0.1864  0.1602  0.3777
  612MOL0     C82535   7.642   7.943   3.885  0.5132 -0.2301 -0.2579
  612MOL0     N82536   7.461   7.914   4.724  0.4854 -1.0373  0.0711
  612MOL0     N82537   7.503   8.016   4.794 -0.5059  0.4400 -0.1612
  612MOL0     C82538   7.956   8.152   3.961  0.5980 -0.5970  0.1762
  612MOL0     C82539   8.009   8.108   3.837  0.5885 -0.3333  0.3083
  612MOL0     C82540   8.051   7.994   3.411 -0.3235 -0.3283  1.0942
  612MOL0     C82541   8.169   8.052   3.361  0.2878  0.7581 -0.6133
  612MOL0     C82542   8.231   8.000   3.246 -0.2116 -0.2686  0.4589
  612MOL0     C82543   8.175   7.907   3.165 -0.4946 -0.2091 -0.5789
  612MOL0     O82544   8.227   7.865   3.046 -0.3630 -0.3409  0.4844
  612MOL0     C82545   8.268   7.722   3.034 -0.4613 -1.4018 -0.0367
  612MOL0     C82546   8.357   7.696   2.915  0.4689 -0.6089  0.4507
  612MOL0     C82547   8.268   7.689   2.795 -0.0730  0.4542  0.5318
  612MOL0     C82548   8.355   7.687   2.676  0.3284  0.3479 -0.3496
  612MOL0     C82549   8.458   7.582   2.679  0.1843 -0.0029  1.0493
  612MOL0     C82550   8.554   7.506   2.687 -0.3700 -0.0009  0.2549
  612MOL0     C82551   8.058   7.852   3.209 -0.5960 -1.1783 -0.7829
  612MOL0     C82552   8.002   7.889   3.331  0.3122 -0.5469 -0.6602
  612MOL0     H82553   7.867   8.336   3.638 -0.3130  0.6101  0.7206
  612MOL0     H82554   7.774   8.409   3.839  2.3649  1.8188  0.0108
  612MOL0     H82555   7.835   8.181   4.233  0.2737  0.2756 -0.8927
  612MOL0     H82556   7.989   8.274   4.211  0.4290 -1.6852  0.3987
  612MOL0     H82557   7.860   8.478   4.264 -2.5327 -1.8353 -1.1674
  612MOL0     H82558   7.729   8.387   4.324 -0.2972  0.0432 -0.9938
  612MOL0     H82559   7.911   8.281   4.486 -1.9802  0.3341  4.1935
  612MOL0     H82560   8.020   8.416   4.441  0.7067 -2.9477  0.5834
  612MOL0     H82561   7.922   8.477   4.645  0.0523 -1.3573 -1.2808
  612MOL0     H82562   7.855   8.575   4.512  0.9549  0.0785 -1.0305
  612MOL0     H82563   7.697   8.517   4.686 -2.5371 -0.3149 -0.1602
  612MOL0     H82564   7.657   8.497   4.524 -0.6980  0.9111  2.3082
  612MOL0     H82565   7.568   8.305   4.651 -0.4727  3.3690 -1.0765
  612MOL0     H82566   7.683   8.246   4.535  1.1016 -0.6904  1.1895
  612MOL0     H82567   7.859   8.224   4.706 -0.0900 -1.6580  2.1292
  612MOL0     H82568   7.773   8.345   4.813 -1.7970  1.0525  0.2279
  612MOL0     H82569   7.620   8.204   4.894  2.5501 -0.1978  2.1620
  612MOL0     H82570   7.759   8.105   4.882  2.9847 -0.2857 -1.6135
  612MOL0     H82571   7.760   7.955   4.589 -0.7812 -1.3298 -0.1845
  612MOL0     H82572   7.628   7.679   4.564  1.1085 -0.0578 -1.6370
  612MOL0     H82573   7.447   7.720   4.537  1.1331 -2.3132 -1.5859
  612MOL0     H82574   7.583   7.700   4.324 -2.2190 -0.1944  0.4056
  612MOL0     H82575   7.699   7.811   4.396  0.0503  0.8472 -1.6597
  612MOL0     H82576   7.533   7.998   4.379 -0.5056  0.4220 -0.1957
  612MOL0     H82577   7.412   7.888   4.298  0.1992 -0.5175 -1.4984
  612MOL0     H82578   7.683   7.966   4.178  0.3961  1.8124  0.9665
  612MOL0     H82579   7.525   8.048   4.159 -0.4329  0.0587  1.0367
  612MOL0     H82580   7.356   7.761   3.929  1.9461 -3.9181 -1.3350
  612MOL0     H82581   7.269   7.791   3.605  1.8569  0.7408 -1.2339
  612MOL0     H82582   7.394   7.665   3.615  3.0437  0.1544  2.1276
  612MOL0     H82583   7.276   7.674   3.744  1.0105 -0.8810  0.3767
  612MOL0     H82584   7.785   8.083   3.320  0.3279  1.3127 -0.4003
  612MOL0     H82585   7.783   8.057   3.081  0.6719 -1.0134 -0.5320
  612MOL0     H82586   7.703   8.128   2.880 -2.6883  2.5170  0.2513
  612MOL0     H82587   7.712   7.964   2.807  0.7135 -0.6445  5.2223
  612MOL0     H82588   7.632   8.119   2.621  4.7740  3.1102  3.1418
  612MOL0     H82589   7.488   8.037   2.684  0.1906  1.6656 -2.7654
  612MOL0     H82590   7.553   8.335   2.707  0.3605 -0.8712  0.9669
  612MOL0     H82591   7.476   8.240   2.839 -0.2385  0.0478 -0.6732
  612MOL0     H82592   7.388   8.273   2.542  1.6154  1.7328 -0.0483
  612MOL0     H82593   7.308   8.167   2.665 -0.3735  0.3569 -2.5677
  612MOL0     H82594   7.334   8.471   2.716 -2.0211  0.4320  0.3963
  612MOL0     H82595   7.262   8.344   2.812  0.2476 -3.5291 -0.8966
  612MOL0     H82596   7.167   8.419   2.536 -0.5560 -1.6548 -0.9277
  612MOL0     H82597   7.111   8.285   2.630  3.3246 -1.6747 -2.9113
  612MOL0     H82598   7.120   8.581   2.737 -1.3055  0.3188 -0.7662
  612MOL0     H82599   7.065   8.442   2.831 -2.4294 -1.8500  0.1197
  612MOL0     H82600   6.868   8.572   2.752  0.8909 -1.3939  1.9666
  612MOL0     H82601   6.868   8.416   2.663  1.1701 -0.4596 -1.8043
  612MOL0     H82602   7.355   7.993   3.074 -1.5017  0.6514  1.2590
  612MOL0     H82603   7.348   7.991   3.323  0.1876 -2.7827 -0.2858
  612MOL0     H82604   7.695   8.039   3.701  1.5351 -0.6965  1.3410
  612MOL0     H82605   7.736   7.972   3.931  0.7818 -3.5737  1.5997
  612MOL0     H82606   7.971   8.099   4.054 -2.1530 -0.4956  0.7481
  612MOL0     H82607   8.063   8.014   3.828  2.1697  0.6387 -0.8106
  612MOL0     H82608   8.230   8.123   3.416  1.2611  0.3799 -1.1813
  612MOL0     H82609   8.326   8.050   3.226 -1.0045  1.5732  1.1432
  612MOL0     H82610   8.337   7.707   3.117  1.6371  1.0912 -1.1848
  612MOL0     H82611   8.179   7.659   3.026  0.3619 -2.6516  0.4542
  612MOL0     H82612   8.410   7.602   2.935  0.6571 -0.7219 -0.5454
  612MOL0     H82613   8.436   7.771   2.900 -1.2395  0.7717 -2.5540
  612MOL0     H82614   8.195   7.770   2.783  0.0111  0.2298 -2.2305
  612MOL0     H82615   8.204   7.601   2.807  0.0414  0.0159 -1.6847
  612MOL0     H82616   8.400   7.786   2.660  2.2354 -0.1634  1.3799
  612MOL0     H82617   8.286   7.676   2.592  0.7171  1.5050 -0.8569
  612MOL0     H82618   8.641   7.446   2.701  0.5599  0.9407 -1.2841
  612MOL0     H82619   8.012   7.775   3.149 -1.9187 -3.1658  2.4959
  612MOL0     H82620   7.913   7.843   3.372  0.4139 -0.5184 -0.4051
  613MOL0     O82621   9.345   0.702   7.939 -0.2890  0.7508 -1.0238
  613MOL0     C82622   9.266   0.787   7.985 -0.1535  0.5167  0.3067
  613MOL0     O82623   9.294   0.917   8.005 -0.7625 -0.1494  0.1905
  613MOL0     C82624   9.423   0.960   7.998 -0.9888 -0.4120 -0.0372
  613MOL0     C82625   9.460   1.034   7.894 -0.7366  0.2241 -0.5413
  613MOL0     C82626   9.588   1.068   7.870  0.1994 -0.1637  0.7708
  613MOL0     C82627   9.691   1.024   7.961 -0.6551 -0.0078 -0.2822
  613MOL0     O82628   9.814   1.051   7.928  0.2454  0.1542 -0.6511
  613MOL0     C82629   9.920   0.970   7.972  0.4457  0.3071 -0.4925
  613MOL0     C82630  10.048   0.982   7.880  0.4711 -0.1336  0.9304
  613MOL0     C82631  10.180   0.947   7.955  0.2892 -0.3765  0.5700
  613MOL0     C82632  10.245   1.066   8.022  0.2505  0.3064 -0.5769
  613MOL0     C82633  10.399   1.036   8.035 -0.4317  0.1732  0.5960
  613MOL0     C82634  10.467   1.152   8.108 -0.0485 -0.1465 -0.4205
  613MOL0     C82635  10.621   1.127   8.132  0.0999  0.2640 -0.8575
  613MOL0     C82636  10.707   1.250   8.161 -0.5531 -0.6587 -0.2102
  613MOL0     N82637  10.719   1.337   8.037 -0.1745  0.2315 -0.1865
  613MOL0     C82638  10.825   1.326   7.948  0.8947  0.1613  0.9158
  613MOL0     C82639  10.795   1.420   7.856  0.1889  0.5336 -0.4585
  613MOL0     C82640  10.871   1.481   7.739 -0.2950  0.3708  0.4340
  613MOL0     C82641  10.963   1.598   7.790  0.0733 -0.0883  0.8147
  613MOL0     C82642  11.082   1.561   7.891  1.0201  0.4975 -0.2919
  613MOL0     C82643  11.174   1.437   7.860  0.5629 -0.5212  0.0282
  613MOL0     O82644  11.225   1.410   7.990  0.0513 -0.0921 -0.9636
  613MOL0     C82645  11.353   1.359   8.015  0.2393  0.1749 -0.1415
  613MOL0     C82646  11.453   1.324   7.918  0.4029 -0.2786 -0.3159
  613MOL0     C82647  11.578   1.288   7.964  0.4730  0.0326  0.0507
  613MOL0     C82648  11.668   1.258   7.846  0.0302 -0.9451  0.1273
  613MOL0     C82649  11.605   1.283   8.104 -0.4568 -0.3400  0.9384
  613MOL0     C82650  11.725   1.231   8.161  0.0553 -0.0467 -0.4608
  613MOL0     O82651  11.751   1.256   8.291 -0.4358  0.3287 -0.3548
  613MOL0     C82652  11.877   1.252   8.340 -0.6125 -0.4861 -0.5811
  613MOL0     C82653  11.891   1.260   8.480  0.4193 -0.0004 -0.7164
  613MOL0     C82654  12.019   1.273   8.537  0.2057 -1.2181 -0.1385
  613MOL0     C82655  12.142   1.279   8.470 -0.5815  0.0017  0.5079
  613MOL0     O82656  12.265   1.276   8.538  0.6361  0.4333 -0.1103
  613MOL0     C82657  12.380   1.311   8.457 -0.3699  0.0903 -0.4200
  613MOL0     C82658  12.507   1.316   8.543 -0.1808  0.3564 -0.3262
  613MOL0     C82659  12.623   1.364   8.455 -0.6598 -0.8746  0.1533
  613MOL0     C82660  12.754   1.382   8.544  0.2576 -0.2050  0.1113
  613MOL0     C82661  12.891   1.369   8.481  0.0922 -1.1452  0.0868
  613MOL0     C82662  12.900   1.474   8.371  0.0427  0.5240  0.2314
  613MOL0     C82663  13.027   1.454   8.293 -0.0756 -1.3443  0.3106
  613MOL0     C82664  13.045   1.339   8.207 -0.7606  0.1125 -0.3501
  613MOL0    Cl82665  12.931   1.330   8.066 -0.6949 -0.6542 -0.7373
  613MOL0     C82666  12.131   1.267   8.331  0.3281 -0.4008  1.2907
  613MOL0     C82667  12.000   1.259   8.269 -0.1133  0.2353  0.6542
  613MOL0     O82668  11.787   1.155   8.084 -0.4401 -0.5422  0.0424
  613MOL0     C82669  11.503   1.307   8.191  0.5380  0.1547  0.2202
  613MOL0     C82670  11.377   1.344   8.156  0.2292 -0.2911  0.6169
  613MOL0     N82671  10.673   1.473   7.891  0.5748 -0.6096  0.0252
  613MOL0     N82672  10.631   1.428   7.999  0.7311 -0.5234  0.6940
  613MOL0     C82673   9.650   0.951   8.079 -0.0803  0.0334  0.2869
  613MOL0     C82674   9.519   0.919   8.090  0.7443  0.2748  0.1468
  613MOL0     C82675   9.126   0.748   8.018 -0.3362 -0.2440  0.4043
  613MOL0     C82676   9.069   0.635   7.957  0.1137  0.4470 -0.8855
  613MOL0     C82677   8.939   0.585   7.989 -0.6356 -0.6080  0.1835
  613MOL0     C82678   8.868   0.654   8.091 -0.2109  0.3616  0.5195
  613MOL0     O82679   8.745   0.610   8.133  0.0369 -0.4977  0.3422
  613MOL0     C82680   8.671   0.524   8.042  0.2913 -0.6049  0.3725
  613MOL0     C82681   8.549   0.490   8.124 -0.5757  0.5473  0.8199
  613MOL0     C82682   8.442   0.602   8.122  0.1207  0.6407  0.5044
  613MOL0     C82683   8.434   0.690   8.248 -0.2889 -0.0002 -0.6362
  613MOL0     C82684   8.301   0.751   8.249  0.0539 -0.2514  0.2061
  613MOL0     C82685   8.191   0.802   8.233 -0.5933  0.2351 -0.9395
  613MOL0     C82686   8.928   0.758   8.160  0.1161 -0.3636 -0.3695
  613MOL0     C82687   9.049   0.808   8.115  0.2385  0.4130 -0.8303
  613MOL0     H82688   9.387   1.051   7.815 -1.8318 -1.5626  0.0354
  613MOL0     H82689   9.624   1.110   7.777 -2.9778 -0.8668 -0.9156
  613MOL0     H82690   9.954   1.014   8.067  0.9281  2.6466 -1.6607
  613MOL0     H82691   9.893   0.868   7.998  0.0790  0.7924  1.1626
  613MOL0     H82692  10.040   0.914   7.794  0.4670  0.4277  0.4808
  613MOL0     H82693  10.058   1.081   7.836 -1.0797 -0.7581 -0.9874
  613MOL0     H82694  10.187   0.850   8.007  3.8057 -2.1828 -2.7790
  613MOL0     H82695  10.240   0.926   7.866 -1.2065 -0.7581 -0.3892
  613MOL0     H82696  10.241   1.158   7.962 -1.7352 -1.0498 -2.6253
  613MOL0     H82697  10.201   1.078   8.122  2.6322 -0.6482  0.6862
  613MOL0     H82698  10.410   0.939   8.085 -0.3240  1.2726  2.8382
  613MOL0     H82699  10.442   1.034   7.935 -2.3817  3.8852 -0.5004
  613MOL0     H82700  10.456   1.240   8.044 -4.7010 -0.9088 -1.0403
  613MOL0     H82701  10.422   1.160   8.207  1.0073 -0.7286  0.1238
  613MOL0     H82702  10.651   1.060   8.212 -1.5966 -0.4681 -0.8052
  613MOL0     H82703  10.652   1.072   8.043 -4.5178 -2.4395 -1.1006
  613MOL0     H82704  10.809   1.226   8.195 -1.2476  0.2840  2.9345
  613MOL0     H82705  10.667   1.308   8.245 -1.3364 -1.9328  0.3228
  613MOL0     H82706  10.898   1.246   7.944 -0.6352 -1.2641  0.1339
  613MOL0     H82707  10.929   1.395   7.704 -2.7286 -1.5592  0.7791
  613MOL0     H82708  10.815   1.514   7.651 -0.0701 -0.1468  0.0870
  613MOL0     H82709  10.905   1.680   7.835 -0.6855 -0.9409  1.4429
  613MOL0     H82710  11.007   1.645   7.701 -1.4487  0.4940  0.3327
  613MOL0     H82711  11.020   1.543   7.979  0.5725  2.9098 -0.0498
  613MOL0     H82712  11.145   1.650   7.900  0.6975  1.0522 -2.7758
  613MOL0     H82713  11.259   1.460   7.795  2.0256  0.0421  2.0394
  613MOL0     H82714  11.117   1.353   7.819 -0.4633  0.5515 -0.7977
  613MOL0     H82715  11.428   1.339   7.813 -0.6451  2.4280  0.2388
  613MOL0     H82716  11.685   1.150   7.838  3.1035 -0.7515  2.4933
  613MOL0     H82717  11.647   1.310   7.752  3.9980 -0.3540 -0.5954
  613MOL0     H82718  11.765   1.304   7.864 -1.2631  1.3475  1.7232
  613MOL0     H82719  11.798   1.275   8.535 -0.3423  0.9553 -2.1917
  613MOL0     H82720  12.030   1.282   8.645 -1.1309  1.2546 -0.1362
  613MOL0     H82721  12.408   1.242   8.377  1.4724  2.6778 -2.1810
  613MOL0     H82722  12.366   1.412   8.417 -2.4011  0.4648  1.0950
  613MOL0     H82723  12.498   1.381   8.631  0.0839 -1.9197  1.4676
  613MOL0     H82724  12.528   1.219   8.588 -1.2420 -0.4305 -1.4418
  613MOL0     H82725  12.595   1.450   8.393  3.5389 -0.2901 -1.3142
  613MOL0     H82726  12.636   1.283   8.382  0.9711 -1.1332  0.6679
  613MOL0     H82727  12.745   1.488   8.571 -1.0957  0.0581 -1.2332
  613MOL0     H82728  12.737   1.322   8.634 -2.3603 -1.9131 -1.3881
  613MOL0     H82729  12.891   1.275   8.425  3.6290  0.3490 -2.8721
  613MOL0     H82730  12.965   1.366   8.561  0.9129 -2.6298 -0.6912
  613MOL0     H82731  12.818   1.464   8.299 -0.6193 -0.5092  1.0915
  613MOL0     H82732  12.899   1.567   8.428  0.6278 -0.0881  1.2522
  613MOL0     H82733  13.107   1.470   8.366 -2.1591  1.5982  2.1203
  613MOL0     H82734  13.022   1.539   8.224 -0.2506 -2.5829 -1.2633
  613MOL0     H82735  13.032   1.243   8.258  1.1756 -1.4695 -2.6059
  613MOL0     H82736  13.146   1.328   8.166 -0.0925  0.5774  1.1279
  613MOL0     H82737  12.210   1.263   8.256 -1.2161 -1.1892 -0.3736
  613MOL0     H82738  11.991   1.261   8.161 -1.1815 -0.0507  0.7320
  613MOL0     H82739  11.524   1.300   8.298 -0.6512  0.8602  0.5234
  613MOL0     H82740  11.298   1.363   8.228  1.1029  0.4719  1.4022
  613MOL0     H82741   9.724   0.915   8.150  1.3439 -0.6196 -1.4630
  613MOL0     H82742   9.499   0.849   8.171 -1.0492 -1.0702 -1.3743
  613MOL0     H82743   9.119   0.566   7.891 -3.1627 -0.2133 -2.9343
  613MOL0     H82744   8.900   0.496   7.941  1.4526 -0.5656 -1.7506
  613MOL0     H82745   8.651   0.577   7.949 -0.3401 -2.9605 -0.8943
  613MOL0     H82746   8.715   0.428   8.014 -0.1669 -0.9615  0.8603
  613MOL0     H82747   8.571   0.470   8.229 -0.5393 -0.0649  0.7025
  613MOL0     H82748   8.496   0.407   8.077  1.9662 -0.3089 -0.7735
  613MOL0     H82749   8.349   0.547   8.104  2.3620 -3.0080 -1.0360
  613MOL0     H82750   8.460   0.672   8.039  0.2489  1.6802  1.3816
  613MOL0     H82751   8.506   0.771   8.229  0.3414  0.1969  2.1875
  613MOL0     H82752   8.462   0.641   8.342 -1.7219 -1.4270 -0.9111
  613MOL0     H82753   8.094   0.843   8.212 -1.0149  0.2523  0.8685
  613MOL0     H82754   8.871   0.809   8.237  1.4938  1.2210 -0.3381
  613MOL0     H82755   9.089   0.898   8.161  0.1339  1.2957 -2.4030
  614MOL0     O82756  10.238  10.727   0.293  0.2386  0.4831 -0.4221
  614MOL0     C82757  10.269  10.785   0.391  0.3786  0.8770 -0.5527
  614MOL0     O82758  10.194  10.788   0.510 -0.7597  0.7618  0.8891
  614MOL0     C82759  10.087  10.707   0.513 -0.1892  0.2847  0.0360
  614MOL0     C82760  10.074  10.614   0.614 -0.1744 -0.0835  0.6259
  614MOL0     C82761   9.966  10.521   0.600  0.5849  0.1294 -0.2143
  614MOL0     C82762   9.860  10.528   0.508  0.4598  0.6596 -0.4119
  614MOL0     O82763   9.755  10.442   0.498 -0.5216 -1.0504 -0.1337
  614MOL0     C82764   9.780  10.296   0.500  0.4252  0.2241  0.9382
  614MOL0     C82765   9.653  10.214   0.534 -1.2481 -0.4966  0.1457
  614MOL0     C82766   9.562  10.275   0.643 -0.1266  0.8742  0.0462
  614MOL0     C82767   9.434  10.190   0.667  0.9608 -0.5650 -0.6272
  614MOL0     C82768   9.324  10.265   0.752 -0.0529  0.1714 -0.0891
  614MOL0     C82769   9.192  10.189   0.753  0.4380 -0.4603  0.1945
  614MOL0     C82770   9.069  10.271   0.786 -0.7355 -0.1701 -0.1372
  614MOL0     C82771   9.066  10.329   0.926  0.4766 -0.9260  0.1183
  614MOL0     N82772   8.941  10.393   0.965  0.4627  0.2995 -0.0218
  614MOL0     C82773   8.815  10.345   0.982  0.8994  0.5918  0.2241
  614MOL0     C82774   8.742  10.452   1.019  0.3350 -0.3032 -0.4524
  614MOL0     C82775   8.600  10.445   1.045 -0.0841  0.0086 -0.8791
  614MOL0     C82776   8.502  10.504   0.931 -0.3576 -0.3866  0.3905
  614MOL0     C82777   8.353  10.502   0.956  0.8579  1.1250 -1.2071
  614MOL0     C82778   8.282  10.557   0.828  0.2612  0.1130  0.7461
  614MOL0     O82779   8.283  10.457   0.719  0.3782  1.0624  0.0964
  614MOL0     C82780   8.202  10.354   0.744  0.4565 -0.3814  0.4611
  614MOL0     C82781   8.255  10.221   0.769 -0.0106  0.6585  0.8344
  614MOL0     C82782   8.169  10.116   0.767 -0.8550  0.8150  0.5998
  614MOL0     C82783   8.232   9.975   0.765 -0.2589 -0.2484  0.7732
  614MOL0     C82784   8.030  10.129   0.752  0.6509  0.3380  0.3255
  614MOL0     C82785   7.935  10.021   0.741 -0.0910 -0.1156 -1.2884
  614MOL0     O82786   7.855  10.018   0.640  0.6379 -0.2027  0.1837
  614MOL0     C82787   7.749   9.937   0.634  0.4539  1.2972  0.2774
  614MOL0     C82788   7.647   9.924   0.733 -0.3404 -0.8144  1.0833
  614MOL0     C82789   7.538   9.837   0.718  0.3850 -0.5228  0.0500
  614MOL0     C82790   7.543   9.742   0.623 -0.3965  0.4518  0.5240
  614MOL0     O82791   7.442   9.651   0.607 -0.0035  0.3696 -0.0601
  614MOL0     C82792   7.307   9.691   0.622  0.6928  0.1091 -0.5663
  614MOL0     C82793   7.262   9.796   0.513  0.0432  0.5032  0.4712
  614MOL0     C82794   7.112   9.813   0.493 -0.2206 -0.4860 -0.4944
  614MOL0     C82795   7.034   9.861   0.614 -0.1573  0.5767 -0.2087
  614MOL0     C82796   6.888   9.905   0.572 -0.1781  0.1170  0.1559
  614MOL0     C82797   6.813   9.963   0.696  0.1323  0.0496 -0.1255
  614MOL0     C82798   6.661   9.986   0.674 -0.4458 -1.0097 -0.1365
  614MOL0     C82799   6.593  10.026   0.803 -0.9011  0.4076  0.2257
  614MOL0    Cl82800   6.417  10.031   0.765 -0.0612  0.8301 -0.2317
  614MOL0     C82801   7.654   9.741   0.533  0.0852  0.4914  0.8793
  614MOL0     C82802   7.745   9.841   0.526 -0.2208  0.2277 -0.9031
  614MOL0     O82803   7.936   9.938   0.829  0.2805 -0.2476 -0.7576
  614MOL0     C82804   7.982  10.262   0.733 -0.0071 -0.0813  0.2373
  614MOL0     C82805   8.068  10.370   0.718  0.1734  0.7063  0.2213
  614MOL0     N82806   8.821  10.567   1.021  0.0037  0.6519  0.2197
  614MOL0     N82807   8.940  10.531   0.989  0.4943  0.1017  0.5323
  614MOL0     C82808   9.867  10.625   0.411  0.0164  0.1415 -0.6793
  614MOL0     C82809   9.982  10.705   0.412 -0.3856 -0.0381 -1.1066
  614MOL0     C82810  10.400  10.868   0.384  0.6257 -0.3327 -0.0238
  614MOL0     C82811  10.433  10.943   0.497  0.3475  0.7044  0.1693
  614MOL0     C82812  10.565  10.995   0.515 -0.1450 -0.2972 -1.0260
  614MOL0     C82813  10.651  10.993   0.397  0.2677 -0.3873  0.7008
  614MOL0     O82814  10.770  11.053   0.415 -0.3835 -1.0026 -0.1838
  614MOL0     C82815  10.888  11.013   0.340  0.3882  1.4800 -0.3137
  614MOL0     C82816  10.926  10.867   0.386 -0.4441  0.1818  0.7947
  614MOL0     C82817  11.001  10.876   0.519  0.0539 -1.2536 -0.2661
  614MOL0     C82818  11.076  10.743   0.546  0.0321  0.1348  0.5539
  614MOL0     C82819  11.002  10.619   0.537 -0.0156  0.7038 -0.3939
  614MOL0     C82820  10.958  10.508   0.520 -0.2547 -0.4850 -0.2343
  614MOL0     C82821  10.606  10.933   0.280 -0.3186  0.3054 -0.4736
  614MOL0     C82822  10.486  10.870   0.271  0.3482 -0.4965 -0.2478
  614MOL0     H82823  10.157  10.618   0.684 -2.3469  1.0006  3.2783
  614MOL0     H82824   9.954  10.453   0.684  0.6422  1.9820  1.3491
  614MOL0     H82825   9.805  10.266   0.398  1.5213  1.1233  0.9295
  614MOL0     H82826   9.858  10.273   0.573  2.7626  2.0941 -0.8347
  614MOL0     H82827   9.599  10.203   0.440  1.3232  1.4555 -1.6954
  614MOL0     H82828   9.697  10.120   0.568  1.5049  0.0404 -1.6676
  614MOL0     H82829   9.620  10.276   0.736  3.1939 -3.1301 -1.6364
  614MOL0     H82830   9.527  10.375   0.617 -1.8061  0.2230 -0.3554
  614MOL0     H82831   9.394  10.151   0.573 -0.4653 -3.6385  1.0824
  614MOL0     H82832   9.475  10.105   0.722 -0.6581 -1.5824 -0.9206
  614MOL0     H82833   9.358  10.267   0.856  0.6343 -2.3731 -0.1947
  614MOL0     H82834   9.309  10.370   0.724 -0.4797 -0.3064 -1.7521
  614MOL0     H82835   9.169  10.149   0.654  1.4366  0.2003 -0.3218
  614MOL0     H82836   9.196  10.120   0.837 -0.6951  3.4348  3.8395
  614MOL0     H82837   9.072  10.352   0.712 -1.7697  0.5446  0.5728
  614MOL0     H82838   8.987  10.204   0.760 -1.6333  0.7015  0.3935
  614MOL0     H82839   9.145  10.401   0.949 -0.2750  1.7384 -4.5085
  614MOL0     H82840   9.073  10.245   0.997 -1.4424 -1.1756  0.0587
  614MOL0     H82841   8.777  10.244   0.966 -1.5308  2.0909 -6.3182
  614MOL0     H82842   8.566  10.343   1.064 -0.3922  0.2901  0.1116
  614MOL0     H82843   8.585  10.501   1.138 -0.0251 -0.5639 -0.5252
  614MOL0     H82844   8.513  10.438   0.844 -0.0254  0.7853 -0.4723
  614MOL0     H82845   8.529  10.608   0.911 -1.1209  0.1116  1.8176
  614MOL0     H82846   8.319  10.560   1.042 -0.2103  1.4549 -1.8279
  614MOL0     H82847   8.317  10.400   0.969 -3.3622  2.6224  0.6349
  614MOL0     H82848   8.318  10.658   0.802  3.3967 -1.7342 -3.2153
  614MOL0     H82849   8.176  10.566   0.853  0.5423  1.5347  1.5709
  614MOL0     H82850   8.363  10.217   0.779 -0.1107 -1.6327  1.4461
  614MOL0     H82851   8.252   9.933   0.864  5.3205  2.2305  1.1170
  614MOL0     H82852   8.164   9.906   0.714 -2.2343 -0.1785  3.1561
  614MOL0     H82853   8.321   9.976   0.701 -1.6521 -4.0149 -1.5799
  614MOL0     H82854   7.669   9.990   0.816  1.9350 -1.2683  0.9173
  614MOL0     H82855   7.457   9.829   0.790  0.5272 -3.2217 -0.0137
  614MOL0     H82856   7.250   9.597   0.618  1.5139 -0.4682  0.9094
  614MOL0     H82857   7.288   9.736   0.720  1.6242  1.2125 -0.8633
  614MOL0     H82858   7.300   9.897   0.531 -0.4554  1.0560 -1.3691
  614MOL0     H82859   7.307   9.782   0.414  0.7558  1.6837  0.5994
  614MOL0     H82860   7.079   9.720   0.444 -1.9511 -0.6780  0.9097
  614MOL0     H82861   7.100   9.891   0.418 -5.8515 -1.1447 -0.7272
  614MOL0     H82862   7.037   9.775   0.682  0.6289 -0.7477 -1.8311
  614MOL0     H82863   7.076   9.953   0.654  0.2841  0.8380 -1.2267
  614MOL0     H82864   6.831   9.821   0.531 -0.0197  0.1323 -0.1012
  614MOL0     H82865   6.880   9.978   0.490 -2.5768 -1.8244 -1.5392
  614MOL0     H82866   6.816   9.890   0.777  1.0735  1.3650  1.0792
  614MOL0     H82867   6.877  10.045   0.729  3.1135 -2.0641 -0.3235
  614MOL0     H82868   6.616   9.892   0.643  2.3722 -2.8885  1.0339
  614MOL0     H82869   6.644  10.059   0.594 -3.4757 -0.9590  0.4518
  614MOL0     H82870   6.627  10.121   0.845 -1.2882 -0.0042  1.5178
  614MOL0     H82871   6.610   9.937   0.863  1.2349 -1.5983 -3.0234
  614MOL0     H82872   7.656   9.664   0.456 -0.2914  0.6338  0.7242
  614MOL0     H82873   7.823   9.838   0.450 -0.2136 -0.1236 -0.8798
  614MOL0     H82874   7.875  10.278   0.739  0.3670  2.4769  1.2098
  614MOL0     H82875   8.014  10.463   0.702 -2.4612 -0.8240 -0.5091
  614MOL0     H82876   9.794  10.625   0.331  1.5792 -1.9833 -2.2403
  614MOL0     H82877  10.005  10.769   0.328  3.4141  1.4708  0.8204
  614MOL0     H82878  10.364  10.948   0.581 -0.3849  1.5863 -0.4606
  614MOL0     H82879  10.585  11.051   0.606  1.6910 -0.1369 -1.4978
  614MOL0     H82880  10.870  11.024   0.233 -0.0927 -0.5235 -0.4748
  614MOL0     H82881  10.976  11.069   0.372  1.1691  0.2930 -0.3063
  614MOL0     H82882  11.002  10.821   0.322 -1.7122 -1.1495  0.1920
  614MOL0     H82883  10.834  10.809   0.387 -0.5127  0.2985  1.3574
  614MOL0     H82884  10.935  10.904   0.602  1.5202  0.8360  0.2660
  614MOL0     H82885  11.071  10.959   0.508 -3.6377  2.0469 -1.2391
  614MOL0     H82886  11.115  10.748   0.648  1.4408 -0.0451  0.0427
  614MOL0     H82887  11.167  10.739   0.485  0.0644 -3.5045  0.5853
  614MOL0     H82888  10.938  10.412   0.478 -0.1847 -0.5083 -0.2158
  614MOL0     H82889  10.678  10.936   0.199 -0.2903 -0.3026 -0.4752
  614MOL0     H82890  10.446  10.822   0.182 -1.4703  1.4072 -0.5224
  615MOL0     O82891   6.468   4.200   6.934 -0.1278 -0.1760 -0.1496
  615MOL0     C82892   6.441   4.229   7.049  0.1839  0.3754  0.3582
  615MOL0     O82893   6.336   4.174   7.120 -0.2607 -0.3979 -0.8577
  615MOL0     C82894   6.240   4.092   7.065  0.1163 -0.8133  0.4095
  615MOL0     C82895   6.105   4.134   7.078 -1.0361  1.3487 -0.5808
  615MOL0     C82896   6.009   4.084   6.989  0.6392 -0.1035 -0.6534
  615MOL0     C82897   6.036   3.990   6.900 -0.5857 -1.1244 -0.3310
  615MOL0     O82898   5.934   3.948   6.828 -0.3180  1.0296 -0.1589
  615MOL0     C82899   5.943   3.977   6.688  0.2279 -0.1958  0.0980
  615MOL0     C82900   5.840   3.887   6.618  0.4023  0.7623  0.6303
  615MOL0     C82901   5.883   3.740   6.622  0.7482 -1.3635  1.0332
  615MOL0     C82902   5.777   3.645   6.553  0.2423  1.3759 -0.4441
  615MOL0     C82903   5.818   3.496   6.587  0.4261 -0.9691  0.3146
  615MOL0     C82904   5.744   3.390   6.500 -0.1243 -1.3047  0.5287
  615MOL0     C82905   5.590   3.404   6.506  0.8979  0.0922 -0.1945
  615MOL0     C82906   5.535   3.377   6.647 -1.2855 -0.1698  0.0312
  615MOL0     N82907   5.390   3.330   6.670 -0.6096 -0.6370  0.6923
  615MOL0     C82908   5.333   3.230   6.585 -0.2426 -0.0165  0.2614
  615MOL0     C82909   5.206   3.221   6.639  0.6500  0.3183 -0.6740
  615MOL0     C82910   5.075   3.143   6.606  0.4495  0.0586 -0.5199
  615MOL0     C82911   5.075   3.130   6.450 -0.4105 -0.4646  0.0848
  615MOL0     C82912   4.987   3.244   6.382 -0.2666  0.4883 -0.1330
  615MOL0     C82913   4.852   3.182   6.338 -0.4617  0.3948 -0.3795
  615MOL0     O82914   4.789   3.130   6.452  0.6725  0.1314 -0.1243
  615MOL0     C82915   4.651   3.127   6.456 -0.8837 -0.0064  0.2392
  615MOL0     C82916   4.586   3.130   6.582 -1.0631 -0.3733  0.6007
  615MOL0     C82917   4.442   3.127   6.585  0.2123 -0.6032  0.2674
  615MOL0     C82918   4.381   3.100   6.720  0.1020 -0.1545 -0.2698
  615MOL0     C82919   4.365   3.126   6.464 -0.4637  0.5265  0.3601
  615MOL0     C82920   4.217   3.128   6.441  1.0026  0.0954 -0.3571
  615MOL0     O82921   4.166   3.134   6.314  0.6306  0.2083  0.5224
  615MOL0     C82922   4.029   3.098   6.290  0.4576 -0.7855  0.9650
  615MOL0     C82923   3.957   3.010   6.368  0.5127  0.1346 -0.1537
  615MOL0     C82924   3.820   2.992   6.347  0.3141 -0.8807  0.9741
  615MOL0     C82925   3.752   3.063   6.248 -0.2837 -1.3589  0.3488
  615MOL0     O82926   3.620   3.031   6.210 -0.1272 -0.9122 -0.5577
  615MOL0     C82927   3.588   2.897   6.187 -0.4428  0.0242  0.2996
  615MOL0     C82928   3.439   2.897   6.143 -0.7081 -0.3263  0.0464
  615MOL0     C82929   3.412   2.770   6.061  0.5220 -0.6199 -0.2835
  615MOL0     C82930   3.267   2.780   6.007 -0.6028  0.9380 -0.6628
  615MOL0     C82931   3.151   2.802   6.107  0.6605 -0.2612 -1.0252
  615MOL0     C82932   3.018   2.781   6.043  0.1421  0.3216 -0.8803
  615MOL0     C82933   2.894   2.789   6.130 -0.3064 -0.1114 -0.2833
  615MOL0     C82934   2.876   2.683   6.244  0.2363  0.0579  0.1499
  615MOL0    Cl82935   2.974   2.531   6.222  0.1135 -0.2109  0.4371
  615MOL0     C82936   3.821   3.152   6.167 -1.6519 -0.4359  0.4952
  615MOL0     C82937   3.965   3.174   6.192  0.0904 -0.6916 -0.3396
  615MOL0     O82938   4.143   3.142   6.543 -0.5954 -0.8871  0.0537
  615MOL0     C82939   4.445   3.118   6.346  0.7373  0.2694  0.3390
  615MOL0     C82940   4.580   3.111   6.341  0.1837  0.4435  0.0165
  615MOL0     N82941   5.208   3.302   6.756  0.3672  0.4311 -0.0806
  615MOL0     N82942   5.314   3.366   6.777 -0.1612 -0.0779  0.0011
  615MOL0     C82943   6.162   3.937   6.899 -0.1038  0.7893  0.1329
  615MOL0     C82944   6.264   3.996   6.973 -0.3982 -0.4452  0.7606
  615MOL0     C82945   6.539   4.306   7.120  0.4648  0.3362  0.0423
  615MOL0     C82946   6.545   4.288   7.263 -0.4700 -0.0322  0.1151
  615MOL0     C82947   6.636   4.372   7.332  0.1330  0.9238  0.0018
  615MOL0     C82948   6.723   4.458   7.260 -1.1663  0.8228 -1.0165
  615MOL0     O82949   6.818   4.545   7.313 -0.2437 -0.0326 -0.4579
  615MOL0     C82950   6.798   4.590   7.449  0.0661 -0.5003 -0.0744
  615MOL0     C82951   6.890   4.701   7.473 -0.6665 -0.2469 -0.0320
  615MOL0     C82952   6.883   4.812   7.361  0.2499 -0.6790  0.4013
  615MOL0     C82953   6.990   4.919   7.399  0.2585 -0.2524  0.4381
  615MOL0     C82954   7.130   4.865   7.372 -0.2762 -0.5308  0.0403
  615MOL0     C82955   7.241   4.819   7.345 -0.6039 -0.5432  0.1091
  615MOL0     C82956   6.717   4.464   7.124 -0.5712  0.0183  0.2338
  615MOL0     C82957   6.636   4.392   7.056  1.0028  0.4334 -0.0516
  615MOL0     H82958   6.074   4.214   7.144  3.2342  3.9515 -1.3155
  615MOL0     H82959   5.910   4.129   6.997  1.3224  2.1019 -3.1612
  615MOL0     H82960   5.920   4.081   6.663 -0.0147 -0.7496 -2.2201
  615MOL0     H82961   6.042   3.953   6.649  0.5908 -0.1479  0.9804
  615MOL0     H82962   5.740   3.895   6.663 -0.1209  1.5297 -0.5980
  615MOL0     H82963   5.824   3.910   6.512 -4.5194  3.0291  1.5650
  615MOL0     H82964   5.983   3.753   6.579  1.5421  0.9169  3.2789
  615MOL0     H82965   5.907   3.701   6.721 -0.6322 -4.6119  0.2122
  615MOL0     H82966   5.676   3.672   6.586  1.1946  2.8546  1.4474
  615MOL0     H82967   5.783   3.675   6.448  3.9017  1.5120 -0.3276
  615MOL0     H82968   5.925   3.495   6.569  0.1624  0.3906 -1.6746
  615MOL0     H82969   5.792   3.474   6.691  0.3392  0.7725  0.6887
  615MOL0     H82970   5.768   3.403   6.394  0.6420 -1.6241  0.6513
  615MOL0     H82971   5.780   3.289   6.526  4.0024 -0.0418  0.4740
  615MOL0     H82972   5.560   3.504   6.474 -1.0496  0.4963  2.4824
  615MOL0     H82973   5.548   3.329   6.438 -1.6241  0.2910  1.0145
  615MOL0     H82974   5.550   3.474   6.696 -2.5324 -0.0151  0.1305
  615MOL0     H82975   5.593   3.305   6.707 -1.2053 -1.1451 -1.1827
  615MOL0     H82976   5.376   3.178   6.500 -1.3260  0.3405 -0.5307
  615MOL0     H82977   5.061   3.042   6.646 -4.0785  0.3811 -0.7825
  615MOL0     H82978   4.989   3.197   6.646  0.3710 -1.4572  1.4736
  615MOL0     H82979   5.039   3.031   6.422 -1.0128  0.3211 -2.0985
  615MOL0     H82980   5.178   3.132   6.412 -0.4978  1.4084 -0.1231
  615MOL0     H82981   5.038   3.284   6.294  0.7821  1.6423  0.9650
  615MOL0     H82982   4.977   3.332   6.447  2.4788  0.3797  0.5784
  615MOL0     H82983   4.872   3.103   6.266 -2.3666  0.9871 -1.6322
  615MOL0     H82984   4.802   3.265   6.287 -0.3200  1.3148  0.9186
  615MOL0     H82985   4.645   3.143   6.673  2.8266  0.9693 -1.8522
  615MOL0     H82986   4.347   3.190   6.771  0.1386 -0.5622  0.4848
  615MOL0     H82987   4.298   3.028   6.715  1.8538 -2.2037 -2.4823
  615MOL0     H82988   4.460   3.051   6.776 -2.7251 -2.1598  2.2649
  615MOL0     H82989   4.012   2.972   6.454 -1.5878  0.5172  1.4296
  615MOL0     H82990   3.770   2.921   6.411  0.5353 -2.1087 -0.1870
  615MOL0     H82991   3.646   2.856   6.103  1.2979  2.9672 -0.0499
  615MOL0     H82992   3.608   2.836   6.276  0.0126 -0.7170 -0.3002
  615MOL0     H82993   3.373   2.898   6.230 -1.4008  1.1123 -0.4709
  615MOL0     H82994   3.416   2.986   6.085  1.7914 -1.2303 -2.5600
  615MOL0     H82995   3.426   2.688   6.131  1.1282 -1.0670 -0.9166
  615MOL0     H82996   3.481   2.751   5.978  1.6835  3.5251 -0.5201
  615MOL0     H82997   3.269   2.870   5.944 -3.3705  1.4728 -0.1069
  615MOL0     H82998   3.251   2.697   5.938 -1.8624  2.6954 -2.6120
  615MOL0     H82999   3.146   2.902   6.151 -2.8448 -0.6163 -0.3318
  615MOL0     H83000   3.158   2.731   6.189 -0.1515  0.9333  0.1143
  615MOL0     H83001   3.003   2.848   5.958  0.7164  0.7170 -0.6682
  615MOL0     H83002   3.022   2.682   5.996  1.4685  0.3375 -0.8312
  615MOL0     H83003   2.813   2.781   6.058  0.8334 -0.5200 -1.5630
  615MOL0     H83004   2.890   2.888   6.177 -2.4993  0.0400 -0.6797
  615MOL0     H83005   2.769   2.658   6.251 -0.6103  3.0527 -0.4969
  615MOL0     H83006   2.920   2.736   6.329  1.4604 -2.5982  1.2700
  615MOL0     H83007   3.789   3.197   6.074 -0.7659 -1.2686 -0.2293
  615MOL0     H83008   4.026   3.241   6.132  0.0764  0.7716  1.2096
  615MOL0     H83009   4.395   3.104   6.251  2.6323 -0.3022 -0.6318
  615MOL0     H83010   4.617   3.095   6.240 -0.2025 -1.0558  0.0837
  615MOL0     H83011   6.190   3.858   6.831 -1.4528  1.5744 -1.4092
  615MOL0     H83012   6.366   3.970   6.945  0.9372  1.7998  3.1447
  615MOL0     H83013   6.470   4.223   7.308 -2.0512 -1.4667 -4.0507
  615MOL0     H83014   6.634   4.371   7.441 -2.0759 -0.7614  0.0236
  615MOL0     H83015   6.694   4.617   7.470 -0.4703 -2.4658 -0.0568
  615MOL0     H83016   6.829   4.517   7.523  1.2032  0.8538  0.8267
  615MOL0     H83017   6.989   4.656   7.461  0.4198  2.5098 -2.9242
  615MOL0     H83018   6.871   4.735   7.575  0.3386 -0.8578  0.3636
  615MOL0     H83019   6.788   4.866   7.359  1.4863  1.5686 -0.5516
  615MOL0     H83020   6.897   4.777   7.258  4.2675  0.0591  0.5478
  615MOL0     H83021   6.996   4.965   7.498 -2.4255  0.1957  0.4845
  615MOL0     H83022   6.976   5.009   7.340 -2.6613  1.1592  2.9945
  615MOL0     H83023   7.332   4.766   7.326  1.4254  2.5057  0.7368
  615MOL0     H83024   6.776   4.537   7.069  1.1901 -0.1484  1.8140
  615MOL0     H83025   6.638   4.398   6.948 -0.0564 -1.4156 -0.2268
  616MOL0     O83026   3.155   6.261   0.446  1.3359  0.3939 -0.7692
  616MOL0     C83027   3.201   6.372   0.463 -0.3149 -0.1676  0.0060
  616MOL0     O83028   3.130   6.487   0.464 -0.2402  0.1099  0.4292
  616MOL0     C83029   2.995   6.501   0.486 -1.0064 -0.6597 -0.2750
  616MOL0     C83030   2.957   6.639   0.494 -0.1752  0.0121 -0.4969
  616MOL0     C83031   2.832   6.681   0.519  0.2309  0.8256 -0.2467
  616MOL0     C83032   2.737   6.585   0.556  0.2811  0.4981  0.5124
  616MOL0     O83033   2.615   6.633   0.592 -0.4847 -0.2349 -0.3336
  616MOL0     C83034   2.496   6.550   0.608  0.6544  0.2179  0.6608
  616MOL0     C83035   2.428   6.547   0.463 -0.4343  0.4417 -0.4073
  616MOL0     C83036   2.423   6.679   0.393  0.1367 -0.6790  0.3274
  616MOL0     C83037   2.306   6.692   0.295  0.1676 -0.5600 -0.3141
  616MOL0     C83038   2.315   6.813   0.197 -0.1738  0.6218 -0.1363
  616MOL0     C83039   2.174   6.853   0.148  0.2859 -0.5739  0.1076
  616MOL0     C83040   2.085   6.752   0.092  0.3222 -0.0285 -0.0420
  616MOL0     C83041   1.954   6.801   0.033 -0.4266  0.2216  0.2782
  616MOL0     N83042   1.969   6.888  -0.081 -0.4999 -0.2946 -0.4518
  616MOL0     C83043   2.029   6.850  -0.198 -0.4146  0.1599  0.2042
  616MOL0     C83044   2.053   6.956  -0.271 -0.0710  0.4550  0.3649
  616MOL0     C83045   2.121   6.935  -0.401 -0.4362 -0.4975  1.1963
  616MOL0     C83046   2.272   6.915  -0.399 -0.0048 -0.2111  0.4003
  616MOL0     C83047   2.350   7.030  -0.323 -0.0050  0.7666 -0.7852
  616MOL0     C83048   2.503   7.014  -0.348  0.5660  0.3230  0.9142
  616MOL0     O83049   2.540   7.033  -0.485 -0.0781 -1.5787  0.3000
  616MOL0     C83050   2.560   7.169  -0.526 -0.0237 -0.8072 -0.3645
  616MOL0     C83051   2.637   7.270  -0.451 -0.6290  0.4876 -1.0730
  616MOL0     C83052   2.648   7.404  -0.498  0.0372 -0.2748  0.7706
  616MOL0     C83053   2.726   7.506  -0.413  0.2680  0.6197 -0.4221
  616MOL0     C83054   2.603   7.426  -0.628  0.3518  0.1937  0.3505
  616MOL0     C83055   2.631   7.551  -0.702  0.2871  1.3356  0.0257
  616MOL0     O83056   2.763   7.574  -0.720  0.2176 -0.3832 -0.2787
  616MOL0     C83057   2.809   7.695  -0.762  0.7416  0.2287 -0.7896
  616MOL0     C83058   2.876   7.706  -0.884 -0.2094  0.1985 -0.5972
  616MOL0     C83059   2.908   7.835  -0.932 -0.1497 -0.1308  0.6489
  616MOL0     C83060   2.881   7.946  -0.855  0.7213  0.1384 -0.0596
  616MOL0     O83061   2.923   8.072  -0.888  0.3016 -0.7185  0.1302
  616MOL0     C83062   2.968   8.099  -1.025  0.3787  1.0816 -0.0702
  616MOL0     C83063   3.024   8.241  -1.039  0.4684  0.9796 -0.4488
  616MOL0     C83064   2.955   8.365  -0.976 -0.5240 -0.1945  0.2951
  616MOL0     C83065   3.047   8.489  -0.990  0.3951  0.1137  0.3056
  616MOL0     C83066   2.982   8.621  -1.030 -0.4230  1.0863  0.7932
  616MOL0     C83067   2.883   8.673  -0.928 -0.1915  0.1963 -0.1648
  616MOL0     C83068   2.937   8.705  -0.780 -0.5008 -0.0899 -0.1547
  616MOL0     C83069   2.824   8.682  -0.686  0.1123 -0.6051  0.1807
  616MOL0    Cl83070   2.850   8.791  -0.548 -0.0472  0.0921 -0.0861
  616MOL0     C83071   2.818   7.932  -0.733 -1.0331 -0.3138 -0.6033
  616MOL0     C83072   2.787   7.806  -0.682 -0.4789 -0.1694 -0.5758
  616MOL0     O83073   2.539   7.610  -0.757 -0.3205  0.2735  0.1509
  616MOL0     C83074   2.531   7.324  -0.698 -0.1751  0.3221 -0.4314
  616MOL0     C83075   2.503   7.199  -0.648 -0.3838  0.8186 -0.0054
  616MOL0     N83076   2.015   7.064  -0.196  0.1170  0.0032 -0.0384
  616MOL0     N83077   1.966   7.020  -0.076 -0.1632 -0.0793  0.0660
  616MOL0     C83078   2.771   6.444   0.556  0.8426 -1.2658  0.6279
  616MOL0     C83079   2.901   6.402   0.511  0.2564 -0.0261 -0.3859
  616MOL0     C83080   3.349   6.395   0.472 -1.0142  0.9298 -0.2225
  616MOL0     C83081   3.409   6.519   0.488  0.3024  0.8500  0.0192
  616MOL0     C83082   3.552   6.539   0.479  1.0836 -1.0418  0.0026
  616MOL0     C83083   3.635   6.425   0.477  0.5618  0.5157  0.1398
  616MOL0     O83084   3.770   6.432   0.476 -0.0233 -0.1958  0.1121
  616MOL0     C83085   3.831   6.558   0.481  0.0947  0.0020  1.0805
  616MOL0     C83086   3.991   6.551   0.484  0.4246  0.2092  0.9166
  616MOL0     C83087   4.039   6.691   0.454 -0.8312  0.2858  0.0036
  616MOL0     C83088   4.182   6.739   0.489  0.6161  0.0469 -0.8955
  616MOL0     C83089   4.194   6.888   0.470  0.1021  0.8238 -0.3780
  616MOL0     C83090   4.202   7.009   0.443  0.1055  0.8548  0.4024
  616MOL0     C83091   3.571   6.298   0.465 -0.3306 -0.1798  0.0481
  616MOL0     C83092   3.434   6.281   0.463 -0.5605  0.3028 -1.4163
  616MOL0     H83093   3.024   6.722   0.480 -2.7346  2.1072 -1.1128
  616MOL0     H83094   2.810   6.786   0.537  0.7888  1.0659 -0.9100
  616MOL0     H83095   2.507   6.451   0.654  3.2338  0.3640  0.4735
  616MOL0     H83096   2.427   6.605   0.672 -0.6299  1.4094 -1.6241
  616MOL0     H83097   2.482   6.479   0.397 -0.9001  1.4229 -1.8525
  616MOL0     H83098   2.326   6.509   0.469  0.1137 -0.8612  2.6353
  616MOL0     H83099   2.430   6.773   0.449  0.1756  1.7967 -3.4153
  616MOL0     H83100   2.516   6.690   0.336 -0.7945  1.2103 -0.9454
  616MOL0     H83101   2.288   6.602   0.235  0.3634  0.7504 -2.4753
  616MOL0     H83102   2.221   6.701   0.363  0.1267 -0.6774 -0.3501
  616MOL0     H83103   2.369   6.903   0.229  0.0743  0.3403  0.2540
  616MOL0     H83104   2.383   6.782   0.117 -0.1999 -1.9413  0.7164
  616MOL0     H83105   2.110   6.889   0.229 -1.3075  0.7079 -1.6068
  616MOL0     H83106   2.187   6.937   0.079 -0.0030 -0.3679  0.3026
  616MOL0     H83107   2.145   6.697   0.019 -1.5312 -2.6540  0.3016
  616MOL0     H83108   2.053   6.692   0.178 -0.1965  0.2765 -0.0179
  616MOL0     H83109   1.894   6.836   0.117  1.7038  1.2317  1.4645
  616MOL0     H83110   1.906   6.715  -0.015  0.6283  0.9226 -2.1450
  616MOL0     H83111   2.047   6.748  -0.231  1.1123  0.4239  0.1456
  616MOL0     H83112   2.083   6.844  -0.447  0.1229 -2.3250  4.0685
  616MOL0     H83113   2.104   7.015  -0.473 -0.7724  0.5185  2.3596
  616MOL0     H83114   2.302   6.903  -0.503  0.2019 -5.2089  0.7591
  616MOL0     H83115   2.293   6.820  -0.347  1.3064  0.2180  0.6837
  616MOL0     H83116   2.316   7.042  -0.219 -3.5357  1.8413 -1.9525
  616MOL0     H83117   2.310   7.125  -0.357 -1.8115 -0.3186 -1.8258
  616MOL0     H83118   2.526   6.910  -0.327  0.5073 -0.4856 -2.4527
  616MOL0     H83119   2.560   7.074  -0.276 -0.7454  0.3879  1.9527
  616MOL0     H83120   2.682   7.246  -0.355  0.3620  3.1071 -0.8122
  616MOL0     H83121   2.770   7.593  -0.463 -1.9011  1.1624 -1.5251
  616MOL0     H83122   2.648   7.548  -0.349  2.1114  1.3628  1.4220
  616MOL0     H83123   2.794   7.464  -0.339 -1.1175  1.0850  1.1695
  616MOL0     H83124   2.887   7.622  -0.952  2.7498 -0.4470  0.5117
  616MOL0     H83125   2.950   7.856  -1.030 -1.7963  0.8938  0.1323
  616MOL0     H83126   3.052   8.036  -1.058 -1.1255  0.2595 -2.6181
  616MOL0     H83127   2.884   8.090  -1.095  0.3987 -1.2784  0.1247
  616MOL0     H83128   3.121   8.248  -0.988 -0.4055  1.1234  1.2794
  616MOL0     H83129   3.031   8.267  -1.145 -0.1516  4.2197  0.2192
  616MOL0     H83130   2.945   8.345  -0.868 -1.4231  0.9374  0.4389
  616MOL0     H83131   2.855   8.373  -1.020 -0.7432 -1.4804  0.5042
  616MOL0     H83132   3.088   8.500  -0.889 -1.0630  0.6465  0.8720
  616MOL0     H83133   3.127   8.474  -1.062 -1.8120 -0.0666 -2.2900
  616MOL0     H83134   2.919   8.614  -1.119  2.3387  0.9944 -1.2870
  616MOL0     H83135   3.064   8.693  -1.025 -1.4778  2.2864  1.3140
  616MOL0     H83136   2.857   8.769  -0.974  0.3090  0.1701 -0.5175
  616MOL0     H83137   2.796   8.607  -0.922 -1.2004  1.6026  2.6188
  616MOL0     H83138   2.963   8.811  -0.772  0.6181 -0.1988 -1.8642
  616MOL0     H83139   3.021   8.653  -0.733 -0.6713  0.3713  0.6773
  616MOL0     H83140   2.827   8.575  -0.662 -0.3160 -1.8260 -4.2852
  616MOL0     H83141   2.727   8.698  -0.735  0.9055 -0.4438 -1.4197
  616MOL0     H83142   2.810   8.024  -0.675 -0.6782  0.2976 -1.5042
  616MOL0     H83143   2.730   7.801  -0.589  1.5820  1.2777  0.8542
  616MOL0     H83144   2.503   7.341  -0.802  0.3293 -2.7360 -1.1799
  616MOL0     H83145   2.446   7.136  -0.716  0.2545  0.9981 -0.7228
  616MOL0     H83146   2.709   6.362   0.590 -1.9005 -0.2668 -1.5817
  616MOL0     H83147   2.932   6.298   0.506 -0.6659 -0.3758  0.7727
  616MOL0     H83148   3.348   6.602   0.520  2.2918  1.1085  3.7389
  616MOL0     H83149   3.586   6.639   0.499 -2.4163 -0.4936  5.1391
  616MOL0     H83150   3.803   6.603   0.386 -2.7352  0.1159  1.8639
  616MOL0     H83151   3.808   6.626   0.564 -0.6709  1.0779  0.0292
  616MOL0     H83152   4.024   6.471   0.416 -2.5685 -3.1285  3.0464
  616MOL0     H83153   4.016   6.522   0.587  1.2171  0.4000  0.7817
  616MOL0     H83154   3.971   6.758   0.508 -0.2684 -0.4880  1.7570
  616MOL0     H83155   4.038   6.705   0.345 -0.0252  0.1545 -0.0293
  616MOL0     H83156   4.255   6.700   0.417  0.5004  0.4567 -1.2360
  616MOL0     H83157   4.214   6.698   0.585  0.5254 -0.8871 -1.2581
  616MOL0     H83158   4.223   7.111   0.418  0.4651  0.2890 -1.7463
  616MOL0     H83159   3.644   6.218   0.454  1.6054  1.4781  0.4539
  616MOL0     H83160   3.384   6.185   0.462 -1.0487  0.4952  0.4912
  617MOL0     O83161   7.768   8.975   4.824  0.4143  0.3010 -0.0228
  617MOL0     C83162   7.723   9.087   4.835 -0.3566 -0.7964  0.6272
  617MOL0     O83163   7.657   9.141   4.939  0.2982  0.0845 -0.7133
  617MOL0     C83164   7.603   9.055   5.033 -0.1133 -0.0271  0.6798
  617MOL0     C83165   7.626   8.920   5.070 -1.0174  0.1119  0.2737
  617MOL0     C83166   7.553   8.847   5.167  0.3159  0.1687  0.5228
  617MOL0     C83167   7.438   8.910   5.223 -0.2301 -1.1365 -0.1644
  617MOL0     O83168   7.375   8.844   5.329 -0.1867 -0.2767  0.6027
  617MOL0     C83169   7.234   8.861   5.348  0.7498 -0.7635 -0.2128
  617MOL0     C83170   7.213   8.939   5.484  0.4667  0.2776  1.2710
  617MOL0     C83171   7.227   8.856   5.609 -0.6639  0.1944 -0.4921
  617MOL0     C83172   7.102   8.765   5.644 -0.2840  0.0553  0.0776
  617MOL0     C83173   7.145   8.697   5.769  0.4488 -0.2056 -0.0715
  617MOL0     C83174   7.024   8.635   5.834 -0.6742 -0.3545  0.2746
  617MOL0     C83175   7.002   8.493   5.792 -0.7642  0.2782 -0.3602
  617MOL0     C83176   7.106   8.387   5.844  0.2590  0.1347  0.9122
  617MOL0     N83177   7.120   8.380   5.990 -0.1454 -0.2419 -0.3909
  617MOL0     C83178   7.179   8.467   6.079 -0.1851 -0.1127  1.5492
  617MOL0     C83179   7.146   8.418   6.202 -0.0030  0.2379  1.2436
  617MOL0     C83180   7.189   8.491   6.331  0.2034  0.6163  0.4025
  617MOL0     C83181   7.250   8.388   6.425  0.2173 -0.0750  0.4699
  617MOL0     C83182   7.280   8.439   6.568 -1.1778  0.9973 -0.1054
  617MOL0     C83183   7.148   8.467   6.640 -0.3025 -0.1724  0.0656
  617MOL0     O83184   7.162   8.513   6.776  0.0925 -0.1587 -0.5231
  617MOL0     C83185   7.179   8.435   6.890 -0.3074  0.4761  0.5582
  617MOL0     C83186   7.223   8.498   7.006  0.6387 -0.4953 -0.3284
  617MOL0     C83187   7.257   8.432   7.124  0.0066  0.2651 -0.2079
  617MOL0     C83188   7.298   8.507   7.239 -0.3248 -0.9894 -0.4608
  617MOL0     C83189   7.245   8.293   7.126  0.8442 -0.7900 -0.6973
  617MOL0     C83190   7.269   8.205   7.241 -0.5097  0.8846  0.5147
  617MOL0     O83191   7.248   8.068   7.216  0.0665  0.1183  0.4852
  617MOL0     C83192   7.262   7.975   7.314 -0.4991 -0.4553  0.0365
  617MOL0     C83193   7.373   7.974   7.403  0.7891 -0.6769  0.0925
  617MOL0     C83194   7.382   7.863   7.490  0.5479 -0.1222 -1.6099
  617MOL0     C83195   7.290   7.749   7.483  0.4683 -0.6484 -0.0501
  617MOL0     O83196   7.297   7.641   7.552  0.3548 -0.1257  0.0017
  617MOL0     C83197   7.419   7.591   7.611  0.6637 -0.1298  0.1071
  617MOL0     C83198   7.412   7.572   7.759 -0.4550  0.2503 -0.7923
  617MOL0     C83199   7.407   7.708   7.837 -0.0773  0.5626 -0.0273
  617MOL0     C83200   7.557   7.764   7.854 -0.7679  0.2117 -0.7393
  617MOL0     C83201   7.573   7.908   7.917 -0.6814  0.6507  0.2296
  617MOL0     C83202   7.456   7.941   8.014  0.2501 -0.1131  0.1701
  617MOL0     C83203   7.463   8.078   8.072  0.4833  0.3181  0.3115
  617MOL0     C83204   7.338   8.114   8.134  0.2445 -0.2427  0.9223
  617MOL0    Cl83205   7.304   8.022   8.284 -0.6986 -0.1910  0.6377
  617MOL0     C83206   7.187   7.758   7.390  1.0651 -0.3670  0.2066
  617MOL0     C83207   7.171   7.868   7.307  0.1749 -0.1744  0.7572
  617MOL0     O83208   7.284   8.255   7.349 -0.2552 -0.5059 -1.0684
  617MOL0     C83209   7.204   8.226   7.005  1.0626 -0.4674 -0.2385
  617MOL0     C83210   7.182   8.296   6.885 -0.5230  0.3075  1.0047
  617MOL0     N83211   7.080   8.294   6.190 -0.3191  0.3838 -0.2114
  617MOL0     N83212   7.063   8.275   6.069 -0.5070 -0.4448  1.4830
  617MOL0     C83213   7.412   9.044   5.187 -0.0749 -0.3442  0.2450
  617MOL0     C83214   7.490   9.117   5.096  0.0791  0.8420 -0.8200
  617MOL0     C83215   7.757   9.179   4.731 -0.2232 -0.6124 -0.0185
  617MOL0     C83216   7.740   9.316   4.755 -1.0372 -0.6980 -0.1562
  617MOL0     C83217   7.757   9.404   4.652  0.0176 -0.5053  0.6769
  617MOL0     C83218   7.811   9.364   4.528 -0.0921  0.4024  0.0892
  617MOL0     O83219   7.849   9.463   4.436  0.3282  0.4424 -0.1080
  617MOL0     C83220   7.945   9.561   4.471 -0.1314  1.4022 -0.4971
  617MOL0     C83221   8.069   9.540   4.393  0.3880  0.0711  0.0395
  617MOL0     C83222   8.050   9.523   4.238 -0.6077 -0.6183  0.1692
  617MOL0     C83223   8.033   9.653   4.158  0.0947  0.5875  0.3440
  617MOL0     C83224   7.901   9.727   4.176  0.1117 -0.1610 -0.2480
  617MOL0     C83225   7.791   9.769   4.197  0.9925  0.1859 -0.1661
  617MOL0     C83226   7.815   9.227   4.499 -0.7290  0.0190  0.3195
  617MOL0     C83227   7.779   9.131   4.598  0.1982  0.1491  0.5897
  617MOL0     H83228   7.699   8.860   5.016 -1.1473 -0.1836  0.4213
  617MOL0     H83229   7.583   8.754   5.213 -1.8674 -0.9140 -0.1435
  617MOL0     H83230   7.188   8.919   5.267  0.5133  1.2125  1.2427
  617MOL0     H83231   7.184   8.764   5.341 -1.7490  0.5047 -1.4660
  617MOL0     H83232   7.279   9.026   5.484  1.5900 -0.3762 -2.2988
  617MOL0     H83233   7.113   8.981   5.476  0.5461  0.1385 -1.5715
  617MOL0     H83234   7.314   8.792   5.593 -0.9138 -0.5575  0.9685
  617MOL0     H83235   7.249   8.932   5.684  0.0932 -0.4935  0.0084
  617MOL0     H83236   7.021   8.837   5.659 -2.7540 -2.4936 -0.3726
  617MOL0     H83237   7.071   8.692   5.569 -2.6880  0.9773  0.0966
  617MOL0     H83238   7.224   8.623   5.750  2.5309  2.0068 -0.4683
  617MOL0     H83239   7.189   8.768   5.838  1.7773 -1.4155  0.3834
  617MOL0     H83240   7.049   8.649   5.939 -0.6088  0.7966  0.1181
  617MOL0     H83241   6.935   8.698   5.818 -1.6096 -1.6128  0.3750
  617MOL0     H83242   6.910   8.449   5.832 -0.2415  0.1689  0.7542
  617MOL0     H83243   7.004   8.498   5.683 -0.0722  1.1696 -0.3235
  617MOL0     H83244   7.205   8.398   5.800 -0.2077 -1.3933 -0.6364
  617MOL0     H83245   7.084   8.292   5.794 -1.2767  2.4017 -3.1204
  617MOL0     H83246   7.226   8.557   6.041  1.8154 -2.1279 -1.0720
  617MOL0     H83247   7.265   8.565   6.305  1.4923 -0.5499  0.7458
  617MOL0     H83248   7.105   8.536   6.384 -1.2513 -1.7305  0.2419
  617MOL0     H83249   7.344   8.357   6.379  0.1395 -1.3600  1.1298
  617MOL0     H83250   7.188   8.298   6.426  0.6401 -0.3906 -0.4197
  617MOL0     H83251   7.340   8.530   6.563  0.1858  0.1078 -0.8979
  617MOL0     H83252   7.325   8.360   6.629 -0.1560  3.6743  2.9059
  617MOL0     H83253   7.082   8.381   6.632 -2.3111  1.1996  1.1159
  617MOL0     H83254   7.101   8.548   6.584  2.8149  2.4372  0.9126
  617MOL0     H83255   7.226   8.606   7.011 -3.3044 -0.0585 -2.7047
  617MOL0     H83256   7.305   8.612   7.209 -0.5120 -0.6768  0.5312
  617MOL0     H83257   7.224   8.490   7.318  0.3024 -1.9028 -0.0611
  617MOL0     H83258   7.396   8.482   7.279  0.7767  2.5833 -0.5617
  617MOL0     H83259   7.454   8.047   7.402  0.7915 -0.6822 -0.3436
  617MOL0     H83260   7.448   7.869   7.576 -1.7175 -2.8232  0.5340
  617MOL0     H83261   7.439   7.489   7.578  0.7582 -0.9468  2.5572
  617MOL0     H83262   7.504   7.655   7.587  0.1844 -0.0126 -1.3890
  617MOL0     H83263   7.329   7.505   7.782  0.4302 -0.8365 -0.6734
  617MOL0     H83264   7.505   7.517   7.776 -1.0264 -0.7414 -0.8327
  617MOL0     H83265   7.370   7.696   7.939 -3.1712 -2.0244 -1.2629
  617MOL0     H83266   7.338   7.773   7.783 -0.5792 -0.7302 -1.0206
  617MOL0     H83267   7.619   7.704   7.921 -4.5610 -0.9336  2.0430
  617MOL0     H83268   7.612   7.765   7.759 -0.1103 -1.9886 -0.4494
  617MOL0     H83269   7.581   7.980   7.835  0.8552  1.3692  0.9668
  617MOL0     H83270   7.668   7.919   7.970 -0.3701  4.6440 -0.8668
  617MOL0     H83271   7.357   7.928   7.971 -1.6844  0.8612  3.9340
  617MOL0     H83272   7.463   7.866   8.092 -0.2330 -2.6792 -2.1109
  617MOL0     H83273   7.496   8.158   8.005  0.5001 -0.7162 -0.9472
  617MOL0     H83274   7.542   8.079   8.147  2.3273  2.9278 -1.4716
  617MOL0     H83275   7.268   8.089   8.054  1.3849 -2.1328  0.4635
  617MOL0     H83276   7.324   8.222   8.148 -0.2652 -0.5857  3.3748
  617MOL0     H83277   7.116   7.676   7.397  0.8228 -0.1365  0.4806
  617MOL0     H83278   7.087   7.875   7.239 -2.2881 -2.0123  3.3673
  617MOL0     H83279   7.197   8.118   7.002 -0.0384 -0.4538  0.9038
  617MOL0     H83280   7.151   8.250   6.792 -1.5588  2.1780  0.3741
  617MOL0     H83281   7.335   9.109   5.227  0.2188  0.4380 -0.4477
  617MOL0     H83282   7.459   9.218   5.073  1.9750  1.6695  0.0498
  617MOL0     H83283   7.694   9.362   4.841  0.0339  0.2454 -0.0610
  617MOL0     H83284   7.725   9.507   4.662  2.1231  0.0545  2.4224
  617MOL0     H83285   7.904   9.659   4.442  0.6406  1.5788 -1.0188
  617MOL0     H83286   7.977   9.570   4.576 -1.0485  3.1572 -0.3165
  617MOL0     H83287   8.115   9.447   4.428 -0.8056  0.1742  1.9846
  617MOL0     H83288   8.143   9.621   4.398  0.0057  0.4135  0.1582
  617MOL0     H83289   7.967   9.458   4.209  1.6738 -1.9818 -4.1515
  617MOL0     H83290   8.132   9.466   4.193 -0.3430  0.8747 -1.3285
  617MOL0     H83291   8.060   9.619   4.057 -0.4985 -1.1072  0.7202
  617MOL0     H83292   8.115   9.720   4.185  1.0251 -0.4593  0.2280
  617MOL0     H83293   7.698   9.818   4.220  1.8203  1.0360  1.5803
  617MOL0     H83294   7.827   9.205   4.393 -2.8284 -1.9591  0.4076
  617MOL0     H83295   7.786   9.024   4.578 -1.4625  0.1875 -0.4603
  618MOL0     O83296   9.245   2.614   1.576  0.9538 -0.6347 -0.5890
  618MOL0     C83297   9.176   2.538   1.653 -0.1215  0.0610  0.0450
  618MOL0     O83298   9.173   2.553   1.788  0.6122 -0.3104 -0.1355
  618MOL0     C83299   9.265   2.640   1.839  0.1539  0.3694  0.7062
  618MOL0     C83300   9.383   2.595   1.886  0.2633  0.3657 -0.2761
  618MOL0     C83301   9.479   2.680   1.949 -0.5716  0.0298  0.7437
  618MOL0     C83302   9.445   2.817   1.959 -0.1290 -0.0688 -1.1285
  618MOL0     O83303   9.526   2.911   2.022  1.0477 -0.3048 -0.1524
  618MOL0     C83304   9.611   2.983   1.930  0.2425  0.5503  0.9291
  618MOL0     C83305   9.656   3.105   2.005 -0.5848 -0.3117  0.9088
  618MOL0     C83306   9.755   3.060   2.104 -0.5741 -0.1565  0.0712
  618MOL0     C83307   9.834   3.160   2.174 -0.6072  0.2183  0.4459
  618MOL0     C83308   9.761   3.224   2.290  0.1648  0.4180 -0.1695
  618MOL0     C83309   9.866   3.318   2.361  0.1697  0.3039  0.1796
  618MOL0     C83310   9.790   3.400   2.461  0.4081  0.0094 -0.2839
  618MOL0     C83311   9.898   3.496   2.530  0.5431  0.0164 -0.1195
  618MOL0     N83312   9.818   3.577   2.621  1.0666  0.6699  0.2657
  618MOL0     C83313   9.759   3.532   2.738  0.4385  0.0366  0.0069
  618MOL0     C83314   9.684   3.629   2.775  0.8123 -0.2343  0.4162
  618MOL0     C83315   9.591   3.622   2.888 -0.4918  0.3682 -0.3411
  618MOL0     C83316   9.509   3.751   2.913  0.8914 -0.7468 -1.0885
  618MOL0     C83317   9.436   3.773   3.051 -0.4091 -0.5673  0.5168
  618MOL0     C83318   9.382   3.917   3.067  0.8531 -0.3657 -0.3709
  618MOL0     O83319   9.273   3.935   2.978  0.0805  0.2391  0.4197
  618MOL0     C83320   9.148   3.885   3.011  0.1309  0.7501  0.2198
  618MOL0     C83321   9.089   3.774   2.943 -0.0665  0.2961 -0.0140
  618MOL0     C83322   8.959   3.741   2.956 -0.0881  0.7887 -0.5304
  618MOL0     C83323   8.907   3.627   2.878 -0.4982 -0.4279 -0.9339
  618MOL0     C83324   8.888   3.804   3.060  0.4095 -0.9917  0.2813
  618MOL0     C83325   8.756   3.755   3.115  0.5321 -0.0714 -0.2342
  618MOL0     O83326   8.662   3.863   3.127 -0.0028 -0.3434  0.0533
  618MOL0     C83327   8.541   3.824   3.170  0.5816  0.6968  0.7110
  618MOL0     C83328   8.529   3.760   3.292 -0.0409 -0.3012 -0.1209
  618MOL0     C83329   8.407   3.699   3.330 -0.0280  0.6348  0.2081
  618MOL0     C83330   8.293   3.716   3.257  0.2812 -0.1185 -0.4355
  618MOL0     O83331   8.168   3.667   3.299  0.6004  0.1409 -0.4507
  618MOL0     C83332   8.155   3.577   3.413  0.0475  0.4568  1.5431
  618MOL0     C83333   8.218   3.437   3.372 -0.1746  1.0039  0.0141
  618MOL0     C83334   8.130   3.344   3.285 -0.3072  0.0063 -0.6959
  618MOL0     C83335   8.192   3.200   3.287  0.8538 -0.3833  1.3249
  618MOL0     C83336   8.112   3.107   3.191  0.0800 -0.2466  0.0240
  618MOL0     C83337   8.133   3.154   3.043 -0.0846 -0.9737 -0.0617
  618MOL0     C83338   8.113   3.042   2.941  0.4892  0.5302 -0.6787
  618MOL0     C83339   8.010   2.929   2.966  0.4523 -0.4580 -0.2637
  618MOL0    Cl83340   7.856   3.018   2.986 -0.4773  0.1645  0.2359
  618MOL0     C83341   8.306   3.787   3.133  0.8018  1.0983 -0.4270
  618MOL0     C83342   8.426   3.843   3.091 -0.5807 -0.0811 -0.2388
  618MOL0     O83343   8.731   3.638   3.144 -0.2677  0.0186 -0.0667
  618MOL0     C83344   8.942   3.914   3.122  1.0603  0.3656  0.4955
  618MOL0     C83345   9.076   3.954   3.102  0.1824 -0.0417  0.5777
  618MOL0     N83346   9.709   3.738   2.687 -0.6320  0.4118  0.9351
  618MOL0     N83347   9.793   3.706   2.598  0.2180 -0.1340 -1.1068
  618MOL0     C83348   9.319   2.862   1.919  0.5439 -0.4510 -0.2562
  618MOL0     C83349   9.237   2.775   1.861 -0.4669 -0.8438  0.1602
  618MOL0     C83350   9.119   2.409   1.602 -0.9965  0.0380 -0.3330
  618MOL0     C83351   9.080   2.313   1.693  0.7072 -0.1164 -0.7930
  618MOL0     C83352   9.027   2.200   1.635  0.0474 -0.0608  0.6561
  618MOL0     C83353   9.001   2.185   1.502  0.5458  0.8865  0.5486
  618MOL0     O83354   8.959   2.056   1.466  0.1064 -0.2302  0.1936
  618MOL0     C83355   9.012   2.012   1.342  0.9946  0.4000 -0.5113
  618MOL0     C83356   8.929   1.888   1.295  0.0683 -0.2453  0.1936
  618MOL0     C83357   8.778   1.928   1.271  0.9744  0.8168  1.0345
  618MOL0     C83358   8.703   1.839   1.160 -0.1110 -0.8124  1.1701
  618MOL0     C83359   8.712   1.694   1.181 -0.7512 -0.6855  0.6742
  618MOL0     C83360   8.718   1.580   1.200 -0.2808  0.7204 -0.2918
  618MOL0     C83361   9.029   2.289   1.412  0.0588  0.2009  0.4053
  618MOL0     C83362   9.091   2.400   1.464  0.3108 -0.3855  0.5089
  618MOL0     H83363   9.399   2.491   1.861 -1.2686 -0.4080  1.6565
  618MOL0     H83364   9.576   2.643   1.980 -0.1346  1.1338  0.7023
  618MOL0     H83365   9.697   2.924   1.899  0.5854  1.7465 -0.5087
  618MOL0     H83366   9.563   3.017   1.838  0.1282  0.4719  0.9603
  618MOL0     H83367   9.710   3.173   1.938  0.2460 -0.1466  1.7293
  618MOL0     H83368   9.572   3.150   2.059 -0.5479  0.9624 -0.0494
  618MOL0     H83369   9.711   2.993   2.178 -0.9905  1.3887  1.3004
  618MOL0     H83370   9.818   2.997   2.041 -1.9790  0.1053 -1.6651
  618MOL0     H83371   9.925   3.119   2.221  0.3290  1.9978  0.2713
  618MOL0     H83372   9.863   3.239   2.104  1.8503 -1.0073 -0.0414
  618MOL0     H83373   9.671   3.274   2.255 -1.0855 -1.6376 -0.0361
  618MOL0     H83374   9.723   3.147   2.358 -1.3320 -0.2692 -1.6959
  618MOL0     H83375   9.942   3.266   2.419 -0.4448 -0.4467  0.3372
  618MOL0     H83376   9.912   3.374   2.279 -1.0767 -0.9501 -1.4430
  618MOL0     H83377   9.713   3.472   2.433  0.8920  0.3138 -0.8579
  618MOL0     H83378   9.745   3.334   2.536  1.8890  0.9670  1.4999
  618MOL0     H83379   9.960   3.551   2.459  0.9418 -2.7701 -2.1124
  618MOL0     H83380   9.962   3.442   2.600 -2.2999 -1.1393  1.7949
  618MOL0     H83381   9.755   3.429   2.769  0.3121 -0.6014 -1.9691
  618MOL0     H83382   9.519   3.543   2.865  0.4418 -1.4791  2.5560
  618MOL0     H83383   9.648   3.595   2.977 -1.6261 -2.2066 -0.2961
  618MOL0     H83384   9.440   3.759   2.829  0.6290  3.6239 -0.7079
  618MOL0     H83385   9.570   3.840   2.894  1.1457 -0.5445  0.4840
  618MOL0     H83386   9.496   3.747   3.139  2.4713 -3.5616 -2.0576
  618MOL0     H83387   9.345   3.712   3.056 -0.1996 -0.8108  1.8062
  618MOL0     H83388   9.455   3.988   3.026 -0.6933  1.1962 -0.5060
  618MOL0     H83389   9.352   3.925   3.172  2.8509 -2.1170  0.4202
  618MOL0     H83390   9.159   3.728   2.874 -0.0635  1.4307 -0.7954
  618MOL0     H83391   8.799   3.624   2.896 -0.0159 -0.4818  2.6553
  618MOL0     H83392   8.934   3.651   2.774  0.1850  2.1846 -0.2077
  618MOL0     H83393   8.947   3.530   2.909 -2.1785 -0.9844 -0.3478
  618MOL0     H83394   8.616   3.750   3.357 -1.0358  1.0343  1.4860
  618MOL0     H83395   8.409   3.642   3.422 -0.9424  0.1983 -0.0341
  618MOL0     H83396   8.202   3.623   3.501 -0.2638 -2.1680  3.1808
  618MOL0     H83397   8.047   3.568   3.428 -0.2136  1.4261  0.4595
  618MOL0     H83398   8.309   3.457   3.315 -2.3368  0.4180 -3.9503
  618MOL0     H83399   8.254   3.380   3.459 -2.0595 -1.7233 -0.8488
  618MOL0     H83400   8.123   3.371   3.179 -1.4818 -1.8522 -1.1426
  618MOL0     H83401   8.032   3.333   3.330  1.0264 -2.4394  1.9398
  618MOL0     H83402   8.301   3.197   3.283  0.9270 -0.2277  2.6106
  618MOL0     H83403   8.164   3.162   3.386 -2.0684  0.7491  1.0363
  618MOL0     H83404   8.011   3.099   3.231  0.1625 -0.1197  0.2623
  618MOL0     H83405   8.168   3.018   3.221 -2.3210 -1.1093  2.3776
  618MOL0     H83406   8.059   3.233   3.026  0.8797 -0.3439 -1.6136
  618MOL0     H83407   8.232   3.198   3.025 -0.4298 -0.3469 -0.4480
  618MOL0     H83408   8.211   2.995   2.931  1.7534  2.9786 -0.5491
  618MOL0     H83409   8.095   3.095   2.847  3.8982 -0.9807 -2.3427
  618MOL0     H83410   8.036   2.875   3.058  0.4378 -2.0445 -1.1524
  618MOL0     H83411   8.001   2.859   2.883 -0.2552 -1.6868  0.8212
  618MOL0     H83412   8.214   3.797   3.076 -0.7617 -2.4817  1.1628
  618MOL0     H83413   8.447   3.901   3.002 -0.1912  1.0402  0.5556
  618MOL0     H83414   8.883   3.968   3.195  1.2196  3.2610 -1.3264
  618MOL0     H83415   9.112   4.043   3.154  3.6038 -0.3767 -0.9195
  618MOL0     H83416   9.285   2.964   1.934  3.4504  0.5335  0.2450
  618MOL0     H83417   9.143   2.811   1.822  1.2126  0.6777 -2.8738
  618MOL0     H83418   9.096   2.327   1.799 -3.2982  1.8278 -0.2827
  618MOL0     H83419   9.006   2.119   1.703 -0.5950 -0.1743  0.3363
  618MOL0     H83420   8.997   2.082   1.260 -6.1515 -0.6560 -0.7790
  618MOL0     H83421   9.116   1.981   1.349  1.0501  0.0920 -2.2948
  618MOL0     H83422   8.939   1.799   1.358 -0.8390 -1.0157 -0.7059
  618MOL0     H83423   8.980   1.861   1.202 -0.2289  0.5290 -0.2061
  618MOL0     H83424   8.771   2.026   1.222 -1.4754 -0.4192 -1.3910
  618MOL0     H83425   8.732   1.930   1.370  3.8487 -0.6592  2.5157
  618MOL0     H83426   8.746   1.867   1.064 -2.7745  0.1867  0.1833
  618MOL0     H83427   8.602   1.874   1.139  0.7848  0.9154 -0.5428
  618MOL0     H83428   8.726   1.474   1.218  2.4793  0.9115 -0.0729
  618MOL0     H83429   9.020   2.273   1.305  1.9394  1.1642  0.0615
  618MOL0     H83430   9.117   2.479   1.394 -0.9559 -0.2512  0.1530
  619MOL0     O83431  10.414   0.557  10.164 -0.4118  0.8620 -0.2156
  619MOL0     C83432  10.422   0.628  10.065  0.3195  0.3122 -0.1662
  619MOL0     O83433  10.317   0.673   9.995  0.3904 -0.8212  0.0421
  619MOL0     C83434  10.186   0.626  10.010  0.7050  0.9457  0.0671
  619MOL0     C83435  10.133   0.561   9.899  1.3781  1.0741  0.4862
  619MOL0     C83436   9.994   0.542   9.893 -1.0045 -0.2393 -0.3862
  619MOL0     C83437   9.907   0.590   9.994  0.0582  0.3592 -0.5741
  619MOL0     O83438   9.775   0.575   9.978 -0.2742 -0.0003  0.5483
  619MOL0     C83439   9.706   0.688   9.918  0.0907 -1.2866  0.5456
  619MOL0     C83440   9.582   0.659   9.822 -0.2074 -0.0666 -0.1039
  619MOL0     C83441   9.456   0.623   9.903 -0.1099  0.3686 -0.2713
  619MOL0     C83442   9.342   0.555   9.831  0.5423  0.1227 -0.6315
  619MOL0     C83443   9.207   0.549   9.896  0.6013 -0.6986  0.1157
  619MOL0     C83444   9.235   0.487  10.031 -0.5911  0.2370  0.0634
  619MOL0     C83445   9.102   0.437  10.097 -0.1532 -0.2561 -0.7286
  619MOL0     C83446   9.036   0.552  10.185  0.9662  0.3757 -0.7166
  619MOL0     N83447   8.929   0.491  10.279 -0.1409 -0.3992  0.9209
  619MOL0     C83448   8.820   0.425  10.231  0.3753 -0.0117  0.4736
  619MOL0     C83449   8.731   0.451  10.324  0.0064  0.7005 -0.2926
  619MOL0     C83450   8.585   0.404  10.332 -0.5187  0.6581 -0.6357
  619MOL0     C83451   8.510   0.416  10.469 -0.2840 -0.6248  0.4884
  619MOL0     C83452   8.382   0.334  10.484 -0.5181 -0.0409 -0.7559
  619MOL0     C83453   8.281   0.399  10.582 -0.0164 -0.5442 -0.7966
  619MOL0     O83454   8.179   0.300  10.606 -0.3867  0.0473  0.5388
  619MOL0     C83455   8.060   0.327  10.674  0.5278 -0.3663 -0.0468
  619MOL0     C83456   7.985   0.213  10.704 -0.3986 -1.2351  0.8337
  619MOL0     C83457   7.858   0.210  10.760  0.0446 -0.7104 -0.8205
  619MOL0     C83458   7.798   0.077  10.796  0.5706  0.3107  0.1047
  619MOL0     C83459   7.806   0.332  10.802 -0.1199  0.1731  0.1466
  619MOL0     C83460   7.678   0.352  10.860 -0.1486  0.5640  0.7031
  619MOL0     O83461   7.646   0.468  10.917 -0.5494  0.4778 -0.2765
  619MOL0     C83462   7.535   0.474  10.990 -0.0768 -0.2531  0.0218
  619MOL0     C83463   7.454   0.594  10.962 -0.2573 -0.2626  0.7161
  619MOL0     C83464   7.326   0.606  11.015 -0.3614  1.0513  0.1183
  619MOL0     C83465   7.277   0.505  11.101 -0.7969  0.9408 -0.2425
  619MOL0     O83466   7.153   0.519  11.154  0.2648 -0.4275 -0.6314
  619MOL0     C83467   7.084   0.418  11.220  0.4584 -0.2281 -0.9499
  619MOL0     C83468   6.939   0.462  11.236 -0.1232  0.1922 -0.3616
  619MOL0     C83469   6.847   0.355  11.317  0.2054  0.5760 -0.4585
  619MOL0     C83470   6.723   0.431  11.384 -0.9714  0.0010 -0.0295
  619MOL0     C83471   6.621   0.492  11.294 -0.2599 -0.0968 -0.5339
  619MOL0     C83472   6.510   0.554  11.379 -0.0793 -0.4924  0.0810
  619MOL0     C83473   6.400   0.620  11.288  0.2436  1.1537  0.0400
  619MOL0     C83474   6.266   0.657  11.360 -0.5965 -1.1369 -0.6278
  619MOL0    Cl83475   6.179   0.527  11.461  0.2634  0.2798 -0.1902
  619MOL0     C83476   7.361   0.403  11.142  0.3129  0.0203  0.6642
  619MOL0     C83477   7.484   0.381  11.081 -0.2277 -0.5715  0.2355
  619MOL0     O83478   7.596   0.257  10.852  0.5396  0.3691  0.6335
  619MOL0     C83479   7.881   0.453  10.773 -0.0352  0.4367 -0.0897
  619MOL0     C83480   8.002   0.450  10.715 -0.8773 -0.2895  0.9167
  619MOL0     N83481   8.802   0.505  10.432 -0.1659  0.0310 -0.0363
  619MOL0     N83482   8.923   0.540  10.402  0.5623 -1.4756 -0.2311
  619MOL0     C83483   9.967   0.652  10.110  0.2738  0.4556 -0.2038
  619MOL0     C83484  10.102   0.672  10.116  0.0835 -0.3302  0.3239
  619MOL0     C83485  10.555   0.668  10.026  0.4756 -0.6712 -0.1721
  619MOL0     C83486  10.561   0.757   9.919 -0.5786 -0.4111 -0.3571
  619MOL0     C83487  10.686   0.794   9.868 -1.2657  0.0342  0.5804
  619MOL0     C83488  10.806   0.757   9.932  0.5968  0.6285  0.6703
  619MOL0     O83489  10.925   0.800   9.879  0.9030  0.1392  0.4142
  619MOL0     C83490  11.003   0.874   9.972 -0.0908 -0.4859 -1.0960
  619MOL0     C83491  11.112   0.802  10.047  0.0980  0.2392  0.0165
  619MOL0     C83492  11.208   0.735   9.949  0.1928 -0.2303  0.1247
  619MOL0     C83493  11.304   0.634  10.004  0.6253  0.4063 -0.6070
  619MOL0     C83494  11.228   0.519  10.051  0.0344  0.7495  0.6449
  619MOL0     C83495  11.158   0.423  10.074 -0.5064  0.1166  0.1332
  619MOL0     C83496  10.797   0.670  10.045  0.9077 -0.2141 -0.9482
  619MOL0     C83497  10.666   0.631  10.095 -0.8204 -0.8914 -0.6719
  619MOL0     H83498  10.201   0.540   9.816  0.7494  1.8048 -0.2302
  619MOL0     H83499   9.950   0.510   9.799  1.4482 -3.1287 -0.7066
  619MOL0     H83500   9.665   0.752   9.996  2.0394  2.7337 -1.4222
  619MOL0     H83501   9.770   0.751   9.854 -0.0225 -0.4007  1.2910
  619MOL0     H83502   9.567   0.740   9.751  1.9945 -1.3405 -2.1995
  619MOL0     H83503   9.619   0.578   9.759  1.8240  1.0935 -0.5064
  619MOL0     H83504   9.488   0.558   9.985  0.2348  1.4055  0.4315
  619MOL0     H83505   9.428   0.720   9.944  0.9128 -0.0814  1.6350
  619MOL0     H83506   9.327   0.612   9.739 -6.0812  1.4827  0.8212
  619MOL0     H83507   9.373   0.454   9.803  1.2932  0.4065 -0.8556
  619MOL0     H83508   9.163   0.649   9.909  0.9450 -0.0387 -2.9289
  619MOL0     H83509   9.142   0.492   9.829 -0.8147  2.1135 -1.0763
  619MOL0     H83510   9.300   0.403  10.008 -1.3700 -1.0888  2.3671
  619MOL0     H83511   9.279   0.549  10.110 -2.8703  2.0428  0.0182
  619MOL0     H83512   9.036   0.397  10.020 -1.2942  0.9964 -0.4519
  619MOL0     H83513   9.127   0.354  10.164  2.6579 -0.1000 -1.4764
  619MOL0     H83514   8.992   0.632  10.125 -0.8074 -0.4259 -0.5352
  619MOL0     H83515   9.115   0.598  10.245  2.1188  1.4668 -2.9615
  619MOL0     H83516   8.810   0.390  10.128  0.0522  0.8373  0.2121
  619MOL0     H83517   8.531   0.455  10.252  0.9958 -1.6354 -3.3243
  619MOL0     H83518   8.582   0.298  10.305  1.1490  0.9900 -2.2719
  619MOL0     H83519   8.490   0.523  10.477  0.6587 -0.4597  0.8219
  619MOL0     H83520   8.581   0.401  10.551 -1.2740  2.1489  1.9889
  619MOL0     H83521   8.418   0.236  10.517  1.3421  1.4344  2.0303
  619MOL0     H83522   8.339   0.310  10.386 -0.3226 -2.1298 -0.3814
  619MOL0     H83523   8.234   0.492  10.548 -1.0946 -1.9310 -3.4528
  619MOL0     H83524   8.334   0.410  10.677 -2.7552  2.2080  0.5681
  619MOL0     H83525   8.027   0.118  10.672 -0.0511 -0.2880 -1.7207
  619MOL0     H83526   7.713   0.046  10.734  2.1636 -5.2686  0.1678
  619MOL0     H83527   7.867  -0.008  10.797 -2.6626 -2.5311  0.2052
  619MOL0     H83528   7.759   0.092  10.897 -2.3836 -0.8175 -0.7635
  619MOL0     H83529   7.504   0.673  10.906 -0.7480 -1.7727 -2.0344
  619MOL0     H83530   7.266   0.690  10.982  0.2789  0.8679 -1.6232
  619MOL0     H83531   7.084   0.329  11.156  1.2656 -0.6508 -0.3704
  619MOL0     H83532   7.127   0.394  11.317 -4.3680 -1.1075  1.2228
  619MOL0     H83533   6.932   0.554  11.296  3.1710  1.1976 -1.3278
  619MOL0     H83534   6.889   0.469  11.139  0.4790 -2.1307 -0.9003
  619MOL0     H83535   6.904   0.335  11.409 -0.1351  0.1379 -0.3387
  619MOL0     H83536   6.818   0.257  11.277  2.8593 -1.2646  1.7431
  619MOL0     H83537   6.668   0.362  11.450 -3.9750  2.5811  0.4134
  619MOL0     H83538   6.760   0.504  11.456  3.5383 -0.9825 -1.0299
  619MOL0     H83539   6.582   0.413  11.230 -0.3984 -2.6090  2.3800
  619MOL0     H83540   6.666   0.571  11.234  1.9605 -2.1636 -1.7358
  619MOL0     H83541   6.468   0.481  11.449  0.6340 -1.2956 -0.2968
  619MOL0     H83542   6.558   0.632  11.437 -2.5399  1.1336  0.0853
  619MOL0     H83543   6.363   0.547  11.217 -0.4867  1.6281 -0.0687
  619MOL0     H83544   6.454   0.700  11.236 -0.3227  1.4745 -0.0586
  619MOL0     H83545   6.202   0.712  11.291 -2.5412 -0.2058  1.7889
  619MOL0     H83546   6.297   0.735  11.429 -0.0624 -0.6511 -1.4056
  619MOL0     H83547   7.334   0.337  11.224  2.9199  0.5872  2.0842
  619MOL0     H83548   7.535   0.295  11.123 -0.0274  0.3543  2.0132
  619MOL0     H83549   7.827   0.542  10.806 -0.4620 -0.1712  0.9009
  619MOL0     H83550   8.059   0.535  10.677 -2.0157 -0.3884 -1.1551
  619MOL0     H83551   9.902   0.708  10.177 -1.4944 -0.4111 -1.1344
  619MOL0     H83552  10.159   0.717  10.196  2.7320 -2.5412 -0.1834
  619MOL0     H83553  10.481   0.793   9.855  0.0266  1.6553 -0.0310
  619MOL0     H83554  10.687   0.866   9.786 -1.7455 -1.2755 -0.6235
  619MOL0     H83555  11.037   0.961   9.916 -2.6562  1.1146 -0.3233
  619MOL0     H83556  10.932   0.911  10.048 -1.9625 -4.1654 -0.7975
  619MOL0     H83557  11.071   0.728  10.116  1.3030  0.0610  0.5591
  619MOL0     H83558  11.173   0.858  10.118  5.5273 -3.4148 -1.1016
  619MOL0     H83559  11.257   0.819   9.899 -0.4574  0.9850  1.4644
  619MOL0     H83560  11.142   0.685   9.878  0.3223  1.0146 -0.9162
  619MOL0     H83561  11.372   0.683  10.074  2.2966 -1.9579 -0.4494
  619MOL0     H83562  11.366   0.592   9.924  1.0537  2.0531 -1.1749
  619MOL0     H83563  11.106   0.333  10.097 -2.6274  1.2726  0.1699
  619MOL0     H83564  10.891   0.640  10.090 -0.4408 -2.0807  0.8496
  619MOL0     H83565  10.665   0.557  10.174  0.8018 -2.0413 -1.6529
  620MOL0     O83566   5.826  11.227   6.643  0.5926  0.1446 -0.1030
  620MOL0     C83567   5.737  11.171   6.583  0.5284 -1.0558 -0.5446
  620MOL0     O83568   5.615  11.134   6.634  0.9403  0.6366 -0.3629
  620MOL0     C83569   5.547  11.184   6.746  0.5075 -0.0718  0.1517
  620MOL0     C83570   5.607  11.249   6.856  0.3106 -0.5110 -0.8324
  620MOL0     C83571   5.533  11.304   6.964 -0.6498  0.0621  0.1048
  620MOL0     C83572   5.392  11.284   6.966 -0.3449 -0.5751  0.8912
  620MOL0     O83573   5.330  11.331   7.081 -0.7265 -0.5729  0.3152
  620MOL0     C83574   5.193  11.364   7.076 -0.4273 -0.2675 -0.3268
  620MOL0     C83575   5.159  11.487   6.992  0.1228  0.4733 -0.2015
  620MOL0     C83576   5.030  11.554   7.046  0.0482 -0.1774  0.0320
  620MOL0     C83577   4.985  11.659   6.943 -0.2078  0.1166  0.5767
  620MOL0     C83578   4.833  11.685   6.961  0.3041  0.3192  0.1811
  620MOL0     C83579   4.733  11.575   6.911  0.6315 -0.0590  0.3161
  620MOL0     C83580   4.596  11.635   6.941  0.1070  0.1314 -0.5969
  620MOL0     C83581   4.496  11.528   6.898 -0.1436 -0.0209  0.4292
  620MOL0     N83582   4.350  11.562   6.902 -1.0026 -0.1479  0.2507
  620MOL0     C83583   4.262  11.513   6.821 -0.1890 -0.0445 -0.0063
  620MOL0     C83584   4.148  11.559   6.873  0.0234 -1.3546  0.1621
  620MOL0     C83585   4.008  11.539   6.817 -0.3625  1.2428 -1.2530
  620MOL0     C83586   3.953  11.394   6.799 -0.5244 -0.4387  1.4595
  620MOL0     C83587   3.935  11.322   6.929 -0.3484  0.8030  0.0208
  620MOL0     C83588   3.928  11.165   6.912 -0.0679 -0.2340  0.0482
  620MOL0     O83589   4.024  11.112   6.823  0.5892  0.2762 -0.1622
  620MOL0     C83590   4.162  11.128   6.853 -0.6024 -0.1610  0.6440
  620MOL0     C83591   4.258  11.134   6.750 -0.0002  0.0290 -0.0292
  620MOL0     C83592   4.396  11.154   6.780  0.9083 -0.7874  0.3597
  620MOL0     C83593   4.481  11.140   6.657  0.2432 -0.1407  0.4122
  620MOL0     C83594   4.439  11.169   6.913  0.5299  0.2834  0.2366
  620MOL0     C83595   4.582  11.187   6.951 -0.3113 -0.4264 -0.0980
  620MOL0     O83596   4.607  11.164   7.085  0.2016  0.2015  0.0671
  620MOL0     C83597   4.731  11.180   7.135 -0.4507  0.0747  0.1753
  620MOL0     C83598   4.825  11.068   7.125 -0.1257  0.1335 -0.0598
  620MOL0     C83599   4.945  11.076   7.188 -0.2266 -0.1026 -0.3931
  620MOL0     C83600   4.988  11.188   7.263 -0.3596  0.2954 -0.4890
  620MOL0     O83601   5.113  11.186   7.326 -0.1716  0.3925  0.1991
  620MOL0     C83602   5.119  11.268   7.439 -0.0284  0.2714 -0.2040
  620MOL0     C83603   5.231  11.227   7.536  0.7458  0.2261  0.0387
  620MOL0     C83604   5.236  11.317   7.664  0.8643  0.7829  0.0886
  620MOL0     C83605   5.370  11.303   7.744 -0.0116 -0.4835  0.0076
  620MOL0     C83606   5.383  11.175   7.830 -0.3397 -0.2233 -0.3106
  620MOL0     C83607   5.463  11.193   7.955  0.1835  0.1646  0.2652
  620MOL0     C83608   5.600  11.256   7.931 -0.0604 -1.0027  0.8384
  620MOL0     C83609   5.687  11.242   8.049  0.0837  0.2561 -1.0285
  620MOL0    Cl83610   5.852  11.322   8.012  0.0398  0.4406 -0.2472
  620MOL0     C83611   4.894  11.300   7.272  0.3782  0.4573  0.7792
  620MOL0     C83612   4.771  11.295   7.208 -0.6066 -0.1273  0.2075
  620MOL0     O83613   4.666  11.230   6.873  0.2146 -0.7553  0.5227
  620MOL0     C83614   4.337  11.153   7.014 -0.4470 -0.6507 -0.2839
  620MOL0     C83615   4.203  11.138   6.979  0.1116 -0.8025 -0.1080
  620MOL0     N83616   4.175  11.641   6.979  0.8062  0.3930 -0.9100
  620MOL0     N83617   4.296  11.635   7.002  0.3663  0.6398 -0.4735
  620MOL0     C83618   5.326  11.224   6.851 -0.6680 -0.6091  1.4479
  620MOL0     C83619   5.403  11.177   6.742 -0.4654 -0.1236 -1.2543
  620MOL0     C83620   5.781  11.131   6.448 -0.4528 -0.0068  0.6413
  620MOL0     C83621   5.918  11.120   6.418  0.2705  0.2279 -0.2430
  620MOL0     C83622   5.951  11.083   6.283  0.1311  0.0591 -1.0726
  620MOL0     C83623   5.856  11.081   6.186  0.7889 -0.1409 -0.1053
  620MOL0     O83624   5.884  11.049   6.059  0.1572  0.3247  0.2055
  620MOL0     C83625   5.977  11.146   6.005 -0.3554 -0.0003  0.5979
  620MOL0     C83626   5.915  11.173   5.873  0.6975 -0.0109 -0.1120
  620MOL0     C83627   5.789  11.257   5.889 -0.0189  0.4007 -0.1374
  620MOL0     C83628   5.744  11.317   5.758 -0.2676  0.1198 -0.1333
  620MOL0     C83629   5.785  11.454   5.744  0.7169  0.2091  0.1456
  620MOL0     C83630   5.822  11.567   5.745  0.3759 -0.3795 -0.8299
  620MOL0     C83631   5.716  11.087   6.220 -0.3407  0.0924  0.2781
  620MOL0     C83632   5.682  11.105   6.351  0.8042 -0.6480 -0.0729
  620MOL0     H83633   5.715  11.249   6.868  0.0829 -1.8452  2.5565
  620MOL0     H83634   5.579  11.354   7.049 -1.3212  1.7384 -0.4905
  620MOL0     H83635   5.148  11.271   7.041 -1.6316  0.2148 -0.1195
  620MOL0     H83636   5.157  11.391   7.176 -0.4188 -0.4992 -0.2616
  620MOL0     H83637   5.237  11.563   6.988  0.2028  0.4163  0.2300
  620MOL0     H83638   5.155  11.443   6.891  0.9802  1.3276 -0.6167
  620MOL0     H83639   4.958  11.473   7.065  1.0530 -1.2553 -0.5686
  620MOL0     H83640   5.058  11.604   7.140 -1.5346 -0.4751  0.6942
  620MOL0     H83641   5.044  11.747   6.970  2.1334 -2.0413  2.9495
  620MOL0     H83642   5.006  11.624   6.841  2.4048  1.8306  0.4214
  620MOL0     H83643   4.809  11.706   7.066 -0.6373  0.8709 -0.1283
  620MOL0     H83644   4.807  11.773   6.900 -1.6129 -0.5599 -0.3599
  620MOL0     H83645   4.757  11.566   6.804 -2.9303 -0.8400 -0.5446
  620MOL0     H83646   4.749  11.481   6.964  1.3992 -0.6610 -0.9350
  620MOL0     H83647   4.592  11.659   7.048 -0.3367  1.0565 -0.8108
  620MOL0     H83648   4.580  11.732   6.895  3.8155  1.1328 -0.1523
  620MOL0     H83649   4.510  11.442   6.964  0.3840 -0.6986 -0.5505
  620MOL0     H83650   4.521  11.506   6.794  0.2443  1.4785  0.1712
  620MOL0     H83651   4.278  11.455   6.731  1.8177 -1.2538  1.0587
  620MOL0     H83652   3.935  11.576   6.890  0.0172 -0.4733  0.0552
  620MOL0     H83653   3.989  11.593   6.723  2.5264  1.4390 -1.8162
  620MOL0     H83654   4.030  11.350   6.735 -0.1720  0.0053  1.5732
  620MOL0     H83655   3.858  11.397   6.744  0.3909 -1.8099 -0.2944
  620MOL0     H83656   3.844  11.349   6.985 -1.7985 -1.0734 -1.2689
  620MOL0     H83657   4.027  11.335   6.987 -0.8794  0.2105  1.0394
  620MOL0     H83658   3.830  11.139   6.872 -0.5061  1.5275 -0.1392
  620MOL0     H83659   3.930  11.113   7.009 -2.1002  2.2657  1.5621
  620MOL0     H83660   4.220  11.131   6.648 -0.3374  2.6396 -0.0439
  620MOL0     H83661   4.561  11.068   6.678 -0.9094 -1.8323 -0.6772
  620MOL0     H83662   4.433  11.107   6.564 -1.0066 -0.5022  1.1604
  620MOL0     H83663   4.524  11.239   6.644  1.5623 -0.4766  1.9611
  620MOL0     H83664   4.792  10.985   7.062 -3.0906  1.2256 -0.1336
  620MOL0     H83665   5.018  10.996   7.186 -1.1033 -0.9141 -0.8121
  620MOL0     H83666   5.137  11.374   7.416 -0.9525  0.3308 -0.7567
  620MOL0     H83667   5.027  11.253   7.498 -0.0722 -2.4068 -0.8319
  620MOL0     H83668   5.222  11.125   7.574  0.8427  0.1083 -0.2504
  620MOL0     H83669   5.319  11.251   7.476  0.3383  0.9377 -0.2871
  620MOL0     H83670   5.151  11.301   7.730  1.7606  1.5397  1.4770
  620MOL0     H83671   5.239  11.424   7.641  4.2447  0.4482 -1.7537
  620MOL0     H83672   5.453  11.300   7.673  4.4373 -3.0138  4.6087
  620MOL0     H83673   5.388  11.400   7.793  1.2388  0.6835 -2.5979
  620MOL0     H83674   5.415  11.095   7.762 -1.0936  0.3292 -1.3300
  620MOL0     H83675   5.286  11.137   7.863  0.0886 -2.4856 -1.4428
  620MOL0     H83676   5.415  11.260   8.026 -0.8517  0.0693 -0.3256
  620MOL0     H83677   5.470  11.093   7.998 -2.7310  0.0935  0.7478
  620MOL0     H83678   5.601  11.363   7.909  0.2123 -0.6141  2.5602
  620MOL0     H83679   5.658  11.210   7.851  0.4453 -1.4746  1.4705
  620MOL0     H83680   5.710  11.135   8.062 -0.1508  0.0611 -2.0990
  620MOL0     H83681   5.644  11.277   8.143 -0.2487 -0.7703 -0.7787
  620MOL0     H83682   4.933  11.385   7.327  1.2095  2.2628 -2.3528
  620MOL0     H83683   4.702  11.378   7.210 -0.0184  0.3824 -0.2539
  620MOL0     H83684   4.360  11.171   7.119 -2.4712  4.6580 -0.4464
  620MOL0     H83685   4.138  11.124   7.065  2.9591 -4.9530  1.7543
  620MOL0     H83686   5.221  11.198   6.846 -0.1411 -2.9206 -3.2389
  620MOL0     H83687   5.363  11.126   6.655  1.9349  0.9413 -3.1124
  620MOL0     H83688   6.001  11.126   6.487  1.4207 -2.0059 -1.3463
  620MOL0     H83689   6.055  11.059   6.267  1.2142  3.5523 -0.0755
  620MOL0     H83690   5.974  11.235   6.069 -0.3213 -0.8758  1.8478
  620MOL0     H83691   6.079  11.113   5.985  0.3603  2.5238 -0.2893
  620MOL0     H83692   5.895  11.079   5.819  0.9942  0.4389 -1.0326
  620MOL0     H83693   5.980  11.229   5.805  0.1892 -1.1893 -1.6467
  620MOL0     H83694   5.821  11.342   5.949  0.0615  0.4947 -0.3116
  620MOL0     H83695   5.707  11.199   5.932 -0.0088  2.0928  2.3458
  620MOL0     H83696   5.634  11.319   5.765 -0.1966 -1.4850  3.0246
  620MOL0     H83697   5.773  11.255   5.673  2.3164  0.5982  0.3341
  620MOL0     H83698   5.858  11.667   5.754 -0.3202 -0.3152  1.9988
  620MOL0     H83699   5.633  11.066   6.154  0.8043 -3.0009 -0.3209
  620MOL0     H83700   5.580  11.115   6.386  0.5387  1.2234 -1.2535
  621MOL0     O83701   1.444   5.454   5.498 -0.3064  0.9992  0.5655
  621MOL0     C83702   1.435   5.339   5.543 -0.5025  0.6943  0.4794
  621MOL0     O83703   1.494   5.228   5.484 -0.4826 -0.4651 -0.3542
  621MOL0     C83704   1.575   5.247   5.381 -0.3415  0.2724  0.6712
  621MOL0     C83705   1.531   5.272   5.254 -0.5518  0.7318  0.3340
  621MOL0     C83706   1.618   5.291   5.144  0.7590  0.1484 -0.4536
  621MOL0     C83707   1.756   5.282   5.157 -0.8280 -0.5375  0.0640
  621MOL0     O83708   1.838   5.271   5.051  0.6842  0.3065  0.0512
  621MOL0     C83709   1.971   5.207   5.064  0.1469  1.0612  0.4320
  621MOL0     C83710   2.045   5.205   4.928 -0.4668  0.2035  0.0609
  621MOL0     C83711   1.991   5.112   4.822  0.1176 -0.4843  0.2890
  621MOL0     C83712   1.854   5.151   4.768  0.1961  0.0605 -0.1562
  621MOL0     C83713   1.821   5.048   4.666  0.2805 -0.0436 -0.5195
  621MOL0     C83714   1.677   5.007   4.683  0.0472  0.1421  0.0130
  621MOL0     C83715   1.615   4.967   4.543 -0.4181 -0.7033 -0.8952
  621MOL0     C83716   1.644   4.823   4.496  0.2744  0.0510 -0.8760
  621MOL0     N83717   1.629   4.819   4.350 -0.2051  0.2187 -0.3271
  621MOL0     C83718   1.723   4.860   4.254 -0.3160  0.0889 -0.0329
  621MOL0     C83719   1.670   4.844   4.133 -0.0707 -0.5242 -1.1631
  621MOL0     C83720   1.740   4.875   3.999 -0.2687  0.2351  0.1974
  621MOL0     C83721   1.856   4.782   3.956  0.0692  0.5272 -0.3971
  621MOL0     C83722   1.987   4.775   4.036 -0.1898 -0.2376  0.3560
  621MOL0     C83723   2.101   4.719   3.957  0.2838  0.4726 -0.2444
  621MOL0     O83724   2.210   4.707   4.040 -0.2444  0.1336  0.4820
  621MOL0     C83725   2.335   4.676   3.975  0.2119 -0.4605 -0.0538
  621MOL0     C83726   2.353   4.662   3.835 -0.3804  0.3637 -0.6248
  621MOL0     C83727   2.479   4.648   3.769 -0.3284 -0.1158 -1.4196
  621MOL0     C83728   2.480   4.640   3.617 -0.0677 -0.1779  0.4675
  621MOL0     C83729   2.597   4.628   3.854  0.0218 -0.5592 -0.1458
  621MOL0     C83730   2.732   4.596   3.812 -0.6745 -0.8287  0.5771
  621MOL0     O83731   2.758   4.552   3.688 -0.0623 -0.3957  0.3754
  621MOL0     C83732   2.883   4.539   3.632 -1.0290 -0.2279  1.1882
  621MOL0     C83733   3.006   4.521   3.709  0.5483 -0.5423  0.3469
  621MOL0     C83734   3.125   4.503   3.641  0.4230  0.7841 -0.2889
  621MOL0     C83735   3.137   4.510   3.507 -0.0244  0.3630  0.8642
  621MOL0     O83736   3.253   4.495   3.444 -0.2121 -0.0714  0.1209
  621MOL0     C83737   3.374   4.529   3.508  0.0635  0.7666 -0.1782
  621MOL0     C83738   3.478   4.511   3.393  0.5625 -0.3609 -0.1380
  621MOL0     C83739   3.456   4.625   3.278 -0.1509 -0.4064  0.0547
  621MOL0     C83740   3.475   4.573   3.138 -0.3697 -0.3885  0.7328
  621MOL0     C83741   3.337   4.546   3.073 -0.6498  0.0887  0.0833
  621MOL0     C83742   3.365   4.493   2.923  0.1370  0.1005 -0.2589
  621MOL0     C83743   3.248   4.432   2.846  0.2166  0.1258 -0.6965
  621MOL0     C83744   3.294   4.372   2.710 -0.1076 -0.0583 -0.9934
  621MOL0    Cl83745   3.143   4.316   2.637  0.2869  0.0900 -0.6421
  621MOL0     C83746   3.019   4.517   3.426 -0.1769  0.4837 -0.5213
  621MOL0     C83747   2.897   4.539   3.488  1.1792  0.2585 -0.1671
  621MOL0     O83748   2.816   4.638   3.892 -0.1830 -0.5416  0.2444
  621MOL0     C83749   2.570   4.642   3.998 -0.7745  0.0310  0.6901
  621MOL0     C83750   2.443   4.669   4.053 -0.0359 -0.4412  0.3051
  621MOL0     N83751   1.543   4.784   4.155 -0.9986 -0.1255 -0.1846
  621MOL0     N83752   1.523   4.764   4.287  0.6245 -1.2962  0.1640
  621MOL0     C83753   1.806   5.263   5.282  0.5693 -0.0266  0.2635
  621MOL0     C83754   1.716   5.245   5.394 -1.3442 -0.0710 -0.2457
  621MOL0     C83755   1.340   5.314   5.657  0.1537 -1.3525  1.4185
  621MOL0     C83756   1.325   5.403   5.766  0.4405 -0.2914  0.4419
  621MOL0     C83757   1.237   5.383   5.872  0.2504  0.0138  0.3817
  621MOL0     C83758   1.160   5.265   5.872  0.4363 -0.2958 -0.1612
  621MOL0     O83759   1.062   5.231   5.963 -0.3744  0.5366 -0.3165
  621MOL0     C83760   0.993   5.336   6.037 -0.0740  0.7151 -0.3578
  621MOL0     C83761   0.849   5.347   5.996  0.1403 -0.2833  0.4335
  621MOL0     C83762   0.835   5.442   5.869  0.5419  0.8166  0.0851
  621MOL0     C83763   0.699   5.433   5.809  0.6212 -0.0413 -0.6306
  621MOL0     C83764   0.678   5.543   5.712  0.1582 -0.0970  0.8638
  621MOL0     C83765   0.673   5.644   5.639 -0.2317 -0.3269 -0.3193
  621MOL0     C83766   1.175   5.173   5.766 -0.5689 -0.5874  0.1787
  621MOL0     C83767   1.258   5.200   5.657 -0.6421 -0.7641  0.2878
  621MOL0     H83768   1.423   5.268   5.246 -0.7009  2.2669  1.2749
  621MOL0     H83769   1.578   5.286   5.043 -2.2096  2.1619  0.4917
  621MOL0     H83770   2.018   5.268   5.141 -1.8168  4.3343 -0.7381
  621MOL0     H83771   1.961   5.103   5.096  2.2788  0.1955 -1.4663
  621MOL0     H83772   2.040   5.309   4.894  0.0835 -0.0397 -0.7850
  621MOL0     H83773   2.152   5.192   4.949  0.0386  3.6213  0.1402
  621MOL0     H83774   2.058   5.100   4.736  2.6860 -2.2394  2.3848
  621MOL0     H83775   1.981   5.013   4.867  4.2995 -0.4074  1.7910
  621MOL0     H83776   1.777   5.148   4.845 -1.9595 -1.1111 -2.2331
  621MOL0     H83777   1.844   5.246   4.715 -1.1169 -1.4665 -2.8558
  621MOL0     H83778   1.832   5.088   4.565 -1.5102  0.0327 -0.7137
  621MOL0     H83779   1.876   4.954   4.674 -1.0092 -1.3980 -4.9170
  621MOL0     H83780   1.671   4.922   4.751  1.4325  0.0457  0.0286
  621MOL0     H83781   1.608   5.079   4.729 -0.7508  0.8377 -2.1410
  621MOL0     H83782   1.506   4.968   4.543 -0.4285 -1.2987 -0.7519
  621MOL0     H83783   1.631   5.047   4.471 -0.2939 -1.0693 -1.2798
  621MOL0     H83784   1.578   4.749   4.543 -0.4580  0.7162 -0.8343
  621MOL0     H83785   1.747   4.794   4.516 -0.1516 -2.0581 -1.4943
  621MOL0     H83786   1.827   4.888   4.270  0.3948 -1.6490 -1.2157
  621MOL0     H83787   1.669   4.874   3.916 -3.1644 -2.0467  2.4446
  621MOL0     H83788   1.785   4.974   4.005  3.0492 -1.1887  0.6964
  621MOL0     H83789   1.890   4.821   3.860  2.2153  0.9342  0.4541
  621MOL0     H83790   1.811   4.684   3.939 -1.6093  1.5810 -2.4348
  621MOL0     H83791   1.974   4.728   4.133  0.7821  1.2083  1.2226
  621MOL0     H83792   2.018   4.877   4.059  1.5429 -0.4191 -0.9575
  621MOL0     H83793   2.120   4.790   3.876 -1.1530  2.0503  0.7123
  621MOL0     H83794   2.086   4.616   3.926 -4.1661  0.7128  0.3781
  621MOL0     H83795   2.270   4.686   3.769 -1.3842  5.1959  2.0111
  621MOL0     H83796   2.392   4.688   3.574  0.1647  0.9555  1.2074
  621MOL0     H83797   2.567   4.693   3.577 -1.3664  1.7275  0.0729
  621MOL0     H83798   2.486   4.537   3.580 -1.8190  1.1845 -4.2714
  621MOL0     H83799   3.013   4.511   3.817  2.4449 -0.7111  0.2451
  621MOL0     H83800   3.204   4.489   3.714  0.9693  0.0232 -0.9949
  621MOL0     H83801   3.377   4.631   3.545  5.3806  0.6759  0.5029
  621MOL0     H83802   3.407   4.455   3.582 -0.9424  3.7935  3.5730
  621MOL0     H83803   3.577   4.532   3.435 -0.2960 -1.7347  2.9324
  621MOL0     H83804   3.470   4.408   3.358  0.7237 -0.3634 -0.1665
  621MOL0     H83805   3.546   4.687   3.274  1.6196 -2.5668  2.9071
  621MOL0     H83806   3.363   4.680   3.297 -0.0700 -0.3974  0.4281
  621MOL0     H83807   3.511   4.646   3.065 -1.7370 -1.4040 -1.0337
  621MOL0     H83808   3.552   4.497   3.126 -0.1901  0.2010 -3.2330
  621MOL0     H83809   3.267   4.630   3.071 -3.1947 -1.9008  0.2822
  621MOL0     H83810   3.274   4.474   3.126 -2.4461  2.8301  2.0185
  621MOL0     H83811   3.389   4.581   2.862  1.5150  0.3643  0.6361
  621MOL0     H83812   3.449   4.424   2.939  2.2218  3.0007  2.5888
  621MOL0     H83813   3.175   4.509   2.820 -0.2680 -0.5562 -1.4223
  621MOL0     H83814   3.204   4.354   2.909 -0.2257  0.6369 -0.3615
  621MOL0     H83815   3.359   4.284   2.722  0.9333  0.6758 -1.1554
  621MOL0     H83816   3.342   4.461   2.669  2.6958 -0.3882  1.2336
  621MOL0     H83817   3.027   4.518   3.318  0.0361 -1.5552 -0.5667
  621MOL0     H83818   2.801   4.527   3.439  1.7399  0.6331 -1.3987
  621MOL0     H83819   2.643   4.612   4.073 -0.0069 -1.9760 -0.7930
  621MOL0     H83820   2.430   4.669   4.161  2.7019 -0.2763  0.7012
  621MOL0     H83821   1.911   5.252   5.308  1.1171  1.8288 -0.9875
  621MOL0     H83822   1.758   5.222   5.491 -2.7626  0.0186  0.4122
  621MOL0     H83823   1.377   5.499   5.763 -0.9220  0.4394 -0.7103
  621MOL0     H83824   1.239   5.471   5.935  2.7302  0.1004  0.2782
  621MOL0     H83825   0.998   5.316   6.144  2.6087  0.9288 -0.3802
  621MOL0     H83826   1.036   5.435   6.019  0.6540  0.7891  1.6013
  621MOL0     H83827   0.802   5.399   6.079 -1.8214  0.3640 -1.0055
  621MOL0     H83828   0.801   5.249   5.990 -3.3396  1.2259  0.8530
  621MOL0     H83829   0.914   5.420   5.796  0.7206  2.2631 -0.1881
  621MOL0     H83830   0.846   5.546   5.900 -3.0924  1.5020 -0.4508
  621MOL0     H83831   0.623   5.433   5.887  1.8045  0.5990  0.5657
  621MOL0     H83832   0.692   5.334   5.763 -0.5233 -0.1507 -0.2593
  621MOL0     H83833   0.660   5.724   5.570  2.2893  2.6753  2.4096
  621MOL0     H83834   1.106   5.090   5.758 -2.0750  0.6922 -0.6621
  621MOL0     H83835   1.251   5.137   5.569 -3.0147  0.7371 -0.7120
  622MOL0     O83836  10.955   9.518   5.245  0.2573  0.4196  0.2491
  622MOL0     C83837  11.008   9.491   5.352 -0.1680 -0.3433  0.9854
  622MOL0     O83838  10.948   9.496   5.475  1.0551 -0.0770 -0.1272
  622MOL0     C83839  10.819   9.528   5.508 -0.3075  0.1187  0.1393
  622MOL0     C83840  10.723   9.599   5.430  0.3050  0.6610  0.3696
  622MOL0     C83841  10.589   9.629   5.482 -0.3754  0.2563 -0.4784
  622MOL0     C83842  10.545   9.565   5.595  0.7961 -0.1238 -0.4267
  622MOL0     O83843  10.420   9.578   5.647 -0.2828  0.4292  0.1471
  622MOL0     C83844  10.323   9.636   5.560 -0.3175 -0.2759  0.1324
  622MOL0     C83845  10.181   9.592   5.608  0.8363  0.6682  0.6941
  622MOL0     C83846  10.071   9.638   5.508 -0.1262  0.0266 -0.7389
  622MOL0     C83847  10.054   9.794   5.493  0.3542 -0.3279 -0.0240
  622MOL0     C83848   9.953   9.804   5.378 -0.8212 -0.2798  0.3122
  622MOL0     C83849   9.932   9.950   5.335 -0.1102 -0.3187  0.1547
  622MOL0     C83850   9.793   9.983   5.291 -0.3904 -1.0231  0.3632
  622MOL0     C83851   9.798  10.139   5.274 -0.1728  0.0274  0.7231
  622MOL0     N83852   9.668  10.197   5.222  0.5710 -0.6423  0.4260
  622MOL0     C83853   9.551  10.223   5.294 -0.0275 -0.7128  0.0511
  622MOL0     C83854   9.475  10.307   5.211  0.0704  0.6911  0.2378
  622MOL0     C83855   9.345  10.364   5.246 -0.3979 -0.2414 -0.3048
  622MOL0     C83856   9.337  10.509   5.194 -0.1450  0.6500  0.1171
  622MOL0     C83857   9.200  10.587   5.211 -0.2676 -0.0175 -0.2577
  622MOL0     C83858   9.074  10.534   5.133  0.3807 -0.4999 -0.3043
  622MOL0     O83859   9.056  10.400   5.145 -0.0457 -0.0412  0.1169
  622MOL0     C83860   8.978  10.320   5.062  0.5625 -0.5519  0.8489
  622MOL0     C83861   8.921  10.366   4.949  0.8453 -0.5339  0.5952
  622MOL0     C83862   8.846  10.291   4.861  0.6147  0.5787 -0.0115
  622MOL0     C83863   8.807  10.361   4.736 -0.1088  0.2237 -0.4976
  622MOL0     C83864   8.844  10.146   4.879  0.1026  0.3252  0.4349
  622MOL0     C83865   8.782  10.047   4.774  0.5841 -0.3325 -0.3886
  622MOL0     O83866   8.753   9.917   4.806 -0.7951 -0.2258  0.0102
  622MOL0     C83867   8.701   9.834   4.709 -0.2121  0.0806 -0.0173
  622MOL0     C83868   8.578   9.784   4.732 -0.5521 -0.1653 -0.8388
  622MOL0     C83869   8.515   9.701   4.645  0.4947  0.2028 -0.0703
  622MOL0     C83870   8.577   9.679   4.525  0.1950  0.2678  0.5308
  622MOL0     O83871   8.498   9.604   4.436 -0.2777  0.0130  0.0707
  622MOL0     C83872   8.546   9.619   4.295 -0.1115  0.0471 -0.3515
  622MOL0     C83873   8.443   9.550   4.203  0.1802 -0.4621 -0.6941
  622MOL0     C83874   8.470   9.586   4.062  0.5263 -0.2120  0.5457
  622MOL0     C83875   8.486   9.453   3.984 -0.3362  0.1177 -0.4621
  622MOL0     C83876   8.524   9.482   3.835 -0.3186 -0.8771  0.1691
  622MOL0     C83877   8.675   9.522   3.803  0.2543  0.4022  0.3111
  622MOL0     C83878   8.693   9.533   3.643 -0.3081 -1.1534  0.0974
  622MOL0     C83879   8.811   9.615   3.613  0.8000 -0.4261 -0.2257
  622MOL0    Cl83880   8.956   9.542   3.669  0.4074  0.5663 -0.4004
  622MOL0     C83881   8.707   9.714   4.500  0.0405 -0.6166  0.9310
  622MOL0     C83882   8.765   9.805   4.583  0.0239  0.6163 -0.7977
  622MOL0     O83883   8.770  10.092   4.661 -0.1208  0.1580 -0.4343
  622MOL0     C83884   8.906  10.102   5.000  0.1687 -0.1890  0.6642
  622MOL0     C83885   8.965  10.194   5.086 -0.2637  0.5157  0.5308
  622MOL0     N83886   9.547  10.325   5.091 -0.3627  0.1468  0.0602
  622MOL0     N83887   9.649  10.254   5.099 -0.1867 -0.1958  0.0730
  622MOL0     C83888  10.641   9.492   5.672  0.7577  0.1977  0.6228
  622MOL0     C83889  10.777   9.479   5.632 -0.6858 -0.4692  0.3505
  622MOL0     C83890  11.146   9.435   5.322  0.5520  0.8408 -0.2660
  622MOL0     C83891  11.244   9.447   5.423 -0.8723  0.2033  0.2387
  622MOL0     C83892  11.381   9.410   5.391  0.3111 -0.6316 -0.3624
  622MOL0     C83893  11.420   9.359   5.266 -0.0487 -0.3877 -0.7014
  622MOL0     O83894  11.549   9.331   5.255 -0.7295 -0.0499 -0.2222
  622MOL0     C83895  11.601   9.289   5.129 -0.0473  0.6968  1.1304
  622MOL0     C83896  11.748   9.310   5.111 -0.2542  0.7037  0.0946
  622MOL0     C83897  11.841   9.230   5.207  0.1814 -0.1205  0.6109
  622MOL0     C83898  11.972   9.194   5.132  0.0891 -0.1537 -0.7084
  622MOL0     C83899  12.076   9.137   5.220  0.2023  0.5762  0.6331
  622MOL0     C83900  12.155   9.101   5.303 -0.4576 -0.2698 -0.7130
  622MOL0     C83901  11.315   9.349   5.174 -0.0173  0.2956 -0.8375
  622MOL0     C83902  11.180   9.386   5.192  0.4730 -1.2593 -0.6496
  622MOL0     H83903  10.766   9.628   5.335 -0.4037  2.9104  0.6811
  622MOL0     H83904  10.521   9.689   5.421 -0.9457  2.0201  1.7560
  622MOL0     H83905  10.329   9.745   5.561 -0.5673 -0.2595  1.1552
  622MOL0     H83906  10.326   9.606   5.454  2.8597 -0.6481  0.2455
  622MOL0     H83907  10.181   9.483   5.619  1.9918  0.2002 -2.6935
  622MOL0     H83908  10.161   9.631   5.708 -2.3265 -0.1851  0.5199
  622MOL0     H83909  10.093   9.583   5.416  1.8574 -2.3467  1.0145
  622MOL0     H83910   9.972   9.600   5.534 -2.0440  2.1339 -4.2524
  622MOL0     H83911  10.011   9.848   5.578  0.5604  3.3549 -2.0406
  622MOL0     H83912  10.149   9.846   5.478 -0.0729  1.2481  2.2266
  622MOL0     H83913   9.995   9.748   5.295  1.5790  0.3976  0.9831
  622MOL0     H83914   9.853   9.771   5.410 -1.4461  1.2149 -0.0157
  622MOL0     H83915   9.955  10.014   5.420 -3.0283  0.1039  0.7258
  622MOL0     H83916  10.004   9.976   5.256 -1.5185  0.9027 -0.8008
  622MOL0     H83917   9.765   9.933   5.197  2.3377  0.2149 -1.2296
  622MOL0     H83918   9.728   9.965   5.377 -0.1105  2.3486  1.4351
  622MOL0     H83919   9.882  10.181   5.218 -0.6032 -0.5177 -0.3644
  622MOL0     H83920   9.822  10.190   5.368 -0.0208  4.6310 -1.5118
  622MOL0     H83921   9.521  10.200   5.396 -1.4111 -1.2030 -0.4453
  622MOL0     H83922   9.276  10.303   5.187  1.3199 -2.3832 -0.2538
  622MOL0     H83923   9.324  10.346   5.352 -1.6798 -1.5705 -0.7482
  622MOL0     H83924   9.358  10.509   5.086 -0.2456 -0.2399  0.0869
  622MOL0     H83925   9.419  10.563   5.243  0.4655 -1.5336  1.6780
  622MOL0     H83926   9.225  10.685   5.169 -1.0137  0.1635 -0.2837
  622MOL0     H83927   9.176  10.594   5.317 -0.1971 -1.4248 -0.1267
  622MOL0     H83928   9.098  10.558   5.029  2.7612  4.0639  1.0198
  622MOL0     H83929   8.978  10.581   5.157 -0.4727 -0.7379 -2.8790
  622MOL0     H83930   8.932  10.473   4.934  2.0748 -0.7430 -0.1570
  622MOL0     H83931   8.797  10.467   4.763  0.5274 -0.1198  1.1709
  622MOL0     H83932   8.871  10.327   4.654 -0.4551  1.1351 -1.1697
  622MOL0     H83933   8.708  10.326   4.703 -0.3296 -1.6021  1.8502
  622MOL0     H83934   8.526   9.803   4.826 -1.3370  0.9188 -1.4835
  622MOL0     H83935   8.411   9.672   4.658  1.0237 -1.1123  1.5478
  622MOL0     H83936   8.553   9.724   4.266 -1.2111 -0.0304 -0.9232
  622MOL0     H83937   8.643   9.570   4.275 -0.0088 -0.7074  1.7682
  622MOL0     H83938   8.434   9.443   4.221 -0.6237 -1.3068 -5.0393
  622MOL0     H83939   8.347   9.594   4.232  0.8748 -0.2346  1.4494
  622MOL0     H83940   8.558   9.649   4.044 -0.1123  0.0386 -2.0093
  622MOL0     H83941   8.373   9.607   4.018  0.5241 -2.2284 -0.4996
  622MOL0     H83942   8.557   9.384   4.030 -1.4159 -0.3660  0.5202
  622MOL0     H83943   8.393   9.398   3.996  2.1245 -4.2931  0.7001
  622MOL0     H83944   8.460   9.559   3.791  0.3254  0.4063  1.3877
  622MOL0     H83945   8.490   9.393   3.781  0.5794 -0.7536 -0.6303
  622MOL0     H83946   8.690   9.624   3.841  1.4512  0.8464 -1.2560
  622MOL0     H83947   8.752   9.460   3.849 -1.2562 -1.1582  0.8572
  622MOL0     H83948   8.604   9.577   3.595  0.3797 -0.6581 -0.7474
  622MOL0     H83949   8.711   9.437   3.594  0.9786 -1.1127  0.4790
  622MOL0     H83950   8.816   9.718   3.647 -0.2651  0.3785 -2.3143
  622MOL0     H83951   8.831   9.628   3.507  3.9831  2.8238  0.5849
  622MOL0     H83952   8.756   9.661   4.419 -2.4500 -2.0569  0.2420
  622MOL0     H83953   8.858   9.857   4.565 -2.0595  4.2130 -2.1461
  622MOL0     H83954   8.890   9.998   5.027 -0.0184 -0.4931 -0.5347
  622MOL0     H83955   9.015  10.152   5.173  1.8836 -0.2193 -0.9779
  622MOL0     H83956  10.608   9.443   5.762  0.8081 -3.4426 -1.1676
  622MOL0     H83957  10.843   9.422   5.697 -0.4920 -2.4273 -1.4440
  622MOL0     H83958  11.207   9.485   5.518  1.7183 -0.7949  1.7540
  622MOL0     H83959  11.445   9.422   5.477  1.7588 -0.3718 -1.4462
  622MOL0     H83960  11.579   9.182   5.118  0.5544  0.6019  0.8430
  622MOL0     H83961  11.552   9.342   5.047  1.2287 -0.6863 -0.5949
  622MOL0     H83962  11.764   9.418   5.102  0.4602  0.4883 -1.5314
  622MOL0     H83963  11.775   9.274   5.011 -0.1842 -0.3488  0.4850
  622MOL0     H83964  11.783   9.144   5.240 -0.5028  0.8082  1.9011
  622MOL0     H83965  11.873   9.291   5.292  0.2076  3.1589 -1.5582
  622MOL0     H83966  12.012   9.276   5.072  2.1749 -2.3438 -2.5286
  622MOL0     H83967  11.960   9.116   5.057  2.7087 -2.5268  1.0974
  622MOL0     H83968  12.230   9.086   5.379 -0.5060  0.6403 -0.4752
  622MOL0     H83969  11.325   9.309   5.073 -2.2830  0.0444 -1.0243
  622MOL0     H83970  11.107   9.364   5.115 -0.6753 -3.0454  0.8562
  623MOL0     O83971   7.454  10.672   9.750 -0.1170 -0.0696 -0.1039
  623MOL0     C83972   7.424  10.788   9.736  0.4301  0.1137 -0.0112
  623MOL0     O83973   7.301  10.834   9.763 -0.2390 -0.8722 -0.3206
  623MOL0     C83974   7.206  10.744   9.813 -0.4255  0.0515  0.0827
  623MOL0     C83975   7.158  10.746   9.945 -0.3958  0.1929 -0.3001
  623MOL0     C83976   7.059  10.654   9.995 -0.2216  0.6463 -1.3692
  623MOL0     C83977   7.008  10.551   9.916 -0.0331 -0.9287  0.5524
  623MOL0     O83978   6.902  10.468   9.953 -0.2323 -0.0640 -0.2728
  623MOL0     C83979   6.923  10.376  10.064  0.0551  0.2196 -0.3699
  623MOL0     C83980   7.041  10.287  10.040  0.6468  0.7696  0.0546
  623MOL0     C83981   7.071  10.188  10.160 -0.5651 -0.5327  0.0276
  623MOL0     C83982   7.129  10.061  10.109 -0.6648 -0.2841  0.7242
  623MOL0     C83983   7.171   9.977  10.225  0.0968  0.5966 -0.1815
  623MOL0     C83984   7.229   9.849  10.170  0.1913  0.1317 -1.0634
  623MOL0     C83985   7.269   9.746  10.278 -0.1374  0.3310 -0.1070
  623MOL0     C83986   7.371   9.788  10.393  0.4452 -0.8425  0.3630
  623MOL0     N83987   7.353   9.710  10.518 -0.1977 -0.3876  0.6737
  623MOL0     C83988   7.412   9.585  10.545  0.4394 -0.3019 -0.8317
  623MOL0     C83989   7.397   9.570  10.679  0.2108 -0.2593 -0.2067
  623MOL0     C83990   7.473   9.476  10.759 -0.5908  0.8063 -0.0289
  623MOL0     C83991   7.427   9.332  10.739 -0.8039  0.0136  0.5583
  623MOL0     C83992   7.292   9.301  10.808  0.0828 -0.9760  0.0983
  623MOL0     C83993   7.276   9.353  10.951  0.0281 -0.6909 -0.2636
  623MOL0     O83994   7.155   9.303  11.007 -0.6671  0.2504  0.1201
  623MOL0     C83995   7.034   9.362  10.962 -0.3217  0.2724  0.5032
  623MOL0     C83996   6.921   9.304  11.014 -0.3777 -0.6195 -0.2243
  623MOL0     C83997   6.793   9.355  10.991 -0.0597 -0.8550 -0.3945
  623MOL0     C83998   6.679   9.275  11.047 -0.7159 -0.4751  0.2509
  623MOL0     C83999   6.788   9.469  10.916 -0.4856 -0.5494  0.0298
  623MOL0     C84000   6.667   9.553  10.909  0.6829 -0.5390  0.4244
  623MOL0     O84001   6.649   9.613  10.784 -0.7045 -0.1680 -0.7832
  623MOL0     C84002   6.553   9.703  10.771  0.7106  0.1197 -0.4373
  623MOL0     C84003   6.585   9.833  10.804 -0.2076  0.5046  0.1520
  623MOL0     C84004   6.491   9.930  10.796 -0.9468 -0.0400  0.7207
  623MOL0     C84005   6.363   9.898  10.751  0.0041 -0.0811 -1.8713
  623MOL0     O84006   6.251   9.973  10.735 -0.2349 -0.0470 -0.7209
  623MOL0     C84007   6.261  10.109  10.777 -0.5496  0.3489 -0.1449
  623MOL0     C84008   6.252  10.120  10.932 -0.4228 -0.9271 -0.6350
  623MOL0     C84009   6.132  10.041  11.010  0.6615  0.4183  0.8007
  623MOL0     C84010   6.001  10.092  10.956  1.0863  0.7004 -0.5726
  623MOL0     C84011   5.906  10.099  11.075  0.3597 -1.5348  0.3075
  623MOL0     C84012   5.770  10.154  11.040 -1.1618  0.8694 -0.1425
  623MOL0     C84013   5.687  10.058  10.952  0.3848 -0.5608 -0.3576
  623MOL0     C84014   5.566  10.131  10.889 -0.1592 -0.5513  0.0743
  623MOL0    Cl84015   5.467  10.011  10.797 -0.2463 -0.2507 -0.2268
  623MOL0     C84016   6.325   9.754  10.733 -0.1222 -0.7675  0.2018
  623MOL0     C84017   6.427   9.660  10.746 -0.1064  0.2199  0.0396
  623MOL0     O84018   6.592   9.566  11.008 -0.4428 -0.4414  0.6615
  623MOL0     C84019   6.905   9.521  10.851  0.0166 -0.4583  0.1658
  623MOL0     C84020   7.027   9.472  10.880  0.4182 -0.0429 -0.5832
  623MOL0     N84021   7.308   9.659  10.726  0.8596  0.8370 -0.1850
  623MOL0     N84022   7.280   9.744  10.632 -0.4068  0.0877 -0.8739
  623MOL0     C84023   7.055  10.553   9.785 -0.1465 -0.4667  0.2331
  623MOL0     C84024   7.147  10.643   9.731  0.2888 -0.4591  0.4691
  623MOL0     C84025   7.521  10.887   9.678 -0.3743 -1.1561  1.2588
  623MOL0     C84026   7.487  11.009   9.619 -0.6344  0.5014  0.0318
  623MOL0     C84027   7.586  11.093   9.558 -0.4856 -1.1719 -0.2013
  623MOL0     C84028   7.718  11.058   9.566 -0.4455  0.3956  0.7746
  623MOL0     O84029   7.807  11.152   9.521  0.2529  0.2855 -0.3995
  623MOL0     C84030   7.944  11.146   9.557  0.7594 -0.2329  0.1807
  623MOL0     C84031   8.032  11.087   9.454 -0.2362 -0.5627  0.1655
  623MOL0     C84032   7.999  11.140   9.317 -0.1147  0.3268  0.5181
  623MOL0     C84033   8.068  11.271   9.276 -0.0406 -0.0343 -0.3485
  623MOL0     C84034   8.215  11.275   9.285 -0.6481 -0.1605 -0.1417
  623MOL0     C84035   8.333  11.303   9.292  0.3636 -0.4600 -0.4755
  623MOL0     C84036   7.749  10.937   9.621  0.2060  0.2711  0.7031
  623MOL0     C84037   7.660  10.847   9.674 -0.4863 -0.2079 -0.2932
  623MOL0     H84038   7.194  10.818  10.018  0.6657  0.4803 -1.0759
  623MOL0     H84039   7.019  10.664  10.095  0.2514 -0.5810 -1.0428
  623MOL0     H84040   6.929  10.424  10.162 -3.3557 -0.5584  0.3750
  623MOL0     H84041   6.835  10.310  10.065  0.7366 -0.7062 -0.1465
  623MOL0     H84042   7.026  10.238   9.944  3.9251 -1.6479  0.5610
  623MOL0     H84043   7.138  10.334  10.020  1.2977 -0.7448 -0.4636
  623MOL0     H84044   7.144  10.237  10.225  0.2257 -0.1117 -1.1430
  623MOL0     H84045   6.977  10.166  10.211 -0.3814 -3.8035 -0.8191
  623MOL0     H84046   7.052  10.022  10.042  0.1596  1.7545 -1.5388
  623MOL0     H84047   7.215  10.091  10.049 -1.8337 -0.4719 -1.1537
  623MOL0     H84048   7.249  10.027  10.285  0.1739 -1.3667  1.4742
  623MOL0     H84049   7.084   9.950  10.285 -0.9661 -1.2230 -2.4096
  623MOL0     H84050   7.155   9.803  10.104  0.8413 -2.0211 -0.3659
  623MOL0     H84051   7.317   9.860  10.106 -0.1026 -4.0831 -2.4778
  623MOL0     H84052   7.180   9.713  10.332  0.3134 -0.6214  0.0625
  623MOL0     H84053   7.312   9.657  10.232  0.0902 -0.7903  2.1193
  623MOL0     H84054   7.338   9.885  10.432 -0.4400 -1.2688  0.6847
  623MOL0     H84055   7.478   9.787  10.368  0.1736  0.4383 -1.0181
  623MOL0     H84056   7.480   9.532  10.479  0.3309 -1.0388 -0.3531
  623MOL0     H84057   7.574   9.494  10.720  1.0618  0.2795  3.5844
  623MOL0     H84058   7.482   9.492  10.867 -0.7517 -0.2983  0.1511
  623MOL0     H84059   7.503   9.262  10.776 -0.8982 -0.7628 -0.6678
  623MOL0     H84060   7.408   9.325  10.632  0.9370  0.7808  0.1701
  623MOL0     H84061   7.275   9.194  10.819 -2.1550 -1.3855 -4.8911
  623MOL0     H84062   7.210   9.325  10.740 -1.4192 -2.8814  1.1475
  623MOL0     H84063   7.283   9.462  10.959  2.3836 -0.6343 -2.1198
  623MOL0     H84064   7.362   9.320  11.009 -0.6779  0.0688  1.2829
  623MOL0     H84065   6.921   9.214  11.075  0.7229 -0.7092 -0.3414
  623MOL0     H84066   6.625   9.216  10.972 -1.1440  1.4928 -1.0938
  623MOL0     H84067   6.730   9.205  11.113  0.9744  1.4972  1.1352
  623MOL0     H84068   6.620   9.347  11.105  1.8157 -0.3830  2.9418
  623MOL0     H84069   6.688   9.852  10.829  0.0473 -1.6532  0.9903
  623MOL0     H84070   6.532  10.027  10.823  1.0646 -0.2115 -1.4101
  623MOL0     H84071   6.355  10.159  10.751 -1.3101  1.2751 -1.1899
  623MOL0     H84072   6.178  10.161  10.729  1.3952  2.3481 -1.4993
  623MOL0     H84073   6.348  10.087  10.974  0.6191  0.8411 -1.5310
  623MOL0     H84074   6.252  10.228  10.951  1.7353 -0.3205 -3.4238
  623MOL0     H84075   6.146  10.064  11.116  0.3101  0.9529  0.7371
  623MOL0     H84076   6.154   9.937  10.987  0.8507  1.0849 -2.7023
  623MOL0     H84077   5.999  10.181  10.892 -1.1696 -1.3350 -3.5816
  623MOL0     H84078   5.976  10.008  10.891  0.3663 -0.0986  0.6806
  623MOL0     H84079   5.943  10.165  11.154 -3.9764  3.5677 -1.2778
  623MOL0     H84080   5.914  10.003  11.126  4.5664 -0.7463  1.5635
  623MOL0     H84081   5.714  10.158  11.134 -0.4704  1.5092  0.2505
  623MOL0     H84082   5.762  10.258  11.007 -1.9321 -0.1730 -3.6057
  623MOL0     H84083   5.652   9.971  11.008  1.0781  0.0143  1.0168
  623MOL0     H84084   5.750  10.023  10.869  2.2719 -0.7151  1.0556
  623MOL0     H84085   5.587  10.221  10.832 -2.5636 -1.1981 -2.0277
  623MOL0     H84086   5.501  10.162  10.971  0.8102 -3.4406  2.1274
  623MOL0     H84087   6.226   9.727  10.699  0.7086 -0.2446 -3.0649
  623MOL0     H84088   6.410   9.555  10.724  0.9445  0.2342 -0.9949
  623MOL0     H84089   6.897   9.603  10.780  1.1515 -1.1795 -0.8578
  623MOL0     H84090   7.102   9.526  10.824  1.1724  0.2249  0.6368
  623MOL0     H84091   7.021  10.477   9.715 -2.0375  0.1885  0.3830
  623MOL0     H84092   7.171  10.634   9.626  1.0802  1.0538  0.4920
  623MOL0     H84093   7.382  11.037   9.619 -1.2994 -1.2477  4.3060
  623MOL0     H84094   7.559  11.187   9.510 -1.0057 -0.8269  0.7585
  623MOL0     H84095   7.966  11.252   9.574 -4.0783  1.7110 -3.3805
  623MOL0     H84096   7.963  11.095   9.652  1.8938  1.8407  1.1447
  623MOL0     H84097   8.015  10.979   9.460  0.0959 -0.5488  1.9603
  623MOL0     H84098   8.140  11.103   9.464 -0.4200  1.2358 -0.4482
  623MOL0     H84099   7.891  11.153   9.306 -0.1573  1.0305  1.6606
  623MOL0     H84100   8.018  11.065   9.239 -0.2534  0.1044  0.6955
  623MOL0     H84101   8.025  11.338   9.352 -1.1275  0.8840 -1.7370
  623MOL0     H84102   8.032  11.313   9.182 -4.7034  2.8305  2.3218
  623MOL0     H84103   8.438  11.312   9.313  0.2678  0.4584 -0.3581
  623MOL0     H84104   7.853  10.909   9.635  0.6250  0.1618 -1.9823
  623MOL0     H84105   7.694  10.749   9.706  3.5784  1.0152 -0.3332
  624MOL0     O84106   1.577   3.785  10.692  0.1641 -0.0714  0.1711
  624MOL0     C84107   1.669   3.814  10.622 -0.3042 -0.8607  0.2820
  624MOL0     O84108   1.666   3.900  10.511  0.3732  0.0667 -0.1182
  624MOL0     C84109   1.536   3.945  10.483  0.0515  0.7077 -0.6731
  624MOL0     C84110   1.417   3.863  10.482 -0.1873 -1.1747 -0.4010
  624MOL0     C84111   1.292   3.928  10.468  0.1625 -0.3200 -1.0314
  624MOL0     C84112   1.284   4.062  10.451 -0.3271  0.7445  1.0162
  624MOL0     O84113   1.172   4.119  10.417  0.9346  0.7203 -0.0813
  624MOL0     C84114   1.177   4.184  10.288  0.3393  0.5742  0.5685
  624MOL0     C84115   1.070   4.131  10.194 -0.3196 -0.0901  0.8925
  624MOL0     C84116   0.927   4.146  10.235  0.2429  0.6037 -0.1771
  624MOL0     C84117   0.830   4.052  10.168 -0.4718  0.3073  0.0905
  624MOL0     C84118   0.688   4.070  10.212 -0.0579  0.1709 -0.3185
  624MOL0     C84119   0.602   3.971  10.134  0.2455 -0.0816  1.2062
  624MOL0     C84120   0.457   3.958  10.181  0.6068  0.5710 -0.3390
  624MOL0     C84121   0.368   4.082  10.141 -0.6728  0.3878 -0.3665
  624MOL0     N84122   0.235   4.066  10.200 -1.3867  0.2329  0.1925
  624MOL0     C84123   0.125   4.020  10.129  0.5261 -0.1358 -0.0607
  624MOL0     C84124   0.028   4.054  10.218  0.2041 -0.2495  0.6713
  624MOL0     C84125  -0.114   4.082  10.189 -0.4608 -0.2490  0.0946
  624MOL0     C84126  -0.125   4.225  10.123  0.3658 -0.2944  0.3912
  624MOL0     C84127  -0.046   4.331  10.203 -0.1798 -0.4528  0.3635
  624MOL0     C84128  -0.057   4.479  10.142  0.1482 -0.8923 -0.0549
  624MOL0     O84129  -0.180   4.539  10.148 -0.1845 -0.3083 -0.1878
  624MOL0     C84130  -0.261   4.534  10.034  0.5386  0.6943 -0.3640
  624MOL0     C84131  -0.376   4.598  10.047 -0.0677  0.4608  0.3132
  624MOL0     C84132  -0.466   4.588   9.939  0.3832 -0.4744 -0.7943
  624MOL0     C84133  -0.588   4.663   9.967 -0.4520 -0.0452  0.6005
  624MOL0     C84134  -0.446   4.505   9.830  0.3504 -0.3012 -0.2873
  624MOL0     C84135  -0.562   4.469   9.737 -0.2774  0.8892  0.8000
  624MOL0     O84136  -0.534   4.451   9.607 -0.3381 -0.6894  0.3135
  624MOL0     C84137  -0.629   4.388   9.521  0.5365  0.5168 -0.2675
  624MOL0     C84138  -0.730   4.297   9.560  0.0638  0.3808 -0.4036
  624MOL0     C84139  -0.810   4.237   9.458  0.5260 -0.2386  0.6436
  624MOL0     C84140  -0.794   4.268   9.320  0.3455 -0.5128 -0.3831
  624MOL0     O84141  -0.862   4.207   9.224  0.6170  0.3269 -0.1196
  624MOL0     C84142  -0.999   4.180   9.240  0.5614  0.4429  0.9700
  624MOL0     C84143  -1.050   4.154   9.097  1.0708 -0.3931 -0.2351
  624MOL0     C84144  -1.207   4.127   9.093 -0.7489  0.1168 -0.1433
  624MOL0     C84145  -1.251   4.156   8.941  0.1479  0.1622  0.7609
  624MOL0     C84146  -1.370   4.092   8.888 -0.7183 -0.6549  0.3940
  624MOL0     C84147  -1.412   4.151   8.752 -0.1610 -1.4086 -0.3228
  624MOL0     C84148  -1.553   4.090   8.719  1.1007 -0.2474 -0.2457
  624MOL0     C84149  -1.615   4.136   8.584  0.3311 -0.0347 -0.2860
  624MOL0    Cl84150  -1.517   4.106   8.433 -0.2308 -0.0011 -0.1105
  624MOL0     C84151  -0.693   4.358   9.284  0.7443 -0.1455 -0.2282
  624MOL0     C84152  -0.612   4.412   9.385  0.7748 -0.8384 -0.5388
  624MOL0     O84153  -0.673   4.457   9.791  0.1985 -0.9386 -0.5754
  624MOL0     C84154  -0.324   4.437   9.807  0.6806 -0.4415 -0.1374
  624MOL0     C84155  -0.233   4.459   9.911 -0.1622 -0.0203  0.5689
  624MOL0     N84156   0.081   4.098  10.335 -0.1793  0.1363 -0.4382
  624MOL0     N84157   0.205   4.087  10.331 -0.1336 -1.5185  0.1883
  624MOL0     C84158   1.408   4.134  10.447 -0.0886 -0.1199 -1.2240
  624MOL0     C84159   1.525   4.076  10.462 -0.4347 -0.1994 -0.9003
  624MOL0     C84160   1.800   3.766  10.656 -1.2104  0.4863 -0.1083
  624MOL0     C84161   1.839   3.673  10.761  0.2041  0.9124 -0.0225
  624MOL0     C84162   1.975   3.639  10.787  0.9988 -0.0602 -0.8568
  624MOL0     C84163   2.079   3.725  10.736 -0.4425 -0.8182  0.6159
  624MOL0     O84164   2.206   3.720  10.781  0.7031  0.0493  0.6831
  624MOL0     C84165   2.254   3.597  10.838 -0.6515  0.6451  0.2749
  624MOL0     C84166   2.409   3.600  10.828  0.4664 -0.4743  0.2027
  624MOL0     C84167   2.479   3.470  10.867  0.6055  0.3002  0.2328
  624MOL0     C84168   2.621   3.439  10.844 -0.0654 -0.7311 -0.1929
  624MOL0     C84169   2.680   3.324  10.915  0.0782  0.9653  0.1689
  624MOL0     C84170   2.732   3.221  10.959  0.4188  0.2893 -0.6854
  624MOL0     C84171   2.044   3.818  10.643  1.0348 -0.2882 -0.0916
  624MOL0     C84172   1.909   3.835  10.593  0.9258 -0.5864 -0.1581
  624MOL0     H84173   1.410   3.757  10.506 -0.4896 -1.1530 -0.3950
  624MOL0     H84174   1.212   3.855  10.461 -1.7211  1.5616 -0.2163
  624MOL0     H84175   1.150   4.287  10.310  4.0717  1.2710  2.7391
  624MOL0     H84176   1.272   4.177  10.233  0.4449 -2.2169  0.9464
  624MOL0     H84177   1.086   4.188  10.102 -1.2123  1.0002  1.3775
  624MOL0     H84178   1.088   4.026  10.170  2.0970 -0.1636  2.7076
  624MOL0     H84179   0.920   4.129  10.343  0.1692  2.3584  0.1280
  624MOL0     H84180   0.889   4.245  10.207  2.2907  1.1143 -1.3453
  624MOL0     H84181   0.829   4.060  10.059  1.9675 -1.9431 -0.1937
  624MOL0     H84182   0.871   3.953  10.192  1.1588  1.1746  0.9990
  624MOL0     H84183   0.688   4.059  10.321  0.3626 -3.0788 -0.5261
  624MOL0     H84184   0.666   4.173  10.183  2.8017  0.5489 -1.4720
  624MOL0     H84185   0.613   3.998  10.028  1.7040 -2.3887  0.6889
  624MOL0     H84186   0.642   3.870  10.146  2.3560  0.3919 -1.0833
  624MOL0     H84187   0.419   3.861  10.146 -1.5700  0.6697  1.5296
  624MOL0     H84188   0.459   3.958  10.290 -5.1251  2.9936  0.0948
  624MOL0     H84189   0.353   4.106  10.036  1.9221  2.1262 -0.4171
  624MOL0     H84190   0.402   4.174  10.189 -1.0705 -0.3835  1.5280
  624MOL0     H84191   0.107   4.003  10.023 -0.5582 -0.4191  0.1509
  624MOL0     H84192  -0.148   4.003  10.121 -1.1158  1.9808 -2.3502
  624MOL0     H84193  -0.177   4.076  10.278  1.2435  1.9653  1.5497
  624MOL0     H84194  -0.232   4.246  10.128  0.7370  2.9640 -1.9729
  624MOL0     H84195  -0.088   4.227  10.020 -1.0673 -0.3219 -0.1552
  624MOL0     H84196   0.062   4.314  10.204 -0.2876 -1.2064 -0.3073
  624MOL0     H84197  -0.088   4.338  10.304  4.4587  2.5502  2.4420
  624MOL0     H84198  -0.014   4.491  10.042 -2.7042  3.6594 -1.0567
  624MOL0     H84199   0.008   4.550  10.195 -1.3331  1.0191 -0.6613
  624MOL0     H84200  -0.399   4.649  10.139 -0.3930 -0.7367  0.9212
  624MOL0     H84201  -0.626   4.708   9.874  2.8126  1.2498 -0.2428
  624MOL0     H84202  -0.662   4.606  10.024  1.7977 -1.1077  2.5971
  624MOL0     H84203  -0.564   4.741  10.040 -1.1776  0.0567  0.7352
  624MOL0     H84204  -0.753   4.262   9.661  0.0098  1.5763  0.0113
  624MOL0     H84205  -0.870   4.152   9.487  1.0137 -1.2489 -1.1683
  624MOL0     H84206  -1.002   4.085   9.295 -0.5101  0.4616  0.9600
  624MOL0     H84207  -1.058   4.250   9.300  0.0099 -1.3204  2.5916
  624MOL0     H84208  -1.033   4.250   9.046  0.2629  0.0304  0.2716
  624MOL0     H84209  -0.992   4.089   9.031  3.1968  0.0912  1.0627
  624MOL0     H84210  -1.264   4.196   9.154  0.9519 -1.6703  3.8266
  624MOL0     H84211  -1.222   4.025   9.129  1.2994  0.2253  1.2292
  624MOL0     H84212  -1.264   4.265   8.945 -0.1944  0.2230 -1.2652
  624MOL0     H84213  -1.169   4.147   8.869 -0.6847  1.0241 -0.3179
  624MOL0     H84214  -1.452   4.124   8.953 -1.9994 -3.3205  0.2561
  624MOL0     H84215  -1.361   3.983   8.895 -1.0001 -0.5557  3.0715
  624MOL0     H84216  -1.418   4.259   8.769 -0.9219 -1.4601 -0.1928
  624MOL0     H84217  -1.331   4.131   8.681  0.2580 -1.4908  0.1733
  624MOL0     H84218  -1.624   4.113   8.798 -1.1009 -1.1743 -1.8605
  624MOL0     H84219  -1.557   3.981   8.710 -1.1846 -0.3123  0.8086
  624MOL0     H84220  -1.642   4.241   8.599  0.4386  0.3023 -2.2171
  624MOL0     H84221  -1.708   4.079   8.576  1.5613 -2.2866  0.5443
  624MOL0     H84222  -0.671   4.394   9.184 -0.5669  2.0638  0.2064
  624MOL0     H84223  -0.530   4.469   9.343  0.6117  1.3961  1.9461
  624MOL0     H84224  -0.307   4.378   9.717 -0.5940 -0.4347 -0.3998
  624MOL0     H84225  -0.135   4.414   9.917 -0.5476 -0.9330  0.2464
  624MOL0     H84226   1.404   4.241  10.431 -0.3068  0.1207  0.3273
  624MOL0     H84227   1.612   4.141  10.454 -1.2375  0.8071 -1.8238
  624MOL0     H84228   1.756   3.632  10.817  0.4294  0.2868 -0.1368
  624MOL0     H84229   2.004   3.565  10.861  0.8555  1.6120  0.9646
  624MOL0     H84230   2.213   3.578  10.937 -3.2017  1.2171 -0.6133
  624MOL0     H84231   2.210   3.530  10.763  0.7261  1.6213 -1.4907
  624MOL0     H84232   2.439   3.671  10.906  0.7737 -0.8637  0.4377
  624MOL0     H84233   2.435   3.639  10.729  1.6346 -0.7855  0.3786
  624MOL0     H84234   2.424   3.390  10.817  0.3590  0.0605  0.8841
  624MOL0     H84235   2.459   3.454  10.973  0.1170 -0.2350  0.0685
  624MOL0     H84236   2.673   3.528  10.881 -0.2498 -0.8359  0.3242
  624MOL0     H84237   2.657   3.435  10.741 -0.1065  0.1766 -0.2516
  624MOL0     H84238   2.784   3.137  11.000  2.0464 -0.1878 -3.4698
  624MOL0     H84239   2.121   3.878  10.596  0.5833  0.8665  0.5951
  624MOL0     H84240   1.896   3.906  10.512  0.4363  0.4635  0.8062
  625MOL0     O84241   9.588   0.222   8.103 -0.0839 -0.1172  0.4064
  625MOL0     C84242   9.639   0.124   8.052 -0.2306 -0.5641  0.7725
  625MOL0     O84243   9.581   0.049   7.958 -0.2469  0.2595 -0.1275
  625MOL0     C84244   9.456   0.044   7.927 -0.0927  1.0625  0.2279
  625MOL0     C84245   9.413   0.003   7.796 -0.2745  1.1069 -1.4422
  625MOL0     C84246   9.274  -0.016   7.765 -0.3027 -0.5766 -0.0251
  625MOL0     C84247   9.171   0.020   7.850 -0.0454  0.5048 -0.4989
  625MOL0     O84248   9.031   0.020   7.817  0.4117  0.3267 -0.3237
  625MOL0     C84249   8.971  -0.102   7.804 -0.0710 -0.9949 -0.0967
  625MOL0     C84250   8.833  -0.075   7.747  0.7634  0.3189  0.3652
  625MOL0     C84251   8.781  -0.186   7.648 -0.4537  0.4128 -0.6342
  625MOL0     C84252   8.665  -0.137   7.564  0.1814  0.5834 -0.2879
  625MOL0     C84253   8.550  -0.126   7.643  0.3528  0.1855 -0.8806
  625MOL0     C84254   8.438  -0.084   7.547 -0.0261 -0.1140 -0.2539
  625MOL0     C84255   8.301  -0.062   7.603 -0.0922  0.9153 -0.6175
  625MOL0     C84256   8.237  -0.192   7.659  0.5376 -0.4088 -0.4380
  625MOL0     N84257   8.136  -0.256   7.565  0.8295  0.2970  0.8468
  625MOL0     C84258   8.140  -0.248   7.424 -0.4157 -0.6841  0.8246
  625MOL0     C84259   8.050  -0.339   7.387 -0.7728  0.1600  0.0103
  625MOL0     C84260   8.001  -0.380   7.247 -0.4418  0.5784 -0.0164
  625MOL0     C84261   7.893  -0.284   7.198 -0.9754 -0.3633  0.9661
  625MOL0     C84262   7.859  -0.300   7.048 -0.9483  0.8508 -1.0804
  625MOL0     C84263   7.967  -0.231   6.954 -0.4366  0.1889 -1.0087
  625MOL0     O84264   7.923  -0.257   6.819 -0.9015 -0.8511 -0.6665
  625MOL0     C84265   8.016  -0.310   6.736 -0.0928  0.1424 -0.4587
  625MOL0     C84266   8.131  -0.242   6.734 -0.8127 -0.3995  1.1865
  625MOL0     C84267   8.248  -0.292   6.679  0.6501  0.6074 -0.3998
  625MOL0     C84268   8.383  -0.224   6.706 -0.0102  0.6263 -0.5302
  625MOL0     C84269   8.239  -0.426   6.619 -0.4148  0.4889  0.8956
  625MOL0     C84270   8.357  -0.501   6.563 -0.1662 -0.0260  0.5738
  625MOL0     O84271   8.315  -0.594   6.466  0.0721 -0.9714 -0.1710
  625MOL0     C84272   8.405  -0.658   6.398  0.4180 -0.0344 -0.3985
  625MOL0     C84273   8.450  -0.781   6.451  0.4838  0.0804  0.6825
  625MOL0     C84274   8.542  -0.862   6.383  0.3882 -0.2209 -0.2798
  625MOL0     C84275   8.587  -0.823   6.259  0.1248 -0.1663 -0.0501
  625MOL0     O84276   8.684  -0.905   6.209 -0.0555 -0.1721  0.5820
  625MOL0     C84277   8.759  -0.857   6.096  0.3174  0.9753 -0.3205
  625MOL0     C84278   8.842  -0.974   6.040  0.0205 -1.2668  0.5147
  625MOL0     C84279   8.764  -1.089   5.969 -0.3043  0.6976 -0.5031
  625MOL0     C84280   8.724  -1.042   5.830  0.4283  0.7537 -0.1198
  625MOL0     C84281   8.669  -1.155   5.744  1.2343 -0.7538  0.2760
  625MOL0     C84282   8.536  -1.221   5.776 -0.2476 -0.6044 -0.4764
  625MOL0     C84283   8.464  -1.286   5.653 -0.2791 -0.5537  0.4540
  625MOL0     C84284   8.550  -1.397   5.592  0.3265 -0.2557 -0.1556
  625MOL0    Cl84285   8.570  -1.526   5.707 -0.2222  0.0842 -0.1076
  625MOL0     C84286   8.541  -0.701   6.203  0.0557 -0.1656 -0.6810
  625MOL0     C84287   8.450  -0.623   6.268  0.7144  0.1469 -0.4044
  625MOL0     O84288   8.477  -0.467   6.584  0.2610 -0.3768  0.2907
  625MOL0     C84289   8.111  -0.485   6.610 -0.4419  0.0991  0.8321
  625MOL0     C84290   8.001  -0.431   6.675  0.3737 -0.0572 -0.5833
  625MOL0     N84291   7.985  -0.396   7.493 -0.5291 -0.3904 -0.0215
  625MOL0     N84292   8.040  -0.348   7.599  0.8538 -1.0254 -0.1956
  625MOL0     C84293   9.215   0.064   7.973  0.4971  0.2475 -0.0319
  625MOL0     C84294   9.351   0.072   8.018  0.4371  0.9831  0.5212
  625MOL0     C84295   9.774   0.083   8.090 -0.7236 -0.0617  0.3567
  625MOL0     C84296   9.849   0.173   8.169 -0.3274  0.1460  0.7149
  625MOL0     C84297   9.983   0.143   8.209  0.5185  0.2836  0.0123
  625MOL0     C84298  10.043   0.021   8.179 -0.5165  0.8245  0.1617
  625MOL0     O84299  10.171  -0.019   8.207 -0.1113 -0.0385 -0.8665
  625MOL0     C84300  10.266   0.093   8.211 -0.0726  0.6766  0.0110
  625MOL0     C84301  10.408   0.031   8.198 -0.6675  0.7219 -0.1755
  625MOL0     C84302  10.513   0.126   8.252 -0.2872  0.3146  0.6561
  625MOL0     C84303  10.653   0.073   8.231  0.1608  0.1202 -0.3155
  625MOL0     C84304  10.691   0.030   8.101 -0.7925  0.6998  0.1923
  625MOL0     C84305  10.719   0.004   7.985 -1.2026 -0.1413  0.0539
  625MOL0     C84306   9.968  -0.069   8.103  0.6542 -1.0037 -0.7448
  625MOL0     C84307   9.836  -0.044   8.063  0.0799 -0.7068 -1.0312
  625MOL0     H84308   9.495  -0.014   7.726 -0.7117 -1.1360 -1.4744
  625MOL0     H84309   9.248  -0.071   7.675 -3.2044 -2.5953  1.8517
  625MOL0     H84310   9.033  -0.165   7.739 -0.6056  1.3810 -3.1408
  625MOL0     H84311   8.963  -0.148   7.903  0.0919  1.6526  1.2424
  625MOL0     H84312   8.761  -0.076   7.830  0.4423 -1.7516  0.1297
  625MOL0     H84313   8.820   0.025   7.706  0.5322 -0.1664 -0.7919
  625MOL0     H84314   8.863  -0.206   7.578  0.2622  2.5724 -0.4715
  625MOL0     H84315   8.754  -0.285   7.687 -1.0379  0.1082 -1.7576
  625MOL0     H84316   8.690  -0.040   7.520 -0.8717  1.7949  1.6261
  625MOL0     H84317   8.651  -0.219   7.494  0.9964  0.8615 -0.7965
  625MOL0     H84318   8.535  -0.222   7.693  2.6048  0.3479  0.2396
  625MOL0     H84319   8.572  -0.056   7.724  2.3015 -1.5573  0.2048
  625MOL0     H84320   8.459   0.010   7.495  1.2267  0.7885  1.7913
  625MOL0     H84321   8.430  -0.165   7.473  2.4953 -1.5544  0.9271
  625MOL0     H84322   8.318   0.004   7.689 -2.5631  0.6688  0.1413
  625MOL0     H84323   8.242  -0.000   7.535 -2.8132 -0.7236  0.1043
  625MOL0     H84324   8.184  -0.147   7.744  1.5477  2.2317 -1.1314
  625MOL0     H84325   8.299  -0.262   7.716  1.4753  0.4781 -0.3401
  625MOL0     H84326   8.213  -0.190   7.369  0.0139  2.0594  3.9904
  625MOL0     H84327   8.090  -0.369   7.184  1.3202 -0.5946  2.1528
  625MOL0     H84328   7.957  -0.480   7.250  1.5038 -0.5174 -2.9822
  625MOL0     H84329   7.917  -0.180   7.223 -1.2348  0.5860 -2.3266
  625MOL0     H84330   7.799  -0.308   7.248 -0.6257 -1.8868  0.9463
  625MOL0     H84331   7.757  -0.266   7.026 -1.6532 -0.6891 -0.3445
  625MOL0     H84332   7.856  -0.405   7.019  4.4603  0.6367 -1.8888
  625MOL0     H84333   8.063  -0.277   6.975 -0.4792  0.6452  0.2863
  625MOL0     H84334   7.964  -0.125   6.981 -3.7303 -0.3548  1.5256
  625MOL0     H84335   8.128  -0.150   6.790  0.4640  0.6956 -0.4428
  625MOL0     H84336   8.451  -0.297   6.749 -2.0832 -1.8154 -1.1097
  625MOL0     H84337   8.427  -0.187   6.613  1.0026 -1.1503 -0.8013
  625MOL0     H84338   8.376  -0.146   6.782  2.6996  0.8077 -0.3635
  625MOL0     H84339   8.405  -0.821   6.541 -0.6303  0.0258  0.1204
  625MOL0     H84340   8.579  -0.951   6.433  0.6577 -0.2781 -0.5816
  625MOL0     H84341   8.685  -0.829   6.020  0.5580 -0.7346 -1.2436
  625MOL0     H84342   8.824  -0.778   6.135  2.2810 -0.8136  0.2134
  625MOL0     H84343   8.913  -0.921   5.977 -3.6452  1.4898 -1.7288
  625MOL0     H84344   8.893  -1.017   6.127 -0.1088 -0.8903  0.7801
  625MOL0     H84345   8.677  -1.128   6.023  1.6518 -0.3174  2.1642
  625MOL0     H84346   8.834  -1.171   5.957  2.8572  3.1304 -0.1601
  625MOL0     H84347   8.647  -0.964   5.837  0.0023  0.2979  0.3745
  625MOL0     H84348   8.815  -1.012   5.777  0.3366 -0.5977 -1.1041
  625MOL0     H84349   8.737  -1.240   5.736  2.2043  0.0259 -0.0415
  625MOL0     H84350   8.650  -1.117   5.643  2.2854 -1.7026 -0.2998
  625MOL0     H84351   8.559  -1.297   5.852 -0.3210 -0.5079 -0.3568
  625MOL0     H84352   8.469  -1.149   5.825  1.1497  1.0085 -0.8284
  625MOL0     H84353   8.445  -1.224   5.565 -0.2736 -3.0180 -1.3664
  625MOL0     H84354   8.365  -1.313   5.690 -1.9820  4.0394 -0.1235
  625MOL0     H84355   8.650  -1.370   5.557 -0.0598 -0.0375 -1.0968
  625MOL0     H84356   8.487  -1.429   5.509 -1.8398 -1.5150  1.8281
  625MOL0     H84357   8.576  -0.680   6.102  1.5435 -4.5559 -1.2626
  625MOL0     H84358   8.421  -0.527   6.227 -1.2350  0.3914  1.4239
  625MOL0     H84359   8.101  -0.578   6.554  4.1825 -0.5889  0.7328
  625MOL0     H84360   7.912  -0.493   6.683 -0.4076  0.7549 -2.4533
  625MOL0     H84361   9.142   0.077   8.052 -0.0462 -3.5369  0.2554
  625MOL0     H84362   9.356   0.114   8.118  2.6359  2.7241 -0.2351
  625MOL0     H84363   9.813   0.273   8.186  0.7883  1.3659 -3.1404
  625MOL0     H84364  10.038   0.221   8.260  1.0686 -0.5074  0.6629
  625MOL0     H84365  10.239   0.153   8.124  1.3944  0.8977 -0.3104
  625MOL0     H84366  10.264   0.147   8.307 -2.5161 -0.8231  0.8996
  625MOL0     H84367  10.424   0.002   8.094  3.1428  0.6561  0.3094
  625MOL0     H84368  10.418  -0.063   8.252  1.3541  1.7066  1.2975
  625MOL0     H84369  10.504   0.152   8.358  1.3096  3.7412  0.0828
  625MOL0     H84370  10.490   0.218   8.197 -1.1536  0.8206  1.8095
  625MOL0     H84371  10.682   0.001   8.308  0.2016 -0.1819 -0.6089
  625MOL0     H84372  10.713   0.160   8.261 -2.0574  0.4597  3.8065
  625MOL0     H84373  10.734  -0.028   7.884 -1.6178  2.0612 -0.7522
  625MOL0     H84374  10.002  -0.170   8.081  1.0839 -1.2647  0.9468
  625MOL0     H84375   9.783  -0.121   8.007 -1.5183  1.0240 -2.0051
  626MOL0     O84376   0.788  10.463   7.222 -0.5461  0.0369 -0.0076
  626MOL0     C84377   0.898  10.416   7.257 -0.3482  0.8739  0.1028
  626MOL0     O84378   0.914  10.285   7.290  0.0531  0.4619  0.3390
  626MOL0     C84379   0.810  10.194   7.276  0.6740 -0.5127  0.6741
  626MOL0     C84380   0.717  10.195   7.168  0.2325  0.1151  1.2197
  626MOL0     C84381   0.602  10.114   7.172  1.2581 -0.5568  0.5223
  626MOL0     C84382   0.589  10.019   7.277  0.8079  1.2088  0.2126
  626MOL0     O84383   0.487   9.921   7.271 -0.1242  0.2939 -0.8987
  626MOL0     C84384   0.390   9.919   7.165  0.5528  0.4599 -0.0855
  626MOL0     C84385   0.272   9.829   7.200 -0.2572 -0.4905  0.0102
  626MOL0     C84386   0.237   9.846   7.342  0.1924 -0.6996  0.3833
  626MOL0     C84387   0.119   9.754   7.361  0.0394 -0.5373  0.2562
  626MOL0     C84388   0.062   9.788   7.494  0.8358  0.5844  0.0464
  626MOL0     C84389  -0.062   9.704   7.520 -0.1141  0.1582 -0.0103
  626MOL0     C84390  -0.118   9.693   7.666  0.9722 -0.6304  0.4422
  626MOL0     C84391  -0.019   9.640   7.769 -1.0384  0.4073 -0.0840
  626MOL0     N84392  -0.086   9.625   7.901  0.2562 -0.2318  1.3420
  626MOL0     C84393  -0.212   9.572   7.907 -0.9782  0.7828  0.1151
  626MOL0     C84394  -0.234   9.592   8.041  0.2218  0.5081 -0.1082
  626MOL0     C84395  -0.357   9.553   8.109  0.3461  0.6170 -0.3988
  626MOL0     C84396  -0.484   9.607   8.046  0.8225  0.2110 -0.0633
  626MOL0     C84397  -0.606   9.514   8.079  0.7106 -0.2811 -0.3737
  626MOL0     C84398  -0.729   9.548   7.995  0.3262  0.5926 -0.6389
  626MOL0     O84399  -0.788   9.679   8.009  0.1265 -0.1916 -0.2513
  626MOL0     C84400  -0.826   9.721   8.133 -0.5514 -0.0511 -0.4036
  626MOL0     C84401  -0.863   9.848   8.148  0.6499 -0.1834 -0.1100
  626MOL0     C84402  -0.926   9.901   8.257  0.7112  0.5970  0.5959
  626MOL0     C84403  -0.939  10.050   8.269 -0.1577  0.8503 -0.3507
  626MOL0     C84404  -0.973   9.814   8.357 -0.1181  0.0523  0.7563
  626MOL0     C84405  -1.061   9.872   8.460 -0.2536 -0.0991 -0.1382
  626MOL0     O84406  -1.196   9.848   8.444  0.3604  0.6067  0.2503
  626MOL0     C84407  -1.281   9.915   8.526 -0.2728 -0.9556  0.1460
  626MOL0     C84408  -1.273  10.058   8.543 -0.3800  0.7644  0.8194
  626MOL0     C84409  -1.356  10.114   8.632 -0.6512 -0.2765 -1.1989
  626MOL0     C84410  -1.448  10.044   8.705  0.4133 -0.1729 -0.9094
  626MOL0     O84411  -1.545  10.084   8.794  0.7140  0.3063  0.3571
  626MOL0     C84412  -1.513  10.199   8.872  0.2805 -0.7311 -0.1694
  626MOL0     C84413  -1.626  10.253   8.962  0.0632 -0.2472 -1.0085
  626MOL0     C84414  -1.744  10.296   8.869  0.4778  0.7270 -0.0597
  626MOL0     C84415  -1.865  10.329   8.959 -0.9490  1.0510  0.2678
  626MOL0     C84416  -1.999  10.382   8.895 -1.1607 -0.0436 -0.5926
  626MOL0     C84417  -2.101  10.435   9.004 -0.1583  0.0642  0.4462
  626MOL0     C84418  -2.157  10.331   9.099  0.9089 -0.3676 -0.3388
  626MOL0     C84419  -2.273  10.389   9.181  0.3524  1.1023 -0.0427
  626MOL0    Cl84420  -2.272  10.298   9.336  0.0709  0.0968  0.3140
  626MOL0     C84421  -1.452   9.907   8.692  0.5543 -0.5670  0.2682
  626MOL0     C84422  -1.366   9.842   8.605  0.1184 -0.1107  0.3014
  626MOL0     O84423  -1.003   9.953   8.534  0.0457 -0.0267 -0.0790
  626MOL0     C84424  -0.937   9.679   8.354 -0.0233  0.7080 -0.2999
  626MOL0     C84425  -0.863   9.634   8.242  0.4848  0.1835 -0.4261
  626MOL0     N84426  -0.123   9.648   8.100 -0.0266  0.3801  0.4342
  626MOL0     N84427  -0.040   9.668   8.016  0.0083 -0.1849  1.5990
  626MOL0     C84428   0.678  10.017   7.379 -0.2933 -0.2366 -0.2619
  626MOL0     C84429   0.780  10.107   7.379 -0.5002  0.1820 -0.1910
  626MOL0     C84430   1.016  10.505   7.266 -0.8577  0.9560  0.0475
  626MOL0     C84431   1.152  10.471   7.241  0.7038  0.5509 -1.0337
  626MOL0     C84432   1.251  10.566   7.221 -0.7727  0.9062  0.3399
  626MOL0     C84433   1.235  10.700   7.243 -0.3334 -0.2868 -0.7671
  626MOL0     O84434   1.330  10.792   7.227 -1.0032 -0.5001  0.6347
  626MOL0     C84435   1.459  10.752   7.170  0.6770 -0.3343 -0.3992
  626MOL0     C84436   1.553  10.866   7.160 -0.4418 -0.6901  0.0535
  626MOL0     C84437   1.567  10.944   7.301  0.5845  0.6571  0.4877
  626MOL0     C84438   1.633  11.086   7.285 -0.1997  0.8621 -0.1696
  626MOL0     C84439   1.771  11.051   7.246  0.5771 -0.1171  0.7106
  626MOL0     C84440   1.879  11.021   7.197  0.0076 -0.1981  0.2847
  626MOL0     C84441   1.107  10.739   7.281  1.2255  0.2558 -0.0865
  626MOL0     C84442   0.994  10.648   7.290 -0.2954 -0.2751  0.6638
  626MOL0     H84443   0.729  10.264   7.086  0.9296 -2.7994 -1.3318
  626MOL0     H84444   0.531  10.111   7.090 -0.0911 -1.0318  1.6675
  626MOL0     H84445   0.347  10.019   7.158 -0.8312  0.0181  1.3311
  626MOL0     H84446   0.442   9.879   7.078 -0.0858  1.2046 -0.8226
  626MOL0     H84447   0.187   9.841   7.132  0.7180  0.4555 -1.0622
  626MOL0     H84448   0.304   9.727   7.175 -0.9357  0.1012 -3.8582
  626MOL0     H84449   0.328   9.839   7.403  2.2527 -1.5535 -2.5404
  626MOL0     H84450   0.197   9.947   7.354 -4.4375 -2.3673  0.9762
  626MOL0     H84451   0.044   9.759   7.281  0.8608 -1.9853 -0.6482
  626MOL0     H84452   0.153   9.650   7.369  1.2222 -0.5751 -3.4101
  626MOL0     H84453   0.131   9.754   7.572 -2.7422 -2.9342  2.0271
  626MOL0     H84454   0.028   9.892   7.501  0.3885  0.3656  1.4630
  626MOL0     H84455  -0.139   9.735   7.449  1.7321  2.9343 -0.9627
  626MOL0     H84456  -0.031   9.602   7.497  1.1677 -0.2009  2.8319
  626MOL0     H84457  -0.139   9.797   7.691  1.4395 -0.4677  0.1670
  626MOL0     H84458  -0.213   9.637   7.666 -0.7324  2.0723 -0.2777
  626MOL0     H84459   0.063   9.708   7.793 -0.5159 -0.6912  1.3792
  626MOL0     H84460   0.032   9.548   7.742  2.9215  1.9186  1.5264
  626MOL0     H84461  -0.276   9.536   7.827  1.5436 -0.9365 -1.2649
  626MOL0     H84462  -0.370   9.447   8.131  1.9708  0.4163 -0.2634
  626MOL0     H84463  -0.358   9.605   8.205  3.4494 -0.2212  0.1878
  626MOL0     H84464  -0.477   9.601   7.937  0.8760 -1.9976  0.0115
  626MOL0     H84465  -0.492   9.710   8.081  2.2344  0.5354 -0.6303
  626MOL0     H84466  -0.634   9.513   8.184  0.4489  2.8559 -0.3142
  626MOL0     H84467  -0.572   9.415   8.047  1.8138  0.7217 -2.5489
  626MOL0     H84468  -0.795   9.465   8.021  2.1102 -0.4832  0.6398
  626MOL0     H84469  -0.691   9.546   7.892 -0.3905  2.3402 -0.9837
  626MOL0     H84470  -0.834   9.919   8.071 -0.0016  1.6692  1.2575
  626MOL0     H84471  -1.042  10.070   8.300  0.0300 -2.1410  2.7742
  626MOL0     H84472  -0.874  10.092   8.346  2.0946 -1.9267 -0.5571
  626MOL0     H84473  -0.918  10.091   8.170 -0.5678  0.9544 -0.3972
  626MOL0     H84474  -1.200  10.101   8.476  3.0737 -3.4098  1.4050
  626MOL0     H84475  -1.358  10.222   8.639 -0.7900 -0.1605 -2.5823
  626MOL0     H84476  -1.438  10.161   8.943 -1.9296 -4.0084  0.6235
  626MOL0     H84477  -1.467  10.270   8.803  3.5031 -2.4532 -0.0035
  626MOL0     H84478  -1.653  10.175   9.034  0.5788 -0.6241 -1.2129
  626MOL0     H84479  -1.592  10.341   9.017 -1.5397  1.1462 -2.1493
  626MOL0     H84480  -1.768  10.208   8.809 -0.6207 -0.7693  2.4178
  626MOL0     H84481  -1.721  10.385   8.809 -2.1071  0.1573 -2.0731
  626MOL0     H84482  -1.880  10.239   9.018  2.2386 -1.5961 -2.5294
  626MOL0     H84483  -1.832  10.403   9.033  0.2435  0.3622  0.4577
  626MOL0     H84484  -2.046  10.304   8.835  0.6964  0.3107 -2.6411
  626MOL0     H84485  -1.983  10.462   8.823  0.7140 -2.7161 -3.4210
  626MOL0     H84486  -2.053  10.524   9.048  4.3722 -1.2032 -1.3837
  626MOL0     H84487  -2.190  10.475   8.955 -0.9619  0.4897  2.1761
  626MOL0     H84488  -2.079  10.300   9.168  1.9511  0.8548 -0.9227
  626MOL0     H84489  -2.187  10.248   9.034  0.0322 -0.3761  0.0665
  626MOL0     H84490  -2.366  10.375   9.126  0.4253 -4.0858  0.6365
  626MOL0     H84491  -2.257  10.496   9.192 -1.1977  1.4910 -1.1445
  626MOL0     H84492  -1.526   9.838   8.733 -1.6223  0.7640 -1.1822
  626MOL0     H84493  -1.382   9.735   8.595  0.0840 -0.1172  0.4321
  626MOL0     H84494  -0.977   9.600   8.416  0.2885  1.1027  0.4304
  626MOL0     H84495  -0.836   9.529   8.246 -0.5188 -0.1722 -1.9761
  626MOL0     H84496   0.683   9.937   7.452 -1.5809  1.4059  1.7569
  626MOL0     H84497   0.846  10.105   7.465  0.7465 -1.5637 -1.1268
  626MOL0     H84498   1.178  10.367   7.224  3.4910 -0.3102  5.6005
  626MOL0     H84499   1.342  10.522   7.183 -1.0957 -1.3021  1.9424
  626MOL0     H84500   1.494  10.677   7.242  1.4034  0.1116 -0.2748
  626MOL0     H84501   1.447  10.709   7.070 -0.7866  0.9994 -0.8269
  626MOL0     H84502   1.514  10.942   7.091 -0.9389  1.6674  2.7286
  626MOL0     H84503   1.644  10.825   7.117 -0.3812  1.7280 -2.4633
  626MOL0     H84504   1.636  10.880   7.356 -1.3398 -1.0952  1.0003
  626MOL0     H84505   1.473  10.942   7.357  1.0410 -2.2024  1.3127
  626MOL0     H84506   1.645  11.130   7.384 -0.6329  0.6163 -0.0100
  626MOL0     H84507   1.590  11.156   7.213  1.7206  0.2437 -2.0422
  626MOL0     H84508   1.966  11.003   7.137 -0.3028  3.1395 -1.4071
  626MOL0     H84509   1.088  10.842   7.308 -1.3099 -0.4289  0.9843
  626MOL0     H84510   0.896  10.681   7.320  0.9302  2.2359  2.2880
  627MOL0     O84511  10.506   7.096   2.130  0.0632 -0.2568  0.6782
  627MOL0     C84512  10.423   7.129   2.213 -0.1704 -1.2041 -0.5149
  627MOL0     O84513  10.445   7.153   2.344  0.3784  0.5575 -0.3288
  627MOL0     C84514  10.568   7.180   2.396 -0.5096 -0.7988 -0.7718
  627MOL0     C84515  10.689   7.118   2.359  0.2491 -0.0548  0.4974
  627MOL0     C84516  10.808   7.155   2.418  0.2097  0.1752  1.2331
  627MOL0     C84517  10.820   7.245   2.524 -0.4422  0.3466 -0.0114
  627MOL0     O84518  10.942   7.283   2.584 -0.0222 -0.3261 -0.2068
  627MOL0     C84519  11.063   7.237   2.523  0.5037  0.2632  0.1303
  627MOL0     C84520  11.176   7.270   2.615 -0.4117  0.0153 -0.5435
  627MOL0     C84521  11.309   7.227   2.550 -0.7982  0.0759  0.5502
  627MOL0     C84522  11.416   7.243   2.659 -0.2026  0.2606  0.2691
  627MOL0     C84523  11.561   7.258   2.589  0.9980  0.7667  0.9626
  627MOL0     C84524  11.676   7.247   2.688 -1.1033 -0.3501  0.6270
  627MOL0     C84525  11.724   7.104   2.714  0.4849  0.8579  0.4089
  627MOL0     C84526  11.882   7.103   2.719 -0.2041  0.4053 -0.6164
  627MOL0     N84527  11.948   6.973   2.747  0.1421 -0.6543  1.2237
  627MOL0     C84528  11.935   6.858   2.675  0.3664  0.3868  0.0887
  627MOL0     C84529  12.016   6.768   2.739 -0.3155  0.5792 -0.8250
  627MOL0     C84530  12.006   6.623   2.717  1.6666 -0.4759  0.1461
  627MOL0     C84531  12.135   6.540   2.723 -0.0316  0.0030  0.3294
  627MOL0     C84532  12.205   6.538   2.856  0.8757 -0.8589 -0.3644
  627MOL0     C84533  12.310   6.438   2.861 -0.1362 -0.6101  0.8994
  627MOL0     O84534  12.395   6.432   2.978 -0.5625 -0.3074 -0.5231
  627MOL0     C84535  12.465   6.310   2.991 -0.0664 -1.2278 -0.6405
  627MOL0     C84536  12.492   6.272   3.123  0.2191 -0.0955  1.0266
  627MOL0     C84537  12.551   6.154   3.158  0.1280  0.2413 -0.4134
  627MOL0     C84538  12.563   6.111   3.303  0.1622  0.1969  0.6453
  627MOL0     C84539  12.598   6.066   3.054 -0.7750  0.8001  0.4079
  627MOL0     C84540  12.658   5.934   3.075  0.8261  0.9117 -0.2620
  627MOL0     O84541  12.719   5.879   2.964 -0.0091 -0.8048 -0.1382
  627MOL0     C84542  12.799   5.770   2.982 -0.4859 -0.6237  0.0152
  627MOL0     C84543  12.941   5.789   2.971 -0.2880 -0.2910 -0.7316
  627MOL0     C84544  13.024   5.684   3.005 -0.6271 -0.1517 -0.3442
  627MOL0     C84545  12.973   5.561   3.045 -0.0970 -1.3489 -0.3461
  627MOL0     O84546  13.065   5.467   3.068 -0.7079  0.0530 -0.5249
  627MOL0     C84547  13.185   5.489   3.137 -0.2790 -0.3229 -0.0532
  627MOL0     C84548  13.281   5.371   3.131  0.2262  0.1334 -0.1083
  627MOL0     C84549  13.216   5.251   3.207 -0.7905  1.0178 -0.8644
  627MOL0     C84550  13.172   5.271   3.358  1.0097 -0.5280 -0.0152
  627MOL0     C84551  13.209   5.163   3.452 -0.5349 -0.9515 -0.1556
  627MOL0     C84552  13.360   5.166   3.492 -0.3300 -0.0277  0.6147
  627MOL0     C84553  13.385   5.077   3.615 -0.5282 -0.0653  0.5308
  627MOL0     C84554  13.525   5.066   3.666  0.1263  0.3888  0.6080
  627MOL0    Cl84555  13.643   5.158   3.565 -0.4081 -0.6239 -0.1235
  627MOL0     C84556  12.840   5.538   3.053 -0.9014  0.7732  0.2285
  627MOL0     C84557  12.756   5.640   3.015  1.2399  0.5305  0.0840
  627MOL0     O84558  12.630   5.872   3.182  0.2586 -0.5451 -0.5181
  627MOL0     C84559  12.578   6.115   2.922 -0.8110  0.3601  0.7360
  627MOL0     C84560  12.512   6.232   2.890 -0.7052 -0.3817  0.4983
  627MOL0     N84561  12.063   6.828   2.851  0.0634  0.4477  0.2712
  627MOL0     N84562  12.026   6.951   2.851 -0.1126  0.0402  0.0239
  627MOL0     C84563  10.700   7.299   2.566  0.3660 -0.9399  0.1426
  627MOL0     C84564  10.572   7.278   2.493 -0.8434 -0.7908  0.4877
  627MOL0     C84565  10.280   7.113   2.174 -0.2524 -0.8995 -0.4254
  627MOL0     C84566  10.233   7.100   2.043  0.3259  1.1338  0.4070
  627MOL0     C84567  10.099   7.084   2.004  0.2538 -0.2983 -0.0349
  627MOL0     C84568   9.999   7.095   2.102  0.4321 -0.1915  0.2007
  627MOL0     O84569   9.862   7.082   2.076 -0.5254  0.2573 -0.5203
  627MOL0     C84570   9.833   7.024   1.945  0.4784 -0.2845 -0.3055
  627MOL0     C84571   9.683   6.996   1.953 -1.4087  0.3128  0.3250
  627MOL0     C84572   9.626   6.925   1.833  0.1938 -0.1036 -0.2533
  627MOL0     C84573   9.480   6.899   1.849  0.2783 -0.3232 -0.0093
  627MOL0     C84574   9.385   6.895   1.732 -0.9409  1.2775  0.1941
  627MOL0     C84575   9.306   6.896   1.643  0.4872  0.7600  0.0847
  627MOL0     C84576  10.042   7.112   2.226  0.6231 -0.1125  0.0529
  627MOL0     C84577  10.180   7.114   2.271  0.6818 -0.1846 -0.5265
  627MOL0     H84578  10.690   7.038   2.286  3.2480 -0.0022  0.3472
  627MOL0     H84579  10.886   7.096   2.370 -1.2336  0.1374 -1.2737
  627MOL0     H84580  11.049   7.129   2.512 -0.8733  0.6468 -3.0228
  627MOL0     H84581  11.079   7.293   2.430  0.9836  2.0030  1.2005
  627MOL0     H84582  11.167   7.378   2.628 -1.9966 -0.1604  0.0497
  627MOL0     H84583  11.163   7.206   2.703 -1.2395 -0.3831 -0.9430
  627MOL0     H84584  11.295   7.123   2.518 -0.9474 -0.1652  1.3788
  627MOL0     H84585  11.329   7.281   2.457 -1.0985  2.6973  1.9173
  627MOL0     H84586  11.403   7.329   2.726 -0.6367  0.8097 -0.5065
  627MOL0     H84587  11.418   7.157   2.727 -1.4343  0.1675  0.2017
  627MOL0     H84588  11.569   7.184   2.510  0.1578  0.4386  1.1722
  627MOL0     H84589  11.571   7.354   2.538  3.6000  1.1824  2.0986
  627MOL0     H84590  11.752   7.311   2.642  0.8477 -1.1796  2.5539
  627MOL0     H84591  11.649   7.284   2.788 -3.1077 -3.0781  1.2283
  627MOL0     H84592  11.690   7.058   2.807  2.1933  0.3818  0.8308
  627MOL0     H84593  11.697   7.040   2.630 -0.0416  1.6138 -0.0167
  627MOL0     H84594  11.915   7.172   2.797 -3.0020 -0.5789  1.6144
  627MOL0     H84595  11.933   7.131   2.626  1.9837 -0.9792  0.0728
  627MOL0     H84596  11.859   6.844   2.599  2.0805 -1.3571 -1.4153
  627MOL0     H84597  11.931   6.597   2.792  0.2923 -0.5164 -1.2140
  627MOL0     H84598  11.961   6.602   2.620 -0.2771 -0.6038  1.0368
  627MOL0     H84599  12.205   6.578   2.649  0.6160  0.5722  1.2121
  627MOL0     H84600  12.111   6.439   2.687  2.3312 -0.5155  0.0364
  627MOL0     H84601  12.127   6.523   2.932 -0.1496  0.1712 -1.1659
  627MOL0     H84602  12.247   6.637   2.878 -1.4654 -0.1537  1.4142
  627MOL0     H84603  12.381   6.465   2.782  0.4127 -1.0859  1.2174
  627MOL0     H84604  12.260   6.349   2.822  0.9107  0.4126 -3.2838
  627MOL0     H84605  12.456   6.353   3.187  0.7430  1.5064 -0.6136
  627MOL0     H84606  12.478   6.046   3.323  1.8153 -1.8054  1.5057
  627MOL0     H84607  12.651   6.052   3.329 -2.4069 -3.4389  1.8338
  627MOL0     H84608  12.573   6.197   3.371  1.1004  1.3101 -0.8280
  627MOL0     H84609  12.971   5.885   2.930 -0.6331  0.0284 -0.2584
  627MOL0     H84610  13.132   5.694   2.994  0.0258 -3.6436  1.4048
  627MOL0     H84611  13.238   5.582   3.115 -1.7726  0.9397  1.4557
  627MOL0     H84612  13.163   5.501   3.243  0.6404  0.8608  0.0178
  627MOL0     H84613  13.306   5.335   3.031  0.2235  0.6125 -0.2802
  627MOL0     H84614  13.380   5.392   3.171  1.2719 -3.5480 -0.3132
  627MOL0     H84615  13.285   5.167   3.199 -0.2422  0.9618  2.7367
  627MOL0     H84616  13.129   5.214   3.152  1.5618 -1.7703 -3.0367
  627MOL0     H84617  13.211   5.367   3.392 -1.1385  1.9349 -3.7613
  627MOL0     H84618  13.064   5.289   3.357  1.0822  0.1994 -2.6398
  627MOL0     H84619  13.185   5.068   3.405 -2.1142  0.1252 -1.6642
  627MOL0     H84620  13.145   5.173   3.541  1.5760 -0.3516  1.3763
  627MOL0     H84621  13.427   5.139   3.410 -0.8969 -0.0900  0.1659
  627MOL0     H84622  13.383   5.268   3.524  0.2336 -0.3121  1.1282
  627MOL0     H84623  13.347   4.981   3.579 -1.2808  0.3548  0.1743
  627MOL0     H84624  13.318   5.099   3.699  0.2690  0.1848  1.1073
  627MOL0     H84625  13.545   4.960   3.682  3.5527  0.7303 -0.6335
  627MOL0     H84626  13.522   5.113   3.765  0.3370  3.0072 -0.5500
  627MOL0     H84627  12.805   5.440   3.080 -2.9908  1.5687  0.5956
  627MOL0     H84628  12.651   5.622   3.036  1.4415  0.4819  1.0926
  627MOL0     H84629  12.607   6.045   2.844 -0.1534  0.6077  0.7470
  627MOL0     H84630  12.503   6.254   2.784  0.5535  0.9375  0.6341
  627MOL0     H84631  10.699   7.375   2.643  0.2855  0.1123 -0.8717
  627MOL0     H84632  10.485   7.338   2.516 -0.3169  1.0224 -1.8417
  627MOL0     H84633  10.304   7.079   1.964 -0.5061  2.2718 -0.6771
  627MOL0     H84634  10.072   7.068   1.900 -1.7394 -0.7572  0.5049
  627MOL0     H84635   9.847   7.086   1.856  1.7255 -0.8992 -0.5666
  627MOL0     H84636   9.890   6.930   1.935  1.0206  0.1224 -1.2513
  627MOL0     H84637   9.622   7.081   1.985 -1.5970 -0.4363  2.1187
  627MOL0     H84638   9.675   6.930   2.040  2.5147  3.4018  3.4265
  627MOL0     H84639   9.681   6.831   1.825  0.3467 -0.2067  1.6580
  627MOL0     H84640   9.644   6.981   1.740 -2.3045  3.0245  0.9611
  627MOL0     H84641   9.452   6.982   1.915  1.8509 -2.0485  3.0510
  627MOL0     H84642   9.469   6.807   1.907  2.0400  1.0160  2.6422
  627MOL0     H84643   9.231   6.906   1.568  0.0232 -2.3501 -0.0204
  627MOL0     H84644   9.965   7.140   2.297  0.3714  0.3471 -0.3920
  627MOL0     H84645  10.206   7.139   2.373  2.0350  0.7976 -1.0940
  628MOL0     O84646   4.731   3.624   1.529  1.2608 -0.0001 -0.7894
  628MOL0     C84647   4.644   3.620   1.617 -0.4454  0.5136  0.0692
  628MOL0     O84648   4.668   3.600   1.754  0.4401  0.2272 -0.0555
  628MOL0     C84649   4.794   3.600   1.792 -0.5951  0.2044 -0.0510
  628MOL0     C84650   4.877   3.495   1.757  0.7749  0.2522  0.2521
  628MOL0     C84651   5.003   3.489   1.799 -0.7857 -0.5055 -0.0196
  628MOL0     C84652   5.074   3.588   1.872 -0.6229 -0.7044 -0.9998
  628MOL0     O84653   5.201   3.565   1.914 -0.9748  0.0967 -0.4121
  628MOL0     C84654   5.285   3.670   1.970 -0.9352 -0.1922 -0.3980
  628MOL0     C84655   5.432   3.623   2.006 -0.0589 -1.1699 -0.6045
  628MOL0     C84656   5.424   3.545   2.136  0.7223  0.0145 -0.4576
  628MOL0     C84657   5.330   3.420   2.148 -0.2061 -0.2763 -0.0822
  628MOL0     C84658   5.361   3.295   2.062  0.1016  0.1503 -0.1684
  628MOL0     C84659   5.266   3.179   2.083 -0.0149  0.6583 -0.1852
  628MOL0     C84660   5.144   3.183   1.979 -0.6705 -0.0603  0.2133
  628MOL0     C84661   5.051   3.068   2.003 -0.2263 -0.7099 -0.1381
  628MOL0     N84662   5.119   2.941   2.000  0.0456  0.4798 -0.2872
  628MOL0     C84663   5.207   2.890   1.905  0.4086  0.1941  0.6603
  628MOL0     C84664   5.253   2.774   1.954  0.9945 -0.2732 -0.9261
  628MOL0     C84665   5.342   2.671   1.888 -0.2408  0.3356  0.5939
  628MOL0     C84666   5.430   2.737   1.768  0.8647  0.5286 -1.2894
  628MOL0     C84667   5.543   2.821   1.818 -0.1656  1.1975 -0.6731
  628MOL0     C84668   5.638   2.855   1.703 -0.6659 -0.5606  0.4713
  628MOL0     O84669   5.710   2.734   1.664  0.4220 -0.3675  0.3772
  628MOL0     C84670   5.835   2.731   1.714 -0.7423 -0.1871  0.2356
  628MOL0     C84671   5.875   2.604   1.768  0.5195  0.3671  1.4593
  628MOL0     C84672   6.000   2.574   1.816  0.1667  0.9438 -0.2726
  628MOL0     C84673   6.044   2.437   1.863 -0.1814 -0.4334  0.1716
  628MOL0     C84674   6.094   2.679   1.804  0.5113 -0.2542 -0.7839
  628MOL0     C84675   6.233   2.673   1.858 -0.1497  0.5558  0.4121
  628MOL0     O84676   6.324   2.750   1.785  0.5727 -0.1057  0.4476
  628MOL0     C84677   6.462   2.772   1.826  0.8123 -0.0958 -0.2513
  628MOL0     C84678   6.524   2.886   1.773 -0.2456 -0.3048  0.0695
  628MOL0     C84679   6.658   2.923   1.817 -1.3543  0.7824 -0.6709
  628MOL0     C84680   6.732   2.833   1.905  0.3519  0.3085 -0.2963
  628MOL0     O84681   6.857   2.858   1.960  0.4118  0.0164  0.8040
  628MOL0     C84682   6.932   2.981   1.934  0.0922  1.2965 -0.4063
  628MOL0     C84683   7.018   2.974   1.806  0.9576  0.1780 -0.6187
  628MOL0     C84684   7.113   2.841   1.789 -0.2705 -0.0662  0.6379
  628MOL0     C84685   7.240   2.873   1.698  0.2130  0.3577  0.6902
  628MOL0     C84686   7.348   2.949   1.779 -0.2338  0.1674 -0.2876
  628MOL0     C84687   7.449   2.851   1.851  0.0899  0.4281 -0.6078
  628MOL0     C84688   7.542   2.931   1.942  0.4563 -0.0418 -0.0691
  628MOL0     C84689   7.502   2.942   2.094  0.8721  0.4355 -0.9159
  628MOL0    Cl84690   7.348   3.041   2.089 -0.2504 -0.1786  0.3936
  628MOL0     C84691   6.665   2.714   1.935  0.2221 -0.0429 -0.0746
  628MOL0     C84692   6.537   2.682   1.899 -0.3950  0.5547 -0.0233
  628MOL0     O84693   6.250   2.609   1.962  0.0823  0.8228  0.0134
  628MOL0     C84694   6.059   2.795   1.735  0.3976  0.0560 -0.4271
  628MOL0     C84695   5.930   2.831   1.697 -0.4625 -0.5422  0.4675
  628MOL0     N84696   5.207   2.755   2.084  0.0933 -0.2354  0.1163
  628MOL0     N84697   5.119   2.850   2.101  0.4280  0.2671  0.1287
  628MOL0     C84698   4.991   3.699   1.906  0.2800  0.1021 -1.0055
  628MOL0     C84699   4.853   3.705   1.871 -0.8596 -0.2606 -0.3048
  628MOL0     C84700   4.506   3.644   1.561  1.1167 -0.1491 -0.9476
  628MOL0     C84701   4.491   3.690   1.432 -0.1980 -0.3235  0.7396
  628MOL0     C84702   4.361   3.716   1.387  0.0940 -1.9204  1.1691
  628MOL0     C84703   4.256   3.682   1.461 -0.1491 -0.0211  0.5978
  628MOL0     O84704   4.122   3.710   1.425 -0.5343  0.2282 -0.4235
  628MOL0     C84705   4.059   3.821   1.492 -0.2451  0.0775  0.3367
  628MOL0     C84706   4.033   3.797   1.636 -0.0365 -0.2013  0.3655
  628MOL0     C84707   3.968   3.925   1.696  0.2731  1.0039  0.5768
  628MOL0     C84708   3.899   3.894   1.829  0.9636  0.6937  0.8186
  628MOL0     C84709   3.976   3.803   1.913  0.7596  0.9039  0.1094
  628MOL0     C84710   4.042   3.723   1.968  0.7264  0.1563  0.0639
  628MOL0     C84711   4.272   3.602   1.578  0.1123 -0.8634 -0.4246
  628MOL0     C84712   4.399   3.594   1.629 -0.3223  0.4921  0.3402
  628MOL0     H84713   4.833   3.410   1.707  0.1287 -0.8730  2.5994
  628MOL0     H84714   5.055   3.396   1.776 -1.5861 -1.3362  1.4154
  628MOL0     H84715   5.292   3.750   1.895  0.2319 -1.0202 -1.2193
  628MOL0     H84716   5.235   3.716   2.055 -1.9458  0.2676 -1.2099
  628MOL0     H84717   5.472   3.550   1.935  1.2395 -0.9813 -0.0921
  628MOL0     H84718   5.500   3.708   2.008  0.7375 -1.8061  1.0221
  628MOL0     H84719   5.528   3.521   2.160  0.4893 -0.7602 -0.1814
  628MOL0     H84720   5.399   3.612   2.218  0.6100 -0.6571  0.0666
  628MOL0     H84721   5.339   3.402   2.256  2.1516  1.6509  0.1275
  628MOL0     H84722   5.229   3.459   2.132  1.2460  4.2953  0.5439
  628MOL0     H84723   5.352   3.332   1.960 -1.1145  1.3729  0.3448
  628MOL0     H84724   5.462   3.265   2.091  0.1319 -1.2318 -1.6067
  628MOL0     H84725   5.336   3.098   2.063 -0.8049 -0.2298  0.5702
  628MOL0     H84726   5.226   3.152   2.181 -1.9489 -2.7916 -1.7221
  628MOL0     H84727   5.088   3.278   1.975  1.1872  1.2936  3.1533
  628MOL0     H84728   5.185   3.178   1.878  3.1127 -0.2158  1.6209
  628MOL0     H84729   4.979   3.060   1.921  2.2209  1.6442 -2.7564
  628MOL0     H84730   5.005   3.075   2.102 -1.6974 -1.7178 -0.7170
  628MOL0     H84731   5.231   2.932   1.808 -0.1807  1.4583  1.0361
  628MOL0     H84732   5.397   2.608   1.958 -2.4907 -0.8897  1.3633
  628MOL0     H84733   5.276   2.600   1.837  3.5356 -2.3202 -1.0614
  628MOL0     H84734   5.369   2.810   1.714  0.9056  1.5318 -0.0536
  628MOL0     H84735   5.451   2.647   1.710 -2.8008 -1.9833  0.8222
  628MOL0     H84736   5.603   2.746   1.871 -3.2872 -1.7859 -1.0079
  628MOL0     H84737   5.497   2.899   1.878 -1.6107 -1.3607  1.8309
  628MOL0     H84738   5.709   2.927   1.743  2.3761 -1.3644 -2.9909
  628MOL0     H84739   5.598   2.904   1.614 -0.7743  0.6666  1.1712
  628MOL0     H84740   5.806   2.520   1.769 -1.3269  1.5743 -2.5925
  628MOL0     H84741   5.973   2.361   1.830 -2.4049  2.3030 -1.8376
  628MOL0     H84742   6.147   2.412   1.837 -0.0858 -1.3747  1.3524
  628MOL0     H84743   6.053   2.441   1.972  4.1983 -1.6755  0.0733
  628MOL0     H84744   6.470   2.947   1.702  1.0441  0.7993 -0.0020
  628MOL0     H84745   6.699   3.018   1.786  0.6575 -0.7576 -3.2589
  628MOL0     H84746   6.864   3.066   1.932 -2.1130 -0.3599  0.1179
  628MOL0     H84747   7.006   2.983   2.015 -2.1591  2.2225  1.7806
  628MOL0     H84748   6.955   2.991   1.718 -0.7731 -2.3401  0.0297
  628MOL0     H84749   7.079   3.065   1.806 -0.9667  1.5508  0.9559
  628MOL0     H84750   7.064   2.765   1.728 -0.5811  0.8576 -0.2721
  628MOL0     H84751   7.147   2.793   1.882  3.1207 -0.5859 -0.7085
  628MOL0     H84752   7.280   2.778   1.660 -2.1963 -0.8970  1.0855
  628MOL0     H84753   7.191   2.925   1.615 -2.6675 -3.4723 -0.3265
  628MOL0     H84754   7.303   3.025   1.843  2.7642  2.6439 -0.8541
  628MOL0     H84755   7.408   3.022   1.723  2.1311 -0.1313  1.7049
  628MOL0     H84756   7.399   2.763   1.893  2.6994 -0.1324  1.5823
  628MOL0     H84757   7.509   2.796   1.777 -1.8269 -1.3102 -0.9598
  628MOL0     H84758   7.561   3.028   1.895  0.8812  0.3634  0.8998
  628MOL0     H84759   7.638   2.880   1.936  0.1847 -0.4258 -1.4132
  628MOL0     H84760   7.579   2.991   2.154  0.4918  0.7154 -0.6492
  628MOL0     H84761   7.483   2.846   2.141 -2.5710  0.9341 -1.0068
  628MOL0     H84762   6.716   2.646   2.003  0.5028  1.1013  0.8763
  628MOL0     H84763   6.505   2.593   1.952  2.5627  0.4241  1.7820
  628MOL0     H84764   6.133   2.872   1.719  1.0316 -0.6002 -0.7241
  628MOL0     H84765   5.903   2.928   1.656  0.1688 -1.0029 -1.0961
  628MOL0     H84766   5.036   3.779   1.963  0.3740 -0.6887  0.0554
  628MOL0     H84767   4.794   3.788   1.909 -0.3989 -1.1978  2.7155
  628MOL0     H84768   4.561   3.732   1.360 -1.8046 -0.4103 -0.9465
  628MOL0     H84769   4.355   3.775   1.296 -1.0982 -0.9194  1.8517
  628MOL0     H84770   4.135   3.898   1.505  0.1449 -0.8084  4.6978
  628MOL0     H84771   3.974   3.861   1.435 -0.6758 -0.2808  0.7150
  628MOL0     H84772   4.129   3.782   1.686  1.0325  2.5155 -0.6350
  628MOL0     H84773   3.960   3.717   1.639 -0.2099 -0.0437  0.3750
  628MOL0     H84774   3.908   3.973   1.618  1.1596 -0.0477 -0.8039
  628MOL0     H84775   4.045   3.999   1.716  0.2880  2.6507 -4.2562
  628MOL0     H84776   3.809   3.832   1.817  1.8860 -0.4951 -0.2316
  628MOL0     H84777   3.865   3.987   1.876 -0.3332  0.9070 -0.4502
  628MOL0     H84778   4.112   3.663   2.023  1.7132  0.4748 -0.7892
  628MOL0     H84779   4.184   3.568   1.633 -0.3464 -1.7328 -1.6402
  628MOL0     H84780   4.411   3.539   1.722 -2.5969  1.0204  1.0116
  629MOL0     O84781   6.384   8.206   6.899 -0.0467  0.6066 -0.0233
  629MOL0     C84782   6.405   8.202   6.775  0.1566 -0.5828 -0.1153
  629MOL0     O84783   6.473   8.102   6.713  0.0666  0.1881 -1.0047
  629MOL0     C84784   6.518   8.010   6.798  0.1718  0.6203 -0.1555
  629MOL0     C84785   6.644   8.043   6.859 -0.9097  0.3093 -0.2135
  629MOL0     C84786   6.700   7.948   6.947 -0.4795 -0.2941  0.1588
  629MOL0     C84787   6.640   7.818   6.953  0.6761  0.0288 -1.0201
  629MOL0     O84788   6.675   7.723   7.042  0.9041  0.4241 -0.0697
  629MOL0     C84789   6.787   7.751   7.120 -0.6490  0.1721  0.5121
  629MOL0     C84790   6.839   7.629   7.194 -0.0174  0.8790 -0.2953
  629MOL0     C84791   6.738   7.561   7.281  0.3719 -0.0216  0.2804
  629MOL0     C84792   6.780   7.445   7.369 -0.5404 -0.0642 -0.1964
  629MOL0     C84793   6.669   7.427   7.474  0.1592  0.6319 -0.1391
  629MOL0     C84794   6.705   7.313   7.574 -0.6861  0.6247 -0.5621
  629MOL0     C84795   6.577   7.257   7.626  0.1825  0.0566  0.0417
  629MOL0     C84796   6.586   7.192   7.764 -0.0974  0.4648  0.8491
  629MOL0     N84797   6.454   7.135   7.813 -0.8716 -0.0547 -0.0969
  629MOL0     C84798   6.342   7.099   7.740  0.2198  0.0223  0.5171
  629MOL0     C84799   6.246   7.067   7.831  0.4277 -0.2660  0.8332
  629MOL0     C84800   6.104   7.042   7.797  1.1146 -0.4413  0.4621
  629MOL0     C84801   6.005   7.112   7.888  0.2159  0.6218  0.8536
  629MOL0     C84802   6.028   7.264   7.891  0.5787 -1.0879  0.1666
  629MOL0     C84803   5.976   7.352   7.769  0.0348  0.1756 -0.4054
  629MOL0     O84804   5.846   7.298   7.733  0.4263 -0.0386  0.2550
  629MOL0     C84805   5.803   7.333   7.611 -0.0796  0.1115  0.5645
  629MOL0     C84806   5.774   7.233   7.523 -0.6413  0.3251  0.3314
  629MOL0     C84807   5.722   7.257   7.393 -0.0513 -0.0247 -0.3458
  629MOL0     C84808   5.688   7.144   7.308  0.1195 -0.8017 -0.4117
  629MOL0     C84809   5.724   7.393   7.346  0.9331 -0.7551  0.9286
  629MOL0     C84810   5.677   7.432   7.206 -0.0998 -0.3938 -0.0030
  629MOL0     O84811   5.649   7.570   7.197 -0.8158  0.4468 -0.1612
  629MOL0     C84812   5.591   7.631   7.081  0.1588  0.0477 -1.5172
  629MOL0     C84813   5.528   7.759   7.093 -0.3714  0.5535 -1.1911
  629MOL0     C84814   5.455   7.821   7.003  0.1603  0.4204 -0.4121
  629MOL0     C84815   5.454   7.759   6.869 -0.2788 -0.2849 -1.0434
  629MOL0     O84816   5.408   7.834   6.761 -0.1591  0.8689  0.5147
  629MOL0     C84817   5.467   7.805   6.627  0.0876 -1.1616 -0.0836
  629MOL0     C84818   5.462   7.923   6.529  0.5303 -0.5244  0.7810
  629MOL0     C84819   5.331   7.989   6.509  0.4810 -0.5334 -0.4464
  629MOL0     C84820   5.212   7.906   6.471 -0.0341 -0.8018  0.1502
  629MOL0     C84821   5.232   7.825   6.341  0.5169 -0.7669  0.3479
  629MOL0     C84822   5.247   7.919   6.227 -0.5583  0.0026 -0.5225
  629MOL0     C84823   5.303   7.848   6.098 -0.6326 -0.6945 -0.0418
  629MOL0     C84824   5.233   7.721   6.046  0.4272  0.4143 -0.2466
  629MOL0    Cl84825   5.318   7.668   5.899 -0.0369  0.3042  0.2968
  629MOL0     C84826   5.524   7.636   6.852  0.3568 -0.5099  0.2566
  629MOL0     C84827   5.587   7.572   6.956 -0.8080  0.6643  0.1474
  629MOL0     O84828   5.667   7.348   7.116 -0.0495 -0.1214  0.0391
  629MOL0     C84829   5.755   7.498   7.434 -0.6794  0.0275  0.0051
  629MOL0     C84830   5.800   7.472   7.565 -0.2173  0.8410  0.4141
  629MOL0     N84831   6.298   7.073   7.952  0.1475  1.0315  0.2212
  629MOL0     N84832   6.418   7.117   7.947  0.5339  0.4526  0.5034
  629MOL0     C84833   6.516   7.792   6.887 -0.6868  0.6862 -0.9781
  629MOL0     C84834   6.458   7.885   6.807  0.0518  0.4869 -0.6932
  629MOL0     C84835   6.374   8.324   6.706 -0.0060  0.2019  0.0228
  629MOL0     C84836   6.270   8.413   6.736 -0.0379 -0.8471 -0.0922
  629MOL0     C84837   6.243   8.531   6.661  0.3586  0.3287 -0.4032
  629MOL0     C84838   6.301   8.554   6.535 -0.0165  0.3279  0.5335
  629MOL0     O84839   6.270   8.665   6.457 -0.2522 -0.3696  0.9242
  629MOL0     C84840   6.353   8.700   6.340 -0.0093  1.0843 -0.0906
  629MOL0     C84841   6.289   8.823   6.262  0.0500  0.3854 -0.7815
  629MOL0     C84842   6.392   8.941   6.272  0.6251 -0.0840 -0.4331
  629MOL0     C84843   6.325   9.068   6.226  0.5052  0.3825 -0.0423
  629MOL0     C84844   6.408   9.172   6.282 -0.2614  0.2852 -0.4382
  629MOL0     C84845   6.488   9.254   6.313  0.5449  0.5765 -0.4950
  629MOL0     C84846   6.399   8.457   6.503 -0.7581  0.1368  0.0780
  629MOL0     C84847   6.433   8.348   6.587 -0.4380 -0.2252 -0.3679
  629MOL0     H84848   6.691   8.139   6.843 -1.8152  0.5497 -1.6057
  629MOL0     H84849   6.790   7.986   6.994 -1.4316  3.3052 -0.6212
  629MOL0     H84850   6.868   7.793   7.059 -1.4048 -1.0647 -1.4471
  629MOL0     H84851   6.771   7.830   7.194  3.0940  0.5436  1.1153
  629MOL0     H84852   6.863   7.554   7.119 -3.7955  0.6542 -1.5040
  629MOL0     H84853   6.924   7.655   7.257 -1.6631  0.2015  2.3624
  629MOL0     H84854   6.705   7.639   7.351 -3.6006  2.8636 -4.1446
  629MOL0     H84855   6.652   7.538   7.217  0.7269  1.9037 -0.9727
  629MOL0     H84856   6.802   7.355   7.311 -0.1271 -0.3021  0.3184
  629MOL0     H84857   6.876   7.469   7.417 -1.6568  0.7422  1.7378
  629MOL0     H84858   6.662   7.518   7.534 -2.4003  0.1001  0.4946
  629MOL0     H84859   6.573   7.397   7.430  0.9863 -3.1974  0.3370
  629MOL0     H84860   6.756   7.225   7.536 -4.4367 -2.9593  1.8840
  629MOL0     H84861   6.775   7.340   7.653 -1.1165 -2.6096  1.0930
  629MOL0     H84862   6.512   7.344   7.643 -0.6900 -0.8044  1.2363
  629MOL0     H84863   6.530   7.182   7.563  0.9954  0.5734 -1.2177
  629MOL0     H84864   6.638   7.259   7.833  0.1211  0.6248  0.5281
  629MOL0     H84865   6.662   7.115   7.753 -1.2517 -0.4286 -1.4716
  629MOL0     H84866   6.306   7.104   7.637 -1.5343  1.9750  1.1729
  629MOL0     H84867   6.071   7.084   7.701 -0.3293 -3.8506 -0.6859
  629MOL0     H84868   6.079   6.936   7.793  2.7735 -0.9057  1.6282
  629MOL0     H84869   6.020   7.066   7.986  0.4613 -2.0084 -0.3440
  629MOL0     H84870   5.905   7.073   7.863  0.1612  1.7683 -0.9557
  629MOL0     H84871   6.133   7.287   7.910  0.2499  1.3133 -0.5944
  629MOL0     H84872   5.980   7.296   7.984 -0.5815  0.9366 -1.0551
  629MOL0     H84873   6.045   7.340   7.685  1.6833 -0.8984  1.0231
  629MOL0     H84874   5.978   7.452   7.813 -0.2829 -0.1257  0.3107
  629MOL0     H84875   5.779   7.131   7.558 -1.6714 -0.2266 -1.0015
  629MOL0     H84876   5.757   7.122   7.225  0.3795  0.6261 -0.5939
  629MOL0     H84877   5.691   7.056   7.373 -0.3018 -0.5367 -0.0303
  629MOL0     H84878   5.586   7.169   7.278 -0.2521  1.1929  2.2037
  629MOL0     H84879   5.537   7.803   7.192 -0.8561 -0.1230 -0.8351
  629MOL0     H84880   5.389   7.907   7.015 -1.3326 -0.8195  0.5911
  629MOL0     H84881   5.575   7.788   6.627  0.3564  0.3044  1.0738
  629MOL0     H84882   5.421   7.720   6.576  1.7728 -1.2266 -1.5910
  629MOL0     H84883   5.527   7.997   6.577  0.1616 -0.9851  2.0161
  629MOL0     H84884   5.507   7.914   6.430  0.4626  3.0712  0.2926
  629MOL0     H84885   5.346   8.068   6.436  2.0043 -0.2021  0.1843
  629MOL0     H84886   5.305   8.038   6.604  2.6493  1.9162 -0.9886
  629MOL0     H84887   5.195   7.830   6.549  1.6451 -3.5490 -1.9738
  629MOL0     H84888   5.123   7.969   6.461 -2.7193 -4.2924  0.0400
  629MOL0     H84889   5.142   7.766   6.319  0.0127 -0.4498  1.4823
  629MOL0     H84890   5.317   7.756   6.350  3.8196  3.0381  1.1849
  629MOL0     H84891   5.150   7.966   6.209 -1.1339 -0.6627  0.6680
  629MOL0     H84892   5.326   7.991   6.246  3.1307 -3.9126  0.6235
  629MOL0     H84893   5.409   7.826   6.116 -0.9111 -1.4873  0.7130
  629MOL0     H84894   5.301   7.917   6.014  3.7814 -0.4105 -0.1645
  629MOL0     H84895   5.131   7.745   6.015 -1.3410 -2.8369  2.3763
  629MOL0     H84896   5.224   7.651   6.130 -0.8168 -0.7929 -1.3339
  629MOL0     H84897   5.533   7.591   6.754  0.0274  2.7717 -1.4375
  629MOL0     H84898   5.625   7.474   6.931  0.3078  0.4256  2.4704
  629MOL0     H84899   5.764   7.602   7.406  3.3378 -0.1376  0.1608
  629MOL0     H84900   5.840   7.545   7.635 -2.5512  3.2320 -0.5669
  629MOL0     H84901   6.473   7.696   6.910  2.0651 -0.0029  2.0525
  629MOL0     H84902   6.360   7.876   6.761  0.1965 -1.2989 -0.7346
  629MOL0     H84903   6.211   8.407   6.826 -0.0384  1.4561  0.1418
  629MOL0     H84904   6.170   8.600   6.700 -1.5257 -0.6623 -2.0156
  629MOL0     H84905   6.455   8.726   6.370  0.4880 -3.3338  3.0280
  629MOL0     H84906   6.345   8.613   6.274  0.1953  3.6219 -3.7774
  629MOL0     H84907   6.194   8.852   6.307  1.3234  0.6085  1.9536
  629MOL0     H84908   6.275   8.800   6.156 -1.2153  0.5559 -0.6760
  629MOL0     H84909   6.483   8.917   6.217  0.6156  2.6702 -1.8083
  629MOL0     H84910   6.423   8.960   6.375 -2.4745  0.4655  0.4747
  629MOL0     H84911   6.222   9.084   6.261  0.1146  0.5685 -1.2113
  629MOL0     H84912   6.314   9.064   6.117 -2.5027  1.4909  0.1157
  629MOL0     H84913   6.548   9.329   6.362  1.1274 -0.5594  0.6110
  629MOL0     H84914   6.441   8.457   6.403  0.5672 -1.2965  0.6021
  629MOL0     H84915   6.491   8.270   6.539 -0.2549 -0.2233 -0.1510
  630MOL0     O84916  10.508   8.224   6.356  0.3357  0.2586  0.5125
  630MOL0     C84917  10.445   8.257   6.254  0.5103 -0.8986  0.4085
  630MOL0     O84918  10.301   8.269   6.255  0.6200 -0.5690  1.0001
  630MOL0     C84919  10.228   8.248   6.369  0.3377 -0.4713  0.3246
  630MOL0     C84920  10.108   8.188   6.354  0.1995  0.1594 -0.9019
  630MOL0     C84921  10.022   8.173   6.472 -0.2750 -0.0272  0.6753
  630MOL0     C84922  10.064   8.209   6.602 -0.5946  0.2515  0.7316
  630MOL0     O84923   9.972   8.208   6.708  0.6572  0.3079  0.5846
  630MOL0     C84924  10.000   8.277   6.824 -0.0923 -0.8195  0.0623
  630MOL0     C84925   9.880   8.284   6.924 -0.3681 -0.5905 -0.4414
  630MOL0     C84926   9.748   8.334   6.853  0.2375  0.4506 -0.1084
  630MOL0     C84927   9.645   8.350   6.959 -0.2814  0.0667 -0.5264
  630MOL0     C84928   9.502   8.413   6.919  0.0437  0.7887  0.6811
  630MOL0     C84929   9.504   8.523   6.807  0.2208 -0.2176  0.1928
  630MOL0     C84930   9.373   8.579   6.770  0.8989  0.0348  0.7612
  630MOL0     C84931   9.281   8.486   6.690 -0.1591 -0.1400  0.2646
  630MOL0     N84932   9.332   8.437   6.561  0.2580 -0.4083  0.4706
  630MOL0     C84933   9.362   8.514   6.457  0.1955 -0.1451 -0.2170
  630MOL0     C84934   9.429   8.436   6.371 -0.1064 -0.6148 -0.1112
  630MOL0     C84935   9.486   8.483   6.239 -0.7809 -0.0095 -0.3903
  630MOL0     C84936   9.609   8.570   6.260 -0.0556 -0.0921  0.4448
  630MOL0     C84937   9.723   8.499   6.329  0.2535 -0.0991 -0.0407
  630MOL0     C84938   9.758   8.364   6.265 -0.4799  0.1891 -0.7422
  630MOL0     O84939   9.745   8.374   6.128 -0.1408 -0.2809  0.6466
  630MOL0     C84940   9.859   8.433   6.056 -0.4988  0.4630 -1.1031
  630MOL0     C84941   9.832   8.451   5.923  0.3355  0.4840 -0.5708
  630MOL0     C84942   9.930   8.498   5.838  0.6160  0.1051 -0.7786
  630MOL0     C84943   9.892   8.498   5.694 -0.6033  0.5244  0.0207
  630MOL0     C84944  10.056   8.546   5.895 -0.6004  0.1395  0.1909
  630MOL0     C84945  10.162   8.599   5.814  0.3039 -0.1758 -0.0632
  630MOL0     O84946  10.133   8.623   5.686 -0.3309 -0.2513  0.4080
  630MOL0     C84947  10.225   8.670   5.598 -0.1058 -0.1704 -0.4765
  630MOL0     C84948  10.167   8.699   5.475 -1.1814  0.8521  0.0581
  630MOL0     C84949  10.245   8.748   5.367 -0.0710 -0.3052  0.8724
  630MOL0     C84950  10.388   8.761   5.385  0.5237 -0.0049 -0.3922
  630MOL0     O84951  10.486   8.766   5.292  0.9593  0.1361  0.6115
  630MOL0     C84952  10.464   8.858   5.189 -0.2439  0.4964  0.5311
  630MOL0     C84953  10.476   9.002   5.236 -0.7924  0.3850  0.6734
  630MOL0     C84954  10.623   9.040   5.234 -0.2549 -1.3036 -0.3016
  630MOL0     C84955  10.694   8.997   5.364 -0.3031  1.2819 -0.6598
  630MOL0     C84956  10.820   9.072   5.375  0.7030 -0.3237  0.3245
  630MOL0     C84957  10.921   8.984   5.456  0.0237 -0.4770  1.4412
  630MOL0     C84958  11.046   9.071   5.475 -0.4242 -0.2232  0.6343
  630MOL0     C84959  11.156   9.018   5.563  0.7129 -0.3758  0.1076
  630MOL0    Cl84960  11.302   9.121   5.544  0.1519 -0.1975 -0.3605
  630MOL0     C84961  10.444   8.731   5.508  0.8905  0.4719 -0.7894
  630MOL0     C84962  10.364   8.687   5.611 -0.3650 -0.1557 -0.7157
  630MOL0     O84963  10.262   8.635   5.868  0.1394 -0.8959  0.1803
  630MOL0     C84964  10.077   8.532   6.034 -0.1938  0.2138 -0.8024
  630MOL0     C84965   9.983   8.466   6.114 -0.5673  0.2515 -0.6683
  630MOL0     N84966   9.418   8.308   6.413 -0.4506 -0.2767 -0.7518
  630MOL0     N84967   9.362   8.303   6.536 -0.0771 -0.6801 -0.1227
  630MOL0     C84968  10.187   8.280   6.606  0.0768 -0.3478  0.2719
  630MOL0     C84969  10.266   8.296   6.496 -0.7811  0.2817 -0.3708
  630MOL0     C84970  10.526   8.260   6.124  0.4535  0.5905  0.1314
  630MOL0     C84971  10.478   8.312   6.006 -0.0749  0.4038  0.0300
  630MOL0     C84972  10.549   8.311   5.884  0.5613  0.8105 -0.6812
  630MOL0     C84973  10.670   8.237   5.882  0.6453  0.2647 -0.3521
  630MOL0     O84974  10.728   8.244   5.760 -0.6821 -0.0597  0.7774
  630MOL0     C84975  10.839   8.156   5.744 -0.5209  0.0188  0.7122
  630MOL0     C84976  10.913   8.199   5.617 -0.6872 -0.6939 -0.5922
  630MOL0     C84977  11.031   8.122   5.580 -0.0969 -0.2681  0.2249
  630MOL0     C84978  10.998   7.980   5.549  0.3211 -0.3118  0.1594
  630MOL0     C84979  10.894   7.959   5.442 -0.5376 -0.3802  0.2431
  630MOL0     C84980  10.815   7.944   5.355  0.3720  0.7252 -0.6760
  630MOL0     C84981  10.725   8.177   5.999 -0.4733  0.3598  0.1006
  630MOL0     C84982  10.650   8.183   6.118  0.1097  0.7971 -0.5564
  630MOL0     H84983  10.065   8.147   6.263 -0.6502 -0.0173 -0.4278
  630MOL0     H84984   9.926   8.126   6.456  0.0704 -0.0680 -1.7093
  630MOL0     H84985  10.083   8.231   6.878 -1.0360  0.5076  2.8130
  630MOL0     H84986  10.027   8.376   6.786  1.6176 -0.8513  1.0791
  630MOL0     H84987   9.861   8.186   6.969  0.8373 -0.2843  0.8339
  630MOL0     H84988   9.911   8.348   7.007  1.8511 -2.3111  0.1883
  630MOL0     H84989   9.765   8.421   6.789 -1.8858  0.7432 -0.3477
  630MOL0     H84990   9.712   8.254   6.788 -0.2727  2.2732 -2.2065
  630MOL0     H84991   9.627   8.252   7.005  1.0688  1.1002  2.4916
  630MOL0     H84992   9.682   8.423   7.032 -0.2567  2.1700 -2.5460
  630MOL0     H84993   9.440   8.330   6.884  1.4335 -0.4858  1.1175
  630MOL0     H84994   9.463   8.452   7.014 -1.9732 -0.3107  0.3552
  630MOL0     H84995   9.568   8.607   6.835  0.3843  0.4873 -2.0845
  630MOL0     H84996   9.546   8.473   6.719 -0.1399  1.2435 -0.8545
  630MOL0     H84997   9.322   8.613   6.860 -1.3278  1.4284 -0.9216
  630MOL0     H84998   9.411   8.662   6.710  1.8659  0.4885  1.9704
  630MOL0     H84999   9.189   8.543   6.673 -0.6522 -1.5868 -2.6067
  630MOL0     H85000   9.248   8.400   6.749  0.4670  0.6418  1.8268
  630MOL0     H85001   9.339   8.620   6.453 -3.2354 -0.8009 -0.8327
  630MOL0     H85002   9.502   8.398   6.172 -1.7030  0.5735 -1.3833
  630MOL0     H85003   9.415   8.545   6.183 -1.0840  0.0781  0.0930
  630MOL0     H85004   9.584   8.668   6.301  2.0023  1.0313 -0.8158
  630MOL0     H85005   9.633   8.608   6.160 -0.1620  1.9996  1.1568
  630MOL0     H85006   9.696   8.488   6.434  0.2888 -0.6350 -0.0874
  630MOL0     H85007   9.814   8.561   6.333 -0.7108  1.2951  1.1407
  630MOL0     H85008   9.691   8.285   6.299 -1.6541  2.1593  1.8434
  630MOL0     H85009   9.860   8.342   6.299 -0.4492 -1.6468 -1.8977
  630MOL0     H85010   9.726   8.432   5.905  0.2053 -0.5622  1.1351
  630MOL0     H85011   9.789   8.462   5.694 -1.6783  3.1797  2.4381
  630MOL0     H85012   9.873   8.600   5.659 -1.5915 -0.5204 -2.7507
  630MOL0     H85013   9.968   8.442   5.639  0.6011 -1.6505  3.5911
  630MOL0     H85014  10.065   8.675   5.446 -0.7628  0.2344 -0.9695
  630MOL0     H85015  10.186   8.770   5.278  0.5298  0.8522  0.7431
  630MOL0     H85016  10.534   8.829   5.110 -0.3800 -2.2394  1.3341
  630MOL0     H85017  10.370   8.843   5.135 -0.1176 -1.2698  0.7668
  630MOL0     H85018  10.432   9.071   5.163 -1.9658 -0.3161  0.6807
  630MOL0     H85019  10.442   9.024   5.338  1.8234  0.6358  1.5585
  630MOL0     H85020  10.629   9.149   5.241 -3.3925 -1.1086  0.6850
  630MOL0     H85021  10.664   8.992   5.144  1.8210  0.9730 -0.6674
  630MOL0     H85022  10.623   9.016   5.445 -1.3041 -1.1915 -0.8584
  630MOL0     H85023  10.708   8.889   5.363 -1.5609  1.0913  0.3027
  630MOL0     H85024  10.803   9.167   5.426 -2.6296  0.6285 -2.2005
  630MOL0     H85025  10.859   9.094   5.275  0.8113  0.9013  0.6116
  630MOL0     H85026  10.882   8.964   5.556 -0.7545  1.5501  1.6033
  630MOL0     H85027  10.935   8.884   5.416  4.0915 -0.6643  2.8869
  630MOL0     H85028  11.022   9.172   5.507 -3.8251 -0.7080 -0.0434
  630MOL0     H85029  11.090   9.094   5.377 -1.6047 -1.3438 -0.1970
  630MOL0     H85030  11.166   8.912   5.538 -1.3020 -0.2940 -1.2934
  630MOL0     H85031  11.128   9.032   5.668  1.7590  2.2708  0.1001
  630MOL0     H85032  10.550   8.745   5.527  0.6145  1.2721  0.2617
  630MOL0     H85033  10.427   8.665   5.697  1.5890  0.0228 -2.0433
  630MOL0     H85034  10.168   8.563   6.084  0.3168 -0.6149 -1.1877
  630MOL0     H85035  10.021   8.445   6.213 -2.0219 -1.7241 -0.4697
  630MOL0     H85036  10.225   8.294   6.707 -3.0339 -3.8751  2.1768
  630MOL0     H85037  10.366   8.337   6.502  1.1219 -3.6884 -1.5482
  630MOL0     H85038  10.388   8.372   6.009 -0.7834 -0.4893 -1.8470
  630MOL0     H85039  10.515   8.358   5.792  2.2475 -1.4781 -2.6108
  630MOL0     H85040  10.908   8.153   5.828 -0.5631 -1.4170  0.7221
  630MOL0     H85041  10.800   8.054   5.740 -2.2009  0.4955  3.0551
  630MOL0     H85042  10.944   8.304   5.628  1.9537 -1.5176  0.6080
  630MOL0     H85043  10.841   8.194   5.535 -1.8008  2.4565  0.0436
  630MOL0     H85044  11.103   8.118   5.662 -0.4004  1.4997  0.6148
  630MOL0     H85045  11.072   8.174   5.492 -0.0470  1.5133  1.2573
  630MOL0     H85046  10.959   7.928   5.637  1.9619 -0.1762  0.9851
  630MOL0     H85047  11.095   7.938   5.520 -0.5303 -1.2010 -1.5884
  630MOL0     H85048  10.759   7.930   5.265 -0.2030  0.7655 -0.3286
  630MOL0     H85049  10.812   8.113   6.009  1.3900  2.5391 -1.2042
  630MOL0     H85050  10.702   8.138   6.201  3.5119 -0.4834 -3.1681
  631MOL0     O85051   6.218   7.354   0.134  0.1096  0.0243 -0.1827
  631MOL0     C85052   6.194   7.398   0.028 -0.2387 -0.0350  0.3845
  631MOL0     O85053   6.111   7.506  -0.006  0.2198 -0.1199  0.0607
  631MOL0     C85054   6.038   7.571   0.090  0.1713  0.2884 -0.2032
  631MOL0     C85055   6.000   7.704   0.058  0.3242  0.5714  0.7248
  631MOL0     C85056   5.904   7.773   0.124  0.7315 -0.1991 -0.8970
  631MOL0     C85057   5.850   7.716   0.239 -0.7356 -0.0013  0.2179
  631MOL0     O85058   5.760   7.781   0.323 -0.1713 -1.0491 -0.9122
  631MOL0     C85059   5.789   7.780   0.467 -0.7686  1.0476 -0.0614
  631MOL0     C85060   5.683   7.866   0.540 -0.0532  1.4947  0.9153
  631MOL0     C85061   5.568   7.797   0.605 -0.1688 -0.2737 -0.0763
  631MOL0     C85062   5.503   7.693   0.520 -0.3234  0.0618  0.1591
  631MOL0     C85063   5.363   7.630   0.571 -0.0548  0.8074  0.9529
  631MOL0     C85064   5.304   7.533   0.456 -0.6583 -0.2104  0.4477
  631MOL0     C85065   5.201   7.431   0.514  0.7823 -0.2339  0.1870
  631MOL0     C85066   5.134   7.353   0.401 -1.0975  0.9892  0.2997
  631MOL0     N85067   5.196   7.224   0.361  0.1831 -0.4964 -0.2095
  631MOL0     C85068   5.150   7.149   0.250 -0.9299 -1.7009 -0.2950
  631MOL0     C85069   5.236   7.045   0.253 -0.0298  0.6191  0.3574
  631MOL0     C85070   5.240   6.923   0.166  0.5154  0.1925 -0.2898
  631MOL0     C85071   5.367   6.926   0.094 -1.0453  0.0280 -0.0574
  631MOL0     C85072   5.412   6.791   0.044  1.1000  0.0491  0.4232
  631MOL0     C85073   5.330   6.726  -0.064  0.3706 -0.1507  0.4039
  631MOL0     O85074   5.381   6.594  -0.084  0.2958  0.0397 -0.1072
  631MOL0     C85075   5.319   6.529  -0.190 -0.3054  0.3233  0.4244
  631MOL0     C85076   5.393   6.435  -0.253 -0.4507  0.1887 -0.0231
  631MOL0     C85077   5.366   6.356  -0.370 -0.7639 -0.8392  0.2789
  631MOL0     C85078   5.475   6.251  -0.405  0.2510  0.2774  0.5055
  631MOL0     C85079   5.241   6.385  -0.440 -0.7670 -0.0573 -0.7079
  631MOL0     C85080   5.177   6.311  -0.547 -0.1745 -0.1746  0.3792
  631MOL0     O85081   5.237   6.195  -0.577 -0.3083 -0.4751  0.5769
  631MOL0     C85082   5.182   6.092  -0.652 -0.7016  0.2297 -0.4256
  631MOL0     C85083   5.107   6.124  -0.765  0.9257 -1.1802 -0.5312
  631MOL0     C85084   5.059   6.021  -0.847  0.5468 -0.2514  0.5301
  631MOL0     C85085   5.093   5.885  -0.829 -0.8869  0.0314  0.2228
  631MOL0     O85086   5.066   5.778  -0.909 -0.2466  0.1045  0.1792
  631MOL0     C85087   5.013   5.793  -1.033 -0.4667  0.5795  0.4290
  631MOL0     C85088   4.862   5.788  -1.036 -0.6112 -0.7700  0.6151
  631MOL0     C85089   4.825   5.734  -1.175  0.2024  0.2618  0.4982
  631MOL0     C85090   4.877   5.825  -1.291  0.3259  0.3145  0.1289
  631MOL0     C85091   4.806   5.765  -1.417 -0.1118 -0.4979  0.4055
  631MOL0     C85092   4.846   5.843  -1.546  0.1688 -0.1246 -0.2752
  631MOL0     C85093   4.771   5.811  -1.677 -0.7186 -0.0815 -0.1953
  631MOL0     C85094   4.850   5.868  -1.802 -0.6025  0.2523  0.0354
  631MOL0    Cl85095   5.000   5.780  -1.806 -0.0892 -0.1116 -0.4461
  631MOL0     C85096   5.180   5.856  -0.717  1.3084  0.2769 -0.0322
  631MOL0     C85097   5.214   5.964  -0.631 -0.2565  0.6072 -0.8560
  631MOL0     O85098   5.069   6.359  -0.594 -0.9694 -0.7415 -0.3700
  631MOL0     C85099   5.161   6.489  -0.373 -0.5027  0.2249 -0.1483
  631MOL0     C85100   5.204   6.562  -0.260  0.3200 -0.5994 -0.1933
  631MOL0     N85101   5.322   7.054   0.365  1.1277  0.3187 -0.3661
  631MOL0     N85102   5.302   7.168   0.420  0.1727  0.5869 -0.3095
  631MOL0     C85103   5.896   7.588   0.276  0.2893 -0.9738 -0.3461
  631MOL0     C85104   5.987   7.516   0.202  0.9889  0.4615 -0.2488
  631MOL0     C85105   6.281   7.345  -0.085  0.6958  0.5061  0.5366
  631MOL0     C85106   6.262   7.402  -0.213  0.4673 -0.2286 -0.5324
  631MOL0     C85107   6.362   7.379  -0.316  0.8713 -0.8692  0.8420
  631MOL0     C85108   6.465   7.290  -0.295 -0.2556 -1.1664 -0.5055
  631MOL0     O85109   6.536   7.273  -0.409 -0.4134 -0.5941 -0.0382
  631MOL0     C85110   6.648   7.188  -0.409 -0.4492 -0.4939  0.4100
  631MOL0     C85111   6.743   7.208  -0.532 -0.4590 -0.3139 -0.5255
  631MOL0     C85112   6.690   7.149  -0.663 -0.4715  0.8907 -0.0853
  631MOL0     C85113   6.757   7.190  -0.791  0.0719 -0.3420 -0.5205
  631MOL0     C85114   6.901   7.152  -0.788 -0.0780 -0.7185 -0.1782
  631MOL0     C85115   7.014   7.112  -0.770 -0.4512 -1.1563  0.0137
  631MOL0     C85116   6.482   7.235  -0.168 -0.0802 -0.0459  0.8106
  631MOL0     C85117   6.392   7.264  -0.062 -0.0843  0.0087  0.3506
  631MOL0     H85118   6.032   7.759  -0.030  1.5291  0.7942  1.2821
  631MOL0     H85119   5.880   7.873   0.091  0.5584  0.1047  0.1249
  631MOL0     H85120   5.795   7.676   0.500  4.1500  0.9277 -0.5320
  631MOL0     H85121   5.890   7.819   0.485  0.8281 -2.1070 -1.4046
  631MOL0     H85122   5.728   7.931   0.616  3.0145  2.5970 -1.6639
  631MOL0     H85123   5.647   7.944   0.472 -1.8883  0.7566  0.9844
  631MOL0     H85124   5.584   7.741   0.697 -3.4117  0.6824  1.1974
  631MOL0     H85125   5.501   7.880   0.630  2.8794  2.0144  1.1252
  631MOL0     H85126   5.490   7.734   0.420 -1.9657 -3.4509 -1.2201
  631MOL0     H85127   5.568   7.605   0.513  3.4668  2.5917  0.2551
  631MOL0     H85128   5.392   7.566   0.655  3.2593 -1.6988 -1.8078
  631MOL0     H85129   5.295   7.711   0.598 -0.3943  1.2231 -0.9654
  631MOL0     H85130   5.262   7.597   0.378  1.5340 -1.1668 -1.6371
  631MOL0     H85131   5.390   7.479   0.414 -0.9579 -0.8904  0.7043
  631MOL0     H85132   5.244   7.365   0.591  2.4034  1.6185  0.9685
  631MOL0     H85133   5.122   7.477   0.574  1.1415 -0.2404  0.6770
  631MOL0     H85134   5.131   7.413   0.310 -0.1980 -1.7851 -1.6865
  631MOL0     H85135   5.031   7.327   0.430 -0.6953 -0.2842  0.6780
  631MOL0     H85136   5.076   7.174   0.175 -1.8183 -1.4875  0.6361
  631MOL0     H85137   5.232   6.837   0.233 -1.2451  0.2743 -0.3492
  631MOL0     H85138   5.160   6.928   0.092  0.0393  1.4102  0.2862
  631MOL0     H85139   5.442   6.950   0.170 -0.0392  1.1802 -1.3569
  631MOL0     H85140   5.380   7.004   0.017 -0.2083 -0.9880 -0.9700
  631MOL0     H85141   5.411   6.715   0.122  0.7836 -0.8348 -0.4164
  631MOL0     H85142   5.513   6.805   0.003  1.0666 -4.3801 -1.7495
  631MOL0     H85143   5.330   6.781  -0.159 -2.1215  0.8793  0.9014
  631MOL0     H85144   5.226   6.729  -0.028  0.5181 -3.5570  1.4137
  631MOL0     H85145   5.493   6.428  -0.210 -0.2647 -2.0687 -0.6661
  631MOL0     H85146   5.535   6.236  -0.315  0.5911 -0.7402  0.1362
  631MOL0     H85147   5.446   6.149  -0.433  1.4499  0.1072 -0.2192
  631MOL0     H85148   5.536   6.295  -0.485  2.1239 -0.7739  1.2900
  631MOL0     H85149   5.079   6.228  -0.779 -0.4631 -1.0109  2.7168
  631MOL0     H85150   5.010   6.070  -0.931  0.4123  2.7385  2.2419
  631MOL0     H85151   5.061   5.880  -1.080  1.5739 -0.4478  0.4697
  631MOL0     H85152   5.056   5.708  -1.086 -1.4859  1.0821 -1.2671
  631MOL0     H85153   4.816   5.729  -0.957 -1.2504  0.0303  0.8510
  631MOL0     H85154   4.832   5.893  -1.027 -0.0871 -0.5002 -0.5504
  631MOL0     H85155   4.716   5.732  -1.179  0.0204  4.1665 -1.3594
  631MOL0     H85156   4.870   5.634  -1.185  0.0693  0.0975  1.4525
  631MOL0     H85157   4.858   5.929  -1.264  1.4090  0.5110  0.1923
  631MOL0     H85158   4.985   5.809  -1.286  0.2502  0.1380  2.0259
  631MOL0     H85159   4.701   5.782  -1.396  0.0315  1.2961 -0.1861
  631MOL0     H85160   4.843   5.662  -1.412  0.5814 -0.2631  0.2072
  631MOL0     H85161   4.821   5.947  -1.521  2.7279  0.3511  0.6324
  631MOL0     H85162   4.954   5.836  -1.559  0.3688 -3.3796  2.0021
  631MOL0     H85163   4.673   5.860  -1.675 -1.1413 -0.9266  0.2682
  631MOL0     H85164   4.746   5.705  -1.681  0.6605 -0.3878 -2.1493
  631MOL0     H85165   4.849   5.976  -1.788 -3.4023  0.5996 -2.0358
  631MOL0     H85166   4.820   5.847  -1.905 -0.0869 -0.0571 -0.0549
  631MOL0     H85167   5.208   5.753  -0.698 -2.4004 -0.9491 -0.2385
  631MOL0     H85168   5.277   5.937  -0.546 -0.4546 -0.3984 -1.0154
  631MOL0     H85169   5.069   6.517  -0.423 -2.0862 -2.1383  1.1945
  631MOL0     H85170   5.139   6.639  -0.219  0.4792 -1.7752  2.4288
  631MOL0     H85171   5.864   7.528   0.361  2.6698  1.4472  2.4900
  631MOL0     H85172   6.004   7.413   0.233  2.2268  1.5173  2.9500
  631MOL0     H85173   6.183   7.473  -0.234 -0.9001 -2.1976 -2.4782
  631MOL0     H85174   6.342   7.433  -0.408  1.8748  0.4141  1.3605
  631MOL0     H85175   6.701   7.200  -0.314 -0.0140 -2.9962  0.5510
  631MOL0     H85176   6.606   7.087  -0.417 -0.6603 -0.4428  0.8315
  631MOL0     H85177   6.842   7.166  -0.510 -0.4087 -0.5729 -1.1978
  631MOL0     H85178   6.761   7.314  -0.550  2.7272  0.0931  3.6447
  631MOL0     H85179   6.588   7.189  -0.665 -1.2605 -1.0320  0.0237
  631MOL0     H85180   6.695   7.040  -0.652  2.5327  0.8608 -0.8145
  631MOL0     H85181   6.744   7.297  -0.804 -1.1185 -0.5505 -1.1913
  631MOL0     H85182   6.707   7.147  -0.879 -0.2185 -2.1373  0.4672
  631MOL0     H85183   7.114   7.076  -0.760  0.2098  1.0513  2.2036
  631MOL0     H85184   6.557   7.158  -0.157  0.4157 -0.6533 -4.3865
  631MOL0     H85185   6.405   7.201   0.024 -2.8622 -2.5099 -0.9054
  632MOL0     O85186   6.335   7.812   1.840  0.0454 -0.7266  0.3898
  632MOL0     C85187   6.418   7.740   1.888 -1.1369  0.1024  0.5098
  632MOL0     O85188   6.450   7.734   2.020 -1.6638  0.8823 -0.8759
  632MOL0     C85189   6.373   7.785   2.120 -0.0973  0.3153 -0.0574
  632MOL0     C85190   6.435   7.837   2.239 -0.3488  1.3634  0.7146
  632MOL0     C85191   6.360   7.877   2.344  0.7439 -0.2094 -0.3170
  632MOL0     C85192   6.220   7.883   2.337  0.7563 -0.2279  0.8393
  632MOL0     O85193   6.161   7.939   2.443  1.0322 -0.0901  0.5863
  632MOL0     C85194   6.085   7.852   2.526  0.3433 -0.0617  0.1615
  632MOL0     C85195   5.930   7.829   2.494 -1.2212 -0.2672 -0.1437
  632MOL0     C85196   5.846   7.783   2.606  0.0833 -0.7445 -1.1758
  632MOL0     C85197   5.835   7.894   2.718  0.7115  0.0738  0.5193
  632MOL0     C85198   5.744   7.865   2.839 -0.9954  0.0597 -0.0954
  632MOL0     C85199   5.776   7.959   2.960 -0.3485  0.3220 -0.7060
  632MOL0     C85200   5.714   7.896   3.095 -0.4275 -0.4008  0.9302
  632MOL0     C85201   5.810   7.825   3.188  0.0131 -0.2260 -0.5144
  632MOL0     N85202   5.851   7.699   3.136 -1.0682  0.3370 -0.1803
  632MOL0     C85203   5.772   7.592   3.096 -0.6327 -0.9257 -0.6958
  632MOL0     C85204   5.854   7.522   3.021  0.0671 -0.4218  0.0450
  632MOL0     C85205   5.800   7.387   2.972  0.6163  0.6172  0.2171
  632MOL0     C85206   5.844   7.257   3.042 -0.9046  0.0602 -0.2642
  632MOL0     C85207   5.794   7.134   2.966 -0.3948 -0.6981  0.2576
  632MOL0     C85208   5.649   7.109   3.003 -0.1447  0.1088 -0.3440
  632MOL0     O85209   5.586   7.006   2.924  0.2311  0.6980 -0.8296
  632MOL0     C85210   5.455   6.987   2.960 -0.0318  0.4685  0.4584
  632MOL0     C85211   5.388   6.869   2.903 -0.2058 -0.0637  0.3787
  632MOL0     C85212   5.257   6.833   2.940 -0.0268  0.0251 -0.1467
  632MOL0     C85213   5.212   6.703   2.887  0.0587  1.3335 -0.5621
  632MOL0     C85214   5.185   6.914   3.033 -1.0343 -0.2505 -0.3071
  632MOL0     C85215   5.038   6.894   3.077 -0.7511  0.6533  0.6768
  632MOL0     O85216   4.977   6.987   3.159 -0.5554 -0.7183 -0.1167
  632MOL0     C85217   4.853   6.955   3.206  0.0237 -0.4875  1.0566
  632MOL0     C85218   4.739   6.960   3.117 -0.7527 -0.4233  0.0228
  632MOL0     C85219   4.624   6.919   3.174 -1.1522  0.5068 -0.1483
  632MOL0     C85220   4.612   6.872   3.301  0.1975 -1.2069 -0.3619
  632MOL0     O85221   4.483   6.840   3.339 -1.6270 -0.0131  0.4087
  632MOL0     C85222   4.459   6.789   3.479 -0.1193  0.6250 -0.1937
  632MOL0     C85223   4.321   6.716   3.478  0.4545 -0.4436  0.3435
  632MOL0     C85224   4.200   6.792   3.426 -1.0009 -0.8504 -0.0796
  632MOL0     C85225   4.144   6.906   3.517  0.1413  0.9071 -0.5424
  632MOL0     C85226   4.230   7.024   3.519 -0.0222  0.4240 -0.1681
  632MOL0     C85227   4.144   7.146   3.488 -0.1604 -0.2972 -0.1378
  632MOL0     C85228   4.102   7.155   3.346 -0.2439 -0.5233  0.0226
  632MOL0     C85229   4.208   7.149   3.241  0.2747  0.4494  0.1491
  632MOL0    Cl85230   4.346   7.257   3.283 -0.3830 -0.1121  0.5320
  632MOL0     C85231   4.728   6.862   3.383 -0.0707  0.1278  0.2474
  632MOL0     C85232   4.849   6.909   3.333 -0.2152 -0.6015 -0.4764
  632MOL0     O85233   4.982   6.796   3.027  0.0128  0.3976 -0.5983
  632MOL0     C85234   5.247   7.031   3.083 -0.2211  0.1959  0.2806
  632MOL0     C85235   5.374   7.067   3.044  0.1706  0.2198  0.3508
  632MOL0     N85236   5.982   7.579   3.018  1.1455 -0.7023 -0.0458
  632MOL0     N85237   5.976   7.692   3.087  0.3624 -1.3107 -0.0556
  632MOL0     C85238   6.152   7.827   2.223  0.7800 -0.2698  0.0355
  632MOL0     C85239   6.229   7.783   2.118 -0.2102  0.0489 -0.0909
  632MOL0     C85240   6.486   7.651   1.787  0.1577  0.0635  0.1986
  632MOL0     C85241   6.590   7.565   1.825 -0.1653  0.2193 -0.3946
  632MOL0     C85242   6.666   7.502   1.720  0.9407  0.2117 -0.4524
  632MOL0     C85243   6.647   7.508   1.583  0.3355  0.7901 -0.7556
  632MOL0     O85244   6.737   7.448   1.501  0.4931 -0.6811  0.5236
  632MOL0     C85245   6.711   7.457   1.362  0.1174 -0.5073 -0.2102
  632MOL0     C85246   6.789   7.351   1.283  0.2931  0.1957 -0.0617
  632MOL0     C85247   6.941   7.363   1.302  0.4299 -0.0166 -0.0123
  632MOL0     C85248   7.009   7.228   1.287 -0.3049  0.1250  0.0870
  632MOL0     C85249   7.155   7.250   1.287  0.3003 -0.3068 -1.1128
  632MOL0     C85250   7.275   7.277   1.264 -0.0687  0.1384  0.1307
  632MOL0     C85251   6.531   7.590   1.549  0.9983 -0.2637 -0.3203
  632MOL0     C85252   6.459   7.663   1.648  0.2739 -0.2362  0.6619
  632MOL0     H85253   6.543   7.833   2.241 -0.3696 -2.2032  1.9219
  632MOL0     H85254   6.407   7.899   2.439  2.0754 -0.1578 -0.9533
  632MOL0     H85255   6.135   7.755   2.531 -0.8903 -0.7119  0.2082
  632MOL0     H85256   6.111   7.895   2.623 -0.0632  0.2976  0.1184
  632MOL0     H85257   5.892   7.924   2.455 -2.7598 -0.5057  0.7033
  632MOL0     H85258   5.924   7.763   2.407  1.2198  2.3625 -2.5794
  632MOL0     H85259   5.751   7.736   2.581 -1.2605  1.3542 -0.2948
  632MOL0     H85260   5.904   7.702   2.651  1.2461  0.8839  0.3936
  632MOL0     H85261   5.936   7.922   2.749  0.8955  1.1225 -0.9091
  632MOL0     H85262   5.790   7.985   2.678  1.3516  0.5477  0.8505
  632MOL0     H85263   5.637   7.866   2.818 -0.9559  1.5912 -0.3716
  632MOL0     H85264   5.778   7.764   2.866  0.8683  1.1996  2.1800
  632MOL0     H85265   5.885   7.958   2.969 -0.2449  1.3389 -1.6625
  632MOL0     H85266   5.737   8.061   2.946  1.3275  1.2500  1.0092
  632MOL0     H85267   5.685   7.977   3.162  0.6102 -1.6802  3.0753
  632MOL0     H85268   5.619   7.844   3.083 -0.5522  0.0670 -0.1827
  632MOL0     H85269   5.753   7.803   3.279 -0.2029  0.6582 -0.4220
  632MOL0     H85270   5.894   7.892   3.213  0.8003 -1.8563  1.5382
  632MOL0     H85271   5.667   7.577   3.119 -0.6974  0.1474 -0.2031
  632MOL0     H85272   5.692   7.393   2.959  0.7027  0.9827 -0.3396
  632MOL0     H85273   5.820   7.377   2.865 -1.3096 -0.8640 -0.0618
  632MOL0     H85274   5.814   7.267   3.147 -0.8967  1.8886 -0.4046
  632MOL0     H85275   5.954   7.262   3.044 -0.7946 -0.7479 -2.4265
  632MOL0     H85276   5.864   7.053   2.985  1.7720  0.6981 -1.2874
  632MOL0     H85277   5.797   7.151   2.857  3.2171  0.7044  0.4567
  632MOL0     H85278   5.606   7.209   3.005 -0.1778  0.1465 -1.9420
  632MOL0     H85279   5.653   7.059   3.100  3.4700 -0.1699 -0.4786
  632MOL0     H85280   5.447   6.813   2.831  0.0578  2.1545 -1.2311
  632MOL0     H85281   5.186   6.635   2.968  2.8660  1.4844  0.5706
  632MOL0     H85282   5.134   6.709   2.810 -1.7794  2.2249  1.2878
  632MOL0     H85283   5.296   6.650   2.841 -0.2972 -0.0192  0.2957
  632MOL0     H85284   4.748   6.987   3.012 -0.4499 -3.5677 -0.8817
  632MOL0     H85285   4.533   6.933   3.115 -3.2196  0.1836  2.7687
  632MOL0     H85286   4.525   6.702   3.487 -0.0002  0.6073 -1.1791
  632MOL0     H85287   4.471   6.869   3.552  0.7651  1.2062 -0.9619
  632MOL0     H85288   4.335   6.623   3.422 -1.6701 -1.5991  1.6227
  632MOL0     H85289   4.292   6.688   3.580  2.0925 -0.0011  0.9694
  632MOL0     H85290   4.118   6.723   3.404 -2.0595  0.3012  0.1435
  632MOL0     H85291   4.223   6.832   3.326 -0.5889 -2.3030 -0.5859
  632MOL0     H85292   4.043   6.930   3.482  1.1614  0.0302 -4.6819
  632MOL0     H85293   4.140   6.875   3.621 -1.6142  0.8351 -0.6092
  632MOL0     H85294   4.313   7.007   3.450 -0.3889  0.5544 -0.6542
  632MOL0     H85295   4.275   7.039   3.618 -1.8985  2.7773  0.4429
  632MOL0     H85296   4.048   7.151   3.542  0.1718 -3.6214  0.9739
  632MOL0     H85297   4.205   7.235   3.506  1.1956 -0.0038 -4.9752
  632MOL0     H85298   4.042   7.244   3.324  0.4527  0.2948  1.2652
  632MOL0     H85299   4.037   7.070   3.325  1.8335 -2.1028 -0.3022
  632MOL0     H85300   4.157   7.178   3.149  0.8470 -1.3191 -0.7647
  632MOL0     H85301   4.241   7.046   3.223 -2.2507  0.0812 -3.2824
  632MOL0     H85302   4.721   6.821   3.483  2.7554  2.4744  1.5451
  632MOL0     H85303   4.940   6.900   3.391  0.8452  0.0259 -1.9932
  632MOL0     H85304   5.199   7.101   3.151 -0.5175  0.2571  0.0090
  632MOL0     H85305   5.409   7.160   3.089  0.7061  0.5358 -0.6937
  632MOL0     H85306   6.044   7.818   2.219  0.9106 -1.5744 -1.4488
  632MOL0     H85307   6.183   7.736   2.032  3.0305 -0.8011 -1.5419
  632MOL0     H85308   6.622   7.551   1.928 -2.1058  1.1307  0.3831
  632MOL0     H85309   6.749   7.438   1.749 -1.6159 -3.1473  0.1447
  632MOL0     H85310   6.607   7.447   1.331  0.5551  0.0878 -1.9829
  632MOL0     H85311   6.739   7.557   1.327  3.7709 -1.2422  0.1600
  632MOL0     H85312   6.776   7.364   1.175  0.8776  0.8955 -0.0540
  632MOL0     H85313   6.761   7.248   1.309  0.2884 -0.4960 -2.5728
  632MOL0     H85314   6.958   7.388   1.407 -2.1731  0.5046  0.3641
  632MOL0     H85315   6.982   7.439   1.235 -1.3033 -1.3192 -2.7875
  632MOL0     H85316   6.978   7.182   1.193 -1.8195  2.9673 -0.9215
  632MOL0     H85317   6.971   7.167   1.369 -0.2977  0.4511  0.3347
  632MOL0     H85318   7.379   7.294   1.245  0.8682 -3.4838  1.2959
  632MOL0     H85319   6.519   7.617   1.444 -0.8243 -0.3100 -0.1535
  632MOL0     H85320   6.387   7.739   1.617 -0.2356 -0.7471  0.5654
  633MOL0     O85321  10.219   4.118   2.310  0.0077  0.9414  0.4337
  633MOL0     C85322  10.268   4.159   2.201 -0.4756 -0.0102  0.3619
  633MOL0     O85323  10.214   4.234   2.103  0.3258 -0.9867  0.1518
  633MOL0     C85324  10.084   4.275   2.105  0.1940 -0.5077  0.1031
  633MOL0     C85325  10.052   4.381   2.021 -0.3197  0.8030 -0.2667
  633MOL0     C85326   9.924   4.434   2.001  0.0613  0.7823  0.5453
  633MOL0     C85327   9.817   4.376   2.062 -0.2417  0.7614  0.4937
  633MOL0     O85328   9.705   4.422   2.028  0.1042  0.3858  0.3921
  633MOL0     C85329   9.608   4.454   2.127 -0.8349 -0.7371 -0.3514
  633MOL0     C85330   9.467   4.448   2.059 -1.1763 -1.0785 -0.7286
  633MOL0     C85331   9.355   4.519   2.140  0.0403  1.0987 -0.8899
  633MOL0     C85332   9.305   4.411   2.247  0.3800  0.3335 -1.1868
  633MOL0     C85333   9.200   4.468   2.344  1.0278  0.3251  0.3405
  633MOL0     C85334   9.241   4.569   2.451  0.4894 -0.1896  0.6167
  633MOL0     C85335   9.123   4.605   2.541  0.6434  0.0623 -0.3978
  633MOL0     C85336   9.168   4.677   2.674 -0.3643  0.1724 -0.0024
  633MOL0     N85337   9.058   4.720   2.759  0.3577  0.7715 -0.6837
  633MOL0     C85338   9.020   4.647   2.867  0.3971  0.1510 -0.1736
  633MOL0     C85339   8.934   4.732   2.931  0.4744  0.5627 -0.0897
  633MOL0     C85340   8.855   4.698   3.053 -0.3346 -0.0892 -0.2981
  633MOL0     C85341   8.935   4.726   3.172 -0.5032 -0.2339  0.5392
  633MOL0     C85342   8.902   4.854   3.235 -0.0801 -0.1067 -1.6558
  633MOL0     C85343   8.761   4.871   3.280 -0.8803 -0.7194  0.0924
  633MOL0     O85344   8.727   4.761   3.362 -0.1460  0.6671  1.2856
  633MOL0     C85345   8.603   4.722   3.380  0.1754  0.1194  0.3362
  633MOL0     C85346   8.583   4.626   3.479 -0.0580 -0.7103 -0.2520
  633MOL0     C85347   8.459   4.568   3.491  0.4231  0.2661  0.3385
  633MOL0     C85348   8.454   4.470   3.605  0.4138  0.3649  0.5186
  633MOL0     C85349   8.354   4.593   3.399 -0.0449  0.2782  0.1685
  633MOL0     C85350   8.215   4.535   3.402 -0.8167 -0.9708 -0.2539
  633MOL0     O85351   8.126   4.543   3.299  0.0100 -0.2860  0.3496
  633MOL0     C85352   8.010   4.459   3.307 -0.7708 -0.2932 -0.2138
  633MOL0     C85353   7.989   4.332   3.248 -0.3064  0.2145 -0.6889
  633MOL0     C85354   7.888   4.241   3.290  1.1684  0.3860 -0.5000
  633MOL0     C85355   7.810   4.275   3.398  0.1366 -0.2766 -0.5598
  633MOL0     O85356   7.705   4.190   3.416  0.0817  0.6192  0.8286
  633MOL0     C85357   7.571   4.228   3.456 -0.4935 -0.2664  0.6529
  633MOL0     C85358   7.483   4.121   3.387  0.6268  0.1951  0.3094
  633MOL0     C85359   7.347   4.120   3.445 -0.3072  0.3483  0.2424
  633MOL0     C85360   7.258   4.041   3.349  1.1598 -0.1119  0.5234
  633MOL0     C85361   7.122   4.012   3.410  0.6305 -0.4765  0.4733
  633MOL0     C85362   7.041   3.918   3.326  0.2837 -1.1800  0.2125
  633MOL0     C85363   6.906   3.892   3.382 -0.2051  0.0650  0.2601
  633MOL0     C85364   6.813   4.001   3.329 -0.2488  0.2523 -0.5671
  633MOL0    Cl85365   6.650   3.946   3.377  0.2689  0.2818 -0.0672
  633MOL0     C85366   7.823   4.408   3.459  0.2798  0.1159 -0.3937
  633MOL0     C85367   7.926   4.491   3.421 -0.0360 -0.1080 -0.5437
  633MOL0     O85368   8.190   4.492   3.519  0.3697 -0.2161 -0.2504
  633MOL0     C85369   8.375   4.687   3.290 -0.2088 -1.2053 -0.3895
  633MOL0     C85370   8.497   4.752   3.285  0.0931  0.2032 -1.2756
  633MOL0     N85371   8.916   4.846   2.859 -0.0574  0.0051  1.0472
  633MOL0     N85372   9.002   4.843   2.762  0.5535 -0.5632 -0.2808
  633MOL0     C85373   9.843   4.278   2.159  0.8535  0.3439  0.3045
  633MOL0     C85374   9.972   4.222   2.173 -1.3918  0.1413  0.5833
  633MOL0     C85375  10.409   4.121   2.184  0.6089 -0.4887  0.9583
  633MOL0     C85376  10.448   4.076   2.057  0.1508  0.0586 -0.1885
  633MOL0     C85377  10.583   4.040   2.042 -0.4119  0.4086 -0.0050
  633MOL0     C85378  10.671   4.063   2.143 -0.7868 -0.4896 -0.9664
  633MOL0     O85379  10.809   4.022   2.126  0.9615  0.3084 -0.2757
  633MOL0     C85380  10.918   4.057   2.218 -0.4174 -0.0173  0.1625
  633MOL0     C85381  11.040   3.966   2.179 -0.7078 -0.4321 -0.5955
  633MOL0     C85382  11.118   4.019   2.061  0.6195 -0.6402  0.1628
  633MOL0     C85383  11.261   3.951   2.035  1.0585 -0.5395 -1.2375
  633MOL0     C85384  11.362   4.000   2.131 -0.1876  0.1965  0.0379
  633MOL0     C85385  11.459   4.046   2.188 -0.1043  0.9251 -0.6503
  633MOL0     C85386  10.625   4.101   2.268 -0.1131  0.0426 -0.9101
  633MOL0     C85387  10.495   4.125   2.289  0.7928 -0.3500  0.2905
  633MOL0     H85388  10.138   4.407   1.960  1.7860 -1.6791  1.4414
  633MOL0     H85389   9.911   4.518   1.933  0.1041  0.5648  0.2693
  633MOL0     H85390   9.613   4.389   2.215 -1.4660 -1.1983 -0.6438
  633MOL0     H85391   9.635   4.557   2.152  2.3647 -1.0543 -2.0086
  633MOL0     H85392   9.466   4.506   1.967 -0.3666 -0.0766 -0.1146
  633MOL0     H85393   9.455   4.341   2.039  0.7843 -1.3421 -0.6377
  633MOL0     H85394   9.395   4.612   2.180 -0.4283  2.3759 -3.2064
  633MOL0     H85395   9.266   4.538   2.079 -2.2255  2.9664  2.6350
  633MOL0     H85396   9.271   4.318   2.200 -0.5326 -0.1509  0.3596
  633MOL0     H85397   9.384   4.361   2.303  0.3169  1.0803 -0.4109
  633MOL0     H85398   9.122   4.510   2.282  2.3495  1.9185 -0.3164
  633MOL0     H85399   9.169   4.379   2.401  2.0803 -0.9463 -0.9767
  633MOL0     H85400   9.324   4.521   2.504  1.5900  2.0572  1.0621
  633MOL0     H85401   9.284   4.654   2.398  1.2675 -1.6122 -1.1676
  633MOL0     H85402   9.062   4.677   2.486 -0.3641 -0.4232  0.0513
  633MOL0     H85403   9.066   4.520   2.581  1.5831  0.9697  3.2644
  633MOL0     H85404   9.223   4.770   2.656  0.2791 -0.1079  0.4769
  633MOL0     H85405   9.238   4.613   2.729  1.4395  1.0080 -1.2045
  633MOL0     H85406   9.051   4.546   2.890  2.2838  0.4226 -1.3712
  633MOL0     H85407   8.750   4.730   3.054 -1.0611 -2.2684 -1.6148
  633MOL0     H85408   8.828   4.592   3.049  0.9694 -0.5148  1.1564
  633MOL0     H85409   9.041   4.727   3.143 -0.2485 -0.2560  1.4530
  633MOL0     H85410   8.932   4.646   3.246  3.2940  0.3035  1.4958
  633MOL0     H85411   8.943   4.929   3.167  1.2070 -0.3638 -1.1960
  633MOL0     H85412   8.961   4.868   3.326  0.8361  2.4840 -2.5557
  633MOL0     H85413   8.695   4.880   3.193 -0.9593  1.8300  0.3463
  633MOL0     H85414   8.757   4.967   3.332  2.0616 -0.3371 -0.2262
  633MOL0     H85415   8.661   4.582   3.540 -1.6454 -0.2926  2.2351
  633MOL0     H85416   8.416   4.375   3.567 -0.6664  0.7487  0.5910
  633MOL0     H85417   8.551   4.452   3.653  1.5780  1.3232 -1.3733
  633MOL0     H85418   8.392   4.506   3.688  0.7012 -0.5833  1.1682
  633MOL0     H85419   8.059   4.294   3.175  3.7457  0.1076  2.8867
  633MOL0     H85420   7.888   4.149   3.232  0.6282  0.5201 -0.7207
  633MOL0     H85421   7.562   4.208   3.563 -0.4634 -3.5363  0.1530
  633MOL0     H85422   7.542   4.331   3.436  0.8665  0.0422  0.1498
  633MOL0     H85423   7.483   4.138   3.279  1.4599 -1.8708 -0.0616
  633MOL0     H85424   7.521   4.020   3.405 -0.1707 -0.5847 -1.9977
  633MOL0     H85425   7.300   4.219   3.452 -2.7373 -0.6254 -0.9004
  633MOL0     H85426   7.349   4.064   3.539 -3.3871 -1.7964 -0.7879
  633MOL0     H85427   7.246   4.097   3.256 -1.0344  3.3887  2.7137
  633MOL0     H85428   7.305   3.942   3.342 -1.5611 -1.6823  2.3516
  633MOL0     H85429   7.070   4.106   3.431  1.5183  0.1361  0.0207
  633MOL0     H85430   7.136   3.970   3.510  4.7805 -1.3410 -0.2518
  633MOL0     H85431   7.037   3.964   3.227  2.9259 -5.2416 -2.1036
  633MOL0     H85432   7.096   3.826   3.306  2.3166  0.1283 -0.5666
  633MOL0     H85433   6.898   3.886   3.491  0.6037  0.9279  0.3803
  633MOL0     H85434   6.877   3.800   3.330  0.6075  1.2391 -2.4123
  633MOL0     H85435   6.817   4.006   3.220  1.4441 -2.5453 -0.7267
  633MOL0     H85436   6.839   4.096   3.376  0.0290 -0.5819  1.0463
  633MOL0     H85437   7.751   4.432   3.537 -1.1525 -0.2430 -1.5521
  633MOL0     H85438   7.938   4.589   3.467  1.1345 -0.2358 -0.5404
  633MOL0     H85439   8.299   4.723   3.221 -1.3878  1.2893  2.0161
  633MOL0     H85440   8.499   4.826   3.206 -0.6434  1.5087 -0.1244
  633MOL0     H85441   9.764   4.237   2.221 -0.1611  1.8632  0.0733
  633MOL0     H85442   9.996   4.139   2.239 -1.8414  0.4432  1.1355
  633MOL0     H85443  10.379   4.053   1.977  0.2949  1.2722 -0.6788
  633MOL0     H85444  10.622   4.011   1.945  0.3076  0.1997  0.3438
  633MOL0     H85445  10.955   4.159   2.209 -2.9390  1.1849  2.1076
  633MOL0     H85446  10.889   4.049   2.324 -0.1006  1.6202  0.3923
  633MOL0     H85447  11.007   3.862   2.162 -1.0814 -0.8066  2.0628
  633MOL0     H85448  11.105   3.971   2.267  0.4914 -0.4497 -1.4532
  633MOL0     H85449  11.133   4.126   2.077  1.0861 -1.0868  3.3551
  633MOL0     H85450  11.057   4.007   1.971 -1.5954 -1.2761  1.6740
  633MOL0     H85451  11.290   3.986   1.936 -1.0248  5.1658 -0.2422
  633MOL0     H85452  11.246   3.843   2.032 -2.6750 -0.2125 -0.1459
  633MOL0     H85453  11.558   4.076   2.214  0.2114  0.7123 -1.5890
  633MOL0     H85454  10.692   4.110   2.353  1.3006  0.0744 -2.0003
  633MOL0     H85455  10.474   4.170   2.385 -1.9124  0.8630 -0.7721
  634MOL0     O85456   9.165  10.755   0.445  0.4266 -0.2558 -0.5906
  634MOL0     C85457   9.151  10.734   0.566  0.5829  0.5068  0.4164
  634MOL0     O85458   9.029  10.729   0.640 -0.4494  0.4527 -0.4799
  634MOL0     C85459   8.902  10.737   0.592  0.2054  0.2923 -0.6111
  634MOL0     C85460   8.819  10.655   0.665  0.5478  0.6372 -0.2616
  634MOL0     C85461   8.691  10.632   0.617  0.7563 -0.2686  0.3801
  634MOL0     C85462   8.645  10.694   0.496 -0.1392  1.0134 -0.2174
  634MOL0     O85463   8.530  10.682   0.426  0.3314 -0.3638 -0.4749
  634MOL0     C85464   8.455  10.569   0.451  0.1670 -0.2245 -0.3583
  634MOL0     C85465   8.355  10.539   0.346  0.2782  0.4690  0.0074
  634MOL0     C85466   8.225  10.628   0.349 -0.3366  1.1254 -0.5200
  634MOL0     C85467   8.109  10.540   0.307  0.5968  0.2127  0.2977
  634MOL0     C85468   7.981  10.619   0.300  0.9292 -0.7511  0.0657
  634MOL0     C85469   7.914  10.598   0.441  0.1110  0.1487  0.6388
  634MOL0     C85470   7.797  10.694   0.452  0.7686  0.2943  0.6411
  634MOL0     C85471   7.734  10.711   0.588  0.2759  0.4603  0.1124
  634MOL0     N85472   7.665  10.583   0.621  0.2405  0.0748 -0.7398
  634MOL0     C85473   7.527  10.567   0.599  0.0737  0.1577 -0.1497
  634MOL0     C85474   7.499  10.447   0.665 -0.3557  0.6019  0.4115
  634MOL0     C85475   7.374  10.371   0.689 -0.5880  0.2442  0.7370
  634MOL0     C85476   7.333  10.290   0.567  0.2630 -0.2187  0.3855
  634MOL0     C85477   7.219  10.187   0.596 -0.8713 -0.2626  0.1453
  634MOL0     C85478   7.089  10.259   0.614  0.5948 -0.7437  0.0322
  634MOL0     O85479   7.078  10.327   0.745 -0.0846  0.7087 -0.2481
  634MOL0     C85480   6.941  10.348   0.782  0.4353 -0.7422  0.5597
  634MOL0     C85481   6.824  10.343   0.702 -0.4459 -0.6472  0.7923
  634MOL0     C85482   6.698  10.368   0.750 -0.0885 -0.4707 -0.0178
  634MOL0     C85483   6.577  10.369   0.651 -0.2819  0.0229  0.3173
  634MOL0     C85484   6.684  10.397   0.887 -0.4061 -0.1821  0.0918
  634MOL0     C85485   6.551  10.430   0.954 -0.3498  0.1988 -0.4942
  634MOL0     O85486   6.547  10.499   1.074  0.1043 -0.1654 -0.7949
  634MOL0     C85487   6.446  10.508   1.167 -0.0799  0.0080 -0.0205
  634MOL0     C85488   6.458  10.612   1.259  0.1094 -0.5578 -0.1454
  634MOL0     C85489   6.365  10.642   1.365 -0.5123 -0.7067  0.3074
  634MOL0     C85490   6.248  10.563   1.370 -0.5514 -0.7744  0.0748
  634MOL0     O85491   6.156  10.578   1.471  0.1391  0.5290  0.1021
  634MOL0     C85492   6.029  10.635   1.419  0.2864 -0.0216 -0.6640
  634MOL0     C85493   6.040  10.785   1.376 -0.3308 -0.5748 -0.4027
  634MOL0     C85494   5.900  10.829   1.359  0.3867 -0.2668 -0.3679
  634MOL0     C85495   5.838  10.894   1.486 -0.1184 -0.0835 -0.5941
  634MOL0     C85496   5.690  10.945   1.456 -0.1860  0.3229  0.5169
  634MOL0     C85497   5.680  11.076   1.370  0.8841 -1.0573  0.9017
  634MOL0     C85498   5.536  11.108   1.345 -0.1446 -0.3331  0.2596
  634MOL0     C85499   5.443  11.101   1.463 -0.2264 -0.3817 -0.0689
  634MOL0    Cl85500   5.290  11.162   1.401 -0.8174 -0.2240 -0.6055
  634MOL0     C85501   6.226  10.466   1.268 -0.9149  0.6770 -0.3285
  634MOL0     C85502   6.322  10.448   1.163  1.4906  0.6820  0.0812
  634MOL0     O85503   6.450  10.391   0.898 -0.4649 -0.4436  0.6844
  634MOL0     C85504   6.795  10.417   0.966 -0.2538  0.0622 -1.1688
  634MOL0     C85505   6.923  10.401   0.905  0.1230 -0.3483 -0.5093
  634MOL0     N85506   7.625  10.409   0.714  0.5210  0.4243  0.2677
  634MOL0     N85507   7.724  10.491   0.698  0.6572 -0.3003 -0.2746
  634MOL0     C85508   8.744  10.771   0.428 -0.4123 -0.7513  0.6445
  634MOL0     C85509   8.872  10.803   0.478 -0.7677  0.7428  0.4978
  634MOL0     C85510   9.276  10.697   0.641  1.2928  0.2116 -0.0695
  634MOL0     C85511   9.262  10.692   0.779 -0.0535  0.4394 -0.1128
  634MOL0     C85512   9.374  10.656   0.856 -0.1896  0.0898 -0.7486
  634MOL0     C85513   9.502  10.636   0.799 -0.2615 -0.0487  0.7455
  634MOL0     O85514   9.620  10.632   0.869 -0.2457 -0.0397  0.1323
  634MOL0     C85515   9.614  10.636   1.006 -0.3675  0.9446 -0.3872
  634MOL0     C85516   9.594  10.499   1.066  0.2440 -0.2228 -0.6314
  634MOL0     C85517   9.570  10.483   1.215  0.8989 -0.2243  0.0728
  634MOL0     C85518   9.451  10.559   1.271 -0.3380 -0.1678  0.3004
  634MOL0     C85519   9.320  10.499   1.236  0.2916 -0.5764  0.5541
  634MOL0     C85520   9.207  10.454   1.223  0.4617 -0.7298  0.1864
  634MOL0     C85521   9.505  10.635   0.657  0.1909  0.0963 -0.0382
  634MOL0     C85522   9.392  10.659   0.581 -0.1429 -0.0925 -0.3977
  634MOL0     H85523   8.857  10.602   0.752  2.9223  2.1361 -0.2980
  634MOL0     H85524   8.619  10.572   0.672  0.3214  1.0624  1.2942
  634MOL0     H85525   8.518  10.481   0.462  0.3044 -0.1643 -0.6650
  634MOL0     H85526   8.414  10.576   0.553  0.7471  1.7635 -0.2155
  634MOL0     H85527   8.400  10.543   0.247  0.4668  0.3762  0.0873
  634MOL0     H85528   8.326  10.436   0.367  4.9607 -0.6869  2.1887
  634MOL0     H85529   8.201  10.653   0.453 -2.4485 -3.2354  0.2987
  634MOL0     H85530   8.236  10.713   0.281  2.3686  2.6527  1.6088
  634MOL0     H85531   8.134  10.496   0.210 -1.3641 -1.2562  0.3913
  634MOL0     H85532   8.104  10.452   0.371 -2.1422 -0.6728 -0.9916
  634MOL0     H85533   8.005  10.721   0.269 -1.9742 -0.2782 -0.9026
  634MOL0     H85534   7.913  10.580   0.224  0.8765  3.7911 -2.5341
  634MOL0     H85535   7.878  10.496   0.457 -3.5981  1.6701  3.3371
  634MOL0     H85536   7.975  10.633   0.525 -1.4258  0.4142  1.6731
  634MOL0     H85537   7.838  10.789   0.418 -1.3697  0.9047 -0.4301
  634MOL0     H85538   7.722  10.664   0.377  3.2989  1.2189 -2.4927
  634MOL0     H85539   7.664  10.794   0.601 -0.9669 -0.4476 -0.5549
  634MOL0     H85540   7.825  10.736   0.644  2.7367 -1.8599 -2.5213
  634MOL0     H85541   7.459  10.623   0.535  3.1036  3.2728 -1.0013
  634MOL0     H85542   7.392  10.304   0.774  2.8129 -0.4352 -0.3675
  634MOL0     H85543   7.297  10.444   0.713  0.0735  1.1404  0.2320
  634MOL0     H85544   7.417  10.230   0.532  0.1989  0.1596 -0.4622
  634MOL0     H85545   7.301  10.356   0.485  0.0463 -0.8756 -0.0652
  634MOL0     H85546   7.232  10.116   0.678 -0.8382 -3.0051 -2.0888
  634MOL0     H85547   7.231  10.119   0.511  1.2212 -0.7584  0.7949
  634MOL0     H85548   7.005  10.189   0.615 -0.0688  0.0328  1.1597
  634MOL0     H85549   7.065  10.328   0.533 -1.2734 -1.6727 -0.2448
  634MOL0     H85550   6.830  10.313   0.598 -1.8647 -0.1536  0.5401
  634MOL0     H85551   6.531  10.469   0.652  0.2024  0.2669 -0.8763
  634MOL0     H85552   6.612  10.351   0.549 -0.1878 -2.4625  0.7318
  634MOL0     H85553   6.514  10.282   0.670  3.0799 -2.8315 -0.6003
  634MOL0     H85554   6.551  10.667   1.246 -1.0848  1.2066 -1.8505
  634MOL0     H85555   6.401  10.725   1.426 -0.1571  0.3357 -1.2755
  634MOL0     H85556   5.999  10.584   1.327 -1.3055  1.0911 -0.7858
  634MOL0     H85557   5.957  10.634   1.502  1.5408 -0.3181  0.4664
  634MOL0     H85558   6.085  10.840   1.460 -0.9337 -1.9372  0.8505
  634MOL0     H85559   6.094  10.797   1.281 -2.3856  0.2665 -1.5342
  634MOL0     H85560   5.846  10.740   1.326  0.5937  0.6376 -3.5002
  634MOL0     H85561   5.894  10.902   1.278  1.1633 -0.5977 -0.7278
  634MOL0     H85562   5.824  10.810   1.555  1.5110  1.1692  1.3684
  634MOL0     H85563   5.896  10.977   1.528 -1.4199  0.6267 -0.1340
  634MOL0     H85564   5.633  10.958   1.548  0.7928  0.4289  1.1234
  634MOL0     H85565   5.638  10.867   1.399  1.2750 -0.5074  0.2627
  634MOL0     H85566   5.717  11.160   1.431 -1.7883 -0.1988  1.4684
  634MOL0     H85567   5.741  11.069   1.279  0.7719 -0.5236  0.7814
  634MOL0     H85568   5.509  11.039   1.264 -0.4964  1.5993 -1.3617
  634MOL0     H85569   5.541  11.210   1.304 -0.4251 -0.1452  0.6920
  634MOL0     H85570   5.468  11.182   1.532  0.1057 -2.2024  2.0639
  634MOL0     H85571   5.433  11.001   1.506 -3.9692 -0.0662  0.1345
  634MOL0     H85572   6.144  10.396   1.278 -0.5630  0.5322  2.0958
  634MOL0     H85573   6.293  10.371   1.093  2.1211  0.3359  0.1941
  634MOL0     H85574   6.790  10.448   1.070 -0.5897 -0.3834 -1.0540
  634MOL0     H85575   7.018  10.420   0.954 -0.7951  1.5430  0.6175
  634MOL0     H85576   8.732  10.805   0.326 -0.0404  0.9181  1.1238
  634MOL0     H85577   8.948  10.856   0.421  2.1077 -2.8795  0.6051
  634MOL0     H85578   9.166  10.720   0.822 -0.1180  3.4859 -1.9334
  634MOL0     H85579   9.356  10.660   0.963  3.4682 -1.4850  0.0707
  634MOL0     H85580   9.719  10.657   1.027 -0.2260 -1.0184  1.1243
  634MOL0     H85581   9.558  10.719   1.051  2.5326  3.3615 -0.8910
  634MOL0     H85582   9.675  10.434   1.032 -0.5556 -1.3961 -0.3508
  634MOL0     H85583   9.506  10.466   1.009  0.5464  0.2441 -1.3835
  634MOL0     H85584   9.657  10.525   1.265  2.3363  0.7948 -3.0263
  634MOL0     H85585   9.558  10.378   1.244  0.1310 -0.2917 -0.4663
  634MOL0     H85586   9.448  10.661   1.232 -0.5873 -0.1081  0.4817
  634MOL0     H85587   9.458  10.562   1.380  1.0378 -0.2049  0.2324
  634MOL0     H85588   9.110  10.414   1.201  0.9537 -0.2124 -3.7085
  634MOL0     H85589   9.610  10.628   0.627  0.9499  2.0787  1.8713
  634MOL0     H85590   9.407  10.652   0.474  2.4090  1.1222 -0.1945
  635MOL0     O85591   6.033   6.278   8.626  0.6389 -0.4285  0.1027
  635MOL0     C85592   5.927   6.306   8.688  0.0044 -0.3158 -1.3164
  635MOL0     O85593   5.918   6.382   8.801  0.3272  0.0083  0.1263
  635MOL0     C85594   6.019   6.459   8.851 -0.0041  0.0640 -0.9657
  635MOL0     C85595   6.002   6.507   8.983 -0.0476  0.0833  0.3250
  635MOL0     C85596   6.096   6.589   9.051 -0.7487 -0.6682 -0.2282
  635MOL0     C85597   6.211   6.627   8.984 -1.4337 -1.1239 -0.1721
  635MOL0     O85598   6.302   6.700   9.050 -0.1100  0.2096 -0.5432
  635MOL0     C85599   6.437   6.714   8.995 -0.1168  0.9014  0.5486
  635MOL0     C85600   6.511   6.805   9.091 -0.8275 -0.8315  0.2381
  635MOL0     C85601   6.445   6.946   9.109  0.4329  0.3974  0.6365
  635MOL0     C85602   6.524   7.031   9.208  0.9047 -0.3767  0.7245
  635MOL0     C85603   6.467   7.172   9.231  0.1549  0.2005  0.1967
  635MOL0     C85604   6.564   7.269   9.312 -0.3457  0.3598  0.4953
  635MOL0     C85605   6.493   7.311   9.445 -0.7507 -0.0311  0.5857
  635MOL0     C85606   6.393   7.422   9.410  0.2004 -0.1811 -0.2243
  635MOL0     N85607   6.330   7.467   9.541  0.7973 -0.0150  0.2659
  635MOL0     C85608   6.239   7.391   9.612 -0.0462 -1.1447  0.5575
  635MOL0     C85609   6.251   7.424   9.745 -0.7496  0.0607  0.7818
  635MOL0     C85610   6.188   7.361   9.857  0.0988 -0.1693  0.5248
  635MOL0     C85611   6.197   7.206   9.860  0.0113  0.0171 -0.4171
  635MOL0     C85612   6.348   7.162   9.896 -0.3806  0.2170 -0.0668
  635MOL0     C85613   6.373   7.020   9.866  0.0079  0.2506  0.4256
  635MOL0     O85614   6.352   6.998   9.724  0.4898  0.0336  0.0022
  635MOL0     C85615   6.313   6.871   9.687  0.4950  0.1072  0.5626
  635MOL0     C85616   6.270   6.855   9.555  0.8937  0.0219  0.2775
  635MOL0     C85617   6.213   6.738   9.515  0.7779 -0.0176 -0.9902
  635MOL0     C85618   6.155   6.730   9.373  0.2544  0.0678  0.0403
  635MOL0     C85619   6.225   6.623   9.599 -0.8182  0.1912  1.1335
  635MOL0     C85620   6.168   6.490   9.562 -0.8099  0.1629  0.6885
  635MOL0     O85621   6.061   6.480   9.471  0.4363 -0.6544 -0.3959
  635MOL0     C85622   6.029   6.356   9.440 -0.5748 -0.2161 -0.2583
  635MOL0     C85623   6.078   6.301   9.324 -0.5080  0.5029  0.3697
  635MOL0     C85624   6.043   6.173   9.286 -0.2385 -0.7169  0.7758
  635MOL0     C85625   5.955   6.094   9.357  0.0568  0.5436 -0.3494
  635MOL0     O85626   5.912   5.973   9.302 -0.3410 -0.1780  0.0276
  635MOL0     C85627   5.840   5.869   9.374  0.0514 -0.4362  0.5212
  635MOL0     C85628   5.939   5.791   9.449  0.5453  0.3194 -0.4903
  635MOL0     C85629   5.858   5.684   9.526 -0.4544 -0.7141  0.2493
  635MOL0     C85630   5.954   5.625   9.620  0.6783 -0.5144 -0.4266
  635MOL0     C85631   5.904   5.505   9.694 -0.1965 -0.4943  0.6275
  635MOL0     C85632   6.022   5.474   9.799 -0.4755  0.3793 -0.8926
  635MOL0     C85633   6.144   5.393   9.738  0.0275  0.3296 -0.3952
  635MOL0     C85634   6.215   5.320   9.855  0.7753 -0.2979 -0.3275
  635MOL0    Cl85635   6.360   5.229   9.779  0.2472  0.3664  0.5113
  635MOL0     C85636   5.899   6.146   9.476 -0.6124 -0.0270 -0.7407
  635MOL0     C85637   5.934   6.276   9.515 -0.5121 -0.5648 -0.4955
  635MOL0     O85638   6.234   6.398   9.605 -0.2716  0.2777  0.0299
  635MOL0     C85639   6.286   6.635   9.723  0.3314  0.1530 -0.6807
  635MOL0     C85640   6.328   6.758   9.773  0.6373  0.2331 -0.4108
  635MOL0     N85641   6.353   7.516   9.742  0.8050 -1.0295  0.5638
  635MOL0     N85642   6.397   7.545   9.626  0.7917 -0.0313  0.4254
  635MOL0     C85643   6.236   6.584   8.850 -0.6259  0.3667  0.1446
  635MOL0     C85644   6.134   6.508   8.788 -0.2273 -0.9357  0.0612
  635MOL0     C85645   5.798   6.243   8.642  0.0773  0.0568  0.3943
  635MOL0     C85646   5.793   6.162   8.531  0.6327  0.1493 -0.6217
  635MOL0     C85647   5.684   6.085   8.498 -0.2639  0.2576 -0.6375
  635MOL0     C85648   5.571   6.103   8.582  0.0637  0.3779 -0.0623
  635MOL0     O85649   5.454   6.034   8.561 -0.2783  0.2342 -0.2978
  635MOL0     C85650   5.435   5.922   8.466  0.1329  0.6001 -0.0171
  635MOL0     C85651   5.309   5.837   8.500  0.3084 -0.6672 -0.2888
  635MOL0     C85652   5.190   5.894   8.425  0.1125  0.0333  0.0512
  635MOL0     C85653   5.178   5.831   8.283  0.4796 -0.6747 -0.2811
  635MOL0     C85654   5.042   5.822   8.240 -0.0089  0.5975 -0.0287
  635MOL0     C85655   4.929   5.829   8.190  0.7805  0.4486 -0.7735
  635MOL0     C85656   5.568   6.194   8.679  0.5383  0.3856  0.6739
  635MOL0     C85657   5.681   6.267   8.713  0.9458 -0.9118 -0.6480
  635MOL0     H85658   5.907   6.484   9.032 -0.2421  0.5011  0.1527
  635MOL0     H85659   6.083   6.596   9.159  1.5863  1.5875 -0.0058
  635MOL0     H85660   6.489   6.618   8.994 -0.7725  0.3807 -3.4242
  635MOL0     H85661   6.428   6.759   8.895  1.1827  0.8580  0.4022
  635MOL0     H85662   6.519   6.752   9.187  3.0937 -0.9187  0.0316
  635MOL0     H85663   6.612   6.831   9.060 -1.3321  1.5305  0.3231
  635MOL0     H85664   6.432   6.993   9.011 -0.8813  0.9268  1.0468
  635MOL0     H85665   6.346   6.930   9.153  0.3558 -1.2531 -0.0441
  635MOL0     H85666   6.531   6.977   9.303 -1.6660  0.8045  1.6697
  635MOL0     H85667   6.630   7.036   9.181  1.3568 -0.6699  2.3375
  635MOL0     H85668   6.459   7.212   9.130 -1.4864 -1.2996 -0.2989
  635MOL0     H85669   6.366   7.172   9.273  1.3965  0.8924  3.5904
  635MOL0     H85670   6.653   7.218   9.348  0.8173  0.3625 -2.1785
  635MOL0     H85671   6.602   7.353   9.252  1.1365 -0.0224  0.8718
  635MOL0     H85672   6.439   7.226   9.488  0.3856 -1.5030 -0.7966
  635MOL0     H85673   6.566   7.337   9.522  1.2496  3.3803 -2.2048
  635MOL0     H85674   6.318   7.383   9.340 -0.8434 -0.9915  1.2702
  635MOL0     H85675   6.450   7.506   9.369  0.2786 -1.2112 -2.3812
  635MOL0     H85676   6.169   7.318   9.573 -0.8970 -0.2408  0.3448
  635MOL0     H85677   6.231   7.402   9.949 -2.5334  2.8422  0.5917
  635MOL0     H85678   6.080   7.382   9.859  0.4290  1.8852 -0.4451
  635MOL0     H85679   6.149   7.170   9.768  1.5479 -2.6522 -0.2494
  635MOL0     H85680   6.135   7.157   9.936  0.2854 -0.0517 -0.2392
  635MOL0     H85681   6.362   7.196   9.998 -0.9381  1.4355 -0.3717
  635MOL0     H85682   6.413   7.216   9.826 -0.8500 -0.5313 -1.1163
  635MOL0     H85683   6.301   6.975   9.935  0.2027 -1.3783 -0.3965
  635MOL0     H85684   6.467   6.986   9.911 -0.8809 -0.3106  1.9510
  635MOL0     H85685   6.265   6.934   9.482  0.2935 -0.0843  0.1988
  635MOL0     H85686   6.167   6.823   9.315  0.9589 -0.5520 -0.8430
  635MOL0     H85687   6.217   6.657   9.320 -0.9961 -0.1876 -1.1230
  635MOL0     H85688   6.050   6.700   9.382  1.1038 -2.4569  3.5968
  635MOL0     H85689   6.140   6.365   9.263  1.8129 -0.9031  1.1038
  635MOL0     H85690   6.095   6.130   9.201 -0.5653 -0.2953  0.3560
  635MOL0     H85691   5.771   5.917   9.443  0.2837 -0.5232  0.8118
  635MOL0     H85692   5.782   5.808   9.304 -2.2004  1.7767  0.2965
  635MOL0     H85693   6.023   5.747   9.394  2.7449  0.6892  2.3422
  635MOL0     H85694   5.974   5.849   9.534  1.4180 -2.2030  0.9984
  635MOL0     H85695   5.819   5.614   9.451  2.2357 -0.0309 -1.9872
  635MOL0     H85696   5.775   5.733   9.578  0.1783  1.7746 -0.9252
  635MOL0     H85697   6.049   5.622   9.566  0.6282  2.3952 -0.8219
  635MOL0     H85698   5.967   5.702   9.696 -0.4584  1.2922 -1.9409
  635MOL0     H85699   5.885   5.414   9.636  2.1693 -0.0904 -0.9319
  635MOL0     H85700   5.809   5.518   9.746  1.2416 -1.5435  3.7482
  635MOL0     H85701   6.061   5.558   9.856  0.5919 -0.0507 -0.9640
  635MOL0     H85702   5.975   5.403   9.869 -1.1963  0.1342 -1.6045
  635MOL0     H85703   6.206   5.466   9.685 -0.2129  0.6828 -0.1912
  635MOL0     H85704   6.097   5.313   9.679  0.2807 -1.4344  1.6580
  635MOL0     H85705   6.150   5.248   9.905  1.5025 -2.2131 -2.0340
  635MOL0     H85706   6.266   5.388   9.924 -2.1445  2.0214 -0.2524
  635MOL0     H85707   5.816   6.091   9.519 -1.7678 -0.9848 -3.9190
  635MOL0     H85708   5.884   6.329   9.596  1.0098  1.0601 -0.5573
  635MOL0     H85709   6.292   6.553   9.794  1.1926  1.9087  1.3955
  635MOL0     H85710   6.360   6.755   9.876  0.9122 -1.0671 -0.5256
  635MOL0     H85711   6.329   6.612   8.802 -0.1175  0.5654  1.2056
  635MOL0     H85712   6.132   6.501   8.679 -0.0126  0.3057 -0.0424
  635MOL0     H85713   5.874   6.162   8.459  1.5428  0.2494  0.3748
  635MOL0     H85714   5.669   6.011   8.420 -0.1224 -2.6744  1.9350
  635MOL0     H85715   5.434   5.974   8.369 -3.0574  2.7045  0.9926
  635MOL0     H85716   5.524   5.858   8.468 -1.3920 -1.5708  0.5032
  635MOL0     H85717   5.282   5.838   8.606  1.3935 -1.3197  0.0170
  635MOL0     H85718   5.341   5.740   8.461  2.2952  1.1034 -3.5354
  635MOL0     H85719   5.193   6.004   8.425  0.1253  0.0640 -1.4748
  635MOL0     H85720   5.096   5.862   8.472  0.1131 -2.9296 -1.7070
  635MOL0     H85721   5.223   5.732   8.277  1.7209 -0.1435 -0.0097
  635MOL0     H85722   5.226   5.893   8.206 -4.8076  0.2407 -3.3443
  635MOL0     H85723   4.830   5.825   8.151  1.4037 -0.4887 -2.3655
  635MOL0     H85724   5.470   6.211   8.724 -0.4611 -0.5774 -1.0531
  635MOL0     H85725   5.686   6.325   8.804  2.9723 -0.3544 -1.0577
  636MOL0     O85726  10.134   4.152   5.546  0.3431  0.0416 -0.4377
  636MOL0     C85727  10.191   4.249   5.603 -0.8529 -0.5364  0.0568
  636MOL0     O85728  10.158   4.308   5.724 -0.0695 -0.5570 -0.2286
  636MOL0     C85729  10.067   4.263   5.815  0.1980  0.4531 -0.1414
  636MOL0     C85730   9.960   4.172   5.789 -0.1155 -0.6366 -0.2339
  636MOL0     C85731   9.889   4.107   5.882 -0.6339  0.2153 -0.2622
  636MOL0     C85732   9.921   4.139   6.017  0.3609  0.1624  0.0962
  636MOL0     O85733   9.857   4.076   6.116  0.1570  0.0166 -0.5519
  636MOL0     C85734   9.918   3.946   6.164  1.1887 -0.2972 -0.5960
  636MOL0     C85735   9.885   3.835   6.070 -0.8750 -0.2729 -0.1839
  636MOL0     C85736   9.875   3.702   6.141  0.2574  0.3715 -0.6755
  636MOL0     C85737   9.995   3.666   6.225  0.1189  0.3647  0.2262
  636MOL0     C85738   9.964   3.544   6.314 -0.4749  1.1872  0.3903
  636MOL0     C85739  10.069   3.516   6.424  0.4019 -0.7591 -0.3764
  636MOL0     C85740  10.065   3.620   6.531  0.2609 -0.4800 -0.0505
  636MOL0     C85741  10.176   3.723   6.522  0.3863  0.4047  0.3384
  636MOL0     N85742  10.303   3.698   6.597 -0.6691 -1.1039 -0.3879
  636MOL0     C85743  10.349   3.768   6.707 -0.1958  0.3677 -0.6241
  636MOL0     C85744  10.476   3.768   6.707  0.6754 -1.2820 -0.3525
  636MOL0     C85745  10.571   3.843   6.799  0.1178 -0.1160 -0.2817
  636MOL0     C85746  10.506   3.930   6.913  0.6400  0.1216  0.1835
  636MOL0     C85747  10.444   4.055   6.854 -0.6802 -0.1819 -0.0137
  636MOL0     C85748  10.505   4.192   6.881  0.0086  0.5706  0.2863
  636MOL0     O85749  10.426   4.296   6.818  0.4832 -0.8659 -0.1481
  636MOL0     C85750  10.461   4.422   6.846  0.8895 -1.1010  0.6689
  636MOL0     C85751  10.491   4.506   6.739 -0.1006  0.4540 -0.0468
  636MOL0     C85752  10.530   4.643   6.764  0.6762 -0.1652 -1.1065
  636MOL0     C85753  10.555   4.726   6.640  0.5713 -1.2074  0.6782
  636MOL0     C85754  10.523   4.695   6.892 -0.2671  0.4482 -0.0487
  636MOL0     C85755  10.565   4.828   6.934  0.3429  1.2762 -0.1443
  636MOL0     O85756  10.520   4.867   7.064 -1.2504 -0.9570  0.2470
  636MOL0     C85757  10.572   4.986   7.112  0.9652 -0.0856 -0.6880
  636MOL0     C85758  10.653   4.978   7.226  0.4869  0.1657 -0.1645
  636MOL0     C85759  10.687   5.101   7.296  0.2151  0.4453  0.0232
  636MOL0     C85760  10.633   5.222   7.253 -0.3093 -0.0825 -0.3754
  636MOL0     O85761  10.676   5.330   7.331  0.7198  0.0507  0.2736
  636MOL0     C85762  10.585   5.444   7.333 -0.1950 -0.1195  0.7629
  636MOL0     C85763  10.626   5.542   7.440 -0.1687  0.5635  0.7167
  636MOL0     C85764  10.604   5.494   7.587 -0.7622  1.2695  0.1602
  636MOL0     C85765  10.554   5.600   7.686  0.3085 -0.9065  0.0954
  636MOL0     C85766  10.605   5.582   7.831  0.1364 -0.2676 -0.1050
  636MOL0     C85767  10.607   5.435   7.870 -0.8151 -0.3974  0.3432
  636MOL0     C85768  10.584   5.419   8.018 -0.0925 -0.3743 -0.2578
  636MOL0     C85769  10.702   5.467   8.108 -0.8573 -0.0371 -0.5990
  636MOL0    Cl85770  10.659   5.474   8.284 -0.0049 -0.2547  0.3152
  636MOL0     C85771  10.537   5.219   7.148 -0.1312 -0.3495  0.6338
  636MOL0     C85772  10.515   5.108   7.075  0.6788  0.2857 -0.2234
  636MOL0     O85773  10.627   4.896   6.861 -0.2643  0.0646  0.4247
  636MOL0     C85774  10.488   4.603   6.992 -0.5457 -0.6576 -0.9469
  636MOL0     C85775  10.461   4.471   6.972  0.3928 -0.3223  0.6704
  636MOL0     N85776  10.513   3.684   6.606 -0.0402  0.2896 -0.1772
  636MOL0     N85777  10.408   3.640   6.538  0.0361 -0.0188 -0.2004
  636MOL0     C85778  10.022   4.225   6.048  0.2915  0.1866 -0.2107
  636MOL0     C85779  10.096   4.292   5.947  0.9735 -0.2215 -0.2423
  636MOL0     C85780  10.312   4.297   5.530  0.1487 -0.2287 -0.6455
  636MOL0     C85781  10.352   4.257   5.402  0.4239 -0.1408 -0.2919
  636MOL0     C85782  10.450   4.322   5.333  0.8890 -0.6536 -0.0805
  636MOL0     C85783  10.535   4.409   5.390 -0.5983 -0.2114 -0.4857
  636MOL0     O85784  10.620   4.484   5.316  0.5518 -0.2704 -0.1498
  636MOL0     C85785  10.695   4.598   5.358  0.6451  0.7468 -0.3400
  636MOL0     C85786  10.778   4.643   5.237 -0.0711  0.4011 -0.1466
  636MOL0     C85787  10.893   4.550   5.187 -0.3948 -0.3396  0.0454
  636MOL0     C85788  11.013   4.534   5.286 -0.7295 -0.3749  0.0541
  636MOL0     C85789  11.085   4.406   5.299 -0.5080  0.0768  0.6191
  636MOL0     C85790  11.134   4.296   5.318 -0.0580 -0.1520 -0.1482
  636MOL0     C85791  10.507   4.447   5.520 -0.0108 -0.3158 -0.1146
  636MOL0     C85792  10.398   4.388   5.594  0.0677  0.3016  0.4865
  636MOL0     H85793   9.945   4.145   5.684 -1.0755 -1.6538  0.1462
  636MOL0     H85794   9.807   4.044   5.850 -1.2955  0.2296  1.3210
  636MOL0     H85795  10.024   3.956   6.191  0.4923 -0.7880  2.8342
  636MOL0     H85796   9.871   3.919   6.259 -2.3865  1.0877 -1.8026
  636MOL0     H85797   9.788   3.861   6.026  0.9575  2.5239 -2.9694
  636MOL0     H85798   9.953   3.832   5.984 -0.3302  2.0964  0.1031
  636MOL0     H85799   9.795   3.688   6.214  1.9955  0.3886  1.3292
  636MOL0     H85800   9.854   3.620   6.071  0.2556 -0.7568  0.6076
  636MOL0     H85801  10.078   3.645   6.157  0.1163  2.9919 -0.6774
  636MOL0     H85802  10.025   3.744   6.296  2.1673 -1.0834  1.0654
  636MOL0     H85803   9.864   3.545   6.359 -2.3161 -0.1546 -3.2491
  636MOL0     H85804   9.974   3.463   6.242 -2.6954  1.6599 -0.5349
  636MOL0     H85805  10.039   3.426   6.478 -3.4635  1.3016  1.3492
  636MOL0     H85806  10.167   3.517   6.376  2.0521 -0.0120  2.7784
  636MOL0     H85807   9.969   3.671   6.541 -0.3793 -1.2112 -1.9618
  636MOL0     H85808  10.082   3.568   6.626  0.0305  1.8478  1.3309
  636MOL0     H85809  10.143   3.818   6.564  2.9338  0.0506  3.5616
  636MOL0     H85810  10.196   3.753   6.419  0.7104  2.4768  0.9552
  636MOL0     H85811  10.296   3.829   6.780  0.9436 -0.5435  1.0418
  636MOL0     H85812  10.639   3.765   6.835  0.4916 -0.7766 -2.2944
  636MOL0     H85813  10.633   3.911   6.741 -2.9139  3.2988  0.0874
  636MOL0     H85814  10.591   3.957   6.977  2.5397 -0.9682 -1.7734
  636MOL0     H85815  10.424   3.883   6.967 -1.6878  3.9109  0.3411
  636MOL0     H85816  10.340   4.056   6.889 -1.7437 -3.7444 -2.5723
  636MOL0     H85817  10.438   4.050   6.745 -0.3178  0.3028 -0.0592
  636MOL0     H85818  10.608   4.196   6.845  0.2478 -0.3735  0.8381
  636MOL0     H85819  10.506   4.211   6.988  0.4729  2.4967 -0.0221
  636MOL0     H85820  10.510   4.466   6.640  1.5782 -0.7084  0.6975
  636MOL0     H85821  10.495   4.818   6.641  0.4871 -1.2666  1.3352
  636MOL0     H85822  10.655   4.770   6.635 -0.6506  1.7089 -3.1116
  636MOL0     H85823  10.546   4.675   6.543 -1.5433  2.0918 -1.0487
  636MOL0     H85824  10.689   4.883   7.264  0.3856 -0.3733 -1.3619
  636MOL0     H85825  10.748   5.102   7.385  0.4147 -2.5892  0.0061
  636MOL0     H85826  10.581   5.500   7.239  1.0143 -2.6897 -0.9147
  636MOL0     H85827  10.482   5.410   7.351 -0.3242 -0.3762 -0.3880
  636MOL0     H85828  10.729   5.575   7.427 -0.0879 -0.5493 -2.0301
  636MOL0     H85829  10.563   5.630   7.423  1.2835  1.1817 -2.1211
  636MOL0     H85830  10.696   5.444   7.620 -1.9808 -3.0949 -2.1969
  636MOL0     H85831  10.535   5.409   7.580  1.1083 -0.1609 -2.3738
  636MOL0     H85832  10.586   5.702   7.664 -0.3393 -0.7592 -0.1627
  636MOL0     H85833  10.445   5.610   7.681  0.3008 -1.4552 -1.5202
  636MOL0     H85834  10.543   5.649   7.892  0.1085  1.1512 -1.6321
  636MOL0     H85835  10.705   5.626   7.833 -0.0625  0.2664 -1.3930
  636MOL0     H85836  10.524   5.381   7.822 -0.8595  1.7916 -2.2963
  636MOL0     H85837  10.702   5.383   7.852 -0.6237  0.2289 -0.5547
  636MOL0     H85838  10.574   5.313   8.042  2.0300 -0.4176  0.6004
  636MOL0     H85839  10.486   5.467   8.032 -0.1730 -1.4435  4.9957
  636MOL0     H85840  10.724   5.571   8.081 -2.1034  0.1284 -1.0450
  636MOL0     H85841  10.788   5.403   8.089 -2.6274 -2.3149 -1.3147
  636MOL0     H85842  10.483   5.308   7.120  1.8525  2.7590  5.3113
  636MOL0     H85843  10.429   5.111   7.009  0.3429 -2.3012 -0.0040
  636MOL0     H85844  10.486   4.635   7.096 -2.7206 -1.2846 -0.7551
  636MOL0     H85845  10.426   4.410   7.055 -1.2853 -1.7456 -1.0057
  636MOL0     H85846  10.051   4.256   6.148  0.1184  0.0301 -0.1115
  636MOL0     H85847  10.173   4.362   5.978  0.7309 -0.0056 -0.1277
  636MOL0     H85848  10.298   4.176   5.352 -3.0938  0.8230  1.6216
  636MOL0     H85849  10.454   4.290   5.229  1.1059 -1.2790  0.1176
  636MOL0     H85850  10.612   4.661   5.392 -1.3082 -2.7516  2.0405
  636MOL0     H85851  10.758   4.582   5.446 -1.5441  1.3913  1.4436
  636MOL0     H85852  10.819   4.737   5.276 -0.3502 -0.4838  2.5450
  636MOL0     H85853  10.716   4.669   5.151  0.6276  0.3985 -0.6614
  636MOL0     H85854  10.937   4.595   5.097 -2.2025  0.8879 -0.3000
  636MOL0     H85855  10.859   4.451   5.156 -0.5455 -0.1218 -0.5008
  636MOL0     H85856  10.991   4.566   5.388 -1.1825 -1.6321  0.3637
  636MOL0     H85857  11.083   4.611   5.251 -1.7502  1.2789  1.4839
  636MOL0     H85858  11.178   4.202   5.344 -0.1590  0.2106  1.3932
  636MOL0     H85859  10.564   4.525   5.570  1.6311  0.8564 -3.4881
  636MOL0     H85860  10.386   4.429   5.694  1.9725  4.0588 -0.6305
  637MOL0     O85861   0.201   2.951   2.929 -0.0661 -0.1805 -0.6029
  637MOL0     C85862   0.259   2.841   2.967  0.5082  0.2809  0.0454
  637MOL0     O85863   0.197   2.726   3.003 -0.1780  0.1792  0.4974
  637MOL0     C85864   0.063   2.736   3.015 -0.4204 -0.0884  0.9955
  637MOL0     C85865  -0.018   2.673   2.922  0.5222 -0.2501 -0.6062
  637MOL0     C85866  -0.159   2.683   2.926  0.1010 -0.5122 -0.6289
  637MOL0     C85867  -0.219   2.760   3.025  0.1054  0.0272 -0.5382
  637MOL0     O85868  -0.349   2.750   3.035  0.2461 -0.0551 -0.4737
  637MOL0     C85869  -0.431   2.846   3.113  0.0677 -0.1225  0.6631
  637MOL0     C85870  -0.578   2.814   3.078  0.0225  0.0516  0.6145
  637MOL0     C85871  -0.609   2.670   3.116  0.1192  0.3007 -0.1931
  637MOL0     C85872  -0.760   2.644   3.083 -0.1848 -0.0787 -0.2907
  637MOL0     C85873  -0.786   2.502   3.121 -0.0152  1.2094 -0.1107
  637MOL0     C85874  -0.930   2.458   3.134  0.2926  0.3004 -0.5120
  637MOL0     C85875  -0.970   2.309   3.105  0.2893  1.1159  0.3623
  637MOL0     C85876  -0.953   2.249   2.965 -0.3219  0.3426  0.7176
  637MOL0     N85877  -1.043   2.315   2.866 -0.2843  0.6280  0.3499
  637MOL0     C85878  -1.153   2.252   2.814 -0.0699  0.1198 -0.9172
  637MOL0     C85879  -1.211   2.337   2.727 -0.3940  0.3366 -0.7528
  637MOL0     C85880  -1.343   2.315   2.662 -0.0685 -0.2157  0.4912
  637MOL0     C85881  -1.330   2.208   2.556 -0.5170  0.5998  0.6417
  637MOL0     C85882  -1.431   2.228   2.443 -0.3807  0.3621 -1.2178
  637MOL0     C85883  -1.575   2.235   2.483  0.7845  0.9038 -0.1535
  637MOL0     O85884  -1.617   2.136   2.587 -0.1722  0.6393 -0.2379
  637MOL0     C85885  -1.740   2.156   2.642  0.3736 -0.8092 -0.6628
  637MOL0     C85886  -1.849   2.068   2.623 -0.3200 -0.1237  0.4020
  637MOL0     C85887  -1.975   2.093   2.677  0.0827 -0.5901  0.4402
  637MOL0     C85888  -2.072   1.989   2.648 -0.3706  0.8836 -0.5880
  637MOL0     C85889  -1.993   2.213   2.758 -0.8627  0.1155  0.0077
  637MOL0     C85890  -2.119   2.259   2.815  0.1347 -0.1760  0.8459
  637MOL0     O85891  -2.156   2.389   2.799 -0.9616  0.1138  0.2568
  637MOL0     C85892  -2.276   2.427   2.848  0.2199  0.5651 -0.3345
  637MOL0     C85893  -2.378   2.453   2.760  1.1891 -0.2027 -0.4643
  637MOL0     C85894  -2.494   2.510   2.802 -0.0788  0.5098 -0.8217
  637MOL0     C85895  -2.516   2.555   2.934  0.9469 -0.3818 -0.4472
  637MOL0     O85896  -2.644   2.598   2.976  0.0848 -0.7288 -0.2876
  637MOL0     C85897  -2.721   2.682   2.890 -0.3211 -0.0858 -0.0656
  637MOL0     C85898  -2.850   2.726   2.964  0.5782 -0.6102  0.1592
  637MOL0     C85899  -2.810   2.817   3.079 -0.4467  0.6735 -0.9467
  637MOL0     C85900  -2.926   2.899   3.132 -0.2680 -0.0168 -0.1357
  637MOL0     C85901  -2.898   2.959   3.272 -0.0850 -0.0483  0.3413
  637MOL0     C85902  -2.778   3.067   3.272  0.7772  0.3771  0.0771
  637MOL0     C85903  -2.810   3.169   3.170  0.0171 -0.9274  0.2433
  637MOL0     C85904  -2.735   3.300   3.187 -0.7377 -0.1082  0.8254
  637MOL0    Cl85905  -2.818   3.408   3.310 -0.6161  0.6224 -0.3096
  637MOL0     C85906  -2.428   2.516   3.029 -0.2826 -0.4291  0.4470
  637MOL0     C85907  -2.306   2.458   2.985 -0.8318 -0.1287  0.8609
  637MOL0     O85908  -2.186   2.168   2.861  0.5125  0.1429 -0.1770
  637MOL0     C85909  -1.882   2.293   2.775 -0.0148  0.2440  0.9453
  637MOL0     C85910  -1.756   2.267   2.725 -0.4091 -0.3280 -0.4409
  637MOL0     N85911  -1.128   2.445   2.713 -1.4376  0.5182 -0.7355
  637MOL0     N85912  -1.029   2.424   2.785  0.0161 -0.1510  0.2328
  637MOL0     C85913  -0.142   2.819   3.120 -0.1134 -0.0235  0.3772
  637MOL0     C85914  -0.001   2.802   3.115  0.1019 -0.0981  0.4208
  637MOL0     C85915   0.407   2.841   2.983  0.0575 -0.2887 -0.3964
  637MOL0     C85916   0.491   2.729   2.969  0.2126  0.3257  0.4611
  637MOL0     C85917   0.631   2.733   2.982  0.1504 -0.1280  0.3390
  637MOL0     C85918   0.695   2.855   3.002  0.5932  0.3321 -0.3029
  637MOL0     O85919   0.830   2.882   3.018  0.1464  0.3286 -0.3066
  637MOL0     C85920   0.929   2.785   2.980  0.0631 -0.6415 -0.4608
  637MOL0     C85921   0.931   2.750   2.832  0.6940 -0.4323 -0.0563
  637MOL0     C85922   1.056   2.805   2.755  0.4697  0.2287  0.6504
  637MOL0     C85923   1.059   2.768   2.607  0.5289  0.1145  0.6375
  637MOL0     C85924   1.202   2.792   2.559  0.1436 -0.2151 -0.4228
  637MOL0     C85925   1.316   2.807   2.519 -0.1629 -0.4907 -0.0381
  637MOL0     C85926   0.620   2.971   2.996  0.6774  0.0343  0.8367
  637MOL0     C85927   0.473   2.962   2.990  1.2687 -0.2438 -0.2191
  637MOL0     H85928   0.033   2.608   2.851 -2.2378 -2.8115 -0.4538
  637MOL0     H85929  -0.220   2.620   2.861 -0.5026 -0.0102 -0.5553
  637MOL0     H85930  -0.407   2.846   3.219 -2.4382  0.1162  1.2974
  637MOL0     H85931  -0.412   2.946   3.071 -2.8578  0.2662 -0.0068
  637MOL0     H85932  -0.638   2.887   3.132 -1.0018 -0.1691 -0.2096
  637MOL0     H85933  -0.597   2.824   2.971  0.8624 -1.1969  0.3280
  637MOL0     H85934  -0.533   2.613   3.062  0.5896 -1.6345  2.3406
  637MOL0     H85935  -0.595   2.649   3.222  0.0737 -0.4468 -0.3283
  637MOL0     H85936  -0.827   2.711   3.138 -2.7660  0.8161 -4.1366
  637MOL0     H85937  -0.781   2.652   2.976  0.8771  1.4778 -0.4221
  637MOL0     H85938  -0.730   2.438   3.052  1.5953  1.5252  0.8299
  637MOL0     H85939  -0.728   2.474   3.210 -0.9424 -1.2492 -0.2032
  637MOL0     H85940  -0.978   2.489   3.227  0.1057  0.9446 -0.8179
  637MOL0     H85941  -0.972   2.532   3.065  0.4489  2.2670  1.3843
  637MOL0     H85942  -0.922   2.242   3.177 -0.3987 -0.3887 -0.5494
  637MOL0     H85943  -1.077   2.310   3.127  0.0250  2.0750 -0.8756
  637MOL0     H85944  -0.982   2.144   2.970 -0.4197  0.2967 -0.4916
  637MOL0     H85945  -0.849   2.245   2.931  0.2282 -0.5736  2.3665
  637MOL0     H85946  -1.183   2.156   2.854 -0.4701  0.5300 -0.2147
  637MOL0     H85947  -1.424   2.290   2.731 -0.3655  0.5981  0.4492
  637MOL0     H85948  -1.377   2.405   2.610  0.6212 -1.5460 -2.4907
  637MOL0     H85949  -1.319   2.107   2.598  2.9056  0.4368 -0.2872
  637MOL0     H85950  -1.235   2.222   2.504  1.7344  1.3852  4.5228
  637MOL0     H85951  -1.430   2.153   2.364 -3.0969  1.1015 -2.0836
  637MOL0     H85952  -1.408   2.316   2.383 -1.0981  2.4528  1.3340
  637MOL0     H85953  -1.644   2.218   2.400 -1.1713 -4.1727  2.0881
  637MOL0     H85954  -1.594   2.338   2.517  0.4681  1.3085 -1.5065
  637MOL0     H85955  -1.836   1.983   2.556 -1.1510 -0.5725  0.7875
  637MOL0     H85956  -2.099   1.936   2.740  1.7232 -1.8160 -1.3982
  637MOL0     H85957  -2.155   2.043   2.601  0.8711  0.0380 -4.0116
  637MOL0     H85958  -2.044   1.922   2.566 -2.5389  1.2733 -1.7272
  637MOL0     H85959  -2.368   2.432   2.653  0.9666 -2.8468 -0.0331
  637MOL0     H85960  -2.578   2.536   2.739  0.6048  0.6605 -1.6845
  637MOL0     H85961  -2.684   2.775   2.845 -0.0863 -0.8016 -1.3946
  637MOL0     H85962  -2.750   2.629   2.799 -5.1260  1.6067  0.1843
  637MOL0     H85963  -2.909   2.788   2.895  4.8427  1.2692 -2.1759
  637MOL0     H85964  -2.910   2.639   2.994 -0.4644  0.0288 -0.0169
  637MOL0     H85965  -2.733   2.889   3.053 -0.3415  0.8719 -0.0950
  637MOL0     H85966  -2.777   2.753   3.161 -1.8784  1.7826  0.5393
  637MOL0     H85967  -2.950   2.971   3.053  0.5015 -0.1121 -0.4615
  637MOL0     H85968  -3.012   2.831   3.130 -0.1455 -0.1576 -1.0805
  637MOL0     H85969  -2.879   2.883   3.349 -1.1797  0.6350  1.3141
  637MOL0     H85970  -2.992   3.004   3.306  1.9736  4.2985  0.8353
  637MOL0     H85971  -2.776   3.112   3.371  1.6343  1.3025 -0.3490
  637MOL0     H85972  -2.677   3.031   3.252  1.1565  1.2341  0.4005
  637MOL0     H85973  -2.916   3.197   3.177  0.5873  0.9621  2.7856
  637MOL0     H85974  -2.804   3.134   3.067  2.1342  0.9137 -0.3461
  637MOL0     H85975  -2.734   3.357   3.094  3.2500 -2.1942 -0.6341
  637MOL0     H85976  -2.631   3.283   3.214  0.1845  2.3778 -0.8317
  637MOL0     H85977  -2.435   2.540   3.135  0.4484 -1.6260  0.7805
  637MOL0     H85978  -2.226   2.439   3.056  1.2358 -0.5563 -1.4129
  637MOL0     H85979  -1.888   2.394   2.815  3.4421  0.1024  2.1797
  637MOL0     H85980  -1.679   2.344   2.726 -0.7130 -0.0242 -0.1188
  637MOL0     H85981  -0.192   2.876   3.198 -0.5656 -0.1585  0.1919
  637MOL0     H85982   0.048   2.850   3.200 -1.0008  1.3825  0.2508
  637MOL0     H85983   0.436   2.636   2.961  1.8038 -0.5617 -0.6184
  637MOL0     H85984   0.682   2.637   2.978  2.0188  0.8515 -0.4996
  637MOL0     H85985   1.028   2.818   3.013 -0.8241  1.0554  0.6781
  637MOL0     H85986   0.910   2.688   3.026  3.4575  0.4584  3.9103
  637MOL0     H85987   0.842   2.796   2.787 -0.1551 -0.4596  1.4867
  637MOL0     H85988   0.919   2.643   2.811 -4.0727  0.3823 -3.1560
  637MOL0     H85989   1.141   2.764   2.811  1.9413  4.3516  1.8052
  637MOL0     H85990   1.065   2.914   2.753 -0.6397  0.3366 -2.3199
  637MOL0     H85991   0.976   2.813   2.552  0.7855  0.5089  0.5739
  637MOL0     H85992   1.044   2.660   2.599 -1.1255  0.3740  0.0401
  637MOL0     H85993   1.407   2.826   2.466 -1.6945 -0.9482 -3.0971
  637MOL0     H85994   0.669   3.067   3.007 -0.1079  0.7283 -1.2981
  637MOL0     H85995   0.423   3.058   2.983 -0.2507 -1.0457 -1.0178
  638MOL0     O85996   8.253   5.743   5.198  0.3473 -0.0339  0.3533
  638MOL0     C85997   8.358   5.724   5.257  0.2542 -0.9150  0.0780
  638MOL0     O85998   8.396   5.600   5.301 -0.2097  0.5943  0.1985
  638MOL0     C85999   8.303   5.504   5.360  0.6940 -0.2901 -0.0722
  638MOL0     C86000   8.345   5.376   5.359 -0.6023  0.0101 -0.4555
  638MOL0     C86001   8.256   5.282   5.415 -0.2409 -0.2454 -0.2720
  638MOL0     C86002   8.136   5.308   5.475  0.1710 -0.6031 -1.0329
  638MOL0     O86003   8.053   5.213   5.536 -0.4269  0.6468  0.3090
  638MOL0     C86004   8.103   5.129   5.635  0.1621 -0.0718  0.2751
  638MOL0     C86005   7.999   5.080   5.728 -0.4174  0.6227 -0.0787
  638MOL0     C86006   7.863   5.048   5.662  0.5371 -0.2488  0.3507
  638MOL0     C86007   7.885   4.925   5.576 -0.6208 -0.2736  0.0751
  638MOL0     C86008   7.740   4.876   5.528  0.9585 -0.2492 -1.8498
  638MOL0     C86009   7.680   4.790   5.641 -0.0159  0.1169 -0.0932
  638MOL0     C86010   7.569   4.703   5.593  0.7155  0.0810 -0.5462
  638MOL0     C86011   7.512   4.591   5.680  0.8920 -0.3078 -1.5517
  638MOL0     N86012   7.419   4.513   5.616  0.2103 -0.7299 -0.4046
  638MOL0     C86013   7.292   4.560   5.594 -0.5292 -0.2017  0.0949
  638MOL0     C86014   7.238   4.450   5.536  0.4477  0.4383  0.3142
  638MOL0     C86015   7.096   4.436   5.500  0.7711  0.3682 -0.0732
  638MOL0     C86016   7.002   4.399   5.611 -0.3654 -0.2744 -0.3852
  638MOL0     C86017   6.853   4.377   5.573 -0.5449  0.1953 -0.4999
  638MOL0     C86018   6.774   4.491   5.627 -1.4397  0.4191  0.1986
  638MOL0     O86019   6.747   4.473   5.765  0.1163 -0.4471 -0.5747
  638MOL0     C86020   6.674   4.567   5.839  0.1199 -0.0834  0.2884
  638MOL0     C86021   6.671   4.558   5.984 -0.1333 -0.0097 -0.3475
  638MOL0     C86022   6.591   4.638   6.064 -0.0409 -0.1096 -0.2004
  638MOL0     C86023   6.586   4.616   6.214  0.0009 -0.1329 -0.2837
  638MOL0     C86024   6.522   4.751   6.008 -0.4140  0.5440  0.7163
  638MOL0     C86025   6.436   4.850   6.072 -0.5231  0.5308  0.5815
  638MOL0     O86026   6.421   4.857   6.204 -0.2069  0.4335 -0.1665
  638MOL0     C86027   6.331   4.939   6.261 -0.8425  0.1052  0.0766
  638MOL0     C86028   6.263   4.899   6.378  0.3735 -0.3361 -0.3407
  638MOL0     C86029   6.170   4.982   6.441  0.6752 -0.4142 -0.2392
  638MOL0     C86030   6.135   5.117   6.396 -0.6437 -0.2824 -0.1611
  638MOL0     O86031   6.043   5.200   6.451  0.1723  0.1035  0.1905
  638MOL0     C86032   5.969   5.162   6.572  0.3739  0.5108  0.1260
  638MOL0     C86033   6.044   5.188   6.701  0.1617 -0.2743 -0.3602
  638MOL0     C86034   5.972   5.162   6.831  0.8041 -0.5352 -0.4795
  638MOL0     C86035   6.043   5.196   6.967 -0.4332 -0.5194  0.0830
  638MOL0     C86036   5.952   5.194   7.089 -1.4342  0.6847 -0.8233
  638MOL0     C86037   6.038   5.200   7.222  0.1191 -0.0351  0.4701
  638MOL0     C86038   6.094   5.339   7.242 -0.1010  0.1859  0.7183
  638MOL0     C86039   6.234   5.341   7.302 -0.1886  0.0641 -1.0746
  638MOL0    Cl86040   6.255   5.512   7.363 -0.0411  0.4128  0.4744
  638MOL0     C86041   6.207   5.156   6.275  0.8213 -0.3161 -0.0654
  638MOL0     C86042   6.305   5.072   6.215  1.1176  0.9485  0.1154
  638MOL0     O86043   6.384   4.928   5.998  0.2242 -0.1129 -0.5427
  638MOL0     C86044   6.530   4.758   5.862  0.3597  0.2454  0.1308
  638MOL0     C86045   6.593   4.665   5.777  0.2465  1.1520 -0.4328
  638MOL0     N86046   7.333   4.351   5.521 -0.2044 -0.1644 -0.1983
  638MOL0     N86047   7.441   4.388   5.577 -0.7659 -0.5338  0.4057
  638MOL0     C86048   8.096   5.440   5.479 -0.4144 -0.0254 -0.5077
  638MOL0     C86049   8.177   5.543   5.417  1.2333 -0.0905 -0.9047
  638MOL0     C86050   8.454   5.831   5.259  0.0798  0.0889 -0.5564
  638MOL0     C86051   8.594   5.806   5.271 -0.3787  0.1516 -0.6640
  638MOL0     C86052   8.693   5.907   5.290 -0.7908 -0.4386  0.1783
  638MOL0     C86053   8.661   6.041   5.295 -0.1427  0.0930  0.0575
  638MOL0     O86054   8.761   6.142   5.314  0.5656  0.4398 -0.0650
  638MOL0     C86055   8.734   6.270   5.244 -0.6543  0.3284  0.1536
  638MOL0     C86056   8.861   6.368   5.237  0.7834 -0.0587 -0.1434
  638MOL0     C86057   8.855   6.466   5.118  0.2461 -0.2299 -0.5218
  638MOL0     C86058   8.724   6.548   5.097  0.6556 -0.2700  0.1457
  638MOL0     C86059   8.684   6.623   5.213 -0.6154  0.0895 -0.6755
  638MOL0     C86060   8.650   6.695   5.310 -1.2269  0.2419 -0.4357
  638MOL0     C86061   8.517   6.072   5.299 -0.9067  0.6936  0.1710
  638MOL0     C86062   8.424   5.968   5.279  0.1613 -0.2682  0.4316
  638MOL0     H86063   8.437   5.346   5.309 -1.4952 -0.9709 -1.5737
  638MOL0     H86064   8.290   5.179   5.416  1.0457  0.1500 -0.8169
  638MOL0     H86065   8.145   5.043   5.581 -2.8164 -1.5165  0.0843
  638MOL0     H86066   8.185   5.182   5.684 -1.0917  2.3972 -0.1361
  638MOL0     H86067   8.035   4.996   5.788  1.2484  1.3695  0.0409
  638MOL0     H86068   7.990   5.165   5.795  3.2146  1.6145 -0.6064
  638MOL0     H86069   7.774   5.025   5.721 -3.1364  1.2790 -4.0331
  638MOL0     H86070   7.829   5.135   5.605  2.7878  0.4369 -0.0684
  638MOL0     H86071   7.933   4.948   5.481 -0.7180 -2.3420 -0.5218
  638MOL0     H86072   7.939   4.843   5.625 -0.3687 -1.4848 -2.1244
  638MOL0     H86073   7.666   4.951   5.500 -0.3249  0.2275  2.1067
  638MOL0     H86074   7.770   4.814   5.443  4.2517 -1.9243  0.2789
  638MOL0     H86075   7.759   4.722   5.674  0.2664  0.0268 -0.9360
  638MOL0     H86076   7.631   4.853   5.716  0.5475  2.4632 -1.6129
  638MOL0     H86077   7.481   4.767   5.577 -0.2102 -0.7539  0.9826
  638MOL0     H86078   7.599   4.662   5.496  0.4530 -1.6422  0.0794
  638MOL0     H86079   7.465   4.641   5.766  2.3306  2.9092 -2.4934
  638MOL0     H86080   7.590   4.520   5.711  0.4935 -0.1624 -0.1140
  638MOL0     H86081   7.238   4.650   5.622  0.8082  0.3837  0.8933
  638MOL0     H86082   7.060   4.533   5.466 -4.0969 -0.1775  2.7040
  638MOL0     H86083   7.081   4.359   5.423 -1.1386  1.1270 -0.5068
  638MOL0     H86084   7.011   4.479   5.685  1.2929 -1.8565  1.2595
  638MOL0     H86085   7.051   4.321   5.670  1.5314 -0.9785 -2.7477
  638MOL0     H86086   6.821   4.280   5.614 -0.0748 -0.1821 -1.0097
  638MOL0     H86087   6.836   4.369   5.465 -0.1119  1.4418 -0.6697
  638MOL0     H86088   6.679   4.497   5.573 -1.2599  3.4180  0.0562
  638MOL0     H86089   6.830   4.583   5.608 -1.5227  0.5138  0.4101
  638MOL0     H86090   6.731   4.484   6.036 -1.8677 -2.5448 -1.7604
  638MOL0     H86091   6.638   4.524   6.243 -2.7439 -1.5284  0.5644
  638MOL0     H86092   6.632   4.701   6.265 -0.7322  0.5307 -0.6959
  638MOL0     H86093   6.484   4.593   6.247 -0.6354 -0.9040 -2.5607
  638MOL0     H86094   6.281   4.796   6.407 -0.1004 -1.4258 -3.5452
  638MOL0     H86095   6.132   4.943   6.535  1.8063 -3.5034 -0.9433
  638MOL0     H86096   5.875   5.219   6.575  0.9417  1.4429  0.4135
  638MOL0     H86097   5.948   5.055   6.572  2.3608  0.0666  1.2712
  638MOL0     H86098   6.122   5.112   6.699 -2.4951 -3.1640 -2.0862
  638MOL0     H86099   6.079   5.291   6.714  0.7990 -0.6580  1.2300
  638MOL0     H86100   5.942   5.058   6.846 -4.2878  0.9979  2.3421
  638MOL0     H86101   5.872   5.207   6.834 -0.8210 -3.8753  1.4620
  638MOL0     H86102   6.129   5.132   6.986  0.2346  1.0646  2.9380
  638MOL0     H86103   6.071   5.302   6.962  0.5291 -0.5495  3.0306
  638MOL0     H86104   5.905   5.095   7.097  0.1574 -0.0751 -0.5084
  638MOL0     H86105   5.871   5.268   7.091 -0.4248  1.8069  0.6850
  638MOL0     H86106   5.976   5.172   7.307 -3.4339  1.0326 -1.5655
  638MOL0     H86107   6.124   5.133   7.215  0.9997  1.1755 -1.0596
  638MOL0     H86108   6.025   5.395   7.305 -0.0003  0.2948  0.7326
  638MOL0     H86109   6.103   5.392   7.147  0.9996 -0.5317  0.4015
  638MOL0     H86110   6.319   5.302   7.244 -1.3496 -3.1457 -0.7824
  638MOL0     H86111   6.239   5.272   7.386  4.2472 -2.3996 -3.0269
  638MOL0     H86112   6.185   5.253   6.234 -0.8440 -0.3763  0.5879
  638MOL0     H86113   6.359   5.119   6.134  0.8802 -0.8486 -1.1583
  638MOL0     H86114   6.484   4.839   5.807  1.2650  1.8602  1.6097
  638MOL0     H86115   6.592   4.671   5.668  0.3310  0.3017 -0.4833
  638MOL0     H86116   8.005   5.470   5.530 -0.3457  1.2144 -1.0712
  638MOL0     H86117   8.155   5.649   5.420 -0.5448 -0.4475 -0.3692
  638MOL0     H86118   8.633   5.706   5.254 -2.1487 -0.7227  0.1436
  638MOL0     H86119   8.799   5.887   5.303 -0.4247  2.1258  1.8496
  638MOL0     H86120   8.702   6.247   5.142  0.7530 -0.3107 -0.1710
  638MOL0     H86121   8.650   6.311   5.301  1.0280  0.4437  2.7133
  638MOL0     H86122   8.956   6.313   5.236  3.7201  4.4270  0.4195
  638MOL0     H86123   8.869   6.417   5.335 -0.2203  1.5731 -0.8292
  638MOL0     H86124   8.871   6.412   5.024 -0.6549 -2.7106  0.6362
  638MOL0     H86125   8.930   6.543   5.136  1.6438 -1.7138  0.2881
  638MOL0     H86126   8.643   6.479   5.068 -0.3378  0.1836  1.7291
  638MOL0     H86127   8.730   6.618   5.013  0.0819 -1.0014 -0.5303
  638MOL0     H86128   8.635   6.751   5.401 -2.9254  0.4344 -0.8118
  638MOL0     H86129   8.489   6.177   5.301 -0.1282  0.9292 -0.8425
  638MOL0     H86130   8.316   5.980   5.272  0.3413  1.1511 -0.4117
  639MOL0     O86131   5.140  10.726   9.607 -0.4161  0.6731  0.1772
  639MOL0     C86132   5.057  10.652   9.546 -0.4028  0.4980 -0.8806
  639MOL0     O86133   5.022  10.664   9.422 -0.0818  0.3836 -0.1099
  639MOL0     C86134   5.115  10.723   9.338 -0.3409  0.5300 -0.2261
  639MOL0     C86135   5.254  10.683   9.338 -0.1413 -0.2415  0.4573
  639MOL0     C86136   5.345  10.709   9.236 -0.9656 -0.1571  0.6137
  639MOL0     C86137   5.297  10.801   9.139 -0.0373  0.2639  0.9410
  639MOL0     O86138   5.386  10.843   9.046 -0.3590 -0.2216  0.9014
  639MOL0     C86139   5.340  10.825   8.913 -0.1135 -0.3809 -0.7746
  639MOL0     C86140   5.450  10.776   8.824 -0.3997  0.1777  0.4221
  639MOL0     C86141   5.576  10.868   8.834  0.6163  0.3819 -0.5450
  639MOL0     C86142   5.687  10.818   8.741 -0.4204 -0.3550 -0.7494
  639MOL0     C86143   5.819  10.829   8.820 -0.4696  0.3337  0.9061
  639MOL0     C86144   5.935  10.792   8.725 -0.0088  0.5770 -0.0415
  639MOL0     C86145   5.957  10.638   8.738 -0.2839  0.2576 -1.0768
  639MOL0     C86146   6.069  10.606   8.651  0.9033 -0.1220  0.7258
  639MOL0     N86147   6.111  10.470   8.678 -0.1780 -0.0070 -0.1315
  639MOL0     C86148   6.075  10.376   8.773 -0.4301  0.1262 -0.4496
  639MOL0     C86149   6.176  10.287   8.770  0.5697 -0.0283  0.3243
  639MOL0     C86150   6.198  10.163   8.859 -0.9725 -0.2930  0.1091
  639MOL0     C86151   6.078  10.125   8.953 -0.1309  0.2928 -0.3639
  639MOL0     C86152   6.106   9.984   9.019  0.0700 -0.2186 -0.9504
  639MOL0     C86153   6.004   9.957   9.141 -1.2759 -0.4868 -0.1437
  639MOL0     O86154   5.867   9.990   9.114 -0.2681 -0.3529 -0.0543
  639MOL0     C86155   5.796   9.993   9.224  0.3445  0.0587 -0.0562
  639MOL0     C86156   5.839   9.976   9.355 -0.5169  1.2480  0.0122
  639MOL0     C86157   5.750   9.988   9.469 -0.1475  0.1607  0.7758
  639MOL0     C86158   5.808   9.980   9.614 -0.8205 -0.3167 -0.0405
  639MOL0     C86159   5.614  10.000   9.433  0.2026 -0.2417 -0.8945
  639MOL0     C86160   5.523  10.031   9.543 -0.1785  0.4385  0.1871
  639MOL0     O86161   5.537  10.141   9.628  0.7692  0.8669  0.6559
  639MOL0     C86162   5.450  10.162   9.730  0.8717 -0.0038 -0.7828
  639MOL0     C86163   5.313  10.117   9.749  0.2084 -0.6343 -0.0530
  639MOL0     C86164   5.245  10.164   9.865 -0.3347  0.1771 -0.6243
  639MOL0     C86165   5.307  10.250   9.960 -0.0170 -0.5100 -0.5552
  639MOL0     O86166   5.220  10.304  10.058 -0.2073 -0.0811 -0.1471
  639MOL0     C86167   5.254  10.431  10.124 -0.7390  0.7679  0.4111
  639MOL0     C86168   5.138  10.449  10.224  0.9808 -0.4743  0.4034
  639MOL0     C86169   5.169  10.553  10.336 -0.7327  0.4839  0.5486
  639MOL0     C86170   5.049  10.556  10.429 -0.2154  0.3502  0.9767
  639MOL0     C86171   5.069  10.668  10.539 -0.6841 -0.1948  0.9311
  639MOL0     C86172   5.011  10.806  10.486  0.2625  0.1424 -0.2360
  639MOL0     C86173   5.080  10.935  10.549  0.0143 -0.2952 -0.4451
  639MOL0     C86174   5.140  11.041  10.453  0.3123 -0.4537  0.3220
  639MOL0    Cl86175   5.284  10.974  10.372  0.4151  0.0123  0.3623
  639MOL0     C86176   5.438  10.282   9.941  0.2679 -0.3774 -0.5415
  639MOL0     C86177   5.503  10.248   9.829 -0.0937  0.0925  0.0384
  639MOL0     O86178   5.430   9.950   9.549  0.7303 -0.4426  0.3053
  639MOL0     C86179   5.574  10.022   9.305 -0.6162  0.1958  1.0511
  639MOL0     C86180   5.667  10.026   9.197 -0.4623  1.1936  0.0655
  639MOL0     N86181   6.259  10.312   8.662 -0.5041 -0.4254 -0.1801
  639MOL0     N86182   6.220  10.419   8.607 -0.2994  0.0479 -0.7555
  639MOL0     C86183   5.158  10.838   9.134 -1.7241 -0.1863  1.6491
  639MOL0     C86184   5.069  10.792   9.224  0.1200 -0.1422 -0.2242
  639MOL0     C86185   4.980  10.548   9.620  0.2029 -0.1644 -0.6972
  639MOL0     C86186   4.848  10.522   9.592  0.8878 -0.2192 -0.2993
  639MOL0     C86187   4.776  10.423   9.657 -0.5105  0.6499  0.7974
  639MOL0     C86188   4.834  10.346   9.760  0.5355  0.9759  0.3226
  639MOL0     O86189   4.785  10.229   9.825  0.2933 -0.3570  0.2519
  639MOL0     C86190   4.656  10.178   9.782  0.1066 -0.3921  0.1333
  639MOL0     C86191   4.664  10.091   9.659  0.1714 -0.0025  0.2177
  639MOL0     C86192   4.513  10.060   9.633 -0.5019  0.1982  0.9641
  639MOL0     C86193   4.490   9.914   9.588 -0.3822  0.3248  0.2794
  639MOL0     C86194   4.576   9.889   9.469  0.6765  0.3354 -0.0260
  639MOL0     C86195   4.638   9.885   9.360  0.1743 -0.3957 -0.1550
  639MOL0     C86196   4.969  10.368   9.789  0.4423  0.2785 -0.0696
  639MOL0     C86197   5.039  10.467   9.711 -0.1601  0.1973 -0.6174
  639MOL0     H86198   5.287  10.625   9.424 -2.9803  0.3540  2.0834
  639MOL0     H86199   5.445  10.668   9.236 -1.0514 -0.3760  1.4611
  639MOL0     H86200   5.257  10.754   8.911  0.5355 -1.3398  2.0489
  639MOL0     H86201   5.292  10.917   8.879  3.2443  1.3163 -1.3276
  639MOL0     H86202   5.479  10.673   8.851  0.5406  0.7370  1.6766
  639MOL0     H86203   5.413  10.772   8.722  0.3910 -0.1871  0.1393
  639MOL0     H86204   5.546  10.961   8.785  0.7293 -0.7915 -2.9950
  639MOL0     H86205   5.619  10.886   8.932  2.2088 -1.4881 -0.8364
  639MOL0     H86206   5.678  10.715   8.706  1.8514 -0.9423  0.1879
  639MOL0     H86207   5.702  10.883   8.654  2.1223  0.0857 -0.0835
  639MOL0     H86208   5.839  10.934   8.842 -1.7767  0.8918 -0.4244
  639MOL0     H86209   5.817  10.776   8.916 -2.3311 -2.0412 -0.3230
  639MOL0     H86210   5.908  10.813   8.621 -1.0831 -1.4843 -0.2292
  639MOL0     H86211   6.023  10.851   8.754  0.9374 -0.7341 -0.1427
  639MOL0     H86212   5.982  10.626   8.844 -2.7655  1.1973 -0.3304
  639MOL0     H86213   5.867  10.578   8.724  0.4045 -1.4606  1.1332
  639MOL0     H86214   6.156  10.670   8.670  1.9520  0.0833 -3.5978
  639MOL0     H86215   6.043  10.618   8.545  1.3526 -0.4147  0.5781
  639MOL0     H86216   5.986  10.363   8.834 -0.7385 -1.3953 -1.1574
  639MOL0     H86217   6.227  10.085   8.788  0.9677  1.1005 -0.7369
  639MOL0     H86218   6.288  10.185   8.918 -2.7007  4.4497  1.4717
  639MOL0     H86219   5.981  10.115   8.903 -0.4083 -2.0409  0.5131
  639MOL0     H86220   6.071  10.198   9.034 -1.1465 -1.3147  1.0597
  639MOL0     H86221   6.204   9.991   9.067 -0.5591  0.3183  0.3077
  639MOL0     H86222   6.105   9.904   8.945  1.8190 -0.5261 -0.6707
  639MOL0     H86223   6.050  10.023   9.215 -1.0674 -0.2113 -0.5122
  639MOL0     H86224   6.010   9.850   9.161 -3.2912 -1.0207 -1.9526
  639MOL0     H86225   5.936   9.934   9.378  0.0501  1.8178 -1.2325
  639MOL0     H86226   5.729   9.961   9.687 -0.3259  0.8679  0.8417
  639MOL0     H86227   5.866   9.888   9.622 -2.2873 -1.2219  0.5682
  639MOL0     H86228   5.865  10.069   9.642  0.4412  0.0637 -3.3392
  639MOL0     H86229   5.262  10.047   9.684 -0.0310 -0.2463 -0.2874
  639MOL0     H86230   5.142  10.133   9.878 -0.2047  0.2591  0.7402
  639MOL0     H86231   5.348  10.416  10.179 -0.7997 -0.7512  0.1484
  639MOL0     H86232   5.259  10.508  10.047  1.7776 -0.0269 -0.3480
  639MOL0     H86233   5.050  10.488  10.173 -0.1439 -1.5200  1.4786
  639MOL0     H86234   5.120  10.346  10.257  0.1304 -0.5504 -0.2538
  639MOL0     H86235   5.191  10.645  10.280 -0.3043  0.7272  1.1092
  639MOL0     H86236   5.258  10.512  10.382 -1.2742 -0.5208  0.7130
  639MOL0     H86237   4.954  10.565  10.376 -0.2959 -0.4492  0.9708
  639MOL0     H86238   5.056  10.462  10.486  4.1439 -0.2245 -0.1098
  639MOL0     H86239   5.173  10.672  10.572 -0.4116  2.6257  0.0477
  639MOL0     H86240   5.017  10.645  10.632  1.1405 -0.5980  1.8977
  639MOL0     H86241   4.998  10.809  10.378  3.1635  0.1310 -0.6698
  639MOL0     H86242   4.907  10.795  10.516  0.1695 -1.2071 -1.0241
  639MOL0     H86243   5.156  10.904  10.622 -0.5679 -3.0139 -0.8864
  639MOL0     H86244   4.993  10.977  10.599  0.0085 -0.4776 -0.3007
  639MOL0     H86245   5.178  11.121  10.517 -1.8586  0.8877  0.0229
  639MOL0     H86246   5.078  11.084  10.374  1.2488  1.6375  0.6631
  639MOL0     H86247   5.491  10.339  10.017  0.3457 -2.7844  1.3384
  639MOL0     H86248   5.609  10.267   9.818  0.2075 -1.6958 -0.3885
  639MOL0     H86249   5.471  10.036   9.275 -0.8940 -0.9407  1.4146
  639MOL0     H86250   5.627  10.039   9.097  0.3597 -3.0297 -0.9895
  639MOL0     H86251   5.130  10.901   9.050  0.2201 -2.1975 -0.6802
  639MOL0     H86252   4.964  10.816   9.212 -1.1690 -3.0610  3.4667
  639MOL0     H86253   4.806  10.602   9.531  0.7494 -0.6427 -0.7605
  639MOL0     H86254   4.672  10.403   9.631 -0.3522  1.6321 -0.7250
  639MOL0     H86255   4.637  10.114   9.869 -1.3316  2.1563  1.8370
  639MOL0     H86256   4.566  10.241   9.783  0.2460 -0.1855 -0.2556
  639MOL0     H86257   4.719   9.999   9.681 -1.0884 -0.6960  0.5799
  639MOL0     H86258   4.733  10.126   9.582  1.4437 -1.5978  0.5814
  639MOL0     H86259   4.470  10.128   9.559  2.7581  0.9641 -0.4037
  639MOL0     H86260   4.460  10.074   9.728 -1.9054 -1.4169  0.4633
  639MOL0     H86261   4.385   9.894   9.563  0.6132 -2.2984 -2.5154
  639MOL0     H86262   4.526   9.840   9.660  1.6776  0.9403 -0.0344
  639MOL0     H86263   4.690   9.867   9.268  2.0692 -0.4974  0.8706
  639MOL0     H86264   5.022  10.311   9.865  0.8515 -0.3447 -0.8049
  639MOL0     H86265   5.142  10.483   9.742 -0.2544  1.7170 -0.9851
  640MOL0     O86266   7.832   4.657   8.272 -0.1828 -0.2661 -0.5328
  640MOL0     C86267   7.787   4.677   8.385  0.3648 -0.4690  0.4630
  640MOL0     O86268   7.857   4.723   8.492 -0.0793 -0.6230 -0.5266
  640MOL0     C86269   7.988   4.762   8.474  1.1914 -0.9395 -0.6842
  640MOL0     C86270   8.012   4.900   8.476 -0.2118  0.2914 -0.0294
  640MOL0     C86271   8.146   4.944   8.457  0.0799  0.4748 -0.3313
  640MOL0     C86272   8.251   4.860   8.429 -0.6277  0.5636 -0.2731
  640MOL0     O86273   8.373   4.915   8.393  0.0795  0.8947  0.8287
  640MOL0     C86274   8.501   4.869   8.457 -0.5113 -0.1247  0.0012
  640MOL0     C86275   8.545   4.918   8.594 -0.3428  0.4192  0.8610
  640MOL0     C86276   8.438   4.907   8.703 -0.3534 -0.0642  1.1323
  640MOL0     C86277   8.430   4.759   8.754  0.5251 -0.3980  0.1817
  640MOL0     C86278   8.349   4.763   8.890  0.7335 -0.9998  0.7521
  640MOL0     C86279   8.208   4.808   8.874  0.6623  0.4355 -1.3416
  640MOL0     C86280   8.138   4.805   9.008  0.5772  0.9392 -0.2226
  640MOL0     C86281   7.988   4.780   8.995 -0.5501 -0.4723 -0.6720
  640MOL0     N86282   7.955   4.646   8.957  0.0999 -0.0789 -0.3870
  640MOL0     C86283   7.911   4.604   8.831  0.8103 -0.0308 -0.0022
  640MOL0     C86284   7.878   4.475   8.839 -0.4040  0.9882 -0.0982
  640MOL0     C86285   7.840   4.380   8.729  0.7873 -0.4942  0.5526
  640MOL0     C86286   7.704   4.322   8.741 -0.0350  0.3608  0.2464
  640MOL0     C86287   7.661   4.240   8.614 -0.7200  1.1432  0.1917
  640MOL0     C86288   7.763   4.126   8.584  0.7345 -0.8150 -0.4187
  640MOL0     O86289   7.711   4.058   8.474  0.7825 -0.0791 -0.3119
  640MOL0     C86290   7.635   3.945   8.499 -0.8152 -0.5764 -0.0285
  640MOL0     C86291   7.607   3.889   8.629 -0.2429 -0.2467  0.5214
  640MOL0     C86292   7.535   3.775   8.628 -0.7774 -0.3583  0.2292
  640MOL0     C86293   7.487   3.739   8.772  0.6643  1.0429  0.6113
  640MOL0     C86294   7.495   3.708   8.507 -0.4014  0.2059 -0.5264
  640MOL0     C86295   7.421   3.584   8.505 -0.8427  0.2424  0.0165
  640MOL0     O86296   7.334   3.569   8.394 -0.1985 -0.0874  0.3280
  640MOL0     C86297   7.245   3.459   8.410 -0.2500 -0.0243  0.7332
  640MOL0     C86298   7.111   3.485   8.405  0.0408 -0.6399  1.0112
  640MOL0     C86299   7.015   3.372   8.419  0.0789  0.2211  1.0641
  640MOL0     C86300   7.065   3.242   8.424 -0.2232  0.1786  0.6261
  640MOL0     O86301   6.979   3.137   8.449 -0.2458 -0.3314  0.9509
  640MOL0     C86302   6.862   3.168   8.524 -1.4938 -0.5584  1.3766
  640MOL0     C86303   6.801   3.046   8.579 -0.2180 -0.6253 -0.9268
  640MOL0     C86304   6.886   2.964   8.682  0.2372  0.4603  0.0508
  640MOL0     C86305   6.794   2.842   8.731 -0.2090 -0.6347  0.4416
  640MOL0     C86306   6.847   2.775   8.854 -0.6967 -0.5339 -0.5623
  640MOL0     C86307   6.750   2.679   8.930 -0.3845  0.8493 -0.3920
  640MOL0     C86308   6.820   2.584   9.024 -0.1024  0.4356  0.3363
  640MOL0     C86309   6.748   2.454   9.051 -0.1756 -0.1752 -0.3078
  640MOL0    Cl86310   6.792   2.382   9.209  0.1550 -0.4414 -0.1632
  640MOL0     C86311   7.202   3.217   8.408 -0.5131  0.5652  0.1485
  640MOL0     C86312   7.289   3.323   8.417  0.3392 -0.6181 -0.4944
  640MOL0     O86313   7.409   3.513   8.606  0.4052 -0.2890 -0.1094
  640MOL0     C86314   7.523   3.771   8.382  1.6504  0.2190 -0.2297
  640MOL0     C86315   7.589   3.886   8.384  0.3704  0.5924  0.8682
  640MOL0     N86316   7.918   4.437   8.968 -0.6690  0.3538 -0.1909
  640MOL0     N86317   7.959   4.536   9.033  0.0393 -0.3785  0.1544
  640MOL0     C86318   8.225   4.723   8.426  0.2273  0.4853  0.3259
  640MOL0     C86319   8.096   4.673   8.446 -0.2434  0.4990  0.1736
  640MOL0     C86320   7.646   4.628   8.416  0.2980 -0.4911 -0.2560
  640MOL0     C86321   7.570   4.547   8.330  0.5251 -0.9265 -1.0661
  640MOL0     C86322   7.439   4.510   8.362  0.2454 -0.7738  0.1019
  640MOL0     C86323   7.386   4.540   8.488  0.5764 -0.0039 -0.7223
  640MOL0     O86324   7.270   4.500   8.545 -0.5125  0.1626  0.9087
  640MOL0     C86325   7.198   4.392   8.482 -0.0333  0.0601 -0.5538
  640MOL0     C86326   7.266   4.253   8.503  0.0080 -0.0051 -0.2037
  640MOL0     C86327   7.172   4.145   8.459  0.4524  0.0361 -0.9242
  640MOL0     C86328   7.203   4.004   8.498 -0.0829 -0.2278  0.1574
  640MOL0     C86329   7.196   3.983   8.641  0.2314  0.7010 -0.0160
  640MOL0     C86330   7.185   3.986   8.761  0.7708 -0.5934 -0.4678
  640MOL0     C86331   7.458   4.614   8.580  0.1911 -1.0148  0.0041
  640MOL0     C86332   7.582   4.660   8.541 -0.1900 -0.4754 -0.4643
  640MOL0     H86333   7.927   4.966   8.489 -1.2963 -0.9019 -0.7772
  640MOL0     H86334   8.166   5.051   8.460 -1.0693  0.6727  0.7902
  640MOL0     H86335   8.499   4.760   8.468 -1.4753 -0.3071 -1.6045
  640MOL0     H86336   8.575   4.882   8.378  0.7063 -1.4928  0.8832
  640MOL0     H86337   8.629   4.861   8.634 -0.4809  0.4802  1.2389
  640MOL0     H86338   8.577   5.022   8.581  2.9080 -0.7263 -1.6389
  640MOL0     H86339   8.456   4.982   8.781 -4.3306  1.1976  1.0375
  640MOL0     H86340   8.342   4.930   8.657  0.6314  1.7496 -0.1482
  640MOL0     H86341   8.385   4.688   8.684 -1.0585 -0.9427  1.6910
  640MOL0     H86342   8.534   4.736   8.780  1.8860  4.3462 -0.1708
  640MOL0     H86343   8.351   4.663   8.935  2.3050 -1.0145  0.6824
  640MOL0     H86344   8.394   4.833   8.961  2.1792 -0.9392 -0.2011
  640MOL0     H86345   8.200   4.913   8.845  1.5820  0.6422 -0.9099
  640MOL0     H86346   8.145   4.748   8.807 -0.0750  1.7768 -1.8861
  640MOL0     H86347   8.177   4.719   9.064  0.6350  1.2051  0.1491
  640MOL0     H86348   8.149   4.894   9.070  1.2114  1.0025 -0.4226
  640MOL0     H86349   7.946   4.855   8.926 -1.4922  0.2735  0.6682
  640MOL0     H86350   7.949   4.794   9.096 -0.3407  1.2762 -0.7938
  640MOL0     H86351   7.905   4.670   8.745  2.3524  0.4179  0.1932
  640MOL0     H86352   7.858   4.413   8.626  0.1941 -1.2018  0.2139
  640MOL0     H86353   7.922   4.307   8.725  1.6404  0.4785 -0.8449
  640MOL0     H86354   7.637   4.406   8.757 -0.3311  0.2056 -0.1489
  640MOL0     H86355   7.708   4.262   8.832  2.0655  1.3732  0.8682
  640MOL0     H86356   7.648   4.302   8.525 -1.9728  0.7866  0.1097
  640MOL0     H86357   7.563   4.197   8.639 -1.5752  2.0256 -1.4683
  640MOL0     H86358   7.787   4.062   8.669 -0.7574 -1.2522 -0.2814
  640MOL0     H86359   7.858   4.175   8.561  0.9179 -0.6279  0.6787
  640MOL0     H86360   7.645   3.931   8.722  0.9939 -0.7822  0.2873
  640MOL0     H86361   7.381   3.713   8.763  0.8053 -0.2490  2.1751
  640MOL0     H86362   7.540   3.650   8.808  0.6333  0.2149 -1.2330
  640MOL0     H86363   7.502   3.824   8.838 -0.4488  2.2012 -0.5665
  640MOL0     H86364   7.071   3.586   8.399  0.7010 -0.4533 -0.8697
  640MOL0     H86365   6.910   3.400   8.420  0.0390  0.1292  2.7495
  640MOL0     H86366   6.903   3.221   8.610 -0.4679  0.8181  0.0895
  640MOL0     H86367   6.784   3.224   8.471 -0.9860 -1.4278 -0.3643
  640MOL0     H86368   6.720   3.089   8.638  0.2782  1.0520 -1.4137
  640MOL0     H86369   6.765   2.991   8.491  0.0411  0.7002 -1.9045
  640MOL0     H86370   6.913   3.030   8.765  2.9850 -1.8061  1.0905
  640MOL0     H86371   6.975   2.919   8.638  0.1362 -0.0402  0.3462
  640MOL0     H86372   6.695   2.881   8.758  0.1717  1.2379 -0.7029
  640MOL0     H86373   6.777   2.775   8.646  0.7192  0.8872 -1.0020
  640MOL0     H86374   6.864   2.857   8.924 -0.3837 -0.9564 -0.1448
  640MOL0     H86375   6.944   2.738   8.821 -0.8045 -0.5400 -0.8788
  640MOL0     H86376   6.664   2.726   8.979 -0.2714 -0.1169  0.7869
  640MOL0     H86377   6.705   2.614   8.854 -0.6822  2.2469 -1.4460
  640MOL0     H86378   6.838   2.650   9.109 -0.8086  1.9683 -0.6370
  640MOL0     H86379   6.914   2.573   8.969 -0.9305  1.5969 -1.4524
  640MOL0     H86380   6.753   2.384   8.967  0.6060 -0.2463 -0.2048
  640MOL0     H86381   6.641   2.476   9.062 -1.0710 -2.2283 -3.3859
  640MOL0     H86382   7.234   3.114   8.406 -0.2435  0.6166  1.3577
  640MOL0     H86383   7.395   3.309   8.436  0.1202 -0.1015  1.3294
  640MOL0     H86384   7.490   3.729   8.288  0.8862 -0.1382  0.1840
  640MOL0     H86385   7.612   3.923   8.284 -0.4830 -2.1303 -0.4259
  640MOL0     H86386   8.305   4.655   8.396  1.2028  2.1288 -0.9712
  640MOL0     H86387   8.087   4.567   8.425  2.0676  0.4588 -0.9265
  640MOL0     H86388   7.602   4.536   8.227  2.1822 -0.2512 -0.6640
  640MOL0     H86389   7.384   4.455   8.286 -0.8592  1.7148 -1.0018
  640MOL0     H86390   7.100   4.390   8.530  0.2253 -1.3930 -0.0340
  640MOL0     H86391   7.176   4.409   8.376 -0.0792  0.4623 -0.4785
  640MOL0     H86392   7.278   4.225   8.608 -2.8206 -3.5939 -0.6167
  640MOL0     H86393   7.359   4.256   8.446 -0.1993  1.6866 -0.4874
  640MOL0     H86394   7.182   4.148   8.350  0.7800 -2.5677 -1.0384
  640MOL0     H86395   7.072   4.154   8.504  0.4720 -0.3089 -0.8065
  640MOL0     H86396   7.302   3.971   8.465 -0.6842  0.1468 -2.1986
  640MOL0     H86397   7.126   3.941   8.453 -0.4497  1.2408 -1.3768
  640MOL0     H86398   7.177   3.999   8.867  1.7694  0.0492 -0.4508
  640MOL0     H86399   7.423   4.646   8.678 -0.6606 -2.3838  0.1869
  640MOL0     H86400   7.631   4.720   8.618  0.8179 -1.1810 -0.5289
  641MOL0     O86401  10.148   6.925   0.981 -0.0447 -0.0118  0.4300
  641MOL0     C86402  10.192   6.881   1.085 -0.2622  0.2079  0.0851
  641MOL0     O86403  10.131   6.780   1.158 -0.7068 -0.0789  0.3721
  641MOL0     C86404  10.000   6.764   1.141  0.3927 -1.1939 -0.0085
  641MOL0     C86405   9.909   6.862   1.093 -0.8214  0.1983 -0.7104
  641MOL0     C86406   9.776   6.834   1.089 -0.2004 -0.2864 -0.3259
  641MOL0     C86407   9.723   6.704   1.124 -0.5465  0.3916 -0.3873
  641MOL0     O86408   9.587   6.662   1.125  0.0548 -0.1723 -0.1247
  641MOL0     C86409   9.490   6.762   1.154  0.2792 -0.4808  0.0252
  641MOL0     C86410   9.347   6.712   1.130 -1.1881  0.0046  0.9605
  641MOL0     C86411   9.248   6.802   1.181  1.1353 -0.1243 -0.1899
  641MOL0     C86412   9.199   6.905   1.081  0.0888  0.3540  0.6385
  641MOL0     C86413   9.131   7.019   1.147  0.1047  0.0735  0.4224
  641MOL0     C86414   9.018   6.985   1.250  0.4068  0.1798  1.1138
  641MOL0     C86415   8.926   7.105   1.273  0.3925  0.2410  0.0303
  641MOL0     C86416   8.787   7.056   1.327 -0.5544  0.1996 -0.2955
  641MOL0     N86417   8.684   7.162   1.346 -0.0424  0.6314 -0.7087
  641MOL0     C86418   8.627   7.244   1.247 -0.5816  0.4047 -0.3299
  641MOL0     C86419   8.525   7.304   1.309  1.1292  0.6324  0.0450
  641MOL0     C86420   8.423   7.398   1.248  0.4934 -0.2284 -0.5998
  641MOL0     C86421   8.353   7.347   1.132  0.7623 -0.7587  0.6798
  641MOL0     C86422   8.270   7.465   1.068 -0.7006 -0.3577  0.6072
  641MOL0     C86423   8.174   7.401   0.972 -0.3261  0.7171  0.3108
  641MOL0     O86424   8.235   7.372   0.847 -0.1270 -0.0462  0.1201
  641MOL0     C86425   8.167   7.289   0.756  0.5940 -0.7062 -1.5450
  641MOL0     C86426   8.095   7.357   0.646 -0.0268  0.0429 -1.2177
  641MOL0     C86427   8.033   7.272   0.547  0.6095 -1.2541 -1.0613
  641MOL0     C86428   7.968   7.345   0.430  0.9159  0.8861 -0.2161
  641MOL0     C86429   8.054   7.130   0.557 -0.1507 -0.4217  0.5720
  641MOL0     C86430   8.001   7.028   0.458 -0.3529  0.5036  0.3307
  641MOL0     O86431   8.048   6.905   0.476  0.3538 -0.2417  0.4072
  641MOL0     C86432   7.969   6.796   0.452 -0.0045 -0.3308 -0.1829
  641MOL0     C86433   7.833   6.780   0.502 -0.6651  0.2584 -0.6920
  641MOL0     C86434   7.755   6.672   0.461  0.1292 -0.0392  0.8776
  641MOL0     C86435   7.805   6.567   0.377  0.6005 -1.3933 -0.5530
  641MOL0     O86436   7.737   6.453   0.337 -0.5705 -0.4783  0.9930
  641MOL0     C86437   7.599   6.430   0.371  0.3607  0.6708 -0.1208
  641MOL0     C86438   7.551   6.284   0.344  0.2376 -0.3402 -0.1571
  641MOL0     C86439   7.408   6.276   0.383  0.3426  0.8355 -0.2992
  641MOL0     C86440   7.344   6.134   0.363  0.6092 -0.1261 -0.1936
  641MOL0     C86441   7.198   6.111   0.407  0.4305  0.7548  0.1848
  641MOL0     C86442   7.169   5.956   0.409  0.2778 -0.2657  0.3184
  641MOL0     C86443   7.018   5.927   0.411 -0.4394  0.3892 -0.3269
  641MOL0     C86444   6.995   5.778   0.465  0.9353 -0.3054 -0.3435
  641MOL0    Cl86445   7.082   5.653   0.371  0.0543  0.1591 -0.2833
  641MOL0     C86446   7.944   6.580   0.337 -0.4629 -0.5952  0.1461
  641MOL0     C86447   8.020   6.699   0.370 -0.4645  0.3521  0.1736
  641MOL0     O86448   7.907   7.057   0.380 -0.6279  0.5859 -0.5851
  641MOL0     C86449   8.116   7.071   0.667 -0.8110 -0.2282  0.2210
  641MOL0     C86450   8.174   7.153   0.769  0.3078  0.2036  0.4536
  641MOL0     N86451   8.498   7.235   1.425 -0.5343 -1.1893 -0.9170
  641MOL0     N86452   8.588   7.143   1.442 -0.1561  0.4949  0.3062
  641MOL0     C86453   9.815   6.608   1.170 -0.2268  0.3585  0.5919
  641MOL0     C86454   9.955   6.640   1.173  0.5540  0.2575 -0.0683
  641MOL0     C86455  10.300   6.942   1.139 -0.0150 -0.4105 -0.0228
  641MOL0     C86456  10.355   7.061   1.089  1.1080  0.1401 -0.7046
  641MOL0     C86457  10.469   7.114   1.142  0.4751 -0.8222  0.4363
  641MOL0     C86458  10.532   7.055   1.252  0.4651  0.0129  0.6931
  641MOL0     O86459  10.647   7.110   1.284 -0.4266 -0.5372  0.1719
  641MOL0     C86460  10.735   7.055   1.390 -0.3437  0.2445 -0.0647
  641MOL0     C86461  10.844   7.156   1.412 -0.0981 -0.3310 -0.7299
  641MOL0     C86462  10.952   7.100   1.502 -0.4494  0.4208 -0.3816
  641MOL0     C86463  11.062   7.203   1.534  0.2418  0.0005 -0.6360
  641MOL0     C86464  11.166   7.132   1.615 -0.4086  0.5433  0.2200
  641MOL0     C86465  11.244   7.082   1.693  0.5581 -0.6430  0.6163
  641MOL0     C86466  10.478   6.944   1.305 -0.4729 -0.1880 -0.2779
  641MOL0     C86467  10.369   6.883   1.247 -0.8826 -0.5490  0.2080
  641MOL0     H86468   9.936   6.964   1.065 -3.5353  1.4313  0.7145
  641MOL0     H86469   9.705   6.907   1.052 -1.2199 -1.7720 -1.4452
  641MOL0     H86470   9.505   6.802   1.255  1.3389 -0.5360 -0.0995
  641MOL0     H86471   9.500   6.854   1.096  0.5703  1.5982  3.1165
  641MOL0     H86472   9.344   6.692   1.023  1.1654  0.4504  0.7481
  641MOL0     H86473   9.337   6.610   1.168  1.6078 -0.9687 -0.6322
  641MOL0     H86474   9.168   6.751   1.234  0.8057 -1.4352 -1.8468
  641MOL0     H86475   9.298   6.864   1.256  3.6018  0.3258 -2.0620
  641MOL0     H86476   9.276   6.941   1.012 -2.5800 -0.1373 -2.8932
  641MOL0     H86477   9.126   6.860   1.013  1.8089 -0.0477 -1.0304
  641MOL0     H86478   9.194   7.094   1.197  1.9717  1.4243 -3.5623
  641MOL0     H86479   9.093   7.078   1.064  3.0124  0.9975 -0.3828
  641MOL0     H86480   8.950   6.913   1.204 -1.3806  1.0737  2.2057
  641MOL0     H86481   9.070   6.947   1.338 -0.0177  0.4988  1.5089
  641MOL0     H86482   8.965   7.186   1.335  1.6438 -0.5560  0.3310
  641MOL0     H86483   8.911   7.153   1.176  1.1209  1.9071  0.7032
  641MOL0     H86484   8.803   7.009   1.424  0.5885 -0.0434 -0.5757
  641MOL0     H86485   8.744   6.973   1.270 -0.4906  0.0938 -0.1898
  641MOL0     H86486   8.656   7.248   1.143 -0.4245 -2.6186 -0.4912
  641MOL0     H86487   8.348   7.426   1.324 -0.2000  2.1600 -2.0562
  641MOL0     H86488   8.476   7.492   1.234 -0.0120  0.8140  3.2771
  641MOL0     H86489   8.286   7.265   1.159 -3.8298  3.2718  3.1782
  641MOL0     H86490   8.429   7.308   1.063  3.1246  1.4515  1.8907
  641MOL0     H86491   8.348   7.525   1.022 -0.2445 -1.8854 -0.7183
  641MOL0     H86492   8.210   7.528   1.135 -1.1287  0.0358 -0.1288
  641MOL0     H86493   8.096   7.475   0.953  0.1966  1.5403  1.2980
  641MOL0     H86494   8.136   7.302   0.999  0.9307 -0.1642 -0.9308
  641MOL0     H86495   8.107   7.465   0.638  0.3270  0.0197 -1.0240
  641MOL0     H86496   8.035   7.341   0.343  1.4736  0.4089  0.2276
  641MOL0     H86497   7.864   7.317   0.407  0.3112  2.9881 -0.2132
  641MOL0     H86498   7.964   7.453   0.448  2.5817  0.7279  1.2895
  641MOL0     H86499   7.796   6.860   0.566  0.9134 -0.3186  1.0266
  641MOL0     H86500   7.660   6.668   0.513  0.5449 -1.4992  1.5793
  641MOL0     H86501   7.576   6.446   0.477 -0.1416  0.2725 -0.1670
  641MOL0     H86502   7.536   6.495   0.311 -0.2570 -0.4365 -0.7007
  641MOL0     H86503   7.554   6.254   0.239  0.7204 -1.1923  0.0869
  641MOL0     H86504   7.614   6.214   0.399  1.9238  2.5867  1.8856
  641MOL0     H86505   7.346   6.353   0.336 -0.2253  0.3735 -0.3196
  641MOL0     H86506   7.390   6.298   0.489 -0.8438  2.5178 -0.7948
  641MOL0     H86507   7.362   6.110   0.258 -0.1689  1.3977 -0.7128
  641MOL0     H86508   7.400   6.069   0.430 -1.3655 -2.4802 -0.6673
  641MOL0     H86509   7.134   6.161   0.334  2.2318  2.6699 -0.1795
  641MOL0     H86510   7.188   6.151   0.508  1.2856  1.7425 -0.1086
  641MOL0     H86511   7.209   5.919   0.314 -1.6736  0.8583 -1.0034
  641MOL0     H86512   7.219   5.919   0.499 -0.7012  0.3709  1.1412
  641MOL0     H86513   6.977   5.934   0.310  1.0520 -1.0103 -1.0931
  641MOL0     H86514   6.969   6.002   0.473  0.2774  0.5400  0.0641
  641MOL0     H86515   6.887   5.767   0.452  1.0176 -2.6520  0.5050
  641MOL0     H86516   7.026   5.782   0.569 -0.9145  2.0590  0.2181
  641MOL0     H86517   7.991   6.496   0.287 -0.3517 -1.7163  2.0310
  641MOL0     H86518   8.112   6.719   0.315 -0.3516  1.7511  0.8454
  641MOL0     H86519   8.120   6.963   0.683 -1.9931  0.1179  3.6467
  641MOL0     H86520   8.226   7.123   0.858 -1.4096 -0.2475  1.3484
  641MOL0     H86521   9.782   6.507   1.191 -0.9954  0.8690  1.9464
  641MOL0     H86522  10.027   6.568   1.209  1.5294  1.4117  0.3516
  641MOL0     H86523  10.316   7.097   0.995 -0.6581 -0.7278 -0.3386
  641MOL0     H86524  10.499   7.206   1.093 -1.0494 -1.3495 -1.6314
  641MOL0     H86525  10.665   7.048   1.474 -2.2664  1.7389 -1.4604
  641MOL0     H86526  10.788   6.960   1.375  1.0709  0.6883  1.7838
  641MOL0     H86527  10.807   7.243   1.466 -0.8588 -1.8138  1.2859
  641MOL0     H86528  10.885   7.192   1.317  0.6223  0.4613 -0.1342
  641MOL0     H86529  10.992   7.015   1.445  1.7136  1.4999 -0.5481
  641MOL0     H86530  10.901   7.073   1.595  1.0199 -0.0307  0.3232
  641MOL0     H86531  11.033   7.281   1.605  1.5853 -0.4379  0.4529
  641MOL0     H86532  11.110   7.252   1.449  0.9748 -0.5428 -0.5490
  641MOL0     H86533  11.324   7.039   1.750  1.3479 -2.7628 -1.8724
  641MOL0     H86534  10.536   6.893   1.381 -0.3964 -0.3433 -0.4416
  641MOL0     H86535  10.340   6.782   1.277 -0.5616 -0.9280 -0.7303
  642MOL0     O86536   8.057  10.462  11.217  0.0332  0.1788 -0.0798
  642MOL0     C86537   8.118  10.372  11.166 -0.4770  0.3130  0.2268
  642MOL0     O86538   8.251  10.367  11.120 -0.3083  0.4461 -0.0220
  642MOL0     C86539   8.335  10.459  11.185 -0.3542  1.0376  0.7773
  642MOL0     C86540   8.327  10.491  11.318 -0.1087 -0.5763 -0.3596
  642MOL0     C86541   8.422  10.579  11.372 -0.2366 -0.0152 -0.5354
  642MOL0     C86542   8.536  10.620  11.298  0.8116 -0.1127 -0.9658
  642MOL0     O86543   8.630  10.699  11.348  0.3717  0.2180 -1.1339
  642MOL0     C86544   8.588  10.828  11.404 -0.2489  0.8749 -0.7269
  642MOL0     C86545   8.698  10.918  11.372 -0.0211 -0.1975  0.2767
  642MOL0     C86546   8.693  10.964  11.229  0.1114 -0.7855 -0.0017
  642MOL0     C86547   8.779  11.087  11.205  0.0004  0.2994  0.0410
  642MOL0     C86548   8.792  11.141  11.055  0.7748  0.3020 -0.1098
  642MOL0     C86549   8.751  11.036  10.954  0.1963  0.5104 -0.7794
  642MOL0     C86550   8.739  11.090  10.816  1.0854 -0.3558  0.0803
  642MOL0     C86551   8.873  11.133  10.737 -0.2167 -0.1079 -0.8180
  642MOL0     N86552   8.871  11.232  10.630  0.2696  0.2959  0.7641
  642MOL0     C86553   8.859  11.193  10.496  0.2648 -0.6260  0.3685
  642MOL0     C86554   8.869  11.313  10.431 -0.5228 -0.1672  0.2538
  642MOL0     C86555   8.849  11.336  10.283 -0.3356  0.8720 -0.3069
  642MOL0     C86556   8.704  11.377  10.254  0.8727  0.3635  0.7606
  642MOL0     C86557   8.679  11.427  10.106  0.8661  0.1471 -0.0375
  642MOL0     C86558   8.751  11.555  10.084 -0.4191  0.4711  0.7543
  642MOL0     O86559   8.719  11.600   9.950 -0.8740 -0.6258  0.0518
  642MOL0     C86560   8.814  11.650   9.862 -0.1875 -0.3183 -0.5449
  642MOL0     C86561   8.781  11.752   9.768 -0.1736  0.6157 -0.7264
  642MOL0     C86562   8.874  11.814   9.680  0.5998  0.0705 -0.3808
  642MOL0     C86563   8.815  11.930   9.600 -0.6574 -0.2036 -0.5531
  642MOL0     C86564   9.002  11.764   9.674 -0.9371 -0.6553  0.5985
  642MOL0     C86565   9.101  11.800   9.564 -0.2356  0.1560 -0.3017
  642MOL0     O86566   9.068  11.896   9.470 -0.4963  0.7693 -0.4515
  642MOL0     C86567   9.171  11.932   9.390  0.4232  0.2348 -0.1630
  642MOL0     C86568   9.247  12.038   9.421  0.0254  0.0410 -1.5493
  642MOL0     C86569   9.334  12.099   9.338  0.2209  0.3315 -0.6421
  642MOL0     C86570   9.354  12.045   9.209 -0.5769 -0.0817 -0.7566
  642MOL0     O86571   9.443  12.087   9.110 -0.9363 -0.1303 -0.3190
  642MOL0     C86572   9.477  12.222   9.115  0.5173 -0.4822 -0.5418
  642MOL0     C86573   9.351  12.313   9.107 -0.4077  0.0653 -0.2385
  642MOL0     C86574   9.255  12.277   8.991  0.4280  0.0586 -0.3707
  642MOL0     C86575   9.114  12.337   9.008 -0.1662 -0.0406 -0.7190
  642MOL0     C86576   9.013  12.295   8.906  0.3909  0.5623  0.2809
  642MOL0     C86577   8.960  12.151   8.938 -0.1367 -0.5929 -0.0967
  642MOL0     C86578   8.833  12.136   9.033  0.0327 -0.3209 -0.2162
  642MOL0     C86579   8.825  11.997   9.086  0.2835 -0.0097  0.5456
  642MOL0    Cl86580   8.775  11.875   8.968  0.4403 -0.2995  0.6907
  642MOL0     C86581   9.289  11.917   9.187 -1.0803  0.1516  0.3032
  642MOL0     C86582   9.189  11.871   9.267  0.0411  0.9673  0.2296
  642MOL0     O86583   9.213  11.751   9.582 -0.3835 -0.5313 -0.2131
  642MOL0     C86584   9.042  11.668   9.777  0.3998 -0.5437  0.3091
  642MOL0     C86585   8.956  11.621   9.872  0.9661  0.2762 -0.3226
  642MOL0     N86586   8.907  11.413  10.521  0.5419 -0.0108 -0.3270
  642MOL0     N86587   8.915  11.358  10.636 -0.0784 -0.5359 -0.0472
  642MOL0     C86588   8.551  10.572  11.168  0.4694 -0.0244 -0.6681
  642MOL0     C86589   8.442  10.504  11.110  0.2664 -0.7050  0.2809
  642MOL0     C86590   8.044  10.250  11.128 -0.5174 -0.0438 -0.0541
  642MOL0     C86591   8.113  10.137  11.088 -0.3283 -0.0224  0.4609
  642MOL0     C86592   8.042  10.020  11.073 -0.6367  0.2597  0.1704
  642MOL0     C86593   7.909  10.008  11.106  0.9590 -0.1899  0.0907
  642MOL0     O86594   7.853   9.878  11.101 -0.0527 -0.0591 -1.1555
  642MOL0     C86595   7.716   9.865  11.132  0.6565 -0.0038 -0.0159
  642MOL0     C86596   7.689   9.716  11.154 -0.1260  0.1049  0.1187
  642MOL0     C86597   7.724   9.626  11.031  0.1411  0.7070 -0.2722
  642MOL0     C86598   7.713   9.476  11.072 -0.0521 -0.1945 -0.4174
  642MOL0     C86599   7.741   9.390  10.967 -0.3571 -0.0791  0.2701
  642MOL0     C86600   7.765   9.311  10.876  0.6731 -0.2756 -0.2088
  642MOL0     C86601   7.833  10.129  11.128  0.5491  1.3287  0.9622
  642MOL0     C86602   7.901  10.252  11.139 -0.1229  0.2461  0.5385
  642MOL0     H86603   8.266  10.432  11.386 -1.3278 -0.8145 -1.6028
  642MOL0     H86604   8.397  10.603  11.475  1.9540 -0.1830  0.0865
  642MOL0     H86605   8.492  10.864  11.366 -0.0005  0.5698 -1.6661
  642MOL0     H86606   8.587  10.799  11.510 -0.8894 -4.4600 -1.8964
  642MOL0     H86607   8.685  11.001  11.442  1.1317  0.2991 -0.0746
  642MOL0     H86608   8.791  10.860  11.377  0.3428 -0.0799 -2.9274
  642MOL0     H86609   8.713  10.880  11.162 -2.0740 -0.6132 -0.9608
  642MOL0     H86610   8.592  10.995  11.202  0.0285  0.4361  1.5623
  642MOL0     H86611   8.737  11.160  11.274 -1.6357 -2.0941  1.7333
  642MOL0     H86612   8.884  11.065  11.230  0.7257  1.7236 -1.5453
  642MOL0     H86613   8.720  11.222  11.048  1.6630  1.2765  1.3734
  642MOL0     H86614   8.891  11.183  11.035  1.3810 -1.0001  0.0434
  642MOL0     H86615   8.829  10.960  10.959 -0.2320  0.0131 -1.4279
  642MOL0     H86616   8.658  10.987  10.983 -0.4457  1.9877 -0.2217
  642MOL0     H86617   8.698  10.999  10.771  3.0100 -0.5437 -1.4747
  642MOL0     H86618   8.663  11.168  10.816 -0.0892 -1.4029  2.3005
  642MOL0     H86619   8.922  11.044  10.697  1.1729 -1.3247  3.0927
  642MOL0     H86620   8.942  11.173  10.812 -1.2600  0.4710 -0.1498
  642MOL0     H86621   8.844  11.093  10.457  1.3923  0.2453 -2.5170
  642MOL0     H86622   8.921  11.412  10.251  1.1009 -0.2952  0.0288
  642MOL0     H86623   8.874  11.245  10.228 -0.0912 -0.2574  1.5875
  642MOL0     H86624   8.688  11.457  10.327  3.9241  0.9681  0.9199
  642MOL0     H86625   8.639  11.292  10.274  1.4506 -0.1185  0.6049
  642MOL0     H86626   8.571  11.433  10.087  0.7530 -0.9965  0.2047
  642MOL0     H86627   8.711  11.350  10.035 -1.5342 -2.7701  1.7901
  642MOL0     H86628   8.858  11.556  10.107  0.6033 -0.5502 -3.1019
  642MOL0     H86629   8.709  11.625  10.157  0.3568  1.6294  0.1231
  642MOL0     H86630   8.676  11.780   9.762 -0.9758 -1.3507  2.2288
  642MOL0     H86631   8.755  11.917   9.509 -0.4638  3.0325 -1.2374
  642MOL0     H86632   8.744  11.986   9.661 -1.7229 -2.4710  0.4076
  642MOL0     H86633   8.898  12.000   9.588  1.1901 -2.4850 -1.9739
  642MOL0     H86634   9.227  12.080   9.519 -0.1636 -2.6225 -0.3739
  642MOL0     H86635   9.397  12.181   9.371 -1.5477  1.5156 -0.0815
  642MOL0     H86636   9.524  12.239   9.213 -2.5237  4.2500  0.4019
  642MOL0     H86637   9.554  12.259   9.046  2.0750 -1.1101  0.7708
  642MOL0     H86638   9.291  12.306   9.198  0.7129 -2.8448  0.3919
  642MOL0     H86639   9.385  12.417   9.102  0.4437  0.0563  2.8476
  642MOL0     H86640   9.240  12.169   9.005 -2.7617  0.6022  1.4251
  642MOL0     H86641   9.292  12.295   8.890 -2.0469  2.8402 -0.9110
  642MOL0     H86642   9.081  12.302   9.107  0.1963 -0.6565 -0.8078
  642MOL0     H86643   9.108  12.446   9.013 -2.4831 -0.1733  0.6050
  642MOL0     H86644   9.069  12.293   8.813  1.3335 -0.3686  0.8486
  642MOL0     H86645   8.926  12.362   8.905 -0.2881 -0.2785  1.2158
  642MOL0     H86646   8.921  12.109   8.845 -1.9808  0.7823 -0.0150
  642MOL0     H86647   9.045  12.092   8.973  1.1671  0.7655 -0.8553
  642MOL0     H86648   8.742  12.154   8.975 -1.0129 -0.2473  1.3794
  642MOL0     H86649   8.836  12.203   9.120  2.5558 -0.6768  0.0570
  642MOL0     H86650   8.749  12.001   9.165 -0.4125  0.4950 -0.1392
  642MOL0     H86651   8.923  11.971   9.126  1.6079  4.0500  0.4014
  642MOL0     H86652   9.328  11.865   9.099  2.1104  1.4268  0.8073
  642MOL0     H86653   9.124  11.793   9.227 -0.5393  2.6548 -2.4070
  642MOL0     H86654   9.148  11.647   9.783  1.5952  3.2335 -3.0888
  642MOL0     H86655   9.000  11.559   9.949  3.0802 -0.3657 -1.9499
  642MOL0     H86656   8.646  10.599  11.122  2.8067  0.3472  3.8070
  642MOL0     H86657   8.441  10.467  11.008 -0.1024  0.0051  0.0198
  642MOL0     H86658   8.219  10.138  11.066 -0.4024  1.3162  0.1235
  642MOL0     H86659   8.101   9.935  11.042 -0.2576  0.5958 -0.0500
  642MOL0     H86660   7.675   9.922  11.216 -4.0551  1.4859 -2.9765
  642MOL0     H86661   7.661   9.883  11.040  0.0141 -0.9198  0.1686
  642MOL0     H86662   7.588   9.701  11.195 -0.6616  1.3252 -0.7010
  642MOL0     H86663   7.758   9.687  11.234 -0.7937  0.6297  0.9000
  642MOL0     H86664   7.829   9.624  11.000 -0.1934 -1.2304 -1.4650
  642MOL0     H86665   7.655   9.640  10.948  2.2311  0.9404 -2.0600
  642MOL0     H86666   7.615   9.460  11.117  0.8386 -2.3934  0.9347
  642MOL0     H86667   7.781   9.451  11.155 -0.7460 -0.0960  0.1942
  642MOL0     H86668   7.786   9.245  10.795  1.1182 -1.2950  0.7113
  642MOL0     H86669   7.726  10.123  11.143  0.2007  2.6445 -0.6544
  642MOL0     H86670   7.837  10.336  11.165 -1.2694 -0.2456 -0.6559
  643MOL0     O86671   9.625   7.047   0.415 -0.1305  0.3803 -0.0035
  643MOL0     C86672   9.599   7.168   0.408  0.2173 -0.0999 -0.4172
  643MOL0     O86673   9.498   7.229   0.492 -0.2307  0.4518 -0.1784
  643MOL0     C86674   9.396   7.146   0.543 -0.1136  0.4809  0.0394
  643MOL0     C86675   9.262   7.183   0.529 -0.2192  0.2389 -0.0516
  643MOL0     C86676   9.160   7.121   0.598  0.1133 -0.0726  0.1621
  643MOL0     C86677   9.195   7.017   0.682  0.7122  0.3571  0.3162
  643MOL0     O86678   9.116   6.951   0.777 -0.2854  0.5261  0.6533
  643MOL0     C86679   8.982   6.983   0.756 -0.5992  0.1225  0.6239
  643MOL0     C86680   8.878   6.903   0.832  0.0544 -0.8712  0.2445
  643MOL0     C86681   8.759   6.992   0.850  0.5135 -0.8363 -0.6699
  643MOL0     C86682   8.652   6.934   0.933  0.6356 -0.3869  0.1527
  643MOL0     C86683   8.536   7.031   0.946 -0.1761  0.0782  0.1083
  643MOL0     C86684   8.415   6.952   1.007 -0.0677 -0.0029  0.0000
  643MOL0     C86685   8.430   6.899   1.152  1.0345  0.6037 -0.4025
  643MOL0     C86686   8.291   6.831   1.193  0.0708  1.2309  0.0109
  643MOL0     N86687   8.192   6.930   1.237  0.5386  0.0102 -0.0491
  643MOL0     C86688   8.201   7.015   1.349 -0.2020 -0.5081  0.1009
  643MOL0     C86689   8.096   7.111   1.331 -1.0279  0.0424 -0.3559
  643MOL0     C86690   8.086   7.237   1.412  0.6913  0.6588  1.0552
  643MOL0     C86691   8.008   7.208   1.544 -0.3777  0.1185  0.3948
  643MOL0     C86692   7.862   7.178   1.509 -0.9671  0.1071 -0.6443
  643MOL0     C86693   7.768   7.172   1.629 -0.3234  0.4208  0.2580
  643MOL0     O86694   7.638   7.105   1.605  1.1591  0.1910  0.6459
  643MOL0     C86695   7.546   7.108   1.711  0.7801  0.2159 -0.1395
  643MOL0     C86696   7.579   7.049   1.834 -0.1774 -0.2396 -0.8532
  643MOL0     C86697   7.478   7.036   1.935  0.8736  0.1412 -0.0743
  643MOL0     C86698   7.521   6.976   2.062  0.0908 -0.1960 -0.2135
  643MOL0     C86699   7.345   7.086   1.908  0.2752  0.1087 -0.6056
  643MOL0     C86700   7.244   7.087   2.010  0.9649 -0.0848  0.2899
  643MOL0     O86701   7.277   7.167   2.124  0.0811  0.9077  0.0660
  643MOL0     C86702   7.187   7.155   2.225 -0.3803  0.4871 -0.3481
  643MOL0     C86703   7.232   7.070   2.328  0.7980 -1.0069  0.1469
  643MOL0     C86704   7.167   7.054   2.447  0.1917 -0.3248 -0.5393
  643MOL0     C86705   7.044   7.112   2.467 -0.0245  0.1613 -0.5217
  643MOL0     O86706   6.983   7.085   2.588 -0.1352 -0.4509 -0.6676
  643MOL0     C86707   6.860   7.150   2.614 -0.2841 -0.7712 -0.0589
  643MOL0     C86708   6.837   7.148   2.754 -0.5096 -0.1573  0.1683
  643MOL0     C86709   6.704   7.213   2.791 -0.3746  1.1284  0.4507
  643MOL0     C86710   6.586   7.122   2.746  0.0139  0.3848 -0.1632
  643MOL0     C86711   6.467   7.133   2.849 -0.6056 -0.6781 -0.3196
  643MOL0     C86712   6.352   7.038   2.809 -0.3808 -0.6939 -0.1414
  643MOL0     C86713   6.219   7.087   2.881  0.2917 -0.5578 -0.1138
  643MOL0     C86714   6.141   6.956   2.898  0.4065 -0.8977 -0.4572
  643MOL0    Cl86715   6.076   6.925   2.735  0.0708  0.2805 -0.0488
  643MOL0     C86716   6.988   7.189   2.360 -0.4393  0.2263 -0.0456
  643MOL0     C86717   7.063   7.208   2.238  0.0410 -1.1898 -0.2818
  643MOL0     O86718   7.136   7.036   1.988 -0.5203 -0.0886 -0.4015
  643MOL0     C86719   7.313   7.146   1.786 -0.0288  0.3453 -0.4664
  643MOL0     C86720   7.418   7.150   1.690  1.1072 -0.0241 -0.2637
  643MOL0     N86721   8.022   7.066   1.218 -0.7624  0.3993 -0.1386
  643MOL0     N86722   8.076   6.958   1.172  0.4796  0.1462  0.6108
  643MOL0     C86723   9.324   6.975   0.692  0.0916  0.0353 -0.5217
  643MOL0     C86724   9.418   7.040   0.622 -0.0371  0.0636  0.1328
  643MOL0     C86725   9.685   7.259   0.334 -0.2720  0.3164  0.0520
  643MOL0     C86726   9.662   7.397   0.340 -1.2030 -0.4465  0.0293
  643MOL0     C86727   9.745   7.486   0.285 -0.1823  0.9387  0.5315
  643MOL0     C86728   9.863   7.442   0.222  0.3624 -0.5276 -1.1269
  643MOL0     O86729   9.938   7.541   0.166 -0.3883 -0.1336 -0.1903
  643MOL0     C86730  10.069   7.510   0.116  0.2032  0.6986  0.2928
  643MOL0     C86731  10.159   7.629   0.086 -0.1403  0.6338 -0.1355
  643MOL0     C86732  10.293   7.583   0.025 -0.4084 -1.1488  0.0883
  643MOL0     C86733  10.395   7.694   0.030 -0.0157 -0.8421  0.5048
  643MOL0     C86734  10.530   7.649  -0.019 -0.1632 -0.0675 -0.0676
  643MOL0     C86735  10.636   7.624  -0.065  0.6543  0.2494 -0.4220
  643MOL0     C86736   9.890   7.302   0.213 -0.2329  0.1244 -0.5126
  643MOL0     C86737   9.795   7.208   0.263  0.5888  0.1014  0.0871
  643MOL0     H86738   9.247   7.272   0.468  4.3542  0.3998 -1.3270
  643MOL0     H86739   9.061   7.164   0.588  1.6033  4.3669  1.9198
  643MOL0     H86740   8.967   7.089   0.780 -2.4463  0.2492 -0.8690
  643MOL0     H86741   8.958   6.968   0.651  2.0783 -0.4852  0.0296
  643MOL0     H86742   8.844   6.823   0.766 -3.3766 -0.4894  1.3417
  643MOL0     H86743   8.914   6.868   0.930  1.4496  1.0763  0.4996
  643MOL0     H86744   8.792   7.080   0.906 -2.0874 -0.4635  0.4200
  643MOL0     H86745   8.721   7.027   0.754  1.3056  1.1307 -0.3327
  643MOL0     H86746   8.628   6.848   0.870  2.5191  0.7096 -2.2160
  643MOL0     H86747   8.681   6.904   1.034  1.1654 -0.1684  0.0659
  643MOL0     H86748   8.567   7.108   1.017  0.9505 -0.8865  0.7016
  643MOL0     H86749   8.510   7.082   0.853 -1.3378 -1.2833 -0.3556
  643MOL0     H86750   8.320   7.006   1.006 -1.5429 -2.3452  1.8335
  643MOL0     H86751   8.397   6.867   0.942 -0.3846 -0.9654  1.3001
  643MOL0     H86752   8.518   6.835   1.166  1.9051  1.7614 -0.4413
  643MOL0     H86753   8.428   6.987   1.217 -2.9706 -0.2480  0.8995
  643MOL0     H86754   8.311   6.765   1.278 -1.0147  0.3212 -0.4177
  643MOL0     H86755   8.256   6.771   1.108 -2.6629  0.6142  1.4372
  643MOL0     H86756   8.282   7.024   1.420  1.4168  2.1064 -1.8978
  643MOL0     H86757   8.189   7.268   1.433  0.6001  1.2967  0.6117
  643MOL0     H86758   8.052   7.326   1.358  1.3929 -0.5343 -1.4926
  643MOL0     H86759   8.017   7.300   1.602  1.5267 -0.9226  1.8586
  643MOL0     H86760   8.047   7.125   1.604  1.9825  1.7818  1.3299
  643MOL0     H86761   7.869   7.077   1.468 -1.0817 -1.4555  2.8027
  643MOL0     H86762   7.833   7.250   1.432  0.6617  2.0122  0.4219
  643MOL0     H86763   7.753   7.274   1.666 -3.0902  2.0536 -4.4867
  643MOL0     H86764   7.825   7.111   1.700 -1.4777 -2.4356 -1.1199
  643MOL0     H86765   7.677   7.009   1.860  0.7901  2.0740 -0.6716
  643MOL0     H86766   7.619   6.926   2.060  0.2603  0.1365 -0.2165
  643MOL0     H86767   7.523   7.060   2.132  4.2497  1.3164 -1.8546
  643MOL0     H86768   7.444   6.906   2.097 -1.9417  1.7407 -0.6038
  643MOL0     H86769   7.318   7.008   2.304  0.4259 -0.6066 -2.5908
  643MOL0     H86770   7.217   6.997   2.525 -0.4169  0.4634  0.4580
  643MOL0     H86771   6.859   7.256   2.589  0.1546 -0.3189  1.6602
  643MOL0     H86772   6.792   7.090   2.553  0.8315 -0.7726 -1.3438
  643MOL0     H86773   6.847   7.047   2.794 -0.1974 -0.1086  0.2192
  643MOL0     H86774   6.916   7.200   2.810  0.0612  1.1178 -1.7295
  643MOL0     H86775   6.693   7.304   2.730  1.3129 -1.0548 -3.4786
  643MOL0     H86776   6.689   7.223   2.899 -2.0729 -1.3837  0.5521
  643MOL0     H86777   6.549   7.132   2.644  0.3181 -0.3630 -0.3527
  643MOL0     H86778   6.605   7.015   2.756 -0.1099  0.4578  1.0869
  643MOL0     H86779   6.438   7.238   2.860  0.5777 -0.2843 -0.7700
  643MOL0     H86780   6.507   7.113   2.949  1.2165 -0.7939 -1.0385
  643MOL0     H86781   6.343   7.048   2.701  0.4302 -3.8795 -0.5860
  643MOL0     H86782   6.376   6.936   2.841 -1.4426 -1.6496 -2.2113
  643MOL0     H86783   6.171   7.166   2.823  0.8886 -2.4240 -3.4642
  643MOL0     H86784   6.240   7.126   2.981  2.0451  0.2773 -0.7728
  643MOL0     H86785   6.054   6.970   2.964  1.3894 -2.5988  1.3098
  643MOL0     H86786   6.199   6.869   2.928 -2.4257 -2.8545 -0.2250
  643MOL0     H86787   6.893   7.241   2.367 -0.8453 -0.1027 -2.2319
  643MOL0     H86788   7.015   7.270   2.163 -2.1585  1.1028  2.7226
  643MOL0     H86789   7.219   7.196   1.763 -0.4720  0.3219  1.1805
  643MOL0     H86790   7.398   7.192   1.592 -0.9450  0.2246  0.2241
  643MOL0     H86791   9.345   6.892   0.759 -0.9204 -1.8353 -2.4107
  643MOL0     H86792   9.521   7.009   0.640 -0.1054 -1.2803 -1.5573
  643MOL0     H86793   9.574   7.449   0.378 -0.9981 -1.8464  2.6601
  643MOL0     H86794   9.723   7.592   0.296 -5.2026  0.0161  1.8714
  643MOL0     H86795  10.122   7.439   0.180  1.4212  0.0552 -1.3557
  643MOL0     H86796  10.056   7.455   0.023  3.1790 -3.8463  2.2086
  643MOL0     H86797  10.153   7.693   0.175 -0.0976  0.8537 -0.2897
  643MOL0     H86798  10.124   7.699   0.009  3.7402  1.1393 -1.6336
  643MOL0     H86799  10.272   7.556  -0.079  1.3118  0.4376 -0.7343
  643MOL0     H86800  10.346   7.498   0.070  1.3176  0.2444  0.7838
  643MOL0     H86801  10.410   7.736   0.129  1.5184  4.4267 -1.6333
  643MOL0     H86802  10.373   7.777  -0.038 -0.6935 -1.6732 -0.3234
  643MOL0     H86803  10.725   7.597  -0.119  1.5908  0.8500  0.7752
  643MOL0     H86804   9.974   7.265   0.155 -0.1657 -0.3855 -0.0959
  643MOL0     H86805   9.802   7.099   0.263 -0.8696 -0.0187  0.1624
  644MOL0     O86806  10.663   1.803   3.697  1.0028  0.2092  0.1507
  644MOL0     C86807  10.673   1.823   3.581  0.4996  0.0862  0.2766
  644MOL0     O86808  10.572   1.859   3.493  0.3672  0.3951  0.1224
  644MOL0     C86809  10.446   1.881   3.549 -1.2262 -0.7137  1.1132
  644MOL0     C86810  10.428   1.972   3.652 -0.4454  0.7669  0.1934
  644MOL0     C86811  10.303   2.006   3.704 -0.0416  0.3631 -0.2944
  644MOL0     C86812  10.190   1.941   3.652  0.7492  0.1265  0.4268
  644MOL0     O86813  10.068   1.971   3.710 -0.0948  0.1551  0.5990
  644MOL0     C86814   9.940   1.924   3.660  0.6545 -0.1684 -0.6318
  644MOL0     C86815   9.827   1.991   3.739  0.7866  0.5308 -0.5330
  644MOL0     C86816   9.816   2.142   3.724  0.0555  0.0938  0.2975
  644MOL0     C86817   9.691   2.204   3.789 -0.2653 -0.5019 -0.1709
  644MOL0     C86818   9.684   2.359   3.756 -0.7745 -0.4268  0.2223
  644MOL0     C86819   9.781   2.441   3.831 -0.8253 -0.0859  0.6852
  644MOL0     C86820   9.737   2.582   3.862 -1.1623 -0.0349 -0.2937
  644MOL0     C86821   9.633   2.609   3.964  0.0969  0.5067 -0.3392
  644MOL0     N86822   9.602   2.752   3.960 -0.3803  0.2750  0.5135
  644MOL0     C86823   9.642   2.850   4.042  0.3807  0.2401  0.1655
  644MOL0     C86824   9.596   2.970   3.994 -0.9209 -0.3854 -0.0718
  644MOL0     C86825   9.643   3.111   4.034 -0.1475  0.2621  0.0047
  644MOL0     C86826   9.722   3.186   3.923 -0.2750 -0.7967 -0.0803
  644MOL0     C86827   9.783   3.322   3.969 -0.0918  0.7703  0.0775
  644MOL0     C86828   9.698   3.453   3.960 -0.0633 -0.7921  0.3340
  644MOL0     O86829   9.580   3.449   4.042 -0.3404  0.5273 -0.6155
  644MOL0     C86830   9.451   3.466   4.002  1.4509  0.6674  0.2776
  644MOL0     C86831   9.418   3.527   3.878  1.0534  0.5185  0.1509
  644MOL0     C86832   9.280   3.544   3.841 -0.6980  0.1721 -0.2751
  644MOL0     C86833   9.256   3.605   3.708 -0.3682 -0.0502  0.2496
  644MOL0     C86834   9.177   3.503   3.936 -0.2090 -0.1352  0.1269
  644MOL0     C86835   9.034   3.529   3.913  0.6377 -0.1712 -0.2799
  644MOL0     O86836   8.943   3.452   3.967 -0.4255  0.8140 -0.4673
  644MOL0     C86837   8.811   3.465   3.923  0.6230 -0.5778  0.1070
  644MOL0     C86838   8.715   3.526   4.004 -0.5651 -0.4469 -0.3107
  644MOL0     C86839   8.581   3.545   3.960  0.1927  0.2363  0.6381
  644MOL0     C86840   8.545   3.512   3.829 -0.1883  0.3798  0.2601
  644MOL0     O86841   8.415   3.523   3.778  0.3913 -0.0899 -0.5463
  644MOL0     C86842   8.303   3.570   3.859  0.5504  0.1684 -0.1723
  644MOL0     C86843   8.169   3.544   3.792 -0.1974  0.7040  0.3055
  644MOL0     C86844   8.150   3.395   3.779 -0.6705  0.2089 -0.1099
  644MOL0     C86845   8.028   3.370   3.699  0.4516 -0.2008 -0.0551
  644MOL0     C86846   8.009   3.217   3.660  0.0589  0.0816  0.2922
  644MOL0     C86847   7.884   3.180   3.588  0.0564 -0.1457 -0.3382
  644MOL0     C86848   7.741   3.220   3.639  0.0941  0.3689  0.5525
  644MOL0     C86849   7.692   3.360   3.601  1.1171  0.1375  0.1683
  644MOL0    Cl86850   7.707   3.384   3.417  0.0866 -0.0147 -0.0922
  644MOL0     C86851   8.640   3.454   3.744  0.2450 -0.6573 -0.6754
  644MOL0     C86852   8.773   3.439   3.796  0.3543  0.4563 -0.0679
  644MOL0     O86853   9.009   3.626   3.839 -0.3074  0.1236  0.9363
  644MOL0     C86854   9.212   3.444   4.054 -0.7565  0.9554  0.1003
  644MOL0     C86855   9.351   3.436   4.094 -0.0391  0.5800  0.8744
  644MOL0     N86856   9.544   2.935   3.865  0.9115 -0.0855 -0.6290
  644MOL0     N86857   9.533   2.808   3.857  0.0624  0.2659  0.3864
  644MOL0     C86858  10.206   1.848   3.545 -0.1597  0.6953  0.8618
  644MOL0     C86859  10.334   1.816   3.490 -0.3969 -0.3164  0.5476
  644MOL0     C86860  10.820   1.820   3.540 -0.4285 -0.5442  0.7344
  644MOL0     C86861  10.917   1.787   3.632  0.8559  0.8991  0.6041
  644MOL0     C86862  11.049   1.773   3.599 -0.9883  0.1463  0.5832
  644MOL0     C86863  11.099   1.791   3.467  0.0397 -0.3622  0.0657
  644MOL0     O86864  11.229   1.771   3.450 -0.4075 -0.2062  0.1231
  644MOL0     C86865  11.289   1.784   3.320 -0.5794  0.0213  0.3814
  644MOL0     C86866  11.345   1.925   3.294 -0.5846 -0.4797  0.5635
  644MOL0     C86867  11.479   1.939   3.365  0.5770 -0.0390 -0.7850
  644MOL0     C86868  11.576   2.032   3.278  1.1869  0.7209 -0.5957
  644MOL0     C86869  11.677   2.097   3.358 -0.6999  0.1939  0.9747
  644MOL0     C86870  11.773   2.131   3.422  0.1168  0.3365 -0.1191
  644MOL0     C86871  11.001   1.843   3.378  0.4385  0.0968 -0.8391
  644MOL0     C86872  10.867   1.844   3.414 -0.0829 -0.9482  0.2935
  644MOL0     H86873  10.516   2.029   3.682 -0.0084  0.3545 -0.2979
  644MOL0     H86874  10.288   2.076   3.786  0.2689 -0.4689  0.4880
  644MOL0     H86875   9.926   1.953   3.556  1.4294  4.0514  0.2416
  644MOL0     H86876   9.955   1.816   3.675  1.6178  0.2553  2.1343
  644MOL0     H86877   9.737   1.941   3.703 -0.2702  1.1983  1.0901
  644MOL0     H86878   9.836   1.965   3.844 -1.3311 -0.4591 -0.5570
  644MOL0     H86879   9.907   2.192   3.761 -1.6211  1.2498  3.1993
  644MOL0     H86880   9.796   2.164   3.619 -2.4116 -1.2046  0.4333
  644MOL0     H86881   9.608   2.154   3.740 -0.0222  0.7887 -1.9990
  644MOL0     H86882   9.678   2.183   3.896 -1.4231 -1.9415 -0.5683
  644MOL0     H86883   9.708   2.381   3.651 -5.5414  1.2194 -0.7720
  644MOL0     H86884   9.579   2.387   3.768 -2.0025 -4.4578  0.3299
  644MOL0     H86885   9.799   2.389   3.925  0.0160 -1.5414 -0.2537
  644MOL0     H86886   9.876   2.436   3.777 -0.5895 -2.5014  1.2326
  644MOL0     H86887   9.823   2.633   3.906  0.2348 -0.7633 -2.0595
  644MOL0     H86888   9.716   2.626   3.764 -3.2361 -2.0890 -0.8606
  644MOL0     H86889   9.663   2.585   4.067  2.1584  1.2888 -0.7136
  644MOL0     H86890   9.547   2.549   3.932  0.3032 -0.5733  1.0020
  644MOL0     H86891   9.704   2.839   4.130 -1.3685 -0.5435  1.3531
  644MOL0     H86892   9.550   3.167   4.051  0.1431  0.9842 -0.7279
  644MOL0     H86893   9.704   3.103   4.124  0.8576 -1.4457 -0.7845
  644MOL0     H86894   9.660   3.197   3.834  0.8620  1.9907 -0.6116
  644MOL0     H86895   9.799   3.112   3.898  0.7560  0.3712 -0.4314
  644MOL0     H86896   9.877   3.332   3.913  0.3679  0.1174  0.7126
  644MOL0     H86897   9.805   3.322   4.076 -0.1376  0.2419  0.0888
  644MOL0     H86898   9.673   3.451   3.854 -0.7038  0.0035  0.4589
  644MOL0     H86899   9.755   3.543   3.984  1.3182 -2.5044  4.2930
  644MOL0     H86900   9.493   3.567   3.810  2.2248  2.5417  2.4848
  644MOL0     H86901   9.211   3.536   3.636  2.0578 -0.8747 -0.5959
  644MOL0     H86902   9.190   3.691   3.722 -0.4346 -0.2417  1.2332
  644MOL0     H86903   9.353   3.634   3.667  0.0115 -0.2308  1.0034
  644MOL0     H86904   8.757   3.552   4.101  2.5370 -2.1518 -1.0650
  644MOL0     H86905   8.510   3.591   4.028 -0.5681 -1.0729  0.7679
  644MOL0     H86906   8.308   3.513   3.952 -1.2618  1.4019  0.7422
  644MOL0     H86907   8.324   3.672   3.894 -0.5900  0.1033  0.7323
  644MOL0     H86908   8.084   3.579   3.850 -0.0138  0.2047  0.8768
  644MOL0     H86909   8.169   3.583   3.689 -2.1673  0.4211  0.1663
  644MOL0     H86910   8.150   3.341   3.874 -1.7341 -0.9190 -0.7293
  644MOL0     H86911   8.235   3.367   3.716  0.6503  2.9558  0.2770
  644MOL0     H86912   7.937   3.392   3.756  2.0702  1.3347  2.0649
  644MOL0     H86913   8.027   3.428   3.606 -2.0518 -0.3568 -0.2036
  644MOL0     H86914   8.015   3.157   3.751 -1.2656  2.1857  1.8543
  644MOL0     H86915   8.092   3.194   3.592 -0.5492 -0.2134 -0.3716
  644MOL0     H86916   7.901   3.228   3.492  1.2198  2.4478  1.0498
  644MOL0     H86917   7.891   3.076   3.555  1.8413 -0.0667 -0.3036
  644MOL0     H86918   7.732   3.214   3.748  1.5184  0.7975  0.7079
  644MOL0     H86919   7.663   3.154   3.599  2.1308 -0.7033 -1.9492
  644MOL0     H86920   7.729   3.447   3.657 -0.3283 -0.0882  1.5733
  644MOL0     H86921   7.586   3.356   3.631  1.2970 -3.9762  0.8603
  644MOL0     H86922   8.619   3.425   3.642 -1.9045  0.0187 -0.4709
  644MOL0     H86923   8.837   3.402   3.717  0.3249 -1.2263  0.6495
  644MOL0     H86924   9.135   3.418   4.126  0.2632  0.5167  1.0562
  644MOL0     H86925   9.372   3.390   4.190 -2.1977  1.1299  1.6592
  644MOL0     H86926  10.117   1.811   3.495  1.7387  0.8512 -3.0108
  644MOL0     H86927  10.349   1.752   3.404 -2.7555  0.9366 -0.9164
  644MOL0     H86928  10.896   1.773   3.738 -2.9297  1.2222  0.0271
  644MOL0     H86929  11.127   1.752   3.671 -0.3842 -0.5419 -0.2488
  644MOL0     H86930  11.374   1.716   3.309  0.1529  1.3596 -4.4890
  644MOL0     H86931  11.217   1.752   3.244 -0.1358  0.7204 -0.3399
  644MOL0     H86932  11.277   2.007   3.318  0.8691  0.3574  2.0494
  644MOL0     H86933  11.367   1.934   3.187 -2.1202 -0.7546  0.2065
  644MOL0     H86934  11.531   1.844   3.383 -0.6632 -0.5739  0.0917
  644MOL0     H86935  11.461   1.984   3.463  5.1390  1.2317 -0.2730
  644MOL0     H86936  11.510   2.111   3.240 -0.8055 -1.4325 -1.8593
  644MOL0     H86937  11.635   1.981   3.201 -0.8175 -2.6523 -0.1034
  644MOL0     H86938  11.858   2.149   3.485 -0.0772 -2.6175  1.1396
  644MOL0     H86939  11.030   1.865   3.276  3.1900 -1.8401 -0.6164
  644MOL0     H86940  10.796   1.857   3.333 -3.2552 -0.6777  2.9151
  645MOL0     O86941   3.561   7.900   4.598  0.4345 -0.6695  0.0299
  645MOL0     C86942   3.574   7.822   4.509 -0.1058 -0.8770  0.3022
  645MOL0     O86943   3.488   7.794   4.403 -0.0423  0.5028 -0.1066
  645MOL0     C86944   3.371   7.862   4.389 -0.2354 -0.1528 -0.2897
  645MOL0     C86945   3.262   7.792   4.344 -0.3995  0.5959  0.4903
  645MOL0     C86946   3.139   7.852   4.311 -0.3988 -0.8289 -1.2266
  645MOL0     C86947   3.131   7.993   4.327  0.6329  0.0293  0.7137
  645MOL0     O86948   3.009   8.039   4.303 -0.0834  0.0238 -0.7104
  645MOL0     C86949   2.929   8.033   4.425 -0.8346 -1.2659 -0.5560
  645MOL0     C86950   2.886   8.174   4.473 -0.1233 -0.0399 -0.3347
  645MOL0     C86951   2.770   8.171   4.568  0.3199 -0.7713 -0.3407
  645MOL0     C86952   2.719   8.310   4.610  0.4081 -0.3462 -0.1832
  645MOL0     C86953   2.570   8.315   4.637  0.5341  1.4524  1.0454
  645MOL0     C86954   2.479   8.438   4.648  0.9073 -0.5237 -0.3374
  645MOL0     C86955   2.549   8.538   4.734 -0.3446 -0.0090 -0.3385
  645MOL0     C86956   2.487   8.679   4.739  0.3827  0.3448  0.2100
  645MOL0     N86957   2.496   8.754   4.614 -0.0654  0.1551  0.2826
  645MOL0     C86958   2.589   8.839   4.575 -0.4134  0.0100  0.8224
  645MOL0     C86959   2.546   8.867   4.450 -0.0082  0.1695 -0.0977
  645MOL0     C86960   2.610   8.977   4.362 -0.4044  0.6168  0.4814
  645MOL0     C86961   2.634   8.918   4.219 -0.2189  0.0892  0.5064
  645MOL0     C86962   2.731   8.799   4.208  0.1904 -0.7522  0.7009
  645MOL0     C86963   2.721   8.737   4.074 -0.2419  0.5914  0.8524
  645MOL0     O86964   2.794   8.610   4.081  0.8527  0.6472  0.1917
  645MOL0     C86965   2.720   8.507   4.135 -0.4295  0.3006  0.5959
  645MOL0     C86966   2.593   8.513   4.191  0.3601  0.7893 -0.1544
  645MOL0     C86967   2.524   8.398   4.231 -0.4584  0.3331 -0.1694
  645MOL0     C86968   2.391   8.419   4.293  1.2542  0.7512  0.4782
  645MOL0     C86969   2.582   8.271   4.218  0.2725  0.2242 -0.2377
  645MOL0     C86970   2.510   8.147   4.258 -0.5814 -0.2058 -0.0291
  645MOL0     O86971   2.568   8.036   4.206  0.7003 -0.3909 -0.3140
  645MOL0     C86972   2.539   7.907   4.252 -0.7839 -0.0615 -0.3596
  645MOL0     C86973   2.646   7.823   4.252  0.6621 -0.5532  0.2330
  645MOL0     C86974   2.630   7.685   4.295  0.5959 -1.1103  0.3037
  645MOL0     C86975   2.503   7.641   4.337 -0.6812 -0.2946  0.0480
  645MOL0     O86976   2.494   7.511   4.369  0.6660 -0.0024 -0.2261
  645MOL0     C86977   2.369   7.442   4.347 -0.3846  0.3083 -1.0908
  645MOL0     C86978   2.381   7.294   4.320 -0.3620  0.1984 -0.3288
  645MOL0     C86979   2.240   7.242   4.274  0.1515  1.3881 -0.9466
  645MOL0     C86980   2.132   7.255   4.379 -0.3348  0.2923 -0.6328
  645MOL0     C86981   1.990   7.219   4.323 -0.1959  0.6559 -0.0971
  645MOL0     C86982   1.970   7.083   4.252 -0.7263  0.5846  0.6262
  645MOL0     C86983   1.836   7.065   4.184  0.1528 -0.6176 -0.2933
  645MOL0     C86984   1.803   7.153   4.065  0.0547 -0.4305 -0.4163
  645MOL0    Cl86985   1.943   7.175   3.958  0.2468  0.4281  0.4018
  645MOL0     C86986   2.392   7.725   4.339  0.6681 -0.1041 -0.1377
  645MOL0     C86987   2.409   7.859   4.296 -1.5236  0.0607 -0.4623
  645MOL0     O86988   2.418   8.147   4.340 -0.6335 -0.4123 -0.0406
  645MOL0     C86989   2.711   8.266   4.151  0.9808 -0.2735 -0.7135
  645MOL0     C86990   2.768   8.383   4.109 -0.0589  0.0610 -0.3913
  645MOL0     N86991   2.426   8.807   4.426 -0.7150  0.0542 -0.5303
  645MOL0     N86992   2.392   8.746   4.528  0.7919  0.8353 -0.4574
  645MOL0     C86993   3.239   8.069   4.364  0.3584  1.0642 -0.2035
  645MOL0     C86994   3.364   8.003   4.394  0.7024 -0.9631 -0.2424
  645MOL0     C86995   3.704   7.744   4.523 -0.0752 -0.3120 -0.4032
  645MOL0     C86996   3.806   7.778   4.623 -0.9224 -0.3748  0.3651
  645MOL0     C86997   3.924   7.707   4.616 -0.4656  1.3192 -0.0484
  645MOL0     C86998   3.952   7.601   4.522  0.3716  0.2954 -0.6759
  645MOL0     O86999   4.079   7.534   4.542  0.0670  0.4819  0.2295
  645MOL0     C87000   4.137   7.481   4.427 -0.2857 -0.3833  0.0388
  645MOL0     C87001   4.273   7.556   4.404 -0.0357  0.0836 -0.0111
  645MOL0     C87002   4.251   7.687   4.328 -0.4386  0.1819 -0.0153
  645MOL0     C87003   4.377   7.750   4.266  0.4601  0.7022 -1.0587
  645MOL0     C87004   4.460   7.662   4.185  0.5141  0.0343 -0.5849
  645MOL0     C87005   4.518   7.596   4.107  0.0561  0.2140 -0.6610
  645MOL0     C87006   3.850   7.580   4.424  0.8003  0.2852  0.0484
  645MOL0     C87007   3.726   7.644   4.428  0.4908 -0.3190  0.8909
  645MOL0     H87008   3.283   7.687   4.327  0.4732  0.5794  1.5353
  645MOL0     H87009   3.052   7.793   4.284 -1.7011  0.5407 -0.1921
  645MOL0     H87010   2.837   7.988   4.389 -1.8285  1.9218 -2.3782
  645MOL0     H87011   2.980   7.972   4.500  2.7839 -0.2827 -1.9888
  645MOL0     H87012   2.971   8.213   4.530 -0.1466 -1.2092  0.5358
  645MOL0     H87013   2.865   8.236   4.386  1.1315  1.4377  0.3554
  645MOL0     H87014   2.682   8.127   4.520 -0.1502 -0.2944  0.0729
  645MOL0     H87015   2.812   8.113   4.651 -0.4066 -1.7636 -0.6432
  645MOL0     H87016   2.768   8.335   4.704 -2.6985  3.1136  0.7806
  645MOL0     H87017   2.752   8.393   4.546 -1.6166  2.6737  2.3610
  645MOL0     H87018   2.526   8.264   4.550  3.7238  0.4986 -0.1625
  645MOL0     H87019   2.560   8.260   4.730  0.8873 -0.8228 -0.1817
  645MOL0     H87020   2.493   8.479   4.548  3.0231 -0.7093 -0.1694
  645MOL0     H87021   2.377   8.407   4.673  1.8952 -4.2409 -0.3861
  645MOL0     H87022   2.550   8.489   4.831 -0.9377 -1.2568 -0.9428
  645MOL0     H87023   2.652   8.545   4.698 -0.8855  0.8112 -1.8055
  645MOL0     H87024   2.532   8.741   4.817  1.1813 -0.5532  0.4951
  645MOL0     H87025   2.383   8.668   4.772  1.2657 -0.0107  3.1703
  645MOL0     H87026   2.676   8.884   4.622 -0.3488 -0.0531  0.7632
  645MOL0     H87027   2.544   9.064   4.349 -0.6935  0.5451  1.3946
  645MOL0     H87028   2.707   9.008   4.402  0.1580 -3.2353  2.5333
  645MOL0     H87029   2.675   8.995   4.153 -0.7849 -2.0699 -2.6243
  645MOL0     H87030   2.536   8.890   4.179 -0.9431 -0.5499  2.5636
  645MOL0     H87031   2.701   8.733   4.289 -1.7975 -0.7370  0.0247
  645MOL0     H87032   2.830   8.838   4.232  0.4961 -0.6301 -0.6815
  645MOL0     H87033   2.760   8.794   3.990  0.8629  0.5438  1.3189
  645MOL0     H87034   2.614   8.725   4.056 -0.8108  0.9549  3.5122
  645MOL0     H87035   2.540   8.607   4.202 -1.4805  0.1523 -2.6254
  645MOL0     H87036   2.376   8.527   4.295  2.9841  1.0036  1.1032
  645MOL0     H87037   2.315   8.367   4.234  2.7969  0.1940 -1.0874
  645MOL0     H87038   2.393   8.373   4.392 -1.2426 -0.6485 -0.0349
  645MOL0     H87039   2.749   7.858   4.241  1.5814 -3.5572 -2.1941
  645MOL0     H87040   2.708   7.610   4.288  0.5349 -1.0039 -3.1004
  645MOL0     H87041   2.312   7.469   4.436  0.7457 -0.7281 -0.0212
  645MOL0     H87042   2.305   7.496   4.277 -0.6122  2.9075  0.9901
  645MOL0     H87043   2.453   7.275   4.240  1.1744  0.1051  1.0216
  645MOL0     H87044   2.418   7.240   4.407  1.6656  0.3918 -1.0303
  645MOL0     H87045   2.242   7.134   4.260 -1.9069  0.6797  2.9841
  645MOL0     H87046   2.207   7.283   4.178  2.3749  1.6829 -1.6670
  645MOL0     H87047   2.145   7.180   4.458 -3.2720 -1.6305 -1.7878
  645MOL0     H87048   2.138   7.354   4.425  1.8435 -0.6705  1.3713
  645MOL0     H87049   1.962   7.293   4.247 -1.5383 -0.4281 -0.7028
  645MOL0     H87050   1.921   7.215   4.408  0.7791 -4.2229  0.7334
  645MOL0     H87051   2.049   7.058   4.180 -1.8372 -1.5924  0.0747
  645MOL0     H87052   1.965   7.012   4.336  0.9524  0.7375  0.8876
  645MOL0     H87053   1.766   7.087   4.266  0.4847 -0.3852 -0.0685
  645MOL0     H87054   1.819   6.959   4.163  1.4040 -0.7638 -0.6346
  645MOL0     H87055   1.765   7.249   4.101 -1.7451 -0.2651 -2.5422
  645MOL0     H87056   1.718   7.111   4.011 -0.5414  3.3590 -2.7752
  645MOL0     H87057   2.295   7.690   4.373 -0.8202  1.4997 -2.3789
  645MOL0     H87058   2.318   7.918   4.300 -0.9455  1.0205 -1.1767
  645MOL0     H87059   2.758   8.173   4.122  1.9861 -0.0769  0.1807
  645MOL0     H87060   2.853   8.384   4.042 -0.0080  0.5780 -0.3229
  645MOL0     H87061   3.229   8.177   4.369  0.3441  1.0340  0.4618
  645MOL0     H87062   3.449   8.068   4.412 -0.1665  0.2035 -0.1997
  645MOL0     H87063   3.797   7.863   4.689  4.8354  1.0200 -0.1376
  645MOL0     H87064   4.009   7.718   4.682 -0.5038 -0.2672  0.3056
  645MOL0     H87065   4.154   7.373   4.438  2.0817 -0.3643 -2.3596
  645MOL0     H87066   4.072   7.495   4.340 -0.0119 -1.8603 -0.4386
  645MOL0     H87067   4.331   7.494   4.335 -2.5928 -0.9883 -1.3176
  645MOL0     H87068   4.326   7.581   4.496  1.0199  0.0402 -0.5931
  645MOL0     H87069   4.207   7.755   4.401 -0.8773 -1.5641  1.4037
  645MOL0     H87070   4.169   7.679   4.256 -1.5774 -0.2330  1.2831
  645MOL0     H87071   4.438   7.790   4.348 -0.4061  3.0221 -1.4874
  645MOL0     H87072   4.338   7.830   4.202  0.1105 -1.7274 -4.1240
  645MOL0     H87073   4.568   7.544   4.027  2.3920 -0.3455  1.0778
  645MOL0     H87074   3.863   7.498   4.353  2.9125  0.0967  0.5886
  645MOL0     H87075   3.649   7.613   4.357 -2.0692  2.8633  2.0246
  646MOL0     O87076   2.871   1.928   8.472 -0.0132 -0.7004 -0.1245
  646MOL0     C87077   2.979   1.907   8.533  0.6514 -0.1676  1.1349
  646MOL0     O87078   3.006   1.828   8.643  0.2945  0.0305  0.3387
  646MOL0     C87079   2.898   1.751   8.695  0.6334  0.9906  0.0963
  646MOL0     C87080   2.795   1.694   8.619 -0.2580 -1.0212 -0.7895
  646MOL0     C87081   2.699   1.615   8.680 -0.0844 -0.1058 -0.2069
  646MOL0     C87082   2.696   1.584   8.817  0.2033 -0.2363 -0.3192
  646MOL0     O87083   2.603   1.495   8.872 -0.1133 -0.0143  0.8278
  646MOL0     C87084   2.460   1.508   8.845 -0.3778  0.2425  0.5824
  646MOL0     C87085   2.392   1.382   8.881  0.5764  0.3705  0.1112
  646MOL0     C87086   2.245   1.403   8.846  0.4378 -0.6173 -0.2182
  646MOL0     C87087   2.157   1.287   8.859 -0.0170  0.2624 -0.1068
  646MOL0     C87088   2.011   1.321   8.832  0.2255 -0.7256 -0.2466
  646MOL0     C87089   1.943   1.417   8.934  0.0263  0.2605  0.3621
  646MOL0     C87090   1.802   1.442   8.889 -0.4411 -0.3213  0.0817
  646MOL0     C87091   1.714   1.310   8.894 -0.1838 -0.1262  0.4327
  646MOL0     N87092   1.573   1.334   8.921 -0.0732 -0.4292  1.3644
  646MOL0     C87093   1.494   1.262   9.007 -0.6391  0.1258 -0.0901
  646MOL0     C87094   1.372   1.327   8.999  0.3904  0.2556  0.3369
  646MOL0     C87095   1.245   1.276   9.055 -0.8808  0.3507 -0.6233
  646MOL0     C87096   1.163   1.232   8.939  0.1943  0.6865  1.1424
  646MOL0     C87097   1.044   1.155   8.994  0.0954  0.3641 -0.0746
  646MOL0     C87098   0.931   1.099   8.891  0.6323 -0.4807  0.4098
  646MOL0     O87099   0.794   1.102   8.929  0.3430 -0.3502  0.8311
  646MOL0     C87100   0.704   1.044   8.845  1.1527  0.2603 -0.4588
  646MOL0     C87101   0.582   0.999   8.893 -0.5028 -0.0655  0.2059
  646MOL0     C87102   0.489   0.934   8.816 -0.4446 -0.7299 -0.5081
  646MOL0     C87103   0.365   0.875   8.883  0.2121  0.2885 -0.5402
  646MOL0     C87104   0.521   0.912   8.678  0.6695 -0.2947  0.3166
  646MOL0     C87105   0.441   0.818   8.590  0.4507 -0.3700  0.0550
  646MOL0     O87106   0.314   0.774   8.623 -0.3815 -0.5548 -0.2734
  646MOL0     C87107   0.238   0.714   8.529  0.6589  1.0968 -0.4256
  646MOL0     C87108   0.249   0.728   8.385 -0.0861 -1.4020 -0.1819
  646MOL0     C87109   0.168   0.664   8.298 -0.0888 -0.6501 -0.1149
  646MOL0     C87110   0.064   0.577   8.348  0.4525  1.3681  1.4072
  646MOL0     O87111  -0.024   0.511   8.262  0.0540 -0.3997  0.0513
  646MOL0     C87112   0.037   0.406   8.191  0.2115 -0.4388  0.8339
  646MOL0     C87113  -0.005   0.427   8.047  0.0020 -0.2653 -0.2920
  646MOL0     C87114   0.040   0.333   7.947 -0.2760  0.8069 -0.3983
  646MOL0     C87115   0.011   0.183   7.979 -0.3076  0.2968 -0.9976
  646MOL0     C87116   0.033   0.090   7.859  0.4909 -0.3696 -0.2250
  646MOL0     C87117   0.189   0.067   7.852  0.8169  0.0161 -0.1978
  646MOL0     C87118   0.253  -0.037   7.952  0.1216  0.0317 -0.2905
  646MOL0     C87119   0.173  -0.161   7.982  0.4753  0.3280  0.3076
  646MOL0    Cl87120   0.169  -0.283   7.859 -0.0714 -0.1866 -0.5183
  646MOL0     C87121   0.057   0.561   8.482 -0.8047  0.6544 -0.2555
  646MOL0     C87122   0.137   0.629   8.575  0.3552  0.5049 -0.3619
  646MOL0     O87123   0.503   0.784   8.490  0.2315 -0.0774 -0.2380
  646MOL0     C87124   0.642   0.964   8.632 -0.3158 -0.5844 -0.0924
  646MOL0     C87125   0.734   1.019   8.712 -0.0761  0.5908 -0.8920
  646MOL0     N87126   1.385   1.426   8.906  0.8146 -0.3227 -0.2117
  646MOL0     N87127   1.504   1.434   8.858 -0.5611  0.4192 -0.3912
  646MOL0     C87128   2.793   1.642   8.898 -0.2017  0.2825  0.8702
  646MOL0     C87129   2.888   1.725   8.837 -0.3546  0.0897  0.1771
  646MOL0     C87130   3.095   1.976   8.474  0.6344  0.1947 -0.1470
  646MOL0     C87131   3.079   2.097   8.400 -0.8933 -0.4167  0.4555
  646MOL0     C87132   3.192   2.158   8.353  0.2978  0.7752  0.0027
  646MOL0     C87133   3.320   2.093   8.375 -0.2478  0.8654  0.8184
  646MOL0     O87134   3.440   2.146   8.335 -0.1209 -0.5394 -0.1205
  646MOL0     C87135   3.449   2.204   8.202 -0.2266  0.4931  0.7289
  646MOL0     C87136   3.538   2.324   8.197  0.0636 -0.2368  0.4528
  646MOL0     C87137   3.659   2.327   8.296 -1.6861 -0.1727 -0.3009
  646MOL0     C87138   3.761   2.210   8.302  0.1787  0.4296  0.1123
  646MOL0     C87139   3.883   2.249   8.369 -0.8595  0.6200 -0.2121
  646MOL0     C87140   3.993   2.282   8.417  0.0139  0.4565  0.1623
  646MOL0     C87141   3.335   1.977   8.450  0.2590  0.3187  0.4364
  646MOL0     C87142   3.222   1.927   8.505 -0.2671 -1.0781  0.5179
  646MOL0     H87143   2.788   1.716   8.513 -1.7644 -0.1280 -0.5209
  646MOL0     H87144   2.632   1.564   8.612 -0.6552 -0.4629  0.6067
  646MOL0     H87145   2.420   1.596   8.896  0.8500 -1.3322  4.7238
  646MOL0     H87146   2.449   1.511   8.737  1.9415  2.1357  0.3102
  646MOL0     H87147   2.426   1.298   8.820  0.2989  1.2897 -1.3672
  646MOL0     H87148   2.407   1.355   8.986  1.0494 -0.0207 -0.0574
  646MOL0     H87149   2.222   1.480   8.920  3.5035  0.2897 -0.0619
  646MOL0     H87150   2.220   1.453   8.752 -0.6203  2.3559  1.5138
  646MOL0     H87151   2.189   1.210   8.788  1.1983  0.0141  0.6813
  646MOL0     H87152   2.175   1.257   8.963 -2.0744  2.6459  1.0445
  646MOL0     H87153   1.991   1.362   8.733 -1.7644 -1.6960 -0.3059
  646MOL0     H87154   1.969   1.220   8.825 -1.6171  0.1113 -4.8033
  646MOL0     H87155   1.960   1.384   9.037 -1.7512 -0.3861  0.4904
  646MOL0     H87156   1.999   1.511   8.921 -0.9663  0.8766  0.4639
  646MOL0     H87157   1.753   1.518   8.951  0.3808  0.4610 -0.1871
  646MOL0     H87158   1.805   1.484   8.788 -1.1299 -0.5643 -0.0459
  646MOL0     H87159   1.751   1.238   8.967  1.8087 -0.3957 -0.7406
  646MOL0     H87160   1.719   1.257   8.798  2.4396 -0.8613  0.8860
  646MOL0     H87161   1.508   1.167   9.057 -1.4224  0.9064  1.7102
  646MOL0     H87162   1.259   1.190   9.120 -4.1385  2.0977  2.7917
  646MOL0     H87163   1.198   1.359   9.110  2.2439  0.3339  2.4170
  646MOL0     H87164   1.213   1.166   8.868  2.1146  1.5132  1.6726
  646MOL0     H87165   1.132   1.325   8.889  5.5375  2.7782  1.0601
  646MOL0     H87166   0.999   1.211   9.076  2.5679  0.0550  1.5901
  646MOL0     H87167   1.093   1.065   9.033 -0.6485 -1.1859 -2.4797
  646MOL0     H87168   0.954   0.995   8.865 -2.7122 -0.9319 -1.3352
  646MOL0     H87169   0.934   1.169   8.806 -0.7373 -2.9035 -1.7971
  646MOL0     H87170   0.559   1.014   8.998 -0.9386 -0.2554  0.1382
  646MOL0     H87171   0.361   0.767   8.865 -0.0315 -0.2657  2.2607
  646MOL0     H87172   0.355   0.904   8.988 -2.5591  0.4526 -0.7723
  646MOL0     H87173   0.275   0.911   8.833 -0.5255  0.2322  0.7027
  646MOL0     H87174   0.323   0.796   8.346  1.1017 -2.5360  0.0431
  646MOL0     H87175   0.176   0.674   8.190  4.0192 -0.6055  0.0520
  646MOL0     H87176   0.145   0.398   8.198  0.2634 -0.0922  0.4709
  646MOL0     H87177  -0.006   0.313   8.230  2.1694 -1.0884  1.5664
  646MOL0     H87178  -0.114   0.422   8.052 -0.0501  1.4821  1.1157
  646MOL0     H87179   0.026   0.525   8.010 -0.6516  0.4821  1.0712
  646MOL0     H87180   0.149   0.328   7.948 -0.2987 -0.1143  0.7057
  646MOL0     H87181   0.008   0.378   7.853 -0.0127  2.3660  0.2377
  646MOL0     H87182   0.068   0.135   8.059 -0.3688  2.2132  0.2622
  646MOL0     H87183  -0.095   0.178   8.005  0.4380 -2.5188  2.4179
  646MOL0     H87184   0.002   0.136   7.764 -4.4906  0.0492  1.3083
  646MOL0     H87185  -0.013  -0.009   7.868  1.5146 -0.9055 -0.7299
  646MOL0     H87186   0.193   0.016   7.755 -0.0874 -2.0369  0.7941
  646MOL0     H87187   0.256   0.153   7.846 -4.2042  4.4873  0.5678
  646MOL0     H87188   0.264   0.008   8.051 -0.7377 -1.1979  0.3864
  646MOL0     H87189   0.344  -0.067   7.899  0.0875 -0.3442 -0.1368
  646MOL0     H87190   0.072  -0.128   8.008 -0.0358  1.0543 -2.2558
  646MOL0     H87191   0.229  -0.202   8.066  4.8008  2.1567 -1.3724
  646MOL0     H87192  -0.035   0.511   8.513 -0.1156 -0.2559  0.3738
  646MOL0     H87193   0.133   0.606   8.681  4.2067  1.8282  0.2383
  646MOL0     H87194   0.681   0.938   8.534 -0.3311 -1.5296  0.1425
  646MOL0     H87195   0.830   1.044   8.667  0.6602 -0.1429  0.2017
  646MOL0     H87196   2.795   1.625   9.005  0.7325 -0.4513  0.7481
  646MOL0     H87197   2.968   1.753   8.904 -0.6150  0.9853  0.1320
  646MOL0     H87198   2.976   2.130   8.393 -0.9650  0.0706  2.8557
  646MOL0     H87199   3.175   2.251   8.299 -0.3831 -0.7648 -2.5667
  646MOL0     H87200   3.482   2.123   8.137  1.2431  0.9289  0.8773
  646MOL0     H87201   3.354   2.239   8.160 -0.2414  0.1095  0.4441
  646MOL0     H87202   3.470   2.408   8.212 -2.5059 -1.8856 -1.1337
  646MOL0     H87203   3.573   2.334   8.093  2.0723 -2.9804  0.7438
  646MOL0     H87204   3.624   2.354   8.396 -1.3860 -3.0009  0.6585
  646MOL0     H87205   3.712   2.415   8.261 -0.6916 -0.4275  0.5154
  646MOL0     H87206   3.787   2.174   8.202  0.6799 -2.2187  1.1029
  646MOL0     H87207   3.712   2.127   8.354 -0.4518  0.4194 -0.4865
  646MOL0     H87208   4.085   2.307   8.465  0.8790  0.3272 -1.3572
  646MOL0     H87209   3.433   1.929   8.449 -0.2817 -0.8370  1.0803
  646MOL0     H87210   3.229   1.842   8.572  1.4129  0.2787  2.1641
  647MOL0     O87211   7.663   6.339   0.825 -0.6920 -0.3942  0.1072
  647MOL0     C87212   7.617   6.240   0.785  0.2843  0.1656  0.4583
  647MOL0     O87213   7.687   6.133   0.744 -0.4984  0.4233  0.2199
  647MOL0     C87214   7.816   6.145   0.695  0.3875  0.7543  0.3274
  647MOL0     C87215   7.894   6.034   0.686 -0.1621 -0.2578 -0.2202
  647MOL0     C87216   8.029   6.037   0.647  0.3220  0.2701 -0.0363
  647MOL0     C87217   8.079   6.158   0.589 -0.1577  0.2011 -1.0703
  647MOL0     O87218   8.210   6.189   0.542 -0.0713 -0.2749  0.3323
  647MOL0     C87219   8.292   6.069   0.545 -0.3553  0.7496 -0.2875
  647MOL0     C87220   8.440   6.108   0.534 -0.0136 -0.2623 -0.5015
  647MOL0     C87221   8.538   6.001   0.505 -0.6591  0.0302  0.1131
  647MOL0     C87222   8.640   5.968   0.620 -0.7892 -0.2705 -0.2946
  647MOL0     C87223   8.738   5.853   0.586  0.0454 -0.7649 -0.2555
  647MOL0     C87224   8.690   5.712   0.541 -0.1647 -1.0387 -0.7011
  647MOL0     C87225   8.575   5.651   0.619  0.1329  0.5519 -0.1919
  647MOL0     C87226   8.634   5.627   0.754  1.3986 -0.3574  0.5897
  647MOL0     N87227   8.517   5.599   0.836  0.4069  0.5125 -0.4641
  647MOL0     C87228   8.412   5.681   0.872  0.7653 -0.7911 -0.0202
  647MOL0     C87229   8.334   5.605   0.961 -0.6062  0.1059  0.4272
  647MOL0     C87230   8.198   5.638   1.020 -0.7003 -0.0369  0.7151
  647MOL0     C87231   8.187   5.776   1.076  0.0199 -0.5485  0.1703
  647MOL0     C87232   8.061   5.797   1.160 -0.3805 -0.2304  0.1205
  647MOL0     C87233   7.922   5.759   1.110  0.7432  0.3611  0.4917
  647MOL0     O87234   7.871   5.857   1.007  0.3100  0.0842 -0.4449
  647MOL0     C87235   7.737   5.857   0.996 -0.4485  0.0767 -0.4194
  647MOL0     C87236   7.661   5.945   1.073  0.0177 -0.7080  0.6101
  647MOL0     C87237   7.524   5.940   1.057  0.3573  0.6979  0.1302
  647MOL0     C87238   7.454   6.034   1.156 -0.3902 -1.2839  0.2205
  647MOL0     C87239   7.458   5.860   0.964 -0.4539  0.1387 -0.2401
  647MOL0     C87240   7.312   5.830   0.968 -0.3024  0.9473 -0.0534
  647MOL0     O87241   7.270   5.725   0.894 -0.9457  0.3012  0.3028
  647MOL0     C87242   7.142   5.678   0.910 -0.4516 -0.2769  0.4982
  647MOL0     C87243   7.031   5.748   0.862 -0.4116 -0.7182  0.4161
  647MOL0     C87244   6.907   5.698   0.885  0.4806  0.6340  0.0657
  647MOL0     C87245   6.878   5.584   0.964 -0.7438 -0.0358 -0.4857
  647MOL0     O87246   6.759   5.533   1.015  0.2596 -0.3118  0.0326
  647MOL0     C87247   6.646   5.623   1.020 -0.5606  0.4553  0.1779
  647MOL0     C87248   6.518   5.537   1.029 -0.7313 -0.5618  0.2853
  647MOL0     C87249   6.397   5.624   0.997  0.7840  0.7688  0.5453
  647MOL0     C87250   6.393   5.753   1.064  0.5791 -0.2339  0.6825
  647MOL0     C87251   6.265   5.831   1.041  0.0239 -0.0218 -0.2544
  647MOL0     C87252   6.266   5.969   1.109  0.3787  0.4100  1.0560
  647MOL0     C87253   6.140   6.049   1.065  0.5461 -0.1779 -0.7597
  647MOL0     C87254   6.155   6.191   1.107  0.5416  0.5984 -0.5999
  647MOL0    Cl87255   5.997   6.278   1.100  0.0405  0.2883 -0.3952
  647MOL0     C87256   6.990   5.511   0.999 -0.5613 -0.0220 -0.1247
  647MOL0     C87257   7.121   5.561   0.976 -0.7799  0.3287  0.1398
  647MOL0     O87258   7.239   5.899   1.042  0.4464  0.3310  0.3947
  647MOL0     C87259   7.530   5.769   0.886 -0.9480 -0.4674  0.1591
  647MOL0     C87260   7.673   5.770   0.906  0.5721  0.6956 -0.2708
  647MOL0     N87261   8.389   5.481   0.981  0.7569  0.0186 -0.1750
  647MOL0     N87262   8.494   5.480   0.905 -0.2103 -0.2847  0.0644
  647MOL0     C87263   8.003   6.271   0.605 -0.0352 -0.4430  0.0325
  647MOL0     C87264   7.866   6.259   0.639 -0.0843  0.2941  0.2288
  647MOL0     C87265   7.469   6.222   0.795  0.0135 -0.0938 -0.7227
  647MOL0     C87266   7.388   6.308   0.871 -0.9172  0.2403 -0.3123
  647MOL0     C87267   7.251   6.277   0.893 -0.1653 -1.0463 -0.2864
  647MOL0     C87268   7.191   6.166   0.844  0.2451 -0.1196 -0.0950
  647MOL0     O87269   7.063   6.129   0.854  0.5446 -0.0982 -0.1435
  647MOL0     C87270   6.962   6.220   0.893 -0.6136 -0.8675 -0.4325
  647MOL0     C87271   6.926   6.345   0.801 -1.3472  0.5204 -0.1566
  647MOL0     C87272   6.789   6.405   0.816  1.0723 -0.9882 -0.7032
  647MOL0     C87273   6.771   6.499   0.689  0.5382 -0.5248  0.9690
  647MOL0     C87274   6.645   6.583   0.697 -0.6220  0.1872  0.2448
  647MOL0     C87275   6.531   6.624   0.701 -0.3939 -0.1591 -1.0622
  647MOL0     C87276   7.278   6.078   0.776  0.0134  0.7094  1.0745
  647MOL0     C87277   7.409   6.105   0.754  0.0903 -1.2104 -0.2453
  647MOL0     H87278   7.849   5.946   0.731 -2.0592  1.0701  0.5944
  647MOL0     H87279   8.081   5.942   0.648 -0.1322  0.0186 -0.1024
  647MOL0     H87280   8.274   6.014   0.638 -0.5072 -1.9699 -1.8231
  647MOL0     H87281   8.262   5.993   0.472 -0.2607 -0.8574  1.2741
  647MOL0     H87282   8.456   6.184   0.458 -1.5580  0.4868 -0.1233
  647MOL0     H87283   8.466   6.137   0.637  1.8067 -0.1921 -0.9432
  647MOL0     H87284   8.487   5.908   0.479 -1.3523  0.9795 -2.1693
  647MOL0     H87285   8.590   6.025   0.412 -3.2138 -2.4258 -2.1296
  647MOL0     H87286   8.688   6.057   0.661  1.1367 -1.0729 -0.6534
  647MOL0     H87287   8.575   5.940   0.703 -1.2107  1.6909  0.0733
  647MOL0     H87288   8.795   5.897   0.504  2.5166  3.1458  3.1252
  647MOL0     H87289   8.812   5.834   0.665  2.5167  0.0513 -2.2596
  647MOL0     H87290   8.658   5.702   0.436 -0.0035 -2.4592 -0.6278
  647MOL0     H87291   8.778   5.647   0.541 -0.3541 -1.3261 -1.8838
  647MOL0     H87292   8.487   5.715   0.615  0.0174  0.3101 -2.8664
  647MOL0     H87293   8.547   5.552   0.582 -0.5978  0.0619  1.5419
  647MOL0     H87294   8.673   5.720   0.796 -0.0571  0.4256  0.2747
  647MOL0     H87295   8.702   5.541   0.749 -3.8655 -5.0639 -1.0523
  647MOL0     H87296   8.392   5.782   0.838 -1.5214  0.0299  3.2446
  647MOL0     H87297   8.122   5.621   0.943  0.2659  0.9221 -0.4942
  647MOL0     H87298   8.190   5.577   1.110 -1.7111  2.9273  2.7962
  647MOL0     H87299   8.186   5.850   0.995 -2.4146  0.6661  1.2168
  647MOL0     H87300   8.277   5.805   1.130  1.0245 -0.3600 -1.5488
  647MOL0     H87301   8.051   5.902   1.188  1.9237 -0.1686  0.9196
  647MOL0     H87302   8.078   5.742   1.253  0.0821 -0.8141 -0.2924
  647MOL0     H87303   7.849   5.756   1.191  2.2622 -2.6389  1.9057
  647MOL0     H87304   7.934   5.662   1.060  0.5759  0.9383 -0.7010
  647MOL0     H87305   7.717   5.998   1.150 -0.3196 -1.3006  1.2746
  647MOL0     H87306   7.399   6.110   1.099  3.3897  2.2790  0.8259
  647MOL0     H87307   7.388   5.980   1.225 -0.4402 -1.5769 -0.0536
  647MOL0     H87308   7.527   6.095   1.210  0.1990 -0.3934 -1.5035
  647MOL0     H87309   7.039   5.839   0.803 -0.5551  0.2036  1.7870
  647MOL0     H87310   6.825   5.751   0.838  1.0925 -0.3238 -2.1943
  647MOL0     H87311   6.655   5.694   1.103  1.8880  3.7569 -2.6190
  647MOL0     H87312   6.644   5.689   0.933 -6.1179 -1.8013 -1.8583
  647MOL0     H87313   6.526   5.444   0.972 -3.3944 -1.9521  1.9727
  647MOL0     H87314   6.515   5.492   1.128  3.2207  0.7756  1.2040
  647MOL0     H87315   6.312   5.575   1.045  1.0876 -1.4654 -1.0926
  647MOL0     H87316   6.383   5.628   0.889  1.8826  0.5073  0.3811
  647MOL0     H87317   6.419   5.740   1.169  1.2729 -3.3381  0.2339
  647MOL0     H87318   6.469   5.807   1.007  0.3258 -0.4971  0.0845
  647MOL0     H87319   6.174   5.777   1.070  0.0506 -0.2676 -0.6246
  647MOL0     H87320   6.259   5.847   0.933 -4.2250 -2.5947 -0.6040
  647MOL0     H87321   6.273   5.957   1.217  1.5614  2.9461  1.3330
  647MOL0     H87322   6.358   6.021   1.078 -0.2876  3.6366  3.9258
  647MOL0     H87323   6.054   6.008   1.119  1.0074  0.7332  0.7476
  647MOL0     H87324   6.111   6.036   0.960  1.0040  1.7011 -1.1541
  647MOL0     H87325   6.222   6.241   1.036 -1.3812  1.5840 -1.7995
  647MOL0     H87326   6.195   6.203   1.208 -1.5534  0.8651  0.2327
  647MOL0     H87327   6.997   5.412   1.043  2.4620 -1.8578 -4.2204
  647MOL0     H87328   7.206   5.502   1.007 -0.6536  0.4366  0.0060
  647MOL0     H87329   7.478   5.710   0.811 -0.4908  0.6621 -1.0777
  647MOL0     H87330   7.737   5.694   0.861  2.4233  1.4953  0.9289
  647MOL0     H87331   8.044   6.364   0.569 -0.2892  0.0047  0.8507
  647MOL0     H87332   7.817   6.356   0.636  0.2036  0.4193 -1.5029
  647MOL0     H87333   7.434   6.393   0.922  1.6427  0.2320 -2.4014
  647MOL0     H87334   7.189   6.343   0.953 -0.2465 -1.5730  0.2138
  647MOL0     H87335   6.870   6.161   0.896 -0.3891 -1.1993  1.8979
  647MOL0     H87336   6.981   6.263   0.992  4.9284  0.1347 -1.5812
  647MOL0     H87337   6.941   6.300   0.703 -1.7766 -4.2627  1.6956
  647MOL0     H87338   6.998   6.422   0.829  1.5348 -2.3221  0.9287
  647MOL0     H87339   6.768   6.456   0.910  0.7654  2.1161 -2.3416
  647MOL0     H87340   6.709   6.330   0.815 -0.1560  0.2743 -1.5087
  647MOL0     H87341   6.757   6.439   0.598 -0.3118  1.4217 -0.2376
  647MOL0     H87342   6.852   6.572   0.683 -0.1394  0.1993  0.2997
  647MOL0     H87343   6.430   6.659   0.707 -0.8375 -1.6267  1.2495
  647MOL0     H87344   7.250   5.977   0.749 -0.0161  0.2592  2.7021
  647MOL0     H87345   7.472   6.033   0.702 -1.1135 -2.2031 -0.3649
  648MOL0     O87346   2.955   9.406  10.248 -0.0949 -0.1416 -0.4331
  648MOL0     C87347   3.060   9.365  10.283 -0.2260 -0.3427 -0.0215
  648MOL0     O87348   3.087   9.278  10.393 -0.0239 -0.0788 -0.2171
  648MOL0     C87349   2.985   9.220  10.457  0.0499  0.1795  0.2807
  648MOL0     C87350   2.892   9.140  10.388 -0.5881 -0.2518 -0.6918
  648MOL0     C87351   2.796   9.066  10.457 -0.8539  0.4901 -0.2537
  648MOL0     C87352   2.797   9.073  10.590 -0.2033  0.0769 -0.3694
  648MOL0     O87353   2.715   8.991  10.669 -0.0935  0.4216 -0.0206
  648MOL0     C87354   2.582   8.953  10.624 -0.3736  0.0419 -0.5074
  648MOL0     C87355   2.499   9.069  10.588 -0.7290 -0.9706  1.4870
  648MOL0     C87356   2.348   9.044  10.592  0.1859 -0.2455 -0.0976
  648MOL0     C87357   2.273   9.162  10.536  0.4449  0.0063 -0.5978
  648MOL0     C87358   2.119   9.138  10.542  0.1913  0.3018  0.0318
  648MOL0     C87359   2.043   9.215  10.431 -0.2997 -0.2055 -0.2614
  648MOL0     C87360   2.035   9.363  10.450 -0.5135 -0.0884 -0.5963
  648MOL0     C87361   2.129   9.441  10.361  0.0835 -0.2031 -0.2075
  648MOL0     N87362   2.127   9.575  10.404 -0.7812 -0.9934 -0.4188
  648MOL0     C87363   2.207   9.630  10.507 -0.3264  0.5439  0.5493
  648MOL0     C87364   2.183   9.760  10.509  0.3521  0.4817  0.5239
  648MOL0     C87365   2.246   9.865  10.596  0.4721  0.4007 -0.8955
  648MOL0     C87366   2.373   9.929  10.549 -0.5899  0.7425  0.0167
  648MOL0     C87367   2.482   9.835  10.506  0.0999  0.9473 -0.0760
  648MOL0     C87368   2.608   9.919  10.486 -0.2526  0.7139  0.1551
  648MOL0     O87369   2.700   9.826  10.423  0.4132  0.0617  0.5832
  648MOL0     C87370   2.821   9.871  10.371 -0.7169  0.0450 -0.1816
  648MOL0     C87371   2.848  10.003  10.360  0.5675  0.2503  0.9424
  648MOL0     C87372   2.964  10.045  10.300  0.0754 -0.5686 -0.2807
  648MOL0     C87373   2.974  10.193  10.283 -0.1445  0.2101 -0.2536
  648MOL0     C87374   3.064   9.961  10.248  0.4095  0.1865  0.7336
  648MOL0     C87375   3.189  10.004  10.181 -0.4992  0.5009  0.2080
  648MOL0     O87376   3.277   9.905  10.142 -0.4972  0.3070 -0.1027
  648MOL0     C87377   3.386   9.923  10.060  1.2028  0.0521 -0.0113
  648MOL0     C87378   3.379   9.973   9.935  0.3021  0.3059  0.6603
  648MOL0     C87379   3.498   9.996   9.858  0.6119 -0.9422 -0.0689
  648MOL0     C87380   3.620   9.968   9.913  1.0010  0.5848 -0.1171
  648MOL0     O87381   3.726   9.985   9.834 -0.8003 -0.2950 -0.4029
  648MOL0     C87382   3.857   9.985   9.885  0.1034 -0.2073  0.2645
  648MOL0     C87383   3.968  10.012   9.780 -0.3360  0.0115  0.4017
  648MOL0     C87384   4.072   9.899   9.780  0.0932  0.2529  0.6313
  648MOL0     C87385   4.185   9.933   9.871 -0.5549 -0.7214  0.2030
  648MOL0     C87386   4.149   9.967  10.017 -0.8207 -0.4437  1.0468
  648MOL0     C87387   4.273  10.035  10.082 -0.1929  0.2308 -0.6176
  648MOL0     C87388   4.391   9.944  10.101  0.8634 -0.4821  0.1688
  648MOL0     C87389   4.370   9.819  10.192 -0.5248 -0.4139  0.1910
  648MOL0    Cl87390   4.380   9.884  10.357  0.0374 -0.2528  0.0775
  648MOL0     C87391   3.622   9.914  10.047  0.3507 -0.0176  0.4407
  648MOL0     C87392   3.504   9.892  10.118  0.5426 -0.4497 -0.2532
  648MOL0     O87393   3.204  10.116  10.131 -0.0260  0.0397 -0.5002
  648MOL0     C87394   3.034   9.822  10.260  0.0569 -0.0546  0.1204
  648MOL0     C87395   2.918   9.780  10.327 -0.3406 -0.5028  0.1388
  648MOL0     N87396   2.086   9.785  10.411 -0.6662 -0.1561 -0.6082
  648MOL0     N87397   2.059   9.680  10.351  0.4404 -0.3080  0.8180
  648MOL0     C87398   2.889   9.153  10.664  0.2642  0.4130 -0.4533
  648MOL0     C87399   2.988   9.219  10.596 -0.3843 -0.5808  0.2953
  648MOL0     C87400   3.187   9.413  10.214 -0.0439 -0.9090  0.3072
  648MOL0     C87401   3.311   9.354  10.238  0.2134  0.8844  0.7340
  648MOL0     C87402   3.423   9.389  10.165  0.1790  0.0577  0.1899
  648MOL0     C87403   3.427   9.484  10.068 -0.1005 -0.5241 -0.0793
  648MOL0     O87404   3.544   9.524  10.007 -0.5685  0.0978 -0.5479
  648MOL0     C87405   3.542   9.595   9.884 -0.0240  0.1489 -1.0201
  648MOL0     C87406   3.664   9.576   9.789 -0.7285 -0.9574  0.6986
  648MOL0     C87407   3.634   9.443   9.702 -0.6829  0.1885 -0.2808
  648MOL0     C87408   3.763   9.368   9.652  0.0188  0.2635  0.3733
  648MOL0     C87409   3.780   9.401   9.504 -0.5538  0.5728 -0.5447
  648MOL0     C87410   3.794   9.402   9.381 -0.7448 -1.1197 -0.7302
  648MOL0     C87411   3.304   9.546  10.047 -0.3442 -0.2348  0.7603
  648MOL0     C87412   3.181   9.507  10.106  0.7057  0.0596 -0.9686
  648MOL0     H87413   2.892   9.128  10.280  0.4734 -1.5513 -0.5694
  648MOL0     H87414   2.725   9.012  10.396  0.0251 -1.4973  0.4064
  648MOL0     H87415   2.610   8.894  10.536  3.2101 -2.1957  1.8565
  648MOL0     H87416   2.537   8.897  10.707 -0.3862  0.0354 -0.5200
  648MOL0     H87417   2.535   9.146  10.657  0.4607 -0.0862 -0.0462
  648MOL0     H87418   2.525   9.088  10.484  2.0271 -3.2869  1.6221
  648MOL0     H87419   2.323   8.951  10.540  1.2672 -1.0952  0.8492
  648MOL0     H87420   2.321   9.024  10.697  2.3938  1.7589  0.9415
  648MOL0     H87421   2.302   9.253  10.590  0.5601 -1.6448  2.2750
  648MOL0     H87422   2.307   9.184  10.434 -1.8201  1.8734 -1.0208
  648MOL0     H87423   2.109   9.032  10.515  1.9510  0.3887 -1.1073
  648MOL0     H87424   2.088   9.150  10.646 -3.2229  3.7296 -1.1612
  648MOL0     H87425   2.085   9.185  10.335 -1.2494 -1.6347 -0.2639
  648MOL0     H87426   1.939   9.179  10.435 -0.2271 -0.5766 -1.3724
  648MOL0     H87427   1.932   9.399  10.439 -0.6125  0.3813  1.3958
  648MOL0     H87428   2.065   9.387  10.553  1.4654  0.6383 -1.3092
  648MOL0     H87429   2.101   9.430  10.256  1.6495  0.0405 -0.6787
  648MOL0     H87430   2.234   9.414  10.374  0.2109  1.5000  3.4106
  648MOL0     H87431   2.272   9.579  10.577 -0.6011 -0.1934  0.2728
  648MOL0     H87432   2.169   9.938  10.624 -0.7731 -1.0256 -0.4433
  648MOL0     H87433   2.261   9.817  10.694 -2.3089  1.0350 -0.0521
  648MOL0     H87434   2.402  10.005  10.622  0.5318  0.4366 -0.0872
  648MOL0     H87435   2.343   9.981  10.457 -0.8476 -1.1484 -1.0350
  648MOL0     H87436   2.445   9.782  10.418 -0.0082 -0.6931  0.9066
  648MOL0     H87437   2.503   9.751  10.572 -2.3166  1.3842  1.3845
  648MOL0     H87438   2.634   9.943  10.590 -1.5417 -1.3066  1.0136
  648MOL0     H87439   2.585  10.005  10.423  0.0595 -0.4891 -1.6698
  648MOL0     H87440   2.775  10.076  10.395  1.9380  1.7187  0.8496
  648MOL0     H87441   2.968  10.213  10.176  0.4768  1.2081 -0.1119
  648MOL0     H87442   2.890  10.252  10.320 -0.3045  0.7468 -1.4271
  648MOL0     H87443   3.064  10.235  10.328 -0.1155  0.1070 -0.2139
  648MOL0     H87444   3.280  10.006   9.905  0.5780  1.3451  0.8198
  648MOL0     H87445   3.496  10.039   9.758  0.6002  0.7247  0.6105
  648MOL0     H87446   3.869  10.067   9.956 -0.2253  0.3067 -0.2702
  648MOL0     H87447   3.882   9.890   9.934  0.5546 -0.9501 -1.3387
  648MOL0     H87448   3.927  10.031   9.681 -0.0138  0.7897  0.4027
  648MOL0     H87449   4.029  10.099   9.808  0.5333 -0.9757  1.7276
  648MOL0     H87450   4.107   9.874   9.680  0.0256 -3.1061  1.3348
  648MOL0     H87451   4.025   9.807   9.816  0.0441  0.7096  1.7953
  648MOL0     H87452   4.244   9.842   9.887  1.7120  0.7046  0.4063
  648MOL0     H87453   4.254  10.004   9.825  0.0482  0.3392  2.5654
  648MOL0     H87454   4.127   9.879  10.078  1.7628 -0.4821  2.0495
  648MOL0     H87455   4.069  10.041  10.024  1.4079  2.5610 -1.7248
  648MOL0     H87456   4.293  10.131  10.034  1.6427  1.4920  2.4048
  648MOL0     H87457   4.257  10.070  10.185  1.2890  2.4175 -1.0622
  648MOL0     H87458   4.475  10.002  10.141 -0.6202 -0.1559  3.0442
  648MOL0     H87459   4.420   9.907  10.002  0.6554 -0.3956  0.0736
  648MOL0     H87460   4.459   9.757  10.185 -0.7459 -0.5908 -1.4716
  648MOL0     H87461   4.282   9.763  10.158 -0.2255  0.7356 -2.7814
  648MOL0     H87462   3.719   9.905  10.094  1.2051  2.5431 -0.6412
  648MOL0     H87463   3.491   9.862  10.221  0.8292  2.5814  0.7648
  648MOL0     H87464   3.089   9.749  10.202 -3.0188 -2.7840  0.3315
  648MOL0     H87465   2.894   9.675  10.334 -3.1584  0.1737  3.0356
  648MOL0     H87466   2.884   9.150  10.772 -0.6739  1.3762 -0.4510
  648MOL0     H87467   3.056   9.275  10.659 -2.0940  2.0285 -0.0294
  648MOL0     H87468   3.331   9.275  10.310 -1.3277 -0.4304 -0.2241
  648MOL0     H87469   3.515   9.334  10.181 -0.7389 -2.0548 -1.3527
  648MOL0     H87470   3.459   9.547   9.831 -0.0097 -0.8496 -0.1434
  648MOL0     H87471   3.519   9.702   9.894 -3.9007 -0.6411  0.1097
  648MOL0     H87472   3.759   9.571   9.842  0.0215 -0.4910 -0.5580
  648MOL0     H87473   3.670   9.662   9.722  0.6518  0.6497  2.7652
  648MOL0     H87474   3.575   9.478   9.617 -0.8237  1.9615  0.4949
  648MOL0     H87475   3.581   9.370   9.765 -3.3308  2.1212 -0.0935
  648MOL0     H87476   3.754   9.260   9.669 -2.3063  0.8184  3.6736
  648MOL0     H87477   3.851   9.400   9.709  0.6562  0.7916 -0.8852
  648MOL0     H87478   3.804   9.399   9.274 -2.0193 -1.6959 -0.8542
  648MOL0     H87479   3.282   9.621   9.971 -4.2710 -1.9693 -0.1130
  648MOL0     H87480   3.093   9.554  10.066  1.0446 -0.4189 -2.3588
  649MOL0     O87481   6.266   9.199   9.515  0.5430  0.2031  0.1387
  649MOL0     C87482   6.197   9.160   9.423  0.1263  0.3630 -0.4878
  649MOL0     O87483   6.245   9.105   9.305  0.7311  0.0379 -0.5453
  649MOL0     C87484   6.382   9.095   9.277  0.0480  0.1444 -0.1535
  649MOL0     C87485   6.493   9.145   9.346  0.2373 -0.3821  0.4738
  649MOL0     C87486   6.623   9.105   9.299  0.5864 -0.7431 -0.3085
  649MOL0     C87487   6.646   9.041   9.185  0.3695 -0.2998  0.9637
  649MOL0     O87488   6.765   8.988   9.150  0.0714  0.5397  0.0672
  649MOL0     C87489   6.859   9.094   9.132  0.3112  0.2104 -0.2601
  649MOL0     C87490   6.999   9.053   9.178  0.5207 -0.7281 -0.7611
  649MOL0     C87491   7.093   9.167   9.150  1.1889 -0.4315  0.1276
  649MOL0     C87492   7.236   9.106   9.132  0.8143  0.1130  1.1353
  649MOL0     C87493   7.334   9.204   9.082 -0.3800  0.0409  0.3943
  649MOL0     C87494   7.382   9.290   9.190 -0.2526 -0.4423 -0.2043
  649MOL0     C87495   7.461   9.420   9.147 -0.5852 -0.0219  0.2043
  649MOL0     C87496   7.565   9.475   9.238  0.0859  0.4624 -0.3644
  649MOL0     N87497   7.518   9.568   9.340  1.1846 -0.0918  0.0622
  649MOL0     C87498   7.460   9.536   9.458 -0.2393 -0.2594  0.5520
  649MOL0     C87499   7.419   9.654   9.504  0.1477 -0.3244  0.0129
  649MOL0     C87500   7.350   9.705   9.624 -0.0694 -0.7912 -0.9543
  649MOL0     C87501   7.430   9.827   9.677  0.2757  0.1090  0.1413
  649MOL0     C87502   7.388   9.855   9.825 -0.4084  0.6220 -0.4313
  649MOL0     C87503   7.415   9.998   9.859 -0.1484 -0.0746  0.1623
  649MOL0     O87504   7.556  10.022   9.865 -0.1733 -0.2054  0.5713
  649MOL0     C87505   7.599  10.152   9.888 -0.3011  0.3013  0.1627
  649MOL0     C87506   7.741  10.171   9.896  0.1566 -0.1173 -0.2025
  649MOL0     C87507   7.792  10.306   9.913  0.1562 -0.3375  0.4021
  649MOL0     C87508   7.935  10.313   9.924 -0.3944  0.1283  0.8369
  649MOL0     C87509   7.706  10.418   9.927  0.4952  0.9256  0.5139
  649MOL0     C87510   7.748  10.562   9.935 -0.1789  0.3685  1.1745
  649MOL0     O87511   7.868  10.590   9.886  0.2996 -0.3949  0.2472
  649MOL0     C87512   7.916  10.723   9.895 -0.5461  1.3863 -0.7323
  649MOL0     C87513   8.025  10.759   9.816  0.0172 -0.7140  0.7349
  649MOL0     C87514   8.088  10.889   9.826  0.0981 -0.2211  0.8391
  649MOL0     C87515   8.042  10.985   9.915  0.0618 -0.3440  0.5111
  649MOL0     O87516   8.110  11.105   9.936  0.7033 -0.2330 -0.1206
  649MOL0     C87517   8.035  11.223   9.945 -0.7113  0.2987 -1.0158
  649MOL0     C87518   8.079  11.306  10.072  0.1102 -0.0743 -0.0861
  649MOL0     C87519   8.013  11.436  10.067 -0.3103  0.5919 -0.5800
  649MOL0     C87520   8.098  11.554  10.092  0.6683 -0.2058 -0.5122
  649MOL0     C87521   8.019  11.687  10.060  0.6475  0.6331 -0.4425
  649MOL0     C87522   8.098  11.808  10.111  1.2365 -0.1279 -0.4967
  649MOL0     C87523   8.001  11.921  10.140  0.0926  0.0999  0.3027
  649MOL0     C87524   8.079  12.043  10.193 -0.4911  0.1511  0.0543
  649MOL0    Cl87525   8.156  12.112  10.042 -0.2685  0.4006 -0.2127
  649MOL0     C87526   7.938  10.953  10.003  0.8347  0.3535 -0.6326
  649MOL0     C87527   7.882  10.815   9.994  0.1093  0.1645  0.4527
  649MOL0     O87528   7.676  10.642   9.984 -0.2936 -0.3540 -0.2680
  649MOL0     C87529   7.569  10.384   9.929  0.2957  0.0087 -0.3471
  649MOL0     C87530   7.511  10.258   9.908 -0.7321  0.5047  0.0345
  649MOL0     N87531   7.452   9.760   9.411  0.3387 -0.3258  0.0808
  649MOL0     N87532   7.522   9.703   9.322  0.2067 -0.5305  0.7421
  649MOL0     C87533   6.536   9.012   9.105 -0.0765  0.8724 -0.4774
  649MOL0     C87534   6.403   9.038   9.153 -0.3085 -0.1441  0.1398
  649MOL0     C87535   6.046   9.155   9.441 -0.7326 -0.2777  0.6606
  649MOL0     C87536   5.989   9.171   9.567 -0.3268  1.3320  0.0983
  649MOL0     C87537   5.846   9.174   9.577  0.1691  0.5167 -0.8021
  649MOL0     C87538   5.761   9.170   9.461 -1.2699 -0.3873 -0.3182
  649MOL0     O87539   5.625   9.164   9.450  0.3573 -0.4119  0.1550
  649MOL0     C87540   5.542   9.200   9.565 -0.2022  1.2362  0.0939
  649MOL0     C87541   5.500   9.075   9.644  0.0229 -0.0742 -0.1602
  649MOL0     C87542   5.509   8.946   9.554  0.3369 -0.2295 -0.6655
  649MOL0     C87543   5.419   8.831   9.607 -0.8906  0.0914 -0.6096
  649MOL0     C87544   5.296   8.853   9.684 -0.0183 -0.7696 -0.0865
  649MOL0     C87545   5.209   8.887   9.759  0.6896 -0.6996 -0.7427
  649MOL0     C87546   5.823   9.157   9.337 -0.2566  0.5605  0.0059
  649MOL0     C87547   5.965   9.157   9.329 -0.4898 -0.0693 -0.5207
  649MOL0     H87548   6.503   9.186   9.446  1.6981  1.1578 -0.2556
  649MOL0     H87549   6.707   9.109   9.367  1.1556 -2.7280 -0.8447
  649MOL0     H87550   6.872   9.120   9.026  1.7484 -0.8291 -0.3771
  649MOL0     H87551   6.835   9.181   9.194  1.2926  0.0537  0.3479
  649MOL0     H87552   6.988   9.039   9.286 -1.4593  2.7093 -0.3317
  649MOL0     H87553   7.025   8.959   9.128  2.8791 -0.1250 -0.8023
  649MOL0     H87554   7.072   9.215   9.054  2.5563  0.4430  0.2378
  649MOL0     H87555   7.095   9.247   9.224 -0.1243  0.3275 -0.6270
  649MOL0     H87556   7.263   9.060   9.228 -1.1628 -2.1641  0.6816
  649MOL0     H87557   7.218   9.027   9.058 -2.2389 -0.0072  1.8804
  649MOL0     H87558   7.414   9.147   9.034  1.9459  1.6544  2.1947
  649MOL0     H87559   7.291   9.277   9.013  0.7462  0.2860 -0.0710
  649MOL0     H87560   7.294   9.318   9.249 -0.2046  1.4701 -0.9485
  649MOL0     H87561   7.442   9.220   9.249 -1.3684 -1.4948 -0.2849
  649MOL0     H87562   7.520   9.394   9.058  2.4156  2.5446  1.2594
  649MOL0     H87563   7.393   9.499   9.114  1.7946  1.4214 -1.6015
  649MOL0     H87564   7.637   9.523   9.172  1.4173  0.1706  0.8266
  649MOL0     H87565   7.614   9.390   9.287 -1.2636 -0.6391 -0.8640
  649MOL0     H87566   7.446   9.435   9.495 -0.2449 -0.1636  0.8092
  649MOL0     H87567   7.245   9.721   9.597 -0.3431 -2.0487 -0.6853
  649MOL0     H87568   7.350   9.630   9.704  0.5981  1.6507  1.4920
  649MOL0     H87569   7.389   9.908   9.616 -2.7487 -0.2891  1.4612
  649MOL0     H87570   7.536   9.809   9.662  0.6685  0.2166  2.4635
  649MOL0     H87571   7.453   9.790   9.884  0.4133  4.4497  3.4326
  649MOL0     H87572   7.285   9.834   9.856  0.4033 -3.3635  0.0935
  649MOL0     H87573   7.377  10.014   9.960  2.2908  1.0784  0.9787
  649MOL0     H87574   7.359  10.059   9.788 -0.8894 -0.7715  0.1418
  649MOL0     H87575   7.803  10.084   9.877  1.1626  1.2819 -4.6808
  649MOL0     H87576   7.975  10.331   9.824 -0.1812  2.8769  1.3310
  649MOL0     H87577   7.964  10.391   9.994 -0.4433 -0.5980  1.6866
  649MOL0     H87578   7.976  10.217   9.958 -0.1711  0.6771  2.1748
  649MOL0     H87579   8.071  10.682   9.754  2.0756  0.6839  0.4068
  649MOL0     H87580   8.177  10.900   9.765 -1.0634 -1.3846 -1.1600
  649MOL0     H87581   8.067  11.277   9.856 -0.4030  6.4296  2.2895
  649MOL0     H87582   7.928  11.202   9.953 -0.1947 -2.0003  1.5103
  649MOL0     H87583   8.046  11.249  10.159 -0.2207  0.9857  0.4947
  649MOL0     H87584   8.188  11.312  10.066  0.1921  1.5477  1.8872
  649MOL0     H87585   7.929  11.438  10.138  0.3572  0.6079  0.2171
  649MOL0     H87586   7.963  11.459   9.972 -1.7627  0.4174  0.1026
  649MOL0     H87587   8.127  11.555  10.198  0.5738 -1.2248 -0.4649
  649MOL0     H87588   8.181  11.537  10.024  1.5158 -1.5460  0.7784
  649MOL0     H87589   7.915  11.684  10.094  1.2263 -0.7721  1.3409
  649MOL0     H87590   8.001  11.700   9.953 -0.1745 -1.9429 -0.6722
  649MOL0     H87591   8.150  11.789  10.205  0.0138  2.9896  0.9716
  649MOL0     H87592   8.180  11.839  10.045 -1.1451  4.5937 -1.7268
  649MOL0     H87593   7.923  11.897  10.213 -0.1407  0.6453  0.2393
  649MOL0     H87594   7.949  11.939  10.045  2.5435  0.0473 -1.1242
  649MOL0     H87595   8.162  12.007  10.255  0.6139 -0.4963 -1.7086
  649MOL0     H87596   8.024  12.128  10.233  1.5591  0.9145  1.4113
  649MOL0     H87597   7.908  11.024  10.079  1.4930 -1.6709  1.6566
  649MOL0     H87598   7.808  10.795  10.071  2.3819 -0.6368  2.5479
  649MOL0     H87599   7.502  10.470   9.927  1.2274  0.8341  1.4983
  649MOL0     H87600   7.405  10.235   9.901 -0.3548 -1.1451 -0.6604
  649MOL0     H87601   6.546   8.958   9.012 -2.0906 -0.1142 -0.1826
  649MOL0     H87602   6.324   8.997   9.091  0.7481  0.2792 -1.5715
  649MOL0     H87603   6.058   9.169   9.651 -0.0074 -0.7909 -0.1620
  649MOL0     H87604   5.803   9.171   9.677 -0.7281  0.8719 -1.1717
  649MOL0     H87605   5.590   9.268   9.636  1.1305 -1.6464  2.1694
  649MOL0     H87606   5.450   9.251   9.535  0.9399  4.0461  0.9558
  649MOL0     H87607   5.398   9.093   9.678 -0.2127 -0.2261 -0.7699
  649MOL0     H87608   5.570   9.062   9.727  1.0608  1.8657 -0.6544
  649MOL0     H87609   5.614   8.915   9.555  1.2623  2.4132  2.0074
  649MOL0     H87610   5.479   8.975   9.453  0.7606  1.4738 -0.3370
  649MOL0     H87611   5.478   8.769   9.676  0.5429 -0.2352 -2.0588
  649MOL0     H87612   5.395   8.765   9.524  0.3356 -1.3143  0.1008
  649MOL0     H87613   5.125   8.926   9.813 -0.1496 -3.0673 -0.2221
  649MOL0     H87614   5.752   9.160   9.255 -1.5979  0.2850  1.1186
  649MOL0     H87615   6.014   9.152   9.232  2.0901 -1.9151  0.7449
  650MOL0     O87616   0.592   3.252  10.940  0.0199  0.0606  0.3178
  650MOL0     C87617   0.570   3.201  10.835  0.4730  0.0792  0.1639
  650MOL0     O87618   0.668   3.175  10.733  0.4872 -0.7662 -0.2012
  650MOL0     C87619   0.796   3.226  10.740  0.2162  0.1275 -0.5112
  650MOL0     C87620   0.872   3.187  10.625  0.3170  0.1211  0.3229
  650MOL0     C87621   1.004   3.227  10.627  0.1272 -1.6094 -0.2515
  650MOL0     C87622   1.064   3.287  10.726  0.4608 -0.0196 -0.5303
  650MOL0     O87623   1.203   3.308  10.737  0.2422  0.4584  0.1782
  650MOL0     C87624   1.243   3.437  10.760 -0.1812  0.1004 -0.0440
  650MOL0     C87625   1.390   3.434  10.800 -0.0806  0.7650  0.1767
  650MOL0     C87626   1.415   3.377  10.950 -0.1763  0.8142  0.0609
  650MOL0     C87627   1.562   3.373  10.977  0.2323  0.7366 -0.6402
  650MOL0     C87628   1.632   3.248  10.929 -0.0559  0.0148 -0.3080
  650MOL0     C87629   1.784   3.250  10.947  0.3125  0.2628 -0.3021
  650MOL0     C87630   1.841   3.116  10.881 -1.1262 -1.0374 -0.5706
  650MOL0     C87631   1.990   3.125  10.840 -0.4247 -0.6398 -0.3992
  650MOL0     N87632   2.089   3.141  10.953  0.3731 -0.2827 -0.3366
  650MOL0     C87633   2.130   3.058  11.049  0.0707  0.2687  0.0830
  650MOL0     C87634   2.243   3.118  11.093  0.0490 -0.0738 -1.6186
  650MOL0     C87635   2.350   3.071  11.196 -0.0913 -0.8235  0.2811
  650MOL0     C87636   2.310   3.100  11.340  0.5007  0.5482  0.2264
  650MOL0     C87637   2.189   3.019  11.390 -0.0683  0.0125 -0.5508
  650MOL0     C87638   2.193   3.006  11.540  0.3901 -0.0846 -0.2981
  650MOL0     O87639   2.064   2.942  11.574 -0.3898  0.2724  0.4317
  650MOL0     C87640   1.947   3.022  11.570 -0.0373 -0.4927  0.0225
  650MOL0     C87641   1.952   3.154  11.529  0.2909 -0.2478  0.6100
  650MOL0     C87642   1.832   3.227  11.506  0.5205 -0.0746  0.0409
  650MOL0     C87643   1.838   3.374  11.463  0.1086 -0.1628 -0.3655
  650MOL0     C87644   1.704   3.159  11.526 -0.4082 -0.3200 -0.2197
  650MOL0     C87645   1.571   3.223  11.493 -0.3726  0.1793  0.3557
  650MOL0     O87646   1.554   3.309  11.386  0.2721  0.4944 -0.5146
  650MOL0     C87647   1.447   3.396  11.395 -0.4537 -0.2036  0.4540
  650MOL0     C87648   1.456   3.516  11.459 -0.6454 -0.3832  0.2629
  650MOL0     C87649   1.350   3.603  11.484 -0.8546  0.5873  0.0445
  650MOL0     C87650   1.223   3.563  11.440 -0.3571  0.1622  0.9122
  650MOL0     O87651   1.102   3.629  11.463 -0.0572  0.1102  0.0927
  650MOL0     C87652   1.094   3.752  11.535  0.1838  0.3877 -0.2107
  650MOL0     C87653   1.120   3.873  11.435 -0.4373  0.8063 -0.3567
  650MOL0     C87654   0.999   3.879  11.337 -0.2812 -0.1266 -0.4008
  650MOL0     C87655   0.898   3.990  11.394  0.7730 -0.5427  0.2223
  650MOL0     C87656   0.820   4.056  11.278 -1.2621 -0.3773 -0.1581
  650MOL0     C87657   0.712   3.972  11.228 -0.2136 -0.4862  0.2310
  650MOL0     C87658   0.642   4.046  11.118  0.2931  0.5225  0.5806
  650MOL0     C87659   0.532   3.960  11.047 -0.6608  0.0497 -0.2201
  650MOL0    Cl87660   0.397   3.947  11.168  0.4015  0.6237 -0.1846
  650MOL0     C87661   1.212   3.444  11.370 -1.3328  0.5920 -0.1144
  650MOL0     C87662   1.324   3.359  11.351  0.1115  0.1829 -0.3923
  650MOL0     O87663   1.481   3.187  11.559  0.7178 -0.2490  0.3888
  650MOL0     C87664   1.704   3.024  11.570  1.0399  0.3207 -0.5269
  650MOL0     C87665   1.823   2.958  11.589 -0.6165 -0.5004 -0.0909
  650MOL0     N87666   2.265   3.236  11.019  0.1264 -0.2232  0.6116
  650MOL0     N87667   2.173   3.242  10.929  0.1060 -0.3353 -0.3672
  650MOL0     C87668   0.988   3.322  10.844  1.3217 -0.1561  0.0433
  650MOL0     C87669   0.854   3.297  10.851 -0.1833 -0.4146  0.8549
  650MOL0     C87670   0.436   3.144  10.799  0.1137 -0.3947  0.1795
  650MOL0     C87671   0.311   3.187  10.856 -0.1674  0.5265  0.3344
  650MOL0     C87672   0.193   3.133  10.821  0.0629  0.0964 -0.1112
  650MOL0     C87673   0.177   3.033  10.720  0.3873 -0.2269 -0.1523
  650MOL0     O87674   0.045   2.994  10.691 -0.6462 -0.2279 -0.9828
  650MOL0     C87675   0.017   2.896  10.592 -0.3262 -0.6301  0.0180
  650MOL0     C87676   0.024   2.968  10.454 -0.8330  0.6113  0.5247
  650MOL0     C87677   0.041   2.860  10.334  0.2956 -0.6766  0.3893
  650MOL0     C87678  -0.080   2.766  10.318 -0.2269 -0.0256 -0.3590
  650MOL0     C87679  -0.215   2.816  10.300  0.3242  0.0434  0.0973
  650MOL0     C87680  -0.328   2.862  10.294  0.8112  0.3441  0.3506
  650MOL0     C87681   0.299   2.993  10.655  0.0657  0.5910  0.4381
  650MOL0     C87682   0.428   3.040  10.703  0.2566 -1.1233  0.7175
  650MOL0     H87683   0.824   3.137  10.541  0.7565  2.9762 -1.7650
  650MOL0     H87684   1.069   3.210  10.542  1.4378 -0.0240  0.3819
  650MOL0     H87685   1.231   3.496  10.668  0.0449 -1.2974 -1.0072
  650MOL0     H87686   1.194   3.494  10.839 -0.2109  0.3451 -0.2373
  650MOL0     H87687   1.448   3.369  10.734  0.9109  2.3146 -0.5527
  650MOL0     H87688   1.427   3.536  10.783 -0.3126  0.7691 -0.3099
  650MOL0     H87689   1.359   3.431  11.027  0.0664  0.8177  0.2340
  650MOL0     H87690   1.367   3.279  10.964  0.5793  0.7844  3.1779
  650MOL0     H87691   1.622   3.456  10.939 -0.6856  1.0324 -1.4764
  650MOL0     H87692   1.576   3.384  11.085 -0.8658  0.4749 -0.4651
  650MOL0     H87693   1.580   3.168  10.983 -3.4253  2.5943  0.6675
  650MOL0     H87694   1.613   3.236  10.822  0.7564  1.5525 -0.6536
  650MOL0     H87695   1.833   3.341  10.913 -2.1065  2.0534  0.7224
  650MOL0     H87696   1.821   3.252  11.050 -0.6576  2.1236  0.0508
  650MOL0     H87697   1.811   3.028  10.939 -2.1871  1.1914  2.5506
  650MOL0     H87698   1.792   3.109  10.784 -1.5277  0.6182 -0.5187
  650MOL0     H87699   2.006   3.212  10.776 -0.8349 -0.8144 -0.7443
  650MOL0     H87700   2.024   3.038  10.783  1.3183 -0.5349  0.4355
  650MOL0     H87701   2.100   2.958  11.079  0.4018  0.3403  0.6661
  650MOL0     H87702   2.358   2.962  11.190 -2.8548 -1.0444 -1.3149
  650MOL0     H87703   2.443   3.125  11.176 -0.3847 -0.8380 -1.2710
  650MOL0     H87704   2.307   3.205  11.370  0.8059  0.6085  0.0556
  650MOL0     H87705   2.396   3.062  11.397 -0.5255  1.4014  2.4855
  650MOL0     H87706   2.193   2.918  11.348 -0.2641  0.8251 -2.6445
  650MOL0     H87707   2.097   3.068  11.356  0.3757  1.4118  0.1869
  650MOL0     H87708   2.208   3.101  11.590  2.0000  1.1500 -2.9161
  650MOL0     H87709   2.270   2.930  11.557 -1.5855 -2.7717 -2.3082
  650MOL0     H87710   2.052   3.194  11.526  0.8704 -1.5959  1.0134
  650MOL0     H87711   1.785   3.438  11.533  0.0480 -0.3806 -0.2107
  650MOL0     H87712   1.942   3.409  11.457  0.0365  0.4946  1.4823
  650MOL0     H87713   1.791   3.387  11.365  1.0123 -2.8419 -1.2689
  650MOL0     H87714   1.551   3.542  11.503 -0.6614 -1.1534  0.7921
  650MOL0     H87715   1.364   3.695  11.539 -1.6149  0.7021  0.0566
  650MOL0     H87716   0.995   3.759  11.580 -0.4760 -1.2956 -1.2914
  650MOL0     H87717   1.159   3.743  11.623  0.4709 -2.3706 -0.6254
  650MOL0     H87718   1.148   3.966  11.485  3.5227  0.3477 -1.4112
  650MOL0     H87719   1.205   3.839  11.376  0.3531  4.0341 -1.2773
  650MOL0     H87720   0.941   3.787  11.321 -2.4172  1.1160 -0.2325
  650MOL0     H87721   1.044   3.908  11.242  0.6118 -4.0369 -1.3780
  650MOL0     H87722   0.830   3.948  11.469  1.7933 -3.6099 -0.4556
  650MOL0     H87723   0.952   4.065  11.453 -1.6736 -0.2266  2.2108
  650MOL0     H87724   0.889   4.091  11.201 -1.9901 -1.0440 -1.1475
  650MOL0     H87725   0.774   4.146  11.319  0.9414  0.4323  0.6794
  650MOL0     H87726   0.763   3.886  11.185  0.1939 -0.1607  0.0616
  650MOL0     H87727   0.644   3.953  11.312 -0.0081  2.6766  1.2355
  650MOL0     H87728   0.717   4.067  11.041  0.0154  4.0083  1.1015
  650MOL0     H87729   0.594   4.143  11.136 -1.7710  0.0355 -1.8286
  650MOL0     H87730   0.574   3.863  11.020  0.9468  0.8237 -0.6057
  650MOL0     H87731   0.505   4.012  10.955  0.6757  0.1073 -0.6010
  650MOL0     H87732   1.118   3.408  11.328 -1.1414 -1.8867  1.3945
  650MOL0     H87733   1.311   3.259  11.311  1.3592 -1.3323  2.6861
  650MOL0     H87734   1.606   2.984  11.589  0.2270  1.3213 -2.3992
  650MOL0     H87735   1.832   2.853  11.615 -0.5712 -1.1478 -2.4798
  650MOL0     H87736   1.038   3.363  10.931  3.7110 -0.5999 -1.0385
  650MOL0     H87737   0.824   3.319  10.953  2.6731 -0.9469  1.8795
  650MOL0     H87738   0.313   3.269  10.927  0.5684 -0.8743  1.9988
  650MOL0     H87739   0.100   3.172  10.859 -0.1293  0.6342 -1.1214
  650MOL0     H87740   0.096   2.820  10.601  1.0920  1.0284  2.9919
  650MOL0     H87741  -0.083   2.857  10.613 -1.1659  1.6419  0.4715
  650MOL0     H87742   0.111   3.033  10.456 -0.3521 -0.0209  0.5894
  650MOL0     H87743  -0.063   3.034  10.450 -3.1554 -2.1612  1.1734
  650MOL0     H87744   0.134   2.810  10.361  0.4064 -2.0624 -2.2227
  650MOL0     H87745   0.057   2.919  10.242  0.3573  0.3797  1.0588
  650MOL0     H87746  -0.091   2.716  10.414  0.3704  2.8840  1.3391
  650MOL0     H87747  -0.037   2.687  10.256  1.6212  1.2164 -0.7571
  650MOL0     H87748  -0.429   2.895  10.281  1.6024  2.0518 -2.3935
  650MOL0     H87749   0.299   2.930  10.567 -3.5123  1.7016 -0.5330
  650MOL0     H87750   0.516   3.008  10.648  0.4971  0.8823 -0.1567
  651MOL0     O87751   6.526   2.368   4.866 -0.1382  1.0727  0.2269
  651MOL0     C87752   6.605   2.282   4.837  0.7935 -0.2907 -0.8261
  651MOL0     O87753   6.619   2.225   4.713  0.2074  0.0241  0.2814
  651MOL0     C87754   6.546   2.268   4.605 -0.7229 -0.2924  0.5017
  651MOL0     C87755   6.440   2.351   4.590 -0.1069  0.6191 -0.3783
  651MOL0     C87756   6.391   2.393   4.464 -0.2447  0.1247  0.0435
  651MOL0     C87757   6.455   2.352   4.347 -0.4424  0.2294  0.1411
  651MOL0     O87758   6.413   2.414   4.230 -0.1924  0.0884  0.3259
  651MOL0     C87759   6.400   2.326   4.117  0.3682  0.5531  0.6200
  651MOL0     C87760   6.498   2.353   4.003  0.1470 -0.8926  0.4299
  651MOL0     C87761   6.518   2.243   3.901 -0.6219  0.5438  0.2162
  651MOL0     C87762   6.583   2.115   3.968 -0.5433  0.4988 -0.1685
  651MOL0     C87763   6.613   2.012   3.858 -0.3911  0.3913  0.3587
  651MOL0     C87764   6.676   1.893   3.930 -0.1165  0.1766  0.2864
  651MOL0     C87765   6.594   1.812   4.027  0.4189 -0.0804 -0.6842
  651MOL0     C87766   6.675   1.717   4.106 -0.0865  0.6388 -0.3770
  651MOL0     N87767   6.627   1.709   4.250  1.2214 -0.2987  0.3152
  651MOL0     C87768   6.693   1.760   4.359  0.3903 -0.2572 -0.0977
  651MOL0     C87769   6.602   1.792   4.455  1.2039  0.3733  0.7462
  651MOL0     C87770   6.639   1.847   4.588  1.0465  0.4484 -0.1234
  651MOL0     C87771   6.545   1.784   4.700  0.4572  0.2459 -0.6129
  651MOL0     C87772   6.597   1.820   4.842 -0.2646  0.8726  0.0877
  651MOL0     C87773   6.515   1.750   4.956 -0.2054  0.8202  0.7274
  651MOL0     O87774   6.532   1.826   5.071  0.5154 -0.4945  0.2181
  651MOL0     C87775   6.456   1.805   5.181  0.2034 -0.6400 -0.1202
  651MOL0     C87776   6.478   1.885   5.292 -0.2758 -0.3831 -1.2083
  651MOL0     C87777   6.402   1.886   5.416 -0.0266 -1.1784 -0.5261
  651MOL0     C87778   6.430   2.005   5.506 -0.6900 -1.2604 -1.2464
  651MOL0     C87779   6.289   1.802   5.427 -0.1068 -0.1269  0.1914
  651MOL0     C87780   6.207   1.794   5.546 -0.0498  0.8258 -0.4189
  651MOL0     O87781   6.113   1.700   5.552 -0.2952  0.0850 -0.0544
  651MOL0     C87782   6.032   1.691   5.662  0.4876  0.2168 -1.0874
  651MOL0     C87783   6.041   1.585   5.759 -0.0853 -0.4300 -0.0163
  651MOL0     C87784   5.957   1.582   5.865 -0.4257  0.2209 -0.6908
  651MOL0     C87785   5.855   1.672   5.890  0.5776  0.5852  0.4004
  651MOL0     O87786   5.762   1.661   5.990  0.5082 -0.7291 -0.3814
  651MOL0     C87787   5.728   1.533   6.045 -0.2070 -0.3609  0.0515
  651MOL0     C87788   5.606   1.550   6.128 -0.7414  0.2842 -0.0667
  651MOL0     C87789   5.520   1.422   6.127 -0.5906 -0.1444  0.1246
  651MOL0     C87790   5.398   1.463   6.212  0.1520  0.1483  1.0398
  651MOL0     C87791   5.316   1.339   6.234  0.1414  0.2077  0.6364
  651MOL0     C87792   5.374   1.263   6.348 -0.9694  0.3836  0.5623
  651MOL0     C87793   5.330   1.113   6.355 -0.1246 -0.0098  0.3934
  651MOL0     C87794   5.192   1.084   6.381 -0.2935 -0.0544  0.0673
  651MOL0    Cl87795   5.136   1.164   6.535 -0.0022 -0.0753  0.2831
  651MOL0     C87796   5.844   1.780   5.798  0.8703 -0.2911  0.2972
  651MOL0     C87797   5.934   1.788   5.687 -0.3459 -0.2022  0.0101
  651MOL0     O87798   6.220   1.880   5.632 -0.5297 -0.2231 -0.3596
  651MOL0     C87799   6.279   1.706   5.317  0.4338  0.0310 -1.4888
  651MOL0     C87800   6.358   1.708   5.198  0.1392  0.3321  0.0941
  651MOL0     N87801   6.478   1.747   4.407  0.2628 -0.3775 -0.0181
  651MOL0     N87802   6.494   1.702   4.291  0.0019  0.2286  0.3356
  651MOL0     C87803   6.571   2.274   4.368 -0.1321 -0.4954  0.0607
  651MOL0     C87804   6.616   2.225   4.487  0.2243 -0.0258  0.3388
  651MOL0     C87805   6.660   2.204   4.952 -0.3041 -1.2438  0.8259
  651MOL0     C87806   6.775   2.127   4.924  0.3037  0.6998  0.0853
  651MOL0     C87807   6.842   2.056   5.029 -0.6310 -0.2635 -0.0535
  651MOL0     C87808   6.789   2.063   5.163  0.0587 -0.5354  1.1998
  651MOL0     O87809   6.848   1.993   5.267  0.3811  0.3013 -0.3971
  651MOL0     C87810   6.888   1.853   5.228  0.5394 -0.1032 -0.6667
  651MOL0     C87811   6.895   1.769   5.362  0.4423  0.1597 -0.0167
  651MOL0     C87812   6.753   1.749   5.414  0.1347  0.3220  0.4420
  651MOL0     C87813   6.746   1.631   5.516  0.4784  0.1567  0.3723
  651MOL0     C87814   6.609   1.634   5.586 -0.2369  0.0227  0.0455
  651MOL0     C87815   6.499   1.630   5.633 -0.0663 -0.2013  0.0626
  651MOL0     C87816   6.667   2.134   5.191 -0.5542  0.2471 -0.5798
  651MOL0     C87817   6.607   2.202   5.082  0.5922  0.5383 -0.7971
  651MOL0     H87818   6.395   2.383   4.684  0.2869 -0.8046  0.3354
  651MOL0     H87819   6.310   2.464   4.449  1.7561  2.7506  0.8313
  651MOL0     H87820   6.402   2.223   4.152 -2.9530  0.9261  2.3087
  651MOL0     H87821   6.298   2.341   4.081  1.3120  0.6387 -2.2353
  651MOL0     H87822   6.471   2.441   3.945  0.1059 -1.7228 -0.8545
  651MOL0     H87823   6.595   2.366   4.053  0.1086 -0.0310  0.2948
  651MOL0     H87824   6.430   2.215   3.843  0.5709  0.3069 -1.5628
  651MOL0     H87825   6.594   2.275   3.829  1.5450  1.3247  2.6655
  651MOL0     H87826   6.675   2.136   4.023 -0.3503 -0.2646 -0.1991
  651MOL0     H87827   6.515   2.078   4.045  1.1579  1.1024  1.7010
  651MOL0     H87828   6.517   1.983   3.814  0.7968 -2.1022 -0.8147
  651MOL0     H87829   6.673   2.057   3.778 -0.9777  1.6384  0.5886
  651MOL0     H87830   6.714   1.828   3.851  3.1637  1.6306  0.5025
  651MOL0     H87831   6.776   1.925   3.958 -0.2971  1.8698 -0.8068
  651MOL0     H87832   6.553   1.880   4.102 -1.5083 -1.5082 -0.3704
  651MOL0     H87833   6.506   1.772   3.976  0.8195 -2.2857  0.2397
  651MOL0     H87834   6.782   1.742   4.098 -0.3928  1.5841 -1.9630
  651MOL0     H87835   6.659   1.618   4.062 -0.6469  0.6987 -0.3061
  651MOL0     H87836   6.801   1.769   4.358  0.3631  0.1131 -1.5088
  651MOL0     H87837   6.745   1.828   4.607  0.0765 -3.6527  2.4498
  651MOL0     H87838   6.627   1.956   4.589  0.3681  0.3997 -1.5279
  651MOL0     H87839   6.538   1.674   4.695  0.4697  0.1913  0.3936
  651MOL0     H87840   6.442   1.818   4.687 -0.1014 -1.7012 -1.8192
  651MOL0     H87841   6.590   1.929   4.847 -1.3518  0.7672  1.3946
  651MOL0     H87842   6.702   1.792   4.858 -0.4025  1.7025  2.8878
  651MOL0     H87843   6.551   1.649   4.976 -0.9078  0.8089  2.1089
  651MOL0     H87844   6.408   1.750   4.931 -0.2666  2.0818  0.8783
  651MOL0     H87845   6.571   1.938   5.276 -1.0239  1.9035  1.2312
  651MOL0     H87846   6.524   2.058   5.491 -1.8801  2.0575  1.6425
  651MOL0     H87847   6.348   2.078   5.504 -2.2351 -2.9139 -1.8734
  651MOL0     H87848   6.448   1.971   5.608  2.3578  0.1162 -1.2400
  651MOL0     H87849   6.120   1.515   5.733  3.1436  3.1614 -0.9652
  651MOL0     H87850   5.964   1.501   5.937 -2.8325 -1.8849 -2.6233
  651MOL0     H87851   5.711   1.467   5.960 -1.2889  0.3725 -0.3317
  651MOL0     H87852   5.805   1.496   6.113 -1.1249  0.6612  1.7105
  651MOL0     H87853   5.636   1.570   6.232  0.7594  2.2924 -0.8209
  651MOL0     H87854   5.548   1.634   6.088  3.0210  2.1491 -2.1774
  651MOL0     H87855   5.586   1.342   6.161  1.5606  0.8334 -1.4852
  651MOL0     H87856   5.486   1.402   6.025 -2.2806  1.3965  0.3402
  651MOL0     H87857   5.434   1.511   6.304  1.4749 -1.5096  1.4362
  651MOL0     H87858   5.335   1.526   6.149  0.0628 -0.6421  0.3246
  651MOL0     H87859   5.306   1.280   6.143  1.1205 -0.5343  0.9903
  651MOL0     H87860   5.217   1.370   6.268 -0.8475 -1.7797 -0.2835
  651MOL0     H87861   5.482   1.257   6.341 -1.0458 -0.0877 -0.2753
  651MOL0     H87862   5.339   1.324   6.432  0.3912 -0.7887  2.0415
  651MOL0     H87863   5.383   1.060   6.435 -0.6548  0.9932  1.4443
  651MOL0     H87864   5.370   1.068   6.264 -1.0635  0.7224 -0.3988
  651MOL0     H87865   5.183   0.976   6.396  3.3748 -0.2266  1.9375
  651MOL0     H87866   5.118   1.103   6.303  0.3797 -0.8847 -0.7887
  651MOL0     H87867   5.768   1.857   5.790  0.5644 -0.6388 -0.1375
  651MOL0     H87868   5.925   1.862   5.608  1.8495  3.0527  2.5820
  651MOL0     H87869   6.191   1.643   5.328 -2.0548  3.5925  1.4533
  651MOL0     H87870   6.342   1.627   5.127  4.2265  0.1600 -0.8524
  651MOL0     H87871   6.623   2.248   4.277 -1.8932  0.5222 -1.3050
  651MOL0     H87872   6.697   2.154   4.497  2.5948  2.6032  1.0480
  651MOL0     H87873   6.812   2.124   4.823 -0.2350  1.1029 -0.1302
  651MOL0     H87874   6.935   2.008   5.000 -1.7449 -1.7313 -1.3780
  651MOL0     H87875   6.812   1.809   5.163  0.0893 -1.9368  0.9759
  651MOL0     H87876   6.983   1.855   5.175 -0.1997  1.4805 -2.0259
  651MOL0     H87877   6.942   1.831   5.439 -0.5963 -0.5945  1.2567
  651MOL0     H87878   6.953   1.676   5.359  0.3024 -0.0209  1.8345
  651MOL0     H87879   6.691   1.718   5.329  0.4398  0.0981  0.2986
  651MOL0     H87880   6.709   1.838   5.459  1.1196  0.0919  1.9475
  651MOL0     H87881   6.828   1.637   5.588  3.0474  0.0110 -2.3656
  651MOL0     H87882   6.750   1.538   5.459 -4.9655  0.3009 -0.8597
  651MOL0     H87883   6.405   1.654   5.678  0.1753 -0.6039  0.8071
  651MOL0     H87884   6.646   2.129   5.297  4.4256  1.7192  0.7801
  651MOL0     H87885   6.510   2.248   5.093  0.3588 -0.0642 -0.2864
  652MOL0     O87886   2.613   1.929   6.328  0.0392  0.5269 -0.0186
  652MOL0     C87887   2.614   1.866   6.219  0.3172  0.2744 -0.6217
  652MOL0     O87888   2.557   1.743   6.198  0.0005 -0.0494  0.3444
  652MOL0     C87889   2.476   1.680   6.285 -0.3724 -0.2279 -0.0310
  652MOL0     C87890   2.361   1.747   6.331  0.0453 -0.9572 -0.2755
  652MOL0     C87891   2.282   1.687   6.426  0.7321  0.9068 -0.2702
  652MOL0     C87892   2.302   1.569   6.479 -0.0438  0.6511  0.3089
  652MOL0     O87893   2.218   1.509   6.574  0.4727  0.5855 -0.7383
  652MOL0     C87894   2.082   1.524   6.556  0.0205  0.3332  1.4159
  652MOL0     C87895   2.027   1.401   6.478  0.9577  0.2077 -0.0150
  652MOL0     C87896   2.060   1.267   6.537 -0.3532  0.0946  0.2211
  652MOL0     C87897   1.946   1.164   6.529  0.0786  0.0592  0.4194
  652MOL0     C87898   1.812   1.204   6.601 -0.7926 -0.6042 -0.6590
  652MOL0     C87899   1.843   1.237   6.746 -0.2393 -0.7191  0.6960
  652MOL0     C87900   1.893   1.121   6.836  0.0359  0.4066 -0.3276
  652MOL0     C87901   1.973   1.160   6.962 -0.3179 -0.3886 -0.8771
  652MOL0     N87902   2.115   1.209   6.958  0.3972 -0.6696  0.1901
  652MOL0     C87903   2.177   1.335   6.981  0.4053  0.3705  0.8206
  652MOL0     C87904   2.309   1.317   6.964 -0.0257  0.2987 -0.2005
  652MOL0     C87905   2.422   1.418   6.962  0.9033  0.3522 -0.2195
  652MOL0     C87906   2.392   1.554   6.884 -0.2854  0.2730 -0.0578
  652MOL0     C87907   2.443   1.680   6.959 -1.0108 -0.1569 -0.3358
  652MOL0     C87908   2.593   1.704   6.982 -0.0848 -0.0035 -0.1034
  652MOL0     O87909   2.611   1.801   7.082 -0.8884 -0.3761  0.0400
  652MOL0     C87910   2.744   1.850   7.099  0.4855  0.7943  0.3353
  652MOL0     C87911   2.761   1.932   7.209  0.0838  0.1998  0.1355
  652MOL0     C87912   2.889   1.986   7.246 -0.0259  0.2747  0.2092
  652MOL0     C87913   2.891   2.084   7.369  0.7679  1.2718  0.0262
  652MOL0     C87914   3.008   1.952   7.178  0.4523 -1.6329  0.5524
  652MOL0     C87915   3.155   1.984   7.208  1.0018 -0.0455 -0.3782
  652MOL0     O87916   3.183   2.100   7.281 -0.6122  0.5564 -0.0727
  652MOL0     C87917   3.317   2.133   7.310  0.5118 -0.7256 -0.7755
  652MOL0     C87918   3.381   2.225   7.233 -0.0406  0.1927 -0.1752
  652MOL0     C87919   3.515   2.244   7.257  0.3327 -0.1168  0.4338
  652MOL0     C87920   3.587   2.186   7.354 -0.2540 -0.2587 -0.4016
  652MOL0     O87921   3.719   2.205   7.370  0.3750 -0.4507 -1.0077
  652MOL0     C87922   3.796   2.300   7.296  0.0934  0.5261  0.5591
  652MOL0     C87923   3.937   2.276   7.339 -0.0326  0.0472 -0.5121
  652MOL0     C87924   3.966   2.349   7.458  0.4752 -0.9846 -0.5431
  652MOL0     C87925   4.108   2.323   7.512  0.3444 -0.7068  0.6985
  652MOL0     C87926   4.124   2.380   7.650 -1.0021  0.3879  0.4915
  652MOL0     C87927   4.275   2.402   7.690 -0.1242  0.0472 -0.1764
  652MOL0     C87928   4.293   2.482   7.818 -0.1455  0.4474 -0.3944
  652MOL0     C87929   4.384   2.416   7.923 -0.6478 -0.2987 -0.1051
  652MOL0    Cl87930   4.334   2.254   7.973  0.1622  0.2330 -0.2565
  652MOL0     C87931   3.519   2.095   7.438  0.3274  0.2543 -0.6819
  652MOL0     C87932   3.384   2.065   7.408  0.2648 -0.9378  0.2390
  652MOL0     O87933   3.238   1.908   7.162  0.1922 -0.6815  0.2812
  652MOL0     C87934   2.980   1.874   7.056 -0.0760  0.4784  0.9474
  652MOL0     C87935   2.856   1.822   7.017 -0.0394  0.1863  0.0527
  652MOL0     N87936   2.323   1.178   6.942 -0.1410  0.4886  0.8742
  652MOL0     N87937   2.211   1.117   6.926 -0.8366  0.2649 -0.3547
  652MOL0     C87938   2.413   1.495   6.420  0.8254 -0.6201  0.3189
  652MOL0     C87939   2.495   1.548   6.326 -0.6710  0.1773  1.1848
  652MOL0     C87940   2.684   1.929   6.103  0.4399  0.1494  0.2683
  652MOL0     C87941   2.651   1.893   5.971 -0.3077  0.3985 -0.0597
  652MOL0     C87942   2.712   1.959   5.866  0.5431 -0.8794  1.0674
  652MOL0     C87943   2.803   2.068   5.884 -0.9042  0.3711  1.0766
  652MOL0     O87944   2.860   2.141   5.782  0.4344 -0.1621  0.4387
  652MOL0     C87945   2.808   2.129   5.652  0.0626 -0.3566 -0.7274
  652MOL0     C87946   2.832   2.253   5.564 -0.7468 -0.0515 -0.2678
  652MOL0     C87947   2.980   2.249   5.513  0.9384 -0.5099 -0.7819
  652MOL0     C87948   3.014   2.375   5.426 -0.4254  0.0445 -0.8668
  652MOL0     C87949   3.122   2.347   5.325 -0.6552  0.2512 -0.3937
  652MOL0     C87950   3.214   2.314   5.255 -0.1194  0.2980 -0.6021
  652MOL0     C87951   2.833   2.099   6.013 -0.1415 -0.0634 -0.6409
  652MOL0     C87952   2.777   2.029   6.127 -0.4921  0.0860  0.8174
  652MOL0     H87953   2.339   1.842   6.284  1.6683  0.4770  1.7067
  652MOL0     H87954   2.206   1.754   6.466  0.9600  1.8286 -1.3319
  652MOL0     H87955   2.031   1.528   6.652 -0.6795 -1.5017  1.1693
  652MOL0     H87956   2.058   1.616   6.502  1.0334 -0.3735 -0.3447
  652MOL0     H87957   1.919   1.422   6.482  1.4719  3.9754 -1.3256
  652MOL0     H87958   2.040   1.398   6.369 -0.3846  1.5564 -0.2470
  652MOL0     H87959   2.131   1.227   6.464 -0.6314  2.0997 -1.2169
  652MOL0     H87960   2.102   1.270   6.638  0.6329  1.8228 -0.1980
  652MOL0     H87961   1.937   1.143   6.422  1.4498 -0.0004  0.3001
  652MOL0     H87962   1.976   1.074   6.582 -1.8220 -0.3080  0.9661
  652MOL0     H87963   1.759   1.293   6.569 -0.9067  1.3984  4.2192
  652MOL0     H87964   1.742   1.120   6.605  1.0503 -2.2057 -0.0806
  652MOL0     H87965   1.901   1.328   6.763  2.0659 -2.3373  1.8857
  652MOL0     H87966   1.746   1.270   6.785 -1.0867  4.2267 -4.2286
  652MOL0     H87967   1.809   1.056   6.864 -1.7016  1.1002 -3.4025
  652MOL0     H87968   1.960   1.055   6.780  0.5401 -0.6142  1.4067
  652MOL0     H87969   1.966   1.071   7.025 -0.5931  0.8157  0.8664
  652MOL0     H87970   1.915   1.226   7.027  2.0888 -0.2488  1.2874
  652MOL0     H87971   2.127   1.428   7.007 -0.2810  0.4942 -0.8033
  652MOL0     H87972   2.435   1.453   7.065 -0.0687  1.7618 -0.5478
  652MOL0     H87973   2.515   1.371   6.930  1.1887  0.5452  0.3023
  652MOL0     H87974   2.284   1.566   6.874 -0.3191  1.4072  1.3316
  652MOL0     H87975   2.433   1.546   6.783  0.3561 -1.4636  0.3052
  652MOL0     H87976   2.400   1.668   7.058 -1.4251  0.6167 -0.4122
  652MOL0     H87977   2.398   1.771   6.918 -1.1067 -0.4279 -0.8371
  652MOL0     H87978   2.636   1.731   6.885  1.3043  2.0987  1.0081
  652MOL0     H87979   2.647   1.614   7.014 -0.6460 -0.3038  0.0015
  652MOL0     H87980   2.682   1.940   7.283  0.1980  4.3639  0.0482
  652MOL0     H87981   2.948   2.177   7.363  4.4663 -0.8181 -0.0366
  652MOL0     H87982   2.787   2.095   7.401  1.2331  0.1482  2.1459
  652MOL0     H87983   2.935   2.029   7.453  3.5649  2.3069 -0.6674
  652MOL0     H87984   3.328   2.266   7.147  1.0303 -0.1948 -1.0427
  652MOL0     H87985   3.570   2.302   7.183  0.8459  0.3812  1.1932
  652MOL0     H87986   3.795   2.284   7.188 -0.6408  0.1579  0.6131
  652MOL0     H87987   3.763   2.402   7.317 -1.4329 -0.1681  1.8471
  652MOL0     H87988   3.960   2.171   7.357  0.4181  0.4560  1.6020
  652MOL0     H87989   4.014   2.315   7.271  1.5306 -0.2271  1.0315
  652MOL0     H87990   3.893   2.328   7.537  0.7362  1.5907  0.4724
  652MOL0     H87991   3.951   2.456   7.439  0.3404 -0.9908 -0.4698
  652MOL0     H87992   4.125   2.215   7.504 -0.2742 -0.6700 -3.3414
  652MOL0     H87993   4.173   2.372   7.439  0.2484 -4.6084 -2.3478
  652MOL0     H87994   4.081   2.303   7.715 -0.0773  1.2473  2.1938
  652MOL0     H87995   4.072   2.474   7.665 -1.1723  0.6946 -1.6820
  652MOL0     H87996   4.333   2.310   7.702  4.0030  2.4111 -0.0240
  652MOL0     H87997   4.326   2.456   7.610  0.7994 -1.0765 -0.3691
  652MOL0     H87998   4.193   2.504   7.858  0.7030 -0.4394  2.4802
  652MOL0     H87999   4.339   2.577   7.790 -0.8611  1.2668  1.0882
  652MOL0     H88000   4.393   2.483   8.009  2.2265 -2.9979  1.9243
  652MOL0     H88001   4.482   2.413   7.875 -0.4573  0.7454  0.1922
  652MOL0     H88002   3.573   2.039   7.514 -1.3272 -3.5922 -2.0691
  652MOL0     H88003   3.327   2.000   7.474 -1.1481  0.4987  0.5247
  652MOL0     H88004   3.066   1.850   6.995 -0.3014 -0.3407  0.9387
  652MOL0     H88005   2.848   1.770   6.922  1.6970  0.7770 -0.4525
  652MOL0     H88006   2.436   1.401   6.468  0.8642 -0.2547  1.0302
  652MOL0     H88007   2.569   1.484   6.280  0.0968  1.2092  0.9484
  652MOL0     H88008   2.572   1.819   5.968 -2.9941  3.0258  0.8844
  652MOL0     H88009   2.670   1.938   5.768  1.2227  2.8109 -0.1791
  652MOL0     H88010   2.841   2.034   5.610  1.5403 -1.6470  2.8866
  652MOL0     H88011   2.700   2.119   5.661 -0.0555 -2.7452 -3.6194
  652MOL0     H88012   2.820   2.348   5.618 -5.3512  0.4488 -1.7627
  652MOL0     H88013   2.757   2.254   5.484  1.8722 -0.0737 -2.9017
  652MOL0     H88014   3.005   2.157   5.460  2.2802 -1.2573  1.0330
  652MOL0     H88015   3.030   2.250   5.611  0.5073 -0.9063 -0.5519
  652MOL0     H88016   3.052   2.454   5.492  0.1293 -0.0005 -1.1301
  652MOL0     H88017   2.928   2.412   5.370 -0.2225  1.1414 -0.4653
  652MOL0     H88018   3.289   2.272   5.192 -1.8199 -0.3141 -2.3300
  652MOL0     H88019   2.916   2.168   6.025  1.8032 -2.4310  0.0884
  652MOL0     H88020   2.807   2.051   6.228 -2.5459  0.8985  1.3045
  653MOL0     O88021   9.327   2.532  10.981  0.0889  0.5354  0.5348
  653MOL0     C88022   9.357   2.413  10.969  0.3584 -0.4513 -0.8755
  653MOL0     O88023   9.478   2.372  10.946  0.0099  0.3208 -0.6224
  653MOL0     C88024   9.578   2.468  10.933 -0.2239  0.8951  0.2977
  653MOL0     C88025   9.614   2.515  10.806  0.0519 -0.5206 -0.2863
  653MOL0     C88026   9.715   2.611  10.779  0.2914 -0.5946 -0.6907
  653MOL0     C88027   9.793   2.654  10.886 -0.1170  0.1667  0.2916
  653MOL0     O88028   9.896   2.727  10.842  0.4729 -0.3066 -0.4086
  653MOL0     C88029  10.001   2.764  10.932 -0.5033  0.5327 -0.1613
  653MOL0     C88030  10.121   2.830  10.871 -0.4558 -0.6226 -0.5322
  653MOL0     C88031  10.218   2.883  10.978  0.0444 -0.6956  0.1553
  653MOL0     C88032  10.315   2.995  10.937 -0.4085  0.1398  0.7343
  653MOL0     C88033  10.373   3.052  11.071  0.2712  0.4828 -0.2492
  653MOL0     C88034  10.497   3.135  11.046 -0.1844  0.1815  0.2242
  653MOL0     C88035  10.528   3.215  11.174 -0.1012 -0.3553  0.4644
  653MOL0     C88036  10.653   3.305  11.173  0.9119  0.1285  0.4564
  653MOL0     N88037  10.655   3.397  11.063  0.9321  0.2400 -0.3179
  653MOL0     C88038  10.766   3.463  11.015 -0.0915  1.0811  0.7905
  653MOL0     C88039  10.724   3.524  10.907 -0.7500  1.1107 -0.0536
  653MOL0     C88040  10.824   3.590  10.818 -0.3510 -0.5946 -0.4673
  653MOL0     C88041  10.757   3.643  10.683 -0.4467  0.1230 -0.8535
  653MOL0     C88042  10.684   3.774  10.702 -0.4233 -0.4158 -0.6962
  653MOL0     C88043  10.648   3.846  10.569  0.2968  0.4349 -0.1992
  653MOL0     O88044  10.565   3.770  10.489 -0.4996  0.8013  0.1404
  653MOL0     C88045  10.463   3.832  10.411 -0.5098 -0.3590 -0.6416
  653MOL0     C88046  10.376   3.748  10.346 -0.4690 -0.0759  0.0717
  653MOL0     C88047  10.257   3.794  10.272  0.4927 -0.4699  0.7067
  653MOL0     C88048  10.159   3.690  10.211 -0.5269  0.0697  0.5434
  653MOL0     C88049  10.233   3.938  10.265  0.7679 -0.6514  0.1341
  653MOL0     C88050  10.110   3.999  10.198  0.2895 -0.1909 -0.2909
  653MOL0     O88051  10.020   3.914  10.124  0.4419 -0.2260 -0.5163
  653MOL0     C88052   9.920   3.977  10.045  0.7385 -0.8297  0.6701
  653MOL0     C88053   9.790   3.961  10.091  0.0191 -0.2040  0.3547
  653MOL0     C88054   9.680   4.020  10.030  0.5886 -0.1115 -0.2212
  653MOL0     C88055   9.693   4.112   9.926 -0.0563  0.4324  0.4897
  653MOL0     O88056   9.576   4.166   9.871  0.3978 -0.1839 -0.5933
  653MOL0     C88057   9.585   4.218   9.737 -0.1063  0.8928  0.3843
  653MOL0     C88058   9.439   4.225   9.685  0.1732 -0.2687 -0.4103
  653MOL0     C88059   9.428   4.297   9.552  0.4382 -0.6086  0.3516
  653MOL0     C88060   9.280   4.304   9.498 -0.2381  0.0245 -0.2570
  653MOL0     C88061   9.277   4.379   9.368 -0.2035 -0.2875 -0.1819
  653MOL0     C88062   9.126   4.413   9.343  0.1940  0.4401 -0.2247
  653MOL0     C88063   9.113   4.515   9.227  0.8976  0.8458 -0.5133
  653MOL0     C88064   8.980   4.513   9.151 -0.5148 -0.5267  0.5172
  653MOL0    Cl88065   9.016   4.626   9.016 -0.0428  0.4662 -0.2409
  653MOL0     C88066   9.826   4.131   9.879 -0.6960  0.1599  0.1166
  653MOL0     C88067   9.936   4.067   9.945 -0.9516 -0.0667  0.8386
  653MOL0     O88068  10.108   4.123  10.194 -0.1654  0.0731  0.1726
  653MOL0     C88069  10.327   4.021  10.330 -0.7650  0.7354  0.0879
  653MOL0     C88070  10.437   3.967  10.400  0.4386  0.0787  0.1461
  653MOL0     N88071  10.587   3.521  10.906  0.5999 -0.3783  0.1716
  653MOL0     N88072  10.547   3.443  10.996 -0.7604 -0.5948  0.3441
  653MOL0     C88073   9.759   2.613  11.015  0.7684  0.9545 -0.3387
  653MOL0     C88074   9.653   2.516  11.037 -0.1600  0.8799 -0.0154
  653MOL0     C88075   9.248   2.311  10.973 -0.2143  0.7846 -0.2903
  653MOL0     C88076   9.266   2.171  10.976 -0.4651  0.3812 -0.2862
  653MOL0     C88077   9.156   2.090  10.973 -0.1267  0.0190  0.5457
  653MOL0     C88078   9.021   2.133  10.964 -0.2107 -0.6314 -0.2114
  653MOL0     O88079   8.921   2.043  10.952  0.0018 -0.2292  0.1870
  653MOL0     C88080   8.790   2.082  10.914 -0.6220  0.5827 -0.3319
  653MOL0     C88081   8.698   1.981  10.841 -0.7376 -0.4052 -0.3284
  653MOL0     C88082   8.554   2.026  10.848  0.8161  0.0815  0.3485
  653MOL0     C88083   8.452   1.957  10.735 -0.8338 -0.3071  0.2627
  653MOL0     C88084   8.391   1.831  10.782  0.0219  0.0997  0.2521
  653MOL0     C88085   8.323   1.731  10.796 -0.4277 -0.1809  0.1016
  653MOL0     C88086   9.006   2.273  10.969 -0.2604 -0.8527 -0.1473
  653MOL0     C88087   9.115   2.363  10.971 -0.3632  0.2245  0.5187
  653MOL0     H88088   9.572   2.478  10.713  0.3131 -0.1114 -0.5718
  653MOL0     H88089   9.730   2.657  10.682  1.9260  0.0083 -0.1998
  653MOL0     H88090   9.970   2.828  11.015  1.6376  1.9582 -0.3611
  653MOL0     H88091  10.043   2.673  10.975 -2.5862 -0.6625 -0.5216
  653MOL0     H88092  10.175   2.749  10.821  1.6145 -0.6191  1.5063
  653MOL0     H88093  10.088   2.909  10.803 -3.0173  2.3492  3.6270
  653MOL0     H88094  10.158   2.923  11.060 -0.9269 -0.9355 -0.4275
  653MOL0     H88095  10.282   2.800  11.010  0.6407 -0.9612 -1.6137
  653MOL0     H88096  10.391   2.960  10.868 -0.3360 -0.0351  0.9025
  653MOL0     H88097  10.265   3.076  10.883  1.3894  0.3678 -0.6655
  653MOL0     H88098  10.308   3.125  11.119  0.3875 -0.1451  0.9138
  653MOL0     H88099  10.391   2.975  11.147 -1.5137 -1.0696 -1.3097
  653MOL0     H88100  10.590   3.078  11.033  0.3882  0.6301  2.0819
  653MOL0     H88101  10.486   3.205  10.962  1.0340  3.1961  2.4048
  653MOL0     H88102  10.438   3.270  11.203 -1.5668 -2.1527 -0.4635
  653MOL0     H88103  10.544   3.142  11.254  0.8475 -1.6283 -0.8230
  653MOL0     H88104  10.743   3.242  11.180  0.6033 -0.5272 -1.0890
  653MOL0     H88105  10.649   3.354  11.271  0.5696 -2.3198  1.7597
  653MOL0     H88106  10.864   3.460  11.063 -0.1619  1.6169  0.9822
  653MOL0     H88107  10.856   3.675  10.880 -0.0372 -0.3888 -0.9080
  653MOL0     H88108  10.911   3.526  10.801  0.4129  0.2192  0.2135
  653MOL0     H88109  10.682   3.573  10.645 -1.9795  2.4080 -2.2753
  653MOL0     H88110  10.830   3.655  10.602 -0.8168  1.7845 -0.9637
  653MOL0     H88111  10.742   3.848  10.757 -0.6623  0.2954 -1.3840
  653MOL0     H88112  10.590   3.761  10.756 -1.5847  0.1870 -2.4958
  653MOL0     H88113  10.743   3.874  10.522  1.5446 -1.9413  0.6941
  653MOL0     H88114  10.594   3.932  10.610 -0.5810 -0.7589  1.2719
  653MOL0     H88115  10.401   3.643  10.350 -0.6461 -0.0863  2.0749
  653MOL0     H88116  10.177   3.590  10.251 -0.9574 -1.0722 -1.9197
  653MOL0     H88117  10.061   3.716  10.253 -0.5832 -0.5477  0.8053
  653MOL0     H88118  10.170   3.685  10.102 -2.2850 -1.3572  0.3786
  653MOL0     H88119   9.773   3.904  10.182 -2.6929  2.5623  1.7844
  653MOL0     H88120   9.585   3.998  10.079 -0.1003  1.2780 -0.8752
  653MOL0     H88121   9.628   4.319   9.738  0.9611  0.4481  1.7323
  653MOL0     H88122   9.642   4.146   9.678  0.8718  0.6046  1.6418
  653MOL0     H88123   9.400   4.124   9.671 -0.0850 -1.1151  4.6366
  653MOL0     H88124   9.383   4.272   9.767  0.1357 -0.1585 -0.4983
  653MOL0     H88125   9.478   4.240   9.474 -0.7107 -1.2790  0.0933
  653MOL0     H88126   9.459   4.402   9.554  0.9561 -0.7698  1.1996
  653MOL0     H88127   9.220   4.213   9.487 -2.9070  1.8594 -2.3660
  653MOL0     H88128   9.240   4.358   9.585  4.3163  1.9930  0.9002
  653MOL0     H88129   9.322   4.310   9.296  3.0197 -1.9207  3.0973
  653MOL0     H88130   9.337   4.470   9.367 -1.7009  0.7891 -2.7753
  653MOL0     H88131   9.078   4.322   9.305  0.9037 -0.0998  0.1232
  653MOL0     H88132   9.068   4.431   9.434  0.7822 -2.1038  0.7582
  653MOL0     H88133   9.191   4.495   9.153  2.0186 -2.4608  1.3595
  653MOL0     H88134   9.113   4.612   9.278 -3.0797  0.0937  1.2784
  653MOL0     H88135   8.892   4.538   9.211 -2.1441  0.3515 -2.0572
  653MOL0     H88136   8.967   4.413   9.107  2.2253 -0.8093  0.2229
  653MOL0     H88137   9.847   4.188   9.789  0.7253 -3.2321 -1.9107
  653MOL0     H88138  10.037   4.083   9.907 -0.7954  1.1905  1.6995
  653MOL0     H88139  10.317   4.128  10.339  1.1616  1.1030 -1.4870
  653MOL0     H88140  10.497   4.042  10.450 -2.1481  2.1227  0.3864
  653MOL0     H88141   9.814   2.655  11.098 -2.6028  1.8100  1.6375
  653MOL0     H88142   9.640   2.468  11.133  1.1991 -0.3638 -0.4162
  653MOL0     H88143   9.363   2.126  10.997 -1.6163 -2.2484 -0.2204
  653MOL0     H88144   9.166   1.982  10.970  1.2050  0.1142 -2.8037
  653MOL0     H88145   8.726   2.121  10.993 -2.0415 -2.1864  0.0201
  653MOL0     H88146   8.809   2.160  10.840  1.8080  1.3531  0.9889
  653MOL0     H88147   8.693   1.884  10.891 -0.3506  0.2461  1.0106
  653MOL0     H88148   8.718   1.970  10.734 -0.5484 -2.6317 -0.1251
  653MOL0     H88149   8.540   2.133  10.828  0.4726 -0.0710 -0.2811
  653MOL0     H88150   8.513   2.003  10.947  0.7270 -0.5586  0.1674
  653MOL0     H88151   8.520   1.950  10.649  0.3152 -2.7372  1.2890
  653MOL0     H88152   8.376   2.032  10.709 -1.2976 -1.5614 -2.3548
  653MOL0     H88153   8.271   1.640  10.816  0.8142 -0.6505  1.3610
  653MOL0     H88154   8.904   2.310  10.966  0.6216  2.0173  1.3832
  653MOL0     H88155   9.097   2.470  10.961  0.9932  0.2510 -2.9561
  654MOL0     O88156  10.478   9.069   1.533  0.3306  0.1579 -0.3795
  654MOL0     C88157  10.535   8.974   1.583  0.3426 -0.5757 -0.6518
  654MOL0     O88158  10.481   8.883   1.671 -0.4468 -0.0623  0.0273
  654MOL0     C88159  10.356   8.914   1.706  0.5588  0.0898  1.0429
  654MOL0     C88160  10.250   8.882   1.611  0.1229  0.9879 -1.4996
  654MOL0     C88161  10.117   8.888   1.649 -0.2909  0.9231 -0.3345
  654MOL0     C88162  10.077   8.946   1.770  1.3016 -0.2402 -0.3749
  654MOL0     O88163   9.940   8.979   1.789 -1.0540  0.6056  0.4275
  654MOL0     C88164   9.836   8.886   1.742  0.5757 -0.2750  0.9084
  654MOL0     C88165   9.714   8.932   1.809  0.0501  0.1651 -0.4720
  654MOL0     C88166   9.594   8.841   1.782 -0.8397  0.0426 -0.8807
  654MOL0     C88167   9.462   8.916   1.833  0.7640  0.8930  0.3695
  654MOL0     C88168   9.343   8.848   1.771  0.1385  0.0244  0.1302
  654MOL0     C88169   9.205   8.887   1.830 -0.1582 -0.4862 -0.4168
  654MOL0     C88170   9.086   8.872   1.735  0.2908 -0.0971 -0.0270
  654MOL0     C88171   9.070   8.983   1.626  0.1529 -0.4954 -0.2714
  654MOL0     N88172   9.038   9.106   1.711  0.9437  0.3008 -0.1474
  654MOL0     C88173   8.920   9.138   1.771  0.8554 -0.5512 -0.0142
  654MOL0     C88174   8.940   9.260   1.832  0.9097  0.4907 -0.8394
  654MOL0     C88175   8.820   9.343   1.893  0.6437 -0.2687  0.0536
  654MOL0     C88176   8.784   9.478   1.823 -0.8776  0.7966 -0.5097
  654MOL0     C88177   8.650   9.551   1.867 -0.3866 -0.7366  0.7338
  654MOL0     C88178   8.528   9.520   1.777 -0.6986 -0.0640 -0.0993
  654MOL0     O88179   8.508   9.380   1.773  0.0123 -0.4975 -0.2162
  654MOL0     C88180   8.379   9.333   1.804 -0.2432  0.5875 -0.0641
  654MOL0     C88181   8.340   9.224   1.727 -0.1957  0.3921  0.3042
  654MOL0     C88182   8.211   9.161   1.745 -0.4074 -0.2448  0.2693
  654MOL0     C88183   8.182   9.046   1.656 -0.0632 -0.0940  0.1238
  654MOL0     C88184   8.126   9.214   1.843  0.4786  1.3150  0.3432
  654MOL0     C88185   7.988   9.161   1.863 -0.0426  0.0436 -0.4631
  654MOL0     O88186   7.918   9.110   1.753  0.6083 -0.2643 -0.8014
  654MOL0     C88187   7.797   9.049   1.758 -0.8551  0.4400 -0.0981
  654MOL0     C88188   7.725   9.072   1.638 -0.3029 -0.0734  0.2719
  654MOL0     C88189   7.606   8.990   1.627 -0.4791  0.3492 -0.0990
  654MOL0     C88190   7.549   8.897   1.722 -0.0179 -0.4858  0.7474
  654MOL0     O88191   7.441   8.803   1.706 -0.3235  0.2687 -0.1311
  654MOL0     C88192   7.339   8.834   1.610 -0.0694 -0.4537  0.1723
  654MOL0     C88193   7.201   8.777   1.652 -0.3911  0.4444  0.0258
  654MOL0     C88194   7.152   8.797   1.807  0.4878 -0.2136  0.4942
  654MOL0     C88195   7.114   8.945   1.820  0.7093  0.4098  0.1394
  654MOL0     C88196   7.080   8.968   1.967 -0.1097 -0.6646  0.3583
  654MOL0     C88197   7.045   9.116   1.967  0.2036 -0.4135 -1.0409
  654MOL0     C88198   7.010   9.171   2.108  0.6750  0.4717 -0.6514
  654MOL0     C88199   6.968   9.322   2.123  0.0783  0.6962 -0.6899
  654MOL0    Cl88200   6.824   9.352   2.011  0.1742 -0.1438  0.2898
  654MOL0     C88201   7.615   8.909   1.841 -0.3075 -0.3433  0.2456
  654MOL0     C88202   7.745   8.972   1.861  0.1089 -0.1705 -0.1911
  654MOL0     O88203   7.959   9.149   1.981  0.3827 -0.4873  0.1271
  654MOL0     C88204   8.157   9.331   1.907 -0.8223 -0.8075 -0.3024
  654MOL0     C88205   8.285   9.384   1.897 -0.4032  0.8045  0.2429
  654MOL0     N88206   9.070   9.298   1.811  0.0403 -0.8169  0.3977
  654MOL0     N88207   9.120   9.216   1.721  0.2907  0.0795 -0.1225
  654MOL0     C88208  10.174   8.985   1.861 -0.5886  0.0002  0.4656
  654MOL0     C88209  10.315   8.969   1.828  0.0915 -0.7584 -0.2426
  654MOL0     C88210  10.675   8.958   1.526 -0.1488  0.1771 -0.2041
  654MOL0     C88211  10.777   8.877   1.584  0.6209 -0.3649 -0.0097
  654MOL0     C88212  10.904   8.883   1.535  0.0923  0.6002  0.3972
  654MOL0     C88213  10.939   8.962   1.431 -1.0275  0.6409  0.3659
  654MOL0     O88214  11.057   8.959   1.371  0.2924  0.0210 -0.7013
  654MOL0     C88215  11.158   9.063   1.421 -0.2701  1.0405  0.0115
  654MOL0     C88216  11.115   9.195   1.374  0.4329  0.2899 -0.0111
  654MOL0     C88217  11.226   9.299   1.398  0.1428  0.4852 -0.1586
  654MOL0     C88218  11.204   9.453   1.373  0.1548  0.8722 -0.4325
  654MOL0     C88219  11.162   9.499   1.507 -0.0144  0.1554  1.0766
  654MOL0     C88220  11.135   9.535   1.622 -1.4491  0.1049  0.6904
  654MOL0     C88221  10.839   9.033   1.362  0.2638  0.0974  0.3770
  654MOL0     C88222  10.715   9.039   1.418  1.1061 -0.7152 -0.7700
  654MOL0     H88223  10.284   8.848   1.514 -0.9042  1.2820 -1.9808
  654MOL0     H88224  10.038   8.849   1.585 -1.5648 -0.2798  1.8381
  654MOL0     H88225   9.827   8.895   1.634 -3.9575 -1.2639  1.0179
  654MOL0     H88226   9.862   8.783   1.769 -0.5223 -0.6755  0.4671
  654MOL0     H88227   9.727   8.926   1.918  2.6179 -1.0406 -0.7900
  654MOL0     H88228   9.700   9.032   1.767  0.3707  0.4389  0.0659
  654MOL0     H88229   9.594   8.815   1.676  3.0045 -3.4361 -0.2787
  654MOL0     H88230   9.611   8.751   1.842 -0.5566  0.3239 -0.5376
  654MOL0     H88231   9.467   8.917   1.943  1.0019  2.6044  0.3651
  654MOL0     H88232   9.468   9.021   1.805  0.7554  0.4118 -1.5866
  654MOL0     H88233   9.349   8.884   1.668  1.2403  1.2562  0.5877
  654MOL0     H88234   9.355   8.739   1.773  0.5905  0.0811  1.1403
  654MOL0     H88235   9.194   8.814   1.911  1.3064 -1.2235 -0.8449
  654MOL0     H88236   9.222   8.988   1.866 -0.1748  0.1218 -2.0180
  654MOL0     H88237   9.086   8.775   1.684  0.8782  1.6479 -3.6633
  654MOL0     H88238   8.997   8.879   1.798  2.3294 -0.8085  3.1635
  654MOL0     H88239   8.988   8.965   1.556  0.8061 -1.1871 -0.8893
  654MOL0     H88240   9.157   8.995   1.560  0.7798 -0.2681  0.5789
  654MOL0     H88241   8.831   9.076   1.767  0.8156 -0.4465 -2.7460
  654MOL0     H88242   8.727   9.285   1.889  0.3101  0.3141 -1.1030
  654MOL0     H88243   8.839   9.371   1.997  2.2514  2.2399 -0.8314
  654MOL0     H88244   8.770   9.455   1.717  0.1445 -0.9427 -0.3092
  654MOL0     H88245   8.869   9.546   1.837  0.0190 -0.5077  0.6448
  654MOL0     H88246   8.679   9.656   1.860  2.3383 -1.4725 -0.3244
  654MOL0     H88247   8.627   9.529   1.971  3.4529  0.1900  1.9564
  654MOL0     H88248   8.553   9.550   1.675  0.6586 -1.6891 -0.2934
  654MOL0     H88249   8.439   9.576   1.806 -1.6899 -1.5768 -0.1382
  654MOL0     H88250   8.394   9.199   1.636 -0.5080  1.7023 -0.2526
  654MOL0     H88251   8.093   9.076   1.600 -0.4090 -1.3365 -0.0251
  654MOL0     H88252   8.261   9.024   1.583  1.6452 -3.0725  2.6454
  654MOL0     H88253   8.161   8.957   1.715  1.4231 -2.0154 -2.0651
  654MOL0     H88254   7.752   9.133   1.553  2.0134 -1.2331  0.1003
  654MOL0     H88255   7.561   8.992   1.529 -0.8247 -0.4286  0.0363
  654MOL0     H88256   7.324   8.941   1.594 -3.5292 -0.8352  0.0080
  654MOL0     H88257   7.364   8.801   1.509 -0.9288  2.5305 -1.1279
  654MOL0     H88258   7.133   8.830   1.584  0.3275 -0.4412 -1.4357
  654MOL0     H88259   7.215   8.670   1.632  1.3440  0.7627 -0.6262
  654MOL0     H88260   7.234   8.781   1.877  1.7241 -2.2306 -1.2798
  654MOL0     H88261   7.065   8.737   1.835  1.3411 -1.4370  0.6188
  654MOL0     H88262   7.196   9.001   1.776 -0.2256  0.8555 -1.0971
  654MOL0     H88263   7.024   8.975   1.766  0.2546  0.1351  0.7343
  654MOL0     H88264   7.155   8.943   2.042  1.1680 -1.7598 -1.2068
  654MOL0     H88265   6.995   8.906   1.995  0.6597 -1.3657  1.1907
  654MOL0     H88266   7.129   9.177   1.934  0.5370 -2.0566 -3.4987
  654MOL0     H88267   6.957   9.149   1.910 -1.1675 -0.6936  0.8009
  654MOL0     H88268   7.098   9.162   2.172 -1.1948 -1.5382  1.8296
  654MOL0     H88269   6.940   9.105   2.160  1.4492 -0.9451 -1.3408
  654MOL0     H88270   7.060   9.372   2.091 -0.3016  4.3480  3.1141
  654MOL0     H88271   6.942   9.366   2.220  0.6956  1.5990 -0.9172
  654MOL0     H88272   7.558   8.856   1.917 -0.2621  1.5424  1.6698
  654MOL0     H88273   7.801   8.972   1.954  1.8735  2.2283 -1.1500
  654MOL0     H88274   8.079   9.367   1.973 -1.2192 -1.3810 -0.4589
  654MOL0     H88275   8.310   9.472   1.956  3.9745  1.5652 -2.2772
  654MOL0     H88276  10.136   9.023   1.956  1.6906 -1.5514  2.0976
  654MOL0     H88277  10.400   8.995   1.890 -1.4561  0.9233  1.3101
  654MOL0     H88278  10.751   8.832   1.680  2.5548 -2.5090 -0.4090
  654MOL0     H88279  10.977   8.820   1.585 -0.1920 -0.5327 -0.5608
  654MOL0     H88280  11.162   9.061   1.531 -0.0348  3.9091  0.1074
  654MOL0     H88281  11.249   9.024   1.374 -0.3793 -0.5989  1.0659
  654MOL0     H88282  11.027   9.227   1.430  0.8195  1.6225 -0.1310
  654MOL0     H88283  11.089   9.191   1.268 -0.6039 -0.5106  0.2611
  654MOL0     H88284  11.315   9.280   1.336  0.6740  3.2453 -0.4111
  654MOL0     H88285  11.266   9.278   1.497  0.6668  0.2832 -0.4071
  654MOL0     H88286  11.126   9.465   1.296  0.5656  1.3463 -0.7814
  654MOL0     H88287  11.285   9.515   1.333  0.1274  1.0294 -0.2396
  654MOL0     H88288  11.120   9.558   1.725  2.8592  0.6751  1.3624
  654MOL0     H88289  10.853   9.078   1.264 -1.0927  0.3641  0.2863
  654MOL0     H88290  10.643   9.108   1.375  1.1590  0.6721  1.2236
  655MOL0     O88291   8.791  10.587  10.835  0.4664 -0.1105 -0.1736
  655MOL0     C88292   8.883  10.663  10.811  0.4281  0.7647 -0.1773
  655MOL0     O88293   8.918  10.702  10.690 -0.4882  0.0933  0.9910
  655MOL0     C88294   8.862  10.649  10.580 -0.5419  1.0986 -0.3936
  655MOL0     C88295   8.754  10.717  10.534 -0.0146 -0.3533 -0.6014
  655MOL0     C88296   8.719  10.708  10.400  0.0357 -1.3480  0.2647
  655MOL0     C88297   8.764  10.597  10.327 -0.2344  0.4505  1.0801
  655MOL0     O88298   8.709  10.586  10.199 -0.0010 -0.1109  0.2215
  655MOL0     C88299   8.795  10.545  10.099 -0.2549 -0.4243  0.4724
  655MOL0     C88300   8.767  10.399  10.061  0.3360  0.1583 -0.2054
  655MOL0     C88301   8.730  10.389   9.911  0.5875  1.0987  0.6778
  655MOL0     C88302   8.763  10.241   9.863  0.4697 -0.7211  0.1567
  655MOL0     C88303   8.702  10.209   9.734  0.8317  0.8547  1.2468
  655MOL0     C88304   8.741  10.076   9.674  0.4410  1.0767  0.0850
  655MOL0     C88305   8.643  10.049   9.560 -0.1807  0.1518 -0.1465
  655MOL0     C88306   8.675   9.927   9.472 -1.1884  0.0774 -0.3472
  655MOL0     N88307   8.803   9.953   9.398 -0.0360 -0.2183  0.1859
  655MOL0     C88308   8.936   9.929   9.425 -0.6640 -0.5126 -0.0701
  655MOL0     C88309   9.011   9.970   9.312  0.5805 -0.9024 -0.7159
  655MOL0     C88310   9.149   9.946   9.292 -0.5106  0.4035  1.4574
  655MOL0     C88311   9.182   9.834   9.187  0.4558  0.2108 -0.3854
  655MOL0     C88312   9.328   9.808   9.182 -0.2215  0.3799 -0.7921
  655MOL0     C88313   9.355   9.714   9.076  0.0303  0.8585  0.7086
  655MOL0     O88314   9.317   9.793   8.960 -0.4355 -0.2190  0.1464
  655MOL0     C88315   9.252   9.723   8.855 -0.2797 -0.4924 -0.2148
  655MOL0     C88316   9.131   9.775   8.823 -0.6191  0.5900  0.2918
  655MOL0     C88317   9.035   9.719   8.733  0.6598 -0.9015 -0.1358
  655MOL0     C88318   8.919   9.805   8.702  0.6181 -0.5436  0.1787
  655MOL0     C88319   9.062   9.591   8.678 -0.3972  0.3823 -0.5988
  655MOL0     C88320   8.970   9.512   8.589 -0.2017 -0.0631 -0.8277
  655MOL0     O88321   9.014   9.391   8.554 -0.6326 -0.4152 -0.6474
  655MOL0     C88322   8.944   9.315   8.463 -0.8500  0.7106  0.9719
  655MOL0     C88323   8.990   9.295   8.331 -0.0035 -0.1263  0.0277
  655MOL0     C88324   8.923   9.211   8.236 -0.7593  0.5683  0.4482
  655MOL0     C88325   8.792   9.164   8.276 -0.2214  0.6349 -0.0772
  655MOL0     O88326   8.722   9.088   8.184 -0.0870 -0.5977  0.9288
  655MOL0     C88327   8.669   9.165   8.079 -0.4561 -0.5415 -0.0791
  655MOL0     C88328   8.522   9.151   8.057 -0.2017 -0.1107  0.3809
  655MOL0     C88329   8.447   9.169   8.193 -0.4250 -0.1445 -0.8891
  655MOL0     C88330   8.425   9.034   8.270 -0.6409  0.2256 -0.5024
  655MOL0     C88331   8.290   9.050   8.363 -0.1797 -0.7546  0.2313
  655MOL0     C88332   8.270   8.914   8.430 -0.1710  0.0144 -0.4381
  655MOL0     C88333   8.144   8.905   8.515 -0.3553 -0.7178  0.0161
  655MOL0     C88334   8.132   9.030   8.610 -0.1380 -0.1352 -0.0630
  655MOL0    Cl88335   7.978   8.986   8.698 -0.3643 -0.1036  0.3329
  655MOL0     C88336   8.744   9.196   8.407 -0.1682  0.0671  0.4018
  655MOL0     C88337   8.821   9.270   8.502  0.1668  0.6833  0.4134
  655MOL0     O88338   8.863   9.557   8.556  0.1464  0.7621 -0.1954
  655MOL0     C88339   9.186   9.532   8.725 -1.1742  0.1923 -0.5657
  655MOL0     C88340   9.280   9.598   8.809 -0.0698 -0.1157 -0.2146
  655MOL0     N88341   8.918  10.012   9.223  0.0239  0.6984  0.0610
  655MOL0     N88342   8.797  10.005   9.279 -0.4179 -1.1865  0.6094
  655MOL0     C88343   8.865  10.510  10.382  0.5739 -0.5783  0.1685
  655MOL0     C88344   8.919  10.543  10.506  0.7483 -0.1211  0.2009
  655MOL0     C88345   8.953  10.724  10.923  0.3815  0.1073 -0.6236
  655MOL0     C88346   9.061  10.822  10.889 -0.3376 -0.4373 -0.4952
  655MOL0     C88347   9.120  10.888  10.996  0.4652 -0.2861 -0.3384
  655MOL0     C88348   9.078  10.851  11.129  0.0966 -0.2632  0.2479
  655MOL0     O88349   9.144  10.921  11.223 -0.2572  0.6331  0.4465
  655MOL0     C88350   9.138  10.883  11.363  0.1629 -0.1235  0.0749
  655MOL0     C88351   9.227  10.977  11.450  0.4057  0.4768  0.1302
  655MOL0     C88352   9.371  10.998  11.407 -0.4368 -0.8797 -0.6740
  655MOL0     C88353   9.445  10.877  11.357  0.0712  0.4538 -0.4718
  655MOL0     C88354   9.483  10.791  11.470  0.0612  0.2303 -0.4183
  655MOL0     C88355   9.515  10.723  11.566  0.6414 -1.0882 -0.0101
  655MOL0     C88356   8.983  10.755  11.166  0.2260  0.1978  0.7259
  655MOL0     C88357   8.916  10.687  11.058 -0.3616 -1.0552 -0.7858
  655MOL0     H88358   8.710  10.800  10.588 -1.6288 -1.7877  0.4055
  655MOL0     H88359   8.652  10.772  10.343  1.9519 -0.4682 -1.1032
  655MOL0     H88360   8.783  10.612  10.013  0.9618 -0.1897  0.4708
  655MOL0     H88361   8.902  10.534  10.120 -0.9273 -3.9645  3.0409
  655MOL0     H88362   8.858  10.341  10.078  1.0068  0.7021 -1.7503
  655MOL0     H88363   8.697  10.345  10.124  1.3159 -0.8053  0.0854
  655MOL0     H88364   8.623  10.414   9.910  0.4663  0.6805 -1.4457
  655MOL0     H88365   8.784  10.446   9.836  2.3820 -2.7958 -1.2738
  655MOL0     H88366   8.871  10.227   9.874  0.1340 -3.4032  0.6830
  655MOL0     H88367   8.717  10.169   9.931  1.2561  0.9328  2.5677
  655MOL0     H88368   8.593  10.215   9.748  1.0950  3.6343  2.8213
  655MOL0     H88369   8.721  10.289   9.662 -3.7928  1.0485 -0.1065
  655MOL0     H88370   8.846  10.064   9.647  0.4261  0.8519  0.1242
  655MOL0     H88371   8.730  10.000   9.752  1.0533  1.3630  0.4561
  655MOL0     H88372   8.544  10.020   9.597  0.0595 -1.4215 -0.6649
  655MOL0     H88373   8.643  10.134   9.491 -0.0174  1.1134  0.9993
  655MOL0     H88374   8.590   9.902   9.407 -1.5708 -6.4265  1.9715
  655MOL0     H88375   8.686   9.837   9.533 -0.8708 -0.4233 -1.1253
  655MOL0     H88376   8.985   9.886   9.512 -0.5664  1.4271  0.8794
  655MOL0     H88377   9.177  10.037   9.239  0.0128  0.7417  2.2937
  655MOL0     H88378   9.209   9.925   9.381  1.1498  2.0986  0.7961
  655MOL0     H88379   9.134   9.868   9.095  1.4201  2.0421 -0.2504
  655MOL0     H88380   9.132   9.746   9.230 -3.5430  2.7111  0.6169
  655MOL0     H88381   9.359   9.774   9.281 -6.5080  0.5643  1.7152
  655MOL0     H88382   9.381   9.902   9.162 -3.1184  2.0603 -1.0487
  655MOL0     H88383   9.291   9.626   9.086  1.7996 -0.4475  1.0435
  655MOL0     H88384   9.459   9.679   9.077 -0.8487 -2.0067  0.7073
  655MOL0     H88385   9.104   9.864   8.879 -1.8227  1.3445 -1.4248
  655MOL0     H88386   8.825   9.777   8.751  1.1578 -1.7760  0.5714
  655MOL0     H88387   8.941   9.909   8.730 -1.2263 -0.2252  0.5581
  655MOL0     H88388   8.898   9.801   8.595  1.0376  2.1009 -0.0711
  655MOL0     H88389   9.088   9.336   8.306  1.0848 -1.6543  1.5400
  655MOL0     H88390   8.961   9.201   8.135 -3.6345  2.3234 -0.9459
  655MOL0     H88391   8.690   9.271   8.098  2.2833 -0.6294 -2.0483
  655MOL0     H88392   8.725   9.128   7.993 -2.9746 -2.1966 -1.1280
  655MOL0     H88393   8.498   9.232   7.987 -0.1903 -0.3976  0.0415
  655MOL0     H88394   8.482   9.059   8.015 -1.3747  1.0730 -1.2590
  655MOL0     H88395   8.346   9.200   8.163 -0.0774 -0.4478 -2.4628
  655MOL0     H88396   8.488   9.248   8.257 -0.9823 -1.3004  0.9900
  655MOL0     H88397   8.411   8.950   8.202 -1.7808  0.5885 -0.7428
  655MOL0     H88398   8.509   8.996   8.329  0.3493 -0.6864 -2.4278
  655MOL0     H88399   8.207   9.078   8.298  1.2690  1.3319 -0.8161
  655MOL0     H88400   8.309   9.130   8.434 -4.2700  1.6208 -1.0548
  655MOL0     H88401   8.268   8.827   8.364  1.4051  0.2110 -0.7678
  655MOL0     H88402   8.353   8.891   8.497 -0.3883  2.8134  0.9315
  655MOL0     H88403   8.145   8.811   8.570  3.1175 -0.9030 -0.1261
  655MOL0     H88404   8.067   8.893   8.438 -0.3429 -1.3217  0.0959
  655MOL0     H88405   8.110   9.125   8.561 -2.5381 -1.6577 -2.1884
  655MOL0     H88406   8.210   9.044   8.685 -1.8395 -1.2971  2.0579
  655MOL0     H88407   8.655   9.144   8.441  1.0141 -1.8876  0.6826
  655MOL0     H88408   8.802   9.271   8.609 -0.1811 -2.2573  0.4747
  655MOL0     H88409   9.203   9.428   8.699 -0.1944  0.6447 -1.8377
  655MOL0     H88410   9.373   9.562   8.852 -0.0722  0.8698  0.6370
  655MOL0     H88411   8.904  10.424  10.327  2.0133  0.6124 -0.7368
  655MOL0     H88412   9.001  10.480  10.539 -0.1875 -0.2871  2.3462
  655MOL0     H88413   9.076  10.852  10.786  0.4100 -1.6702 -0.7717
  655MOL0     H88414   9.191  10.961  10.957  0.7533 -0.2647  0.2284
  655MOL0     H88415   9.033  10.894  11.393 -0.2180  0.1685 -1.3112
  655MOL0     H88416   9.170  10.782  11.391 -0.9385 -0.1766  1.2495
  655MOL0     H88417   9.227  10.931  11.549  1.6736  0.1732  0.0088
  655MOL0     H88418   9.175  11.073  11.456 -1.4312 -0.5569  3.1260
  655MOL0     H88419   9.417  11.046  11.494  0.4908  0.5553 -1.8990
  655MOL0     H88420   9.380  11.071  11.326 -0.7457  0.9370  0.8584
  655MOL0     H88421   9.529  10.908  11.295  0.5701 -1.5189 -0.8625
  655MOL0     H88422   9.371  10.830  11.292 -1.8884  2.8956 -0.1599
  655MOL0     H88423   9.547  10.673  11.655  4.1367  2.1716  0.8733
  655MOL0     H88424   8.961  10.746  11.272  0.9168  0.0955  0.8657
  655MOL0     H88425   8.849  10.604  11.077 -0.4594 -0.5364  1.3447
  656MOL0     O88426   8.703   0.432   0.805 -0.5083 -0.2267  0.1129
  656MOL0     C88427   8.760   0.337   0.760 -0.1348  0.3268  1.6587
  656MOL0     O88428   8.723   0.201   0.778 -0.0560 -0.9632 -0.8258
  656MOL0     C88429   8.617   0.189   0.876 -0.1753 -0.0630  0.0770
  656MOL0     C88430   8.497   0.254   0.902  0.4650 -1.0203  0.6557
  656MOL0     C88431   8.395   0.213   0.993 -0.4566  0.5241 -0.1371
  656MOL0     C88432   8.403   0.083   1.052  0.6648 -0.6178 -0.5468
  656MOL0     O88433   8.315   0.047   1.154 -0.3094  0.7012  0.4237
  656MOL0     C88434   8.193   0.122   1.155 -0.6297  0.3920  0.1575
  656MOL0     C88435   8.089   0.046   1.224  0.2030  0.2360 -0.7470
  656MOL0     C88436   8.048  -0.085   1.143 -0.2065 -0.2600 -0.1817
  656MOL0     C88437   7.959  -0.058   1.016  0.6355  0.6678  0.1000
  656MOL0     C88438   7.904  -0.180   0.937  0.1547 -0.2599 -1.4716
  656MOL0     C88439   7.788  -0.248   1.011 -0.1423 -0.4030  0.2190
  656MOL0     C88440   7.678  -0.145   1.041  0.2617  0.5029 -0.2106
  656MOL0     C88441   7.541  -0.198   1.096 -0.1707  0.5063 -0.1084
  656MOL0     N88442   7.544  -0.228   1.242  0.1852 -0.2157  1.1466
  656MOL0     C88443   7.493  -0.346   1.292 -0.3002 -0.3862 -0.5530
  656MOL0     C88444   7.478  -0.316   1.424  0.4740  0.2319  0.0405
  656MOL0     C88445   7.392  -0.392   1.521  0.9456 -1.0842 -0.6697
  656MOL0     C88446   7.361  -0.301   1.642 -0.8843 -0.7797 -0.7619
  656MOL0     C88447   7.266  -0.359   1.752 -0.9677  0.1172  1.3221
  656MOL0     C88448   7.260  -0.279   1.880 -0.1541 -0.6443  0.4184
  656MOL0     O88449   7.168  -0.348   1.967  0.7086  0.7744  0.2824
  656MOL0     C88450   7.087  -0.272   2.046  0.4573 -0.0536 -1.1401
  656MOL0     C88451   7.112  -0.143   2.085  0.1565 -0.4409  0.3221
  656MOL0     C88452   7.030  -0.071   2.170 -0.1604  0.4014  0.5558
  656MOL0     C88453   7.079   0.060   2.221 -0.0982 -0.1700  1.0948
  656MOL0     C88454   6.912  -0.140   2.220 -0.5401 -0.5987 -0.4196
  656MOL0     C88455   6.815  -0.082   2.326  0.2295  0.3862 -0.7998
  656MOL0     O88456   6.735  -0.174   2.386 -0.8784  0.0550  0.3509
  656MOL0     C88457   6.628  -0.132   2.458  0.1446  0.9788 -0.2919
  656MOL0     C88458   6.635  -0.068   2.582  0.7014 -0.7329 -0.7113
  656MOL0     C88459   6.514  -0.018   2.642  0.0307  0.6291  0.3184
  656MOL0     C88460   6.391  -0.060   2.600 -0.5950  0.6076 -0.5623
  656MOL0     O88461   6.284  -0.015   2.680 -0.5558  0.2087  0.5851
  656MOL0     C88462   6.230  -0.122   2.761 -0.2238  0.9475  0.5120
  656MOL0     C88463   6.091  -0.100   2.827  0.2373  0.2177 -0.0016
  656MOL0     C88464   5.980  -0.086   2.713  0.0385 -0.6133  0.2039
  656MOL0     C88465   5.839  -0.063   2.769  0.2971 -0.4916 -0.1755
  656MOL0     C88466   5.739  -0.039   2.652  0.5601 -0.0493  1.4483
  656MOL0     C88467   5.598  -0.003   2.710  0.1894  0.1074 -0.2606
  656MOL0     C88468   5.493   0.045   2.602  0.1029 -0.1574 -0.0020
  656MOL0     C88469   5.486  -0.053   2.490  0.1874  0.2103  0.1201
  656MOL0    Cl88470   5.484  -0.219   2.546  0.2698  0.5909  0.4320
  656MOL0     C88471   6.378  -0.127   2.474 -0.5081 -0.5566 -0.4023
  656MOL0     C88472   6.500  -0.166   2.413 -0.2988 -0.0949 -0.6221
  656MOL0     O88473   6.810   0.045   2.354  0.0495  0.6929  0.3969
  656MOL0     C88474   6.894  -0.277   2.183 -0.2735  0.0132 -0.1302
  656MOL0     C88475   6.978  -0.340   2.096  0.6722  0.0530  0.4341
  656MOL0     N88476   7.535  -0.192   1.451  0.0906  0.3796 -0.1176
  656MOL0     N88477   7.586  -0.142   1.340  0.4596 -0.9787 -0.8663
  656MOL0     C88478   8.517   0.007   1.012 -0.5508 -0.3248  0.4987
  656MOL0     C88479   8.625   0.059   0.938 -0.4700 -0.4811  0.9940
  656MOL0     C88480   8.871   0.363   0.664  0.3978 -0.1279 -0.5777
  656MOL0     C88481   8.943   0.256   0.612 -0.5585 -0.0806 -0.2528
  656MOL0     C88482   9.059   0.285   0.530  0.1550  0.2227  0.3369
  656MOL0     C88483   9.102   0.419   0.501 -0.5286 -1.0218 -0.5531
  656MOL0     O88484   9.199   0.462   0.413  0.7599 -0.4282 -0.3692
  656MOL0     C88485   9.237   0.360   0.319  0.3401 -0.0906 -0.3174
  656MOL0     C88486   9.340   0.418   0.217 -0.2626 -0.6357 -0.6877
  656MOL0     C88487   9.465   0.480   0.294 -0.6334 -0.6542  0.2633
  656MOL0     C88488   9.576   0.516   0.199 -0.1253 -0.1928 -0.1624
  656MOL0     C88489   9.548   0.647   0.142 -0.0747  0.0003  0.1817
  656MOL0     C88490   9.526   0.752   0.082 -0.0834 -0.1700 -0.0924
  656MOL0     C88491   9.020   0.518   0.553 -0.2878  0.8996  0.2359
  656MOL0     C88492   8.911   0.495   0.630 -0.0258  0.1290 -0.9140
  656MOL0     H88493   8.480   0.347   0.849  0.3306 -0.9194  0.8745
  656MOL0     H88494   8.321   0.286   1.025 -0.5653  0.7950 -0.9683
  656MOL0     H88495   8.213   0.215   1.209 -1.3445 -0.4704  1.9865
  656MOL0     H88496   8.166   0.136   1.050 -1.0168 -0.5320  0.1283
  656MOL0     H88497   8.127   0.026   1.325  1.3995  4.1817 -0.2403
  656MOL0     H88498   8.002   0.110   1.240  0.9328  1.4173 -1.3881
  656MOL0     H88499   8.129  -0.155   1.124  0.7752  0.2547  1.8602
  656MOL0     H88500   7.983  -0.142   1.211 -1.3536  2.7515  1.4285
  656MOL0     H88501   7.877   0.012   1.035 -2.2823 -2.3860 -0.2900
  656MOL0     H88502   8.017  -0.000   0.944  1.1304 -1.8386 -1.6300
  656MOL0     H88503   7.884  -0.156   0.832  2.1603  4.7135 -1.0097
  656MOL0     H88504   7.993  -0.243   0.929  0.5199  0.0019  0.1273
  656MOL0     H88505   7.761  -0.333   0.948  2.1372 -0.6637 -0.4852
  656MOL0     H88506   7.826  -0.293   1.103 -1.2004 -1.4519  0.1568
  656MOL0     H88507   7.709  -0.075   1.119  3.1635  0.3064 -1.0552
  656MOL0     H88508   7.662  -0.073   0.960 -0.9139 -2.6521 -3.0167
  656MOL0     H88509   7.515  -0.290   1.043 -0.2026  1.1131 -1.1743
  656MOL0     H88510   7.484  -0.106   1.078 -0.1540  0.2467 -1.6274
  656MOL0     H88511   7.477  -0.439   1.238  0.7549  1.3384 -4.1870
  656MOL0     H88512   7.293  -0.403   1.476 -1.3697  0.7441  3.5157
  656MOL0     H88513   7.430  -0.486   1.563 -1.3684 -0.1149  4.2657
  656MOL0     H88514   7.325  -0.202   1.614 -2.8661 -0.9039  1.0685
  656MOL0     H88515   7.456  -0.280   1.691  0.1917  1.4183 -3.5384
  656MOL0     H88516   7.303  -0.457   1.784 -2.4460 -0.5822  0.9729
  656MOL0     H88517   7.168  -0.382   1.710  0.8911 -1.2840 -2.7032
  656MOL0     H88518   7.219  -0.180   1.855  2.9664  1.4601  2.7970
  656MOL0     H88519   7.358  -0.272   1.928  0.3960  1.7415 -0.9052
  656MOL0     H88520   7.208  -0.106   2.048  0.1133 -1.1233 -0.5045
  656MOL0     H88521   7.028   0.148   2.181 -0.3053 -0.2842  1.1025
  656MOL0     H88522   7.029   0.060   2.318 -1.4135 -0.9505  0.4588
  656MOL0     H88523   7.187   0.073   2.234 -0.0324  0.8463 -0.2454
  656MOL0     H88524   6.732  -0.030   2.612 -0.6727  0.8810  2.0032
  656MOL0     H88525   6.514   0.042   2.732 -0.7032  2.0133 -0.5719
  656MOL0     H88526   6.220  -0.218   2.710 -2.0151 -0.8778  3.8987
  656MOL0     H88527   6.308  -0.145   2.835  1.9319  0.2303 -1.8246
  656MOL0     H88528   6.070  -0.191   2.884 -0.4852 -0.2034 -0.9233
  656MOL0     H88529   6.088  -0.011   2.892 -0.6807  2.3537 -2.7462
  656MOL0     H88530   5.966  -0.173   2.647  1.2074 -0.4016 -0.3453
  656MOL0     H88531   6.005  -0.003   2.647  3.6782  0.2509  2.4333
  656MOL0     H88532   5.800  -0.149   2.826 -2.6682 -0.0541 -1.3678
  656MOL0     H88533   5.855   0.028   2.827  0.8907 -0.6432 -0.0915
  656MOL0     H88534   5.738  -0.130   2.592  0.5259  2.6143 -2.9940
  656MOL0     H88535   5.771   0.049   2.595 -0.9328  0.1006  0.8136
  656MOL0     H88536   5.558  -0.089   2.766  0.8660  0.7553  1.2689
  656MOL0     H88537   5.605   0.083   2.777  0.4980  0.0548 -0.2248
  656MOL0     H88538   5.529   0.143   2.569 -0.1041  0.1710  0.7359
  656MOL0     H88539   5.399   0.063   2.654  0.2289 -0.2709  0.2699
  656MOL0     H88540   5.574  -0.052   2.424 -0.4935 -0.0275 -0.8220
  656MOL0     H88541   5.398  -0.040   2.426  0.3464 -2.3169 -0.7146
  656MOL0     H88542   6.279  -0.158   2.444 -2.4738  1.5179  3.2142
  656MOL0     H88543   6.504  -0.209   2.314  1.8239  1.9434 -1.5269
  656MOL0     H88544   6.814  -0.338   2.223  0.0024  0.9773  2.0402
  656MOL0     H88545   6.970  -0.445   2.068 -0.2423  0.2031  0.1154
  656MOL0     H88546   8.528  -0.095   1.044  1.4449 -0.3631 -0.1824
  656MOL0     H88547   8.714   0.006   0.907 -0.4242  0.4893 -0.6267
  656MOL0     H88548   8.911   0.155   0.635  0.1086 -0.1792  0.2916
  656MOL0     H88549   9.113   0.202   0.486 -1.2233 -0.6247  0.1756
  656MOL0     H88550   9.281   0.271   0.363 -0.7950 -1.7228 -2.3035
  656MOL0     H88551   9.157   0.317   0.256  2.4002 -2.8831 -1.2146
  656MOL0     H88552   9.290   0.488   0.150 -0.0790 -0.1518 -0.3188
  656MOL0     H88553   9.381   0.341   0.151  1.6280 -1.2556  1.0738
  656MOL0     H88554   9.517   0.406   0.357  2.7914  0.7427 -0.7046
  656MOL0     H88555   9.438   0.566   0.356  0.9116  0.3359 -0.3664
  656MOL0     H88556   9.584   0.442   0.119  2.5463 -0.7248  0.5042
  656MOL0     H88557   9.673   0.509   0.248 -1.1598  1.1108  2.2229
  656MOL0     H88558   9.520   0.842   0.025 -2.4291  0.1603  0.6029
  656MOL0     H88559   9.047   0.622   0.537  0.4556  0.8948  1.4038
  656MOL0     H88560   8.850   0.581   0.656 -0.6555 -1.3830  3.3090
  657MOL0     O88561   0.206   2.087  10.879  0.1009 -0.1205 -0.4928
  657MOL0     C88562   0.250   1.992  10.812 -0.3429  0.2565 -0.3441
  657MOL0     O88563   0.263   1.862  10.863 -0.5660  0.1006  0.5308
  657MOL0     C88564   0.215   1.817  10.989 -1.0638 -0.7938  0.5914
  657MOL0     C88565   0.215   1.683  11.014  0.0055  0.3177 -0.3956
  657MOL0     C88566   0.178   1.627  11.133 -0.6187 -0.1698 -0.3106
  657MOL0     C88567   0.117   1.695  11.231  1.2055 -0.7785 -0.7719
  657MOL0     O88568   0.053   1.627  11.333  0.1953 -0.6435 -0.5367
  657MOL0     C88569  -0.069   1.678  11.395 -0.1754  0.3114 -0.0782
  657MOL0     C88570  -0.184   1.620  11.326  0.7105 -0.3275  0.2671
  657MOL0     C88571  -0.316   1.652  11.404 -0.7541  0.3043  0.1626
  657MOL0     C88572  -0.391   1.773  11.355  0.7898  0.1510 -1.0669
  657MOL0     C88573  -0.542   1.766  11.396 -0.1786  0.0238  0.0052
  657MOL0     C88574  -0.590   1.750  11.548  0.5870 -0.1856  0.4750
  657MOL0     C88575  -0.750   1.713  11.546 -1.6360  0.7750  0.0647
  657MOL0     C88576  -0.829   1.803  11.450 -0.6255  0.9209  0.0598
  657MOL0     N88577  -0.977   1.780  11.451 -0.4147  0.0602 -0.4034
  657MOL0     C88578  -1.031   1.662  11.420  0.6851  0.2963 -0.1902
  657MOL0     C88579  -1.161   1.660  11.459 -0.3020  0.0937  0.0019
  657MOL0     C88580  -1.247   1.532  11.446 -0.3018 -0.6880 -0.2304
  657MOL0     C88581  -1.393   1.551  11.479 -0.2963 -0.6037  0.3982
  657MOL0     C88582  -1.483   1.438  11.423  0.9046  0.3380 -0.2291
  657MOL0     C88583  -1.465   1.297  11.481  0.0848 -0.0983 -0.5786
  657MOL0     O88584  -1.433   1.290  11.622 -0.6568 -1.2736  0.7122
  657MOL0     C88585  -1.536   1.306  11.712 -0.1656  0.3037  0.0008
  657MOL0     C88586  -1.592   1.183  11.751  0.0691  0.2694  0.1107
  657MOL0     C88587  -1.704   1.176  11.832 -0.1556 -0.5081 -0.2488
  657MOL0     C88588  -1.788   1.041  11.848  0.1110  0.5752 -0.6541
  657MOL0     C88589  -1.757   1.298  11.884 -0.0071  0.5630  0.3849
  657MOL0     C88590  -1.867   1.306  11.978 -0.2288  0.2611 -0.3928
  657MOL0     O88591  -1.949   1.423  11.970 -0.6589 -0.0308  0.9825
  657MOL0     C88592  -2.053   1.437  12.063 -0.2394 -0.8091 -0.3458
  657MOL0     C88593  -2.062   1.544  12.155  0.0359  1.2296 -0.6281
  657MOL0     C88594  -2.169   1.548  12.251  0.5296  0.0948  0.6855
  657MOL0     C88595  -2.282   1.458  12.246 -0.4140  0.2490 -0.4988
  657MOL0     O88596  -2.395   1.478  12.324 -0.3455  0.4040 -0.1565
  657MOL0     C88597  -2.526   1.439  12.283  0.1238  0.5310 -0.1561
  657MOL0     C88598  -2.549   1.526  12.149  0.3226  0.5700  0.1980
  657MOL0     C88599  -2.695   1.521  12.109 -0.1362 -0.3490  0.0175
  657MOL0     C88600  -2.784   1.608  12.196 -0.9438  0.7046  0.5348
  657MOL0     C88601  -2.927   1.626  12.129  0.1285 -0.8069 -0.4076
  657MOL0     C88602  -3.012   1.502  12.135 -0.0128  0.1467  0.0019
  657MOL0     C88603  -3.150   1.515  12.061 -0.4438  0.2151  0.5401
  657MOL0     C88604  -3.241   1.400  12.111 -0.4537 -0.7297 -0.1255
  657MOL0    Cl88605  -3.399   1.430  12.027  0.4064  0.0114 -0.4560
  657MOL0     C88606  -2.265   1.350  12.154 -0.2697  1.3232 -0.4429
  657MOL0     C88607  -2.146   1.332  12.077 -0.2163  0.4475 -0.7075
  657MOL0     O88608  -1.861   1.232  12.077  0.3931  0.1751  0.7272
  657MOL0     C88609  -1.682   1.411  11.865 -1.0525  0.1460  0.9354
  657MOL0     C88610  -1.581   1.425  11.767 -0.2375  0.3815 -1.2422
  657MOL0     N88611  -1.177   1.781  11.513 -0.0501 -0.1652 -0.0320
  657MOL0     N88612  -1.071   1.855  11.512 -0.0018  0.3875 -0.1072
  657MOL0     C88613   0.116   1.839  11.216  0.3032  0.1678  0.1241
  657MOL0     C88614   0.165   1.900  11.095 -0.5347  1.3205  0.0471
  657MOL0     C88615   0.307   2.007  10.680  0.9259 -0.2009  0.5359
  657MOL0     C88616   0.392   1.916  10.627 -0.8546  0.1890 -0.1837
  657MOL0     C88617   0.465   1.933  10.520  0.4013 -0.7100  0.8091
  657MOL0     C88618   0.439   2.050  10.432 -0.9820  0.1180 -0.6045
  657MOL0     O88619   0.519   2.087  10.332 -1.1301  0.7239  0.0182
  657MOL0     C88620   0.664   2.069  10.345 -0.3904  0.7750 -0.0735
  657MOL0     C88621   0.712   2.172  10.450  0.7721 -1.2558  0.6191
  657MOL0     C88622   0.829   2.126  10.541 -0.9476  0.0169  0.8474
  657MOL0     C88623   0.830   2.186  10.681  0.0702 -0.7840 -0.0159
  657MOL0     C88624   0.708   2.208  10.758  0.0623  1.2927  1.0740
  657MOL0     C88625   0.612   2.195  10.825 -0.3693 -0.1256  0.2369
  657MOL0     C88626   0.345   2.140  10.482 -0.4154  0.5208 -0.0142
  657MOL0     C88627   0.280   2.121  10.602 -0.4159  0.7133 -0.1957
  657MOL0     H88628   0.244   1.606  10.944 -2.6347 -2.3562  1.2175
  657MOL0     H88629   0.182   1.518  11.134  1.3932 -0.1418 -0.9539
  657MOL0     H88630  -0.075   1.635  11.495  0.1307 -2.6554 -1.2419
  657MOL0     H88631  -0.072   1.787  11.382 -0.9354  0.2609 -0.3469
  657MOL0     H88632  -0.184   1.650  11.221 -2.3980  0.4333  0.3860
  657MOL0     H88633  -0.163   1.512  11.324 -0.5381 -0.5734 -0.1774
  657MOL0     H88634  -0.374   1.560  11.387  0.0019 -0.3674  1.1199
  657MOL0     H88635  -0.312   1.661  11.513  0.9574  1.3325  0.0441
  657MOL0     H88636  -0.353   1.865  11.400 -0.6287 -0.3192  1.2642
  657MOL0     H88637  -0.375   1.768  11.246 -1.8975 -2.1214 -1.4659
  657MOL0     H88638  -0.576   1.863  11.359 -0.6146 -0.8291 -1.9944
  657MOL0     H88639  -0.592   1.687  11.338 -0.1178  0.3204 -0.4558
  657MOL0     H88640  -0.530   1.667  11.584 -2.0417 -3.7828 -2.6135
  657MOL0     H88641  -0.565   1.843  11.601  1.4397 -0.0095 -0.2092
  657MOL0     H88642  -0.765   1.614  11.504 -0.7229  1.9161 -3.2361
  657MOL0     H88643  -0.795   1.702  11.645 -0.1165 -2.6770  0.5133
  657MOL0     H88644  -0.806   1.773  11.347 -1.1711  0.0688  0.1741
  657MOL0     H88645  -0.802   1.909  11.447 -3.1008  1.5978 -1.7676
  657MOL0     H88646  -0.978   1.580  11.372  2.9151  2.2060 -1.2088
  657MOL0     H88647  -1.239   1.490  11.345 -3.0820  1.1034 -1.3132
  657MOL0     H88648  -1.189   1.463  11.508 -0.9435  1.1071  2.5477
  657MOL0     H88649  -1.420   1.644  11.428  3.1536 -1.2767 -3.1812
  657MOL0     H88650  -1.415   1.577  11.583 -2.2741 -1.2577  0.1742
  657MOL0     H88651  -1.465   1.425  11.316  2.6409 -1.8890  0.2623
  657MOL0     H88652  -1.585   1.474  11.441  0.6541 -0.9958  1.2119
  657MOL0     H88653  -1.387   1.243  11.427 -1.0457 -3.5539  0.9632
  657MOL0     H88654  -1.550   1.242  11.442  2.4650 -1.3914 -4.4781
  657MOL0     H88655  -1.549   1.093  11.709 -0.7874 -0.4385  0.7168
  657MOL0     H88656  -1.810   1.022  11.954  0.5463 -0.1873 -0.6966
  657MOL0     H88657  -1.879   1.057  11.789 -0.2622  0.5514 -0.0921
  657MOL0     H88658  -1.722   0.960  11.816  0.6527  2.3158 -4.5575
  657MOL0     H88659  -1.991   1.626  12.156  1.5159  0.0182  1.5725
  657MOL0     H88660  -2.184   1.641  12.305 -1.6389  1.1022 -1.4812
  657MOL0     H88661  -2.538   1.330  12.282 -1.9178  0.6918  1.2789
  657MOL0     H88662  -2.597   1.466  12.361  0.5982 -0.4249  0.6295
  657MOL0     H88663  -2.539   1.633  12.167 -3.6532  1.2890 -0.8889
  657MOL0     H88664  -2.488   1.493  12.064  0.3515  0.2144  0.3528
  657MOL0     H88665  -2.722   1.415  12.113 -0.8662 -0.1358  1.4782
  657MOL0     H88666  -2.700   1.553  12.004  4.0727 -0.5922 -0.4240
  657MOL0     H88667  -2.805   1.560  12.292 -3.4254  0.9626  0.1852
  657MOL0     H88668  -2.729   1.699  12.225  2.2471 -1.2531  1.1204
  657MOL0     H88669  -2.918   1.654  12.023 -1.2805  2.3459  0.1911
  657MOL0     H88670  -2.974   1.701  12.194 -0.9286 -3.5035  2.1820
  657MOL0     H88671  -2.947   1.416  12.115  2.0129  1.3978  0.8967
  657MOL0     H88672  -3.037   1.496  12.241 -1.8154  1.4357 -0.3069
  657MOL0     H88673  -3.138   1.498  11.953  0.2008 -0.3108  0.6858
  657MOL0     H88674  -3.206   1.605  12.086 -0.4317  0.3153  0.2173
  657MOL0     H88675  -3.262   1.386  12.217 -2.5199  2.7617  0.0610
  657MOL0     H88676  -3.189   1.308  12.082 -0.8483 -0.5832 -1.3697
  657MOL0     H88677  -2.330   1.267  12.177  0.8634  0.8135  1.1468
  657MOL0     H88678  -2.134   1.244  12.014  1.3933 -2.6875  3.4811
  657MOL0     H88679  -1.725   1.494  11.920 -2.4678 -0.0984  0.2541
  657MOL0     H88680  -1.534   1.521  11.748  0.0326  0.2275 -1.3412
  657MOL0     H88681   0.084   1.903  11.297 -1.2458 -1.1057  0.5826
  657MOL0     H88682   0.161   2.009  11.095 -0.5086  1.3318 -1.0300
  657MOL0     H88683   0.419   1.831  10.689 -0.0054  0.9810  0.5768
  657MOL0     H88684   0.550   1.868  10.508 -0.0313 -1.8499  3.3733
  657MOL0     H88685   0.678   1.964  10.372 -1.6797 -0.2433 -2.9691
  657MOL0     H88686   0.727   2.097  10.260 -2.4008  3.7517 -0.7356
  657MOL0     H88687   0.636   2.199  10.523  0.2991 -1.9483  0.3902
  657MOL0     H88688   0.747   2.259  10.393  0.7001 -2.4906 -1.4077
  657MOL0     H88689   0.924   2.140  10.490 -1.8785 -0.6647 -1.1632
  657MOL0     H88690   0.834   2.017  10.547 -0.2939 -0.0055 -0.0218
  657MOL0     H88691   0.867   2.288  10.669 -1.2908 -0.2292  0.2999
  657MOL0     H88692   0.892   2.118  10.740  1.7660 -0.1591 -0.9900
  657MOL0     H88693   0.524   2.165  10.878  0.7128 -1.1430  1.5546
  657MOL0     H88694   0.338   2.232  10.424  3.8427  0.8644 -0.2420
  657MOL0     H88695   0.209   2.195  10.637  0.0902  1.6073 -1.0243
  658MOL0     O88696  10.285   2.651   5.726 -0.0300 -0.3323  0.2185
  658MOL0     C88697  10.307   2.534   5.697  0.0100  0.1700 -0.1871
  658MOL0     O88698  10.428   2.477   5.671 -0.1059  0.1556 -0.4686
  658MOL0     C88699  10.543   2.551   5.659  0.6888 -0.0661  0.2605
  658MOL0     C88700  10.603   2.561   5.541  0.0961 -0.4215  0.4325
  658MOL0     C88701  10.717   2.643   5.528  0.4385 -1.3904  0.0674
  658MOL0     C88702  10.762   2.714   5.643  0.4433  0.3709 -0.5448
  658MOL0     O88703  10.859   2.812   5.620 -0.2534 -0.0598  0.0550
  658MOL0     C88704  10.902   2.893   5.733 -0.7901 -0.1007 -0.1133
  658MOL0     C88705  11.006   2.987   5.661 -1.1103 -0.0456  0.8827
  658MOL0     C88706  11.083   3.089   5.755  0.7343 -0.7679 -0.0513
  658MOL0     C88707  10.994   3.201   5.791  0.0544 -0.1442 -0.7726
  658MOL0     C88708  11.049   3.300   5.897 -0.2269 -0.0794  0.4032
  658MOL0     C88709  11.062   3.244   6.034  0.0341 -0.0803  0.0386
  658MOL0     C88710  11.138   3.348   6.132 -0.5654 -0.2678  0.0757
  658MOL0     C88711  11.136   3.285   6.270  0.3570  0.2804 -0.1114
  658MOL0     N88712  11.191   3.379   6.364 -0.4251 -0.1483 -0.7959
  658MOL0     C88713  11.145   3.511   6.386  0.6931  0.7463  0.9595
  658MOL0     C88714  11.231   3.553   6.484  1.4002 -0.4098  0.6025
  658MOL0     C88715  11.238   3.699   6.526 -0.1242  0.0728  0.0343
  658MOL0     C88716  11.102   3.767   6.559  0.1033  0.7746  0.1312
  658MOL0     C88717  11.103   3.920   6.600 -0.4843  0.3888 -0.9166
  658MOL0     C88718  11.160   3.944   6.736 -0.7157  0.4252 -0.0452
  658MOL0     O88719  11.295   3.889   6.760 -0.1306  0.0752 -0.3837
  658MOL0     C88720  11.340   3.885   6.887 -1.0456  0.8062 -0.3938
  658MOL0     C88721  11.280   3.955   6.994 -0.2639  0.6243  0.0374
  658MOL0     C88722  11.335   3.951   7.122  0.2405  0.2345 -0.1774
  658MOL0     C88723  11.287   4.052   7.230 -0.0017  0.6097  0.4538
  658MOL0     C88724  11.442   3.862   7.147 -0.0194 -0.3214 -0.5091
  658MOL0     C88725  11.490   3.845   7.288  0.3070  0.3972 -0.9226
  658MOL0     O88726  11.401   3.835   7.388  0.1661  0.0420 -0.7289
  658MOL0     C88727  11.451   3.795   7.509  0.0315 -0.0926  1.4394
  658MOL0     C88728  11.418   3.661   7.548 -0.0011  0.2957 -0.0537
  658MOL0     C88729  11.477   3.611   7.662 -0.4612  0.4488 -0.0113
  658MOL0     C88730  11.550   3.693   7.747  1.1772  0.2024  0.3858
  658MOL0     O88731  11.583   3.651   7.875  0.6726  0.0793  0.1342
  658MOL0     C88732  11.719   3.682   7.917  0.6972 -0.0251  0.2781
  658MOL0     C88733  11.774   3.552   7.977 -1.1236  0.0378 -0.2441
  658MOL0     C88734  11.926   3.567   8.008  0.6856 -1.1743  0.0527
  658MOL0     C88735  11.993   3.426   8.011 -0.1988 -0.8506 -0.2057
  658MOL0     C88736  12.046   3.378   7.878 -1.4637  0.4024 -0.3158
  658MOL0     C88737  12.188   3.440   7.853  0.0073  0.3605 -0.4435
  658MOL0     C88738  12.232   3.418   7.709  0.5495 -0.1957  0.0671
  658MOL0     C88739  12.387   3.435   7.690  0.0020  0.2422 -0.1809
  658MOL0    Cl88740  12.455   3.586   7.752  0.0693 -0.5983  0.2594
  658MOL0     C88741  11.572   3.824   7.713  0.5097  0.0888  0.7759
  658MOL0     C88742  11.528   3.871   7.592  0.4927  0.0704 -0.2994
  658MOL0     O88743  11.614   3.827   7.300  0.2421  0.2423  0.2674
  658MOL0     C88744  11.497   3.785   7.042 -0.0221  0.7639  0.3558
  658MOL0     C88745  11.461   3.806   6.906 -0.3346 -0.4109 -0.1259
  658MOL0     N88746  11.322   3.456   6.515 -0.5058 -0.2367 -0.2463
  658MOL0     N88747  11.296   3.361   6.439 -0.4188 -0.4227 -0.2737
  658MOL0     C88748  10.696   2.702   5.771 -0.5740  0.7991  0.6543
  658MOL0     C88749  10.585   2.617   5.770  0.5671 -0.1718  0.5830
  658MOL0     C88750  10.182   2.451   5.714 -0.4672 -0.6786 -0.4930
  658MOL0     C88751  10.192   2.317   5.763  0.1790  0.1367  0.2665
  658MOL0     C88752  10.071   2.250   5.764 -0.1722  0.3312 -0.1494
  658MOL0     C88753   9.948   2.313   5.735  0.5641  0.0399  0.7289
  658MOL0     O88754   9.839   2.234   5.722 -0.4810 -0.4209 -0.0521
  658MOL0     C88755   9.767   2.223   5.843  0.0826 -0.7084 -0.4909
  658MOL0     C88756   9.647   2.314   5.857  0.0848 -0.5135  0.1116
  658MOL0     C88757   9.554   2.293   5.740 -0.3656  0.5131  0.3443
  658MOL0     C88758   9.440   2.386   5.740  0.3329  0.2927 -0.7890
  658MOL0     C88759   9.345   2.369   5.849  0.4414  0.0599 -0.6593
  658MOL0     C88760   9.273   2.373   5.945  0.1021 -0.0877  0.2759
  658MOL0     C88761   9.937   2.445   5.701  0.2310  0.5868  0.0371
  658MOL0     C88762  10.058   2.515   5.682  0.6797 -0.0385 -0.5546
  658MOL0     H88763  10.547   2.524   5.456 -1.4552  1.0443  0.7612
  658MOL0     H88764  10.752   2.658   5.427  1.4153 -3.4997  0.0505
  658MOL0     H88765  10.818   2.943   5.784 -1.0088 -1.5849  1.0626
  658MOL0     H88766  10.958   2.843   5.813  0.7340  0.2782 -0.9148
  658MOL0     H88767  11.081   2.931   5.604  2.8168  3.3306  2.2218
  658MOL0     H88768  10.947   3.052   5.596  2.1231  1.2197 -1.0228
  658MOL0     H88769  11.116   3.027   5.839 -1.6569 -1.5020  0.4401
  658MOL0     H88770  11.166   3.128   5.696 -0.0571  0.0743 -0.6333
  658MOL0     H88771  10.978   3.264   5.702  1.0917  0.3945 -0.5965
  658MOL0     H88772  10.896   3.176   5.831 -0.5009 -0.8777 -2.4784
  658MOL0     H88773  11.140   3.350   5.863 -1.6642  3.2665  1.0542
  658MOL0     H88774  10.969   3.374   5.910  1.0535  1.4305  0.0905
  658MOL0     H88775  10.965   3.231   6.082  0.0482  1.6815  0.6270
  658MOL0     H88776  11.119   3.152   6.020  3.2617  1.7971 -0.2090
  658MOL0     H88777  11.242   3.354   6.098 -0.9261 -0.2636 -1.0828
  658MOL0     H88778  11.094   3.448   6.128  2.5407  1.1912 -1.1814
  658MOL0     H88779  11.197   3.194   6.273 -0.5230 -0.3574 -0.7845
  658MOL0     H88780  11.040   3.246   6.305  0.5863 -1.4764 -1.2593
  658MOL0     H88781  11.079   3.563   6.317  0.7871 -2.5614 -1.9135
  658MOL0     H88782  11.302   3.695   6.614  0.4805  0.3818 -0.3880
  658MOL0     H88783  11.284   3.746   6.438  1.3062 -0.2992  0.5721
  658MOL0     H88784  11.058   3.707   6.640 -0.7718 -3.9071 -3.3497
  658MOL0     H88785  11.039   3.756   6.470 -0.7355  2.1105  0.5340
  658MOL0     H88786  10.999   3.952   6.596 -0.4973  0.5399  0.3555
  658MOL0     H88787  11.170   3.967   6.527 -1.1035  1.4740 -0.8077
  658MOL0     H88788  11.097   3.896   6.812 -0.6039  1.8812  1.0020
  658MOL0     H88789  11.150   4.051   6.756  0.8739  0.4503  0.7777
  658MOL0     H88790  11.201   4.025   6.970  1.5869  2.4051 -1.2660
  658MOL0     H88791  11.255   4.143   7.177  0.7300  0.4455 -0.2971
  658MOL0     H88792  11.197   4.012   7.278 -2.1530  2.1459 -2.0109
  658MOL0     H88793  11.369   4.070   7.300 -0.3536  1.3754  0.6876
  658MOL0     H88794  11.352   3.601   7.486 -2.3827  0.0310  2.4996
  658MOL0     H88795  11.473   3.506   7.686  0.3535  0.4101 -0.0244
  658MOL0     H88796  11.780   3.723   7.836  0.3438  3.0499  1.4190
  658MOL0     H88797  11.716   3.751   8.002  0.7961  0.4334 -0.0915
  658MOL0     H88798  11.703   3.534   8.058  0.0418  0.1963  0.8357
  658MOL0     H88799  11.757   3.472   7.904 -1.3589 -0.8720  0.7861
  658MOL0     H88800  11.935   3.602   8.112  0.2949 -3.8630  1.0775
  658MOL0     H88801  11.972   3.630   7.932 -3.5058  2.6718  0.3377
  658MOL0     H88802  12.074   3.441   8.083 -0.9672  2.4087  0.0942
  658MOL0     H88803  11.924   3.355   8.056  1.0495 -2.0744 -0.1373
  658MOL0     H88804  11.972   3.419   7.809 -1.7709 -0.9487 -0.8174
  658MOL0     H88805  12.053   3.269   7.877  2.3996  0.5037 -0.8181
  658MOL0     H88806  12.182   3.546   7.877 -0.5544  0.1473  0.4439
  658MOL0     H88807  12.257   3.385   7.918  1.5470 -1.2584 -3.2588
  658MOL0     H88808  12.174   3.479   7.639 -0.6378 -1.1915  0.1663
  658MOL0     H88809  12.204   3.318   7.677 -0.6766  0.3821 -0.7434
  658MOL0     H88810  12.405   3.422   7.583 -2.1932 -1.1628 -0.4373
  658MOL0     H88811  12.447   3.358   7.738  1.1153  0.3087 -1.3985
  658MOL0     H88812  11.621   3.893   7.780  0.7185  2.7864 -1.9403
  658MOL0     H88813  11.547   3.975   7.568 -1.2553  1.8494  4.6517
  658MOL0     H88814  11.578   3.717   7.065 -0.4534 -0.3156 -1.1759
  658MOL0     H88815  11.509   3.765   6.818 -2.9839  0.8107 -2.2816
  658MOL0     H88816  10.737   2.739   5.864  1.1404 -1.1157  0.7279
  658MOL0     H88817  10.539   2.602   5.867  0.1241  2.0434  0.7745
  658MOL0     H88818  10.285   2.265   5.783  0.7730  0.3860 -1.6305
  658MOL0     H88819  10.085   2.145   5.785 -0.6593  0.2571 -0.1822
  658MOL0     H88820   9.723   2.124   5.861 -2.9586  0.6039  0.0369
  658MOL0     H88821   9.827   2.241   5.932 -0.1169  1.9683 -0.8076
  658MOL0     H88822   9.660   2.423   5.855 -1.3147 -0.3332 -1.8633
  658MOL0     H88823   9.591   2.299   5.950 -2.2689  2.8593 -0.5864
  658MOL0     H88824   9.517   2.190   5.748  2.2647 -0.4950  0.6411
  658MOL0     H88825   9.609   2.295   5.645 -1.2994  0.9503 -0.1976
  658MOL0     H88826   9.381   2.359   5.651 -0.9142  1.1470 -0.2583
  658MOL0     H88827   9.477   2.489   5.737  1.6951  0.1489  3.7996
  658MOL0     H88828   9.223   2.382   6.040  1.4254  0.3806  0.9493
  658MOL0     H88829   9.842   2.481   5.664 -0.5237 -2.1515 -0.9195
  658MOL0     H88830  10.059   2.603   5.619 -0.0878  0.3114 -0.0850
  659MOL0     O88831   7.485   9.081  11.078  0.2884  0.2187  0.1477
  659MOL0     C88832   7.561   8.991  11.053  0.5570 -0.3320  0.6487
  659MOL0     O88833   7.543   8.891  10.959  0.5053 -0.0269  1.3729
  659MOL0     C88834   7.433   8.896  10.879 -0.4192 -0.4014  0.0869
  659MOL0     C88835   7.441   8.956  10.754  0.0233  0.1548  0.5418
  659MOL0     C88836   7.334   8.964  10.667 -0.2663 -0.2592  0.1100
  659MOL0     C88837   7.205   8.926  10.712 -0.6088 -0.0144  0.0329
  659MOL0     O88838   7.108   8.941  10.621  0.0761  0.0914  0.0301
  659MOL0     C88839   6.976   8.980  10.659 -0.0649  0.8595 -0.2709
  659MOL0     C88840   6.886   9.019  10.544 -0.3094 -0.1868  0.4263
  659MOL0     C88841   6.741   9.046  10.588 -0.9801  0.1728 -0.3492
  659MOL0     C88842   6.720   9.175  10.678  0.0227  0.1860  0.4192
  659MOL0     C88843   6.689   9.305  10.610  0.8728 -0.1309  0.8565
  659MOL0     C88844   6.816   9.367  10.538  0.4344 -0.6252  0.0252
  659MOL0     C88845   6.782   9.498  10.463  0.0883 -0.3467  0.3560
  659MOL0     C88846   6.899   9.586  10.434 -0.3571  0.5404  0.3654
  659MOL0     N88847   6.866   9.717  10.373  0.1910  0.9152 -0.0302
  659MOL0     C88848   6.854   9.836  10.441  0.2299  0.0240  0.1273
  659MOL0     C88849   6.809   9.921  10.342  0.5346 -0.3864 -0.5858
  659MOL0     C88850   6.799  10.075  10.373 -0.2951  0.1131 -0.1625
  659MOL0     C88851   6.714  10.120  10.496  0.6936  0.0401  0.4604
  659MOL0     C88852   6.571  10.055  10.491  0.6801  0.6935  0.3225
  659MOL0     C88853   6.492  10.089  10.361  0.3898  0.0010 -0.1558
  659MOL0     O88854   6.352  10.057  10.372 -0.3641 -0.9273  0.7594
  659MOL0     C88855   6.304   9.932  10.380  0.1561  0.3495 -0.2539
  659MOL0     C88856   6.379   9.822  10.377  0.1920 -0.1728 -0.5552
  659MOL0     C88857   6.331   9.692  10.406 -0.1327 -0.3450 -0.0359
  659MOL0     C88858   6.419   9.572  10.393 -0.1807  0.4566  0.1571
  659MOL0     C88859   6.192   9.677  10.432  0.4839  0.0594 -0.7946
  659MOL0     C88860   6.117   9.553  10.470  0.4078  0.9865  0.3046
  659MOL0     O88861   5.982   9.560  10.498 -0.1489  0.1025  0.8574
  659MOL0     C88862   5.912   9.444  10.518  0.0489 -1.0131 -0.2862
  659MOL0     C88863   5.868   9.429  10.658 -0.5214  0.0105 -0.1129
  659MOL0     C88864   5.796   9.321  10.698 -0.1478 -0.3773 -1.0026
  659MOL0     C88865   5.759   9.218  10.609 -0.8046  0.4623 -0.8296
  659MOL0     O88866   5.698   9.115  10.649  0.3478  0.2203 -0.4504
  659MOL0     C88867   5.636   9.019  10.564 -0.4198 -0.6593 -0.1857
  659MOL0     C88868   5.736   8.914  10.527  0.5295  0.0137 -0.0838
  659MOL0     C88869   5.672   8.793  10.450  0.0182  0.3347 -0.8598
  659MOL0     C88870   5.776   8.691  10.395  0.3492  0.4952  0.3216
  659MOL0     C88871   5.747   8.548  10.436  0.5398  0.2463  0.1282
  659MOL0     C88872   5.864   8.450  10.403  0.5729 -1.0075  0.0029
  659MOL0     C88873   5.988   8.477  10.490 -0.4689 -0.7008 -0.6625
  659MOL0     C88874   6.076   8.360  10.506  0.1080  0.3298 -0.0428
  659MOL0    Cl88875   6.160   8.305  10.348 -0.3940  0.1901 -0.4051
  659MOL0     C88876   5.803   9.231  10.473  0.7558 -0.3192 -0.4720
  659MOL0     C88877   5.875   9.344  10.426 -0.3107  0.3016  0.3555
  659MOL0     O88878   6.183   9.456  10.496 -0.4116  0.4581  0.1990
  659MOL0     C88879   6.111   9.793  10.431  0.6171  1.1364  0.2089
  659MOL0     C88880   6.165   9.918  10.409 -0.5484  0.0988  0.4348
  659MOL0     N88881   6.790   9.855  10.219  0.2899  0.0853 -0.6609
  659MOL0     N88882   6.828   9.738  10.243 -0.1791 -0.8755 -0.1349
  659MOL0     C88883   7.186   8.868  10.845 -0.1030  0.0518  0.3537
  659MOL0     C88884   7.302   8.860  10.924  0.3586  0.1594  0.1590
  659MOL0     C88885   7.696   8.986  11.122  0.1163 -0.1974 -0.5708
  659MOL0     C88886   7.743   9.110  11.171  0.1462 -0.0094 -0.2437
  659MOL0     C88887   7.876   9.115  11.228 -0.1922 -0.0798 -0.1046
  659MOL0     C88888   7.944   8.996  11.233 -0.8952  0.4145  0.1893
  659MOL0     O88889   8.084   8.985  11.270  0.2698 -0.2338  0.5724
  659MOL0     C88890   8.157   9.104  11.306 -0.5302  0.6493 -0.3328
  659MOL0     C88891   8.204   9.191  11.183 -0.7411  0.6751  0.0878
  659MOL0     C88892   8.288   9.304  11.223  0.3702 -0.9206  0.5034
  659MOL0     C88893   8.360   9.385  11.108 -0.9871  0.2459 -0.0360
  659MOL0     C88894   8.438   9.501  11.164  0.5668 -0.0406 -0.5506
  659MOL0     C88895   8.511   9.583  11.212 -0.2065 -0.2960 -0.5453
  659MOL0     C88896   7.887   8.873  11.200 -0.1892 -0.6368  0.0830
  659MOL0     C88897   7.767   8.873  11.135 -0.5260  1.0368  0.2004
  659MOL0     H88898   7.537   8.999  10.729 -2.3324  3.7860 -3.7741
  659MOL0     H88899   7.345   9.019  10.575  1.8341 -2.2315 -0.9224
  659MOL0     H88900   6.931   8.896  10.712  2.9046  0.2121  1.4509
  659MOL0     H88901   6.970   9.058  10.735 -0.8012  1.5291 -0.9935
  659MOL0     H88902   6.919   9.103  10.482 -0.6302 -2.6229 -3.3904
  659MOL0     H88903   6.882   8.935  10.474 -0.7485  1.2072 -1.2984
  659MOL0     H88904   6.679   9.055  10.498  0.2496 -1.9280 -1.4917
  659MOL0     H88905   6.721   8.951  10.640 -0.2612  0.3364  0.2277
  659MOL0     H88906   6.637   9.148  10.744  2.8155 -1.9510  3.3856
  659MOL0     H88907   6.803   9.188  10.749  0.3785  0.1904  0.0038
  659MOL0     H88908   6.612   9.297  10.533  0.5581  5.7285  0.0512
  659MOL0     H88909   6.645   9.377  10.680 -2.4837  1.1825 -2.2720
  659MOL0     H88910   6.891   9.381  10.617 -0.7770  1.5106  0.8855
  659MOL0     H88911   6.858   9.301  10.461  1.4086 -0.7126  0.6098
  659MOL0     H88912   6.721   9.464  10.379  1.4145  0.8792 -1.1775
  659MOL0     H88913   6.712   9.551  10.528  0.8112  2.8219 -1.2681
  659MOL0     H88914   6.960   9.532  10.362 -0.4113  2.1512 -0.9344
  659MOL0     H88915   6.967   9.604  10.519  0.8566 -3.5080  0.4489
  659MOL0     H88916   6.888   9.862  10.541  1.4262 -0.4702 -0.1363
  659MOL0     H88917   6.900  10.113  10.392 -0.5700  0.6853  0.1691
  659MOL0     H88918   6.761  10.119  10.281  3.2924 -0.8780 -2.3286
  659MOL0     H88919   6.698  10.229  10.498  0.0049 -0.0221 -0.7113
  659MOL0     H88920   6.768  10.091  10.586  0.2119 -2.7630 -0.0777
  659MOL0     H88921   6.524  10.112  10.571 -0.0374 -1.2455  1.3293
  659MOL0     H88922   6.575   9.950  10.523  0.1755  1.1714  2.0713
  659MOL0     H88923   6.553  10.038  10.284  1.5985 -0.0433  0.8025
  659MOL0     H88924   6.497  10.196  10.337 -0.0271 -0.6641 -3.9883
  659MOL0     H88925   6.479   9.827  10.336  0.5363 -1.9306 -0.0404
  659MOL0     H88926   6.400   9.494  10.318 -0.4832  0.3247  0.3696
  659MOL0     H88927   6.517   9.603  10.355  0.6092 -1.3044  0.6666
  659MOL0     H88928   6.425   9.528  10.493 -1.1559 -1.8679 -0.7330
  659MOL0     H88929   5.899   9.512  10.720 -1.0611  0.9313 -1.0356
  659MOL0     H88930   5.787   9.302  10.805 -0.3516  1.8103 -0.5689
  659MOL0     H88931   5.563   8.971  10.631  1.2811 -1.0530  1.4721
  659MOL0     H88932   5.583   9.058  10.477 -3.2639 -5.0002 -0.7525
  659MOL0     H88933   5.817   8.956  10.468  0.9726  2.0648  1.8558
  659MOL0     H88934   5.785   8.868  10.613  2.7860  1.7006 -0.3741
  659MOL0     H88935   5.595   8.818  10.377 -0.1627 -1.2587 -1.2571
  659MOL0     H88936   5.620   8.744  10.532  0.5245  1.0594 -0.0937
  659MOL0     H88937   5.778   8.702  10.286 -1.2517 -3.8107 -0.3511
  659MOL0     H88938   5.874   8.720  10.433  1.8422 -1.4250 -1.7335
  659MOL0     H88939   5.652   8.507  10.399  2.3415 -1.4399 -3.2031
  659MOL0     H88940   5.740   8.540  10.544 -0.8994 -3.2514 -0.0704
  659MOL0     H88941   5.826   8.350  10.426  0.2469 -1.4283 -2.2099
  659MOL0     H88942   5.881   8.442  10.295 -1.8257 -2.1863 -0.3614
  659MOL0     H88943   5.947   8.501  10.589 -2.0202  1.6685 -1.7708
  659MOL0     H88944   6.040   8.565  10.450 -1.4533 -0.6693 -1.9431
  659MOL0     H88945   6.012   8.276  10.533 -2.0277  1.2092 -2.0171
  659MOL0     H88946   6.145   8.374  10.590  2.6668 -1.0510 -1.7745
  659MOL0     H88947   5.779   9.156  10.399 -0.5735 -1.4429  1.0322
  659MOL0     H88948   5.902   9.342  10.321  0.4697  1.8152  0.4963
  659MOL0     H88949   6.003   9.793  10.442  0.6256  1.6482  0.2869
  659MOL0     H88950   6.089   9.994  10.424 -2.4148 -1.2962 -1.5240
  659MOL0     H88951   7.089   8.828  10.870 -0.2553  0.2521  0.0852
  659MOL0     H88952   7.294   8.817  11.023  1.8612 -1.5956 -0.4233
  659MOL0     H88953   7.680   9.197  11.181  0.8723  0.3934  1.1399
  659MOL0     H88954   7.925   9.207  11.259  1.3981 -0.4306 -1.4178
  659MOL0     H88955   8.107   9.162  11.384  0.4006  0.0379  0.7458
  659MOL0     H88956   8.251   9.074  11.352 -0.5408  1.1564  0.0279
  659MOL0     H88957   8.125   9.216  11.112 -0.9063 -3.3983 -1.4035
  659MOL0     H88958   8.263   9.126  11.118 -2.1497  2.6557 -3.4171
  659MOL0     H88959   8.372   9.279  11.289  3.1195  0.2365 -2.2762
  659MOL0     H88960   8.215   9.372  11.268 -1.5972  0.8137 -4.5560
  659MOL0     H88961   8.290   9.415  11.030  0.8762  0.9507 -1.5014
  659MOL0     H88962   8.428   9.312  11.064 -3.2457 -3.5434  2.1788
  659MOL0     H88963   8.587   9.642  11.260  0.8061 -1.0835 -1.1263
  659MOL0     H88964   7.941   8.781  11.219 -1.0957 -1.3815 -0.8232
  659MOL0     H88965   7.721   8.778  11.110  0.0215  0.5905  0.8564
  660MOL0     O88966   9.662   5.929   7.420  0.2666 -0.9472  0.3283
  660MOL0     C88967   9.644   5.998   7.320 -0.2960 -0.2005 -0.4074
  660MOL0     O88968   9.550   6.083   7.303  0.4407 -0.1089 -0.7703
  660MOL0     C88969   9.460   6.118   7.404  0.0126 -1.5410 -0.0836
  660MOL0     C88970   9.519   6.182   7.517  0.1444 -0.2418  1.1576
  660MOL0     C88971   9.440   6.216   7.626  0.2823  0.5276  0.7597
  660MOL0     C88972   9.299   6.205   7.603  0.1779  0.2591  0.8811
  660MOL0     O88973   9.204   6.233   7.697  0.6490 -0.3489 -0.4050
  660MOL0     C88974   9.223   6.364   7.753  0.3952 -0.3247 -0.3624
  660MOL0     C88975   9.087   6.400   7.813 -0.0558 -0.5121  0.2319
  660MOL0     C88976   9.108   6.516   7.910  0.3450 -0.5857 -0.2968
  660MOL0     C88977   8.974   6.537   7.974 -0.1435  0.6002 -0.7560
  660MOL0     C88978   8.967   6.619   8.100 -0.4534  0.2503 -0.6737
  660MOL0     C88979   9.026   6.548   8.225  0.1619  0.1786 -0.2156
  660MOL0     C88980   9.021   6.638   8.347 -0.9138  0.4217  0.3615
  660MOL0     C88981   9.169   6.655   8.392  0.2260 -1.0827 -1.0224
  660MOL0     N88982   9.188   6.746   8.506 -0.0246 -0.6699  0.1079
  660MOL0     C88983   9.184   6.705   8.635  0.4229  0.1124  0.3405
  660MOL0     C88984   9.186   6.823   8.699 -0.0297 -1.1442 -0.4375
  660MOL0     C88985   9.179   6.858   8.838  0.7039 -0.4830  0.1541
  660MOL0     C88986   9.325   6.846   8.890 -0.0657 -0.2640 -0.5557
  660MOL0     C88987   9.355   6.936   9.012  0.0072  0.0333 -1.0571
  660MOL0     C88988   9.265   6.900   9.136  0.2770 -0.8853 -0.3467
  660MOL0     O88989   9.271   6.998   9.236  0.3444 -1.0331 -0.1176
  660MOL0     C88990   9.385   7.029   9.292 -0.1342  0.1742  0.0752
  660MOL0     C88991   9.395   7.150   9.356  0.0451  0.3875 -0.8192
  660MOL0     C88992   9.514   7.198   9.419  0.4837  0.0756  0.4712
  660MOL0     C88993   9.506   7.341   9.465 -0.8074 -0.7873 -0.3919
  660MOL0     C88994   9.629   7.112   9.423  0.1860 -0.2168 -0.2201
  660MOL0     C88995   9.751   7.144   9.508 -0.3550  1.1684 -0.3179
  660MOL0     O88996   9.834   7.028   9.513 -0.2242  0.5397 -0.5534
  660MOL0     C88997   9.956   7.011   9.573 -0.1674 -0.0263 -0.5030
  660MOL0     C88998  10.033   6.907   9.536  0.7733  0.0256 -0.0782
  660MOL0     C88999  10.158   6.890   9.588  0.3330  0.3249 -1.0679
  660MOL0     C89000  10.214   6.970   9.687  0.7809 -0.3495 -0.1002
  660MOL0     O89001  10.340   6.953   9.731 -0.3568  0.4381 -0.8130
  660MOL0     C89002  10.405   7.052   9.813 -0.2892 -0.0290  0.3328
  660MOL0     C89003  10.562   7.027   9.826 -0.2085  0.1130  0.3594
  660MOL0     C89004  10.608   7.065   9.965 -0.0835  0.0278  0.1207
  660MOL0     C89005  10.758   7.081   9.958  0.6292  0.4563  0.8009
  660MOL0     C89006  10.837   7.117  10.088  0.0575 -0.4229  0.1787
  660MOL0     C89007  10.843   7.005  10.195 -0.4126 -0.1712  0.8840
  660MOL0     C89008  10.944   7.045  10.300 -0.0439  0.5598 -0.7332
  660MOL0     C89009  10.926   6.961  10.436  0.1875  0.2426  0.8259
  660MOL0    Cl89010  10.975   7.043  10.579  0.0167  0.1431  0.0615
  660MOL0     C89011  10.138   7.082   9.729 -0.9738  0.0379 -0.2320
  660MOL0     C89012  10.010   7.101   9.672 -0.0160  0.7149  0.0268
  660MOL0     O89013   9.778   7.256   9.551  0.3301  0.0509  0.5796
  660MOL0     C89014   9.612   6.982   9.367 -0.3317 -0.6385  1.0024
  660MOL0     C89015   9.497   6.942   9.297 -0.1733  0.8009 -1.2085
  660MOL0     N89016   9.183   6.927   8.609  0.2073 -0.4050  0.2153
  660MOL0     N89017   9.201   6.878   8.489 -0.3195  0.0855 -0.9922
  660MOL0     C89018   9.240   6.158   7.493  0.4495  0.4506  0.9546
  660MOL0     C89019   9.318   6.116   7.385 -0.9545  0.2171 -0.4649
  660MOL0     C89020   9.729   5.969   7.210 -0.5451 -0.4782 -0.1525
  660MOL0     C89021   9.779   5.838   7.185 -0.1101  0.2146 -0.0893
  660MOL0     C89022   9.868   5.801   7.086  0.0594 -0.9327  0.6535
  660MOL0     C89023   9.917   5.898   6.997 -0.4131  1.1251  0.2996
  660MOL0     O89024  10.007   5.859   6.903 -0.6631  0.2985 -0.0894
  660MOL0     C89025  10.080   5.969   6.841 -0.9939 -0.9168 -0.0174
  660MOL0     C89026  10.139   5.926   6.706 -0.8890  1.0153  0.0936
  660MOL0     C89027  10.254   5.812   6.721 -0.6117 -0.1524 -0.2650
  660MOL0     C89028  10.330   5.767   6.596 -0.6733 -0.1532 -0.2534
  660MOL0     C89029  10.236   5.772   6.481 -0.2629  0.3926 -0.1463
  660MOL0     C89030  10.156   5.794   6.389  0.0624  0.1638  0.2998
  660MOL0     C89031   9.872   6.034   7.020  0.1317  0.0827 -0.0464
  660MOL0     C89032   9.778   6.066   7.119 -0.5920 -1.0126 -0.8619
  660MOL0     H89033   9.627   6.194   7.520 -0.0610  1.6796  2.1100
  660MOL0     H89034   9.480   6.245   7.722 -1.6736  0.0450  1.7761
  660MOL0     H89035   9.309   6.365   7.820  1.7511  1.1664 -2.0070
  660MOL0     H89036   9.251   6.428   7.669 -0.5427  2.7569  1.5117
  660MOL0     H89037   9.023   6.432   7.730  1.2090 -2.1256 -1.4704
  660MOL0     H89038   9.052   6.315   7.872 -1.7286  0.9281  1.4105
  660MOL0     H89039   9.184   6.495   7.986 -0.3376 -1.3232  0.1892
  660MOL0     H89040   9.148   6.600   7.853  0.0757 -0.1227  0.1912
  660MOL0     H89041   8.919   6.593   7.898 -1.9877 -1.9088 -1.3842
  660MOL0     H89042   8.919   6.443   7.983  4.3424 -2.6295 -2.9889
  660MOL0     H89043   9.031   6.704   8.077  0.2807 -0.6112 -1.9424
  660MOL0     H89044   8.865   6.649   8.124 -0.7151 -0.0071 -1.4456
  660MOL0     H89045   8.966   6.459   8.249 -2.0117  0.5022 -3.6989
  660MOL0     H89046   9.128   6.515   8.201  0.3907  0.7555 -0.0418
  660MOL0     H89047   8.987   6.741   8.329 -0.1755  0.7659  0.9280
  660MOL0     H89048   8.954   6.591   8.420 -1.1829  2.2156  1.3366
  660MOL0     H89049   9.219   6.687   8.300 -1.9666  0.4959 -1.7603
  660MOL0     H89050   9.197   6.553   8.419 -0.3018 -1.1990 -0.9070
  660MOL0     H89051   9.162   6.612   8.686 -0.5585  2.0577  3.8436
  660MOL0     H89052   9.130   6.955   8.849  1.8097  0.1199 -0.0780
  660MOL0     H89053   9.134   6.775   8.894  0.3976  0.0716  0.7484
  660MOL0     H89054   9.406   6.865   8.820  2.9431 -1.2348  2.3789
  660MOL0     H89055   9.333   6.741   8.919  2.6571 -0.1934 -0.8113
  660MOL0     H89056   9.333   7.041   8.990 -1.9442 -0.1790 -0.2810
  660MOL0     H89057   9.462   6.922   9.030 -0.0313 -0.4370 -1.1729
  660MOL0     H89058   9.274   6.796   9.168  1.7073  0.3255  3.7277
  660MOL0     H89059   9.161   6.900   9.102  0.6026 -0.6613 -1.3852
  660MOL0     H89060   9.301   7.205   9.359  0.7523  1.5878  2.0546
  660MOL0     H89061   9.599   7.398   9.472 -1.0339 -0.4354 -0.1586
  660MOL0     H89062   9.440   7.406   9.407 -0.7589 -0.1717  0.2267
  660MOL0     H89063   9.468   7.345   9.568 -0.1967 -1.7367 -0.1088
  660MOL0     H89064   9.995   6.839   9.460 -0.2037  0.5456 -0.0762
  660MOL0     H89065  10.231   6.825   9.541 -1.7280 -1.7910 -1.4916
  660MOL0     H89066  10.384   7.153   9.776 -1.6257 -0.4708 -0.1962
  660MOL0     H89067  10.371   7.047   9.916 -1.2784  1.0900  0.0875
  660MOL0     H89068  10.593   6.923   9.814 -0.8296 -0.1533  0.9599
  660MOL0     H89069  10.629   7.085   9.763  2.4768 -1.9015  1.1897
  660MOL0     H89070  10.576   6.986  10.034  1.4646 -1.2615 -0.5737
  660MOL0     H89071  10.566   7.162   9.993  0.4493  0.6332 -1.1160
  660MOL0     H89072  10.793   6.986   9.916  3.0606  0.6456  2.2073
  660MOL0     H89073  10.785   7.159   9.886  0.2934  0.0489  0.2270
  660MOL0     H89074  10.793   7.205  10.136  0.6496 -1.4080  2.7259
  660MOL0     H89075  10.937   7.152  10.058  1.6209 -0.7989  4.2901
  660MOL0     H89076  10.748   6.981  10.245  0.0873 -0.5066  1.6938
  660MOL0     H89077  10.878   6.910  10.155  0.8812 -0.1075  1.8013
  660MOL0     H89078  10.912   7.141  10.341  0.6985  0.3799  0.3235
  660MOL0     H89079  11.047   7.054  10.265 -0.3021 -0.2407 -1.7490
  660MOL0     H89080  10.984   6.869  10.430  1.9960  1.2656  1.6579
  660MOL0     H89081  10.821   6.934  10.449  0.5260 -1.6266 -0.0663
  660MOL0     H89082  10.162   7.169   9.789 -3.3340  2.4111 -2.4478
  660MOL0     H89083   9.957   7.193   9.693  1.2691  1.3116  0.8280
  660MOL0     H89084   9.694   6.911   9.365 -0.9636 -1.3636 -1.1206
  660MOL0     H89085   9.483   6.841   9.261  0.1529 -0.0860  1.0212
  660MOL0     H89086   9.133   6.151   7.481  0.5145 -0.4960  0.8049
  660MOL0     H89087   9.292   6.080   7.286  0.6007  2.6574 -1.8872
  660MOL0     H89088   9.753   5.753   7.247  1.3445  2.0367  3.2526
  660MOL0     H89089   9.913   5.703   7.096  0.6587 -0.7565 -0.2422
  660MOL0     H89090  10.025   6.061   6.820  5.1227  2.8337 -2.2565
  660MOL0     H89091  10.157   5.998   6.913  1.5809 -1.5218 -2.3064
  660MOL0     H89092  10.176   6.012   6.648 -1.3895  3.2035  2.7886
  660MOL0     H89093  10.060   5.885   6.643 -0.4847  2.4357 -1.4090
  660MOL0     H89094  10.207   5.720   6.757 -1.0715 -0.7446 -2.2753
  660MOL0     H89095  10.328   5.853   6.790 -1.8385  2.0498 -0.1643
  660MOL0     H89096  10.358   5.663   6.617 -1.6343 -0.3477  0.1449
  660MOL0     H89097  10.406   5.834   6.556 -0.9612 -0.4162 -1.2863
  660MOL0     H89098  10.081   5.804   6.313  1.3782  1.1648 -0.9407
  660MOL0     H89099   9.894   6.116   6.954 -1.1469  0.2325 -0.3234
  660MOL0     H89100   9.764   6.174   7.117  0.0433 -0.9203 -3.5096
  661MOL0     O89101   1.019   4.164   6.814 -0.9433  0.3205  0.5189
  661MOL0     C89102   0.972   4.257   6.882  0.3171  0.9925 -0.3224
  661MOL0     O89103   1.032   4.375   6.906  0.6964  1.0271  0.1289
  661MOL0     C89104   1.140   4.413   6.842 -1.1041  0.3563  0.3717
  661MOL0     C89105   1.175   4.377   6.709 -0.8810  0.2774 -0.4110
  661MOL0     C89106   1.293   4.435   6.652 -0.1492  0.9922 -0.5703
  661MOL0     C89107   1.371   4.523   6.720 -0.3028 -0.3437  0.6563
  661MOL0     O89108   1.483   4.567   6.669  0.0315  0.2340  0.1160
  661MOL0     C89109   1.586   4.481   6.618  0.7447  0.5655  0.4409
  661MOL0     C89110   1.707   4.467   6.718 -0.3890 -0.6212 -0.0815
  661MOL0     C89111   1.804   4.587   6.723 -0.0808 -0.8621 -0.1240
  661MOL0     C89112   1.937   4.558   6.641  0.4175 -0.4920 -0.1699
  661MOL0     C89113   2.040   4.662   6.643  0.6329  0.4372 -0.2097
  661MOL0     C89114   2.115   4.660   6.772  0.4769 -0.4022 -0.9094
  661MOL0     C89115   2.208   4.782   6.785 -0.0143  0.5282  0.0542
  661MOL0     C89116   2.247   4.794   6.937  0.0737 -0.3879  0.4237
  661MOL0     N89117   2.337   4.912   6.949  0.3915  0.7517  1.0835
  661MOL0     C89118   2.466   4.922   6.911  0.0454  0.2313 -0.0738
  661MOL0     C89119   2.498   5.057   6.915 -0.0734 -0.1281  1.2781
  661MOL0     C89120   2.624   5.125   6.864  0.4936  0.1043 -0.4468
  661MOL0     C89121   2.744   5.104   6.959  0.5399  0.5093 -0.0430
  661MOL0     C89122   2.880   5.142   6.898 -0.2711 -0.4187  0.4319
  661MOL0     C89123   2.909   5.097   6.758  0.0576 -0.3765 -0.4574
  661MOL0     O89124   2.853   5.190   6.661  0.2901  0.2662  0.3974
  661MOL0     C89125   2.913   5.313   6.662  0.7515  0.0069 -0.7553
  661MOL0     C89126   2.837   5.436   6.652  0.3920  0.0305  0.7916
  661MOL0     C89127   2.904   5.560   6.653 -0.1409  0.1716 -0.6688
  661MOL0     C89128   2.827   5.686   6.631  0.7137  0.4642  0.9705
  661MOL0     C89129   3.046   5.567   6.659 -1.2645  1.9498  0.2657
  661MOL0     C89130   3.129   5.688   6.643 -0.0299 -0.6156 -0.8334
  661MOL0     O89131   3.262   5.668   6.609 -0.0908  0.1677 -0.7783
  661MOL0     C89132   3.338   5.777   6.622  0.4250 -0.5112  0.1224
  661MOL0     C89133   3.431   5.787   6.728 -0.1939 -0.8048  0.4692
  661MOL0     C89134   3.524   5.896   6.719 -0.4222 -0.1621  0.3074
  661MOL0     C89135   3.521   5.991   6.611  0.0675  0.2136  0.4433
  661MOL0     O89136   3.601   6.107   6.593  1.0046  0.9280 -0.4775
  661MOL0     C89137   3.651   6.175   6.705  0.4233 -0.6100  0.2749
  661MOL0     C89138   3.641   6.330   6.686 -0.0262  0.0748  0.0277
  661MOL0     C89139   3.502   6.402   6.690 -0.1314 -0.9680  0.7440
  661MOL0     C89140   3.404   6.339   6.593  0.6035  0.4535  1.0061
  661MOL0     C89141   3.273   6.410   6.580 -0.0207 -0.6528 -0.4379
  661MOL0     C89142   3.173   6.356   6.462  0.8461 -0.1442  0.0293
  661MOL0     C89143   3.054   6.440   6.431  0.0599 -0.8086  0.7871
  661MOL0     C89144   2.935   6.422   6.530  0.2034 -0.5891 -0.1677
  661MOL0    Cl89145   2.844   6.268   6.510  0.3202  0.0959 -0.5469
  661MOL0     C89146   3.421   5.977   6.509  0.0508  0.5494 -0.1778
  661MOL0     C89147   3.336   5.864   6.507 -0.1101 -0.6132  0.6224
  661MOL0     O89148   3.085   5.796   6.681 -0.4689 -0.1805  0.0022
  661MOL0     C89149   3.119   5.442   6.661 -0.3786  0.0782  0.0891
  661MOL0     C89150   3.053   5.324   6.658  0.2977 -0.2967 -0.2104
  661MOL0     N89151   2.388   5.124   6.964 -0.8128 -0.2357  0.2457
  661MOL0     N89152   2.296   5.038   6.993 -0.0899 -0.6764  0.3755
  661MOL0     C89153   1.335   4.560   6.851  0.1825 -0.1569 -0.1920
  661MOL0     C89154   1.217   4.509   6.914  1.0652  0.2450  0.0090
  661MOL0     C89155   0.852   4.242   6.959 -0.5493  0.4952  0.1073
  661MOL0     C89156   0.850   4.298   7.089  0.1970  0.3060  0.9627
  661MOL0     C89157   0.734   4.294   7.163 -0.5317  0.4415 -0.4179
  661MOL0     C89158   0.617   4.257   7.104  0.1040 -0.0848  0.2673
  661MOL0     O89159   0.513   4.238   7.197 -0.2567 -0.3744  0.0034
  661MOL0     C89160   0.405   4.157   7.168 -0.0123 -0.0947 -0.1514
  661MOL0     C89161   0.279   4.229   7.231 -0.6080 -0.2462  0.3449
  661MOL0     C89162   0.279   4.231   7.382  1.0302  0.7798  0.7994
  661MOL0     C89163   0.142   4.288   7.431  0.1880  0.1515 -0.1785
  661MOL0     C89164   0.117   4.255   7.571  0.8373 -0.6521 -0.4944
  661MOL0     C89165   0.097   4.245   7.688  0.1033 -0.1973  0.1015
  661MOL0     C89166   0.617   4.218   6.967 -0.3417 -0.8734  0.1098
  661MOL0     C89167   0.733   4.211   6.900  0.4107 -0.3921 -0.8292
  661MOL0     H89168   1.115   4.311   6.647  1.6729 -2.3660 -0.2700
  661MOL0     H89169   1.330   4.403   6.555  4.2896 -0.3845  1.3476
  661MOL0     H89170   1.547   4.379   6.615  2.5730 -0.2702  2.4863
  661MOL0     H89171   1.607   4.512   6.515 -3.1215  0.2717 -0.5760
  661MOL0     H89172   1.660   4.444   6.814 -0.1537 -2.3815 -0.3614
  661MOL0     H89173   1.762   4.375   6.695  1.3000 -0.3495  2.4221
  661MOL0     H89174   1.754   4.676   6.683 -1.5247 -2.7632 -2.8312
  661MOL0     H89175   1.824   4.607   6.829 -0.4537  1.3185 -0.4051
  661MOL0     H89176   1.986   4.470   6.683 -0.7533 -0.9992  0.1639
  661MOL0     H89177   1.908   4.532   6.539 -0.9912 -0.3004  0.1607
  661MOL0     H89178   2.117   4.643   6.568  1.5160  1.8388  0.3107
  661MOL0     H89179   2.001   4.764   6.644 -0.0450  0.2634  3.0590
  661MOL0     H89180   2.036   4.671   6.847 -0.4327 -3.1886 -1.3767
  661MOL0     H89181   2.164   4.563   6.786 -0.8455 -1.3691 -2.5907
  661MOL0     H89182   2.303   4.775   6.731  0.0953  3.1285 -0.1893
  661MOL0     H89183   2.154   4.869   6.745 -1.5856 -1.6273 -2.9791
  661MOL0     H89184   2.305   4.708   6.970  2.0169  0.6084 -0.2436
  661MOL0     H89185   2.160   4.808   7.002  1.1880  0.1478  1.8587
  661MOL0     H89186   2.533   4.845   6.875  1.3317  1.1585  0.2608
  661MOL0     H89187   2.652   5.078   6.769 -1.5718 -3.9345  0.6913
  661MOL0     H89188   2.595   5.223   6.825 -3.3019 -1.7835 -2.9699
  661MOL0     H89189   2.746   4.997   6.983 -0.6125  0.6332  0.7034
  661MOL0     H89190   2.722   5.140   7.060  1.6868 -1.3025  0.9091
  661MOL0     H89191   2.959   5.117   6.970 -1.2391  1.8103  2.4132
  661MOL0     H89192   2.899   5.250   6.903  3.1708 -0.7134 -2.4539
  661MOL0     H89193   2.866   4.997   6.750 -0.9493  0.0702 -0.7304
  661MOL0     H89194   3.019   5.098   6.753  0.0850  0.7683 -0.0228
  661MOL0     H89195   2.729   5.435   6.650  0.2340 -1.8626 -4.1308
  661MOL0     H89196   2.723   5.675   6.599  1.1332  0.7833 -0.5687
  661MOL0     H89197   2.833   5.744   6.724  1.4657  1.2515  0.4417
  661MOL0     H89198   2.879   5.743   6.553 -0.1380  3.0573  2.1696
  661MOL0     H89199   3.449   5.715   6.807 -0.9903 -1.8209 -0.2474
  661MOL0     H89200   3.590   5.920   6.802 -2.7282  2.4701  1.5598
  661MOL0     H89201   3.594   6.147   6.794 -1.8826  3.7669  0.4568
  661MOL0     H89202   3.752   6.140   6.729  0.1007 -3.4827 -2.0379
  661MOL0     H89203   3.702   6.371   6.768 -1.3585 -1.8632  2.1110
  661MOL0     H89204   3.689   6.358   6.592 -2.2954  4.0319 -0.1547
  661MOL0     H89205   3.513   6.505   6.654 -2.1741 -0.9462  0.0468
  661MOL0     H89206   3.473   6.412   6.795  1.6807 -0.8661  1.2622
  661MOL0     H89207   3.454   6.334   6.496 -2.0139 -0.5910 -0.3782
  661MOL0     H89208   3.386   6.237   6.628 -2.2136  0.7956  0.7356
  661MOL0     H89209   3.297   6.514   6.557  4.0601 -0.7121  2.5580
  661MOL0     H89210   3.230   6.402   6.680 -1.1305  1.6086 -0.6534
  661MOL0     H89211   3.225   6.359   6.366 -1.2171  0.2892 -1.1490
  661MOL0     H89212   3.145   6.250   6.472  5.3148 -1.8333 -2.4065
  661MOL0     H89213   3.020   6.427   6.328  1.2613  2.5893 -0.1611
  661MOL0     H89214   3.083   6.545   6.442 -1.1243 -0.3549 -0.1754
  661MOL0     H89215   2.860   6.500   6.511  1.8291  1.3175  0.8585
  661MOL0     H89216   2.956   6.438   6.636 -0.0316  0.0634 -0.2100
  661MOL0     H89217   3.439   6.044   6.425  3.9150  1.0673  0.8479
  661MOL0     H89218   3.273   5.833   6.424 -0.4348 -1.5303  1.1951
  661MOL0     H89219   3.227   5.449   6.656 -0.4106 -0.1954 -2.3880
  661MOL0     H89220   3.110   5.232   6.649  0.0162 -0.4577 -0.3529
  661MOL0     H89221   1.410   4.625   6.895  0.2204 -0.8636  0.8247
  661MOL0     H89222   1.183   4.534   7.014 -4.1764  1.6775 -1.8094
  661MOL0     H89223   0.938   4.328   7.145  0.5746 -1.4579  1.3649
  661MOL0     H89224   0.735   4.323   7.267  1.0665  0.8249 -0.5125
  661MOL0     H89225   0.380   4.152   7.062 -0.9486  0.2915  0.0415
  661MOL0     H89226   0.416   4.057   7.211 -0.0437  0.8593  2.2244
  661MOL0     H89227   0.190   4.173   7.202 -2.9829  2.0097  2.8077
  661MOL0     H89228   0.258   4.319   7.172 -0.4721 -1.1507 -1.1498
  661MOL0     H89229   0.363   4.292   7.417  2.8585  0.2093 -2.2820
  661MOL0     H89230   0.282   4.125   7.411  0.7773  0.9071  1.3119
  661MOL0     H89231   0.064   4.254   7.362  1.5799 -1.3363 -1.0763
  661MOL0     H89232   0.144   4.397   7.435  2.5317  0.1317  0.5289
  661MOL0     H89233   0.078   4.228   7.792  0.8870  1.9144  0.6446
  661MOL0     H89234   0.528   4.171   6.925  1.5609 -1.7619 -3.2910
  661MOL0     H89235   0.724   4.172   6.799  0.4871 -2.4876 -0.0805
  662MOL0     O89236   7.654   9.220   1.179 -0.1240  0.4318  0.6262
  662MOL0     C89237   7.625   9.113   1.223  0.3068 -0.2579 -0.1307
  662MOL0     O89238   7.714   9.011   1.261 -0.3946 -0.5550  0.0231
  662MOL0     C89239   7.837   9.031   1.204 -0.3418  0.2921  0.0830
  662MOL0     C89240   7.932   9.099   1.280  0.1808 -0.4368  0.5873
  662MOL0     C89241   8.060   9.129   1.232  1.4474  0.0569  0.1061
  662MOL0     C89242   8.094   9.088   1.100 -0.0027  0.1095 -0.4602
  662MOL0     O89243   8.215   9.093   1.055 -0.0486  0.3571  0.5071
  662MOL0     C89244   8.268   9.226   1.019  0.0381  0.0604 -0.6716
  662MOL0     C89245   8.424   9.205   0.998  0.4244  0.2213  0.1163
  662MOL0     C89246   8.481   9.338   0.953 -0.3771 -0.0640 -0.4957
  662MOL0     C89247   8.620   9.334   0.895 -0.3661  0.8141  0.5966
  662MOL0     C89248   8.685   9.465   0.891  0.2079 -0.3569 -0.6192
  662MOL0     C89249   8.834   9.453   0.847 -0.5375  0.0509  0.4624
  662MOL0     C89250   8.915   9.586   0.856  0.4219  0.0087  0.6697
  662MOL0     C89251   8.954   9.612   0.998 -0.0222 -0.2522 -0.6343
  662MOL0     N89252   9.001   9.751   1.009 -0.0696 -0.3492 -0.0826
  662MOL0     C89253   9.064   9.796   1.124 -0.0257  0.1409  0.1514
  662MOL0     C89254   9.081   9.929   1.107 -0.4095  0.1047  1.3052
  662MOL0     C89255   9.141  10.011   1.216  0.0595 -0.0303 -0.6272
  662MOL0     C89256   9.292  10.005   1.239  0.3343  0.5162  0.4768
  662MOL0     C89257   9.373  10.018   1.115 -0.0534 -0.5464 -0.1245
  662MOL0     C89258   9.513  10.042   1.157 -0.2952 -0.3702 -0.0078
  662MOL0     O89259   9.597   9.984   1.056 -0.6799 -0.1486 -0.6549
  662MOL0     C89260   9.710  10.046   1.016  0.3194 -0.2888  0.5832
  662MOL0     C89261   9.774  10.158   1.082  0.2068 -0.2842 -0.1370
  662MOL0     C89262   9.883  10.228   1.028  0.2428  0.3645 -0.4535
  662MOL0     C89263   9.938  10.351   1.106  1.0970  0.7698  1.1622
  662MOL0     C89264   9.944  10.178   0.906 -0.2083  0.0473 -1.2376
  662MOL0     C89265  10.065  10.240   0.842 -0.3659  0.4429 -0.4900
  662MOL0     O89266  10.121  10.163   0.740  0.4916 -0.6251  0.3667
  662MOL0     C89267  10.221  10.210   0.664  0.2203  0.8075  0.0995
  662MOL0     C89268  10.360  10.188   0.700 -0.3608 -0.1090  0.1023
  662MOL0     C89269  10.458  10.234   0.623 -0.1197 -0.9632  0.4199
  662MOL0     C89270  10.428  10.310   0.511  0.6381 -1.3573  0.7467
  662MOL0     O89271  10.529  10.348   0.423 -0.0770  0.0799 -0.3455
  662MOL0     C89272  10.637  10.426   0.460 -0.2243 -0.6110  1.0415
  662MOL0     C89273  10.606  10.574   0.474 -0.8600  0.2132 -0.0009
  662MOL0     C89274  10.525  10.612   0.605 -0.1147 -0.3288 -0.6458
  662MOL0     C89275  10.612  10.676   0.707  0.2601 -0.8732  1.1100
  662MOL0     C89276  10.688  10.575   0.789  0.5166 -0.2551 -1.1151
  662MOL0     C89277  10.804  10.638   0.863  0.9075  0.1272 -0.7959
  662MOL0     C89278  10.892  10.526   0.924  0.1052 -1.1712  0.3239
  662MOL0     C89279  10.998  10.585   1.017 -0.2477  0.2684 -0.2542
  662MOL0    Cl89280  11.122  10.669   0.916  0.3037 -0.1637  0.6639
  662MOL0     C89281  10.294  10.340   0.476 -1.0746 -0.1534 -0.5202
  662MOL0     C89282  10.197  10.284   0.553  0.2472  0.3166  0.0371
  662MOL0     O89283  10.137  10.320   0.905  0.4006 -0.2658  0.3595
  662MOL0     C89284   9.883  10.062   0.848 -0.0073  0.1613  0.2260
  662MOL0     C89285   9.769   9.998   0.907  0.0554 -0.8953  0.6719
  662MOL0     N89286   9.026   9.958   0.979 -0.8516 -0.4909  0.3163
  662MOL0     N89287   8.973   9.853   0.925 -0.1956 -0.4828  0.0507
  662MOL0     C89288   8.002   9.019   1.017  0.3895 -0.4763 -0.7242
  662MOL0     C89289   7.877   8.991   1.070  0.1866 -0.7609 -0.7094
  662MOL0     C89290   7.486   9.107   1.262 -0.4557  0.7874  0.7662
  662MOL0     C89291   7.417   8.980   1.253 -0.1922  0.1120 -0.9899
  662MOL0     C89292   7.281   8.975   1.291 -0.4905 -0.4677 -0.1346
  662MOL0     C89293   7.213   9.089   1.342 -0.5835 -1.1379  0.4205
  662MOL0     O89294   7.085   9.065   1.373 -0.7024  0.2862  0.1635
  662MOL0     C89295   7.005   9.179   1.393 -0.1624 -0.4823 -0.8426
  662MOL0     C89296   6.886   9.130   1.466  0.7786  0.6001  0.7521
  662MOL0     C89297   6.793   9.244   1.533  0.0725  0.4651 -0.2657
  662MOL0     C89298   6.793   9.233   1.685  0.4364 -0.8990  0.0783
  662MOL0     C89299   6.714   9.126   1.739 -0.1737  0.0759  0.2109
  662MOL0     C89300   6.655   9.036   1.794  0.4833  0.4970 -0.3791
  662MOL0     C89301   7.281   9.213   1.352  0.6408 -0.3593 -0.8425
  662MOL0     C89302   7.413   9.215   1.307 -0.3704  0.2200 -0.3531
  662MOL0     H89303   7.905   9.129   1.380  0.6202  3.1485 -0.2275
  662MOL0     H89304   8.129   9.189   1.289  1.7202  0.0321 -0.1950
  662MOL0     H89305   8.213   9.271   0.936 -0.7857 -0.8526 -0.6333
  662MOL0     H89306   8.264   9.296   1.104  0.9341 -1.7038  0.8964
  662MOL0     H89307   8.483   9.169   1.083  3.2043  1.9492 -0.9440
  662MOL0     H89308   8.443   9.130   0.921 -0.5070 -0.5757  0.6187
  662MOL0     H89309   8.414   9.396   0.888 -2.4453 -1.4108  0.3301
  662MOL0     H89310   8.487   9.392   1.048 -0.5035  0.9103 -1.0307
  662MOL0     H89311   8.690   9.272   0.952 -0.3182  0.6483  0.3616
  662MOL0     H89312   8.621   9.297   0.792 -1.5618 -0.0537  0.8809
  662MOL0     H89313   8.623   9.524   0.823 -0.6966 -1.1851 -0.5301
  662MOL0     H89314   8.682   9.499   0.995 -2.0502 -1.3810 -0.3060
  662MOL0     H89315   8.880   9.376   0.910 -3.3081 -1.6855  0.5281
  662MOL0     H89316   8.840   9.415   0.744 -1.3670  1.5960 -0.2043
  662MOL0     H89317   9.003   9.590   0.791 -2.2820 -1.2254 -3.4099
  662MOL0     H89318   8.861   9.674   0.822  0.8457 -0.0682 -0.2264
  662MOL0     H89319   9.041   9.559   1.036  1.2673  1.5292 -0.9317
  662MOL0     H89320   8.870   9.597   1.066  0.8825  0.9621  0.8257
  662MOL0     H89321   9.091   9.743   1.215 -0.0920  1.1223  0.7549
  662MOL0     H89322   9.119  10.117   1.200 -2.4210 -0.0289  2.0106
  662MOL0     H89323   9.090   9.983   1.309  0.9670 -1.0778 -0.4270
  662MOL0     H89324   9.314   9.916   1.298  1.6891  0.5773  0.1010
  662MOL0     H89325   9.315  10.087   1.308 -0.6237 -0.1628  1.6443
  662MOL0     H89326   9.347  10.110   1.061  3.2347  1.5057  1.4362
  662MOL0     H89327   9.369   9.930   1.050 -0.2504 -2.6614  2.5585
  662MOL0     H89328   9.524   9.984   1.250  0.3903  3.2382  2.3760
  662MOL0     H89329   9.536  10.146   1.183  0.5864 -0.5644  0.0111
  662MOL0     H89330   9.750  10.200   1.179  0.6852  2.0925 -0.9821
  662MOL0     H89331   9.869  10.381   1.185  1.2782  0.9194  1.2638
  662MOL0     H89332  10.032  10.311   1.144  0.6585  1.2354  2.7912
  662MOL0     H89333   9.961  10.441   1.047  0.4515  0.9464  1.1698
  662MOL0     H89334  10.398  10.134   0.787  1.7515  3.1081  1.3821
  662MOL0     H89335  10.559  10.200   0.641  1.0277  0.2319 -2.9340
  662MOL0     H89336  10.686  10.379   0.545  3.9251  1.3510  0.0026
  662MOL0     H89337  10.703  10.414   0.373 -0.7095  1.0281  0.4087
  662MOL0     H89338  10.707  10.615   0.480 -0.1836 -1.5623  2.5496
  662MOL0     H89339  10.553  10.610   0.386 -0.3171  2.1660  0.4322
  662MOL0     H89340  10.477  10.523   0.647 -0.0232  0.5161  1.3886
  662MOL0     H89341  10.448  10.679   0.566 -1.0783 -0.7068  0.5418
  662MOL0     H89342  10.690  10.740   0.666 -1.2202  1.4611  1.7545
  662MOL0     H89343  10.559  10.733   0.784 -0.3568  0.0696  0.0164
  662MOL0     H89344  10.740  10.503   0.725  0.3960  1.3000 -3.0652
  662MOL0     H89345  10.614  10.523   0.851 -0.1497  1.5303 -0.3337
  662MOL0     H89346  10.862  10.707   0.802  2.7975 -1.2880 -0.6908
  662MOL0     H89347  10.757  10.702   0.938 -2.2415 -0.6059 -1.9937
  662MOL0     H89348  10.934  10.474   0.837 -2.8441  0.0514 -2.0319
  662MOL0     H89349  10.836  10.460   0.990 -1.0644 -0.5225 -0.0008
  662MOL0     H89350  11.052  10.510   1.076  0.6321  1.3943  0.4147
  662MOL0     H89351  10.964  10.661   1.087  4.7352  1.0483  1.7459
  662MOL0     H89352  10.287  10.398   0.385  2.3998  0.1596 -0.7137
  662MOL0     H89353  10.094  10.295   0.521  0.2273  1.0312  0.3180
  662MOL0     H89354   9.928  10.017   0.760  2.4846  1.9763  0.4454
  662MOL0     H89355   9.723   9.925   0.841 -0.9673  0.0659  0.2796
  662MOL0     H89356   8.022   8.997   0.913 -1.1770 -2.3799 -0.6709
  662MOL0     H89357   7.800   8.954   1.003 -0.0493  0.7884 -1.3399
  662MOL0     H89358   7.466   8.886   1.231 -0.7344 -0.4447  0.1040
  662MOL0     H89359   7.219   8.886   1.288 -0.8060 -0.2363 -0.6920
  662MOL0     H89360   7.046   9.256   1.459 -1.4074 -0.3788 -0.1498
  662MOL0     H89361   6.974   9.226   1.299 -0.1405  3.1691  0.8111
  662MOL0     H89362   6.900   9.051   1.540 -0.1148  0.3623  0.6878
  662MOL0     H89363   6.826   9.073   1.394  1.8179 -0.7993  0.9477
  662MOL0     H89364   6.694   9.229   1.491  0.7795  0.2133 -1.9514
  662MOL0     H89365   6.826   9.343   1.500 -2.5629  0.6992 -2.4473
  662MOL0     H89366   6.743   9.322   1.724 -3.7722 -2.8630 -0.3156
  662MOL0     H89367   6.895   9.218   1.720  0.3844  1.2576  1.3237
  662MOL0     H89368   6.590   8.971   1.849 -0.1785  1.5923  0.1848
  662MOL0     H89369   7.226   9.304   1.376  0.9031 -0.4662  0.2117
  662MOL0     H89370   7.472   9.306   1.309 -2.3379  1.6810 -2.7402
  663MOL0     O89371   2.574   8.506   1.484  0.1849  0.1779 -0.7935
  663MOL0     C89372   2.507   8.586   1.427  0.1062 -0.4582  0.4136
  663MOL0     O89373   2.496   8.724   1.449 -0.2572  0.4733  0.0586
  663MOL0     C89374   2.592   8.776   1.540  0.5042 -0.8348  0.9180
  663MOL0     C89375   2.552   8.817   1.676 -0.7696  0.0919  0.0590
  663MOL0     C89376   2.642   8.889   1.758 -0.2096 -0.6786  0.2918
  663MOL0     C89377   2.772   8.916   1.713 -0.5348  0.1515 -0.8884
  663MOL0     O89378   2.864   8.983   1.784 -0.9590 -0.1267 -0.3175
  663MOL0     C89379   2.910   8.934   1.912  0.0651  0.3764 -0.2687
  663MOL0     C89380   2.974   9.048   1.990 -0.3226 -0.3470 -0.7072
  663MOL0     C89381   3.087   9.118   1.913  0.6249 -0.1267  0.0421
  663MOL0     C89382   3.148   9.227   2.011  0.6626 -0.0379  0.4835
  663MOL0     C89383   3.288   9.264   1.975  0.3712 -0.9681  0.9510
  663MOL0     C89384   3.289   9.309   1.818  0.0567  1.1498 -1.2275
  663MOL0     C89385   3.439   9.327   1.767  0.7911  0.8468  0.6477
  663MOL0     C89386   3.440   9.344   1.612 -0.1885  0.4006  0.1677
  663MOL0     N89387   3.568   9.375   1.553  0.4456  0.6937 -0.5643
  663MOL0     C89388   3.686   9.300   1.566  0.4760 -0.6130  0.6618
  663MOL0     C89389   3.765   9.350   1.465  0.0673 -0.0769  1.2817
  663MOL0     C89390   3.903   9.301   1.414 -0.3963 -0.1947 -0.4364
  663MOL0     C89391   3.983   9.430   1.376  0.1061 -0.2148 -0.4006
  663MOL0     C89392   4.117   9.394   1.316 -0.7269  0.1897 -0.9253
  663MOL0     C89393   4.212   9.510   1.299 -0.0123 -0.5502  0.0507
  663MOL0     O89394   4.243   9.575   1.427  0.8124  0.3843 -0.4292
  663MOL0     C89395   4.371   9.622   1.437  0.6229 -0.9083  0.5731
  663MOL0     C89396   4.417   9.630   1.571 -0.0717 -1.4617  0.3899
  663MOL0     C89397   4.534   9.697   1.594  0.0622  0.0417 -0.1964
  663MOL0     C89398   4.560   9.753   1.731  0.7584 -0.2924  0.5447
  663MOL0     C89399   4.618   9.728   1.489 -0.3272  0.6251 -0.8528
  663MOL0     C89400   4.739   9.810   1.518 -0.4078  0.5077  1.0269
  663MOL0     O89401   4.855   9.727   1.541 -0.2709  0.3011  0.1389
  663MOL0     C89402   4.944   9.789   1.637 -0.1045 -0.1055  0.4968
  663MOL0     C89403   4.926   9.757   1.774 -0.5209 -0.1830 -0.9369
  663MOL0     C89404   5.010   9.816   1.870 -0.4258 -0.1587  0.5913
  663MOL0     C89405   5.107   9.903   1.836 -1.0849 -0.9312 -1.0758
  663MOL0     O89406   5.198   9.968   1.928  0.0910  0.4123 -0.8002
  663MOL0     C89407   5.262   9.879   2.016 -0.1537  1.3931  0.2746
  663MOL0     C89408   5.391   9.952   2.073  1.0877 -0.0574  0.0393
  663MOL0     C89409   5.444   9.866   2.193 -0.1458 -0.4658 -0.0221
  663MOL0     C89410   5.599   9.876   2.201  0.0050  0.0022  0.3498
  663MOL0     C89411   5.650   9.791   2.318  0.3063 -0.2965  0.1486
  663MOL0     C89412   5.627   9.865   2.453  0.5327 -0.9439  0.2685
  663MOL0     C89413   5.623   9.758   2.574  0.6386 -0.3358  0.4670
  663MOL0     C89414   5.574   9.833   2.697  0.6057 -0.0231 -0.9468
  663MOL0    Cl89415   5.531   9.712   2.820 -0.3160 -0.1130 -0.6381
  663MOL0     C89416   5.121   9.943   1.706 -0.2224  0.2169  0.3639
  663MOL0     C89417   5.041   9.886   1.608 -0.5592  0.0286  0.7498
  663MOL0     O89418   4.743   9.934   1.499  0.3487 -0.3826 -0.4065
  663MOL0     C89419   4.578   9.695   1.360 -0.1032 -0.4832  0.0239
  663MOL0     C89420   4.455   9.653   1.333  0.1085  0.1517  0.0494
  663MOL0     N89421   3.692   9.453   1.399 -0.8424 -1.1088  0.5085
  663MOL0     N89422   3.580   9.463   1.460  0.7442 -0.4517  0.7064
  663MOL0     C89423   2.812   8.876   1.587  0.5642 -0.3018 -0.8481
  663MOL0     C89424   2.723   8.812   1.501 -0.0323 -0.4411  0.5163
  663MOL0     C89425   2.407   8.536   1.330 -0.2519 -0.0856  0.4736
  663MOL0     C89426   2.308   8.622   1.269  0.5222 -0.0876 -0.5722
  663MOL0     C89427   2.208   8.569   1.185  0.1784 -0.1248  0.0094
  663MOL0     C89428   2.204   8.427   1.173  0.2975 -0.4805  0.4410
  663MOL0     O89429   2.102   8.371   1.091 -0.4792 -0.5957 -0.7878
  663MOL0     C89430   2.072   8.228   1.096  0.9421 -0.6647  0.3492
  663MOL0     C89431   1.971   8.203   1.199 -0.0980 -0.9229  0.1387
  663MOL0     C89432   1.839   8.297   1.174 -0.5679 -0.7471  0.0060
  663MOL0     C89433   1.737   8.233   1.080 -0.6315 -0.2426  0.5701
  663MOL0     C89434   1.614   8.307   1.069 -0.0733 -0.2529 -0.3756
  663MOL0     C89435   1.509   8.365   1.067  0.3895 -1.1672 -0.3494
  663MOL0     C89436   2.293   8.344   1.228 -0.3220  0.4752 -0.4109
  663MOL0     C89437   2.389   8.395   1.309  0.0434 -0.6145 -0.2634
  663MOL0     H89438   2.448   8.797   1.701 -0.4523 -1.8340 -0.0429
  663MOL0     H89439   2.601   8.922   1.853 -2.9326  0.8011 -1.2943
  663MOL0     H89440   2.833   8.886   1.973  1.2475 -4.3971 -2.1072
  663MOL0     H89441   2.984   8.855   1.902  0.6945 -0.0483  4.9083
  663MOL0     H89442   2.895   9.118   2.018 -1.2998 -2.3499  1.9522
  663MOL0     H89443   3.008   9.000   2.083  1.5108 -1.4825 -1.9024
  663MOL0     H89444   3.162   9.045   1.881  2.3257  1.5460  0.0679
  663MOL0     H89445   3.050   9.173   1.826  1.6173 -1.1396 -1.0541
  663MOL0     H89446   3.075   9.308   2.007  0.8637  0.1091 -0.4188
  663MOL0     H89447   3.146   9.185   2.112  0.1251  0.1636  0.5601
  663MOL0     H89448   3.321   9.344   2.042  2.8432 -2.6736  1.9115
  663MOL0     H89449   3.355   9.178   1.980  0.5988 -0.9524 -1.1336
  663MOL0     H89450   3.243   9.231   1.757 -0.3881  0.9000 -0.5777
  663MOL0     H89451   3.212   9.384   1.794 -3.3070 -1.1985  1.2513
  663MOL0     H89452   3.503   9.405   1.809  3.0694 -1.1613  1.0979
  663MOL0     H89453   3.486   9.230   1.784 -0.8481 -0.2620 -0.7334
  663MOL0     H89454   3.362   9.412   1.579 -0.4822 -0.3942 -0.8150
  663MOL0     H89455   3.410   9.243   1.582 -0.3099  0.4009  0.2834
  663MOL0     H89456   3.698   9.212   1.629  1.1447 -0.2357  1.0674
  663MOL0     H89457   3.958   9.234   1.481 -2.1470 -0.4503  0.8130
  663MOL0     H89458   3.887   9.246   1.320  1.1635  0.7556 -1.3087
  663MOL0     H89459   3.994   9.486   1.469 -2.2660 -2.0707  1.1507
  663MOL0     H89460   3.938   9.488   1.295  0.1591 -0.7433 -0.8131
  663MOL0     H89461   4.100   9.350   1.217  0.1489 -2.5330  0.0432
  663MOL0     H89462   4.169   9.320   1.377  0.7202  1.0481 -1.0724
  663MOL0     H89463   4.160   9.580   1.232  0.9093  1.8625  1.7253
  663MOL0     H89464   4.304   9.470   1.258 -1.3534 -3.7251 -0.1099
  663MOL0     H89465   4.350   9.598   1.650  2.1910  1.7930  3.9478
  663MOL0     H89466   4.644   9.699   1.774 -0.6501 -1.3192  2.1387
  663MOL0     H89467   4.600   9.855   1.725  1.0448 -0.4575 -0.6166
  663MOL0     H89468   4.480   9.750   1.806  0.2416  1.3783  0.1006
  663MOL0     H89469   4.842   9.699   1.811 -2.4364  1.7209 -2.1363
  663MOL0     H89470   5.005   9.785   1.974 -0.1919 -0.5528  0.4887
  663MOL0     H89471   5.196   9.866   2.102  1.4341 -0.3835  1.3044
  663MOL0     H89472   5.291   9.787   1.965 -0.2024  2.0478 -0.9845
  663MOL0     H89473   5.465   9.961   1.994  0.7396 -1.9782 -0.5587
  663MOL0     H89474   5.361  10.052   2.105 -1.5468 -1.0132  0.8915
  663MOL0     H89475   5.415   9.762   2.179 -0.3415 -0.3594 -0.4361
  663MOL0     H89476   5.406   9.909   2.286  2.4551 -2.0276  1.8918
  663MOL0     H89477   5.636   9.839   2.106 -1.3452 -0.3926 -0.0452
  663MOL0     H89478   5.623   9.982   2.215 -0.0180 -0.2686  2.9660
  663MOL0     H89479   5.756   9.771   2.304  0.0308 -3.0554  1.2609
  663MOL0     H89480   5.608   9.692   2.340  2.5792 -1.7049 -1.4753
  663MOL0     H89481   5.711   9.933   2.470  0.0620 -0.5078  0.8538
  663MOL0     H89482   5.545   9.937   2.450  1.2734 -0.0771 -2.9143
  663MOL0     H89483   5.721   9.712   2.586  0.4026 -1.1252 -0.4826
  663MOL0     H89484   5.544   9.683   2.564  0.8356 -0.4985  0.1317
  663MOL0     H89485   5.483   9.890   2.676  0.6166  0.6166  0.6271
  663MOL0     H89486   5.637   9.909   2.743 -0.6956  2.3568 -2.8990
  663MOL0     H89487   5.186  10.028   1.685 -1.5876  0.6084 -3.0223
  663MOL0     H89488   5.045   9.926   1.507  1.5982 -1.3558  0.2174
  663MOL0     H89489   4.643   9.727   1.279  0.7428 -0.8929  0.5263
  663MOL0     H89490   4.425   9.653   1.229 -2.7716 -1.1153  0.7851
  663MOL0     H89491   2.911   8.888   1.544  0.9783 -1.3542 -0.2307
  663MOL0     H89492   2.757   8.805   1.398  0.8539 -1.3754  0.8575
  663MOL0     H89493   2.297   8.728   1.288  1.6228  0.0911 -0.8783
  663MOL0     H89494   2.134   8.628   1.133 -2.0959 -2.2884  0.5808
  663MOL0     H89495   2.053   8.190   0.996 -1.0433 -2.8113  1.4591
  663MOL0     H89496   2.159   8.164   1.117  1.5876 -0.1551 -0.7117
  663MOL0     H89497   2.008   8.252   1.290 -0.3280  0.5761 -0.5372
  663MOL0     H89498   1.953   8.098   1.222  2.8258 -1.7414 -0.9511
  663MOL0     H89499   1.873   8.399   1.151 -1.0878 -0.6552 -0.3839
  663MOL0     H89500   1.793   8.313   1.272 -0.4892  2.1728 -0.3383
  663MOL0     H89501   1.717   8.126   1.088  0.3904 -0.3357  2.3709
  663MOL0     H89502   1.787   8.233   0.983  2.3232 -0.3596  2.0041
  663MOL0     H89503   1.417   8.418   1.082 -0.6643 -2.7600 -0.9836
  663MOL0     H89504   2.289   8.236   1.227  0.9875  0.3957  0.4125
  663MOL0     H89505   2.463   8.326   1.349 -2.7981 -1.8508  3.4884
  664MOL0     O89506  10.978   5.834  11.427  0.2828 -0.7095 -0.5534
  664MOL0     C89507  10.886   5.869  11.498  0.8588  0.4565  0.2625
  664MOL0     O89508  10.898   5.912  11.628  0.0453  0.6147 -0.0114
  664MOL0     C89509  11.025   5.914  11.684 -0.1008  0.2639  0.1105
  664MOL0     C89510  11.085   5.794  11.731 -0.4611  0.4898  0.3456
  664MOL0     C89511  11.198   5.803  11.808  0.0877  0.0602 -0.5060
  664MOL0     C89512  11.268   5.931  11.828  0.1837  0.1396 -0.0001
  664MOL0     O89513  11.381   5.937  11.910  0.6238  0.3695 -0.0322
  664MOL0     C89514  11.476   6.046  11.898  0.2030 -0.2872  0.3684
  664MOL0     C89515  11.579   6.045  12.009 -0.4130  0.5802 -0.1372
  664MOL0     C89516  11.530   6.086  12.145 -0.3770  0.4248 -0.0396
  664MOL0     C89517  11.558   6.233  12.169  0.8148  0.1331 -1.1181
  664MOL0     C89518  11.515   6.273  12.316 -1.5146 -0.4973 -0.4243
  664MOL0     C89519  11.541   6.418  12.343  0.4400 -0.3574 -0.8538
  664MOL0     C89520  11.486   6.457  12.479 -0.4660 -0.1156 -0.1324
  664MOL0     C89521  11.530   6.601  12.529  0.0343 -0.0928  0.0278
  664MOL0     N89522  11.474   6.707  12.449 -0.5948 -0.0755  0.4028
  664MOL0     C89523  11.350   6.696  12.385  0.2067 -0.2914 -0.6069
  664MOL0     C89524  11.348   6.777  12.281 -0.0933  0.7692  0.6814
  664MOL0     C89525  11.216   6.812  12.222  0.5982  0.4750  0.2780
  664MOL0     C89526  11.144   6.675  12.174 -0.5149 -0.8492 -0.5613
  664MOL0     C89527  11.019   6.703  12.092  0.1699 -0.1297  0.3773
  664MOL0     C89528  10.959   6.595  12.014 -0.4792 -0.1553  1.2203
  664MOL0     O89529  10.963   6.635  11.876 -0.3826 -0.2766 -0.1608
  664MOL0     C89530  10.848   6.634  11.800  0.4940  0.2469 -1.0607
  664MOL0     C89531  10.841   6.693  11.673  0.3454  0.4340 -0.4471
  664MOL0     C89532  10.727   6.682  11.595 -0.5462  0.0751 -0.4790
  664MOL0     C89533  10.745   6.750  11.471 -0.2155 -0.3235  0.6793
  664MOL0     C89534  10.611   6.616  11.636  1.4224  0.2964  0.5880
  664MOL0     C89535  10.484   6.602  11.562 -0.4245  0.9071  0.5523
  664MOL0     O89536  10.446   6.715  11.497  0.3804 -0.3405  0.8137
  664MOL0     C89537  10.357   6.703  11.396  0.5365  0.9150 -1.3607
  664MOL0     C89538  10.406   6.703  11.269 -0.4693 -0.2404  0.3299
  664MOL0     C89539  10.324   6.712  11.153 -0.3101 -0.1745  0.9172
  664MOL0     C89540  10.186   6.710  11.166 -0.4165 -0.5334 -0.7765
  664MOL0     O89541  10.107   6.675  11.064 -0.0761 -0.2775  0.0155
  664MOL0     C89542  10.054   6.784  10.988 -0.4626  0.0592  0.1787
  664MOL0     C89543  10.022   6.723  10.847 -0.9264 -0.1815 -0.7329
  664MOL0     C89544   9.960   6.827  10.752  0.0157  0.1828 -0.5904
  664MOL0     C89545   9.842   6.901  10.794  0.7769  0.1226  0.5134
  664MOL0     C89546   9.778   6.984  10.678 -0.5208 -0.1259 -0.8122
  664MOL0     C89547   9.629   7.002  10.707 -0.5519  0.6504 -0.4281
  664MOL0     C89548   9.569   7.134  10.651  0.0664 -0.5473  0.0829
  664MOL0     C89549   9.418   7.153  10.674 -0.8614 -0.5528  0.1625
  664MOL0    Cl89550   9.401   7.164  10.859  0.6396  0.0781  0.4499
  664MOL0     C89551  10.130   6.712  11.300 -0.0321 -0.0876 -0.3928
  664MOL0     C89552  10.220   6.713  11.417 -0.1214 -0.3270 -0.3314
  664MOL0     O89553  10.431   6.489  11.548 -0.3194  0.2405  0.2602
  664MOL0     C89554  10.618   6.546  11.760 -0.3699  0.2100  0.0930
  664MOL0     C89555  10.738   6.551  11.835  0.2902 -0.1353 -0.1309
  664MOL0     N89556  11.480   6.819  12.264 -0.2952 -0.0105 -0.7072
  664MOL0     N89557  11.554   6.784  12.365  0.2496 -0.3767  0.8139
  664MOL0     C89558  11.207   6.035  11.779  0.2304  0.0943  0.3148
  664MOL0     C89559  11.085   6.031  11.711 -0.6016 -0.5273 -0.5826
  664MOL0     C89560  10.751   5.854  11.430 -1.0543 -1.0891 -0.0148
  664MOL0     C89561  10.654   5.954  11.449 -0.2511 -0.4131  0.2649
  664MOL0     C89562  10.528   5.937  11.377 -0.0185 -0.4994 -0.2598
  664MOL0     C89563  10.512   5.838  11.283  0.2291 -0.3852  0.1816
  664MOL0     O89564  10.398   5.822  11.205  0.1711 -0.1406 -0.3185
  664MOL0     C89565  10.332   5.948  11.179  0.5780 -0.0739  0.6634
  664MOL0     C89566  10.212   5.930  11.083  0.1308  0.1920 -0.7194
  664MOL0     C89567  10.167   6.067  11.022  0.8589 -0.2180  1.0769
  664MOL0     C89568  10.061   6.068  10.908 -1.0331  0.0473 -0.8196
  664MOL0     C89569  10.094   5.969  10.812  0.1493 -0.5570  0.2764
  664MOL0     C89570  10.128   5.888  10.725  0.3034  0.0326 -1.6733
  664MOL0     C89571  10.610   5.745  11.268 -0.0082  0.6529  0.5561
  664MOL0     C89572  10.727   5.746  11.343 -0.4044 -0.8772  0.5070
  664MOL0     H89573  11.040   5.696  11.714  0.6134  0.0066  0.1942
  664MOL0     H89574  11.247   5.712  11.841  2.6228  1.2883 -0.6170
  664MOL0     H89575  11.536   6.044  11.806  1.5496  1.7037  1.1584
  664MOL0     H89576  11.410   6.133  11.899  1.1137  0.4346  2.8760
  664MOL0     H89577  11.615   5.942  12.025  1.3200  1.4160  1.7090
  664MOL0     H89578  11.663   6.099  11.964  0.9218  0.6083  2.1928
  664MOL0     H89579  11.422   6.071  12.151 -0.3260  0.0791  0.0352
  664MOL0     H89580  11.586   6.035  12.224  1.2183  3.2211  0.7784
  664MOL0     H89581  11.663   6.250  12.144  1.4175 -2.3200 -0.5391
  664MOL0     H89582  11.494   6.282  12.094 -0.3009  0.8608  0.2513
  664MOL0     H89583  11.409   6.249  12.331 -1.8092  0.3948 -0.9842
  664MOL0     H89584  11.573   6.205  12.379 -3.5579  0.8263  3.1742
  664MOL0     H89585  11.648   6.438  12.338  1.4785 -4.4804  0.8967
  664MOL0     H89586  11.492   6.488  12.273 -3.8516 -1.2564  0.9182
  664MOL0     H89587  11.380   6.431  12.479  0.2463 -3.5061 -0.6914
  664MOL0     H89588  11.533   6.388  12.550  0.7894 -2.7186 -3.2304
  664MOL0     H89589  11.639   6.604  12.535  0.2219 -1.5497 -1.8031
  664MOL0     H89590  11.494   6.618  12.631  0.5374  1.6787 -0.0606
  664MOL0     H89591  11.264   6.642  12.424 -0.0944 -1.6613 -2.9721
  664MOL0     H89592  11.151   6.873  12.286 -1.9983 -2.2287  0.4787
  664MOL0     H89593  11.234   6.880  12.138  1.0067 -0.7216 -0.6331
  664MOL0     H89594  11.113   6.624  12.266  1.6435 -2.6029 -0.7354
  664MOL0     H89595  11.210   6.607  12.121  0.6156  1.6220 -2.5346
  664MOL0     H89596  11.051   6.787  12.030  0.2659  1.6138  2.6263
  664MOL0     H89597  10.944   6.756  12.151  0.1435 -0.5897  0.7665
  664MOL0     H89598  10.859   6.577  12.054 -0.6275 -0.7429  0.6125
  664MOL0     H89599  11.028   6.511  12.025 -0.8608 -0.5461  0.6969
  664MOL0     H89600  10.934   6.741  11.643  1.4464 -1.9160 -1.0876
  664MOL0     H89601  10.692   6.693  11.394 -0.5462  1.0721 -0.1486
  664MOL0     H89602  10.712   6.854  11.476  4.1972  1.3153  0.5936
  664MOL0     H89603  10.846   6.756  11.429 -0.6105  3.5654  0.0009
  664MOL0     H89604  10.514   6.693  11.273 -0.3604  1.2468  2.8058
  664MOL0     H89605  10.368   6.693  11.056  1.1134 -2.0170  1.8702
  664MOL0     H89606   9.957   6.806  11.032 -0.3522  0.5151  0.1983
  664MOL0     H89607  10.120   6.871  10.980 -0.1744 -0.0117  1.5807
  664MOL0     H89608  10.118   6.686  10.811 -0.0707  3.4329 -2.6822
  664MOL0     H89609   9.951   6.644  10.874  0.3627 -1.2824 -0.4919
  664MOL0     H89610   9.940   6.784  10.653 -1.4465  1.6009 -0.9554
  664MOL0     H89611  10.034   6.901  10.719  0.4452  0.9332  1.8315
  664MOL0     H89612   9.772   6.824  10.828  0.0665  1.1333  1.3962
  664MOL0     H89613   9.867   6.959  10.883 -0.0878 -0.6742  1.3023
  664MOL0     H89614   9.787   6.946  10.576  0.4656 -0.9835 -0.4244
  664MOL0     H89615   9.835   7.078  10.682  1.0707 -1.0748  1.7336
  664MOL0     H89616   9.575   6.921  10.657  2.7508 -2.1145  0.0813
  664MOL0     H89617   9.610   6.996  10.814 -0.4207  2.1281 -0.3066
  664MOL0     H89618   9.587   7.142  10.543 -0.9991 -2.0599 -0.2371
  664MOL0     H89619   9.623   7.218  10.695  2.6709 -1.6215 -0.8115
  664MOL0     H89620   9.350   7.076  10.635 -2.2530  1.7344 -2.2399
  664MOL0     H89621   9.387   7.243  10.621 -0.1752  0.0713  0.8032
  664MOL0     H89622  10.022   6.707  11.293 -0.2124  1.4615  0.6576
  664MOL0     H89623  10.189   6.707  11.521 -2.1434  0.2911 -0.8555
  664MOL0     H89624  10.536   6.487  11.800  0.8521  0.0385  2.4647
  664MOL0     H89625  10.738   6.496  11.928  1.6357  1.7630  1.0687
  664MOL0     H89626  11.260   6.129  11.786  0.1366  0.0875  1.1899
  664MOL0     H89627  11.046   6.129  11.684 -1.8648 -1.2729 -1.5966
  664MOL0     H89628  10.652   6.039  11.517 -1.5386 -0.4212  0.2626
  664MOL0     H89629  10.465   6.022  11.402  0.8342  0.3329 -0.8673
  664MOL0     H89630  10.288   5.994  11.269 -0.8141  0.7401 -0.3900
  664MOL0     H89631  10.408   6.014  11.136  0.5999  0.0732  0.9217
  664MOL0     H89632  10.135   5.875  11.139  0.3424  0.1678 -0.4526
  664MOL0     H89633  10.240   5.854  11.010 -2.6411 -3.6103  1.7494
  664MOL0     H89634  10.256   6.112  10.977 -0.1193  0.6351 -0.0465
  664MOL0     H89635  10.156   6.141  11.101  0.9030  2.1786 -1.0376
  664MOL0     H89636  10.076   6.163  10.855 -0.8445 -1.4136 -3.5674
  664MOL0     H89637   9.954   6.062  10.930 -1.0079 -0.4857 -0.8478
  664MOL0     H89638  10.173   5.823  10.651  2.3522  0.2732 -0.7089
  664MOL0     H89639  10.588   5.663  11.200  2.6999 -0.7257  1.2162
  664MOL0     H89640  10.797   5.663  11.341  2.4390  1.3610  0.4833
  665MOL0     O89641   7.037  10.086   0.081 -0.6751 -0.0080  0.5527
  665MOL0     C89642   7.118  10.103   0.175  0.8788 -0.3751 -0.1659
  665MOL0     O89643   7.100  10.201   0.279 -0.6421 -0.8618  0.1249
  665MOL0     C89644   6.975  10.258   0.276  0.6105  0.7730 -1.0032
  665MOL0     C89645   6.963  10.394   0.274  0.0919 -0.6606 -0.2881
  665MOL0     C89646   6.846  10.458   0.289 -0.6433 -0.6465  0.1562
  665MOL0     C89647   6.722  10.391   0.303  0.0336  0.6966 -0.8046
  665MOL0     O89648   6.603  10.449   0.324 -0.3685 -0.9335 -0.2403
  665MOL0     C89649   6.600  10.590   0.358  0.0160 -0.7292 -0.0270
  665MOL0     C89650   6.464  10.634   0.415  0.3742 -0.1897  0.2125
  665MOL0     C89651   6.479  10.775   0.467 -0.6194  0.2220 -0.2740
  665MOL0     C89652   6.357  10.823   0.554  0.2925  0.4205  0.7160
  665MOL0     C89653   6.343  10.737   0.681 -0.8550 -0.1283 -0.1003
  665MOL0     C89654   6.221  10.768   0.767 -0.6053 -0.6213  0.7724
  665MOL0     C89655   6.197  10.691   0.897 -0.3171 -0.2954  0.2761
  665MOL0     C89656   6.101  10.768   0.996  0.2369 -0.3945 -0.2376
  665MOL0     N89657   5.965  10.756   0.925 -0.6371  0.3756  0.7802
  665MOL0     C89658   5.860  10.689   0.983 -0.2949  0.7363 -0.1575
  665MOL0     C89659   5.751  10.720   0.902 -0.0951  0.9570 -0.2629
  665MOL0     C89660   5.609  10.676   0.908  0.4139 -0.3926 -0.1676
  665MOL0     C89661   5.580  10.544   0.845 -0.3240 -0.3662 -0.1910
  665MOL0     C89662   5.595  10.546   0.693 -0.0861 -0.6416 -0.3105
  665MOL0     C89663   5.523  10.420   0.640  0.4191  0.5975 -0.0830
  665MOL0     O89664   5.607  10.299   0.626  0.3762  0.0715 -0.7703
  665MOL0     C89665   5.651  10.265   0.501 -0.0416 -0.7792 -0.0165
  665MOL0     C89666   5.675  10.354   0.397 -0.7052  0.1927 -0.7371
  665MOL0     C89667   5.725  10.305   0.278 -0.1660  0.0046 -0.4241
  665MOL0     C89668   5.755  10.412   0.182  0.0060 -0.5432  0.1140
  665MOL0     C89669   5.749  10.166   0.256 -0.3569  1.0512  0.5054
  665MOL0     C89670   5.811  10.099   0.137  0.5008  0.6067  1.1326
  665MOL0     O89671   5.845   9.969   0.155 -0.1084 -0.3557 -0.3940
  665MOL0     C89672   5.885   9.899   0.044  0.0096 -0.0300  0.6951
  665MOL0     C89673   5.786   9.851  -0.049 -0.3346 -0.2999 -0.5277
  665MOL0     C89674   5.823   9.792  -0.162 -0.3833  0.0411 -0.3565
  665MOL0     C89675   5.954   9.760  -0.188 -0.3228 -0.3230  0.1792
  665MOL0     O89676   5.978   9.690  -0.304  0.5042 -0.2083  0.5986
  665MOL0     C89677   6.094   9.609  -0.311 -0.2610  0.3517 -0.3230
  665MOL0     C89678   6.080   9.531  -0.440  0.1016  0.3308 -0.5168
  665MOL0     C89679   6.195   9.428  -0.458 -0.8306  0.3177  0.2170
  665MOL0     C89680   6.171   9.338  -0.592  0.2729  0.3440 -0.0705
  665MOL0     C89681   6.294   9.260  -0.625 -0.1632  0.1526  0.1752
  665MOL0     C89682   6.289   9.179  -0.758 -0.7315  0.2214 -0.5708
  665MOL0     C89683   6.235   9.035  -0.713 -0.1998 -0.1685 -0.4499
  665MOL0     C89684   6.096   8.997  -0.772 -0.3080  0.1892 -1.8342
  665MOL0    Cl89685   6.063   8.824  -0.711 -0.0128  0.4242 -0.1943
  665MOL0     C89686   6.061   9.812  -0.102  0.1553  0.4188  0.3050
  665MOL0     C89687   6.023   9.873   0.021  0.8522  1.0774  0.0919
  665MOL0     O89688   5.803  10.152   0.023  0.0969 -0.3734  0.5913
  665MOL0     C89689   5.730  10.078   0.370 -1.1176  0.5774  0.1682
  665MOL0     C89690   5.681  10.133   0.487  0.1815  0.7699 -0.3288
  665MOL0     N89691   5.799  10.810   0.807  0.1720  0.1134  0.5855
  665MOL0     N89692   5.927  10.841   0.822  0.4565  0.6568  0.1873
  665MOL0     C89693   6.727  10.248   0.285  0.2137 -0.3341  0.0317
  665MOL0     C89694   6.855  10.180   0.278 -0.1463 -0.8161  0.2385
  665MOL0     C89695   7.243  10.026   0.177 -0.4173 -0.0336  0.3756
  665MOL0     C89696   7.265   9.896   0.105 -0.8220 -0.1340  0.1945
  665MOL0     C89697   7.400   9.838   0.093  0.7210 -0.0451  0.3703
  665MOL0     C89698   7.507   9.897   0.161 -0.4184  0.2817  0.2671
  665MOL0     O89699   7.628   9.839   0.159 -0.4900  0.2427 -0.7024
  665MOL0     C89700   7.738   9.918   0.120 -0.0241  0.7255  0.0343
  665MOL0     C89701   7.871   9.842   0.135 -0.3105  0.4463  0.1857
  665MOL0     C89702   7.984   9.904   0.036 -0.0641  0.1916 -0.3250
  665MOL0     C89703   8.116   9.825   0.029  0.8775 -0.2231  0.0045
  665MOL0     C89704   8.133   9.733  -0.090 -0.1231 -0.4926  0.4164
  665MOL0     C89705   8.157   9.670  -0.194 -0.8829  0.1349  0.7625
  665MOL0     C89706   7.480  10.014   0.239  0.3350  0.8824  0.3170
  665MOL0     C89707   7.357  10.076   0.246  0.2838 -0.2707  1.0533
  665MOL0     H89708   7.053  10.454   0.263 -2.1409  3.0746  0.1493
  665MOL0     H89709   6.850  10.566   0.299  0.4365 -0.7885  1.7293
  665MOL0     H89710   6.673  10.601   0.439  1.7144 -2.0621 -1.2944
  665MOL0     H89711   6.636  10.652   0.275  2.7792  0.0706  1.6320
  665MOL0     H89712   6.390  10.632   0.335  1.4584 -1.4330 -0.8067
  665MOL0     H89713   6.439  10.560   0.492  2.6957 -1.9683 -0.6187
  665MOL0     H89714   6.568  10.785   0.531 -0.1282 -1.2218 -0.7050
  665MOL0     H89715   6.488  10.850   0.388 -0.3925  0.4423 -0.0446
  665MOL0     H89716   6.365  10.931   0.567 -1.0896  0.8317 -1.3691
  665MOL0     H89717   6.261  10.802   0.506 -0.1472  1.3444  1.1861
  665MOL0     H89718   6.336  10.630   0.657  0.1093  0.3775 -2.9392
  665MOL0     H89719   6.438  10.743   0.734 -2.0176 -3.7923  2.9528
  665MOL0     H89720   6.210  10.877   0.775  0.7311 -0.3960 -0.1276
  665MOL0     H89721   6.141  10.734   0.701 -0.2062  2.8888 -1.8023
  665MOL0     H89722   6.168  10.589   0.874  0.5655 -1.6745  4.4238
  665MOL0     H89723   6.293  10.671   0.947 -0.4362  1.0169  1.0937
  665MOL0     H89724   6.140  10.869   1.014 -0.4728 -0.5668  2.8197
  665MOL0     H89725   6.096  10.717   1.093  3.4749  3.4809  2.3560
  665MOL0     H89726   5.869  10.647   1.083 -1.5220 -0.2543 -0.4462
  665MOL0     H89727   5.576  10.674   1.012  0.8631 -1.3129 -0.0319
  665MOL0     H89728   5.548  10.754   0.863  2.5594  1.9305  0.7608
  665MOL0     H89729   5.479  10.522   0.883  0.5670 -1.3766  1.7584
  665MOL0     H89730   5.648  10.466   0.880 -0.2035  0.4922  1.5977
  665MOL0     H89731   5.700  10.549   0.664 -0.1815  1.0138 -0.5656
  665MOL0     H89732   5.544  10.635   0.657 -0.6297 -1.4584 -1.6363
  665MOL0     H89733   5.477  10.437   0.542 -0.9787 -1.3142  0.1747
  665MOL0     H89734   5.442  10.387   0.705  0.4454 -1.8044 -1.1619
  665MOL0     H89735   5.665  10.462   0.408 -0.0474  0.0232  2.3698
  665MOL0     H89736   5.690  10.421   0.094  0.1873 -0.2531  0.0040
  665MOL0     H89737   5.756  10.516   0.216  0.0132  0.3892 -2.4801
  665MOL0     H89738   5.850  10.396   0.129 -0.2347  0.8358 -0.7922
  665MOL0     H89739   5.683   9.883  -0.033  0.0394 -0.7660  4.8655
  665MOL0     H89740   5.753   9.749  -0.233 -0.6441  0.5299 -0.3947
  665MOL0     H89741   6.187   9.668  -0.309 -1.4417  2.3647 -1.3673
  665MOL0     H89742   6.108   9.535  -0.232 -1.4657 -0.0634 -0.4756
  665MOL0     H89743   5.983   9.482  -0.443 -0.7919  1.9403  0.7609
  665MOL0     H89744   6.078   9.598  -0.527 -1.3303 -1.8050 -2.2600
  665MOL0     H89745   6.207   9.359  -0.373  6.1078 -0.0577 -0.5124
  665MOL0     H89746   6.294   9.474  -0.453 -0.7473  0.0104  2.3255
  665MOL0     H89747   6.080   9.279  -0.577  1.2476 -0.8477  1.4999
  665MOL0     H89748   6.158   9.408  -0.675 -0.8940  1.2416  0.8240
  665MOL0     H89749   6.318   9.192  -0.543  2.5753 -1.8369 -2.0589
  665MOL0     H89750   6.373   9.335  -0.635  0.1974 -0.2620 -0.1166
  665MOL0     H89751   6.230   9.230  -0.835 -1.6327 -0.2555 -0.2213
  665MOL0     H89752   6.395   9.172  -0.782  0.5455  0.8474  3.9737
  665MOL0     H89753   6.242   9.018  -0.606 -0.4799 -0.8697 -0.5405
  665MOL0     H89754   6.305   8.965  -0.759 -0.2419  0.1074 -0.9399
  665MOL0     H89755   6.099   8.996  -0.881  2.3278  0.8890 -1.8286
  665MOL0     H89756   6.020   9.067  -0.736 -0.0056 -0.7617  0.9202
  665MOL0     H89757   6.168   9.793  -0.113 -0.1735 -2.0786  0.8151
  665MOL0     H89758   6.096   9.888   0.099  0.6269 -3.6126  1.4913
  665MOL0     H89759   5.759   9.974   0.375  2.0901  1.2160 -2.0454
  665MOL0     H89760   5.662  10.067   0.571 -0.0520  3.2181  1.6844
  665MOL0     H89761   6.635  10.190   0.286 -0.6546  0.9642  2.2719
  665MOL0     H89762   6.860  10.072   0.270 -0.1314 -0.6908 -2.1459
  665MOL0     H89763   7.187   9.838   0.058 -0.4659 -0.2475 -0.2674
  665MOL0     H89764   7.416   9.743   0.043 -0.8192 -0.3014  0.2986
  665MOL0     H89765   7.733   9.926   0.011 -0.0405  2.1881  0.1214
  665MOL0     H89766   7.743  10.009   0.180 -1.3010  0.1259  1.1029
  665MOL0     H89767   7.860   9.739   0.099  0.9475 -0.9760  3.5256
  665MOL0     H89768   7.916   9.846   0.234  3.4388 -0.4226 -1.2851
  665MOL0     H89769   8.016   9.990   0.096  0.9383  0.4687 -1.2236
  665MOL0     H89770   7.951   9.931  -0.065  0.1926  0.1200 -0.4282
  665MOL0     H89771   8.146   9.777   0.122 -1.0867  0.1120  0.8502
  665MOL0     H89772   8.190   9.905   0.012  2.4476 -1.5543  0.3469
  665MOL0     H89773   8.186   9.605  -0.274  1.8599  1.9642  0.1241
  665MOL0     H89774   7.553  10.060   0.305 -1.2406 -0.4789  3.1687
  665MOL0     H89775   7.359  10.168   0.303  3.3168 -0.1197  0.8653
  666MOL0     O89776   9.605   0.309   0.568  0.1149  0.1862  0.1828
  666MOL0     C89777   9.697   0.381   0.586 -0.5447  0.5148  0.0185
  666MOL0     O89778   9.699   0.512   0.628  0.6371 -0.1503  0.0798
  666MOL0     C89779   9.587   0.589   0.667 -0.1923  0.3197 -0.0345
  666MOL0     C89780   9.604   0.727   0.673 -0.0577  0.7773 -0.3485
  666MOL0     C89781   9.505   0.817   0.687  0.9386 -0.4507  0.5344
  666MOL0     C89782   9.368   0.773   0.692 -0.0001 -0.1800  0.0465
  666MOL0     O89783   9.262   0.868   0.712 -0.1230 -0.0041 -0.6793
  666MOL0     C89784   9.258   0.920   0.844 -0.6301  0.4029  0.0261
  666MOL0     C89785   9.115   0.906   0.893 -0.8762  0.0331 -0.1665
  666MOL0     C89786   9.047   0.769   0.889  0.1652 -0.4040 -0.1187
  666MOL0     C89787   9.132   0.671   0.961  0.5783  1.2010  0.2650
  666MOL0     C89788   9.072   0.530   0.950 -0.4304  0.0470 -1.2373
  666MOL0     C89789   8.952   0.514   1.034  0.2058 -0.1207 -0.8002
  666MOL0     C89790   8.942   0.359   1.055  0.8584 -0.1212 -0.3151
  666MOL0     C89791   8.811   0.330   1.124  0.3651  0.1311 -0.6952
  666MOL0     N89792   8.805   0.364   1.263 -0.5524  0.1218  0.1271
  666MOL0     C89793   8.878   0.322   1.372 -0.1133  1.1583  0.6174
  666MOL0     C89794   8.824   0.392   1.476 -0.1196 -0.5935  0.4409
  666MOL0     C89795   8.867   0.370   1.625  1.1542 -0.1651  0.1265
  666MOL0     C89796   8.912   0.223   1.656  0.3393  0.0027  0.0701
  666MOL0     C89797   8.784   0.127   1.648 -0.5664 -0.1664  0.1778
  666MOL0     C89798   8.801  -0.006   1.719 -0.3243  0.1021  0.0834
  666MOL0     O89799   8.820   0.013   1.857 -0.2956 -1.5336  0.0314
  666MOL0     C89800   8.735  -0.048   1.943  0.0405 -0.4102  0.1907
  666MOL0     C89801   8.779  -0.139   2.028 -0.4411  1.0075 -0.3740
  666MOL0     C89802   8.699  -0.207   2.116 -0.1279  0.2755  0.3686
  666MOL0     C89803   8.764  -0.317   2.203  0.3825  0.4344 -0.0388
  666MOL0     C89804   8.566  -0.177   2.120 -0.3474  0.5730  0.9836
  666MOL0     C89805   8.467  -0.235   2.213 -0.1082  0.9781  0.6509
  666MOL0     O89806   8.331  -0.200   2.185 -0.2938 -0.5340  0.0954
  666MOL0     C89807   8.232  -0.230   2.272  0.5447  0.0941  0.4786
  666MOL0     C89808   8.236  -0.191   2.411  1.2376  0.8361 -0.3545
  666MOL0     C89809   8.127  -0.203   2.500  0.1671  0.7598 -0.0185
  666MOL0     C89810   8.010  -0.240   2.443 -0.2946  0.3553 -0.1944
  666MOL0     O89811   7.908  -0.239   2.534  0.3626  0.3359  0.3902
  666MOL0     C89812   7.772  -0.240   2.485  0.0416 -0.4954  0.5041
  666MOL0     C89813   7.731  -0.389   2.468 -0.0301  0.0485 -0.0667
  666MOL0     C89814   7.773  -0.463   2.595  0.1250  0.2303 -0.1693
  666MOL0     C89815   7.692  -0.589   2.633 -0.3148  0.2872 -0.5705
  666MOL0     C89816   7.748  -0.714   2.576 -0.0340  1.0666 -0.5056
  666MOL0     C89817   7.674  -0.835   2.633 -0.8712  0.0500 -0.6199
  666MOL0     C89818   7.722  -0.972   2.590 -0.1770 -0.0332 -0.0116
  666MOL0     C89819   7.632  -1.079   2.658 -0.5669 -0.0489  1.1923
  666MOL0    Cl89820   7.688  -1.109   2.826  0.2992 -0.2734  0.3417
  666MOL0     C89821   8.002  -0.257   2.296  0.9313  1.1853 -0.5007
  666MOL0     C89822   8.112  -0.257   2.214  0.1521  1.3639  1.0154
  666MOL0     O89823   8.503  -0.319   2.287 -0.1803  0.3775 -0.1028
  666MOL0     C89824   8.527  -0.072   2.038 -0.2073  0.2770 -0.0342
  666MOL0     C89825   8.604  -0.002   1.949 -0.0015  0.3833 -0.3945
  666MOL0     N89826   8.745   0.491   1.441  0.0184  0.5318  1.0837
  666MOL0     N89827   8.730   0.470   1.303 -0.7687  0.2719  0.1863
  666MOL0     C89828   9.344   0.633   0.668 -0.1372 -0.2042  0.5428
  666MOL0     C89829   9.450   0.545   0.653 -1.2312  0.2353  0.2430
  666MOL0     C89830   9.824   0.320   0.549  0.7505 -0.0676 -0.7491
  666MOL0     C89831   9.846   0.177   0.554  0.3254  0.8749 -0.3548
  666MOL0     C89832   9.972   0.131   0.526 -0.7357  0.2682 -0.7177
  666MOL0     C89833  10.074   0.212   0.487 -0.7502 -0.2100  0.9505
  666MOL0     O89834  10.205   0.159   0.484 -0.3580  0.3412 -0.1983
  666MOL0     C89835  10.325   0.224   0.423  0.3921  0.0357 -0.2716
  666MOL0     C89836  10.412   0.122   0.366 -0.1489  0.3774 -0.6072
  666MOL0     C89837  10.326   0.021   0.266  0.2542  0.9409 -0.6866
  666MOL0     C89838  10.435  -0.068   0.201  1.1548 -0.3133 -0.6882
  666MOL0     C89839  10.382  -0.159   0.102  0.5188  0.7286  0.0101
  666MOL0     C89840  10.361  -0.241   0.015 -0.3973  0.1329  0.4245
  666MOL0     C89841  10.053   0.352   0.475  0.4182 -0.1544 -0.1588
  666MOL0     C89842   9.932   0.404   0.507  1.0439 -0.1409  0.3552
  666MOL0     H89843   9.706   0.763   0.675  0.3655 -0.2737 -1.3876
  666MOL0     H89844   9.531   0.922   0.698 -3.1566  0.8754 -0.4762
  666MOL0     H89845   9.317   0.860   0.914 -1.3280 -1.3691 -0.8532
  666MOL0     H89846   9.287   1.024   0.858 -0.0212  0.4042 -1.1171
  666MOL0     H89847   9.118   0.925   1.001 -3.4105 -2.3825  0.4494
  666MOL0     H89848   9.057   0.989   0.850  1.9313  1.1441 -2.1571
  666MOL0     H89849   8.947   0.777   0.931  1.3594 -0.8640  3.0513
  666MOL0     H89850   9.041   0.741   0.783 -0.7448  2.3231 -0.8690
  666MOL0     H89851   9.232   0.666   0.917  0.7265 -3.2948  0.7028
  666MOL0     H89852   9.144   0.695   1.068  2.0805  0.8659  0.2012
  666MOL0     H89853   9.034   0.513   0.849 -1.7702 -0.6051 -0.6488
  666MOL0     H89854   9.156   0.465   0.977 -0.3296 -0.1889 -2.0981
  666MOL0     H89855   8.956   0.567   1.129  2.9282 -0.2863 -0.7271
  666MOL0     H89856   8.866   0.551   0.978 -1.1470  0.5584  1.5870
  666MOL0     H89857   8.948   0.299   0.964 -1.3985 -2.6339  1.0561
  666MOL0     H89858   9.025   0.319   1.115  0.9265  0.5400  0.0454
  666MOL0     H89859   8.805   0.221   1.121  3.3276 -0.2297  1.7211
  666MOL0     H89860   8.729   0.381   1.072 -1.5572 -0.8247  1.2382
  666MOL0     H89861   8.964   0.257   1.386  0.7818  2.0819 -0.3644
  666MOL0     H89862   8.956   0.432   1.637 -0.3394  1.9875  0.8428
  666MOL0     H89863   8.789   0.402   1.695  1.1130 -1.6624  0.7879
  666MOL0     H89864   8.947   0.225   1.759 -4.0240 -0.3007  1.7714
  666MOL0     H89865   8.998   0.191   1.597  1.0358  0.8084  0.6269
  666MOL0     H89866   8.768   0.099   1.543 -0.4814  0.3237  0.0282
  666MOL0     H89867   8.688   0.178   1.667 -0.4282 -0.2381  1.0883
  666MOL0     H89868   8.890  -0.059   1.684 -0.4761  0.1480 -0.3724
  666MOL0     H89869   8.711  -0.066   1.703 -0.2640  0.6102 -2.5315
  666MOL0     H89870   8.886  -0.147   2.039 -0.3041  1.0385 -1.5211
  666MOL0     H89871   8.872  -0.318   2.185  0.4839 -3.3759 -0.0499
  666MOL0     H89872   8.750  -0.302   2.310 -1.7471 -1.2680 -0.0012
  666MOL0     H89873   8.733  -0.420   2.183  2.0102 -0.3589  1.2268
  666MOL0     H89874   8.336  -0.165   2.444  1.6614 -0.3846 -0.6280
  666MOL0     H89875   8.133  -0.172   2.604  0.6902  3.8358 -0.8493
  666MOL0     H89876   7.705  -0.201   2.562 -1.8272  2.0290 -2.1561
  666MOL0     H89877   7.754  -0.175   2.398 -3.5384 -0.1791  1.3251
  666MOL0     H89878   7.624  -0.401   2.452 -0.2280  0.0509  1.1656
  666MOL0     H89879   7.779  -0.440   2.383  1.8095  0.7623  0.4924
  666MOL0     H89880   7.760  -0.399   2.683 -0.1331  0.4635 -0.3741
  666MOL0     H89881   7.880  -0.484   2.585 -0.1199  0.1849 -4.5643
  666MOL0     H89882   7.679  -0.601   2.741 -2.1606 -2.6291 -1.0197
  666MOL0     H89883   7.597  -0.586   2.579  0.6388 -0.8803 -2.4258
  666MOL0     H89884   7.854  -0.733   2.594  0.1481 -1.3377 -3.4003
  666MOL0     H89885   7.736  -0.709   2.468 -0.4970  0.4425 -0.4871
  666MOL0     H89886   7.695  -0.838   2.740  0.5112 -0.1500 -0.8770
  666MOL0     H89887   7.568  -0.827   2.608 -1.2408 -0.3478  0.7483
  666MOL0     H89888   7.826  -0.990   2.619  0.0293  0.5670 -0.3708
  666MOL0     H89889   7.716  -0.969   2.481  3.2726 -1.0412 -0.3215
  666MOL0     H89890   7.637  -1.173   2.602  2.7359  0.2842  0.7220
  666MOL0     H89891   7.529  -1.043   2.655 -0.3057  0.9356 -2.8451
  666MOL0     H89892   7.901  -0.284   2.266 -0.0267  0.4272  2.9471
  666MOL0     H89893   8.113  -0.273   2.107 -2.9770  2.9094  0.6543
  666MOL0     H89894   8.424  -0.041   2.050  1.1784  4.3131  4.9841
  666MOL0     H89895   8.568   0.068   1.874 -0.6478  1.2664  0.6994
  666MOL0     H89896   9.244   0.593   0.663  0.9765 -3.3645  1.2178
  666MOL0     H89897   9.420   0.446   0.619  0.3404 -0.2099  0.0678
  666MOL0     H89898   9.768   0.109   0.587  0.8492  0.9370  1.0713
  666MOL0     H89899  10.002   0.028   0.539 -0.0282  0.8278  3.1866
  666MOL0     H89900  10.283   0.296   0.353 -3.7020 -0.9531  0.9148
  666MOL0     H89901  10.376   0.286   0.497 -0.3757 -0.0057  0.3011
  666MOL0     H89902  10.444   0.061   0.451  0.3605  2.6597  0.9227
  666MOL0     H89903  10.502   0.165   0.322 -1.3787  2.2801 -1.4019
  666MOL0     H89904  10.273   0.078   0.190  1.0720  2.1635 -0.3626
  666MOL0     H89905  10.254  -0.034   0.328  0.2678 -0.2652 -1.7067
  666MOL0     H89906  10.478  -0.128   0.283 -0.7277 -1.5993 -0.5814
  666MOL0     H89907  10.520  -0.012   0.162  1.1705 -1.0204 -1.7225
  666MOL0     H89908  10.343  -0.300  -0.073 -1.1573  0.0481  0.6317
  666MOL0     H89909  10.136   0.421   0.469 -1.5430  2.3961  0.5060
  666MOL0     H89910   9.923   0.512   0.504 -2.1911 -0.2066  2.5401
  667MOL0     O89911   9.622  10.224   1.859  0.5962 -0.3545  0.0600
  667MOL0     C89912   9.708  10.236   1.773 -0.4523  0.1938 -0.9079
  667MOL0     O89913   9.688  10.213   1.645  0.4649 -0.0384  1.0011
  667MOL0     C89914   9.559  10.208   1.603 -0.0677  1.1600 -0.3548
  667MOL0     C89915   9.500  10.084   1.590  0.0738 -0.1860  0.9428
  667MOL0     C89916   9.358  10.081   1.582 -0.4417  0.0072  0.1213
  667MOL0     C89917   9.284  10.200   1.558  0.6355  0.6458  1.2012
  667MOL0     O89918   9.155  10.164   1.540 -0.6479 -0.3881 -0.2313
  667MOL0     C89919   9.063  10.273   1.574  0.4538 -0.0861  0.2340
  667MOL0     C89920   8.907  10.235   1.588  0.1625  0.0560 -0.2657
  667MOL0     C89921   8.838  10.228   1.447  0.6064  1.0457 -0.0167
  667MOL0     C89922   8.687  10.203   1.451 -0.2960  0.3955 -0.2064
  667MOL0     C89923   8.600  10.194   1.320 -0.7597  0.6492  0.3513
  667MOL0     C89924   8.477  10.113   1.326 -0.0996  0.1910  0.3656
  667MOL0     C89925   8.405  10.095   1.186  1.0832 -0.7862  1.0742
  667MOL0     C89926   8.296   9.994   1.192  0.2292 -0.2045  1.2611
  667MOL0     N89927   8.175  10.030   1.266  0.4431 -0.5591  0.5221
  667MOL0     C89928   8.051  10.010   1.216  0.6980  0.1453  1.1638
  667MOL0     C89929   7.970  10.030   1.317 -0.2966  0.6525 -0.0635
  667MOL0     C89930   7.824  10.013   1.303 -0.2727 -0.6932 -0.1434
  667MOL0     C89931   7.772   9.870   1.333 -0.9661 -0.1377  0.1449
  667MOL0     C89932   7.792   9.769   1.217  0.5361 -0.2675 -0.3289
  667MOL0     C89933   7.739   9.817   1.080  0.4384 -0.2882  0.1500
  667MOL0     O89934   7.617   9.888   1.088 -0.0331  0.1736 -0.3804
  667MOL0     C89935   7.494   9.822   1.085 -0.5534 -0.1698  0.1009
  667MOL0     C89936   7.384   9.897   1.114 -0.3453 -0.8434  0.3323
  667MOL0     C89937   7.257   9.834   1.120 -0.4640 -0.1235 -0.5122
  667MOL0     C89938   7.145   9.936   1.151  0.4779  0.0594 -0.9292
  667MOL0     C89939   7.241   9.699   1.092  0.4707  0.0116 -0.1743
  667MOL0     C89940   7.118   9.613   1.115 -0.5845  0.6983  0.2472
  667MOL0     O89941   7.000   9.661   1.057 -0.1254  0.0604 -0.8013
  667MOL0     C89942   6.881   9.587   1.077 -1.3324  0.2483 -0.0389
  667MOL0     C89943   6.873   9.449   1.066 -0.1257 -0.3027  0.0675
  667MOL0     C89944   6.757   9.375   1.092 -0.0410  0.2886  0.4394
  667MOL0     C89945   6.636   9.441   1.117  1.1360  0.0422  0.2234
  667MOL0     O89946   6.510   9.387   1.120  0.0367 -0.4876  0.2220
  667MOL0     C89947   6.479   9.263   1.178 -0.8471  0.6122 -0.3808
  667MOL0     C89948   6.352   9.204   1.111  0.7727  0.2943 -0.7244
  667MOL0     C89949   6.334   9.057   1.139 -0.1808  1.1129  0.4574
  667MOL0     C89950   6.239   8.983   1.034 -0.1162 -0.4775 -0.1180
  667MOL0     C89951   6.230   8.836   1.077 -0.1199  0.6014  0.1164
  667MOL0     C89952   6.125   8.749   1.003 -0.2597  0.3952 -0.7028
  667MOL0     C89953   6.134   8.759   0.847 -0.1714  0.1238 -0.0621
  667MOL0     C89954   6.259   8.695   0.788 -0.6045  0.1001 -0.2343
  667MOL0    Cl89955   6.314   8.815   0.669 -0.2069 -0.0251  0.3760
  667MOL0     C89956   6.637   9.583   1.114 -0.3763  0.0402  0.3855
  667MOL0     C89957   6.758   9.651   1.092 -0.3252 -0.3174 -0.6767
  667MOL0     O89958   7.134   9.527   1.194  0.0716  0.6499 -0.3513
  667MOL0     C89959   7.356   9.627   1.072  0.2695  0.9574 -0.0669
  667MOL0     C89960   7.483   9.679   1.071 -0.5156 -0.6654  0.2482
  667MOL0     N89961   8.038  10.057   1.434 -0.8090  0.2193 -0.2594
  667MOL0     N89962   8.167  10.057   1.403 -0.2792  0.3281  0.2965
  667MOL0     C89963   9.352  10.331   1.555 -0.9027  0.4659  0.9109
  667MOL0     C89964   9.488  10.322   1.579 -0.0261 -0.8391  0.0822
  667MOL0     C89965   9.840  10.272   1.814 -0.1933  0.2098 -0.4249
  667MOL0     C89966   9.894  10.247   1.941 -0.5619  0.6207  0.0819
  667MOL0     C89967  10.007  10.316   1.993 -0.0170 -0.7812 -0.7366
  667MOL0     C89968  10.081  10.398   1.908 -0.3222  1.3374 -0.3723
  667MOL0     O89969  10.197  10.446   1.952  0.2501 -0.0702  0.8173
  667MOL0     C89970  10.321  10.385   1.892  0.5793 -0.3444 -0.0784
  667MOL0     C89971  10.460  10.412   1.966  1.2906  0.4557 -0.4004
  667MOL0     C89972  10.496  10.566   1.951 -0.4597 -0.2522 -0.1526
  667MOL0     C89973  10.600  10.607   1.848  0.6361  0.3831  0.6980
  667MOL0     C89974  10.545  10.596   1.715 -0.0657  0.0786  0.5716
  667MOL0     C89975  10.479  10.558   1.614 -0.3664  0.2240 -0.3418
  667MOL0     C89976  10.039  10.401   1.772 -0.2870 -1.4346 -0.9673
  667MOL0     C89977   9.921  10.347   1.721  0.3778  0.3038  0.1176
  667MOL0     H89978   9.570  10.002   1.608  0.5322 -0.1343 -0.4926
  667MOL0     H89979   9.308   9.984   1.584 -0.9529 -0.1182 -4.8977
  667MOL0     H89980   9.091  10.300   1.676 -1.9999  2.8653  0.2763
  667MOL0     H89981   9.066  10.355   1.501 -2.5169 -1.1912 -1.2932
  667MOL0     H89982   8.880  10.142   1.637 -1.2560  1.2115  1.2262
  667MOL0     H89983   8.862  10.314   1.649  1.9254  0.9568 -0.0424
  667MOL0     H89984   8.869  10.312   1.384 -0.8948 -0.2979 -2.7482
  667MOL0     H89985   8.882  10.143   1.394  3.1870  2.5871 -0.5066
  667MOL0     H89986   8.662  10.116   1.512  1.0164  0.7247  0.8516
  667MOL0     H89987   8.643  10.285   1.508 -0.9467  0.7418 -1.1858
  667MOL0     H89988   8.591  10.296   1.282 -1.1592 -0.6777 -3.4986
  667MOL0     H89989   8.660  10.126   1.260  3.2043  0.0641  4.3879
  667MOL0     H89990   8.495  10.010   1.358 -3.4175 -0.5707  0.1316
  667MOL0     H89991   8.418  10.173   1.396 -0.2054  2.1391 -1.2957
  667MOL0     H89992   8.364  10.189   1.147 -2.5511 -2.6589 -0.1114
  667MOL0     H89993   8.479  10.074   1.108  0.4131  1.8340 -0.3996
  667MOL0     H89994   8.335   9.908   1.247  0.2433 -0.5635  0.6989
  667MOL0     H89995   8.262   9.949   1.099  1.7329  0.0534  0.5660
  667MOL0     H89996   8.020   9.977   1.117  0.9661  0.6977  0.8878
  667MOL0     H89997   7.787  10.092   1.370  0.9593  0.3775 -0.6735
  667MOL0     H89998   7.794  10.046   1.203 -0.6361  1.9853  0.7607
  667MOL0     H89999   7.667   9.879   1.361 -0.6200 -2.4639  2.6919
  667MOL0     H90000   7.820   9.843   1.427 -1.5647  0.7230  0.7068
  667MOL0     H90001   7.731   9.682   1.243  1.5131 -1.3248 -1.4319
  667MOL0     H90002   7.898   9.746   1.208  0.1998 -2.0285 -0.1213
  667MOL0     H90003   7.732   9.732   1.013  3.2267 -2.0738  1.8980
  667MOL0     H90004   7.815   9.888   1.044 -0.0669 -0.6756 -1.7296
  667MOL0     H90005   7.390  10.004   1.127  1.7274 -0.4180 -2.9930
  667MOL0     H90006   7.182  10.034   1.180 -0.2842  0.3507 -0.9152
  667MOL0     H90007   7.083   9.942   1.061  0.5870  0.9823 -0.9453
  667MOL0     H90008   7.091   9.903   1.240  0.7068  3.0519  0.4288
  667MOL0     H90009   6.958   9.388   1.038 -1.5416 -1.8273 -1.0922
  667MOL0     H90010   6.764   9.267   1.079  1.5297  0.0863  2.4501
  667MOL0     H90011   6.558   9.190   1.153 -2.4164 -0.0181 -4.2383
  667MOL0     H90012   6.449   9.262   1.283 -3.1890 -0.2779 -1.0003
  667MOL0     H90013   6.271   9.264   1.153  0.1144 -2.1118  1.7168
  667MOL0     H90014   6.354   9.229   1.005  1.6936  1.6471 -0.4231
  667MOL0     H90015   6.281   9.049   1.235 -1.1167 -1.2890 -0.1802
  667MOL0     H90016   6.429   9.004   1.133 -0.9308 -0.3890  1.1359
  667MOL0     H90017   6.138   9.024   1.044  0.6802  1.5966 -0.1712
  667MOL0     H90018   6.295   9.006   0.943  2.3607  2.0686  1.8646
  667MOL0     H90019   6.211   8.823   1.184 -0.0139 -2.7674 -0.1564
  667MOL0     H90020   6.329   8.793   1.061  0.3630  2.4674 -2.7237
  667MOL0     H90021   6.133   8.642   1.024  0.2339  0.4740 -0.4754
  667MOL0     H90022   6.026   8.784   1.033 -1.0325  0.7872 -3.4520
  667MOL0     H90023   6.119   8.865   0.824  0.5150  0.4105  0.7508
  667MOL0     H90024   6.047   8.714   0.799  0.1020  0.1967 -0.6285
  667MOL0     H90025   6.228   8.605   0.734 -3.0787  0.5910  0.2346
  667MOL0     H90026   6.336   8.670   0.860 -0.3962 -1.1507 -0.8695
  667MOL0     H90027   6.542   9.635   1.113 -2.6598 -3.6947  0.0314
  667MOL0     H90028   6.761   9.759   1.094  1.1032 -0.3148  1.9739
  667MOL0     H90029   7.350   9.518   1.067  2.5285  0.8403 -1.8178
  667MOL0     H90030   7.575   9.624   1.057  1.4240  2.3725  0.1794
  667MOL0     H90031   9.299  10.426   1.550 -2.6838 -0.4908  0.6007
  667MOL0     H90032   9.549  10.411   1.592  0.5234 -1.3679  1.3685
  667MOL0     H90033   9.842  10.187   2.015  1.7006 -1.5912  0.0083
  667MOL0     H90034  10.042  10.293   2.093  2.8042 -0.7914 -1.6336
  667MOL0     H90035  10.299  10.278   1.889 -2.1058  0.0500  1.9380
  667MOL0     H90036  10.333  10.426   1.791  0.0387 -0.2709 -0.1146
  667MOL0     H90037  10.536  10.353   1.914  0.4131  0.0411 -1.2469
  667MOL0     H90038  10.449  10.386   2.071 -0.0603 -1.3914 -0.9293
  667MOL0     H90039  10.525  10.607   2.048 -1.0347  1.6415 -0.7216
  667MOL0     H90040  10.404  10.624   1.937 -1.1625 -1.0550  0.9970
  667MOL0     H90041  10.694  10.552   1.859  1.3519  1.6848  1.2305
  667MOL0     H90042  10.630  10.712   1.859 -1.9256  1.1098  1.2858
  667MOL0     H90043  10.424  10.508   1.537  1.6097  1.1889 -2.5151
  667MOL0     H90044  10.107  10.444   1.700 -0.6531  0.3431 -0.2933
  667MOL0     H90045   9.885  10.367   1.620 -2.8234  0.9942  1.3027
  668MOL0     O90046  10.947   7.069   1.043  0.5760 -0.1466  0.2617
  668MOL0     C90047  10.971   7.107   0.928 -0.4614 -0.6824 -0.8493
  668MOL0     O90048  11.086   7.169   0.893 -0.2160 -0.1002  0.8028
  668MOL0     C90049  11.168   7.197   0.999  0.2156 -0.0771  0.3540
  668MOL0     C90050  11.280   7.120   1.042  0.1508  0.2398  0.7307
  668MOL0     C90051  11.366   7.162   1.146  0.4249  0.9992  0.2586
  668MOL0     C90052  11.337   7.281   1.219 -0.5913 -0.0071  0.9880
  668MOL0     O90053  11.416   7.326   1.321  0.8474 -0.1560 -0.0189
  668MOL0     C90054  11.552   7.262   1.327 -0.1040  0.1626  0.5961
  668MOL0     C90055  11.631   7.324   1.442 -0.7647  1.4162 -0.1456
  668MOL0     C90056  11.769   7.257   1.470  0.8829  0.3081 -0.4861
  668MOL0     C90057  11.862   7.289   1.355  1.3881  0.5627 -0.0370
  668MOL0     C90058  11.997   7.346   1.398 -0.1789  0.0971 -0.0862
  668MOL0     C90059  12.075   7.272   1.512  0.2629  0.1521 -0.2145
  668MOL0     C90060  12.197   7.351   1.544 -0.4228 -0.8073 -0.6311
  668MOL0     C90061  12.310   7.252   1.595 -0.0568  1.2787 -1.4336
  668MOL0     N90062  12.307   7.244   1.745  0.8622 -0.0678 -0.2617
  668MOL0     C90063  12.327   7.346   1.843  1.3991 -0.5329  1.3381
  668MOL0     C90064  12.266   7.302   1.956  0.1122 -0.2026 -0.1428
  668MOL0     C90065  12.273   7.384   2.076  0.2792  0.7038 -0.7604
  668MOL0     C90066  12.149   7.350   2.170 -0.7719  0.3526 -0.0710
  668MOL0     C90067  12.145   7.445   2.291  0.1427 -0.4701 -0.8542
  668MOL0     C90068  12.039   7.401   2.399 -1.0634 -0.4207  0.2580
  668MOL0     O90069  12.081   7.277   2.459 -0.0027 -0.0354 -0.4137
  668MOL0     C90070  12.187   7.282   2.544  0.2610  0.1981 -0.0824
  668MOL0     C90071  12.228   7.158   2.587  1.1891 -0.4040 -0.6697
  668MOL0     C90072  12.337   7.144   2.680  0.1568 -0.1260 -0.3423
  668MOL0     C90073  12.368   6.998   2.721 -0.3072 -0.2410  0.2928
  668MOL0     C90074  12.401   7.264   2.730  0.5142  0.7829  0.0244
  668MOL0     C90075  12.534   7.268   2.801  0.4107  0.0402 -0.5608
  668MOL0     O90076  12.592   7.143   2.816  0.3986 -0.0577  0.1058
  668MOL0     C90077  12.713   7.120   2.885  0.8891 -0.5935 -0.0630
  668MOL0     C90078  12.758   6.991   2.893 -0.3837 -0.3943  0.0330
  668MOL0     C90079  12.886   6.966   2.941 -0.0069  0.2333 -0.0275
  668MOL0     C90080  12.971   7.061   2.988  0.4901  0.2462  0.4047
  668MOL0     O90081  13.090   7.022   3.046 -0.3627 -0.8716  0.2355
  668MOL0     C90082  13.204   7.105   3.038 -0.2529 -0.4931  0.6768
  668MOL0     C90083  13.321   7.033   2.990 -0.8059 -0.3629  0.3908
  668MOL0     C90084  13.317   6.987   2.831  1.2710 -0.6993 -0.0445
  668MOL0     C90085  13.312   7.112   2.736  0.3870  0.7863 -0.7824
  668MOL0     C90086  13.304   7.063   2.585 -0.3922  0.3302  1.1136
  668MOL0     C90087  13.330   7.174   2.488  0.8849 -1.2341 -0.0775
  668MOL0     C90088  13.308   7.133   2.341 -0.6139  1.2309 -0.4571
  668MOL0     C90089  13.158   7.115   2.308  0.1472 -0.1660  0.6825
  668MOL0    Cl90090  13.126   7.013   2.161  0.0485  0.0806 -0.1362
  668MOL0     C90091  12.929   7.189   2.975 -0.9647 -0.9309  0.3714
  668MOL0     C90092  12.800   7.226   2.927  0.7305 -0.1774 -0.7905
  668MOL0     O90093  12.577   7.376   2.835  0.6548  0.0790 -0.0620
  668MOL0     C90094  12.352   7.389   2.694  0.2158 -0.2017 -0.0584
  668MOL0     C90095  12.241   7.398   2.607 -0.2565 -0.5758  0.0662
  668MOL0     N90096  12.207   7.178   1.935  0.0026 -0.1176  0.3681
  668MOL0     N90097  12.245   7.144   1.815 -0.4996  0.4838 -1.0215
  668MOL0     C90098  11.217   7.340   1.188  0.0323 -0.4202 -0.2301
  668MOL0     C90099  11.135   7.300   1.085 -0.4866  0.5411 -0.4471
  668MOL0     C90100  10.874   7.084   0.825 -0.2619 -0.1180 -0.4985
  668MOL0     C90101  10.919   7.070   0.692 -0.5394 -0.7539 -0.0014
  668MOL0     C90102  10.828   7.044   0.589 -0.0458 -0.0923  0.0916
  668MOL0     C90103  10.689   7.054   0.606  0.1141 -0.3319 -0.0195
  668MOL0     O90104  10.590   7.037   0.512  0.4963 -0.2510 -0.1488
  668MOL0     C90105  10.630   7.003   0.383  0.5546 -0.3187  0.0650
  668MOL0     C90106  10.522   7.056   0.283 -0.2520  0.7913 -0.7755
  668MOL0     C90107  10.404   6.967   0.291  0.6741  0.0420  0.6749
  668MOL0     C90108  10.300   7.031   0.212  0.4399  0.1115  0.9401
  668MOL0     C90109  10.173   6.969   0.243  0.0888  0.0570  0.0771
  668MOL0     C90110  10.071   6.911   0.276  0.5744  0.0460  0.4250
  668MOL0     C90111  10.645   7.067   0.737  0.5063 -0.1344  0.6458
  668MOL0     C90112  10.736   7.084   0.846 -0.4519  0.7779 -1.1911
  668MOL0     H90113  11.297   7.032   0.981  4.0449  1.1073  0.2837
  668MOL0     H90114  11.439   7.090   1.181 -2.6201 -1.6059  1.7740
  668MOL0     H90115  11.536   7.156   1.348 -1.2554  0.1402 -0.3561
  668MOL0     H90116  11.608   7.280   1.235 -0.5815 -2.3917 -0.2609
  668MOL0     H90117  11.630   7.433   1.433  0.2048  1.2768 -2.8967
  668MOL0     H90118  11.571   7.297   1.530  1.4952  1.6818  1.5585
  668MOL0     H90119  11.807   7.303   1.561 -2.1930 -0.1176  1.1348
  668MOL0     H90120  11.748   7.152   1.493 -1.4037  1.3180  2.7311
  668MOL0     H90121  11.867   7.190   1.309 -4.6269  0.2283 -0.7282
  668MOL0     H90122  11.816   7.351   1.277 -1.8496 -0.3906  0.9527
  668MOL0     H90123  12.059   7.347   1.307 -1.1190 -2.0124 -0.8094
  668MOL0     H90124  11.972   7.444   1.441  0.8939 -0.1425  1.1470
  668MOL0     H90125  12.014   7.241   1.598 -1.4968 -1.9641 -2.1230
  668MOL0     H90126  12.111   7.175   1.479  0.2812 -0.4174  1.3778
  668MOL0     H90127  12.232   7.397   1.451 -1.5247  0.9249 -0.2355
  668MOL0     H90128  12.168   7.426   1.618 -0.7434 -1.3792 -0.1689
  668MOL0     H90129  12.412   7.286   1.575  0.1294  0.0512 -2.7018
  668MOL0     H90130  12.299   7.157   1.542  2.1765 -0.1246  0.4528
  668MOL0     H90131  12.384   7.437   1.830 -0.4654  0.5461  0.3722
  668MOL0     H90132  12.370   7.377   2.127  0.2920 -2.1884 -0.9970
  668MOL0     H90133  12.258   7.486   2.041 -0.4257  0.8237 -0.1564
  668MOL0     H90134  12.167   7.252   2.215 -2.7956  0.2930  0.7083
  668MOL0     H90135  12.053   7.338   2.119 -0.7461 -2.0638  0.3124
  668MOL0     H90136  12.105   7.540   2.251 -0.6137 -0.7886 -0.8791
  668MOL0     H90137  12.243   7.449   2.338  0.5313  1.0214 -1.6913
  668MOL0     H90138  11.942   7.387   2.349 -1.3129  0.0912  0.5938
  668MOL0     H90139  12.024   7.474   2.479  2.7801 -1.3494  2.0442
  668MOL0     H90140  12.178   7.068   2.551  3.1266 -2.8620  2.2969
  668MOL0     H90141  12.287   6.933   2.686  0.7152 -0.1009 -2.5758
  668MOL0     H90142  12.449   6.959   2.659 -2.1586  1.6267 -3.6801
  668MOL0     H90143  12.387   6.972   2.826 -0.2943  0.8885  0.5899
  668MOL0     H90144  12.684   6.920   2.856  0.8443 -1.0404 -1.2896
  668MOL0     H90145  12.906   6.861   2.962 -2.9773 -0.2054  1.0566
  668MOL0     H90146  13.191   7.199   2.984 -2.9703 -1.0429  0.2515
  668MOL0     H90147  13.236   7.142   3.136 -1.7573  0.1925  0.9267
  668MOL0     H90148  13.408   7.094   3.014 -0.2576 -1.0468  0.1833
  668MOL0     H90149  13.324   6.949   3.060  3.2181  0.4488  1.4666
  668MOL0     H90150  13.231   6.921   2.821 -0.0212  0.6615  1.4680
  668MOL0     H90151  13.413   6.940   2.808  2.7805  1.7178  0.9412
  668MOL0     H90152  13.214   7.153   2.761 -0.5493 -1.2909 -0.8328
  668MOL0     H90153  13.392   7.186   2.744  0.5820  0.7777 -2.3362
  668MOL0     H90154  13.205   7.021   2.563  0.8794 -0.7624 -3.8040
  668MOL0     H90155  13.373   6.981   2.565 -2.1418 -0.5242 -2.1909
  668MOL0     H90156  13.258   7.253   2.509  0.4935 -1.1576 -1.5752
  668MOL0     H90157  13.432   7.212   2.497 -0.2394  1.7188  1.2249
  668MOL0     H90158  13.359   7.038   2.322  1.9882  2.1016  1.4905
  668MOL0     H90159  13.371   7.199   2.280  1.1090  2.5201  2.4908
  668MOL0     H90160  13.116   7.216   2.297  2.5010  0.8485  0.2360
  668MOL0     H90161  13.109   7.061   2.389 -1.1444  0.6101  0.4383
  668MOL0     H90162  12.995   7.262   3.020  0.3972 -2.3300  0.7353
  668MOL0     H90163  12.769   7.330   2.929 -0.8447 -0.6278  0.3060
  668MOL0     H90164  12.399   7.485   2.711  2.8605 -1.0225 -2.0503
  668MOL0     H90165  12.213   7.499   2.578 -0.0517 -1.2531 -2.7528
  668MOL0     H90166  11.192   7.426   1.250 -1.2372 -0.6493 -0.3989
  668MOL0     H90167  11.039   7.352   1.079 -2.8850 -3.5171 -0.5761
  668MOL0     H90168  11.024   7.076   0.665 -0.2999  0.2160  1.0995
  668MOL0     H90169  10.878   7.025   0.495 -3.0307  0.4191 -1.7283
  668MOL0     H90170  10.724   7.049   0.351 -0.5393  1.1551 -1.2094
  668MOL0     H90171  10.641   6.895   0.374 -1.2648 -0.4626 -0.9536
  668MOL0     H90172  10.553   7.068   0.179 -0.8753 -0.2454 -1.1025
  668MOL0     H90173  10.487   7.148   0.330  2.8811  0.8216  1.9031
  668MOL0     H90174  10.379   6.961   0.397  2.3815  3.0279  1.3775
  668MOL0     H90175  10.427   6.871   0.243  0.7013  0.6822 -0.6496
  668MOL0     H90176  10.317   7.010   0.106 -0.0235  0.5279  0.7748
  668MOL0     H90177  10.292   7.139   0.228 -0.0067 -0.0953  2.2762
  668MOL0     H90178   9.980   6.866   0.308  0.1895  1.2786  1.1486
  668MOL0     H90179  10.537   7.054   0.748  0.2348  0.4153 -1.1199
  668MOL0     H90180  10.692   7.107   0.942 -1.1703  0.2382 -1.3766
  669MOL0     O90181   8.659   5.247   4.377  0.0301 -0.2593 -0.0564
  669MOL0     C90182   8.681   5.140   4.319 -0.0988 -0.4845  0.4321
  669MOL0     O90183   8.759   5.120   4.210 -0.2705  1.0004  0.2225
  669MOL0     C90184   8.832   5.211   4.139 -0.0458  0.1964 -0.2161
  669MOL0     C90185   8.835   5.347   4.149  0.1908 -0.1392 -0.2902
  669MOL0     C90186   8.923   5.429   4.083 -0.3131  0.2536  0.3084
  669MOL0     C90187   9.033   5.365   4.023  0.8878  0.4552  0.5573
  669MOL0     O90188   9.145   5.421   3.960 -0.0659  0.0188  0.1053
  669MOL0     C90189   9.124   5.545   3.890  0.5190  1.4458 -0.4974
  669MOL0     C90190   9.249   5.588   3.813  0.2994  1.2660 -0.4574
  669MOL0     C90191   9.283   5.737   3.826  0.0413 -0.3817 -0.1567
  669MOL0     C90192   9.401   5.760   3.729  0.5414 -0.7920 -0.6254
  669MOL0     C90193   9.451   5.907   3.749  1.4658 -0.4439  0.2383
  669MOL0     C90194   9.526   5.951   3.627 -0.0063  0.5041  0.4431
  669MOL0     C90195   9.532   6.101   3.622  0.5414 -1.1270 -0.4571
  669MOL0     C90196   9.628   6.165   3.514 -1.0569  0.4831  0.1180
  669MOL0     N90197   9.775   6.169   3.555 -0.2137 -0.2649  0.4182
  669MOL0     C90198   9.847   6.269   3.620  0.2324  0.3855 -0.3670
  669MOL0     C90199   9.971   6.227   3.633 -0.3937  0.8406  0.1103
  669MOL0     C90200  10.083   6.293   3.711 -0.4225 -0.7383  0.5112
  669MOL0     C90201  10.212   6.218   3.744 -0.1576  0.2232 -0.7144
  669MOL0     C90202  10.170   6.127   3.854  0.5334  0.9887  0.1053
  669MOL0     C90203  10.268   6.022   3.902 -0.1212 -0.7167  0.4811
  669MOL0     O90204  10.360   6.088   4.004  0.5761  0.6271 -0.2855
  669MOL0     C90205  10.473   6.022   4.042  1.1788 -0.4697 -0.9425
  669MOL0     C90206  10.556   6.087   4.124  0.5261 -0.2550 -0.7669
  669MOL0     C90207  10.679   6.036   4.166  0.1937  0.7280 -0.1600
  669MOL0     C90208  10.759   6.132   4.247  0.3327 -0.4017 -1.1292
  669MOL0     C90209  10.715   5.897   4.124 -0.6610 -0.0494 -0.0682
  669MOL0     C90210  10.834   5.826   4.178 -0.2985 -0.1642 -0.1203
  669MOL0     O90211  10.845   5.691   4.155  0.4856  0.6906  0.1255
  669MOL0     C90212  10.932   5.606   4.207  0.1422  1.1680 -0.1521
  669MOL0     C90213  10.900   5.467   4.194  0.6873  0.7361 -0.0933
  669MOL0     C90214  10.985   5.361   4.241  1.0174  0.6223 -0.6363
  669MOL0     C90215  11.108   5.396   4.293  0.1135 -0.0215  0.0427
  669MOL0     O90216  11.196   5.299   4.340 -0.3408 -0.5115  0.7248
  669MOL0     C90217  11.194   5.176   4.285 -0.3671  0.2058  0.1034
  669MOL0     C90218  11.321   5.101   4.319 -0.4843 -0.4741 -0.7008
  669MOL0     C90219  11.345   5.086   4.472 -0.2873  0.2142 -1.2903
  669MOL0     C90220  11.466   4.997   4.504 -0.4324  0.1716 -1.1419
  669MOL0     C90221  11.532   5.048   4.635 -0.1431  0.5637  0.3684
  669MOL0     C90222  11.641   4.957   4.673  0.1521  0.6711  0.9258
  669MOL0     C90223  11.755   5.014   4.751 -0.1514 -0.3585  0.3436
  669MOL0     C90224  11.708   5.060   4.887  0.6135 -0.3184 -0.4802
  669MOL0    Cl90225  11.833   5.136   4.978 -0.3767  0.1521 -0.8590
  669MOL0     C90226  11.150   5.534   4.298  0.0838 -0.6048 -0.0163
  669MOL0     C90227  11.060   5.635   4.258  0.0855 -0.0761  1.1956
  669MOL0     O90228  10.901   5.892   4.251 -0.2549  0.1388  0.3847
  669MOL0     C90229  10.632   5.836   4.041  0.3906  0.0339 -0.0382
  669MOL0     C90230  10.507   5.894   3.999  0.0868  0.2868 -0.0856
  669MOL0     N90231   9.978   6.093   3.582 -0.6697 -0.3129 -0.3559
  669MOL0     N90232   9.859   6.067   3.534  0.1743  0.6374 -0.0700
  669MOL0     C90233   9.023   5.222   4.000 -0.4609 -0.9457 -0.2738
  669MOL0     C90234   8.920   5.148   4.056 -0.4999 -0.4403 -0.5648
  669MOL0     C90235   8.615   5.023   4.379  0.8607  0.3865 -1.3176
  669MOL0     C90236   8.594   5.013   4.514  0.2577 -0.2880  0.2701
  669MOL0     C90237   8.539   4.897   4.571 -0.1790  0.2191  0.0479
  669MOL0     C90238   8.509   4.790   4.497 -0.5615  0.4231  0.6170
  669MOL0     O90239   8.452   4.675   4.551  0.7214 -0.7357 -0.2690
  669MOL0     C90240   8.339   4.690   4.634  0.3730  0.3922  0.9784
  669MOL0     C90241   8.348   4.610   4.761 -0.2603  0.3251  0.2324
  669MOL0     C90242   8.222   4.629   4.837  0.4288 -0.3138 -0.9479
  669MOL0     C90243   8.220   4.541   4.969  0.6344  0.4795  0.1716
  669MOL0     C90244   8.348   4.552   5.047 -0.5890 -0.0819  0.2013
  669MOL0     C90245   8.458   4.538   5.088  0.1608 -0.6140 -0.1941
  669MOL0     C90246   8.533   4.797   4.363  1.0276 -0.2042  0.0356
  669MOL0     C90247   8.581   4.913   4.298 -0.9085  0.1615  0.0665
  669MOL0     H90248   8.758   5.394   4.209 -0.0823  0.9067 -1.4340
  669MOL0     H90249   8.913   5.537   4.075 -1.5882  0.0029 -3.0601
  669MOL0     H90250   9.037   5.535   3.824 -0.4648  2.5492  0.5724
  669MOL0     H90251   9.112   5.620   3.968  3.2371  0.8771  0.5839
  669MOL0     H90252   9.337   5.531   3.841 -0.5473  0.4833  0.6947
  669MOL0     H90253   9.232   5.554   3.710 -0.6073 -1.3933  0.4806
  669MOL0     H90254   9.194   5.791   3.793 -2.8064 -2.8643  2.7063
  669MOL0     H90255   9.299   5.772   3.929 -2.0571  0.4786 -0.0734
  669MOL0     H90256   9.482   5.693   3.762 -0.6181 -0.6052  2.9372
  669MOL0     H90257   9.388   5.740   3.622  1.9368 -2.0740 -0.5945
  669MOL0     H90258   9.363   5.970   3.763 -0.1156 -2.6332  0.7897
  669MOL0     H90259   9.518   5.904   3.836  3.3071  1.4109 -1.0461
  669MOL0     H90260   9.628   5.912   3.629 -0.6528 -1.3721 -0.6116
  669MOL0     H90261   9.479   5.921   3.533  2.9689 -0.3979 -0.8676
  669MOL0     H90262   9.434   6.139   3.590  0.2396 -0.9710  0.6044
  669MOL0     H90263   9.562   6.142   3.719  2.2870 -2.9516 -0.1649
  669MOL0     H90264   9.604   6.268   3.486 -0.2616  1.2941  2.2384
  669MOL0     H90265   9.621   6.103   3.424  0.6026  1.1999 -0.5635
  669MOL0     H90266   9.812   6.366   3.653  0.5736  0.0137  1.1563
  669MOL0     H90267  10.107   6.390   3.666 -0.1359 -0.1377  1.8899
  669MOL0     H90268  10.048   6.330   3.808  0.4072  1.5873 -0.0060
  669MOL0     H90269  10.286   6.291   3.777 -0.5990  0.8044 -0.9740
  669MOL0     H90270  10.261   6.171   3.658  0.4546 -1.9717  0.7553
  669MOL0     H90271  10.084   6.063   3.834 -0.6563  1.9678  1.7874
  669MOL0     H90272  10.136   6.195   3.933 -1.6938  0.4566 -0.3069
  669MOL0     H90273  10.328   5.976   3.823  1.0029 -2.8119  2.4312
  669MOL0     H90274  10.207   5.942   3.946  0.4056 -1.5643 -0.2944
  669MOL0     H90275  10.519   6.187   4.145  1.3126  0.5417 -2.8983
  669MOL0     H90276  10.690   6.194   4.305  3.4069  1.9425  0.3145
  669MOL0     H90277  10.817   6.094   4.331  1.3957  1.2466 -1.0739
  669MOL0     H90278  10.822   6.186   4.175  1.8109 -1.4671 -0.6711
  669MOL0     H90279  10.808   5.434   4.146  1.4706  1.5774 -2.2905
  669MOL0     H90280  10.941   5.263   4.233  1.7349  0.0662  1.5555
  669MOL0     H90281  11.106   5.126   4.325  0.5324 -0.2634  1.6098
  669MOL0     H90282  11.178   5.175   4.177  1.4437 -2.5285 -0.2536
  669MOL0     H90283  11.311   4.998   4.283 -0.6936 -1.1610  1.2076
  669MOL0     H90284  11.409   5.148   4.274  0.2711 -0.7031  0.4996
  669MOL0     H90285  11.266   5.032   4.524  0.6259 -0.5599 -0.6808
  669MOL0     H90286  11.358   5.183   4.521  1.0233 -1.3363  1.6361
  669MOL0     H90287  11.431   4.894   4.514 -0.3073  0.3970  4.3207
  669MOL0     H90288  11.544   5.009   4.428  1.9237  1.7359  1.3619
  669MOL0     H90289  11.453   5.049   4.711 -1.0924 -0.4773 -0.5702
  669MOL0     H90290  11.579   5.144   4.614  1.6516 -0.6194 -1.3794
  669MOL0     H90291  11.601   4.869   4.724 -2.5625  1.6035  0.5516
  669MOL0     H90292  11.690   4.911   4.587  1.1798 -0.8324  2.2430
  669MOL0     H90293  11.801   5.094   4.692 -1.4496 -0.5866 -1.0549
  669MOL0     H90294  11.827   4.932   4.755  0.0339 -0.1939  0.4149
  669MOL0     H90295  11.675   4.972   4.943  3.4428 -2.8960 -2.5098
  669MOL0     H90296  11.627   5.132   4.874  0.0849 -0.9883 -0.9429
  669MOL0     H90297  11.256   5.546   4.320  0.0025 -1.1222  0.7071
  669MOL0     H90298  11.090   5.735   4.226  0.7299  0.4481  3.2838
  669MOL0     H90299  10.650   5.735   4.005  3.4438  1.4217 -2.8979
  669MOL0     H90300  10.454   5.834   3.927  0.4933  0.1372 -0.2650
  669MOL0     H90301   9.100   5.174   3.940 -0.3369 -0.8668 -0.1789
  669MOL0     H90302   8.931   5.040   4.052 -1.1653 -0.4678 -3.8047
  669MOL0     H90303   8.624   5.098   4.575 -1.9255 -0.8865  2.3199
  669MOL0     H90304   8.521   4.894   4.678 -2.3255 -1.3542 -0.2947
  669MOL0     H90305   8.322   4.793   4.666  1.1838  0.9934 -0.4069
  669MOL0     H90306   8.253   4.663   4.571  0.9270  2.3482 -0.7469
  669MOL0     H90307   8.440   4.632   4.816 -0.7639  0.0067  1.2253
  669MOL0     H90308   8.357   4.504   4.736 -0.0533 -0.0707  1.8381
  669MOL0     H90309   8.137   4.603   4.772 -0.2171  1.4354 -0.8497
  669MOL0     H90310   8.222   4.735   4.864 -0.1895 -1.2311  3.3754
  669MOL0     H90311   8.205   4.434   4.949 -0.5674  0.6184  0.2192
  669MOL0     H90312   8.134   4.578   5.026  1.2778  0.5902  1.0868
  669MOL0     H90313   8.559   4.540   5.125 -0.3253  2.1897  1.2932
  669MOL0     H90314   8.517   4.712   4.298  1.7503 -0.6211  0.3991
  669MOL0     H90315   8.612   4.907   4.194 -1.4132 -4.5180 -0.0323
  670MOL0     O90316   2.726   0.870   7.238  0.5890  0.5504  0.2273
  670MOL0     C90317   2.724   0.755   7.287 -0.8130 -1.1725 -0.8515
  670MOL0     O90318   2.829   0.699   7.352 -0.2988 -0.0278 -0.4122
  670MOL0     C90319   2.960   0.750   7.330 -0.0786  0.1030  0.0939
  670MOL0     C90320   3.040   0.774   7.441 -0.5569  0.3754  0.2511
  670MOL0     C90321   3.162   0.841   7.423  0.0759 -0.4412  0.5602
  670MOL0     C90322   3.206   0.875   7.291  0.1543 -0.4156 -0.1544
  670MOL0     O90323   3.331   0.934   7.279 -0.7888 -0.3354 -0.4069
  670MOL0     C90324   3.438   0.844   7.300  0.6719 -0.4093 -0.1301
  670MOL0     C90325   3.576   0.916   7.296 -0.2589 -0.0046  1.0654
  670MOL0     C90326   3.577   1.039   7.390 -0.2658  0.4058  0.4755
  670MOL0     C90327   3.716   1.112   7.370  0.5416  0.0329  0.9662
  670MOL0     C90328   3.712   1.250   7.416 -0.1532 -0.2441 -0.4528
  670MOL0     C90329   3.832   1.325   7.384  0.6908  0.8254  0.4838
  670MOL0     C90330   3.954   1.283   7.450 -0.1236 -0.0082 -0.0943
  670MOL0     C90331   4.039   1.176   7.373 -0.8930 -0.1144  0.0901
  670MOL0     N90332   4.169   1.133   7.432 -1.2306 -0.1132  0.0350
  670MOL0     C90333   4.242   1.208   7.522 -0.0997  1.1943 -0.3705
  670MOL0     C90334   4.346   1.133   7.540  0.1652  1.0906 -0.6073
  670MOL0     C90335   4.450   1.190   7.642  0.0786 -0.6903  0.8879
  670MOL0     C90336   4.562   1.090   7.656  0.1643 -0.0517  0.6970
  670MOL0     C90337   4.683   1.149   7.730 -0.1370 -1.5101 -1.0632
  670MOL0     C90338   4.780   1.228   7.632 -0.6172 -0.4060 -0.0867
  670MOL0     O90339   4.854   1.131   7.568  0.6658 -0.0390 -0.4154
  670MOL0     C90340   4.939   1.047   7.630 -0.4611  0.1133 -0.1528
  670MOL0     C90341   4.991   1.060   7.763 -0.3706 -0.1181  0.1041
  670MOL0     C90342   5.095   0.970   7.809 -0.0296 -0.0867 -0.1294
  670MOL0     C90343   5.143   1.009   7.941  0.4548  0.4193 -0.0122
  670MOL0     C90344   5.141   0.866   7.722 -0.1803  0.4354 -0.8716
  670MOL0     C90345   5.254   0.770   7.754 -0.6243  0.9371 -0.4176
  670MOL0     O90346   5.301   0.694   7.655  0.2560  0.3636  0.7479
  670MOL0     C90347   5.396   0.608   7.671 -0.2178  0.3255 -0.0475
  670MOL0     C90348   5.510   0.632   7.593  0.0838  0.7592  0.2630
  670MOL0     C90349   5.619   0.546   7.593 -0.7318 -0.4615  0.3404
  670MOL0     C90350   5.620   0.438   7.687  0.5179 -0.4816  0.5102
  670MOL0     O90351   5.719   0.341   7.688  0.1265  0.3351  0.3809
  670MOL0     C90352   5.759   0.276   7.806 -0.1464 -0.6047  0.2809
  670MOL0     C90353   5.900   0.212   7.787 -0.2031 -0.6552  0.6219
  670MOL0     C90354   5.995   0.315   7.743  0.1493  0.1584  0.2490
  670MOL0     C90355   6.142   0.271   7.758  0.1144  0.4890  0.4359
  670MOL0     C90356   6.231   0.368   7.670  0.0622  0.6649 -0.9621
  670MOL0     C90357   6.377   0.340   7.669  0.3259  0.5768 -1.4097
  670MOL0     C90358   6.425   0.354   7.816  0.3202  0.9180 -0.2494
  670MOL0     C90359   6.570   0.379   7.819 -0.4907  0.2374 -0.1424
  670MOL0    Cl90360   6.618   0.520   7.715 -0.7633 -0.0204 -0.4104
  670MOL0     C90361   5.502   0.408   7.753 -0.0102  0.2081 -0.4930
  670MOL0     C90362   5.394   0.494   7.753 -0.2860  0.1574 -0.4528
  670MOL0     O90363   5.299   0.772   7.869 -0.6321 -0.6371  0.4400
  670MOL0     C90364   5.077   0.850   7.595  0.4222  0.3476 -0.3367
  670MOL0     C90365   4.980   0.942   7.545 -0.4533  0.0847 -0.4127
  670MOL0     N90366   4.333   1.006   7.475 -0.2418 -0.5296 -0.4128
  670MOL0     N90367   4.227   1.015   7.415  0.9319 -0.1133 -0.7013
  670MOL0     C90368   3.129   0.847   7.186  0.3824  0.7560  0.5929
  670MOL0     C90369   3.009   0.778   7.202  0.9213 -0.7199 -0.6614
  670MOL0     C90370   2.586   0.701   7.292  0.2238  0.0844 -0.8228
  670MOL0     C90371   2.473   0.765   7.236 -0.3918 -0.0463  0.2541
  670MOL0     C90372   2.336   0.717   7.254  0.0880 -0.0556  0.7882
  670MOL0     C90373   2.312   0.600   7.318  0.3453 -0.1727 -0.2813
  670MOL0     O90374   2.184   0.557   7.326 -0.4032  0.3678  0.2690
  670MOL0     C90375   2.160   0.422   7.342 -0.1064 -0.2150  0.0761
  670MOL0     C90376   2.203   0.344   7.218  0.2049  0.2614 -0.8332
  670MOL0     C90377   2.115   0.368   7.095 -0.7052  0.5008  0.3726
  670MOL0     C90378   2.162   0.260   6.989 -0.9884 -0.0575 -0.7399
  670MOL0     C90379   2.072   0.273   6.874  0.6387  0.8225  0.1331
  670MOL0     C90380   1.987   0.271   6.785 -0.8613 -0.5140  0.7183
  670MOL0     C90381   2.427   0.534   7.374  0.9613  0.6767  0.7079
  670MOL0     C90382   2.555   0.585   7.363 -0.3338  0.2042  0.8013
  670MOL0     H90383   2.995   0.773   7.540 -1.1377  2.9267  0.0683
  670MOL0     H90384   3.224   0.865   7.509  0.1528 -0.9952  0.6633
  670MOL0     H90385   3.430   0.800   7.400  1.5479 -0.4464 -0.0703
  670MOL0     H90386   3.440   0.774   7.217  0.4003  0.0613 -0.5405
  670MOL0     H90387   3.651   0.838   7.311  0.4426  0.4515  0.0176
  670MOL0     H90388   3.576   0.963   7.197  3.7061 -1.0331  0.3983
  670MOL0     H90389   3.495   1.111   7.386 -1.6510 -0.8773  3.1759
  670MOL0     H90390   3.570   0.990   7.488 -0.7020 -0.0645  0.2153
  670MOL0     H90391   3.781   1.045   7.426 -0.1627 -1.9204 -0.4217
  670MOL0     H90392   3.742   1.117   7.264 -1.1577  2.3232  0.5760
  670MOL0     H90393   3.627   1.315   7.395  0.6517  1.2296  0.6557
  670MOL0     H90394   3.711   1.246   7.525 -1.9773 -0.2150 -0.4324
  670MOL0     H90395   3.849   1.325   7.276  0.4904 -1.2978  0.3934
  670MOL0     H90396   3.822   1.430   7.413  2.3440  1.6641 -1.7524
  670MOL0     H90397   4.014   1.374   7.444  0.5282 -0.2975  1.4933
  670MOL0     H90398   3.942   1.255   7.555 -0.0673 -3.0259 -0.7909
  670MOL0     H90399   4.053   1.219   7.273  0.4294  1.4931  0.9232
  670MOL0     H90400   3.981   1.084   7.363  1.5284 -1.9938  2.0569
  670MOL0     H90401   4.233   1.312   7.553  0.2028  0.9434  0.5877
  670MOL0     H90402   4.486   1.287   7.605 -2.7822  1.4021  3.1255
  670MOL0     H90403   4.406   1.218   7.738 -1.7696 -0.8137  0.1061
  670MOL0     H90404   4.585   1.050   7.557 -1.1027  0.2041  0.2847
  670MOL0     H90405   4.516   1.012   7.717  0.3977  0.6039  1.7510
  670MOL0     H90406   4.730   1.075   7.794 -1.7132 -1.7593 -0.1386
  670MOL0     H90407   4.654   1.226   7.802  2.1766 -0.5080 -1.1041
  670MOL0     H90408   4.843   1.296   7.692  0.0013  0.3244 -1.5184
  670MOL0     H90409   4.725   1.277   7.552  1.1466 -0.1502 -1.1987
  670MOL0     H90410   4.950   1.136   7.829  0.6623 -0.5722  1.2934
  670MOL0     H90411   5.136   0.920   8.004 -2.9058  0.3392 -0.3125
  670MOL0     H90412   5.241   1.058   7.942 -0.1764  1.7037  0.8655
  670MOL0     H90413   5.070   1.071   7.994  1.3469  0.9751  0.5919
  670MOL0     H90414   5.503   0.720   7.529 -0.3836 -0.6398 -1.7040
  670MOL0     H90415   5.694   0.552   7.514 -2.0526 -0.6505 -0.9756
  670MOL0     H90416   5.770   0.361   7.875 -2.0921  0.6482 -0.8276
  670MOL0     H90417   5.693   0.203   7.854 -1.5022  1.2195  1.3469
  670MOL0     H90418   5.933   0.166   7.881  3.5633 -1.7184 -1.0445
  670MOL0     H90419   5.884   0.135   7.711 -1.0893  0.0835  0.0452
  670MOL0     H90420   5.973   0.400   7.809 -0.4541 -0.3854  0.7662
  670MOL0     H90421   5.984   0.352   7.641  1.4037  0.3010  0.1511
  670MOL0     H90422   6.161   0.281   7.865  0.5020 -2.9192  0.7988
  670MOL0     H90423   6.162   0.164   7.743  2.7330  1.1268 -1.2978
  670MOL0     H90424   6.219   0.470   7.709  1.4179 -0.2982  2.3400
  670MOL0     H90425   6.193   0.359   7.568  0.4048 -3.1602 -0.9049
  670MOL0     H90426   6.387   0.241   7.622 -3.8198 -0.8718  0.3483
  670MOL0     H90427   6.421   0.423   7.612  3.1481  1.2762  1.5137
  670MOL0     H90428   6.410   0.256   7.862  0.6881  0.4448 -1.1091
  670MOL0     H90429   6.389   0.434   7.882  1.1445  1.0460  0.0591
  670MOL0     H90430   6.617   0.286   7.785 -0.3241  0.7703 -1.4105
  670MOL0     H90431   6.609   0.402   7.919  1.5920 -1.8222 -0.3924
  670MOL0     H90432   5.494   0.308   7.796  3.6345 -0.8121 -1.8391
  670MOL0     H90433   5.301   0.473   7.806 -1.0326  1.5580 -1.1822
  670MOL0     H90434   5.112   0.773   7.526  1.4258 -0.3128  0.8797
  670MOL0     H90435   4.933   0.947   7.447 -1.5324 -0.3074  0.0756
  670MOL0     H90436   3.157   0.861   7.082 -3.6998 -0.7770 -0.8956
  670MOL0     H90437   2.937   0.765   7.122  0.4449 -0.8025 -0.2223
  670MOL0     H90438   2.481   0.848   7.167 -3.1224 -1.3470 -1.8190
  670MOL0     H90439   2.255   0.774   7.210 -0.0095 -0.6723  0.1586
  670MOL0     H90440   2.199   0.371   7.431 -2.8671 -1.5251  0.6361
  670MOL0     H90441   2.053   0.410   7.360  0.4899 -1.6956  3.4576
  670MOL0     H90442   2.187   0.240   7.248 -1.5936  0.5206 -0.8078
  670MOL0     H90443   2.308   0.368   7.196  0.7042  2.1861  2.7293
  670MOL0     H90444   2.121   0.467   7.048 -2.3164  0.1473 -0.6523
  670MOL0     H90445   2.009   0.358   7.123 -0.9611 -2.4597 -1.2461
  670MOL0     H90446   2.142   0.162   7.034  0.1740  0.0035 -0.0500
  670MOL0     H90447   2.263   0.283   6.953 -2.8547  1.1739 -6.0938
  670MOL0     H90448   1.912   0.283   6.709  1.9655 -1.3001 -2.4604
  670MOL0     H90449   2.408   0.442   7.428  3.2195  0.9350  2.0791
  670MOL0     H90450   2.637   0.538   7.416  0.7604  2.6410  1.3961
  671MOL0     O90451   3.891   8.141   5.888  0.8500 -0.3803  0.5141
  671MOL0     C90452   3.791   8.109   5.951  0.0892 -0.6820  0.5645
  671MOL0     O90453   3.781   8.035   6.065  0.2924 -0.6363  0.3876
  671MOL0     C90454   3.888   7.999   6.138 -0.5301 -0.0781  0.4000
  671MOL0     C90455   3.914   7.863   6.160 -0.4180  0.0185 -0.9719
  671MOL0     C90456   4.013   7.818   6.248  0.2046 -0.6231 -0.2499
  671MOL0     C90457   4.090   7.914   6.317 -0.8230  0.5789 -0.0388
  671MOL0     O90458   4.186   7.875   6.403 -0.3060  0.2531 -0.3319
  671MOL0     C90459   4.314   7.850   6.341  0.6273  0.6131 -0.0986
  671MOL0     C90460   4.400   7.750   6.420 -0.5986 -0.1182 -1.1001
  671MOL0     C90461   4.345   7.609   6.434 -0.0210 -0.5809  0.2262
  671MOL0     C90462   4.463   7.518   6.481 -0.1186  1.0612 -0.8130
  671MOL0     C90463   4.427   7.369   6.481  0.5203  0.4101 -0.8395
  671MOL0     C90464   4.543   7.280   6.539  0.7217  0.8962  0.4046
  671MOL0     C90465   4.490   7.136   6.540  0.3413  0.0582  0.4541
  671MOL0     C90466   4.369   7.110   6.633  1.5239  0.0007  1.0037
  671MOL0     N90467   4.355   6.964   6.670 -0.0132 -0.4098  0.4811
  671MOL0     C90468   4.330   6.855   6.590 -0.2610  0.4452  0.9160
  671MOL0     C90469   4.356   6.744   6.661  0.2454  0.2557  0.5072
  671MOL0     C90470   4.347   6.598   6.635 -0.0602  0.3160 -0.5338
  671MOL0     C90471   4.219   6.535   6.712 -0.5370 -1.4216  0.6256
  671MOL0     C90472   4.085   6.617   6.693 -0.0092 -0.6972 -0.6097
  671MOL0     C90473   3.973   6.535   6.759 -0.3337  0.3951 -0.1612
  671MOL0     O90474   4.002   6.494   6.896 -0.4968 -0.8937 -0.9429
  671MOL0     C90475   3.917   6.391   6.936  0.0229  0.2102 -0.8334
  671MOL0     C90476   3.944   6.259   6.899 -0.2667 -0.0241 -0.5806
  671MOL0     C90477   3.876   6.154   6.959  0.1711  0.1900 -0.7944
  671MOL0     C90478   3.914   6.018   6.904  0.2480  0.4446  0.1769
  671MOL0     C90479   3.784   6.166   7.061 -0.3361  0.9302 -0.0708
  671MOL0     C90480   3.704   6.062   7.126  0.0403  0.6270 -0.6848
  671MOL0     O90481   3.654   6.086   7.253 -0.9096 -0.3160  0.2063
  671MOL0     C90482   3.564   6.009   7.315 -0.4634  0.0120 -0.4544
  671MOL0     C90483   3.459   5.934   7.253  0.4083 -0.4409  0.0050
  671MOL0     C90484   3.367   5.864   7.335  1.2280 -0.5311  0.6909
  671MOL0     C90485   3.370   5.858   7.475  0.0601 -0.3343 -1.7612
  671MOL0     O90486   3.304   5.766   7.560  0.0754 -0.4734  0.3875
  671MOL0     C90487   3.179   5.703   7.529 -0.3605 -0.3240 -0.2781
  671MOL0     C90488   3.112   5.640   7.653 -0.2265 -0.2682 -0.6118
  671MOL0     C90489   2.979   5.587   7.598 -0.4045  0.2358  0.8823
  671MOL0     C90490   2.877   5.542   7.697  0.1286 -0.9361  0.0781
  671MOL0     C90491   2.800   5.420   7.659 -0.2869 -0.2747 -0.0761
  671MOL0     C90492   2.869   5.283   7.667 -0.1095  0.4210 -0.1313
  671MOL0     C90493   2.923   5.248   7.805 -0.0529  0.6829  0.0560
  671MOL0     C90494   2.979   5.110   7.793 -1.0649 -0.0359  0.3403
  671MOL0    Cl90495   3.048   5.064   7.952 -0.0839  0.1321 -0.1513
  671MOL0     C90496   3.477   5.937   7.534 -0.7643  0.2877  0.0932
  671MOL0     C90497   3.567   6.014   7.457  1.4953  0.3313 -1.0948
  671MOL0     O90498   3.680   5.966   7.051 -0.5049 -0.1437 -0.7984
  671MOL0     C90499   3.762   6.294   7.107 -0.3911  0.0506  0.0652
  671MOL0     C90500   3.830   6.403   7.046  0.3097 -0.2488 -1.0429
  671MOL0     N90501   4.382   6.788   6.794  0.9043  0.7097  0.1216
  671MOL0     N90502   4.377   6.921   6.795  0.6870 -0.8508  0.0674
  671MOL0     C90503   4.083   8.049   6.275  0.6542 -0.2085 -0.7600
  671MOL0     C90504   3.978   8.096   6.197  0.0439  0.0104  0.6097
  671MOL0     C90505   3.664   8.163   5.909 -0.6588 -0.0865  0.5668
  671MOL0     C90506   3.546   8.121   5.948  0.2041 -0.5500  0.4694
  671MOL0     C90507   3.422   8.176   5.900 -0.1299  0.3064  0.6074
  671MOL0     C90508   3.423   8.278   5.808  1.4680  0.3622  0.0471
  671MOL0     O90509   3.305   8.337   5.774  0.8723  0.4674 -0.4262
  671MOL0     C90510   3.290   8.471   5.718  0.3957 -0.4925  0.7860
  671MOL0     C90511   3.156   8.489   5.649 -0.5727  0.0808 -0.4603
  671MOL0     C90512   3.145   8.379   5.544 -0.1491  0.2663 -0.0076
  671MOL0     C90513   3.022   8.384   5.465  0.0861 -0.0876  0.0667
  671MOL0     C90514   3.029   8.494   5.365 -0.0608  0.1854  0.4880
  671MOL0     C90515   3.017   8.583   5.282  0.1139  0.2811  0.3972
  671MOL0     C90516   3.549   8.327   5.766  0.6341  0.6860 -0.6013
  671MOL0     C90517   3.666   8.268   5.818  0.1552 -0.6875  0.0591
  671MOL0     H90518   3.850   7.791   6.110  1.0333 -3.1107  1.3452
  671MOL0     H90519   4.023   7.711   6.263 -1.9890 -1.6425 -4.4894
  671MOL0     H90520   4.300   7.798   6.245  0.9368  0.2129  0.0695
  671MOL0     H90521   4.372   7.940   6.317 -0.2930  0.9414 -1.1679
  671MOL0     H90522   4.497   7.749   6.369 -0.1436 -1.2489 -0.2394
  671MOL0     H90523   4.418   7.793   6.519  0.6805 -1.3531 -0.7740
  671MOL0     H90524   4.268   7.600   6.511  1.3113 -0.8445  1.5776
  671MOL0     H90525   4.302   7.574   6.340  5.1605 -1.0459 -2.2788
  671MOL0     H90526   4.551   7.529   6.417  2.7665  0.0756  2.6964
  671MOL0     H90527   4.501   7.532   6.582  3.6366 -2.1868 -1.5271
  671MOL0     H90528   4.342   7.372   6.551  0.6972 -0.2039 -0.5918
  671MOL0     H90529   4.403   7.327   6.383  3.9914  0.9205 -2.0521
  671MOL0     H90530   4.626   7.281   6.468  0.1369 -1.1795 -0.3854
  671MOL0     H90531   4.584   7.320   6.632  0.2941  0.8544  0.6112
  671MOL0     H90532   4.466   7.094   6.443  0.8851  0.1370  0.2799
  671MOL0     H90533   4.575   7.075   6.573  0.1721 -1.9664 -2.4918
  671MOL0     H90534   4.274   7.147   6.595  0.9185  0.6728  3.0500
  671MOL0     H90535   4.383   7.169   6.725 -0.4736  1.5519  0.3801
  671MOL0     H90536   4.299   6.861   6.486  0.3359 -0.2275  0.6936
  671MOL0     H90537   4.322   6.570   6.532  0.8145 -1.9430 -0.1801
  671MOL0     H90538   4.430   6.529   6.654  0.3406  0.0902 -2.8537
  671MOL0     H90539   4.242   6.534   6.819  0.0695 -1.5390  0.5007
  671MOL0     H90540   4.214   6.432   6.677  2.9591 -1.5475  0.1056
  671MOL0     H90541   4.071   6.620   6.584  0.5297 -1.7293 -0.7274
  671MOL0     H90542   4.099   6.713   6.742  3.2316 -1.0271 -0.6209
  671MOL0     H90543   3.957   6.441   6.705 -1.1059 -0.4140  1.3818
  671MOL0     H90544   3.878   6.589   6.768  0.6549  1.9154  2.2726
  671MOL0     H90545   4.021   6.249   6.823 -0.3760  2.1631 -1.0431
  671MOL0     H90546   3.822   5.972   6.867 -0.3318  0.5596  1.4322
  671MOL0     H90547   3.978   6.024   6.815  1.4410  5.9680  1.0222
  671MOL0     H90548   3.965   5.960   6.981  2.3357  0.4095 -1.1676
  671MOL0     H90549   3.451   5.930   7.145 -1.0433 -0.7563  0.1121
  671MOL0     H90550   3.284   5.817   7.283  0.8501 -1.7950  2.3545
  671MOL0     H90551   3.108   5.770   7.480 -2.9736 -0.7902  2.5753
  671MOL0     H90552   3.194   5.614   7.466 -0.5808 -0.6827  0.1684
  671MOL0     H90553   3.175   5.567   7.704  0.9310  2.0521  1.4997
  671MOL0     H90554   3.101   5.723   7.723 -0.9528  2.8729 -4.0872
  671MOL0     H90555   3.004   5.506   7.530 -0.0220  1.5840 -0.6589
  671MOL0     H90556   2.932   5.667   7.540  0.0957 -0.7387 -0.9627
  671MOL0     H90557   2.930   5.524   7.791  5.3909 -1.1141 -2.5745
  671MOL0     H90558   2.809   5.627   7.713  1.8829  0.5802 -0.2745
  671MOL0     H90559   2.762   5.432   7.557 -1.1892 -0.6395  0.2055
  671MOL0     H90560   2.711   5.421   7.722  1.2954  3.2825  2.4376
  671MOL0     H90561   2.807   5.200   7.630  0.2172 -0.4027  1.1153
  671MOL0     H90562   2.953   5.288   7.597  2.4274 -1.8960  2.4767
  671MOL0     H90563   2.855   5.237   7.890 -3.2531 -3.7177 -2.6905
  671MOL0     H90564   3.012   5.305   7.833  3.1766 -5.6354  5.2038
  671MOL0     H90565   3.055   5.089   7.717 -1.0736  1.6857 -0.1784
  671MOL0     H90566   2.906   5.033   7.767  1.1672 -2.5729  1.0976
  671MOL0     H90567   3.481   5.938   7.642 -0.9776 -1.0892  0.1355
  671MOL0     H90568   3.638   6.069   7.518 -2.0940  1.9076  2.0715
  671MOL0     H90569   3.687   6.318   7.182  1.9353 -0.6911  2.8065
  671MOL0     H90570   3.808   6.504   7.078  0.1570 -1.0227  1.4576
  671MOL0     H90571   4.146   8.130   6.311 -0.8658 -0.2930  2.3758
  671MOL0     H90572   3.973   8.203   6.181  1.8659 -0.1329 -1.4120
  671MOL0     H90573   3.543   8.053   6.032 -0.3910 -0.1422  0.7880
  671MOL0     H90574   3.329   8.134   5.939 -1.0742  1.3183 -0.4907
  671MOL0     H90575   3.292   8.542   5.801 -3.9395  0.9762 -0.1236
  671MOL0     H90576   3.370   8.489   5.646  1.3533 -3.4393  0.9741
  671MOL0     H90577   3.159   8.591   5.610  0.1747  0.7487  1.2680
  671MOL0     H90578   3.072   8.482   5.718 -0.6903  0.0586 -0.6050
  671MOL0     H90579   3.148   8.279   5.589 -2.5816 -1.1185 -2.5983
  671MOL0     H90580   3.231   8.382   5.476 -0.5689  0.8036 -0.5139
  671MOL0     H90581   2.929   8.403   5.519  0.8402 -0.1733  1.4531
  671MOL0     H90582   2.994   8.300   5.401  0.4081  0.4573 -0.8154
  671MOL0     H90583   3.009   8.640   5.192  1.0572 -1.2455 -0.6942
  671MOL0     H90584   3.562   8.410   5.696 -0.2865 -1.4543 -3.5090
  671MOL0     H90585   3.756   8.312   5.776 -0.3685  1.2499  0.8816
  672MOL0     O90586   3.850   7.394  10.952 -0.1764 -1.2565 -0.2567
  672MOL0     C90587   3.839   7.442  11.065 -0.1874 -0.0600 -0.2886
  672MOL0     O90588   3.736   7.419  11.145 -0.2328 -0.4716 -0.6484
  672MOL0     C90589   3.649   7.318  11.108 -0.1811  0.0729 -0.3052
  672MOL0     C90590   3.664   7.185  11.150  0.0002  0.5350 -0.6430
  672MOL0     C90591   3.585   7.085  11.090  0.5442 -0.7090  0.2091
  672MOL0     C90592   3.478   7.118  11.010 -1.2196 -0.0046 -0.2198
  672MOL0     O90593   3.424   7.019  10.938 -0.0660 -0.0692 -0.0134
  672MOL0     C90594   3.389   7.037  10.802  1.3888 -0.8340  0.2055
  672MOL0     C90595   3.387   6.915  10.710  1.2087 -0.6948  0.1786
  672MOL0     C90596   3.333   6.953  10.573 -0.5787  0.3760 -0.7080
  672MOL0     C90597   3.331   6.834  10.484  0.5198  1.0140  0.4003
  672MOL0     C90598   3.264   6.867  10.346 -0.0503 -0.1432  1.3607
  672MOL0     C90599   3.272   6.742  10.251  0.2768 -0.6963  0.2478
  672MOL0     C90600   3.202   6.778  10.114  0.5623  0.0887 -0.1267
  672MOL0     C90601   3.184   6.647  10.023  0.6977 -0.1509 -0.0403
  672MOL0     N90602   3.074   6.680   9.931 -0.1141 -0.3281 -0.2505
  672MOL0     C90603   2.939   6.665   9.944 -0.3588  0.5187  0.1127
  672MOL0     C90604   2.885   6.708   9.837  1.1136  0.3695 -0.3540
  672MOL0     C90605   2.735   6.738   9.822 -0.3776 -0.8994  0.8322
  672MOL0     C90606   2.703   6.876   9.854  0.7227 -0.4825  0.7739
  672MOL0     C90607   2.694   6.981   9.747 -0.5128 -0.2406  1.1133
  672MOL0     C90608   2.819   7.007   9.664  1.1976  0.1819  0.5448
  672MOL0     O90609   2.782   7.097   9.561  0.3504 -0.6189 -0.1237
  672MOL0     C90610   2.863   7.201   9.519  0.5318  0.3953 -1.5075
  672MOL0     C90611   2.799   7.312   9.460 -1.2175  0.8530  0.5591
  672MOL0     C90612   2.870   7.426   9.411 -0.5352  0.3663 -0.7914
  672MOL0     C90613   2.791   7.529   9.324 -0.1256  0.7205  0.3251
  672MOL0     C90614   3.018   7.423   9.421 -0.5685  0.5154 -0.6368
  672MOL0     C90615   3.113   7.522   9.363 -0.1942  0.2200 -0.7501
  672MOL0     O90616   3.240   7.493   9.395 -0.2278 -0.0902  0.0893
  672MOL0     C90617   3.340   7.591   9.381 -0.2056  0.6001 -0.6225
  672MOL0     C90618   3.425   7.616   9.491 -0.0937  0.4523 -0.5501
  672MOL0     C90619   3.534   7.710   9.473 -0.4051 -0.1461 -1.1132
  672MOL0     C90620   3.548   7.790   9.360  1.1326  0.3973  0.2484
  672MOL0     O90621   3.638   7.893   9.351 -0.0547  0.0863 -0.6408
  672MOL0     C90622   3.634   7.982   9.465  0.9555  0.1853 -0.2746
  672MOL0     C90623   3.687   8.119   9.422  0.2525  0.0971 -0.2611
  672MOL0     C90624   3.685   8.217   9.530  0.0584 -0.5751 -0.0809
  672MOL0     C90625   3.743   8.360   9.519  0.7106  0.2028  0.6445
  672MOL0     C90626   3.893   8.375   9.493  0.1226  0.4795  0.0222
  672MOL0     C90627   3.922   8.525   9.481  0.7090 -0.1111 -0.0901
  672MOL0     C90628   4.075   8.551   9.462 -0.5675  0.1166  0.1851
  672MOL0     C90629   4.092   8.670   9.367  0.2246  0.2106  0.7913
  672MOL0    Cl90630   4.246   8.746   9.415 -0.0360 -0.0258  0.2519
  672MOL0     C90631   3.460   7.765   9.255  0.2669  0.7098  0.1095
  672MOL0     C90632   3.362   7.661   9.267 -0.7523  0.2775  1.1588
  672MOL0     O90633   3.075   7.627   9.315 -0.6878  0.3791 -0.5111
  672MOL0     C90634   3.075   7.309   9.487  0.1121 -0.3006  0.1891
  672MOL0     C90635   2.999   7.195   9.529 -0.9306  0.0978  0.0527
  672MOL0     N90636   2.981   6.753   9.747  0.1795  0.4070  0.5568
  672MOL0     N90637   3.092   6.732   9.801 -0.1651  0.2846 -0.0202
  672MOL0     C90638   3.460   7.249  10.976 -0.3661 -0.1181  0.3925
  672MOL0     C90639   3.545   7.348  11.025  0.2888 -0.0279  0.9824
  672MOL0     C90640   3.965   7.512  11.120  0.1586  0.1626  0.2764
  672MOL0     C90641   4.065   7.568  11.029  0.0785  0.2122 -0.1100
  672MOL0     C90642   4.162   7.644  11.091 -0.4455 -0.0755 -0.2076
  672MOL0     C90643   4.166   7.672  11.231  1.1930  0.0761 -0.3236
  672MOL0     O90644   4.273   7.747  11.278 -0.3059 -0.7847 -0.0518
  672MOL0     C90645   4.245   7.853  11.375 -0.6065 -0.6103  0.0567
  672MOL0     C90646   4.340   7.973  11.364 -1.0532  0.2428 -0.0724
  672MOL0     C90647   4.335   8.072  11.486 -0.6841  0.2351  0.2055
  672MOL0     C90648   4.435   8.189  11.469 -0.3347 -0.2447 -0.6612
  672MOL0     C90649   4.395   8.292  11.366  0.2374  0.6964  0.7601
  672MOL0     C90650   4.381   8.360  11.266 -0.8696 -0.6495  0.2072
  672MOL0     C90651   4.066   7.625  11.315  0.5927  1.1596 -0.2814
  672MOL0     C90652   3.967   7.544  11.261  0.7318  0.5251  0.3078
  672MOL0     H90653   3.746   7.167  11.219 -1.2000  1.5661  1.1328
  672MOL0     H90654   3.604   6.979  11.109 -0.9179 -1.3105 -1.3802
  672MOL0     H90655   3.287   7.078  10.808  1.5573 -0.5634  1.5095
  672MOL0     H90656   3.457   7.114  10.764 -0.0504  0.6208  0.4636
  672MOL0     H90657   3.490   6.879  10.701  0.6345 -2.1684 -0.9727
  672MOL0     H90658   3.327   6.834  10.755 -2.8486  1.8751 -0.1219
  672MOL0     H90659   3.240   7.011  10.578  1.5271  4.1507 -1.2276
  672MOL0     H90660   3.399   7.027  10.526 -2.5908  1.4258 -2.0032
  672MOL0     H90661   3.431   6.792  10.467 -0.6794 -2.6856  1.6463
  672MOL0     H90662   3.286   6.748  10.533  3.0852 -0.3536  0.5112
  672MOL0     H90663   3.159   6.895  10.352 -0.1421  0.4660 -1.7039
  672MOL0     H90664   3.309   6.960  10.310 -4.2726  1.2147 -1.1332
  672MOL0     H90665   3.374   6.707  10.232  1.6631  3.2025 -0.3869
  672MOL0     H90666   3.217   6.670  10.313 -1.5743  2.8102  3.1014
  672MOL0     H90667   3.108   6.825  10.145  0.5739  2.4790 -3.2644
  672MOL0     H90668   3.259   6.856  10.063 -1.0227  1.1485 -0.3659
  672MOL0     H90669   3.144   6.565  10.083  1.1107 -0.5290 -0.2774
  672MOL0     H90670   3.272   6.616   9.966  0.4477  0.2632 -0.6566
  672MOL0     H90671   2.888   6.641  10.036  0.7255 -1.3512  0.2722
  672MOL0     H90672   2.707   6.729   9.717  0.8504  0.2017  0.3866
  672MOL0     H90673   2.680   6.669   9.887  0.4996 -0.5345  2.0203
  672MOL0     H90674   2.773   6.900   9.934  1.9319 -2.0002  0.2332
  672MOL0     H90675   2.603   6.866   9.897  1.0296 -0.7928  1.4299
  672MOL0     H90676   2.669   7.075   9.797 -1.6185 -1.7466  3.5537
  672MOL0     H90677   2.613   6.947   9.681 -0.2705 -1.2852  1.3453
  672MOL0     H90678   2.854   6.913   9.620  2.9992  0.2188  1.7854
  672MOL0     H90679   2.906   7.044   9.717  2.0620  0.5023 -1.0250
  672MOL0     H90680   2.692   7.303   9.444 -0.8981 -5.2546 -0.6248
  672MOL0     H90681   2.849   7.618   9.300 -1.1495  0.9828 -1.3303
  672MOL0     H90682   2.757   7.485   9.230 -0.4799 -0.1005  0.8218
  672MOL0     H90683   2.701   7.555   9.381 -1.6261 -0.5162 -1.3654
  672MOL0     H90684   3.403   7.566   9.585 -1.9784  0.0625 -1.1672
  672MOL0     H90685   3.589   7.730   9.565  0.3626 -1.3827 -1.2915
  672MOL0     H90686   3.535   7.995   9.507 -0.0967  0.4231 -2.6385
  672MOL0     H90687   3.689   7.937   9.548 -0.2983  1.4309  1.2599
  672MOL0     H90688   3.790   8.112   9.387  0.0394 -0.9840 -0.7270
  672MOL0     H90689   3.611   8.143   9.346  0.5005 -2.9625 -1.6241
  672MOL0     H90690   3.746   8.180   9.613 -0.4512  1.3643  1.2328
  672MOL0     H90691   3.580   8.229   9.559 -0.2934 -1.0303 -1.1457
  672MOL0     H90692   3.689   8.413   9.439  1.0133 -1.0581 -0.4397
  672MOL0     H90693   3.725   8.407   9.616 -2.3080 -1.7729  1.2005
  672MOL0     H90694   3.924   8.323   9.401  3.5522 -0.7116  1.6883
  672MOL0     H90695   3.953   8.335   9.575  0.2191 -0.2523 -0.3964
  672MOL0     H90696   3.876   8.570   9.392 -2.8742 -0.1373  1.5904
  672MOL0     H90697   3.893   8.584   9.568  0.6010  1.3918 -1.0940
  672MOL0     H90698   4.133   8.466   9.425 -1.8535 -0.3606 -0.8337
  672MOL0     H90699   4.116   8.579   9.560  2.0096  2.2416 -1.3717
  672MOL0     H90700   4.017   8.749   9.384 -1.2773 -1.4111  2.0128
  672MOL0     H90701   4.091   8.642   9.261 -0.3588  1.4985  0.4327
  672MOL0     H90702   3.455   7.820   9.161  0.3349 -0.4227 -0.5763
  672MOL0     H90703   3.305   7.641   9.177  2.5764 -1.1946 -0.8305
  672MOL0     H90704   3.180   7.311   9.515  0.4571 -1.8878 -0.8302
  672MOL0     H90705   3.057   7.123   9.587  1.3742  0.9451 -1.0643
  672MOL0     H90706   3.386   7.266  10.898 -0.7512 -1.4002  0.4677
  672MOL0     H90707   3.516   7.451  11.010 -1.1057 -0.4586  0.6013
  672MOL0     H90708   4.065   7.561  10.921  1.1377  0.4209 -0.1362
  672MOL0     H90709   4.232   7.690  11.022  2.6116  0.9838  3.2693
  672MOL0     H90710   4.149   7.898  11.347 -1.5984 -1.7162  1.5374
  672MOL0     H90711   4.236   7.825  11.480 -1.4025  2.3797  0.8737
  672MOL0     H90712   4.295   8.032  11.283 -0.1373 -0.3710 -1.0595
  672MOL0     H90713   4.440   7.939  11.337 -1.1686 -1.4098  1.3869
  672MOL0     H90714   4.373   8.013  11.570 -0.6205 -1.4450 -0.9657
  672MOL0     H90715   4.232   8.106  11.494 -1.3157 -1.0590 -1.7867
  672MOL0     H90716   4.535   8.149  11.448  0.4397  1.3362 -0.1826
  672MOL0     H90717   4.443   8.233  11.569  0.0621  0.5364 -1.0236
  672MOL0     H90718   4.375   8.424  11.180 -1.0862 -0.0979  0.6275
  672MOL0     H90719   4.065   7.642  11.422  1.7539 -3.5471  0.6844
  672MOL0     H90720   3.886   7.507  11.323 -1.5305  4.4480  0.0325
  673MOL0     O90721   6.103  11.410   0.762  0.5012 -0.0785 -0.3704
  673MOL0     C90722   6.186  11.371   0.849  0.9286  0.1428 -0.7072
  673MOL0     O90723   6.151  11.318   0.971 -0.3428  0.3356 -0.4444
  673MOL0     C90724   6.027  11.292   0.987 -0.3885 -0.5307 -0.5373
  673MOL0     C90725   5.949  11.372   1.065 -0.1878 -0.4837 -0.1136
  673MOL0     C90726   5.811  11.358   1.081  0.5650  0.0069 -0.4055
  673MOL0     C90727   5.743  11.260   1.008  0.0049 -0.0699 -0.3146
  673MOL0     O90728   5.610  11.247   1.023 -0.4173 -0.2857  0.0518
  673MOL0     C90729   5.544  11.128   0.981 -0.0659 -0.3560 -0.1754
  673MOL0     C90730   5.398  11.161   0.989  0.0905 -0.2964  0.1029
  673MOL0     C90731   5.310  11.046   0.914  0.3224  0.2880 -0.2477
  673MOL0     C90732   5.156  11.066   0.946  0.3151 -0.5339  1.4512
  673MOL0     C90733   5.067  11.024   0.832  0.3720  0.2656 -0.1133
  673MOL0     C90734   4.931  10.975   0.886 -0.0744 -0.4678  0.5903
  673MOL0     C90735   4.865  11.048   1.001  0.0983 -0.1327 -0.2849
  673MOL0     C90736   4.791  11.183   0.950 -0.1982 -0.6703  0.4700
  673MOL0     N90737   4.654  11.189   1.005 -0.2647 -0.5514 -0.1082
  673MOL0     C90738   4.603  11.295   1.073  0.2754 -0.2618  0.8206
  673MOL0     C90739   4.474  11.250   1.106 -0.4861  0.2545 -0.2247
  673MOL0     C90740   4.386  11.326   1.204 -0.3074 -0.1640 -0.0439
  673MOL0     C90741   4.236  11.333   1.180  0.5537 -0.6753  0.5306
  673MOL0     C90742   4.158  11.436   1.259 -0.1631  0.8122  0.0556
  673MOL0     C90743   4.035  11.375   1.329 -0.2654 -0.4532 -0.5964
  673MOL0     O90744   3.944  11.486   1.345  0.3385  0.1743  0.4073
  673MOL0     C90745   3.827  11.481   1.264  0.6330  0.4793 -0.6839
  673MOL0     C90746   3.832  11.484   1.126 -0.3120 -1.3484 -0.4361
  673MOL0     C90747   3.708  11.498   1.054  0.4535  0.1718  0.3964
  673MOL0     C90748   3.720  11.532   0.905 -0.1901  0.6112 -0.6366
  673MOL0     C90749   3.584  11.480   1.114  0.1018 -0.0450  0.4329
  673MOL0     C90750   3.454  11.465   1.043 -0.5868 -1.2267 -0.6141
  673MOL0     O90751   3.460  11.423   0.912  0.1176  0.0768 -0.5456
  673MOL0     C90752   3.348  11.355   0.853  0.5199 -0.0818 -0.4577
  673MOL0     C90753   3.352  11.341   0.715 -0.2359  0.0440 -0.0699
  673MOL0     C90754   3.256  11.263   0.643 -0.2450 -0.3645 -1.1413
  673MOL0     C90755   3.147  11.212   0.714 -0.1801  0.8057  1.4016
  673MOL0     O90756   3.057  11.145   0.640  0.0018  0.1982 -0.2355
  673MOL0     C90757   3.021  11.009   0.677 -0.4939 -0.1640  0.0609
  673MOL0     C90758   3.006  10.939   0.548 -0.4055  0.6272 -0.0076
  673MOL0     C90759   2.879  10.984   0.471  0.8218 -0.7048 -0.0574
  673MOL0     C90760   2.765  10.900   0.524 -0.1516  0.0033  0.0346
  673MOL0     C90761   2.646  10.911   0.425  0.0816  0.5409 -0.1777
  673MOL0     C90762   2.586  11.056   0.453 -0.4972 -0.0627 -0.4386
  673MOL0     C90763   2.482  11.078   0.342 -1.0594 -0.4497 -0.4147
  673MOL0     C90764   2.451  11.228   0.345 -0.0935 -0.3045 -0.1873
  673MOL0    Cl90765   2.378  11.272   0.506 -0.2284  0.3585  0.1063
  673MOL0     C90766   3.136  11.230   0.853 -1.4620 -0.4058  0.6533
  673MOL0     C90767   3.234  11.312   0.913 -0.9032  0.5656  0.2627
  673MOL0     O90768   3.353  11.502   1.104 -1.1396  0.4698 -0.1037
  673MOL0     C90769   3.594  11.482   1.255 -0.2760 -0.1397 -0.0971
  673MOL0     C90770   3.707  11.483   1.331  0.7679  0.5591  0.1193
  673MOL0     N90771   4.448  11.131   1.039  0.5406 -0.2719 -0.1530
  673MOL0     N90772   4.557  11.092   0.997 -0.3005 -0.0463  0.0562
  673MOL0     C90773   5.820  11.172   0.933  0.0051  0.1243 -0.0549
  673MOL0     C90774   5.961  11.186   0.926  0.5219 -0.5208  0.6082
  673MOL0     C90775   6.336  11.371   0.825 -0.0749 -0.1117  0.0689
  673MOL0     C90776   6.379  11.385   0.699  0.0811  0.2779  0.4554
  673MOL0     C90777   6.515  11.399   0.672 -0.8847  0.7973  0.4660
  673MOL0     C90778   6.613  11.392   0.768  0.3032  0.7367 -0.2495
  673MOL0     O90779   6.746  11.413   0.762 -0.0929 -0.6978 -0.2767
  673MOL0     C90780   6.807  11.407   0.631 -0.1821  0.1206 -0.1627
  673MOL0     C90781   6.878  11.276   0.628  0.6184  0.6572  0.6107
  673MOL0     C90782   6.997  11.281   0.530 -0.3798 -0.3512 -0.4772
  673MOL0     C90783   7.042  11.132   0.500 -0.0424 -0.7367  0.0553
  673MOL0     C90784   7.125  11.136   0.377  0.2835  1.2243  0.1710
  673MOL0     C90785   7.172  11.128   0.269  0.2916 -0.4531 -0.8430
  673MOL0     C90786   6.573  11.358   0.894  0.1011  0.4109 -0.0128
  673MOL0     C90787   6.439  11.354   0.924  0.1277  0.1579 -0.0898
  673MOL0     H90788   5.989  11.452   1.127 -0.7739 -1.3958  1.4899
  673MOL0     H90789   5.758  11.416   1.157  0.1995 -0.9647  0.0985
  673MOL0     H90790   5.571  11.106   0.877 -2.9313  0.8446 -1.2722
  673MOL0     H90791   5.566  11.043   1.047 -1.4789  2.3153  4.1812
  673MOL0     H90792   5.357  11.169   1.090 -1.8619 -1.1268 -0.5763
  673MOL0     H90793   5.387  11.262   0.950 -0.1465  0.6318  2.3756
  673MOL0     H90794   5.336  11.077   0.812  0.7505  3.4082  0.7054
  673MOL0     H90795   5.346  10.949   0.948 -2.7821 -0.4842  1.1045
  673MOL0     H90796   5.149  10.991   1.024 -3.0993  0.6611  2.4622
  673MOL0     H90797   5.135  11.164   0.989  1.3681 -0.8108  2.6434
  673MOL0     H90798   5.053  11.113   0.770 -1.4621 -0.2019 -0.4272
  673MOL0     H90799   5.120  10.950   0.772  1.1717 -1.8103  2.9383
  673MOL0     H90800   4.861  10.968   0.802 -1.1932  1.4859  1.2794
  673MOL0     H90801   4.942  10.874   0.927 -1.8748 -0.8583  0.1956
  673MOL0     H90802   4.790  10.982   1.045 -0.9757  0.4023 -1.2635
  673MOL0     H90803   4.943  11.073   1.074  1.2718 -1.2065 -1.1296
  673MOL0     H90804   4.788  11.181   0.840 -2.3855  0.2996  0.4584
  673MOL0     H90805   4.847  11.265   0.996 -1.1435  0.8168 -0.9258
  673MOL0     H90806   4.649  11.387   1.110 -1.3765  1.2244 -0.6282
  673MOL0     H90807   4.401  11.290   1.306 -0.8706  2.3804  1.0228
  673MOL0     H90808   4.417  11.431   1.213 -2.8875  0.5253  1.6699
  673MOL0     H90809   4.198  11.237   1.216 -1.0929 -0.5451 -0.7615
  673MOL0     H90810   4.230  11.325   1.071  0.3236 -0.3036  0.5150
  673MOL0     H90811   4.134  11.514   1.186 -0.4671 -0.6909 -1.5120
  673MOL0     H90812   4.217  11.478   1.341 -0.8412  1.0802  0.4262
  673MOL0     H90813   4.068  11.337   1.426  3.5864  2.4077 -0.5494
  673MOL0     H90814   3.993  11.285   1.284  1.8250 -2.7809  1.7918
  673MOL0     H90815   3.930  11.486   1.080 -1.2809  1.7319 -2.7057
  673MOL0     H90816   3.819  11.573   0.882  0.3342 -0.2902 -0.0560
  673MOL0     H90817   3.706  11.451   0.833  0.4873 -0.5127  0.4641
  673MOL0     H90818   3.650  11.614   0.886 -1.4298  0.1477  1.5651
  673MOL0     H90819   3.430  11.389   0.657 -0.4543 -0.4721 -0.7951
  673MOL0     H90820   3.277  11.250   0.537  1.8757 -0.0770 -0.7973
  673MOL0     H90821   3.106  10.969   0.733  2.0151  2.7659 -1.4030
  673MOL0     H90822   2.935  10.996   0.744 -0.1519 -2.2563  0.1669
  673MOL0     H90823   3.090  10.965   0.484  0.3203  0.3200  0.8068
  673MOL0     H90824   2.997  10.831   0.561 -2.0906  0.8214  0.7551
  673MOL0     H90825   2.887  10.955   0.366 -1.3027 -3.7968  0.4959
  673MOL0     H90826   2.858  11.089   0.493  2.9594 -0.7686  3.0561
  673MOL0     H90827   2.799  10.796   0.531  0.6341  0.2698  0.3192
  673MOL0     H90828   2.742  10.934   0.626  1.8084  1.8993 -0.0875
  673MOL0     H90829   2.571  10.835   0.449  1.9596 -1.4944 -0.4753
  673MOL0     H90830   2.680  10.910   0.322 -1.7558  3.1170 -0.9145
  673MOL0     H90831   2.556  11.069   0.558  1.1167  0.0483  0.0357
  673MOL0     H90832   2.660  11.134   0.435  0.0903 -0.7768 -1.2119
  673MOL0     H90833   2.394  11.019   0.370 -1.2142 -1.2093 -2.3994
  673MOL0     H90834   2.513  11.051   0.241  1.2433 -1.7948  0.5628
  673MOL0     H90835   2.374  11.250   0.271 -2.1008 -0.8282  1.6405
  673MOL0     H90836   2.544  11.283   0.326 -1.2334  1.4081 -1.0706
  673MOL0     H90837   3.051  11.200   0.913 -0.0619 -1.6590  2.0881
  673MOL0     H90838   3.210  11.330   1.018 -0.6337  0.8564  0.2719
  673MOL0     H90839   3.505  11.480   1.317  1.0294 -3.7668  1.9424
  673MOL0     H90840   3.712  11.458   1.437  2.3484  0.0513 -0.0499
  673MOL0     H90841   5.791  11.082   0.879 -1.9157 -0.0188  1.1215
  673MOL0     H90842   6.018  11.123   0.859  1.8001 -0.5551  1.6890
  673MOL0     H90843   6.328  11.408   0.606  1.1037  2.1941  0.2991
  673MOL0     H90844   6.540  11.416   0.568  2.8524 -0.0825  1.0739
  673MOL0     H90845   6.745  11.431   0.544 -1.4260 -2.6726 -0.1425
  673MOL0     H90846   6.880  11.488   0.620 -2.2264  1.9518 -1.1246
  673MOL0     H90847   6.810  11.194   0.607 -0.2769  1.9013 -1.7235
  673MOL0     H90848   6.915  11.242   0.725  0.8216 -1.7458 -0.2347
  673MOL0     H90849   7.081  11.328   0.581 -0.8379  0.8150 -0.7566
  673MOL0     H90850   6.979  11.335   0.437  0.4336  0.7342 -0.0164
  673MOL0     H90851   6.949  11.074   0.499  0.1201 -1.0248  0.7239
  673MOL0     H90852   7.103  11.100   0.585  1.1971  0.2968 -0.4207
  673MOL0     H90853   7.202  11.111   0.167  1.8777 -3.6018  0.0127
  673MOL0     H90854   6.646  11.352   0.974  1.4814 -0.6250 -1.2664
  673MOL0     H90855   6.414  11.339   1.028 -0.1932 -4.1387 -0.5932
  674MOL0     O90856   1.079   5.349   4.468 -0.7585  0.1333 -0.3339
  674MOL0     C90857   1.185   5.406   4.442 -0.7416  0.2591 -0.1611
  674MOL0     O90858   1.265   5.377   4.341  0.4629  0.4551 -0.0979
  674MOL0     C90859   1.220   5.285   4.256 -0.3318  0.1279  0.1862
  674MOL0     C90860   1.225   5.149   4.283  0.0702 -0.0520 -1.1722
  674MOL0     C90861   1.190   5.051   4.189  0.8789  0.0960 -1.2264
  674MOL0     C90862   1.162   5.091   4.057  0.9438  0.8536  0.6831
  674MOL0     O90863   1.128   5.010   3.953  0.3687  1.0972 -0.2174
  674MOL0     C90864   1.166   4.868   3.960 -0.0615  0.0368  0.1013
  674MOL0     C90865   1.066   4.797   3.859 -0.6854 -0.0444 -0.0444
  674MOL0     C90866   1.105   4.826   3.718  0.2747  0.1617 -0.2576
  674MOL0     C90867   1.040   4.734   3.624  0.0876 -0.9827  0.0925
  674MOL0     C90868   1.048   4.776   3.471 -0.7281 -0.3599  0.1218
  674MOL0     C90869   1.195   4.766   3.413 -0.2138  0.9361  0.0167
  674MOL0     C90870   1.205   4.808   3.266  0.3060 -0.2878 -0.2632
  674MOL0     C90871   1.341   4.786   3.201 -0.6155 -0.5160 -0.1119
  674MOL0     N90872   1.388   4.877   3.094  0.4167 -0.2477  0.5821
  674MOL0     C90873   1.333   4.995   3.044  0.0150 -0.1752 -0.4629
  674MOL0     C90874   1.427   5.040   2.957 -1.0060 -0.5032 -0.8698
  674MOL0     C90875   1.404   5.174   2.893  0.0899 -0.3248 -0.7639
  674MOL0     C90876   1.272   5.179   2.816 -1.0053  0.9312 -0.1140
  674MOL0     C90877   1.250   5.324   2.766  0.1358 -0.1863  1.2494
  674MOL0     C90878   1.335   5.364   2.646  0.1714  0.3105  0.5207
  674MOL0     O90879   1.300   5.297   2.522 -0.7009 -0.5147 -0.5653
  674MOL0     C90880   1.372   5.303   2.407  0.1225 -0.5450  0.1590
  674MOL0     C90881   1.489   5.386   2.382  0.1312  0.0360 -0.3071
  674MOL0     C90882   1.545   5.403   2.256 -0.3526 -0.2340  0.1655
  674MOL0     C90883   1.670   5.486   2.248 -0.6146  1.5231 -0.4450
  674MOL0     C90884   1.482   5.341   2.147  0.0159 -0.0542 -0.6947
  674MOL0     C90885   1.522   5.355   2.016  0.6306  0.2641  0.9168
  674MOL0     O90886   1.482   5.254   1.917  0.3917 -0.9349 -0.0970
  674MOL0     C90887   1.518   5.287   1.793  0.1517 -0.1666  0.9412
  674MOL0     C90888   1.649   5.328   1.738 -0.3270 -0.7078  0.4717
  674MOL0     C90889   1.654   5.381   1.604  0.0596 -0.6456 -0.0310
  674MOL0     C90890   1.541   5.377   1.526  0.5082 -0.7408  0.0849
  674MOL0     O90891   1.575   5.411   1.397 -0.1114 -0.5396  0.1480
  674MOL0     C90892   1.500   5.386   1.283  0.6777  0.9273  0.1904
  674MOL0     C90893   1.489   5.513   1.209  0.6595 -0.6342  1.2052
  674MOL0     C90894   1.379   5.511   1.102 -1.1566 -0.2092 -0.5087
  674MOL0     C90895   1.315   5.645   1.079 -0.1820  1.1888  0.1427
  674MOL0     C90896   1.214   5.648   0.970 -0.0226 -0.3371  0.1084
  674MOL0     C90897   1.181   5.792   0.927 -0.4056  0.8571  0.1308
  674MOL0     C90898   1.062   5.803   0.832 -0.1411  0.6785  0.1166
  674MOL0     C90899   1.013   5.948   0.815 -0.5462  0.2175 -0.7692
  674MOL0    Cl90900   0.889   5.962   0.687 -0.0264  0.0894  0.3247
  674MOL0     C90901   1.417   5.342   1.577  0.0412  0.5820  0.2958
  674MOL0     C90902   1.402   5.292   1.707  0.3072  0.2015 -0.2730
  674MOL0     O90903   1.580   5.461   1.988 -0.9926  0.9331  0.5526
  674MOL0     C90904   1.371   5.256   2.166  0.2990 -0.7373  0.0684
  674MOL0     C90905   1.311   5.243   2.294  0.1478 -0.1595 -0.2518
  674MOL0     N90906   1.534   4.955   2.943 -0.2894  1.0951 -0.8915
  674MOL0     N90907   1.505   4.852   3.027 -0.4491  0.6001  0.2444
  674MOL0     C90908   1.161   5.224   4.025 -0.3300  0.0304 -0.7454
  674MOL0     C90909   1.184   5.321   4.120  0.7760 -0.7420 -0.5118
  674MOL0     C90910   1.222   5.509   4.541  0.1120 -0.3691 -0.7255
  674MOL0     C90911   1.142   5.545   4.651  0.7751 -0.3859 -0.2717
  674MOL0     C90912   1.184   5.647   4.736  0.6382  0.8531  0.3902
  674MOL0     C90913   1.315   5.695   4.728 -0.2375  0.1163 -0.0918
  674MOL0     O90914   1.379   5.769   4.829  0.4968 -0.1197  0.7465
  674MOL0     C90915   1.305   5.807   4.938 -0.1674  0.3484  0.4983
  674MOL0     C90916   1.286   5.688   5.036  0.1014 -0.1726 -0.7728
  674MOL0     C90917   1.394   5.688   5.144  1.1704  0.1380  0.1778
  674MOL0     C90918   1.540   5.710   5.100  0.2228  0.4123  0.9244
  674MOL0     C90919   1.624   5.666   5.206 -0.7435 -0.0933 -0.2000
  674MOL0     C90920   1.693   5.628   5.292 -0.3670  0.0149 -0.1141
  674MOL0     C90921   1.395   5.670   4.616  0.4908 -0.9175  0.1029
  674MOL0     C90922   1.346   5.573   4.527 -0.5963 -0.5784  0.2188
  674MOL0     H90923   1.273   5.117   4.375  1.0773  2.5391 -0.7173
  674MOL0     H90924   1.188   4.946   4.216  0.0724  1.1661  3.7174
  674MOL0     H90925   1.272   4.853   3.938 -0.6424 -1.0401 -2.3322
  674MOL0     H90926   1.137   4.830   4.058 -2.8691  0.4720 -0.4757
  674MOL0     H90927   1.062   4.690   3.884 -4.0346  0.4100  1.9328
  674MOL0     H90928   0.964   4.831   3.877 -0.0893  1.2274  1.1535
  674MOL0     H90929   1.063   4.923   3.688 -3.0255 -0.7134  1.1205
  674MOL0     H90930   1.210   4.818   3.688 -0.0139  2.9125 -2.4590
  674MOL0     H90931   1.068   4.629   3.636 -0.7605 -1.4516 -1.7404
  674MOL0     H90932   0.934   4.729   3.648 -0.2080  2.0208 -0.1737
  674MOL0     H90933   0.984   4.717   3.405  0.4713 -0.5668 -0.8981
  674MOL0     H90934   1.007   4.877   3.460 -2.1695 -0.9064  0.2189
  674MOL0     H90935   1.262   4.817   3.483  0.2154 -0.8857  1.0027
  674MOL0     H90936   1.225   4.661   3.412  0.2307  1.0459  0.9075
  674MOL0     H90937   1.126   4.752   3.216  0.0004  0.1067 -0.2201
  674MOL0     H90938   1.167   4.910   3.257  0.8176 -0.0028  0.6647
  674MOL0     H90939   1.354   4.685   3.163  1.7928 -0.6415  0.8696
  674MOL0     H90940   1.415   4.794   3.282 -2.2972 -1.2943  1.5847
  674MOL0     H90941   1.234   5.032   3.065 -0.7961 -2.6153  0.3603
  674MOL0     H90942   1.404   5.254   2.968 -0.6735  1.0002 -2.1158
  674MOL0     H90943   1.487   5.198   2.826  1.4315  2.4501  1.6410
  674MOL0     H90944   1.193   5.156   2.889 -0.4215  1.6174  0.7666
  674MOL0     H90945   1.274   5.098   2.743  0.8010 -1.3726  2.3363
  674MOL0     H90946   1.262   5.403   2.841 -0.5766  2.3335 -1.1211
  674MOL0     H90947   1.146   5.334   2.734 -0.0057  0.9962  2.0517
  674MOL0     H90948   1.441   5.341   2.659  0.2465 -0.3616 -1.0406
  674MOL0     H90949   1.331   5.469   2.616  1.1077  0.3116  0.3750
  674MOL0     H90950   1.536   5.441   2.463 -0.8241  0.8430 -0.2741
  674MOL0     H90951   1.731   5.487   2.339  1.5389 -4.1900 -1.3885
  674MOL0     H90952   1.745   5.449   2.177  0.2869 -2.3167  2.1937
  674MOL0     H90953   1.644   5.590   2.227 -1.3009  2.0827  2.6469
  674MOL0     H90954   1.744   5.330   1.790  0.2210  2.3785 -0.4595
  674MOL0     H90955   1.747   5.416   1.560 -0.7086  1.3627 -0.1384
  674MOL0     H90956   1.552   5.314   1.219 -0.2573 -0.4446  0.9003
  674MOL0     H90957   1.401   5.349   1.312  1.2874 -0.0885  1.0885
  674MOL0     H90958   1.469   5.595   1.279 -0.2369 -0.2768  0.5581
  674MOL0     H90959   1.585   5.547   1.170 -0.2098 -0.3971 -0.8983
  674MOL0     H90960   1.308   5.442   1.149  0.8003 -0.7106  1.8814
  674MOL0     H90961   1.417   5.471   1.008 -1.0867 -1.3634 -0.0077
  674MOL0     H90962   1.274   5.680   1.173 -3.0212 -2.6453  0.5873
  674MOL0     H90963   1.399   5.697   1.032  0.0004 -1.3957 -2.7547
  674MOL0     H90964   1.124   5.599   1.007 -0.8867  0.5133 -0.8095
  674MOL0     H90965   1.234   5.596   0.876 -4.8065 -1.3590 -0.5935
  674MOL0     H90966   1.158   5.854   1.015 -3.3658 -1.3270  1.0615
  674MOL0     H90967   1.265   5.843   0.879  0.0748  1.2287  1.3326
  674MOL0     H90968   0.981   5.755   0.887  0.3546  0.8004  0.9807
  674MOL0     H90969   1.089   5.745   0.744  1.5326  0.3879  0.7775
  674MOL0     H90970   1.101   6.006   0.784  0.4915 -0.5408  0.6410
  674MOL0     H90971   0.966   5.996   0.902 -2.3473 -1.8016 -0.5534
  674MOL0     H90972   1.329   5.351   1.514  1.3053 -1.0753 -1.8329
  674MOL0     H90973   1.309   5.257   1.751  0.2649 -1.2162 -1.4176
  674MOL0     H90974   1.320   5.198   2.090 -0.4176 -1.6211  1.2000
  674MOL0     H90975   1.216   5.191   2.302 -0.0410  0.2460  0.2080
  674MOL0     H90976   1.136   5.261   3.926  2.0419  0.4634 -1.2278
  674MOL0     H90977   1.188   5.429   4.109 -1.8965 -0.1509  2.7850
  674MOL0     H90978   1.039   5.509   4.655  1.4707 -2.3696  1.1562
  674MOL0     H90979   1.110   5.674   4.811  1.1438 -0.4962  1.4351
  674MOL0     H90980   1.365   5.880   4.993  0.8855 -2.4425  3.4191
  674MOL0     H90981   1.217   5.855   4.896 -0.5917 -2.0736 -1.6051
  674MOL0     H90982   1.289   5.592   4.982 -1.4036 -2.2525  2.5621
  674MOL0     H90983   1.190   5.679   5.087  0.7761 -0.1457  0.5448
  674MOL0     H90984   1.385   5.593   5.198 -3.5174  1.7349  2.7851
  674MOL0     H90985   1.370   5.758   5.225  1.2098  3.5758 -2.5264
  674MOL0     H90986   1.571   5.811   5.070  1.0035  0.0435  0.4703
  674MOL0     H90987   1.563   5.648   5.012  1.7000 -2.0689  2.9399
  674MOL0     H90988   1.765   5.601   5.366  0.0889 -4.3420 -1.8412
  674MOL0     H90989   1.495   5.707   4.602 -0.1177  0.0286 -2.0905
  674MOL0     H90990   1.411   5.527   4.454 -1.5199 -0.2834 -0.8126
  675MOL0     O90991  10.030   6.999   7.827  0.3154  0.4736 -0.7625
  675MOL0     C90992  10.148   6.979   7.792 -0.9090  0.1500 -0.3735
  675MOL0     O90993  10.258   6.931   7.872 -0.6723 -0.0700 -0.2396
  675MOL0     C90994  10.257   6.919   8.005 -0.2729 -0.1477  0.7613
  675MOL0     C90995  10.364   6.970   8.076  0.1051  0.0847  0.0975
  675MOL0     C90996  10.363   6.946   8.213 -0.4542  1.1447 -0.4155
  675MOL0     C90997  10.259   6.891   8.289  0.6063  0.3220  0.0591
  675MOL0     O90998  10.274   6.887   8.429  0.0828  0.4639 -1.0979
  675MOL0     C90999  10.186   6.798   8.507  0.0760  0.3616 -0.3620
  675MOL0     C91000  10.244   6.797   8.643 -0.4554 -0.7523  0.4929
  675MOL0     C91001  10.389   6.750   8.637 -0.8075  0.0519  0.0887
  675MOL0     C91002  10.461   6.765   8.768  0.5291  0.2552  0.0528
  675MOL0     C91003  10.603   6.703   8.764  0.2226 -0.0029 -0.0558
  675MOL0     C91004  10.669   6.741   8.897  0.6429 -0.2815 -0.4991
  675MOL0     C91005  10.787   6.836   8.884  0.3653 -0.0441 -0.6709
  675MOL0     C91006  10.763   6.981   8.902  0.3432 -0.1944 -0.3323
  675MOL0     N91007  10.744   7.008   9.044  0.6410 -0.6030  0.2955
  675MOL0     C91008  10.850   7.018   9.130  0.6903 -0.7053  0.3025
  675MOL0     C91009  10.784   7.047   9.248 -0.6841  0.4672 -0.2141
  675MOL0     C91010  10.864   7.073   9.370 -0.4002 -0.4507 -0.2941
  675MOL0     C91011  10.865   6.947   9.466 -0.0970 -0.0889  0.1298
  675MOL0     C91012  10.959   6.836   9.428  0.2446  0.9593  0.1052
  675MOL0     C91013  10.977   6.726   9.537  0.8439  0.7631  0.0215
  675MOL0     O91014  10.851   6.699   9.607  1.1526  0.2388  0.4641
  675MOL0     C91015  10.776   6.593   9.577  0.0245 -0.3081 -0.5881
  675MOL0     C91016  10.770   6.537   9.446 -0.1725  0.4849  0.2154
  675MOL0     C91017  10.704   6.414   9.421 -0.0149 -0.3660  0.6291
  675MOL0     C91018  10.702   6.373   9.274  0.7620  0.5599  0.1377
  675MOL0     C91019  10.641   6.344   9.525 -0.3468 -1.4032  0.1510
  675MOL0     C91020  10.564   6.212   9.504  0.1483 -0.7672  0.2645
  675MOL0     O91021  10.562   6.158   9.383  0.6502  0.7082 -0.1750
  675MOL0     C91022  10.468   6.060   9.340  0.4608  0.5793 -0.0414
  675MOL0     C91023  10.356   5.999   9.417 -0.2999  0.9724 -0.5157
  675MOL0     C91024  10.265   5.909   9.366  1.0041 -0.3906 -0.0743
  675MOL0     C91025  10.269   5.878   9.232  0.3073 -0.1607  0.2236
  675MOL0     O91026  10.171   5.806   9.173 -0.1839  0.1783  1.5028
  675MOL0     C91027  10.057   5.891   9.145 -0.0556 -0.0340 -0.5228
  675MOL0     C91028  10.042   5.932   9.000 -0.4754  0.4091 -0.4520
  675MOL0     C91029   9.982   5.819   8.919 -0.1967  0.1614 -0.1875
  675MOL0     C91030   9.830   5.851   8.899 -0.1523  0.5131  0.4251
  675MOL0     C91031   9.750   5.715   8.864 -0.6809 -0.3737 -0.5069
  675MOL0     C91032   9.746   5.677   8.717  0.3299 -0.9349 -0.1736
  675MOL0     C91033   9.660   5.547   8.676  0.1975  0.3341 -0.3683
  675MOL0     C91034   9.589   5.566   8.536 -0.1511  0.3807 -0.5925
  675MOL0    Cl91035   9.563   5.411   8.462  0.1201  0.1364 -0.2990
  675MOL0     C91036  10.386   5.908   9.162  0.2201  0.4983 -0.3007
  675MOL0     C91037  10.476   6.000   9.215 -0.4834  0.1587 -0.8034
  675MOL0     O91038  10.515   6.162   9.603  0.5162  0.3661  0.1010
  675MOL0     C91039  10.640   6.399   9.653 -0.3753  0.1527 -0.0024
  675MOL0     C91040  10.712   6.520   9.681 -0.5058 -0.3133  0.0334
  675MOL0     N91041  10.645   7.045   9.238 -0.2879  0.2606  0.4920
  675MOL0     N91042  10.624   7.028   9.113  0.2511  0.3324 -0.5499
  675MOL0     C91043  10.157   6.834   8.217 -0.1295 -0.0275  0.5198
  675MOL0     C91044  10.154   6.844   8.074 -0.3841  0.2130 -0.4923
  675MOL0     C91045  10.179   7.037   7.664 -0.0173 -0.2964  0.1256
  675MOL0     C91046  10.309   7.033   7.609  0.1980  0.0357 -0.4916
  675MOL0     C91047  10.348   7.070   7.483 -0.0628 -0.0719  0.3257
  675MOL0     C91048  10.252   7.121   7.397 -0.0676  0.0362  0.4448
  675MOL0     O91049  10.276   7.151   7.265  0.3080 -0.6326 -0.6102
  675MOL0     C91050  10.415   7.155   7.226 -0.1127  0.7112  1.4898
  675MOL0     C91051  10.437   7.113   7.081  0.1070 -0.7125  0.5890
  675MOL0     C91052  10.371   6.983   7.045  0.4359 -1.0130  0.2514
  675MOL0     C91053  10.412   6.942   6.903  0.1176  0.5777 -0.4140
  675MOL0     C91054  10.393   6.796   6.885  0.0548 -0.2381 -0.2558
  675MOL0     C91055  10.381   6.678   6.857  0.2337  0.1978 -0.4782
  675MOL0     C91056  10.123   7.133   7.451 -0.4208 -0.1399  1.1070
  675MOL0     C91057  10.080   7.094   7.578 -0.1904 -0.2548 -0.8877
  675MOL0     H91058  10.442   7.038   8.043 -0.5631  1.1171  0.6093
  675MOL0     H91059  10.451   6.987   8.262  1.4168 -2.1155 -0.8033
  675MOL0     H91060  10.088   6.840   8.533 -0.2114 -1.6646  2.1968
  675MOL0     H91061  10.186   6.696   8.469  0.4177  0.2343 -0.0281
  675MOL0     H91062  10.224   6.903   8.663 -2.7947  0.2393 -5.2498
  675MOL0     H91063  10.195   6.726   8.711 -0.3087 -1.2916  0.0429
  675MOL0     H91064  10.397   6.649   8.597  2.9220  1.1681 -2.4746
  675MOL0     H91065  10.452   6.805   8.568  1.5271 -1.6914  0.7132
  675MOL0     H91066  10.474   6.871   8.791  0.6293  0.0428  1.0401
  675MOL0     H91067  10.409   6.712   8.849  2.1437 -0.8457  0.4237
  675MOL0     H91068  10.589   6.595   8.767 -0.6468  0.0982 -0.2615
  675MOL0     H91069  10.654   6.737   8.673 -1.6444 -0.4604 -1.3159
  675MOL0     H91070  10.599   6.787   8.967  0.6147  1.0436 -1.3525
  675MOL0     H91071  10.703   6.645   8.936  0.1815  0.7181  2.6121
  675MOL0     H91072  10.858   6.809   8.962  2.0882  1.0109 -1.8135
  675MOL0     H91073  10.829   6.817   8.785  0.4002  0.8780 -0.8364
  675MOL0     H91074  10.675   7.006   8.843  1.0653 -1.6764 -2.1398
  675MOL0     H91075  10.842   7.047   8.864 -0.0636 -0.5311 -1.7960
  675MOL0     H91076  10.955   7.014   9.103  1.5235  0.8053  2.9539
  675MOL0     H91077  10.961   7.105   9.331 -1.1228  1.1190 -0.9048
  675MOL0     H91078  10.816   7.153   9.427 -0.7720  0.7017 -2.1075
  675MOL0     H91079  10.760   6.917   9.477 -0.1435  0.3742  1.0609
  675MOL0     H91080  10.900   6.980   9.564 -1.7188 -1.2958  1.1532
  675MOL0     H91081  11.057   6.873   9.394  0.1007  0.7694 -0.5239
  675MOL0     H91082  10.932   6.775   9.342 -0.0316 -4.4022  3.5278
  675MOL0     H91083  11.058   6.763   9.601 -0.4304  0.0660  2.1383
  675MOL0     H91084  11.012   6.633   9.493  0.4351  0.6018  0.0357
  675MOL0     H91085  10.810   6.594   9.363 -3.6799  0.2028 -1.8975
  675MOL0     H91086  10.746   6.451   9.211 -0.0572 -0.3636 -1.6450
  675MOL0     H91087  10.757   6.279   9.265  0.8070  0.7583 -2.9824
  675MOL0     H91088  10.601   6.377   9.232  0.0350 -3.6284  1.0943
  675MOL0     H91089  10.346   6.018   9.524  0.4265 -0.5301 -0.1486
  675MOL0     H91090  10.179   5.877   9.426 -1.5486  1.8869 -2.2749
  675MOL0     H91091   9.961   5.851   9.181 -0.4216  2.1594  1.2024
  675MOL0     H91092  10.066   5.986   9.199 -0.2567  0.2930 -1.0557
  675MOL0     H91093   9.976   6.020   9.002 -2.0238 -0.7179  0.9262
  675MOL0     H91094  10.142   5.955   8.961  1.3652 -0.7036  3.1107
  675MOL0     H91095  10.004   5.724   8.969 -0.5568  0.7174  1.0734
  675MOL0     H91096  10.031   5.825   8.821  3.0542  0.8262  1.3440
  675MOL0     H91097   9.792   5.880   8.998 -3.4091 -3.1524  0.5290
  675MOL0     H91098   9.808   5.926   8.822  1.0595 -1.0717 -1.5540
  675MOL0     H91099   9.647   5.741   8.891 -0.6856 -1.3698  0.5075
  675MOL0     H91100   9.784   5.635   8.930  3.6216  0.7427 -1.0921
  675MOL0     H91101   9.708   5.757   8.652  0.4983 -0.2952  0.4986
  675MOL0     H91102   9.846   5.656   8.680  0.5888  0.9446 -0.6263
  675MOL0     H91103   9.583   5.537   8.753  1.3830  2.6179  1.2271
  675MOL0     H91104   9.718   5.455   8.688  0.7663  0.5727 -1.1959
  675MOL0     H91105   9.644   5.636   8.472 -0.2459  1.3456  0.3510
  675MOL0     H91106   9.491   5.608   8.558  0.2009  2.2657 -2.3874
  675MOL0     H91107  10.394   5.849   9.071  0.6017 -2.1843  1.3784
  675MOL0     H91108  10.562   6.033   9.157  1.1298 -1.6839  0.3989
  675MOL0     H91109  10.594   6.350   9.738 -1.5372 -1.6563 -1.5968
  675MOL0     H91110  10.724   6.546   9.786 -4.4808 -2.1817  1.1975
  675MOL0     H91111  10.078   6.781   8.269 -0.4990 -0.6887 -0.6864
  675MOL0     H91112  10.071   6.808   8.015  0.2565  0.3577 -1.5225
  675MOL0     H91113  10.391   6.994   7.668  0.4598 -0.4233 -1.1462
  675MOL0     H91114  10.450   7.039   7.460 -1.1331 -1.6408 -3.0028
  675MOL0     H91115  10.442   7.260   7.237 -2.7025  1.8641 -1.7684
  675MOL0     H91116  10.479   7.085   7.281 -0.8188  0.5241  2.0975
  675MOL0     H91117  10.543   7.098   7.061  0.1216 -0.9097  0.8162
  675MOL0     H91118  10.403   7.199   7.022  0.3243 -0.4701  0.8130
  675MOL0     H91119  10.264   7.002   7.059  1.2408  2.5968  3.0703
  675MOL0     H91120  10.396   6.919   7.130 -2.0574  2.6130  4.2083
  675MOL0     H91121  10.517   6.965   6.882 -0.1873  2.4898 -0.0059
  675MOL0     H91122  10.368   7.006   6.826 -0.5483  0.6186 -0.0062
  675MOL0     H91123  10.356   6.577   6.833 -0.6007  0.0667  0.8419
  675MOL0     H91124  10.040   7.169   7.390 -0.8171 -0.5578  1.3952
  675MOL0     H91125   9.974   7.102   7.600 -0.2755  0.5810 -1.5273
  676MOL0     O91126   3.967   5.218   1.120  0.6728  0.5385 -0.5592
  676MOL0     C91127   3.861   5.287   1.114  0.1121 -0.1547  0.3019
  676MOL0     O91128   3.737   5.237   1.116  0.6191 -0.7191 -0.3372
  676MOL0     C91129   3.686   5.111   1.146 -0.2155 -0.6879 -0.5731
  676MOL0     C91130   3.545   5.116   1.179 -0.1306 -0.3766 -0.2786
  676MOL0     C91131   3.475   4.992   1.195  1.1438 -0.5032  0.6875
  676MOL0     C91132   3.528   4.868   1.152 -0.0494 -0.9312 -0.2108
  676MOL0     O91133   3.451   4.758   1.160 -0.3014 -0.1173  0.3407
  676MOL0     C91134   3.486   4.640   1.078  1.0733  0.5746 -0.0437
  676MOL0     C91135   3.349   4.563   1.088 -0.5452  0.3233 -0.0360
  676MOL0     C91136   3.235   4.613   0.993 -1.1831 -0.2005  0.1588
  676MOL0     C91137   3.113   4.524   1.007  0.0666  0.3332 -0.3114
  676MOL0     C91138   3.013   4.556   0.893  0.2447 -0.2514 -0.1106
  676MOL0     C91139   2.880   4.487   0.897 -0.2634  0.1078  0.1729
  676MOL0     C91140   2.816   4.483   0.767 -0.1068 -0.1170  1.4079
  676MOL0     C91141   2.686   4.399   0.756 -0.1483 -0.9051 -0.5833
  676MOL0     N91142   2.585   4.476   0.835  0.1837  0.2253 -0.1185
  676MOL0     C91143   2.522   4.596   0.794  0.1725  0.2379  0.0046
  676MOL0     C91144   2.423   4.604   0.889 -0.0180 -0.2454  0.4789
  676MOL0     C91145   2.316   4.712   0.883 -0.8103  0.4946  0.6706
  676MOL0     C91146   2.216   4.689   0.988 -0.0201 -0.8878 -0.2581
  676MOL0     C91147   2.142   4.553   0.978 -0.3718  0.3543 -0.9898
  676MOL0     C91148   1.995   4.572   0.992  0.1319 -0.8776 -0.4099
  676MOL0     O91149   1.932   4.445   0.981  0.2916 -0.2625 -0.6116
  676MOL0     C91150   1.794   4.446   0.949  0.1099  0.0104  0.0039
  676MOL0     C91151   1.736   4.337   0.896  0.3995  0.6966 -0.8198
  676MOL0     C91152   1.606   4.332   0.839 -0.1104 -0.2044 -0.3521
  676MOL0     C91153   1.559   4.202   0.792  0.3122  0.5823 -0.3079
  676MOL0     C91154   1.528   4.453   0.837  0.2013 -0.0117 -0.2632
  676MOL0     C91155   1.405   4.463   0.752  0.4589 -0.1905  0.3927
  676MOL0     O91156   1.332   4.577   0.761 -0.4037  0.2733  0.2343
  676MOL0     C91157   1.223   4.590   0.686  0.4649  0.7530 -0.1723
  676MOL0     C91158   1.211   4.684   0.585 -0.3290  0.4309 -0.5174
  676MOL0     C91159   1.085   4.708   0.528  0.2842 -0.4903 -0.2758
  676MOL0     C91160   0.975   4.646   0.568 -0.2342  0.6333  0.0951
  676MOL0     O91161   0.865   4.679   0.497  0.7930 -0.5498  0.1449
  676MOL0     C91162   0.738   4.655   0.562  0.3632 -0.0004  0.4824
  676MOL0     C91163   0.630   4.703   0.461  0.9503  0.3495  0.1286
  676MOL0     C91164   0.479   4.686   0.497 -0.5825  0.3333 -0.3922
  676MOL0     C91165   0.383   4.760   0.413  1.1592 -0.4556 -0.3051
  676MOL0     C91166   0.242   4.734   0.470 -0.8309  0.1271  0.3365
  676MOL0     C91167   0.139   4.800   0.400  0.0764  0.3383 -0.2506
  676MOL0     C91168  -0.006   4.744   0.455 -0.3690 -0.2868  0.6407
  676MOL0     C91169  -0.116   4.767   0.350  0.0125  0.0756 -0.1899
  676MOL0    Cl91170  -0.139   4.941   0.309  0.1723 -0.1341  0.0726
  676MOL0     C91171   0.987   4.540   0.651 -0.8022 -0.2055 -0.7381
  676MOL0     C91172   1.107   4.518   0.719 -0.2480  1.3264 -0.2316
  676MOL0     O91173   1.377   4.368   0.676 -0.4400  0.1353 -0.1133
  676MOL0     C91174   1.578   4.562   0.902 -0.5999 -0.0783  0.1290
  676MOL0     C91175   1.710   4.563   0.956 -0.6064 -0.2966 -0.4891
  676MOL0     N91176   2.424   4.496   0.981 -0.1545  0.3543 -0.1736
  676MOL0     N91177   2.524   4.425   0.948  0.0750 -0.4348 -0.3713
  676MOL0     C91178   3.670   4.870   1.116 -0.4252  0.3086  0.0852
  676MOL0     C91179   3.738   4.988   1.103 -0.1996 -0.2091 -0.0082
  676MOL0     C91180   3.879   5.439   1.098  0.6919  0.1062  0.5542
  676MOL0     C91181   4.008   5.491   1.113  0.5799  0.6268 -0.4772
  676MOL0     C91182   4.014   5.628   1.119  0.6965  0.2465 -0.5052
  676MOL0     C91183   3.905   5.713   1.110 -0.0602 -0.0017 -0.9599
  676MOL0     O91184   3.944   5.846   1.122  0.1644  0.1390 -0.1226
  676MOL0     C91185   3.840   5.933   1.154  0.4378 -0.8245  0.4542
  676MOL0     C91186   3.893   6.078   1.131  0.6961  0.2529  0.0127
  676MOL0     C91187   4.006   6.103   1.229 -0.0636  0.7520 -0.6476
  676MOL0     C91188   3.979   6.107   1.382  0.1366  0.5554  0.8497
  676MOL0     C91189   3.879   6.209   1.407 -0.8368 -0.1990  0.2234
  676MOL0     C91190   3.792   6.293   1.408  0.3067  0.7227 -1.0611
  676MOL0     C91191   3.775   5.661   1.098 -0.0429 -0.6366 -0.1394
  676MOL0     C91192   3.766   5.527   1.086 -0.8041 -0.1366 -0.0094
  676MOL0     H91193   3.508   5.216   1.200  1.2066 -0.0517  0.5855
  676MOL0     H91194   3.379   4.988   1.245 -0.7442 -0.1245 -2.6006
  676MOL0     H91195   3.503   4.663   0.973  0.6772  5.0206  0.6717
  676MOL0     H91196   3.561   4.583   1.133 -0.1212  1.8115  3.1390
  676MOL0     H91197   3.378   4.460   1.064  2.1988  1.0305 -0.0395
  676MOL0     H91198   3.312   4.573   1.191 -0.3215  0.4839  0.0309
  676MOL0     H91199   3.218   4.721   0.997  2.9061  0.9071 -3.6946
  676MOL0     H91200   3.271   4.600   0.890 -1.8546 -1.4358  0.0626
  676MOL0     H91201   3.129   4.416   1.007 -0.5347  0.2418 -0.3395
  676MOL0     H91202   3.058   4.559   1.095 -0.8979  1.3742 -1.2947
  676MOL0     H91203   3.015   4.665   0.888 -0.3330 -0.1911  0.7227
  676MOL0     H91204   3.058   4.538   0.795 -0.1194 -0.8480 -0.1750
  676MOL0     H91205   2.886   4.387   0.939  0.5592 -0.2908 -0.8352
  676MOL0     H91206   2.822   4.557   0.958 -0.0503  1.7651 -1.4262
  676MOL0     H91207   2.802   4.587   0.734 -3.4758 -1.4860 -2.2438
  676MOL0     H91208   2.885   4.435   0.697 -0.9654 -0.4499  0.7823
  676MOL0     H91209   2.709   4.300   0.796  3.0141  0.4976  1.4942
  676MOL0     H91210   2.667   4.388   0.648 -0.2841 -1.7190 -0.4780
  676MOL0     H91211   2.539   4.654   0.704  0.5383  2.5313  1.4723
  676MOL0     H91212   2.368   4.803   0.914 -0.7280 -0.5532  3.9575
  676MOL0     H91213   2.286   4.712   0.778  1.8557  1.7893 -0.1803
  676MOL0     H91214   2.138   4.765   0.980  0.5886 -0.1610  0.5000
  676MOL0     H91215   2.265   4.697   1.086 -2.3233  2.1119  0.8144
  676MOL0     H91216   2.176   4.481   1.052  1.7086  1.9310 -0.3104
  676MOL0     H91217   2.156   4.501   0.882  1.5134 -1.7254  0.3169
  676MOL0     H91218   1.969   4.637   0.908  1.9035  0.3387 -0.0924
  676MOL0     H91219   1.977   4.614   1.092 -2.6355 -1.2728 -0.6720
  676MOL0     H91220   1.803   4.251   0.901 -0.1209  0.3169 -0.1902
  676MOL0     H91221   1.456   4.190   0.829 -1.5967  0.9981 -4.8747
  676MOL0     H91222   1.543   4.203   0.684 -1.1390  2.8439 -0.1443
  676MOL0     H91223   1.620   4.121   0.834  2.4683  1.1491 -2.1609
  676MOL0     H91224   1.284   4.756   0.549  0.6766 -0.3864 -0.1634
  676MOL0     H91225   1.077   4.781   0.448  1.7484  0.9135  0.7948
  676MOL0     H91226   0.716   4.549   0.578  0.5970 -0.2319 -0.6368
  676MOL0     H91227   0.737   4.704   0.659 -0.4471  2.5187 -0.7086
  676MOL0     H91228   0.658   4.809   0.465  2.3713 -0.0392  1.2003
  676MOL0     H91229   0.643   4.660   0.362  0.2925 -1.8815  0.9644
  676MOL0     H91230   0.477   4.722   0.601 -2.6597 -2.4714  0.6566
  676MOL0     H91231   0.448   4.582   0.505  2.4243 -0.5347  2.7417
  676MOL0     H91232   0.395   4.868   0.423  0.1145 -0.3141 -0.5043
  676MOL0     H91233   0.392   4.735   0.307  1.5869  1.7792 -0.8570
  676MOL0     H91234   0.242   4.771   0.573  1.1209  1.8652 -0.2117
  676MOL0     H91235   0.229   4.626   0.457  1.2757 -0.0471 -0.8625
  676MOL0     H91236   0.141   4.908   0.419 -2.2096  0.2803  0.6129
  676MOL0     H91237   0.155   4.774   0.295 -0.0986 -0.3314 -0.1167
  676MOL0     H91238  -0.044   4.782   0.550  1.3469 -3.4181  2.7577
  676MOL0     H91239   0.016   4.639   0.479 -1.3437 -0.1369  2.3869
  676MOL0     H91240  -0.207   4.724   0.392  1.0853 -1.0808  1.0276
  676MOL0     H91241  -0.100   4.715   0.255  6.2978  0.9122 -0.0220
  676MOL0     H91242   0.893   4.489   0.667 -1.9573  1.4363 -2.0021
  676MOL0     H91243   1.098   4.444   0.798  0.7970  0.0218 -1.2738
  676MOL0     H91244   1.515   4.651   0.911  0.6463  0.8464 -0.0288
  676MOL0     H91245   1.740   4.656   1.004 -1.7857  0.6475 -1.5228
  676MOL0     H91246   3.730   4.783   1.092  0.5696  0.7661  0.8279
  676MOL0     H91247   3.841   4.996   1.067 -0.6171  0.9341 -1.0289
  676MOL0     H91248   4.092   5.425   1.131  0.8182  0.9294 -0.4762
  676MOL0     H91249   4.110   5.677   1.138  1.2024 -0.1521 -1.9177
  676MOL0     H91250   3.756   5.921   1.084 -0.3440 -2.0706  1.5556
  676MOL0     H91251   3.803   5.930   1.257 -2.7633 -1.6300 -0.5968
  676MOL0     H91252   3.809   6.148   1.127  0.2250 -0.2617  0.6846
  676MOL0     H91253   3.939   6.064   1.033 -1.0361 -5.2534 -0.3423
  676MOL0     H91254   4.054   6.198   1.206  5.4961 -0.5915  3.2903
  676MOL0     H91255   4.084   6.028   1.215 -0.2995  0.5502 -0.9123
  676MOL0     H91256   4.076   6.133   1.426  1.8778 -0.9720 -1.8125
  676MOL0     H91257   3.955   6.006   1.418  3.3024 -1.1357 -1.2861
  676MOL0     H91258   3.734   6.383   1.408 -0.2421  0.4028 -2.8806
  676MOL0     H91259   3.683   5.717   1.094 -0.2063 -0.5137  2.8012
  676MOL0     H91260   3.661   5.500   1.076 -0.8900  0.3221 -0.3535
  677MOL0     O91261   9.205   0.878  10.224  0.3275 -0.8972 -0.0999
  677MOL0     C91262   9.243   0.931  10.329 -0.1849  0.1567  0.2153
  677MOL0     O91263   9.163   1.000  10.417  0.3659 -0.8952  0.3064
  677MOL0     C91264   9.030   1.004  10.405  0.8006  0.1032  0.8363
  677MOL0     C91265   8.952   1.114  10.454  0.0500  0.4654  0.7967
  677MOL0     C91266   8.812   1.120  10.436 -0.3452  0.0200  0.4912
  677MOL0     C91267   8.734   1.011  10.386 -0.2916  0.3157 -0.1056
  677MOL0     O91268   8.599   1.002  10.395 -0.2124 -0.3801 -0.2242
  677MOL0     C91269   8.534   1.113  10.344  0.7568  0.2073 -0.0753
  677MOL0     C91270   8.381   1.102  10.362 -0.8058 -1.4691 -0.2066
  677MOL0     C91271   8.335   0.972  10.303  0.9867  0.4319  0.7541
  677MOL0     C91272   8.186   0.985  10.265  0.2097  0.0993 -0.3085
  677MOL0     C91273   8.091   0.997  10.388 -0.0830  1.0703  0.8712
  677MOL0     C91274   8.064   0.864  10.465 -0.0502  0.2622  0.6344
  677MOL0     C91275   8.038   0.880  10.614 -0.0977 -0.0608 -0.0564
  677MOL0     C91276   7.901   0.823  10.637 -0.2055 -0.6348 -0.3516
  677MOL0     N91277   7.858   0.823  10.779 -0.2032 -0.0016  0.2460
  677MOL0     C91278   7.937   0.801  10.894  0.0417 -0.3332  0.5034
  677MOL0     C91279   7.849   0.797  10.996  0.4166  0.1646  0.2001
  677MOL0     C91280   7.882   0.789  11.148  0.1166  0.0485  0.7540
  677MOL0     C91281   7.919   0.649  11.194 -1.0380  0.3371  0.7740
  677MOL0     C91282   7.928   0.634  11.344 -0.9413  0.4676  0.1146
  677MOL0     C91283   7.796   0.601  11.393 -0.1008 -1.2570 -0.6846
  677MOL0     O91284   7.785   0.643  11.538  0.8630 -0.1628  0.6592
  677MOL0     C91285   7.656   0.657  11.588  0.0054 -0.4002  0.3982
  677MOL0     C91286   7.537   0.601  11.535 -0.4850  0.3184  0.3849
  677MOL0     C91287   7.411   0.625  11.583  0.9765  0.3088 -0.0307
  677MOL0     C91288   7.293   0.568  11.505 -0.2126  0.6591  0.6492
  677MOL0     C91289   7.394   0.723  11.681 -0.6798 -0.3213 -0.6527
  677MOL0     C91290   7.263   0.773  11.741 -0.5196  0.2576 -0.8943
  677MOL0     O91291   7.150   0.741  11.663  0.4723  0.4551 -0.4651
  677MOL0     C91292   7.024   0.739  11.720  0.0637 -0.1015 -0.4570
  677MOL0     C91293   6.990   0.717  11.855 -0.1948 -0.2838  0.4693
  677MOL0     C91294   6.853   0.709  11.899  0.3465 -0.3576 -0.4565
  677MOL0     C91295   6.751   0.722  11.799  0.0606 -0.7899 -0.1318
  677MOL0     O91296   6.630   0.708  11.863 -0.4665 -0.7645  0.6918
  677MOL0     C91297   6.514   0.752  11.787  0.1215  0.4203  0.1003
  677MOL0     C91298   6.394   0.778  11.879 -0.0288 -0.3744  0.4416
  677MOL0     C91299   6.276   0.828  11.799  1.1408 -0.8915 -0.0966
  677MOL0     C91300   6.276   0.983  11.784 -0.1377 -0.1770  0.0271
  677MOL0     C91301   6.176   1.025  11.668 -0.2370 -0.2783  0.6720
  677MOL0     C91302   6.030   0.991  11.717  0.1795 -0.0005 -0.2049
  677MOL0     C91303   5.977   1.047  11.847 -1.5989 -0.1316 -0.1930
  677MOL0     C91304   5.837   1.086  11.841 -0.5214 -0.3216 -0.7744
  677MOL0    Cl91305   5.811   1.151  12.005  0.1054  0.1437 -0.6542
  677MOL0     C91306   6.781   0.754  11.672  0.1934  0.4217 -0.2490
  677MOL0     C91307   6.920   0.764  11.634  0.4815  0.5065  0.2145
  677MOL0     O91308   7.257   0.830  11.852 -0.0810  0.7884  0.1085
  677MOL0     C91309   7.511   0.772  11.746 -0.3634  0.6582  0.1269
  677MOL0     C91310   7.638   0.740  11.696 -0.4544 -0.7942  0.1752
  677MOL0     N91311   7.723   0.824  10.947 -0.5417  0.1978 -0.0359
  677MOL0     N91312   7.728   0.834  10.820  0.8821 -1.0997 -0.0130
  677MOL0     C91313   8.807   0.905  10.346 -0.0704  0.2919  0.2697
  677MOL0     C91314   8.948   0.908  10.351 -0.2849  0.6911 -0.4836
  677MOL0     C91315   9.391   0.921  10.356 -0.0545 -1.2211  0.1031
  677MOL0     C91316   9.464   0.835  10.269 -0.5638 -0.3441 -0.0071
  677MOL0     C91317   9.593   0.808  10.309  0.0443 -0.3064  0.0815
  677MOL0     C91318   9.656   0.865  10.425  0.1023 -0.0664  0.5351
  677MOL0     O91319   9.791   0.846  10.446  0.0577 -0.6524 -0.1092
  677MOL0     C91320   9.853   0.925  10.553 -0.2254 -0.0187  0.2868
  677MOL0     C91321  10.002   0.876  10.572  0.2731  0.5392 -0.1984
  677MOL0     C91322  10.098   0.913  10.462  0.8783 -1.5181  0.4514
  677MOL0     C91323  10.244   0.887  10.498 -0.7262  0.0314 -0.1537
  677MOL0     C91324  10.322   0.920  10.376 -1.3704  0.3916 -0.9701
  677MOL0     C91325  10.375   0.943  10.270  0.3521 -0.0445 -0.3177
  677MOL0     C91326   9.578   0.953  10.500 -0.1523  0.8155 -0.4568
  677MOL0     C91327   9.449   0.982  10.460  1.1054 -0.8331 -0.3450
  677MOL0     H91328   9.015   1.187  10.505  0.1126 -0.9524  2.8745
  677MOL0     H91329   8.764   1.213  10.465  0.0325  0.9012 -1.5214
  677MOL0     H91330   8.577   1.196  10.401  2.9776  0.9938 -2.6800
  677MOL0     H91331   8.578   1.122  10.244  0.6831  1.0658 -0.0433
  677MOL0     H91332   8.363   1.104  10.470  2.7417  2.0604  0.5698
  677MOL0     H91333   8.326   1.186  10.319 -2.2091 -1.8063  0.8592
  677MOL0     H91334   8.395   0.943  10.216  0.3305 -1.5225  0.9061
  677MOL0     H91335   8.337   0.891  10.377 -0.9064  1.5110  2.0782
  677MOL0     H91336   8.186   1.078  10.207  2.1426  1.4728  1.7439
  677MOL0     H91337   8.154   0.899  10.205 -0.0565  2.7575 -4.3908
  677MOL0     H91338   8.127   1.077  10.454 -0.1334  0.1966  1.9758
  677MOL0     H91339   7.999   1.043  10.349  0.0914 -0.5556 -1.6640
  677MOL0     H91340   7.984   0.810  10.413  0.4415  0.7594 -0.6849
  677MOL0     H91341   8.155   0.805  10.456 -0.8657 -0.8443 -0.8615
  677MOL0     H91342   8.109   0.820  10.673 -0.1414 -2.6514 -2.4122
  677MOL0     H91343   8.035   0.986  10.639 -2.5242  0.0186 -0.4886
  677MOL0     H91344   7.915   0.716  10.620 -0.3209 -0.5323 -1.1164
  677MOL0     H91345   7.831   0.874  10.571 -0.1492  2.1619  1.5886
  677MOL0     H91346   8.044   0.782  10.901  0.9024  3.4577 -0.1611
  677MOL0     H91347   7.974   0.847  11.164  0.1647  0.0610  0.4500
  677MOL0     H91348   7.803   0.837  11.206 -0.2725  0.3079  0.0191
  677MOL0     H91349   8.023   0.631  11.164 -1.1002  1.8762 -0.5863
  677MOL0     H91350   7.860   0.568  11.151  0.6626 -0.0692 -0.9762
  677MOL0     H91351   7.961   0.728  11.389 -2.3010  0.3784  1.3556
  677MOL0     H91352   8.007   0.562  11.366 -1.0052  0.1842 -0.5527
  677MOL0     H91353   7.783   0.492  11.389 -1.1003 -1.2409  1.1380
  677MOL0     H91354   7.721   0.655  11.334  1.5090 -0.3636 -1.9890
  677MOL0     H91355   7.547   0.539  11.447  1.2530  2.9867 -1.4518
  677MOL0     H91356   7.242   0.640  11.441  1.4267  3.6955  2.4938
  677MOL0     H91357   7.321   0.497  11.428 -3.2978  0.0925 -0.0462
  677MOL0     H91358   7.224   0.519  11.574  0.7301 -0.0655  1.1037
  677MOL0     H91359   7.067   0.704  11.930  1.7752  0.9126 -1.2456
  677MOL0     H91360   6.830   0.702  12.005  1.5771 -0.5146 -0.1855
  677MOL0     H91361   6.531   0.839  11.722 -1.6719 -0.3637 -1.4950
  677MOL0     H91362   6.483   0.670  11.721 -0.8135 -0.0530  1.1054
  677MOL0     H91363   6.355   0.695  11.939 -3.5580  1.0610  0.3644
  677MOL0     H91364   6.410   0.854  11.955 -1.7483 -1.5365  2.0654
  677MOL0     H91365   6.188   0.804  11.859  1.4265  2.2210  1.7934
  677MOL0     H91366   6.271   0.770  11.707 -3.5129  0.0462 -0.6444
  677MOL0     H91367   6.236   1.028  11.876 -3.3426  0.3287 -1.4921
  677MOL0     H91368   6.376   1.028  11.777  0.2430 -0.8670  0.7693
  677MOL0     H91369   6.192   0.973  11.573 -2.4478 -0.7377  0.4999
  677MOL0     H91370   6.185   1.128  11.633  1.1463 -1.0393 -1.4005
  677MOL0     H91371   5.963   1.014  11.633 -2.0707  4.5622  2.4315
  677MOL0     H91372   6.021   0.882  11.725  1.2910 -0.0169  1.2577
  677MOL0     H91373   6.036   1.133  11.880 -1.8434 -1.5884  4.8743
  677MOL0     H91374   5.984   0.975  11.930 -1.9425 -0.0445 -0.0845
  677MOL0     H91375   5.774   1.000  11.819  0.3523 -1.3738  0.6680
  677MOL0     H91376   5.821   1.166  11.768 -2.5862  0.4498  0.4409
  677MOL0     H91377   6.702   0.752  11.598 -0.6042  0.7143  0.5771
  677MOL0     H91378   6.937   0.763  11.527 -1.8092 -2.1283 -0.2170
  677MOL0     H91379   7.491   0.845  11.824  1.2760 -0.6340  1.8517
  677MOL0     H91380   7.726   0.783  11.742 -0.2347 -0.9857 -0.0688
  677MOL0     H91381   8.761   0.811  10.320  3.5468 -1.6390  0.1544
  677MOL0     H91382   8.988   0.818  10.305 -1.2134  1.5047 -3.0331
  677MOL0     H91383   9.419   0.787  10.182 -0.6394 -2.3854  1.0906
  677MOL0     H91384   9.651   0.730  10.261 -0.2843 -0.9844  0.7437
  677MOL0     H91385   9.851   1.030  10.520 -0.9411  0.9352  3.0599
  677MOL0     H91386   9.794   0.920  10.645  0.6922 -2.5372  0.8176
  677MOL0     H91387  10.000   0.767  10.581  0.7959  0.5408  0.0164
  677MOL0     H91388  10.034   0.920  10.667  0.1097  0.0374  0.0926
  677MOL0     H91389  10.100   1.022  10.453  0.5100 -1.3764  1.8583
  677MOL0     H91390  10.078   0.864  10.366  2.9030 -0.0452 -0.7986
  677MOL0     H91391  10.253   0.778  10.502  3.3681  0.0577 -2.4467
  677MOL0     H91392  10.282   0.932  10.590 -0.7603 -2.4383  1.1492
  677MOL0     H91393  10.404   0.966  10.169  3.3110 -1.0296  0.2055
  677MOL0     H91394   9.624   0.999  10.586  2.6380  0.7645 -1.8069
  677MOL0     H91395   9.399   1.049  10.529 -0.9246 -0.8681 -1.6924
  678MOL0     O91396   1.850   5.001   9.033  0.1275  1.0666  0.1948
  678MOL0     C91397   1.957   5.049   8.994  0.2347  0.3358  0.1202
  678MOL0     O91398   1.967   5.126   8.882  0.3222 -0.0027  0.1163
  678MOL0     C91399   1.854   5.157   8.811 -0.4053 -0.1045  0.2069
  678MOL0     C91400   1.753   5.237   8.857 -0.8603 -0.9085 -0.6192
  678MOL0     C91401   1.650   5.289   8.771  0.2283  0.5568 -0.5422
  678MOL0     C91402   1.638   5.241   8.638  0.2944 -0.1272  0.7796
  678MOL0     O91403   1.540   5.284   8.551 -0.2137  0.3668  0.5210
  678MOL0     C91404   1.514   5.426   8.534 -0.4578 -0.1129 -0.4133
  678MOL0     C91405   1.631   5.519   8.530  0.0511  0.5084 -0.1229
  678MOL0     C91406   1.728   5.482   8.423 -0.6531  0.6489  0.2566
  678MOL0     C91407   1.806   5.601   8.375 -0.1120  0.2909 -0.4414
  678MOL0     C91408   1.930   5.549   8.307 -0.4238  0.8425 -0.5609
  678MOL0     C91409   1.915   5.458   8.176 -0.5010  0.4685  0.2422
  678MOL0     C91410   2.051   5.393   8.123  0.5683  0.0917 -0.3844
  678MOL0     C91411   2.022   5.294   8.014  0.4178 -1.0342 -0.3226
  678MOL0     N91412   1.914   5.205   8.038  0.5424 -0.0075  0.7282
  678MOL0     C91413   1.920   5.102   8.129  0.1360  0.7273 -0.0487
  678MOL0     C91414   1.827   5.010   8.096  0.4841  0.2259 -0.2469
  678MOL0     C91415   1.831   4.872   8.168 -0.2040 -0.1783  0.0537
  678MOL0     C91416   1.782   4.878   8.316 -0.2154  1.0202  0.1972
  678MOL0     C91417   1.623   4.880   8.320 -0.5063 -0.9448 -0.0791
  678MOL0     C91418   1.563   4.850   8.459  0.3260  0.8024 -0.8689
  678MOL0     O91419   1.429   4.897   8.451  0.5625 -0.6264 -0.2805
  678MOL0     C91420   1.358   4.901   8.573  0.4804  0.2291 -0.6453
  678MOL0     C91421   1.412   4.954   8.692  0.4189  0.0180  0.4103
  678MOL0     C91422   1.341   4.960   8.813 -0.0876  0.5805  0.0544
  678MOL0     C91423   1.428   4.991   8.938 -0.3846 -0.1564 -0.2306
  678MOL0     C91424   1.206   4.927   8.815  1.1165 -0.4143  0.3687
  678MOL0     C91425   1.130   4.934   8.941 -0.6578 -0.5576 -0.4773
  678MOL0     O91426   1.004   4.876   8.932  0.4094  0.1805 -0.0540
  678MOL0     C91427   0.907   4.942   9.012  0.4212  0.8097  0.0514
  678MOL0     C91428   0.817   4.865   9.089  0.3657  0.3181 -0.5468
  678MOL0     C91429   0.720   4.919   9.172 -0.6115 -0.2233  0.6655
  678MOL0     C91430   0.695   5.056   9.161 -0.6520  0.4622 -0.4687
  678MOL0     O91431   0.578   5.107   9.220 -0.9501  0.2620 -0.0336
  678MOL0     C91432   0.544   5.248   9.204 -0.9040  0.1340 -0.3862
  678MOL0     C91433   0.498   5.294   9.336  0.1459 -1.3319 -0.1489
  678MOL0     C91434   0.441   5.435   9.325  0.2835 -0.9579 -0.1258
  678MOL0     C91435   0.536   5.558   9.301  0.0625 -0.6380  0.0695
  678MOL0     C91436   0.467   5.699   9.276 -0.0388 -0.7790  0.3140
  678MOL0     C91437   0.366   5.738   9.401 -0.2223 -0.1834  0.4752
  678MOL0     C91438   0.348   5.892   9.406  0.2293  0.5966  0.5820
  678MOL0     C91439   0.229   5.929   9.485  0.3804  0.0282  0.7397
  678MOL0    Cl91440   0.260   5.934   9.669  0.0048  0.3733 -0.4541
  678MOL0     C91441   0.780   5.134   9.083 -0.8220  0.1040 -0.0440
  678MOL0     C91442   0.892   5.084   9.005 -0.7181  0.9592 -1.4252
  678MOL0     O91443   1.175   4.992   9.045  0.3179  0.2850  0.3930
  678MOL0     C91444   1.144   4.891   8.693 -0.1743  0.0624 -0.2119
  678MOL0     C91445   1.218   4.880   8.578  0.4390  0.1514 -0.4976
  678MOL0     N91446   1.737   5.069   8.006  0.1328 -0.4244  0.7716
  678MOL0     N91447   1.799   5.181   7.969  1.0541 -0.8171 -0.4282
  678MOL0     C91448   1.730   5.146   8.589  0.6016 -0.6732  0.8802
  678MOL0     C91449   1.837   5.108   8.674 -1.0054 -0.1291 -0.0461
  678MOL0     C91450   2.069   5.039   9.082  0.1650 -0.5381 -0.8087
  678MOL0     C91451   2.201   5.065   9.031  0.8627  0.1849  0.1872
  678MOL0     C91452   2.315   5.059   9.111 -0.4896 -0.6080 -0.3034
  678MOL0     C91453   2.298   5.039   9.258 -0.4601 -0.4466  0.5798
  678MOL0     O91454   2.414   5.018   9.327  0.0972  0.0595 -1.1949
  678MOL0     C91455   2.405   4.999   9.472  1.2484  0.4475  0.1052
  678MOL0     C91456   2.534   5.029   9.536 -0.7821 -0.0779  0.4385
  678MOL0     C91457   2.531   5.018   9.688  0.2280  0.0151 -0.7619
  678MOL0     C91458   2.447   5.130   9.752  0.7599 -0.2045  0.7749
  678MOL0     C91459   2.521   5.251   9.770 -1.5658 -0.0198 -0.0842
  678MOL0     C91460   2.598   5.341   9.790 -0.0475  0.3312 -0.5595
  678MOL0     C91461   2.169   5.006   9.303  0.0422 -0.1212  0.3838
  678MOL0     C91462   2.054   5.011   9.220 -0.2289 -0.4821  0.5612
  678MOL0     H91463   1.760   5.267   8.961 -1.1507  0.9450 -1.1075
  678MOL0     H91464   1.586   5.362   8.819  0.9484  1.4778 -0.9644
  678MOL0     H91465   1.458   5.433   8.441  1.1641 -3.0165 -1.7391
  678MOL0     H91466   1.444   5.472   8.604 -0.4716  1.1168 -1.2070
  678MOL0     H91467   1.592   5.619   8.508 -2.5135 -0.8589 -2.4784
  678MOL0     H91468   1.687   5.520   8.624  1.6874  0.0020 -1.0621
  678MOL0     H91469   1.786   5.401   8.467 -1.3565 -0.7396 -1.2891
  678MOL0     H91470   1.670   5.435   8.343 -1.2288  1.2996  0.2781
  678MOL0     H91471   1.745   5.659   8.304  0.0020  2.5220  1.1842
  678MOL0     H91472   1.845   5.672   8.448 -0.3991  2.2102 -2.0739
  678MOL0     H91473   1.997   5.634   8.287 -2.5755  2.2870 -2.1445
  678MOL0     H91474   1.980   5.495   8.388 -1.1479  0.9417 -0.0399
  678MOL0     H91475   1.836   5.385   8.193 -0.4992  0.4830  0.3123
  678MOL0     H91476   1.877   5.522   8.095  0.7035  0.0880 -0.6503
  678MOL0     H91477   2.110   5.472   8.075  1.3889 -0.4743 -0.3205
  678MOL0     H91478   2.098   5.348   8.211 -2.6466 -1.1931  0.8193
  678MOL0     H91479   2.113   5.236   7.999  1.3392  0.4438 -0.6228
  678MOL0     H91480   1.988   5.349   7.925  0.0443  2.3736  1.7330
  678MOL0     H91481   1.996   5.071   8.200 -1.8206 -0.4000  1.6643
  678MOL0     H91482   1.770   4.801   8.111 -0.7111 -1.5285  2.1743
  678MOL0     H91483   1.932   4.831   8.172 -1.6833 -4.3188 -0.1944
  678MOL0     H91484   1.829   4.964   8.365  0.4588 -0.3117  2.0214
  678MOL0     H91485   1.814   4.785   8.364  1.1343  0.5996 -1.3973
  678MOL0     H91486   1.598   4.801   8.249  6.5895 -3.3502 -0.7258
  678MOL0     H91487   1.586   4.972   8.275  0.0139 -1.8898 -2.5903
  678MOL0     H91488   1.625   4.899   8.534  0.2360  1.5996 -1.3054
  678MOL0     H91489   1.565   4.744   8.488 -1.8038  0.5486 -1.4880
  678MOL0     H91490   1.519   4.969   8.688  0.0957  2.3882 -0.9384
  678MOL0     H91491   1.388   5.078   8.991 -0.8325 -0.4900 -0.0110
  678MOL0     H91492   1.429   4.909   9.010 -5.6868 -0.8552 -0.5628
  678MOL0     H91493   1.534   5.008   8.919 -0.0211 -2.2036 -0.1885
  678MOL0     H91494   0.826   4.757   9.082 -1.7538  0.2079 -3.2351
  678MOL0     H91495   0.649   4.851   9.219 -0.1928 -1.3304 -0.2653
  678MOL0     H91496   0.631   5.309   9.178  2.5550 -5.1399 -3.1777
  678MOL0     H91497   0.473   5.264   9.122 -0.7748 -2.5417 -1.1234
  678MOL0     H91498   0.412   5.233   9.366  0.0101  0.5410  3.9547
  678MOL0     H91499   0.575   5.296   9.414 -1.2423  0.6313  1.2905
  678MOL0     H91500   0.373   5.447   9.409 -3.5714 -2.5200 -2.7200
  678MOL0     H91501   0.368   5.438   9.243 -1.6847 -1.8026  1.5078
  678MOL0     H91502   0.607   5.557   9.385 -2.8099  3.7999  3.0168
  678MOL0     H91503   0.602   5.558   9.214  0.4247  3.8048  0.0778
  678MOL0     H91504   0.409   5.700   9.184 -0.0258 -0.9473  0.3033
  678MOL0     H91505   0.552   5.767   9.269 -0.1850 -0.6446 -0.1349
  678MOL0     H91506   0.267   5.695   9.382  0.3933 -1.5833  0.2906
  678MOL0     H91507   0.394   5.705   9.502 -2.9086  1.0386  1.7465
  678MOL0     H91508   0.325   5.937   9.309  1.2764 -1.5543 -0.7327
  678MOL0     H91509   0.443   5.942   9.429  0.5755  0.0802  0.2820
  678MOL0     H91510   0.142   5.866   9.463  0.5939  0.0738 -0.2849
  678MOL0     H91511   0.199   6.032   9.466 -3.4240 -1.0630 -0.0805
  678MOL0     H91512   0.762   5.239   9.060  2.1316  1.0770  1.5359
  678MOL0     H91513   0.961   5.142   8.944 -0.2549  1.5406 -0.3827
  678MOL0     H91514   1.037   4.871   8.701 -0.6284  2.6054  1.1882
  678MOL0     H91515   1.186   4.848   8.479 -0.3674  1.8408 -0.8168
  678MOL0     H91516   1.718   5.114   8.486  2.4904  2.5333 -0.4854
  678MOL0     H91517   1.904   5.030   8.639 -2.3970 -0.8723 -1.1743
  678MOL0     H91518   2.208   5.081   8.923 -1.0437 -2.9712 -0.5493
  678MOL0     H91519   2.414   5.085   9.076 -0.5623  2.2250  1.3642
  678MOL0     H91520   2.323   5.057   9.516  1.7981  2.7866 -1.7321
  678MOL0     H91521   2.388   4.894   9.497 -1.4699  0.3459 -1.6807
  678MOL0     H91522   2.557   5.132   9.510 -3.1453  0.5931  0.7727
  678MOL0     H91523   2.610   4.956   9.508 -1.5164 -0.6820 -0.0265
  678MOL0     H91524   2.634   5.035   9.720 -0.3577  2.5907  0.0038
  678MOL0     H91525   2.492   4.919   9.714 -0.5700  0.8585  1.4068
  678MOL0     H91526   2.422   5.090   9.850  1.4464  1.1221  1.5254
  678MOL0     H91527   2.356   5.150   9.695 -0.6885 -1.7948  2.3860
  678MOL0     H91528   2.677   5.409   9.818  0.5276 -0.3060 -0.6144
  678MOL0     H91529   2.159   4.984   9.409  4.1742 -0.3263  0.9083
  678MOL0     H91530   1.958   4.971   9.252 -2.6720  0.5247 -4.4824
  679MOL0     O91531   5.791   4.084   1.436 -0.0235 -0.0390  0.1652
  679MOL0     C91532   5.667   4.093   1.444  0.9225 -0.0892  0.5211
  679MOL0     O91533   5.585   4.047   1.340 -0.1986 -0.0033 -0.2960
  679MOL0     C91534   5.636   4.003   1.226 -0.0279  0.5779  0.6061
  679MOL0     C91535   5.694   3.874   1.226  1.1814 -0.5345  0.2153
  679MOL0     C91536   5.749   3.832   1.107 -0.1121 -0.6976 -0.3648
  679MOL0     C91537   5.757   3.919   0.990  0.2034  0.1134 -1.0098
  679MOL0     O91538   5.841   3.897   0.886 -0.1237  0.9309 -0.2235
  679MOL0     C91539   5.895   3.755   0.864  0.4533 -1.0446 -0.5751
  679MOL0     C91540   5.785   3.653   0.826 -0.8129 -0.2732  0.6165
  679MOL0     C91541   5.654   3.719   0.759  0.5177 -0.5202 -0.3365
  679MOL0     C91542   5.558   3.609   0.699  0.7533  0.3845  0.0589
  679MOL0     C91543   5.423   3.657   0.635  0.1176 -0.9368  0.2465
  679MOL0     C91544   5.344   3.741   0.734 -0.3342 -0.2461  1.0593
  679MOL0     C91545   5.202   3.777   0.665 -0.0890  0.6374  0.1450
  679MOL0     C91546   5.141   3.873   0.754 -0.3019 -1.2381  0.1999
  679MOL0     N91547   5.020   3.926   0.698 -0.2111  0.2537 -0.3539
  679MOL0     C91548   4.905   3.848   0.698 -0.1805 -0.4585 -0.0398
  679MOL0     C91549   4.812   3.931   0.641 -0.1365 -0.2800 -0.0228
  679MOL0     C91550   4.667   3.889   0.623 -0.2076  0.0005 -0.3238
  679MOL0     C91551   4.565   3.965   0.700 -0.3138  0.1466 -0.8063
  679MOL0     C91552   4.531   4.088   0.624  0.2470 -0.2069  0.3688
  679MOL0     C91553   4.432   4.181   0.692  0.7551  0.6396  0.8270
  679MOL0     O91554   4.300   4.129   0.690  0.5943  0.3087 -0.4079
  679MOL0     C91555   4.233   4.142   0.812 -0.7060  1.0459 -0.3505
  679MOL0     C91556   4.260   4.065   0.922  0.5997  1.0560  0.1972
  679MOL0     C91557   4.185   4.080   1.040  0.8410  0.4559 -0.7119
  679MOL0     C91558   4.241   3.997   1.155 -0.3918 -0.4611  0.5715
  679MOL0     C91559   4.061   4.154   1.040  0.5684  0.1301  1.0290
  679MOL0     C91560   3.978   4.167   1.156 -0.4191 -0.1916 -0.2249
  679MOL0     O91561   3.959   4.292   1.210  0.2565 -0.5084  0.4659
  679MOL0     C91562   3.862   4.309   1.298  1.1338  0.5201 -0.2557
  679MOL0     C91563   3.731   4.257   1.292  0.3564  0.3653 -0.8863
  679MOL0     C91564   3.641   4.270   1.401 -0.3198  0.0293  0.3572
  679MOL0     C91565   3.681   4.348   1.507 -0.1067  0.0879  0.0362
  679MOL0     O91566   3.577   4.375   1.591 -0.1497  0.7176 -0.1558
  679MOL0     C91567   3.618   4.356   1.729 -0.0587  0.4302  0.2506
  679MOL0     C91568   3.591   4.208   1.776  0.3912  1.1374 -0.5516
  679MOL0     C91569   3.577   4.183   1.935 -0.6256  0.1173  0.0028
  679MOL0     C91570   3.566   4.037   1.966 -0.2299 -0.1283 -0.4180
  679MOL0     C91571   3.514   4.002   2.105 -0.1579 -0.0973 -0.2633
  679MOL0     C91572   3.500   3.852   2.128  1.3116 -0.3097  0.3270
  679MOL0     C91573   3.632   3.794   2.166 -0.4748  0.1454  0.1498
  679MOL0     C91574   3.656   3.641   2.154 -0.3330  0.2611 -0.0224
  679MOL0    Cl91575   3.526   3.561   2.242  0.2250  0.0158 -0.7570
  679MOL0     C91576   3.808   4.399   1.511  0.2539 -0.1079  0.0621
  679MOL0     C91577   3.898   4.388   1.405  0.0483  0.3939 -0.0448
  679MOL0     O91578   3.934   4.062   1.208  0.4475 -0.9133 -0.2375
  679MOL0     C91579   4.029   4.219   0.919 -0.8513 -1.4588 -0.5048
  679MOL0     C91580   4.117   4.216   0.811 -0.0045 -0.0884 -0.3497
  679MOL0     N91581   4.882   4.045   0.600  0.7875  0.4549  0.3056
  679MOL0     N91582   5.004   4.034   0.627 -0.1795 -0.2161  0.3468
  679MOL0     C91583   5.679   4.036   0.994  0.4105  0.9201  0.2933
  679MOL0     C91584   5.617   4.072   1.109  0.0936 -0.4812 -0.3731
  679MOL0     C91585   5.613   4.147   1.570  0.5063  0.6786 -0.8536
  679MOL0     C91586   5.697   4.204   1.669  0.0959 -0.5455  0.0844
  679MOL0     C91587   5.660   4.234   1.801  0.1701  0.7747 -1.0752
  679MOL0     C91588   5.528   4.221   1.840 -0.7848  0.7511 -0.8885
  679MOL0     O91589   5.478   4.234   1.970  0.2725 -0.3043  0.2555
  679MOL0     C91590   5.559   4.235   2.086  0.4856 -0.3863 -0.1446
  679MOL0     C91591   5.462   4.236   2.206 -0.1925 -0.6281  0.4079
  679MOL0     C91592   5.386   4.100   2.226  0.8093  0.2808  0.0648
  679MOL0     C91593   5.298   4.127   2.365 -1.0491 -0.4452  0.2759
  679MOL0     C91594   5.217   4.012   2.375  0.7766 -0.3146  0.4600
  679MOL0     C91595   5.163   3.908   2.403  0.7819 -0.0933  0.6028
  679MOL0     C91596   5.436   4.183   1.742  0.6470 -0.5520  0.5530
  679MOL0     C91597   5.474   4.136   1.611 -1.1449 -0.3417 -0.5977
  679MOL0     H91598   5.710   3.806   1.309  1.2081 -0.9588 -0.1334
  679MOL0     H91599   5.798   3.736   1.107  0.0536 -0.6746  2.0517
  679MOL0     H91600   5.963   3.778   0.782  0.2341  1.0740 -0.2354
  679MOL0     H91601   5.965   3.721   0.940  0.5123  0.7522  0.2254
  679MOL0     H91602   5.829   3.577   0.761 -1.3317  1.3668 -1.7911
  679MOL0     H91603   5.747   3.604   0.916 -1.0574 -4.1547 -1.3681
  679MOL0     H91604   5.594   3.769   0.836  1.5633 -1.6917  1.3091
  679MOL0     H91605   5.681   3.789   0.679  1.0618 -3.2576 -2.6971
  679MOL0     H91606   5.599   3.534   0.630 -0.6710 -0.2345 -0.1605
  679MOL0     H91607   5.531   3.549   0.787  1.0069  1.1961  0.6953
  679MOL0     H91608   5.441   3.719   0.547 -0.7574  3.4024  2.8269
  679MOL0     H91609   5.369   3.564   0.615 -0.7984 -0.2226 -0.7326
  679MOL0     H91610   5.327   3.687   0.828  0.6128 -1.7470  0.4055
  679MOL0     H91611   5.395   3.835   0.761  0.3365  1.1404 -4.0838
  679MOL0     H91612   5.224   3.822   0.568  0.2573  1.5881  0.6526
  679MOL0     H91613   5.130   3.695   0.654 -2.4671  2.4024  1.4810
  679MOL0     H91614   5.214   3.955   0.759 -0.8754 -0.7349  0.4253
  679MOL0     H91615   5.115   3.833   0.853 -2.2892  0.6668  0.5071
  679MOL0     H91616   4.882   3.752   0.743 -0.4033  0.2819  1.4969
  679MOL0     H91617   4.666   3.909   0.515  1.0385  1.0923 -0.1585
  679MOL0     H91618   4.663   3.784   0.653  1.5346 -0.0092 -0.0381
  679MOL0     H91619   4.601   3.989   0.801 -2.3512 -2.1206  0.6059
  679MOL0     H91620   4.475   3.904   0.716  0.9233 -2.3853 -2.7144
  679MOL0     H91621   4.486   4.066   0.527  0.5606 -0.1910  0.2174
  679MOL0     H91622   4.615   4.158   0.617  0.4445 -0.2662  1.8840
  679MOL0     H91623   4.425   4.283   0.653  1.5671 -0.2884 -2.0112
  679MOL0     H91624   4.469   4.191   0.795  1.2055  3.9945  0.4428
  679MOL0     H91625   4.337   3.989   0.917 -0.0358  0.3852  0.3075
  679MOL0     H91626   4.336   3.947   1.133 -1.0534 -1.1206 -0.8905
  679MOL0     H91627   4.258   4.069   1.236 -0.4908 -1.3867  1.4435
  679MOL0     H91628   4.172   3.916   1.181 -1.8210  0.0555 -1.4274
  679MOL0     H91629   3.702   4.184   1.217  0.4609  0.7268 -1.2893
  679MOL0     H91630   3.543   4.222   1.392  0.2243 -0.9833 -0.3540
  679MOL0     H91631   3.717   4.398   1.743 -0.0354  0.5556 -0.2625
  679MOL0     H91632   3.556   4.419   1.794  0.7825 -0.4329  1.9532
  679MOL0     H91633   3.499   4.157   1.744 -0.3728  0.3164  2.5798
  679MOL0     H91634   3.680   4.161   1.734  0.6883 -0.4073  1.6438
  679MOL0     H91635   3.494   4.244   1.972  2.0165  2.1103  3.1748
  679MOL0     H91636   3.662   4.233   1.983 -0.6250  1.1765 -1.0619
  679MOL0     H91637   3.492   4.001   1.893  1.3380  1.6329 -3.0495
  679MOL0     H91638   3.661   3.987   1.946 -0.8632 -0.5635 -2.6668
  679MOL0     H91639   3.419   4.052   2.126  0.9182  0.9871  2.4869
  679MOL0     H91640   3.594   4.033   2.173  2.9277 -3.3446 -2.0323
  679MOL0     H91641   3.421   3.835   2.201 -2.1264  2.1727 -2.5106
  679MOL0     H91642   3.467   3.807   2.034  0.8639  2.2585 -0.8115
  679MOL0     H91643   3.646   3.823   2.271 -2.1125  1.5307  0.0193
  679MOL0     H91644   3.715   3.839   2.110  0.1652 -1.7125 -0.4646
  679MOL0     H91645   3.758   3.627   2.189  0.1805  0.4539 -1.3606
  679MOL0     H91646   3.657   3.594   2.055  0.5752 -0.3180  0.2409
  679MOL0     H91647   3.841   4.445   1.603 -1.2490  0.2653  0.4363
  679MOL0     H91648   3.992   4.442   1.421  1.4806 -1.9610 -0.0844
  679MOL0     H91649   3.934   4.270   0.909 -0.1542  0.2370  0.9171
  679MOL0     H91650   4.089   4.266   0.720 -0.3055 -1.5409 -1.0875
  679MOL0     H91651   5.665   4.109   0.914 -1.3088  0.3096 -0.0120
  679MOL0     H91652   5.564   4.166   1.116  1.9720  0.4880  1.9004
  679MOL0     H91653   5.800   4.224   1.642  0.9023 -2.8889  1.1979
  679MOL0     H91654   5.734   4.276   1.869 -0.5750 -0.8533  0.8619
  679MOL0     H91655   5.627   4.149   2.096  3.0528  1.5042 -0.1920
  679MOL0     H91656   5.623   4.324   2.084 -0.7468  0.5335  0.7024
  679MOL0     H91657   5.395   4.323   2.196  0.8862  0.0430 -1.5031
  679MOL0     H91658   5.534   4.263   2.284  1.7814 -0.1017 -1.4982
  679MOL0     H91659   5.457   4.018   2.238 -0.2998 -0.7717 -0.4246
  679MOL0     H91660   5.331   4.078   2.134  1.1000 -2.9188  0.5504
  679MOL0     H91661   5.247   4.223   2.354  1.1693  0.6234 -1.3804
  679MOL0     H91662   5.367   4.131   2.450  1.2717  0.7254 -1.5242
  679MOL0     H91663   5.116   3.817   2.434  0.0397  0.3475  0.7890
  679MOL0     H91664   5.330   4.186   1.765  0.2388  1.6129 -1.2965
  679MOL0     H91665   5.388   4.103   1.552 -1.9234 -0.5235  0.6018
  680MOL0     O91666   3.587  10.138   7.873 -0.3862 -0.4398  0.3168
  680MOL0     C91667   3.659  10.228   7.844 -0.1079  0.5949  0.0737
  680MOL0     O91668   3.725  10.301   7.934 -0.1174  0.3857 -0.5740
  680MOL0     C91669   3.705  10.294   8.069  0.8547 -0.4813  0.7497
  680MOL0     C91670   3.795  10.374   8.142  0.1316 -0.8530 -0.0208
  680MOL0     C91671   3.796  10.383   8.287  0.0938 -0.2526 -0.4205
  680MOL0     C91672   3.709  10.299   8.355  0.1311  0.2258  0.3126
  680MOL0     O91673   3.676  10.310   8.493  0.0110  0.1263 -0.1867
  680MOL0     C91674   3.774  10.381   8.569 -0.2278  0.6994  0.0225
  680MOL0     C91675   3.749  10.326   8.709  0.4300  0.2566 -0.6480
  680MOL0     C91676   3.856  10.395   8.788  0.5817  0.3509  0.4965
  680MOL0     C91677   3.837  10.371   8.940 -0.0820  0.3562 -0.2270
  680MOL0     C91678   3.950  10.445   9.014  0.2717  0.5050 -0.1108
  680MOL0     C91679   3.955  10.391   9.164  0.5071  0.2342  0.5779
  680MOL0     C91680   4.042  10.466   9.264 -0.2346 -0.3255 -0.9600
  680MOL0     C91681   4.051  10.376   9.385  0.6733  0.0600  0.2755
  680MOL0     N91682   3.916  10.392   9.455  0.3532  0.1364 -0.7683
  680MOL0     C91683   3.827  10.286   9.465  0.4445 -0.2373  0.3985
  680MOL0     C91684   3.721  10.350   9.524 -0.3070  0.4564 -0.8329
  680MOL0     C91685   3.600  10.267   9.543  0.6188  0.4829 -0.9322
  680MOL0     C91686   3.521  10.251   9.423  0.3204  0.0433  1.2159
  680MOL0     C91687   3.494  10.380   9.351 -1.0442 -0.9430  0.0648
  680MOL0     C91688   3.400  10.343   9.233 -1.0017  0.4265 -0.4005
  680MOL0     O91689   3.449  10.248   9.143  0.5442  0.2366  0.0892
  680MOL0     C91690   3.398  10.236   9.019 -0.9249  0.1143  0.1450
  680MOL0     C91691   3.264  10.273   8.991  0.7053  0.4706 -0.7664
  680MOL0     C91692   3.206  10.257   8.867  0.2009  0.2455  0.0610
  680MOL0     C91693   3.062  10.295   8.840 -0.6051 -0.2593  0.0038
  680MOL0     C91694   3.285  10.221   8.757  0.3709 -0.3425 -0.1597
  680MOL0     C91695   3.238  10.236   8.620 -0.0747  0.6847  0.1694
  680MOL0     O91696   3.335  10.258   8.532 -0.1777 -0.7836  0.0016
  680MOL0     C91697   3.290  10.256   8.398 -0.5011  0.5500 -0.0846
  680MOL0     C91698   3.251  10.135   8.340 -0.1967 -0.2216  0.9678
  680MOL0     C91699   3.226  10.136   8.196  0.2926  0.2055 -0.0801
  680MOL0     C91700   3.205  10.254   8.125  0.0232 -0.0246  0.3949
  680MOL0     O91701   3.195  10.257   7.988 -0.3579 -0.8437 -0.1030
  680MOL0     C91702   3.228  10.132   7.927  0.2421 -0.6668  0.7610
  680MOL0     C91703   3.220  10.163   7.779  0.1925  0.5703  0.5031
  680MOL0     C91704   3.071  10.193   7.742 -0.1901  0.2261 -0.4655
  680MOL0     C91705   3.060  10.223   7.590 -0.6502  0.9497 -0.4548
  680MOL0     C91706   2.927  10.203   7.525  1.7554 -0.6213  0.2958
  680MOL0     C91707   2.820  10.095   7.590 -0.2933 -0.5280 -0.5995
  680MOL0     C91708   2.693  10.104   7.511 -0.3635  0.5732  0.0421
  680MOL0     C91709   2.586  10.017   7.580 -0.3776 -0.1502  0.3162
  680MOL0    Cl91710   2.418  10.030   7.515  0.3861 -0.1776 -0.1375
  680MOL0     C91711   3.217  10.369   8.196 -0.5109  0.8898 -0.2820
  680MOL0     C91712   3.273  10.375   8.323 -0.2862 -0.1047 -0.9807
  680MOL0     O91713   3.119  10.220   8.591 -0.1863 -0.7058 -0.1509
  680MOL0     C91714   3.412  10.170   8.785  0.3939 -0.2176 -0.2060
  680MOL0     C91715   3.474  10.184   8.909 -0.0262  0.5724  0.4911
  680MOL0     N91716   3.750  10.480   9.559 -0.0984  0.2781 -0.8620
  680MOL0     N91717   3.868  10.501   9.516  0.5272 -0.9444 -0.4709
  680MOL0     C91718   3.617  10.227   8.283  0.0057 -0.8336  0.2940
  680MOL0     C91719   3.608  10.220   8.145  0.2043 -0.5934 -0.0550
  680MOL0     C91720   3.697  10.244   7.699  0.9293  0.1343 -0.2928
  680MOL0     C91721   3.815  10.304   7.663  0.2886 -0.7783 -0.3255
  680MOL0     C91722   3.855  10.310   7.529 -0.3744 -0.3315  0.0053
  680MOL0     C91723   3.773  10.253   7.433 -0.4024  0.9779  0.4313
  680MOL0     O91724   3.802  10.249   7.298  0.1812  0.1806  0.4000
  680MOL0     C91725   3.927  10.294   7.250  0.8264  0.0627 -0.4603
  680MOL0     C91726   3.911  10.320   7.098  0.0708  0.3683  0.3768
  680MOL0     C91727   4.038  10.334   7.013  0.8653 -0.2718 -0.6500
  680MOL0     C91728   4.022  10.322   6.863  0.1493 -0.4982 -0.4249
  680MOL0     C91729   4.067  10.199   6.794 -0.2719 -1.1457 -1.0677
  680MOL0     C91730   4.104  10.100   6.741 -0.4503 -0.3118 -0.4073
  680MOL0     C91731   3.653  10.196   7.467  0.5359  0.5566 -0.3330
  680MOL0     C91732   3.615  10.181   7.598 -0.1167  0.2106  0.5383
  680MOL0     H91733   3.867  10.435   8.089  2.1577 -1.9001  1.3754
  680MOL0     H91734   3.860  10.457   8.334 -2.7128  1.8245  0.3174
  680MOL0     H91735   3.870  10.338   8.539 -1.1509 -1.1094 -0.4432
  680MOL0     H91736   3.760  10.490   8.567 -1.3665  0.5681  0.5645
  680MOL0     H91737   3.649  10.368   8.725 -0.9899 -1.8856 -3.1031
  680MOL0     H91738   3.753  10.218   8.725  3.7972  0.3484 -0.2846
  680MOL0     H91739   3.946  10.349   8.745  2.1842  3.7613 -0.1321
  680MOL0     H91740   3.869  10.501   8.765 -0.0470 -0.0343 -2.0189
  680MOL0     H91741   3.739  10.406   8.974 -0.3802 -1.0184  0.4267
  680MOL0     H91742   3.851  10.263   8.954 -0.0571  0.4331  0.3659
  680MOL0     H91743   4.046  10.436   8.962  1.3972  2.3742  1.4961
  680MOL0     H91744   3.923  10.550   9.003  0.5339  0.9242  2.5082
  680MOL0     H91745   3.850  10.383   9.196  1.5151 -1.5994  3.8110
  680MOL0     H91746   3.994  10.290   9.153 -0.6819 -0.3407  1.4095
  680MOL0     H91747   4.144  10.472   9.223  1.0972  1.6037  2.2948
  680MOL0     H91748   4.002  10.564   9.290 -1.7923 -1.2391  0.2397
  680MOL0     H91749   4.131  10.407   9.453 -0.7331  1.5503  1.3341
  680MOL0     H91750   4.073  10.272   9.360  1.6107  0.3445 -0.1167
  680MOL0     H91751   3.833  10.181   9.440 -2.3300 -0.9321  2.1435
  680MOL0     H91752   3.633  10.169   9.579 -3.3265 -1.9574 -3.2395
  680MOL0     H91753   3.537  10.308   9.623  1.9398  1.4165 -0.3258
  680MOL0     H91754   3.428  10.199   9.448 -0.1252  0.4228  0.3536
  680MOL0     H91755   3.573  10.173   9.366 -0.1798 -0.8752  1.9892
  680MOL0     H91756   3.574  10.426   9.292  0.7517 -3.4388  0.3776
  680MOL0     H91757   3.440  10.447   9.418 -1.1490  0.2581 -1.1768
  680MOL0     H91758   3.403  10.437   9.176  0.3262 -0.5668 -2.0794
  680MOL0     H91759   3.300  10.315   9.267 -0.4555 -0.9853  0.0809
  680MOL0     H91760   3.206  10.309   9.075 -2.1751 -0.1035 -2.3736
  680MOL0     H91761   3.074  10.371   8.762  1.3129 -1.9501 -1.4729
  680MOL0     H91762   3.002  10.212   8.802 -2.8627  0.1794  2.3333
  680MOL0     H91763   3.015  10.334   8.931 -0.8269  3.4207 -1.5356
  680MOL0     H91764   3.260  10.040   8.392  3.0855 -0.3088  0.4533
  680MOL0     H91765   3.230  10.042   8.142 -0.4110 -0.2433  0.6254
  680MOL0     H91766   3.329  10.097   7.949 -0.1750 -0.4522  3.3511
  680MOL0     H91767   3.157  10.054   7.955 -1.2298  1.3784  3.1359
  680MOL0     H91768   3.292  10.241   7.752  1.2805 -1.4766 -3.1204
  680MOL0     H91769   3.263  10.081   7.721  1.3009  1.4344  0.0424
  680MOL0     H91770   3.054  10.284   7.800  1.7106 -0.6527  1.6258
  680MOL0     H91771   3.007  10.109   7.770  0.0534  0.3496  0.4974
  680MOL0     H91772   3.115  10.317   7.575  1.4353 -0.2456 -0.7846
  680MOL0     H91773   3.127  10.148   7.545  0.7298  0.1284  2.6901
  680MOL0     H91774   2.948  10.175   7.421  1.8515  1.0778 -0.1623
  680MOL0     H91775   2.875  10.299   7.525  0.0589 -1.4404  2.8613
  680MOL0     H91776   2.861   9.994   7.578  0.3752 -0.4472  0.7790
  680MOL0     H91777   2.794  10.107   7.696  0.8106 -0.8337 -0.2758
  680MOL0     H91778   2.702  10.071   7.407  0.1337 -0.8943  0.5258
  680MOL0     H91779   2.662  10.209   7.507  0.2803  0.9592  2.7521
  680MOL0     H91780   2.563  10.046   7.683  0.5559 -0.0788  0.5097
  680MOL0     H91781   2.621   9.915   7.597  1.3306  0.7624  2.8219
  680MOL0     H91782   3.213  10.463   8.143  0.6810 -0.4066 -2.8461
  680MOL0     H91783   3.292  10.474   8.365 -6.6320  1.3310 -0.5997
  680MOL0     H91784   3.471  10.116   8.712 -0.5004 -1.2554 -0.1826
  680MOL0     H91785   3.576  10.153   8.927  0.0924  1.5999  1.7157
  680MOL0     H91786   3.539  10.167   8.328 -0.7281  1.4310  2.2024
  680MOL0     H91787   3.535  10.158   8.094  1.1858  0.3693 -2.8245
  680MOL0     H91788   3.871  10.354   7.741 -0.0505  0.9462 -1.1436
  680MOL0     H91789   3.945  10.371   7.519 -0.6101  0.1302  0.6075
  680MOL0     H91790   3.948  10.388   7.301 -0.1443 -0.5560  1.1573
  680MOL0     H91791   4.008  10.224   7.273  2.9858  2.4440 -0.3402
  680MOL0     H91792   3.844  10.402   7.070  1.1634  0.5031 -2.1122
  680MOL0     H91793   3.874  10.224   7.060  1.9710  0.8390 -3.1369
  680MOL0     H91794   4.111  10.258   7.042  1.8514  0.7702 -0.3350
  680MOL0     H91795   4.094  10.428   7.028  0.6572  0.0923 -2.0220
  680MOL0     H91796   4.074  10.409   6.822  0.7628 -0.1916  0.9709
  680MOL0     H91797   3.914  10.326   6.845  0.0323 -0.7901  0.1945
  680MOL0     H91798   4.154  10.011   6.707  1.3350 -0.6328  2.6524
  680MOL0     H91799   3.587  10.149   7.394 -1.6548 -1.5508  2.7533
  680MOL0     H91800   3.529  10.117   7.616  0.1760  0.1321  1.7232
  681MOL0     O91801   1.538   2.960   1.895 -0.5507 -0.4349 -0.1008
  681MOL0     C91802   1.505   2.986   2.008  0.3256  0.8128 -0.3494
  681MOL0     O91803   1.583   2.976   2.126 -0.0314 -0.2494  0.4096
  681MOL0     C91804   1.718   2.940   2.109 -0.7277  0.6764 -0.6780
  681MOL0     C91805   1.756   2.804   2.076 -0.0622  0.1464 -0.6674
  681MOL0     C91806   1.889   2.779   2.061 -0.5543  0.2833  0.4672
  681MOL0     C91807   1.990   2.876   2.077  0.3816 -0.5640 -0.2200
  681MOL0     O91808   2.115   2.834   2.071  0.0683 -0.0125 -0.0285
  681MOL0     C91809   2.226   2.918   2.064 -0.1777 -0.2495 -0.5986
  681MOL0     C91810   2.255   2.996   1.936  0.5964  0.6424  0.4697
  681MOL0     C91811   2.388   3.076   1.953 -0.5919  0.2482 -0.5114
  681MOL0     C91812   2.448   3.131   1.816  0.4186 -0.0461  0.1294
  681MOL0     C91813   2.581   3.200   1.847 -0.5199  0.2483  1.0969
  681MOL0     C91814   2.670   3.224   1.723  0.3473  0.5628 -0.2410
  681MOL0     C91815   2.805   3.274   1.776 -0.3080  0.2763 -0.0881
  681MOL0     C91816   2.793   3.406   1.860 -0.9286 -0.1202  0.2443
  681MOL0     N91817   2.922   3.460   1.886  0.2021 -0.1071  1.1124
  681MOL0     C91818   2.972   3.492   2.008  0.0892 -0.0760 -0.8958
  681MOL0     C91819   3.072   3.580   1.978 -0.7811 -0.0956 -0.7857
  681MOL0     C91820   3.168   3.632   2.086 -0.1082  0.6407  1.0009
  681MOL0     C91821   3.105   3.744   2.164  0.3910  0.0065 -0.1422
  681MOL0     C91822   3.048   3.859   2.091 -0.7649 -0.1750 -0.1406
  681MOL0     C91823   2.967   3.949   2.183  0.2031 -0.0722 -0.1008
  681MOL0     O91824   3.012   3.995   2.306 -0.0243 -0.0690 -0.4155
  681MOL0     C91825   3.103   4.092   2.323  0.1308 -0.0382  0.6954
  681MOL0     C91826   3.212   4.046   2.399 -0.3272  0.6396  0.8736
  681MOL0     C91827   3.335   4.114   2.414 -0.0023  0.2966  0.0690
  681MOL0     C91828   3.448   4.047   2.495 -0.0615 -0.8295 -0.1146
  681MOL0     C91829   3.342   4.246   2.367  0.0874  0.5459  0.0210
  681MOL0     C91830   3.454   4.339   2.392  0.4638  1.1316 -0.1238
  681MOL0     O91831   3.467   4.455   2.310  0.2042 -0.0512 -0.3956
  681MOL0     C91832   3.584   4.528   2.296 -0.1189  1.0432  0.8011
  681MOL0     C91833   3.563   4.650   2.230  0.4300 -0.1395 -0.2721
  681MOL0     C91834   3.658   4.759   2.225  0.2414 -0.0562  0.6735
  681MOL0     C91835   3.789   4.736   2.272 -0.1186  0.3811 -0.3692
  681MOL0     O91836   3.888   4.830   2.282 -0.2974  1.0354  0.5158
  681MOL0     C91837   3.848   4.974   2.290 -0.9294 -0.5488  0.1150
  681MOL0     C91838   3.971   5.053   2.345  0.0151  0.0762 -0.2984
  681MOL0     C91839   3.968   5.199   2.304  0.3411  0.3192  0.2405
  681MOL0     C91840   4.060   5.293   2.381 -1.0626 -0.5882 -0.3296
  681MOL0     C91841   4.060   5.448   2.345  0.9194 -0.4013 -1.1843
  681MOL0     C91842   3.944   5.504   2.436  0.1664 -0.0100  0.5703
  681MOL0     C91843   3.922   5.648   2.414 -0.1511  0.7144 -0.5174
  681MOL0     C91844   3.881   5.668   2.274  0.0832  0.1848 -0.4674
  681MOL0    Cl91845   3.712   5.603   2.240  0.1642 -0.0840  0.0804
  681MOL0     C91846   3.819   4.609   2.319 -0.1097  0.1398 -0.1286
  681MOL0     C91847   3.721   4.510   2.342  0.7093  0.5160 -0.1594
  681MOL0     O91848   3.523   4.316   2.486  0.4749  0.0709  0.6245
  681MOL0     C91849   3.235   4.290   2.283 -0.6911 -0.4041 -0.1711
  681MOL0     C91850   3.113   4.214   2.261 -0.2230 -0.5589 -0.4987
  681MOL0     N91851   3.075   3.609   1.843  0.3424  0.0788  0.3684
  681MOL0     N91852   2.974   3.543   1.794 -0.1805 -0.6162  0.9792
  681MOL0     C91853   1.951   3.001   2.121 -0.7901 -0.0770  0.0239
  681MOL0     C91854   1.817   3.036   2.120 -0.8710  0.0924 -0.4356
  681MOL0     C91855   1.363   2.987   2.032  0.0987 -0.5769  0.5106
  681MOL0     C91856   1.316   3.021   2.162 -0.4332  0.3444  0.8903
  681MOL0     C91857   1.184   3.029   2.193  0.0727 -0.1440 -0.2583
  681MOL0     C91858   1.087   2.989   2.103  0.3671 -0.1171  0.0275
  681MOL0     O91859   0.952   2.993   2.121 -1.2360  0.1504 -0.1694
  681MOL0     C91860   0.889   2.868   2.111  0.8041  1.4991 -0.1468
  681MOL0     C91861   0.748   2.906   2.045 -0.1476  1.5967 -0.5750
  681MOL0     C91862   0.765   2.892   1.883  0.4090  0.7376  0.2491
  681MOL0     C91863   0.628   2.879   1.815 -0.1660 -0.1599 -0.3629
  681MOL0     C91864   0.546   2.998   1.846  0.0226 -1.9402 -0.6966
  681MOL0     C91865   0.475   3.099   1.860 -0.3844 -0.2154  0.3310
  681MOL0     C91866   1.128   2.947   1.975  0.2298 -0.2786 -0.8084
  681MOL0     C91867   1.264   2.945   1.939  0.9509 -0.2423 -0.5330
  681MOL0     H91868   1.681   2.735   2.040 -1.0113  1.6342 -1.6445
  681MOL0     H91869   1.911   2.677   2.033 -1.5496  0.0336  0.5324
  681MOL0     H91870   2.216   2.988   2.147  1.3301 -1.7585  0.9397
  681MOL0     H91871   2.321   2.867   2.085  0.3696  1.2781  0.8294
  681MOL0     H91872   2.277   2.922   1.859 -2.4588  1.4608 -1.3493
  681MOL0     H91873   2.171   3.054   1.899  0.1314  0.0715  0.6200
  681MOL0     H91874   2.367   3.157   2.024  3.1016  0.3455  0.7105
  681MOL0     H91875   2.453   3.011   2.011 -0.1050  1.4463  0.3336
  681MOL0     H91876   2.465   3.039   1.760  0.0733 -0.4204  0.6386
  681MOL0     H91877   2.372   3.199   1.775 -0.7193  0.9859  3.5254
  681MOL0     H91878   2.558   3.297   1.893 -3.3450  0.3863 -0.4117
  681MOL0     H91879   2.631   3.133   1.917  0.0808 -0.8338 -0.3348
  681MOL0     H91880   2.683   3.131   1.666 -0.7522 -0.8009  1.5876
  681MOL0     H91881   2.622   3.296   1.657  1.1029  0.2852 -1.1197
  681MOL0     H91882   2.862   3.203   1.837 -0.7970  0.6206  0.7916
  681MOL0     H91883   2.859   3.296   1.684  0.5975 -1.9741 -0.1788
  681MOL0     H91884   2.750   3.378   1.956 -0.1785 -3.1459 -0.1891
  681MOL0     H91885   2.732   3.488   1.821 -0.4645  0.3833  0.5529
  681MOL0     H91886   2.938   3.443   2.098 -0.8621  2.3571  0.1604
  681MOL0     H91887   3.173   3.549   2.157 -0.8464  0.5992  1.0124
  681MOL0     H91888   3.253   3.674   2.031 -0.3844  2.4281  1.8833
  681MOL0     H91889   3.171   3.783   2.242  1.1526 -0.5017 -0.5166
  681MOL0     H91890   3.015   3.703   2.211 -0.9876  0.0533 -2.5191
  681MOL0     H91891   2.989   3.809   2.014  2.7108 -2.9816 -1.2435
  681MOL0     H91892   3.132   3.912   2.044 -0.8925  1.1725  1.0616
  681MOL0     H91893   2.880   3.889   2.211 -0.2985  0.7676  0.2118
  681MOL0     H91894   2.922   4.029   2.122 -0.9369 -1.1379 -0.6977
  681MOL0     H91895   3.204   3.949   2.447  1.5756  1.0704  2.1701
  681MOL0     H91896   3.454   4.100   2.590 -2.6244 -0.3044 -0.1940
  681MOL0     H91897   3.424   3.947   2.532 -1.3957 -0.4628  0.0564
  681MOL0     H91898   3.543   4.043   2.441 -0.7091  0.1595 -1.3870
  681MOL0     H91899   3.466   4.667   2.185  0.2426  0.0202  0.1859
  681MOL0     H91900   3.615   4.855   2.197 -0.3020 -0.5042 -0.0501
  681MOL0     H91901   3.813   5.015   2.194  3.4460  0.8400 -1.1407
  681MOL0     H91902   3.764   4.985   2.359 -2.2788  1.2860 -1.6844
  681MOL0     H91903   3.973   5.051   2.454 -1.9713 -3.5120 -0.1710
  681MOL0     H91904   4.062   5.005   2.309 -1.0894 -2.1231 -0.3228
  681MOL0     H91905   3.869   5.244   2.310 -0.9366 -2.0647 -1.4830
  681MOL0     H91906   4.009   5.201   2.203  0.2787  3.9797  0.1516
  681MOL0     H91907   4.032   5.283   2.486 -0.1598  0.2027 -0.0031
  681MOL0     H91908   4.162   5.254   2.374 -0.2269  1.4502 -0.1790
  681MOL0     H91909   4.058   5.462   2.237  3.2198  3.3686 -0.9234
  681MOL0     H91910   4.151   5.497   2.380  0.9858 -1.2991 -0.0236
  681MOL0     H91911   3.857   5.440   2.418 -0.8339  1.4682 -0.0364
  681MOL0     H91912   3.961   5.490   2.543 -0.3443  1.6711  0.9016
  681MOL0     H91913   4.008   5.711   2.437 -0.6920  0.4923  2.4963
  681MOL0     H91914   3.844   5.688   2.480  0.0813 -0.6446  0.6282
  681MOL0     H91915   3.946   5.622   2.199 -0.9277 -0.5389 -0.9198
  681MOL0     H91916   3.880   5.776   2.256  0.3625  0.4312  0.9263
  681MOL0     H91917   3.916   4.586   2.360  0.0387  0.5108 -0.2657
  681MOL0     H91918   3.750   4.427   2.406 -1.1033  0.1504  0.2448
  681MOL0     H91919   3.234   4.389   2.240  0.7812 -1.2092 -2.2351
  681MOL0     H91920   3.029   4.246   2.200 -0.6052  3.2123  1.6729
  681MOL0     H91921   2.036   3.069   2.122  0.0419 -0.8683 -3.2700
  681MOL0     H91922   1.780   3.136   2.141 -1.4176 -0.2342  0.2167
  681MOL0     H91923   1.393   3.046   2.234  1.6285 -4.2887  0.6436
  681MOL0     H91924   1.143   3.041   2.293 -4.1969 -0.2222 -1.8039
  681MOL0     H91925   0.953   2.796   2.060  2.1426  1.6909  1.1886
  681MOL0     H91926   0.867   2.834   2.212 -1.7955 -1.8825 -1.6287
  681MOL0     H91927   0.707   2.998   2.087 -0.9395 -0.1016  2.8378
  681MOL0     H91928   0.670   2.838   2.083  0.3118  1.6902  0.5937
  681MOL0     H91929   0.829   2.808   1.857  0.6910  1.3856 -1.2444
  681MOL0     H91930   0.810   2.983   1.843 -0.0937  0.0932 -1.9188
  681MOL0     H91931   0.588   2.785   1.852  0.2967  0.6543  2.4235
  681MOL0     H91932   0.639   2.873   1.706  0.5101 -0.2929 -0.2933
  681MOL0     H91933   0.412   3.186   1.858 -3.0658 -2.0216 -2.8117
  681MOL0     H91934   1.044   2.932   1.907 -1.1601 -0.5712  0.9143
  681MOL0     H91935   1.299   2.920   1.839 -2.0047 -0.3221 -1.6375
  682MOL0     O91936   5.020   8.605  10.923 -0.8188 -0.2806 -0.7116
  682MOL0     C91937   5.090   8.511  10.969  0.8665  1.2680  0.0750
  682MOL0     O91938   5.085   8.461  11.095  0.4817  0.2520 -0.1597
  682MOL0     C91939   4.980   8.512  11.164  0.8563  0.2939 -0.4390
  682MOL0     C91940   4.867   8.431  11.196 -0.0063  1.0554 -0.2510
  682MOL0     C91941   4.768   8.478  11.283  0.2286 -0.1604  0.7081
  682MOL0     C91942   4.785   8.611  11.326  0.2090 -0.7510  0.3037
  682MOL0     O91943   4.681   8.662  11.400  0.6602  0.3113 -0.4808
  682MOL0     C91944   4.564   8.682  11.314 -0.3402 -0.0355 -0.1503
  682MOL0     C91945   4.462   8.780  11.374 -0.8024 -0.1856 -0.0579
  682MOL0     C91946   4.394   8.733  11.505  0.3305  0.4799  0.1325
  682MOL0     C91947   4.476   8.731  11.636  0.6734 -0.2071 -0.0702
  682MOL0     C91948   4.387   8.717  11.762 -0.1690 -0.7457 -0.5498
  682MOL0     C91949   4.292   8.597  11.767  0.8596 -0.2037 -0.5016
  682MOL0     C91950   4.211   8.596  11.894 -0.6363  0.0165  0.5515
  682MOL0     C91951   4.144   8.451  11.908  0.6151 -0.3310  0.9988
  682MOL0     N91952   4.061   8.416  11.792  0.2579 -0.6547  0.2675
  682MOL0     C91953   3.963   8.505  11.745  0.9853  0.0898 -0.3675
  682MOL0     C91954   3.882   8.433  11.674 -0.6479  0.2259  0.1706
  682MOL0     C91955   3.764   8.482  11.595  0.3954 -0.3130 -0.5294
  682MOL0     C91956   3.680   8.368  11.539  0.1533 -0.1894 -0.3829
  682MOL0     C91957   3.569   8.434  11.458  0.3598  0.1693 -0.1855
  682MOL0     C91958   3.492   8.330  11.372  0.4395  0.3459 -0.0589
  682MOL0     O91959   3.378   8.397  11.310 -0.3501 -0.2551 -0.4067
  682MOL0     C91960   3.394   8.481  11.203 -0.6953  0.1674  1.4805
  682MOL0     C91961   3.282   8.557  11.160 -0.1118  0.9546 -0.8218
  682MOL0     C91962   3.290   8.661  11.061 -0.8368  0.9271 -0.3735
  682MOL0     C91963   3.167   8.747  11.034 -0.1091  0.1346 -1.0799
  682MOL0     C91964   3.410   8.662  10.982 -1.2595  0.2392  0.0901
  682MOL0     C91965   3.415   8.763  10.871  0.6662 -0.0667  0.2558
  682MOL0     O91966   3.307   8.751  10.785 -1.0213 -0.2797 -0.2098
  682MOL0     C91967   3.312   8.797  10.659  0.4820  0.8584  0.3388
  682MOL0     C91968   3.362   8.707  10.567 -1.0289  1.2046 -0.5241
  682MOL0     C91969   3.389   8.758  10.439 -0.7781  0.1338  0.1725
  682MOL0     C91970   3.346   8.888  10.402  0.2681  0.3905  0.9150
  682MOL0     O91971   3.394   8.950  10.290 -0.2031  0.6564  0.5812
  682MOL0     C91972   3.439   8.879  10.164  0.0355 -0.0499 -1.3117
  682MOL0     C91973   3.584   8.906  10.109  0.1372  0.7296  0.0021
  682MOL0     C91974   3.604   9.052  10.083  0.0497  0.7338 -0.1801
  682MOL0     C91975   3.752   9.075  10.065  0.5546  1.1862 -0.3029
  682MOL0     C91976   3.781   9.223  10.041 -0.4767  0.4070 -0.9891
  682MOL0     C91977   3.934   9.234  10.055  0.2308  0.0405 -0.2420
  682MOL0     C91978   3.987   9.382  10.025  0.5021 -0.6705  0.1120
  682MOL0     C91979   3.919   9.481  10.121 -0.4240  0.0607 -0.3730
  682MOL0    Cl91980   3.986   9.646  10.095 -0.2343  0.2837  0.1128
  682MOL0     C91981   3.282   8.969  10.494 -0.3598 -0.2603 -1.0015
  682MOL0     C91982   3.278   8.926  10.626  0.3907 -0.2652  0.8586
  682MOL0     O91983   3.522   8.823  10.845  0.6826  0.2448 -0.0718
  682MOL0     C91984   3.518   8.589  11.023  0.5123 -0.3887  0.6131
  682MOL0     C91985   3.513   8.500  11.130  0.3021 -0.1318  0.3873
  682MOL0     N91986   3.912   8.301  11.678 -0.0673  1.2774 -0.0793
  682MOL0     N91987   4.020   8.295  11.752  0.1553  0.4342 -0.1393
  682MOL0     C91988   4.888   8.696  11.287  0.1022  0.2647 -0.9216
  682MOL0     C91989   4.997   8.638  11.219  0.2823  0.0103  0.6084
  682MOL0     C91990   5.183   8.439  10.869  0.2950  0.7701 -0.1295
  682MOL0     C91991   5.260   8.332  10.916 -0.1934 -0.3588 -0.1317
  682MOL0     C91992   5.342   8.262  10.834  0.6891  0.1543 -0.0964
  682MOL0     C91993   5.357   8.298  10.695  0.5257 -0.5605 -0.9171
  682MOL0     O91994   5.454   8.246  10.612 -0.6143 -0.8889  0.6609
  682MOL0     C91995   5.465   8.293  10.476  0.0280 -0.4021 -0.3819
  682MOL0     C91996   5.356   8.229  10.389 -0.0256  0.1765  0.2548
  682MOL0     C91997   5.335   8.076  10.410  0.3372  0.3280 -0.8555
  682MOL0     C91998   5.435   8.003  10.322 -0.1950 -0.2943 -0.0309
  682MOL0     C91999   5.410   7.862  10.340 -0.0501  0.0021  0.5172
  682MOL0     C92000   5.384   7.747  10.346  0.0784  0.1908 -0.0213
  682MOL0     C92001   5.272   8.409  10.651  0.0501 -0.5317 -0.2888
  682MOL0     C92002   5.190   8.478  10.742  0.8031 -0.4506 -0.2145
  682MOL0     H92003   4.871   8.337  11.143  0.8942  2.3534 -2.6076
  682MOL0     H92004   4.673   8.428  11.299 -1.2062  1.3003 -2.4034
  682MOL0     H92005   4.600   8.732  11.224  0.6115 -0.0048  0.2317
  682MOL0     H92006   4.505   8.594  11.289 -0.8451  0.6901 -1.6099
  682MOL0     H92007   4.496   8.883  11.393 -1.2925 -0.3885  2.2819
  682MOL0     H92008   4.382   8.797  11.302  2.4751 -0.0988 -4.0623
  682MOL0     H92009   4.307   8.798  11.518 -2.9240 -3.6703  1.3840
  682MOL0     H92010   4.352   8.633  11.491  0.5358  0.6327 -1.7970
  682MOL0     H92011   4.532   8.639  11.613  0.6280 -0.8614  2.2369
  682MOL0     H92012   4.551   8.810  11.644  1.6381 -1.1732  0.6647
  682MOL0     H92013   4.457   8.708  11.846  1.3932 -0.3394 -1.7586
  682MOL0     H92014   4.325   8.806  11.772 -2.6183 -2.2284 -1.7766
  682MOL0     H92015   4.226   8.606  11.680  0.8773  0.5412 -0.4361
  682MOL0     H92016   4.350   8.505  11.757  0.7707 -0.5984  1.9548
  682MOL0     H92017   4.271   8.614  11.983  1.4118 -1.2991 -0.4749
  682MOL0     H92018   4.128   8.667  11.893 -2.6326 -2.1149 -2.3028
  682MOL0     H92019   4.086   8.435  12.000 -1.7887 -0.4638 -0.4730
  682MOL0     H92020   4.229   8.383  11.897 -1.3765 -2.9292  0.6956
  682MOL0     H92021   3.954   8.609  11.775 -0.4043 -0.5867  1.7995
  682MOL0     H92022   3.714   8.548  11.667  0.8114 -2.9190  2.3777
  682MOL0     H92023   3.799   8.542  11.510  2.3434  0.4702  0.7540
  682MOL0     H92024   3.636   8.314  11.624 -0.9492  3.5957  1.6690
  682MOL0     H92025   3.737   8.304  11.471  2.6236  1.0649  0.3904
  682MOL0     H92026   3.617   8.509  11.394  2.1481 -0.1243  0.7276
  682MOL0     H92027   3.501   8.484  11.527  0.8153  0.6166 -0.0521
  682MOL0     H92028   3.458   8.249  11.437  2.4149 -1.7873 -1.5121
  682MOL0     H92029   3.546   8.275  11.294 -1.1802  0.4774 -1.3150
  682MOL0     H92030   3.192   8.521  11.210  1.9217 -0.0255  2.4823
  682MOL0     H92031   3.102   8.696  10.963 -1.0725 -0.2950  0.0693
  682MOL0     H92032   3.121   8.755  11.133 -2.0444  1.5780 -2.0381
  682MOL0     H92033   3.208   8.843  11.001 -0.8645  0.9524  0.2751
  682MOL0     H92034   3.383   8.603  10.591 -1.8738  1.1883  0.1788
  682MOL0     H92035   3.434   8.680  10.379 -2.2609 -1.4435  1.0104
  682MOL0     H92036   3.410   8.773  10.166 -0.2932  0.0111 -2.2358
  682MOL0     H92037   3.370   8.915  10.087 -0.7797  1.4621  0.0652
  682MOL0     H92038   3.659   8.874  10.182  1.8791  1.1722 -1.4985
  682MOL0     H92039   3.602   8.848  10.018  1.9745 -2.1045  2.0077
  682MOL0     H92040   3.568   9.106  10.171 -0.4481  2.3176 -1.3182
  682MOL0     H92041   3.548   9.089   9.997 -1.7507 -4.1262 -1.4202
  682MOL0     H92042   3.806   9.034  10.151  1.1202 -2.4035 -2.1339
  682MOL0     H92043   3.785   9.026   9.972  0.1205  0.9848 -0.3547
  682MOL0     H92044   3.739   9.283  10.123  0.2713  2.8954 -2.3251
  682MOL0     H92045   3.736   9.266   9.952 -0.0399  3.4198  0.1356
  682MOL0     H92046   3.957   9.219  10.161 -1.5695 -0.1057  0.1626
  682MOL0     H92047   3.981   9.160   9.988  0.9115  1.4163 -1.3388
  682MOL0     H92048   3.967   9.407   9.921 -0.5175 -0.7165  0.2788
  682MOL0     H92049   4.093   9.386  10.049  0.6498  2.6238 -0.5744
  682MOL0     H92050   3.953   9.461  10.223  1.5457 -0.7129 -1.1259
  682MOL0     H92051   3.810   9.483  10.123 -0.4439  2.8295  0.9309
  682MOL0     H92052   3.245   9.069  10.474 -4.2668 -1.0780  1.1939
  682MOL0     H92053   3.256   8.997  10.705 -0.0054  1.2835 -0.5953
  682MOL0     H92054   3.608   8.587  10.962  0.6955 -1.6774  0.9056
  682MOL0     H92055   3.603   8.443  11.149  1.9134  1.1022 -2.8926
  682MOL0     H92056   4.899   8.790  11.339  2.1744 -0.6454  0.4179
  682MOL0     H92057   5.082   8.699  11.192 -0.4047 -0.1597 -2.2224
  682MOL0     H92058   5.256   8.311  11.023 -3.2534  0.9120  0.1014
  682MOL0     H92059   5.407   8.185  10.873 -0.4915 -0.9030 -0.1810
  682MOL0     H92060   5.463   8.401  10.457 -2.5549 -0.1086  0.9948
  682MOL0     H92061   5.565   8.273  10.437  1.2629  1.4690  1.6212
  682MOL0     H92062   5.373   8.250  10.283 -0.4405 -2.4242 -0.3887
  682MOL0     H92063   5.263   8.283  10.411  1.2299  2.5726 -0.0255
  682MOL0     H92064   5.232   8.056  10.377 -0.8549 -0.0456  2.6802
  682MOL0     H92065   5.334   8.037  10.512 -3.4382 -0.2968 -0.9971
  682MOL0     H92066   5.536   8.035  10.348 -1.0607  2.7106  0.0066
  682MOL0     H92067   5.426   8.027  10.215  0.1314 -1.6934 -0.3928
  682MOL0     H92068   5.368   7.642  10.359 -0.3123 -0.0732 -2.2862
  682MOL0     H92069   5.285   8.451  10.551 -2.2335  2.5023  0.5483
  682MOL0     H92070   5.131   8.562  10.709 -1.5512 -2.0089 -0.2178
  683MOL0     O92071  10.438   9.972   1.059 -0.1048  0.0877 -0.9615
  683MOL0     C92072  10.545   9.913   1.035  0.1643  0.0885  0.6414
  683MOL0     O92073  10.557   9.775   1.064  0.6638  0.2751 -0.4279
  683MOL0     C92074  10.474   9.710   1.159 -0.1015 -0.2249  0.8268
  683MOL0     C92075  10.411   9.770   1.272 -0.1095 -0.4587  0.0549
  683MOL0     C92076  10.352   9.692   1.365 -0.4788 -0.4974  0.4140
  683MOL0     C92077  10.334   9.553   1.349  0.4702 -0.4766  0.1759
  683MOL0     O92078  10.265   9.491   1.451  0.4244  0.3080 -0.2740
  683MOL0     C92079  10.270   9.348   1.461 -0.1394 -0.1912  0.1803
  683MOL0     C92080  10.222   9.307   1.600 -0.1578 -0.6183 -0.9753
  683MOL0     C92081  10.082   9.354   1.627 -0.3399 -0.4841 -0.0624
  683MOL0     C92082   9.977   9.321   1.516 -0.1741  0.1335  0.4789
  683MOL0     C92083   9.830   9.316   1.561 -0.5653  0.0208  0.1869
  683MOL0     C92084   9.777   9.446   1.625 -0.4079  0.0633  0.3259
  683MOL0     C92085   9.627   9.453   1.646  0.4446 -1.3859  0.1496
  683MOL0     C92086   9.558   9.493   1.503  0.5448 -0.4940  0.3962
  683MOL0     N92087   9.427   9.563   1.517 -0.4543 -0.4250 -0.0586
  683MOL0     C92088   9.312   9.527   1.586 -0.5550 -0.0274 -0.8404
  683MOL0     C92089   9.223   9.612   1.552 -0.0822 -0.3949 -0.2336
  683MOL0     C92090   9.077   9.607   1.602  0.4552  0.9674 -0.2973
  683MOL0     C92091   8.999   9.733   1.621 -1.2905 -0.2412 -1.2127
  683MOL0     C92092   8.954   9.803   1.491  0.0264 -1.3257 -0.5778
  683MOL0     C92093   8.833   9.747   1.434  0.1616  0.0851  0.3140
  683MOL0     O92094   8.801   9.817   1.308 -0.2436  0.3500  0.2993
  683MOL0     C92095   8.682   9.778   1.253  0.3191  1.0210 -0.7743
  683MOL0     C92096   8.666   9.833   1.125 -0.1239 -0.9760 -0.3219
  683MOL0     C92097   8.562   9.795   1.040  0.1912  1.1944 -0.8197
  683MOL0     C92098   8.561   9.874   0.906 -0.2112  0.0078 -0.7435
  683MOL0     C92099   8.451   9.710   1.095 -0.1177 -0.4677  0.4203
  683MOL0     C92100   8.330   9.670   1.021 -0.5811  0.1913 -0.1904
  683MOL0     O92101   8.223   9.659   1.098  0.1966 -0.1078 -0.3316
  683MOL0     C92102   8.108   9.612   1.050 -0.5375  0.1908  0.2057
  683MOL0     C92103   8.061   9.493   1.103  0.5018  0.3217 -0.8553
  683MOL0     C92104   7.951   9.426   1.042  0.5822 -0.3953  1.5247
  683MOL0     C92105   7.886   9.475   0.935  0.2877  0.2164  0.1385
  683MOL0     O92106   7.777   9.406   0.892  0.1907 -0.7580 -0.2934
  683MOL0     C92107   7.686   9.479   0.806 -0.0879  0.5373  1.3763
  683MOL0     C92108   7.557   9.402   0.818  0.0968  1.1229 -0.0413
  683MOL0     C92109   7.539   9.283   0.721  0.2743 -0.4270  0.2255
  683MOL0     C92110   7.410   9.199   0.745 -0.0922 -0.2738  0.5309
  683MOL0     C92111   7.395   9.080   0.652  0.6613 -0.1227  0.3740
  683MOL0     C92112   7.393   9.116   0.509 -0.3333  0.3146  0.7275
  683MOL0     C92113   7.373   8.996   0.411  0.2604 -0.5222  0.0523
  683MOL0     C92114   7.240   8.911   0.417 -0.7226 -0.7506  0.0356
  683MOL0    Cl92115   7.083   8.999   0.375 -0.2849  0.2391 -0.7969
  683MOL0     C92116   7.945   9.586   0.870 -0.5542  0.1404 -0.9522
  683MOL0     C92117   8.055   9.651   0.927 -0.1507  0.6292  1.3105
  683MOL0     O92118   8.336   9.661   0.898 -0.5838 -0.5551  0.2296
  683MOL0     C92119   8.466   9.659   1.228 -0.2926  0.1913  0.4130
  683MOL0     C92120   8.580   9.700   1.306 -0.1337 -0.0982 -0.1301
  683MOL0     N92121   9.279   9.701   1.463  0.4247 -0.4976  0.5087
  683MOL0     N92122   9.403   9.683   1.454 -0.3943 -0.0659 -1.0895
  683MOL0     C92123  10.398   9.483   1.248  0.0484  0.2844 -0.6413
  683MOL0     C92124  10.463   9.570   1.149  0.1741  0.7477  0.0018
  683MOL0     C92125  10.656   9.983   0.978  0.5284  0.7352 -0.4750
  683MOL0     C92126  10.779   9.924   0.964  0.5850 -1.0202 -0.4552
  683MOL0     C92127  10.886   9.996   0.912  0.1922  0.2946  0.8167
  683MOL0     C92128  10.871  10.122   0.869 -1.0476 -0.6648 -0.9132
  683MOL0     O92129  10.972  10.190   0.812 -0.5546 -0.2245 -0.0443
  683MOL0     C92130  11.001  10.164   0.672  0.2969  0.0627  0.9720
  683MOL0     C92131  11.138  10.215   0.622  0.4533  0.7467 -0.0171
  683MOL0     C92132  11.248  10.153   0.698  0.1646 -0.2053  0.1488
  683MOL0     C92133  11.285  10.219   0.831  0.2201  0.3023  0.6531
  683MOL0     C92134  11.416  10.170   0.884  0.0348 -0.3016 -0.6402
  683MOL0     C92135  11.521  10.118   0.910 -0.2212  0.0751  0.4981
  683MOL0     C92136  10.748  10.187   0.878  0.5022  0.0497 -0.5415
  683MOL0     C92137  10.643  10.119   0.943  0.4366  0.7185 -0.3491
  683MOL0     H92138  10.418   9.877   1.286  0.0585 -0.3213 -1.0066
  683MOL0     H92139  10.302   9.742   1.447  0.0950  0.4123  0.2197
  683MOL0     H92140  10.201   9.304   1.389 -2.5031  0.8322  1.7032
  683MOL0     H92141  10.369   9.305   1.441 -0.9713 -1.3060 -1.8995
  683MOL0     H92142  10.233   9.198   1.607  2.6454 -0.4987 -2.0454
  683MOL0     H92143  10.287   9.338   1.683 -1.1258 -0.3671 -0.2868
  683MOL0     H92144  10.045   9.321   1.724 -0.6268  2.7832  1.0567
  683MOL0     H92145  10.071   9.463   1.628 -1.1775 -0.5554  1.6493
  683MOL0     H92146   9.979   9.385   1.428  0.2488 -0.9752 -0.3366
  683MOL0     H92147   9.999   9.222   1.474  1.9268 -0.6934  3.2442
  683MOL0     H92148   9.780   9.281   1.470  2.1462  1.2517 -1.8931
  683MOL0     H92149   9.826   9.234   1.634 -0.8781  1.5543  1.9585
  683MOL0     H92150   9.826   9.444   1.723 -1.3158  1.1716  0.8236
  683MOL0     H92151   9.806   9.535   1.568 -2.1340 -0.8210 -2.0621
  683MOL0     H92152   9.587   9.357   1.679  4.1537 -2.6708  1.3327
  683MOL0     H92153   9.597   9.528   1.720 -2.5740 -3.1439  0.8922
  683MOL0     H92154   9.545   9.403   1.442  0.1095 -0.6548  0.7225
  683MOL0     H92155   9.623   9.558   1.445 -0.7587  2.5088  2.0596
  683MOL0     H92156   9.290   9.441   1.650  1.0314 -0.0245 -0.2455
  683MOL0     H92157   9.029   9.531   1.539 -0.5015  0.2010  1.3010
  683MOL0     H92158   9.077   9.564   1.702 -1.4542  1.0380 -0.2371
  683MOL0     H92159   9.075   9.799   1.665  1.3868 -2.5668 -2.1015
  683MOL0     H92160   8.912   9.715   1.685 -0.5224 -1.6305 -0.5161
  683MOL0     H92161   9.031   9.784   1.415 -1.4126 -1.5287 -2.0289
  683MOL0     H92162   8.939   9.907   1.523  3.3800 -0.5841 -0.9339
  683MOL0     H92163   8.758   9.753   1.514 -0.0679  1.0570  0.0354
  683MOL0     H92164   8.830   9.638   1.424 -1.7558  0.2611 -1.8985
  683MOL0     H92165   8.745   9.899   1.090 -0.6438 -0.2878 -0.2109
  683MOL0     H92166   8.617   9.817   0.831  0.1061  2.1752 -2.2553
  683MOL0     H92167   8.463   9.862   0.859 -0.7887 -1.4205  0.7339
  683MOL0     H92168   8.591   9.977   0.926 -2.0581  0.3066  0.7814
  683MOL0     H92169   8.127   9.451   1.178  0.5691 -0.6797 -1.4573
  683MOL0     H92170   7.925   9.326   1.076  2.9374 -1.1640  1.2066
  683MOL0     H92171   7.663   9.578   0.846 -1.1634  0.9539 -0.1849
  683MOL0     H92172   7.731   9.492   0.707 -0.1941  2.1424  1.5139
  683MOL0     H92173   7.546   9.358   0.917  0.3668 -1.8739 -1.2372
  683MOL0     H92174   7.481   9.479   0.804 -0.2859  1.0104  1.3135
  683MOL0     H92175   7.624   9.216   0.738  0.5168  0.0964  1.1318
  683MOL0     H92176   7.542   9.328   0.621  2.2712  0.4986  0.6554
  683MOL0     H92177   7.422   9.160   0.847  0.6182  0.3170  0.6898
  683MOL0     H92178   7.322   9.263   0.751 -1.8136 -2.2997 -1.4691
  683MOL0     H92179   7.304   9.028   0.681 -1.0459  1.6939 -1.3538
  683MOL0     H92180   7.481   9.014   0.668 -1.4706 -3.1143  0.1922
  683MOL0     H92181   7.324   9.200   0.495  0.6844  0.8335 -1.7500
  683MOL0     H92182   7.490   9.161   0.485 -1.6083  2.9973  0.1911
  683MOL0     H92183   7.466   8.939   0.423  1.9300  1.4794 -2.3341
  683MOL0     H92184   7.378   9.034   0.309 -0.6917  2.7760  1.1220
  683MOL0     H92185   7.221   8.866   0.515 -2.3396  0.2656  0.2213
  683MOL0     H92186   7.245   8.816   0.362 -1.3103 -1.7721  1.6513
  683MOL0     H92187   7.896   9.624   0.782 -2.8471 -0.6171 -0.0940
  683MOL0     H92188   8.101   9.729   0.866 -0.2741 -1.7769 -2.1926
  683MOL0     H92189   8.393   9.595   1.278  0.6979 -1.7895 -0.5625
  683MOL0     H92190   8.589   9.660   1.407  2.2592  2.5014  0.8393
  683MOL0     H92191  10.389   9.379   1.218  1.2313  0.4571 -1.7062
  683MOL0     H92192  10.487   9.522   1.055 -0.5194 -0.2296  0.3097
  683MOL0     H92193  10.778   9.819   0.993  0.5476 -0.7547  0.5353
  683MOL0     H92194  10.984   9.950   0.899  0.7547  1.8842 -1.0878
  683MOL0     H92195  10.983  10.061   0.640  0.6029  1.1448 -3.1831
  683MOL0     H92196  10.926  10.217   0.613  0.8202  2.0688  2.0215
  683MOL0     H92197  11.144  10.323   0.642 -1.1621  0.1706  4.8486
  683MOL0     H92198  11.141  10.196   0.514  0.9375 -1.3970  0.3344
  683MOL0     H92199  11.329  10.169   0.626 -2.1707  0.3723 -2.5595
  683MOL0     H92200  11.231  10.045   0.697  0.8310 -0.3121 -0.3594
  683MOL0     H92201  11.210  10.197   0.907  0.1289 -3.1532 -0.2589
  683MOL0     H92202  11.301  10.325   0.812  0.9458  0.0271 -0.3669
  683MOL0     H92203  11.601  10.050   0.934 -0.0484  0.7289  1.8691
  683MOL0     H92204  10.735  10.293   0.862  0.7162  0.6049  2.4337
  683MOL0     H92205  10.554  10.169   0.981  0.6395  0.7464  0.1007
  684MOL0     O92206   2.196   4.487   7.720 -0.1918 -0.0609  0.2021
  684MOL0     C92207   2.291   4.535   7.790 -0.0726  0.0105  0.4597
  684MOL0     O92208   2.312   4.665   7.830 -0.0625 -0.5027  0.3164
  684MOL0     C92209   2.240   4.763   7.768 -0.2559 -0.0926  0.2997
  684MOL0     C92210   2.168   4.857   7.840 -0.4308 -0.1333 -1.1844
  684MOL0     C92211   2.095   4.963   7.790  0.4446  0.2426 -0.0544
  684MOL0     C92212   2.079   4.967   7.647 -0.2963 -0.5977  0.9759
  684MOL0     O92213   2.012   5.077   7.593 -0.7340 -0.5096  0.4336
  684MOL0     C92214   1.897   5.130   7.652 -0.0572  0.3080 -0.0798
  684MOL0     C92215   1.804   5.209   7.557  0.2349 -0.3447  0.2607
  684MOL0     C92216   1.749   5.121   7.454 -0.3769 -0.2579 -0.3989
  684MOL0     C92217   1.663   5.190   7.342 -0.1465  0.4155 -0.9410
  684MOL0     C92218   1.519   5.141   7.340 -0.0554  0.7644 -0.0726
  684MOL0     C92219   1.495   5.003   7.264  0.8170  0.5700 -0.6283
  684MOL0     C92220   1.431   5.046   7.131 -0.4231  0.9017  0.6292
  684MOL0     C92221   1.372   4.931   7.059  1.2555  0.8487 -0.6146
  684MOL0     N92222   1.246   4.878   7.125 -0.5020  0.1201  0.5592
  684MOL0     C92223   1.125   4.940   7.129 -0.9785 -0.2853  0.1893
  684MOL0     C92224   1.037   4.838   7.171  0.7464  0.4999  0.6464
  684MOL0     C92225   0.883   4.848   7.190 -0.4867 -0.2610 -0.2786
  684MOL0     C92226   0.806   4.812   7.070 -0.6483  0.2198 -0.3977
  684MOL0     C92227   0.839   4.670   7.029  0.2874  0.5507 -0.3479
  684MOL0     C92228   0.745   4.617   6.922 -0.3114 -0.1807 -0.3346
  684MOL0     O92229   0.768   4.683   6.802 -0.8223 -0.1368 -0.4909
  684MOL0     C92230   0.680   4.662   6.702  0.3324  0.2257 -0.0605
  684MOL0     C92231   0.601   4.543   6.696 -0.7130 -0.1573  0.3272
  684MOL0     C92232   0.516   4.532   6.583 -0.1623  0.0623  0.0507
  684MOL0     C92233   0.436   4.401   6.583 -0.3244  0.5609 -0.2937
  684MOL0     C92234   0.520   4.628   6.477 -0.2763 -0.9980 -0.1939
  684MOL0     C92235   0.445   4.606   6.348 -0.0014  0.7322 -0.3884
  684MOL0     O92236   0.430   4.715   6.260 -0.3230 -0.2950 -0.6302
  684MOL0     C92237   0.347   4.718   6.147  0.0233  0.0480 -0.5043
  684MOL0     C92238   0.335   4.612   6.057  0.2751 -0.1211 -0.3468
  684MOL0     C92239   0.248   4.624   5.946 -1.3135 -0.1174 -1.0805
  684MOL0     C92240   0.172   4.739   5.928  0.9742  0.3717  0.4211
  684MOL0     O92241   0.078   4.751   5.823 -0.6129 -0.0592 -0.2414
  684MOL0     C92242   0.134   4.723   5.687 -0.1864  0.0180  0.3525
  684MOL0     C92243   0.027   4.754   5.583  0.5623  0.1466  0.7186
  684MOL0     C92244   0.057   4.724   5.436 -0.6309 -0.6526 -0.1836
  684MOL0     C92245   0.015   4.587   5.374  0.1977  0.8287 -0.5643
  684MOL0     C92246   0.050   4.574   5.232  0.8912  0.1555 -0.2381
  684MOL0     C92247  -0.049   4.628   5.120  0.4485 -0.5190  0.5838
  684MOL0     C92248  -0.002   4.751   5.049  0.0663  0.1059 -1.2994
  684MOL0     C92249  -0.117   4.829   4.983 -0.0430  0.3179  0.2710
  684MOL0    Cl92250  -0.193   4.942   5.100  0.3374  0.1710 -0.1685
  684MOL0     C92251   0.158   4.827   6.041 -1.0385 -0.4267  1.1379
  684MOL0     C92252   0.245   4.820   6.148 -0.3099  1.4176  0.0280
  684MOL0     O92253   0.402   4.490   6.326  0.3763 -0.5842 -0.0486
  684MOL0     C92254   0.602   4.741   6.482  0.0076 -0.9617 -0.0167
  684MOL0     C92255   0.680   4.759   6.596 -0.5288  0.1277  0.1862
  684MOL0     N92256   1.107   4.725   7.196 -0.2361 -0.9788 -0.3087
  684MOL0     N92257   1.233   4.751   7.164 -0.7816  0.5281  0.0614
  684MOL0     C92258   2.128   4.858   7.570  0.2766 -0.1377 -0.4332
  684MOL0     C92259   2.204   4.761   7.634 -0.1349  0.1288 -0.1431
  684MOL0     C92260   2.378   4.436   7.856 -0.0194 -1.1151 -0.4311
  684MOL0     C92261   2.482   4.471   7.930  1.1743 -0.6305 -0.7041
  684MOL0     C92262   2.549   4.379   8.007  0.5739 -0.0464 -0.1413
  684MOL0     C92263   2.506   4.248   8.029 -0.5075 -0.4824 -0.1403
  684MOL0     O92264   2.585   4.156   8.091 -0.3679 -0.1379 -0.3387
  684MOL0     C92265   2.553   4.014   8.102  0.1695 -0.6850  0.6380
  684MOL0     C92266   2.435   3.998   8.206  0.5748 -0.1346  0.2546
  684MOL0     C92267   2.433   4.075   8.347  0.3313  0.4146  0.1398
  684MOL0     C92268   2.552   4.053   8.429  0.2499 -0.0099  0.5823
  684MOL0     C92269   2.507   4.094   8.564 -0.3803  0.8528 -0.2611
  684MOL0     C92270   2.459   4.101   8.677 -1.7674 -0.4181  0.0106
  684MOL0     C92271   2.410   4.203   7.940  0.8709 -0.3355  0.2725
  684MOL0     C92272   2.349   4.298   7.850 -0.9955 -0.7000 -0.3632
  684MOL0     H92273   2.176   4.844   7.948  1.3268 -0.6332 -1.3534
  684MOL0     H92274   2.046   5.038   7.851 -0.5620 -0.6047  0.1903
  684MOL0     H92275   1.847   5.050   7.706 -2.9680  0.2636 -2.5712
  684MOL0     H92276   1.932   5.200   7.729 -0.1345 -0.5281  0.7329
  684MOL0     H92277   1.720   5.240   7.620  1.4558 -1.1834  2.3913
  684MOL0     H92278   1.842   5.294   7.500 -0.4840  1.0386  1.7699
  684MOL0     H92279   1.834   5.070   7.408 -0.5150 -0.7767 -0.0940
  684MOL0     H92280   1.679   5.048   7.496  0.0272 -0.2785  0.2379
  684MOL0     H92281   1.670   5.297   7.363  0.8766  0.5396 -1.8384
  684MOL0     H92282   1.712   5.177   7.245  1.6149 -1.4060  0.1140
  684MOL0     H92283   1.476   5.132   7.440 -3.4194  1.0834 -1.3716
  684MOL0     H92284   1.459   5.223   7.299  1.7903  2.2579  0.0656
  684MOL0     H92285   1.583   4.939   7.249  0.1268 -0.3630 -0.7879
  684MOL0     H92286   1.422   4.947   7.323 -0.6990 -0.7956 -3.5440
  684MOL0     H92287   1.357   5.126   7.139 -1.4500 -0.0043  0.3652
  684MOL0     H92288   1.514   5.089   7.074  0.4032  2.6879  2.9836
  684MOL0     H92289   1.442   4.850   7.081  1.0588  1.3475  2.3752
  684MOL0     H92290   1.354   4.956   6.954  0.4807  1.6084 -0.3126
  684MOL0     H92291   1.091   5.042   7.109  1.2206  0.6041  0.7432
  684MOL0     H92292   0.850   4.790   7.277 -0.4365 -0.7172 -0.5612
  684MOL0     H92293   0.855   4.952   7.209 -0.1558 -0.4890  1.5839
  684MOL0     H92294   0.845   4.876   6.990  0.9297  1.4617  1.2728
  684MOL0     H92295   0.699   4.825   7.084 -1.2037 -1.7726 -2.3763
  684MOL0     H92296   0.818   4.609   7.116 -1.6697  1.7029  0.0463
  684MOL0     H92297   0.944   4.666   6.997  1.3037  0.5002  2.6802
  684MOL0     H92298   0.639   4.626   6.947  0.3206  2.2099  1.8570
  684MOL0     H92299   0.768   4.510   6.909 -0.8008 -0.1563 -1.6207
  684MOL0     H92300   0.601   4.478   6.783  0.4180  1.6718  1.7897
  684MOL0     H92301   0.479   4.326   6.516  0.3351  0.2386  0.4815
  684MOL0     H92302   0.451   4.359   6.683  3.5724  0.3091 -0.8468
  684MOL0     H92303   0.328   4.407   6.562 -0.6842 -1.4457  0.6718
  684MOL0     H92304   0.395   4.523   6.070 -0.7538 -0.6972  0.7388
  684MOL0     H92305   0.245   4.543   5.873  2.4868 -0.3393 -1.2145
  684MOL0     H92306   0.220   4.789   5.671 -1.1023  1.0118 -0.5799
  684MOL0     H92307   0.155   4.616   5.679 -1.8299 -0.2316 -1.1631
  684MOL0     H92308  -0.066   4.708   5.617  0.4226  2.1832  3.4746
  684MOL0     H92309   0.012   4.862   5.588  3.5712  0.8994 -2.3780
  684MOL0     H92310   0.165   4.722   5.417  0.0273  1.3823  2.6771
  684MOL0     H92311   0.008   4.807   5.386 -1.4387  0.6425  2.5604
  684MOL0     H92312   0.083   4.519   5.426 -0.2222  1.0996  0.3529
  684MOL0     H92313  -0.089   4.561   5.397  1.1272 -1.8281  1.1356
  684MOL0     H92314   0.048   4.467   5.209  0.6760 -0.1287  1.0566
  684MOL0     H92315   0.148   4.611   5.201  0.2108 -0.0994 -2.9955
  684MOL0     H92316  -0.080   4.547   5.053  0.6554  1.4451 -2.0505
  684MOL0     H92317  -0.148   4.649   5.162  1.7936  2.8542  2.4255
  684MOL0     H92318   0.070   4.723   4.971  2.3003  1.7407  0.0578
  684MOL0     H92319   0.050   4.810   5.125 -0.9515 -2.5777  1.7079
  684MOL0     H92320  -0.182   4.757   4.932  3.9025 -2.0565 -1.9273
  684MOL0     H92321  -0.074   4.889   4.902  0.6661 -1.1851 -0.5144
  684MOL0     H92322   0.092   4.914   6.043 -0.5516  0.0648 -1.0694
  684MOL0     H92323   0.248   4.900   6.221  0.8764  1.6388 -0.2259
  684MOL0     H92324   0.607   4.818   6.406 -1.4438  0.4416  1.2363
  684MOL0     H92325   0.746   4.844   6.602 -2.2364  1.7451 -2.2317
  684MOL0     H92326   2.103   4.861   7.465  0.0821  1.7429 -0.3557
  684MOL0     H92327   2.226   4.676   7.570  0.7050 -1.4409  2.1110
  684MOL0     H92328   2.509   4.576   7.928  1.1782 -0.6295 -0.5647
  684MOL0     H92329   2.635   4.418   8.061  0.3806  2.4538 -1.5185
  684MOL0     H92330   2.517   3.979   8.005 -2.6452  0.0637  1.3014
  684MOL0     H92331   2.636   3.947   8.127  0.5501 -0.5443 -0.2284
  684MOL0     H92332   2.434   3.889   8.209 -0.2566 -0.3177 -3.0188
  684MOL0     H92333   2.342   4.026   8.155  2.7441  3.6160 -2.1422
  684MOL0     H92334   2.342   4.046   8.401 -0.0957 -0.6600 -1.1024
  684MOL0     H92335   2.422   4.182   8.324 -3.5693  0.5736  1.9336
  684MOL0     H92336   2.628   4.122   8.390 -0.1641 -0.1229 -0.4547
  684MOL0     H92337   2.586   3.950   8.438  1.8316  0.3479 -0.7340
  684MOL0     H92338   2.435   4.103   8.782  1.3978 -2.7578  0.9436
  684MOL0     H92339   2.375   4.101   7.935 -1.8534  0.5695 -2.3490
  684MOL0     H92340   2.277   4.267   7.775 -1.2864  0.3072 -0.5139
  685MOL0     O92341   0.096   9.077   1.996 -0.0141 -0.2891 -0.2075
  685MOL0     C92342   0.100   9.102   1.874  0.6615  0.7013 -0.4653
  685MOL0     O92343   0.042   9.021   1.785  0.2319 -0.0980  0.5657
  685MOL0     C92344  -0.030   8.910   1.806  0.7080  0.4322  0.1779
  685MOL0     C92345   0.037   8.807   1.865  0.4503 -0.2501 -0.4024
  685MOL0     C92346  -0.027   8.682   1.888 -0.5044 -0.2079  0.7039
  685MOL0     C92347  -0.157   8.665   1.842 -0.1814  0.2882 -0.8332
  685MOL0     O92348  -0.237   8.549   1.857  0.0792  0.1442 -0.0592
  685MOL0     C92349  -0.202   8.444   1.953 -0.0166  0.3314 -1.0700
  685MOL0     C92350  -0.314   8.359   1.991 -0.0983 -1.0238  1.0773
  685MOL0     C92351  -0.422   8.424   2.079 -0.3835 -0.4618  0.3683
  685MOL0     C92352  -0.554   8.343   2.087 -0.5839  0.1940  0.5507
  685MOL0     C92353  -0.632   8.319   1.963  0.4814 -0.1120 -0.2776
  685MOL0     C92354  -0.768   8.238   1.968  0.2666  0.9088  0.5216
  685MOL0     C92355  -0.874   8.327   2.027 -0.7529 -0.7708 -0.1406
  685MOL0     C92356  -1.009   8.242   2.036 -0.4814 -0.1735  0.0042
  685MOL0     N92357  -1.105   8.301   2.130 -0.7678  0.5484  0.3175
  685MOL0     C92358  -1.243   8.313   2.104 -0.4901 -1.2050 -0.9205
  685MOL0     C92359  -1.284   8.386   2.213  0.0333 -0.5335  0.4218
  685MOL0     C92360  -1.423   8.442   2.237 -0.5764 -0.5122 -0.1846
  685MOL0     C92361  -1.411   8.590   2.196 -0.3607 -0.4818  0.3786
  685MOL0     C92362  -1.546   8.659   2.191  0.2535 -0.4429  0.1608
  685MOL0     C92363  -1.536   8.813   2.186  0.2356  0.5716 -0.3658
  685MOL0     O92364  -1.664   8.868   2.222  0.1164 -0.3291  0.2372
  685MOL0     C92365  -1.664   9.005   2.235  0.6407 -0.4372 -0.1532
  685MOL0     C92366  -1.616   9.087   2.140  0.2207 -1.1886  0.2255
  685MOL0     C92367  -1.625   9.225   2.165  0.9866  0.1347 -0.3157
  685MOL0     C92368  -1.589   9.317   2.058 -0.0742  0.3642  0.0345
  685MOL0     C92369  -1.680   9.285   2.290  0.3721 -0.5111  0.2152
  685MOL0     C92370  -1.695   9.426   2.323  0.0454 -0.3430  0.0296
  685MOL0     O92371  -1.801   9.453   2.401  0.3491 -0.0535 -0.1104
  685MOL0     C92372  -1.796   9.562   2.492 -0.2547 -0.2528  0.7102
  685MOL0     C92373  -1.692   9.564   2.585  0.7629  0.6595 -0.6974
  685MOL0     C92374  -1.696   9.660   2.688 -0.2922 -0.8194  1.2619
  685MOL0     C92375  -1.790   9.765   2.699  0.4732 -1.2096  1.0475
  685MOL0     O92376  -1.779   9.855   2.801 -0.6718  0.5783 -0.1711
  685MOL0     C92377  -1.891   9.922   2.858  0.2630  0.4744  0.1600
  685MOL0     C92378  -1.841  10.002   2.974  0.0868  0.6609  0.9554
  685MOL0     C92379  -1.942  10.033   3.088  0.9685 -0.0320 -0.2903
  685MOL0     C92380  -1.881  10.100   3.211 -0.3609 -0.0123  0.5920
  685MOL0     C92381  -1.797  10.231   3.199 -0.0674  0.8365  0.4286
  685MOL0     C92382  -1.869  10.355   3.154 -0.5403  0.3973  0.2895
  685MOL0     C92383  -2.011  10.374   3.213 -0.1158 -0.8801 -0.1782
  685MOL0     C92384  -2.077  10.516   3.197  0.5031 -0.0867 -0.4508
  685MOL0    Cl92385  -2.088  10.565   3.023 -0.5455  0.4994 -0.1335
  685MOL0     C92386  -1.892   9.763   2.597 -0.6854 -0.3281  0.8878
  685MOL0     C92387  -1.896   9.660   2.493  0.2773 -0.7436 -0.3820
  685MOL0     O92388  -1.606   9.503   2.304  0.1675 -0.4239  0.1766
  685MOL0     C92389  -1.730   9.190   2.377 -0.2486  0.0461 -0.5131
  685MOL0     C92390  -1.727   9.054   2.350 -1.0241  0.9715 -0.1848
  685MOL0     N92391  -1.188   8.393   2.308  0.2025  0.0733 -0.6261
  685MOL0     N92392  -1.084   8.333   2.263  0.4103  0.0105 -1.2382
  685MOL0     C92393  -0.230   8.771   1.787 -0.5892 -0.2438 -0.2207
  685MOL0     C92394  -0.167   8.893   1.774  0.1293 -1.2571  0.1398
  685MOL0     C92395   0.137   9.246   1.837 -0.1683  0.8978 -0.3290
  685MOL0     C92396   0.134   9.295   1.715 -0.8024 -0.0930  0.0451
  685MOL0     C92397   0.184   9.421   1.679 -0.5501  0.8896  0.0561
  685MOL0     C92398   0.251   9.494   1.777 -0.0156 -0.4505  0.6134
  685MOL0     O92399   0.284   9.621   1.729  0.2528  0.5201 -0.4387
  685MOL0     C92400   0.314   9.721   1.832  0.5587  0.1116 -0.7591
  685MOL0     C92401   0.460   9.737   1.871 -0.8308 -0.5985  0.4115
  685MOL0     C92402   0.486   9.854   1.966 -0.4729  0.1687 -0.2238
  685MOL0     C92403   0.634   9.884   1.986  0.7887 -0.6827 -0.0627
  685MOL0     C92404   0.703   9.963   1.876 -0.7384  0.0903 -0.0357
  685MOL0     C92405   0.771  10.031   1.797  0.8517 -1.0347  0.5157
  685MOL0     C92406   0.266   9.443   1.911  0.2449 -0.2591  0.5979
  685MOL0     C92407   0.198   9.326   1.934  0.6423  0.0896 -0.5525
  685MOL0     H92408   0.143   8.807   1.886  0.8616 -1.6658 -2.2130
  685MOL0     H92409   0.021   8.592   1.926 -1.0987 -0.3499  1.1243
  685MOL0     H92410  -0.135   8.372   1.906  1.5274  1.1040 -0.1458
  685MOL0     H92411  -0.142   8.490   2.033 -1.8552 -0.6183  0.9437
  685MOL0     H92412  -0.362   8.324   1.899  1.6521 -0.3518 -0.1567
  685MOL0     H92413  -0.267   8.271   2.037  3.1509 -0.5748 -1.0185
  685MOL0     H92414  -0.370   8.434   2.175  1.8128  2.4033 -0.9489
  685MOL0     H92415  -0.441   8.528   2.051 -0.7007 -0.4692  0.5564
  685MOL0     H92416  -0.536   8.245   2.132 -0.8984 -0.7137 -1.1894
  685MOL0     H92417  -0.617   8.398   2.157  1.8499  1.4818  1.8616
  685MOL0     H92418  -0.632   8.416   1.913 -1.3649 -0.0834 -0.2879
  685MOL0     H92419  -0.577   8.265   1.886 -0.8199 -0.8640 -0.7022
  685MOL0     H92420  -0.800   8.197   1.872 -0.2378  0.0360  1.0467
  685MOL0     H92421  -0.752   8.153   2.034  1.2009  0.0325 -0.7942
  685MOL0     H92422  -0.838   8.365   2.122  0.4347  0.4731 -1.0537
  685MOL0     H92423  -0.878   8.410   1.956  4.9807  0.6256  0.6573
  685MOL0     H92424  -0.989   8.138   2.061  1.4390 -0.4286 -2.2423
  685MOL0     H92425  -1.053   8.239   1.935 -1.1230  1.8270  0.1691
  685MOL0     H92426  -1.298   8.301   2.011  0.7566 -3.5945 -1.4160
  685MOL0     H92427  -1.500   8.398   2.172 -2.1398  1.6514  0.0939
  685MOL0     H92428  -1.450   8.426   2.342  3.3862 -0.6017  0.9791
  685MOL0     H92429  -1.370   8.593   2.094  1.0665  1.1041  0.9519
  685MOL0     H92430  -1.341   8.642   2.262 -0.8672  1.7896 -0.7640
  685MOL0     H92431  -1.602   8.642   2.283 -1.3763  1.7189 -0.3412
  685MOL0     H92432  -1.597   8.618   2.104  0.9296 -1.0500  0.0485
  685MOL0     H92433  -1.493   8.843   2.089  1.7397 -2.2729 -0.7009
  685MOL0     H92434  -1.468   8.850   2.264 -1.7508 -3.0662  3.4554
  685MOL0     H92435  -1.581   9.054   2.043 -0.9499 -0.2503 -0.5575
  685MOL0     H92436  -1.668   9.393   2.053 -2.1412 -1.7487 -1.6193
  685MOL0     H92437  -1.496   9.367   2.087  0.7117 -0.2414 -1.3569
  685MOL0     H92438  -1.558   9.272   1.963 -1.7649 -0.9134  0.0374
  685MOL0     H92439  -1.620   9.482   2.584  0.3400  0.2672  0.1563
  685MOL0     H92440  -1.615   9.685   2.756  0.7998  2.8782 -1.1157
  685MOL0     H92441  -1.934   9.986   2.780 -0.5696  1.5232  1.4301
  685MOL0     H92442  -1.968   9.852   2.891 -1.1169  0.7578 -2.2167
  685MOL0     H92443  -1.768   9.934   3.019  0.5146 -0.4218 -1.2406
  685MOL0     H92444  -1.793  10.083   2.919  1.3963 -1.9696 -2.1240
  685MOL0     H92445  -1.978   9.936   3.125  1.2952  0.7852  2.3662
  685MOL0     H92446  -2.025  10.093   3.049 -0.5853 -0.6595  1.8858
  685MOL0     H92447  -1.960  10.106   3.286 -2.5177 -0.7095 -1.5198
  685MOL0     H92448  -1.806  10.028   3.242 -0.3117  0.8687  2.6501
  685MOL0     H92449  -1.723  10.216   3.120  1.1608 -2.5946  1.9855
  685MOL0     H92450  -1.751  10.238   3.299  0.9272  0.6296  0.0032
  685MOL0     H92451  -1.812  10.448   3.160  0.1515  0.3247 -3.0981
  685MOL0     H92452  -1.878  10.333   3.047  1.5322 -1.7687  0.4747
  685MOL0     H92453  -2.018  10.359   3.321 -0.9493  0.3705 -0.0358
  685MOL0     H92454  -2.079  10.302   3.166 -1.9476 -0.8815  2.2700
  685MOL0     H92455  -2.016  10.594   3.244 -0.2990  1.3520 -1.6884
  685MOL0     H92456  -2.175  10.511   3.247  0.3632 -3.1726 -0.8538
  685MOL0     H92457  -1.965   9.842   2.582  0.0146  0.4196  1.3885
  685MOL0     H92458  -1.968   9.650   2.413 -0.3598  1.2994 -0.1158
  685MOL0     H92459  -1.776   9.231   2.466  0.3716 -0.4000  0.0262
  685MOL0     H92460  -1.773   8.975   2.408 -0.1038 -0.2383 -1.0388
  685MOL0     H92461  -0.331   8.754   1.750 -1.0640  2.5346 -0.4098
  685MOL0     H92462  -0.200   8.991   1.740  2.4199 -0.8565 -1.1668
  685MOL0     H92463   0.084   9.253   1.628 -2.4798  2.6529 -0.4292
  685MOL0     H92464   0.191   9.449   1.574  2.0475  0.0963 -0.0459
  685MOL0     H92465   0.261   9.803   1.784  1.9853  1.7559  0.3490
  685MOL0     H92466   0.259   9.704   1.925 -0.4825  3.8356 -0.5316
  685MOL0     H92467   0.531   9.756   1.790  1.1212 -0.1316  2.1357
  685MOL0     H92468   0.486   9.644   1.922 -1.5685 -1.9095 -1.4809
  685MOL0     H92469   0.436   9.826   2.060  1.3475 -0.9354  0.4671
  685MOL0     H92470   0.436   9.940   1.922 -2.0604 -0.3100  0.5609
  685MOL0     H92471   0.679   9.785   1.997 -1.9712 -2.0062  0.2065
  685MOL0     H92472   0.654   9.933   2.081  2.1404 -2.9068  0.9005
  685MOL0     H92473   0.828  10.099   1.736  0.0431 -1.8867 -1.2682
  685MOL0     H92474   0.301   9.496   1.998 -1.1527  2.0538 -0.1317
  685MOL0     H92475   0.199   9.287   2.035  0.4060 -5.1577 -2.2913
  686MOL0     O92476   3.544  10.490   5.575 -0.4270  0.5820 -0.6314
  686MOL0     C92477   3.638  10.510   5.489  0.0670 -0.0167 -0.1765
  686MOL0     O92478   3.758  10.437   5.480  0.4275 -0.0104 -0.4876
  686MOL0     C92479   3.759  10.326   5.559 -0.6826  0.2514  0.1766
  686MOL0     C92480   3.672  10.213   5.546  0.5035 -0.1290  0.2075
  686MOL0     C92481   3.691  10.100   5.617 -0.2799  0.6386 -0.4906
  686MOL0     C92482   3.801  10.092   5.707  0.6634 -0.2937 -0.6956
  686MOL0     O92483   3.845   9.982   5.777  0.2424 -0.3470  0.0242
  686MOL0     C92484   3.798   9.851   5.736  0.2369 -0.1846  0.1145
  686MOL0     C92485   3.898   9.737   5.775 -0.0912  0.5289  0.7738
  686MOL0     C92486   3.895   9.711   5.928 -0.0853 -0.1870 -0.2663
  686MOL0     C92487   3.841   9.578   5.953  0.0608 -0.0152  1.0258
  686MOL0     C92488   3.825   9.553   6.106 -0.3915 -0.6020  0.7680
  686MOL0     C92489   3.751   9.420   6.114  0.1796 -0.3425  0.2470
  686MOL0     C92490   3.704   9.375   6.264  0.3624 -0.1686  0.7877
  686MOL0     C92491   3.593   9.445   6.320 -1.9923  0.2970 -0.2637
  686MOL0     N92492   3.476   9.465   6.231 -0.6676 -0.5394  0.3252
  686MOL0     C92493   3.443   9.561   6.139 -0.5716 -1.0604  0.3787
  686MOL0     C92494   3.360   9.508   6.043 -0.0092  0.2674 -0.5148
  686MOL0     C92495   3.293   9.548   5.914  0.1599  0.8907  0.8355
  686MOL0     C92496   3.357   9.672   5.852  0.6004 -0.1344  0.2614
  686MOL0     C92497   3.259   9.752   5.762 -0.3608  0.3166  0.5668
  686MOL0     C92498   3.193   9.668   5.648  0.1593 -0.2372  0.0161
  686MOL0     O92499   3.290   9.617   5.561  0.0297 -0.3800  0.0978
  686MOL0     C92500   3.244   9.551   5.450 -0.4752  0.2857  0.4271
  686MOL0     C92501   3.136   9.467   5.443  0.6327  0.0311  0.0675
  686MOL0     C92502   3.081   9.416   5.325 -0.5417 -0.3176  0.2492
  686MOL0     C92503   2.964   9.325   5.347  0.1351 -0.6307  0.4550
  686MOL0     C92504   3.147   9.432   5.208 -0.4188  0.0641 -0.2521
  686MOL0     C92505   3.107   9.374   5.084  0.8154  0.8387 -0.1289
  686MOL0     O92506   3.214   9.348   5.008  0.1882 -0.4448 -0.1743
  686MOL0     C92507   3.195   9.331   4.875  0.5758  1.0862  0.1295
  686MOL0     C92508   3.201   9.203   4.827  0.7434 -0.3686  0.2911
  686MOL0     C92509   3.179   9.175   4.694  0.4588 -0.2223  0.6859
  686MOL0     C92510   3.136   9.276   4.602 -0.1642 -0.8656 -1.0779
  686MOL0     O92511   3.084   9.260   4.479  0.1965 -0.6859 -0.0757
  686MOL0     C92512   2.948   9.229   4.489  0.5525  0.8684  0.4339
  686MOL0     C92513   2.857   9.345   4.471  0.0267  0.7100 -0.1175
  686MOL0     C92514   2.868   9.415   4.335  0.5125  0.6912  0.0704
  686MOL0     C92515   2.739   9.505   4.297 -0.2066 -0.0996  0.2904
  686MOL0     C92516   2.734   9.553   4.154 -0.4602 -0.6515  0.3065
  686MOL0     C92517   2.596   9.629   4.134  0.3381 -0.0108 -0.9033
  686MOL0     C92518   2.463   9.544   4.108  0.2994 -0.1197 -0.2812
  686MOL0     C92519   2.483   9.434   4.001 -0.6958  0.1895  0.1491
  686MOL0    Cl92520   2.325   9.345   3.971 -0.0118  0.2660 -0.0401
  686MOL0     C92521   3.128   9.406   4.652  0.0569 -0.0636 -0.4619
  686MOL0     C92522   3.163   9.431   4.780  0.7748 -0.7128 -0.0006
  686MOL0     O92523   2.988   9.357   5.050 -0.4902  0.0634  0.4735
  686MOL0     C92524   3.274   9.504   5.223 -0.0410  0.1692  0.0947
  686MOL0     C92525   3.322   9.565   5.338 -0.2614 -0.2788  0.6244
  686MOL0     N92526   3.358   9.381   6.083 -0.3140  0.7912  0.0670
  686MOL0     N92527   3.414   9.350   6.197 -0.2148 -0.2241  0.1903
  686MOL0     C92528   3.872  10.215   5.733 -0.2850  0.7630 -1.1621
  686MOL0     C92529   3.858  10.322   5.651  0.3857 -0.0132  0.0597
  686MOL0     C92530   3.625  10.644   5.422 -0.0273  0.5325  0.5777
  686MOL0     C92531   3.727  10.685   5.332 -0.0738  0.1204 -0.3525
  686MOL0     C92532   3.707  10.812   5.264  0.1999 -0.9523  0.4956
  686MOL0     C92533   3.592  10.886   5.282 -0.6802 -0.2942  0.2102
  686MOL0     O92534   3.562  11.004   5.219 -0.0137 -0.2864 -0.2900
  686MOL0     C92535   3.676  11.088   5.184  0.3914  0.8434  0.1255
  686MOL0     C92536   3.626  11.215   5.123  0.0006  0.0272  0.1657
  686MOL0     C92537   3.544  11.284   5.234 -0.3613 -1.1089 -0.2603
  686MOL0     C92538   3.533  11.439   5.227  0.0403 -0.4382  0.0552
  686MOL0     C92539   3.458  11.485   5.101 -0.5404  0.0767  0.1996
  686MOL0     C92540   3.391  11.522   5.009  0.8182  0.2192 -0.6737
  686MOL0     C92541   3.497  10.836   5.366 -0.1437  0.4868  0.3065
  686MOL0     C92542   3.511  10.719   5.429  0.7778 -0.3822 -0.4553
  686MOL0     H92543   3.592  10.210   5.473 -0.4036 -1.3847  1.2109
  686MOL0     H92544   3.620  10.019   5.605 -2.4232  2.3036  0.3135
  686MOL0     H92545   3.702   9.831   5.784  1.4517 -1.8634  2.0281
  686MOL0     H92546   3.807   9.837   5.628  1.1450 -0.1054  0.1698
  686MOL0     H92547   3.866   9.655   5.709  0.6225  2.5476 -2.3243
  686MOL0     H92548   3.996   9.768   5.736 -0.0284 -0.3351  0.1979
  686MOL0     H92549   3.995   9.723   5.972 -1.1677 -2.9846  3.4294
  686MOL0     H92550   3.841   9.798   5.967  2.9770  2.3797 -1.2025
  686MOL0     H92551   3.745   9.569   5.900  0.4505 -2.5867  0.6171
  686MOL0     H92552   3.903   9.502   5.906  1.4671  1.1383  0.9571
  686MOL0     H92553   3.924   9.543   6.151 -1.0833 -1.9179  2.0817
  686MOL0     H92554   3.768   9.632   6.156  2.6851  0.6716  2.5821
  686MOL0     H92555   3.670   9.411   6.042 -0.2895  3.3262  0.1601
  686MOL0     H92556   3.819   9.346   6.070  0.1382  0.2767 -0.8741
  686MOL0     H92557   3.684   9.268   6.256  0.7065 -0.1571 -0.4250
  686MOL0     H92558   3.789   9.378   6.333  0.4378  0.7634  0.6649
  686MOL0     H92559   3.617   9.544   6.359 -1.9141  0.5858 -1.0302
  686MOL0     H92560   3.568   9.379   6.404 -0.0099 -0.5181 -0.2612
  686MOL0     H92561   3.481   9.662   6.136  2.0880 -1.9945 -0.2530
  686MOL0     H92562   3.292   9.462   5.847  0.2996 -0.9919  3.1285
  686MOL0     H92563   3.189   9.579   5.932  0.6185  1.5113  2.6822
  686MOL0     H92564   3.448   9.644   5.798 -0.9982 -1.1802 -2.0308
  686MOL0     H92565   3.383   9.746   5.928 -2.3185  0.4593  0.8172
  686MOL0     H92566   3.320   9.832   5.719  0.3112 -0.8586 -0.7406
  686MOL0     H92567   3.183   9.807   5.818  0.8908  1.1765  1.4763
  686MOL0     H92568   3.133   9.728   5.580  2.0608 -0.1819 -1.6968
  686MOL0     H92569   3.131   9.588   5.691  1.2844 -1.9299 -1.3526
  686MOL0     H92570   3.066   9.449   5.524  2.7749 -0.4494  1.8969
  686MOL0     H92571   2.872   9.383   5.340  1.6412  1.7848 -0.4787
  686MOL0     H92572   2.965   9.240   5.278 -0.7206  1.5421 -2.4038
  686MOL0     H92573   2.964   9.270   5.442  0.3182  1.1363  1.5219
  686MOL0     H92574   3.221   9.134   4.908  2.1103 -0.0877  0.2106
  686MOL0     H92575   3.179   9.068   4.672 -3.2093 -0.8203  2.7033
  686MOL0     H92576   2.930   9.156   4.410 -2.3894 -0.0890  1.8386
  686MOL0     H92577   2.933   9.173   4.582  1.5782 -0.7965 -0.3625
  686MOL0     H92578   2.755   9.310   4.492  0.4036  0.0990  0.7633
  686MOL0     H92579   2.878   9.423   4.545 -1.0228  2.1470 -1.2857
  686MOL0     H92580   2.884   9.332   4.265 -0.8438 -0.3012  0.8874
  686MOL0     H92581   2.961   9.470   4.316 -0.1902  0.6929 -4.6037
  686MOL0     H92582   2.647   9.455   4.327  0.6521 -0.4000  2.7017
  686MOL0     H92583   2.737   9.596   4.359 -0.7106 -3.1677  5.4004
  686MOL0     H92584   2.752   9.467   4.088 -0.3639  1.4211 -2.5252
  686MOL0     H92585   2.815   9.621   4.130  0.4056 -0.9603  2.1986
  686MOL0     H92586   2.570   9.704   4.208  2.7226 -1.8887  2.0744
  686MOL0     H92587   2.603   9.674   4.035 -0.0767  1.3804 -0.3141
  686MOL0     H92588   2.381   9.612   4.082  0.3211 -0.5347 -1.5232
  686MOL0     H92589   2.430   9.496   4.200 -1.0885 -1.7309 -1.5278
  686MOL0     H92590   2.559   9.359   4.025  0.7396  1.1292 -1.3194
  686MOL0     H92591   2.521   9.482   3.911 -0.0332  2.8263  1.7392
  686MOL0     H92592   3.097   9.493   4.594  1.8502  0.3461 -0.8543
  686MOL0     H92593   3.162   9.535   4.809  1.8789 -0.7746  0.2994
  686MOL0     H92594   3.329   9.514   5.130 -0.0509 -2.0574 -0.2105
  686MOL0     H92595   3.410   9.628   5.324 -0.3197 -0.5849 -1.4910
  686MOL0     H92596   3.957  10.213   5.800 -0.8839 -0.4850 -0.3921
  686MOL0     H92597   3.922  10.408   5.665 -1.7357  1.4526  1.4358
  686MOL0     H92598   3.797  10.612   5.292 -2.4586 -0.8356 -3.1094
  686MOL0     H92599   3.796  10.828   5.204 -1.9382  0.8917 -2.3993
  686MOL0     H92600   3.734  11.115   5.273  0.8201 -0.9888  0.4340
  686MOL0     H92601   3.733  11.033   5.108 -0.2955 -0.8782  0.8287
  686MOL0     H92602   3.573  11.188   5.032  2.4121 -3.5322 -0.4001
  686MOL0     H92603   3.716  11.275   5.110 -0.2443  1.2369  3.1845
  686MOL0     H92604   3.582  11.266   5.335 -0.5060  2.7428  0.6552
  686MOL0     H92605   3.438  11.257   5.236 -0.4870 -0.6077  0.2935
  686MOL0     H92606   3.634  11.480   5.230 -0.0092  0.2055 -3.0570
  686MOL0     H92607   3.467  11.467   5.309 -0.4288 -2.5590  0.4338
  686MOL0     H92608   3.333  11.527   4.919  0.8035  1.5847 -0.6131
  686MOL0     H92609   3.403  10.891   5.370  0.5493  1.6762  0.6289
  686MOL0     H92610   3.438  10.680   5.498  0.1624 -1.1222 -1.4909
  687MOL0     O92611   6.771   5.679   5.928 -0.3986 -0.4088  0.2653
  687MOL0     C92612   6.685   5.594   5.898 -0.0535  0.6175  0.1357
  687MOL0     O92613   6.717   5.459   5.876 -0.0441  0.4701  0.8063
  687MOL0     C92614   6.843   5.422   5.912 -0.1757 -1.0926 -0.5560
  687MOL0     C92615   6.866   5.381   6.047  0.0372  0.5546 -0.6305
  687MOL0     C92616   6.988   5.365   6.108 -0.1131 -0.7954  0.6449
  687MOL0     C92617   7.100   5.397   6.034 -0.8134 -0.5273 -0.4019
  687MOL0     O92618   7.230   5.400   6.085  0.0041  0.1195 -0.1308
  687MOL0     C92619   7.271   5.333   6.203  0.5765  0.1564 -0.2683
  687MOL0     C92620   7.290   5.435   6.318  0.9256 -0.4816 -0.5778
  687MOL0     C92621   7.169   5.526   6.364 -0.3199  0.9279  0.0296
  687MOL0     C92622   7.148   5.643   6.268 -1.0556 -0.2651  0.4897
  687MOL0     C92623   7.043   5.736   6.327 -0.0294  0.6460  0.6065
  687MOL0     C92624   6.897   5.668   6.328  0.1860 -0.1715 -0.5210
  687MOL0     C92625   6.791   5.767   6.362  1.0158 -0.2775  0.8768
  687MOL0     C92626   6.768   5.870   6.249 -1.0830 -0.1585 -0.6368
  687MOL0     N92627   6.693   5.979   6.310 -0.6544  0.0522 -0.3399
  687MOL0     C92628   6.754   6.065   6.400 -0.1556 -0.0566  0.5947
  687MOL0     C92629   6.656   6.150   6.440  0.0457  0.4733  0.7157
  687MOL0     C92630   6.664   6.268   6.531 -0.0450 -0.2826 -0.5329
  687MOL0     C92631   6.646   6.224   6.682  0.4507  0.1606  0.9886
  687MOL0     C92632   6.619   6.333   6.783  0.0038 -0.9741 -0.4346
  687MOL0     C92633   6.542   6.449   6.728  0.2997  0.5387  0.0818
  687MOL0     O92634   6.492   6.507   6.845  0.5414  0.1469  0.2933
  687MOL0     C92635   6.459   6.639   6.847  0.9927 -0.0086  0.2992
  687MOL0     C92636   6.463   6.721   6.728  0.2620  0.0126 -0.5876
  687MOL0     C92637   6.444   6.856   6.730  0.3850  0.3607 -0.2531
  687MOL0     C92638   6.450   6.939   6.596  0.1809  0.0499 -0.2859
  687MOL0     C92639   6.424   6.924   6.852 -0.4716  0.2907 -0.9242
  687MOL0     C92640   6.413   7.067   6.854  0.1032 -0.3588 -0.6252
  687MOL0     O92641   6.305   7.096   6.934  0.7885  0.4750 -0.6881
  687MOL0     C92642   6.295   7.230   6.980  0.0983 -0.0363  0.4877
  687MOL0     C92643   6.376   7.278   7.080 -0.5780 -0.0098  0.2737
  687MOL0     C92644   6.372   7.412   7.102  0.3482  0.2836 -0.7405
  687MOL0     C92645   6.272   7.495   7.046 -0.5574  0.6915 -0.0627
  687MOL0     O92646   6.261   7.631   7.083  0.0274 -0.1395 -0.2307
  687MOL0     C92647   6.310   7.672   7.213 -0.4046 -0.2647 -0.7755
  687MOL0     C92648   6.261   7.590   7.335 -0.1629  0.7900  0.4333
  687MOL0     C92649   6.333   7.650   7.457 -0.1308  0.9014  0.8558
  687MOL0     C92650   6.276   7.582   7.586  0.8452 -0.0728 -0.8134
  687MOL0     C92651   6.385   7.586   7.696 -0.1333 -1.2327 -0.0910
  687MOL0     C92652   6.337   7.497   7.816  0.3094 -0.3043 -0.2663
  687MOL0     C92653   6.425   7.527   7.935  0.5420  0.2543 -0.3743
  687MOL0     C92654   6.385   7.448   8.059  0.8617  1.0901  0.9700
  687MOL0    Cl92655   6.496   7.499   8.185  0.2092 -0.4862 -0.0830
  687MOL0     C92656   6.196   7.448   6.943  0.9513  0.2097  0.8857
  687MOL0     C92657   6.203   7.314   6.906  0.1118  0.4556 -0.1068
  687MOL0     O92658   6.493   7.146   6.799  0.1710 -0.2601  0.0590
  687MOL0     C92659   6.409   6.848   6.971 -0.1875  0.5609 -0.9158
  687MOL0     C92660   6.426   6.701   6.967 -0.2647 -0.4546 -0.9166
  687MOL0     N92661   6.543   6.121   6.368  1.4315  0.0698  0.6897
  687MOL0     N92662   6.561   6.009   6.305  0.1164 -0.5365  0.3471
  687MOL0     C92663   7.087   5.444   5.901  0.5112 -0.3951 -0.6121
  687MOL0     C92664   6.963   5.445   5.836  0.3739  0.7254  1.4711
  687MOL0     C92665   6.542   5.639   5.873  0.7232  0.2801 -0.0204
  687MOL0     C92666   6.494   5.766   5.908 -0.2794  0.6671 -0.2679
  687MOL0     C92667   6.360   5.800   5.904 -1.1663 -0.0616 -0.7669
  687MOL0     C92668   6.262   5.709   5.865  0.1576  0.5045 -0.6511
  687MOL0     O92669   6.125   5.733   5.865 -0.1723  0.0287  0.3030
  687MOL0     C92670   6.076   5.873   5.859 -0.4214 -0.4542 -0.6821
  687MOL0     C92671   5.925   5.883   5.911  0.1154 -0.5305 -0.4658
  687MOL0     C92672   5.829   5.812   5.822  0.6480 -0.4738  0.6913
  687MOL0     C92673   5.702   5.888   5.805 -0.7667 -0.5122 -0.1764
  687MOL0     C92674   5.625   5.837   5.695 -0.3833 -0.2819  0.0471
  687MOL0     C92675   5.555   5.799   5.605  0.2734 -0.2621  0.4618
  687MOL0     C92676   6.308   5.581   5.829  0.0013  0.0104  0.4803
  687MOL0     C92677   6.448   5.548   5.837  0.4946 -0.0711 -0.2109
  687MOL0     H92678   6.777   5.368   6.107  1.8925 -2.5097  1.7671
  687MOL0     H92679   6.991   5.340   6.214  0.9744 -0.4925  0.6994
  687MOL0     H92680   7.191   5.264   6.229  1.3893 -1.4391 -1.8165
  687MOL0     H92681   7.361   5.275   6.178 -0.8945 -2.3055 -0.1732
  687MOL0     H92682   7.332   5.392   6.409  1.8805 -0.2885 -0.9097
  687MOL0     H92683   7.369   5.496   6.272  3.5853 -3.6662 -0.6808
  687MOL0     H92684   7.087   5.454   6.369  0.7861 -0.2733  2.7582
  687MOL0     H92685   7.196   5.566   6.463  1.5593  0.4433 -0.2470
  687MOL0     H92686   7.246   5.689   6.252  0.3164 -2.7415  1.3462
  687MOL0     H92687   7.107   5.615   6.170  0.8526 -2.1760  0.1801
  687MOL0     H92688   7.067   5.760   6.431  1.7828 -3.9829  1.4725
  687MOL0     H92689   7.040   5.826   6.265  2.0241  0.5866  0.3801
  687MOL0     H92690   6.871   5.626   6.230 -0.6616 -1.4168  0.1997
  687MOL0     H92691   6.902   5.598   6.413  2.8638 -0.0295 -0.4833
  687MOL0     H92692   6.697   5.711   6.372  0.4181 -0.0109 -2.2312
  687MOL0     H92693   6.817   5.803   6.461  0.2670 -2.3880  1.9063
  687MOL0     H92694   6.703   5.822   6.175 -0.6816 -0.1862 -0.9742
  687MOL0     H92695   6.857   5.910   6.199 -1.3140 -0.0808 -0.9866
  687MOL0     H92696   6.855   6.055   6.438 -0.9117 -4.6225  2.0201
  687MOL0     H92697   6.759   6.321   6.528  0.7736 -1.6834 -0.4477
  687MOL0     H92698   6.586   6.337   6.498  1.3185  1.0555 -1.0615
  687MOL0     H92699   6.732   6.164   6.714  1.3937  0.5443 -0.7121
  687MOL0     H92700   6.556   6.162   6.686 -1.3117  2.6292  2.7168
  687MOL0     H92701   6.714   6.371   6.824 -1.2269 -0.8769  2.5810
  687MOL0     H92702   6.569   6.292   6.871  0.2383  1.0892  0.7345
  687MOL0     H92703   6.461   6.428   6.657 -0.0297  0.8385  0.3644
  687MOL0     H92704   6.612   6.517   6.679  2.2211 -0.2660  1.5706
  687MOL0     H92705   6.482   6.677   6.631 -2.4814  0.4868 -1.4394
  687MOL0     H92706   6.426   6.870   6.514 -4.0843 -0.3831  1.0941
  687MOL0     H92707   6.374   7.017   6.585 -0.9228 -0.9973 -0.3771
  687MOL0     H92708   6.548   6.986   6.583 -0.3538  2.1315  2.2986
  687MOL0     H92709   6.442   7.200   7.118 -2.7451 -1.8539  0.4983
  687MOL0     H92710   6.433   7.461   7.178 -2.8045  3.3450  0.0842
  687MOL0     H92711   6.419   7.680   7.206 -0.4058 -0.2625 -0.7945
  687MOL0     H92712   6.268   7.772   7.226 -1.6642 -0.7243 -1.1660
  687MOL0     H92713   6.156   7.612   7.355 -0.7699 -1.3377 -0.1495
  687MOL0     H92714   6.278   7.483   7.322  2.3541  1.3070 -1.4729
  687MOL0     H92715   6.338   7.758   7.441  0.0247  0.6481 -1.0686
  687MOL0     H92716   6.436   7.612   7.455  0.2866  2.0289 -0.9544
  687MOL0     H92717   6.184   7.633   7.617  0.6622 -0.4017 -0.8115
  687MOL0     H92718   6.254   7.478   7.560 -2.6945  0.2363  0.4208
  687MOL0     H92719   6.403   7.692   7.717  0.4003 -1.4213  0.4047
  687MOL0     H92720   6.481   7.542   7.668  0.6765  1.5691 -2.2406
  687MOL0     H92721   6.234   7.526   7.838 -0.4217 -1.3376 -2.0762
  687MOL0     H92722   6.336   7.390   7.790  0.0710 -1.0342  2.4865
  687MOL0     H92723   6.424   7.632   7.963 -4.3024  0.3974 -0.3718
  687MOL0     H92724   6.526   7.490   7.914  0.7349  0.3806  0.3059
  687MOL0     H92725   6.404   7.342   8.041 -0.5623  0.5356  2.4536
  687MOL0     H92726   6.283   7.463   8.094  1.1331  3.4901  0.9358
  687MOL0     H92727   6.128   7.519   6.896 -2.0960 -2.1408  1.4368
  687MOL0     H92728   6.146   7.257   6.834 -1.7907  1.3496  0.6226
  687MOL0     H92729   6.394   6.893   7.069  1.1710 -1.4496  0.2903
  687MOL0     H92730   6.427   6.637   7.054 -2.0503  2.5493  1.5377
  687MOL0     H92731   7.176   5.467   5.843  0.3551  1.1985 -0.2681
  687MOL0     H92732   6.953   5.475   5.732 -3.2421 -3.5706  0.2688
  687MOL0     H92733   6.566   5.844   5.930 -0.9892  0.9876  0.9839
  687MOL0     H92734   6.338   5.902   5.936 -0.2076  0.8618 -2.9157
  687MOL0     H92735   6.131   5.953   5.909  0.1431 -1.9997  1.3065
  687MOL0     H92736   6.083   5.903   5.754 -2.2383  0.3484 -0.6259
  687MOL0     H92737   5.901   5.989   5.903  1.4567 -0.3716 -4.6479
  687MOL0     H92738   5.918   5.855   6.017  0.3019  0.5002 -0.1714
  687MOL0     H92739   5.802   5.713   5.860  1.2363 -0.8707  0.1017
  687MOL0     H92740   5.875   5.806   5.723 -0.5897 -3.3074  0.1901
  687MOL0     H92741   5.713   5.997   5.805  1.4749 -0.6940 -0.0840
  687MOL0     H92742   5.642   5.873   5.896 -0.8815  1.1152  0.0504
  687MOL0     H92743   5.486   5.791   5.523 -0.3736 -0.8185  1.0417
  687MOL0     H92744   6.247   5.497   5.797 -1.1677  1.4306 -1.1679
  687MOL0     H92745   6.476   5.446   5.811  1.8316  0.2575 -0.1270
  688MOL0     O92746   5.108   6.086   5.566 -0.3552 -0.5108 -0.0627
  688MOL0     C92747   5.115   6.168   5.468 -1.5770 -0.0397  0.2376
  688MOL0     O92748   5.127   6.306   5.486  0.7142  0.0898  0.1030
  688MOL0     C92749   5.149   6.358   5.610  0.4052  0.7478  0.0158
  688MOL0     C92750   5.236   6.298   5.702  0.5535 -0.5321  0.4532
  688MOL0     C92751   5.274   6.364   5.822 -0.4113 -1.1542 -0.6800
  688MOL0     C92752   5.205   6.481   5.863 -0.6150  0.1885 -0.2823
  688MOL0     O92753   5.237   6.544   5.976  0.5032  0.1202 -0.5227
  688MOL0     C92754   5.353   6.629   5.967  0.6803  0.4875 -1.1883
  688MOL0     C92755   5.485   6.564   5.989 -0.8183 -1.2749 -0.1396
  688MOL0     C92756   5.493   6.464   6.103 -0.2526  0.4545 -0.5827
  688MOL0     C92757   5.407   6.502   6.229  0.5117 -0.1188  0.2585
  688MOL0     C92758   5.427   6.410   6.349  0.4903  0.4520  0.3022
  688MOL0     C92759   5.346   6.457   6.464  0.1872  0.5992 -0.1325
  688MOL0     C92760   5.356   6.605   6.503 -0.1064  0.0299  0.2589
  688MOL0     C92761   5.344   6.627   6.653 -0.5166 -0.0487 -0.0983
  688MOL0     N92762   5.308   6.760   6.685 -0.1427 -0.3859  1.1257
  688MOL0     C92763   5.391   6.867   6.687 -0.6430 -0.6521  0.2741
  688MOL0     C92764   5.314   6.978   6.710 -0.1947 -0.1125  0.2896
  688MOL0     C92765   5.359   7.120   6.748  0.4589  0.2940  0.6282
  688MOL0     C92766   5.365   7.138   6.900 -1.0313 -0.1840 -0.1354
  688MOL0     C92767   5.379   7.292   6.947 -0.0376  0.6058 -0.1949
  688MOL0     C92768   5.341   7.304   7.091  0.4577 -0.6910 -0.6091
  688MOL0     O92769   5.200   7.269   7.109  0.1093  0.1043 -1.2513
  688MOL0     C92770   5.107   7.366   7.085 -1.1233 -0.3614 -0.2674
  688MOL0     C92771   5.129   7.503   7.059  1.3822  0.1086 -0.3093
  688MOL0     C92772   5.034   7.599   7.045  0.3514 -0.6557  0.4416
  688MOL0     C92773   5.077   7.738   7.013  0.0120 -0.0190 -0.0401
  688MOL0     C92774   4.902   7.558   7.075  0.7682  0.6757  0.8595
  688MOL0     C92775   4.784   7.649   7.064  0.8567 -0.2554  0.0444
  688MOL0     O92776   4.658   7.589   7.088  0.4113  0.2234 -0.3173
  688MOL0     C92777   4.554   7.667   7.051  0.0162 -0.6139  0.4115
  688MOL0     C92778   4.545   7.740   6.924  0.6598  1.0676 -0.5833
  688MOL0     C92779   4.424   7.795   6.885 -0.9940  0.7038 -0.0514
  688MOL0     C92780   4.312   7.771   6.962 -0.5000  0.3631 -0.9689
  688MOL0     O92781   4.195   7.813   6.910  0.3308 -0.3527 -0.2510
  688MOL0     C92782   4.159   7.739   6.791 -0.1461  0.4944  0.3055
  688MOL0     C92783   4.009   7.761   6.789 -0.2957 -0.0409  0.0935
  688MOL0     C92784   3.959   7.766   6.649 -0.7921  0.2737 -0.1773
  688MOL0     C92785   3.810   7.818   6.643 -0.4959  0.5384  1.3226
  688MOL0     C92786   3.762   7.841   6.500  0.4629 -0.1055  0.7378
  688MOL0     C92787   3.605   7.853   6.505 -0.0494 -0.2591 -0.1331
  688MOL0     C92788   3.559   7.837   6.363  0.7003 -0.2112 -1.0003
  688MOL0     C92789   3.406   7.834   6.351  0.3566  0.7140  0.5093
  688MOL0    Cl92790   3.341   7.671   6.389 -0.4401 -0.2826 -0.2266
  688MOL0     C92791   4.326   7.714   7.085  0.2225  0.7604 -0.8001
  688MOL0     C92792   4.447   7.659   7.132  0.7496 -0.4611 -0.4750
  688MOL0     O92793   4.797   7.769   7.028 -0.4356  0.0855  0.6368
  688MOL0     C92794   4.872   7.426   7.109 -0.5788  0.9176 -0.0951
  688MOL0     C92795   4.972   7.333   7.107 -1.4006 -0.5284 -0.0331
  688MOL0     N92796   5.182   6.941   6.719  0.2732  0.4907  0.3349
  688MOL0     N92797   5.180   6.817   6.684 -0.1705  0.2173 -0.2117
  688MOL0     C92798   5.109   6.529   5.777 -0.4547 -0.4149  0.6899
  688MOL0     C92799   5.084   6.474   5.650 -0.6762 -0.0120  0.2232
  688MOL0     C92800   5.108   6.099   5.331 -0.1610  0.4581  0.3695
  688MOL0     C92801   5.044   5.974   5.323  0.8018  0.4849  0.1256
  688MOL0     C92802   5.054   5.900   5.205 -0.5029  0.4089 -0.9944
  688MOL0     C92803   5.106   5.948   5.084  0.6780 -0.1142  0.7696
  688MOL0     O92804   5.117   5.867   4.973  0.0919  0.5665 -0.5501
  688MOL0     C92805   5.091   5.932   4.849  0.4487 -0.6960  0.8299
  688MOL0     C92806   5.043   5.835   4.735  0.5515  0.2352 -0.7455
  688MOL0     C92807   4.899   5.799   4.751  0.4157 -1.2872  0.3976
  688MOL0     C92808   4.844   5.716   4.638  0.5334 -0.7657 -0.0275
  688MOL0     C92809   4.912   5.595   4.622  0.0764  0.5857  0.4592
  688MOL0     C92810   4.992   5.503   4.604  0.3759  0.5261  0.0009
  688MOL0     C92811   5.159   6.074   5.096  0.5090 -0.1605 -0.0940
  688MOL0     C92812   5.162   6.152   5.220  0.1970 -0.3776 -0.1384
  688MOL0     H92813   5.288   6.207   5.674  1.5372  0.6583 -1.8850
  688MOL0     H92814   5.355   6.325   5.882  0.7095  2.2048  0.2530
  688MOL0     H92815   5.364   6.687   5.876  0.0894  3.6690  0.6209
  688MOL0     H92816   5.344   6.699   6.050  3.1135 -1.5363  0.9723
  688MOL0     H92817   5.515   6.503   5.904  0.7980 -2.0706  0.9391
  688MOL0     H92818   5.555   6.648   5.995 -0.0890 -1.9193  0.6913
  688MOL0     H92819   5.482   6.359   6.077 -0.5796 -0.4539  2.7333
  688MOL0     H92820   5.600   6.470   6.127 -0.4355 -1.1129  0.8133
  688MOL0     H92821   5.436   6.605   6.251  2.4873 -0.4731 -0.5217
  688MOL0     H92822   5.301   6.501   6.202  1.4341  1.0749 -4.2103
  688MOL0     H92823   5.393   6.308   6.329  1.8062 -0.2301  1.3337
  688MOL0     H92824   5.531   6.404   6.383  0.6858  0.4334 -0.2976
  688MOL0     H92825   5.245   6.416   6.469  0.8217 -0.9992  0.1900
  688MOL0     H92826   5.390   6.416   6.556  1.3715  1.3044 -0.3602
  688MOL0     H92827   5.449   6.648   6.464 -1.5484  2.8036 -0.4385
  688MOL0     H92828   5.269   6.652   6.455 -0.6982 -2.4750 -1.2683
  688MOL0     H92829   5.443   6.601   6.693 -0.0494  1.4591 -0.2077
  688MOL0     H92830   5.267   6.559   6.689 -0.8044 -0.0263 -0.6644
  688MOL0     H92831   5.497   6.866   6.710 -0.1326  0.8088 -1.7284
  688MOL0     H92832   5.450   7.142   6.691  0.1089  2.9048  0.9736
  688MOL0     H92833   5.280   7.190   6.722 -0.9791 -1.1900  0.8513
  688MOL0     H92834   5.451   7.078   6.932 -1.7754  0.1816  2.9131
  688MOL0     H92835   5.287   7.094   6.962 -1.7487  1.8617  0.4871
  688MOL0     H92836   5.314   7.362   6.893 -0.3295 -0.7218 -1.6325
  688MOL0     H92837   5.480   7.327   6.924 -0.0928 -0.2440 -1.8929
  688MOL0     H92838   5.361   7.402   7.137 -0.4809  0.3099 -2.2322
  688MOL0     H92839   5.397   7.233   7.151  0.3204 -1.0852 -0.9415
  688MOL0     H92840   5.233   7.534   7.048  1.9265 -0.8799  1.5554
  688MOL0     H92841   5.030   7.808   7.083  0.6381 -0.9141  1.3028
  688MOL0     H92842   5.184   7.749   7.033  0.5094  1.5187 -2.9246
  688MOL0     H92843   5.053   7.768   6.910  0.8311  0.6859 -0.0406
  688MOL0     H92844   4.623   7.740   6.849 -0.7146  0.9147 -2.0475
  688MOL0     H92845   4.412   7.836   6.785  2.5415  1.5486 -0.2754
  688MOL0     H92846   4.215   7.779   6.706 -1.1037  4.4265  1.3253
  688MOL0     H92847   4.171   7.631   6.805 -1.4688  0.0964 -1.3226
  688MOL0     H92848   3.955   7.693   6.855 -1.2332  1.2624  0.7179
  688MOL0     H92849   3.982   7.860   6.827 -0.8172 -1.3634  3.5723
  688MOL0     H92850   3.972   7.676   6.588  0.1659  0.9703 -1.0334
  688MOL0     H92851   4.020   7.835   6.591 -0.1453 -0.0666  0.0915
  688MOL0     H92852   3.756   7.738   6.694 -0.8560  1.5108  2.5114
  688MOL0     H92853   3.808   7.919   6.685 -0.3379  2.1695 -2.2143
  688MOL0     H92854   3.785   7.746   6.452  0.3584 -1.2235  2.7600
  688MOL0     H92855   3.807   7.925   6.446  1.2118 -0.3653  0.9453
  688MOL0     H92856   3.561   7.771   6.561 -0.5342 -2.7296 -3.7523
  688MOL0     H92857   3.571   7.953   6.532  2.1217  1.1606 -2.2253
  688MOL0     H92858   3.587   7.737   6.328 -0.9929 -1.1025  0.0843
  688MOL0     H92859   3.601   7.913   6.297 -0.0886  1.4495  0.3431
  688MOL0     H92860   3.378   7.848   6.246  0.8650 -1.4158  0.0503
  688MOL0     H92861   3.367   7.911   6.418 -1.6512  0.5405 -0.3968
  688MOL0     H92862   4.232   7.699   7.138 -0.5216 -1.1228 -2.5063
  688MOL0     H92863   4.458   7.608   7.228  0.0797  3.6166  2.0317
  688MOL0     H92864   4.770   7.391   7.122  0.0104 -0.0143  2.5841
  688MOL0     H92865   4.942   7.232   7.131 -0.0459 -0.4903  1.9938
  688MOL0     H92866   5.060   6.621   5.806 -2.7155 -0.9433 -1.1953
  688MOL0     H92867   5.022   6.509   5.568  0.8093 -2.9929 -2.4088
  688MOL0     H92868   5.005   5.931   5.415  0.7451  0.0233 -0.1099
  688MOL0     H92869   5.015   5.799   5.193 -1.0911  0.5781 -0.5403
  688MOL0     H92870   5.017   6.012   4.859 -0.1390 -0.8950 -1.4076
  688MOL0     H92871   5.187   5.977   4.822  1.4806 -2.7336  0.9459
  688MOL0     H92872   5.100   5.742   4.746 -1.3272 -0.7484  1.7696
  688MOL0     H92873   5.065   5.878   4.637  0.6762 -0.3604 -0.9869
  688MOL0     H92874   4.840   5.891   4.752  3.2628  0.6812 -0.4040
  688MOL0     H92875   4.892   5.765   4.855  0.8531  0.3613  1.0112
  688MOL0     H92876   4.842   5.766   4.541 -3.4957 -0.2864  0.1525
  688MOL0     H92877   4.736   5.707   4.651  0.5419  0.6002  1.3438
  688MOL0     H92878   5.048   5.412   4.603 -1.8059 -0.9643  1.9662
  688MOL0     H92879   5.210   6.114   5.009 -2.9340  0.6852 -1.8948
  688MOL0     H92880   5.212   6.249   5.218  4.2111 -2.2245 -0.6808
  689MOL0     O92881   0.871   9.650   1.118  0.2111  0.6053 -0.5634
  689MOL0     C92882   0.856   9.711   1.012 -0.3701  0.0987  0.1989
  689MOL0     O92883   0.776   9.669   0.911  0.6873 -0.5121  0.4413
  689MOL0     C92884   0.703   9.550   0.905 -0.1266  0.1462  1.0589
  689MOL0     C92885   0.731   9.436   0.983 -0.0048  0.1496  0.2099
  689MOL0     C92886   0.646   9.328   0.966 -0.1236 -0.2045  0.2818
  689MOL0     C92887   0.533   9.333   0.877 -0.2102 -0.1411  0.2619
  689MOL0     O92888   0.452   9.223   0.864 -0.1165 -0.4302  0.2283
  689MOL0     C92889   0.404   9.179   0.995 -0.0036 -0.1064  0.2873
  689MOL0     C92890   0.289   9.081   0.992  0.7207 -0.1301 -0.1256
  689MOL0     C92891   0.166   9.138   0.915 -0.0762 -0.2048  0.3015
  689MOL0     C92892   0.080   9.231   1.006  0.1837  0.3460  0.0305
  689MOL0     C92893  -0.030   9.298   0.916 -0.3891  1.6886  0.9322
  689MOL0     C92894  -0.166   9.293   0.974  0.2322  0.0310 -0.7866
  689MOL0     C92895  -0.236   9.167   1.007  0.0573 -0.0955  0.4886
  689MOL0     C92896  -0.254   9.062   0.888  0.1221  0.7906  0.5982
  689MOL0     N92897  -0.363   8.962   0.931  0.2520 -0.3930  0.3263
  689MOL0     C92898  -0.355   8.862   1.023  0.1595 -0.8153  0.3860
  689MOL0     C92899  -0.480   8.818   1.043 -0.9020  0.4132 -0.5655
  689MOL0     C92900  -0.514   8.707   1.141  0.4478 -0.4080  0.7533
  689MOL0     C92901  -0.670   8.665   1.151 -0.3196 -0.8948  0.7383
  689MOL0     C92902  -0.763   8.781   1.204  0.6542  0.4530 -0.6728
  689MOL0     C92903  -0.912   8.746   1.198  0.4326 -0.0861 -0.2736
  689MOL0     O92904  -0.996   8.857   1.232 -0.1765  0.4952 -0.0961
  689MOL0     C92905  -1.128   8.842   1.240 -0.1594  0.4581  0.2516
  689MOL0     C92906  -1.202   8.723   1.279  0.3598  0.7307 -0.1992
  689MOL0     C92907  -1.340   8.738   1.316  0.9480  1.1531  0.4495
  689MOL0     C92908  -1.410   8.615   1.365 -0.3080 -0.9312  0.6172
  689MOL0     C92909  -1.395   8.875   1.302  0.1953  0.3883  0.4457
  689MOL0     C92910  -1.541   8.906   1.323  0.2338  0.9281  0.3646
  689MOL0     O92911  -1.584   9.033   1.294  0.2737 -0.4199  0.0044
  689MOL0     C92912  -1.717   9.063   1.302 -0.9084 -0.4346  0.0305
  689MOL0     C92913  -1.798   9.054   1.417 -0.0268 -0.2534 -0.6884
  689MOL0     C92914  -1.938   9.073   1.420 -0.4924  0.1293  0.2702
  689MOL0     C92915  -2.002   9.106   1.297 -0.3194  0.6115 -0.1865
  689MOL0     O92916  -2.132   9.139   1.306  0.6338 -0.4885  0.0872
  689MOL0     C92917  -2.163   9.274   1.263 -0.9070  0.1788  0.4447
  689MOL0     C92918  -2.274   9.336   1.353 -0.5336  0.2038 -0.2387
  689MOL0     C92919  -2.400   9.262   1.330 -0.6381  0.2883 -0.1056
  689MOL0     C92920  -2.525   9.341   1.383  0.3459  0.6813  0.5879
  689MOL0     C92921  -2.660   9.287   1.337 -0.3673 -1.1313 -0.4072
  689MOL0     C92922  -2.699   9.188   1.448  0.4413  0.9934  0.1087
  689MOL0     C92923  -2.809   9.092   1.405  0.0644 -0.3700 -0.0105
  689MOL0     C92924  -2.768   8.952   1.448  0.1897  0.2288  1.0004
  689MOL0    Cl92925  -2.769   8.952   1.629 -0.1242 -0.0188  0.0576
  689MOL0     C92926  -1.925   9.107   1.185 -0.1252  0.1142  0.2432
  689MOL0     C92927  -1.789   9.084   1.187  0.0738  0.0252  0.4695
  689MOL0     O92928  -1.609   8.804   1.356 -0.2789  0.1116  0.4364
  689MOL0     C92929  -1.316   8.983   1.266 -0.1005  0.0394 -0.8731
  689MOL0     C92930  -1.184   8.962   1.228 -0.1727 -0.4035  0.0924
  689MOL0     N92931  -0.564   8.893   0.971  0.9230 -0.5868 -0.1421
  689MOL0     N92932  -0.502   8.975   0.915 -0.5410 -0.0951  0.9493
  689MOL0     C92933   0.513   9.440   0.797  0.0888 -0.1774  0.0059
  689MOL0     C92934   0.597   9.550   0.813  0.6783 -0.8884  0.3483
  689MOL0     C92935   0.934   9.837   0.996 -0.7846 -0.1017 -0.6103
  689MOL0     C92936   1.048   9.871   1.075  0.2122 -0.2150 -0.2482
  689MOL0     C92937   1.130   9.984   1.057 -0.1928  1.0602  0.1751
  689MOL0     C92938   1.100  10.070   0.948 -0.3264  0.0420 -0.3832
  689MOL0     O92939   1.191  10.174   0.924 -0.2650 -0.3911 -0.0441
  689MOL0     C92940   1.163  10.275   0.827 -0.4648 -0.5915 -0.7706
  689MOL0     C92941   1.076  10.377   0.898  0.0494  0.3290  1.0378
  689MOL0     C92942   0.984  10.443   0.802  0.4128 -0.4777  0.2464
  689MOL0     C92943   1.037  10.495   0.661  0.6856 -0.3136  0.0725
  689MOL0     C92944   1.149  10.596   0.674 -0.6821  0.8644 -0.5687
  689MOL0     C92945   1.247  10.669   0.690  0.1667 -0.7106  0.0887
  689MOL0     C92946   0.985  10.039   0.874  0.1524  0.0433  0.4328
  689MOL0     C92947   0.902   9.927   0.901  0.2085 -0.6428  1.0701
  689MOL0     H92948   0.818   9.419   1.046 -0.5148 -2.4548  0.3243
  689MOL0     H92949   0.678   9.240   1.020  1.2168  1.1253  1.7920
  689MOL0     H92950   0.491   9.140   1.050  1.0567  0.8821 -0.6273
  689MOL0     H92951   0.362   9.263   1.052  0.3469 -1.0254  1.9692
  689MOL0     H92952   0.317   8.994   0.933  0.4207  0.1906 -0.7524
  689MOL0     H92953   0.255   9.042   1.088  1.4661 -0.4651  0.0051
  689MOL0     H92954   0.199   9.193   0.826  0.0114  1.2787  1.2055
  689MOL0     H92955   0.103   9.052   0.892  0.6526 -0.7818  0.4310
  689MOL0     H92956   0.043   9.154   1.074 -2.7789  0.5190 -1.2143
  689MOL0     H92957   0.144   9.301   1.060 -0.1810 -1.3094  2.8127
  689MOL0     H92958   0.007   9.399   0.894 -1.4647  1.5293 -2.0345
  689MOL0     H92959  -0.038   9.232   0.829 -1.1305 -0.9203  2.8586
  689MOL0     H92960  -0.173   9.353   1.065  0.0296 -0.2767 -0.6006
  689MOL0     H92961  -0.235   9.336   0.900 -0.0618  0.8773 -0.0396
  689MOL0     H92962  -0.182   9.116   1.087  4.6110 -0.5384 -2.5339
  689MOL0     H92963  -0.337   9.194   1.039  0.5323 -0.9187  2.9005
  689MOL0     H92964  -0.163   9.009   0.860 -0.0043  0.4442  0.8416
  689MOL0     H92965  -0.301   9.124   0.810  2.1418  0.6640 -0.8038
  689MOL0     H92966  -0.264   8.814   1.059  1.9514 -0.1306 -2.8136
  689MOL0     H92967  -0.463   8.614   1.111 -0.4272 -0.5619 -0.3365
  689MOL0     H92968  -0.479   8.735   1.240  1.5197  1.8770 -0.1974
  689MOL0     H92969  -0.667   8.583   1.223  1.6433 -0.3375  1.3564
  689MOL0     H92970  -0.709   8.633   1.054 -0.5691  1.4509  0.0034
  689MOL0     H92971  -0.745   8.873   1.149 -0.9068  0.4026 -1.3272
  689MOL0     H92972  -0.747   8.801   1.311 -1.9506 -0.3412 -0.0576
  689MOL0     H92973  -0.923   8.655   1.258  5.4510 -0.6908  0.1547
  689MOL0     H92974  -0.940   8.715   1.096 -3.8305  1.3172  0.2735
  689MOL0     H92975  -1.150   8.628   1.281 -2.9299 -1.2156  0.0723
  689MOL0     H92976  -1.484   8.571   1.298  1.9402 -2.1456 -1.2398
  689MOL0     H92977  -1.339   8.533   1.381 -0.6861 -0.8664  2.9039
  689MOL0     H92978  -1.449   8.644   1.463  2.0944  1.5681  0.9462
  689MOL0     H92979  -1.750   9.035   1.513 -3.0603 -1.8487  0.6651
  689MOL0     H92980  -1.992   9.063   1.513 -0.7458 -0.7015  0.0444
  689MOL0     H92981  -2.075   9.339   1.272 -1.4304  0.7609  1.4777
  689MOL0     H92982  -2.189   9.280   1.157  1.3156  0.8946 -0.1241
  689MOL0     H92983  -2.243   9.337   1.458 -1.0446  0.5939 -0.0903
  689MOL0     H92984  -2.290   9.439   1.321  0.6133  0.2441 -0.7391
  689MOL0     H92985  -2.395   9.174   1.395 -0.6443  0.0293 -0.4521
  689MOL0     H92986  -2.411   9.228   1.227  0.5047 -0.9826  0.1566
  689MOL0     H92987  -2.520   9.333   1.492  2.1231  0.5353  0.5192
  689MOL0     H92988  -2.527   9.447   1.356 -8.3687  1.0178 -0.3603
  689MOL0     H92989  -2.647   9.225   1.249  1.2737 -2.8413  0.9551
  689MOL0     H92990  -2.745   9.355   1.323 -0.5035 -1.3334 -0.5520
  689MOL0     H92991  -2.608   9.131   1.472 -1.0865 -1.8955 -0.4343
  689MOL0     H92992  -2.724   9.240   1.541 -1.7587  2.9916 -1.5168
  689MOL0     H92993  -2.820   9.102   1.297 -1.5975  1.0028  0.2469
  689MOL0     H92994  -2.901   9.124   1.455  0.9470  0.4745  1.1321
  689MOL0     H92995  -2.665   8.920   1.430 -0.3016 -1.7186  1.4515
  689MOL0     H92996  -2.841   8.876   1.418  0.6057  1.1638 -2.7974
  689MOL0     H92997  -1.982   9.134   1.096 -0.3206  0.4077  0.4567
  689MOL0     H92998  -1.737   9.076   1.092  0.7464 -1.2488  0.9210
  689MOL0     H92999  -1.357   9.083   1.275  0.5522  0.2387  0.0241
  689MOL0     H93000  -1.126   9.040   1.179 -0.4557  0.2676  0.8142
  689MOL0     H93001   0.427   9.441   0.731  1.2316 -1.4764 -1.6287
  689MOL0     H93002   0.572   9.641   0.758  1.1579 -2.1293 -2.0462
  689MOL0     H93003   1.085   9.810   1.157  0.1146  1.4727  1.1067
  689MOL0     H93004   1.209  10.004   1.129 -0.9756 -0.1538  1.4446
  689MOL0     H93005   1.253  10.326   0.792  1.0724 -3.7175 -1.7368
  689MOL0     H93006   1.116  10.227   0.741  1.2828 -2.2775 -0.8289
  689MOL0     H93007   1.144  10.444   0.953 -0.7462  0.2360  2.1687
  689MOL0     H93008   1.025  10.328   0.981  0.4192 -0.1811  0.9713
  689MOL0     H93009   0.925  10.517   0.858  0.5256 -2.2339  2.8563
  689MOL0     H93010   0.907  10.366   0.790 -0.0097 -0.7434  3.6939
  689MOL0     H93011   0.957  10.550   0.610  0.9868  0.5069  0.4576
  689MOL0     H93012   1.059  10.406   0.602 -3.0866 -0.3129 -1.6253
  689MOL0     H93013   1.321  10.740   0.721  2.5199 -3.7977  2.1656
  689MOL0     H93014   0.961  10.115   0.800 -0.6261  0.2384  0.8772
  689MOL0     H93015   0.813   9.915   0.839  1.5730  3.2401 -1.9778
  690MOL0     O93016   3.236   2.274  10.683 -0.0519  0.8085 -0.5800
  690MOL0     C93017   3.326   2.194  10.695 -0.5163 -1.2172 -0.0253
  690MOL0     O93018   3.380   2.151  10.811 -0.1837 -0.5282  0.0083
  690MOL0     C93019   3.280   2.138  10.908 -0.1086  0.6575  0.0527
  690MOL0     C93020   3.190   2.036  10.888 -0.5163  0.3091 -0.3681
  690MOL0     C93021   3.100   2.001  10.982 -0.0441  0.1240 -0.4872
  690MOL0     C93022   3.090   2.071  11.105 -0.2217 -0.1152 -0.5214
  690MOL0     O93023   3.008   2.011  11.196  0.4289  0.0829 -0.1037
  690MOL0     C93024   2.969   2.095  11.306  0.4955  0.2992  0.5471
  690MOL0     C93025   2.887   2.013  11.415  0.1341  0.4176 -0.7050
  690MOL0     C93026   2.764   1.943  11.362 -0.3454  0.1723  0.0471
  690MOL0     C93027   2.680   1.887  11.475 -0.4551  0.7145  0.8404
  690MOL0     C93028   2.531   1.840  11.436  0.8617 -0.6135  0.3374
  690MOL0     C93029   2.527   1.694  11.393 -0.7287  0.1440  0.1228
  690MOL0     C93030   2.389   1.663  11.344  0.0676  0.0037  0.2612
  690MOL0     C93031   2.385   1.510  11.305  0.2282 -0.0944 -0.6800
  690MOL0     N93032   2.321   1.445  11.423  0.8214 -0.5410 -0.7395
  690MOL0     C93033   2.186   1.429  11.434  0.2966  0.5644  0.0795
  690MOL0     C93034   2.168   1.358  11.552 -0.1653  1.5707 -0.1035
  690MOL0     C93035   2.037   1.303  11.611  0.1276  0.3307  0.5650
  690MOL0     C93036   2.043   1.242  11.754 -0.2551 -0.3732  0.3612
  690MOL0     C93037   1.924   1.163  11.800 -0.5153 -0.5241  0.5911
  690MOL0     C93038   1.922   1.066  11.922 -0.2364 -0.0780 -0.4087
  690MOL0     O93039   1.940   1.139  12.041  0.2476  0.3809 -0.1703
  690MOL0     C93040   2.030   1.109  12.138  0.3267 -0.4377  0.3458
  690MOL0     C93041   1.985   1.132  12.269  0.2514 -0.2529  1.1243
  690MOL0     C93042   2.077   1.119  12.373  0.2834 -0.2693  1.1446
  690MOL0     C93043   2.036   1.152  12.506 -1.2942 -0.5038 -0.3224
  690MOL0     C93044   2.209   1.072  12.350 -0.3582 -0.3551 -0.1525
  690MOL0     C93045   2.312   1.073  12.453  0.5224  0.2083  0.3955
  690MOL0     O93046   2.437   1.124  12.423 -0.5215 -0.8690 -0.0491
  690MOL0     C93047   2.520   1.146  12.530 -0.4538 -0.8761 -0.5862
  690MOL0     C93048   2.566   1.055  12.623  0.7321  0.1716 -0.0029
  690MOL0     C93049   2.645   1.088  12.733 -0.5061  0.2286  0.0180
  690MOL0     C93050   2.693   1.218  12.746 -0.3212  0.5535 -0.5202
  690MOL0     O93051   2.766   1.242  12.859 -0.4863 -0.0225  0.1998
  690MOL0     C93052   2.835   1.359  12.872 -0.8775  0.0161  0.2469
  690MOL0     C93053   2.765   1.464  12.957 -0.9258 -0.8315  0.7053
  690MOL0     C93054   2.728   1.408  13.095 -0.5025  0.6643 -0.1972
  690MOL0     C93055   2.682   1.499  13.201  0.1870 -0.1302 -0.2043
  690MOL0     C93056   2.653   1.427  13.337 -0.3060 -0.3362 -0.0849
  690MOL0     C93057   2.551   1.517  13.428 -0.5114  0.0927  0.5233
  690MOL0     C93058   2.401   1.500  13.379  0.2209  0.9676  0.6748
  690MOL0     C93059   2.308   1.598  13.445  0.1213 -0.0278 -0.3797
  690MOL0    Cl93060   2.360   1.774  13.419  0.0559 -0.3574  0.0711
  690MOL0     C93061   2.654   1.314  12.658 -0.1690 -0.4673  0.3413
  690MOL0     C93062   2.573   1.281  12.549  0.7450 -1.0427 -0.4467
  690MOL0     O93063   2.284   1.030  12.562  0.2696 -0.1373  0.5416
  690MOL0     C93064   2.249   1.042  12.223 -0.6057 -0.1575  0.9156
  690MOL0     C93065   2.165   1.063  12.108  0.5428 -1.0012  0.2932
  690MOL0     N93066   2.292   1.323  11.596 -0.4386 -0.6716  0.6227
  690MOL0     N93067   2.376   1.389  11.534  0.1333 -0.0702 -0.4125
  690MOL0     C93068   3.180   2.175  11.124 -0.7634 -1.0174  0.3608
  690MOL0     C93069   3.273   2.212  11.023  0.2652 -0.5860  0.1965
  690MOL0     C93070   3.419   2.189  10.573 -0.4064 -0.0748 -0.6136
  690MOL0     C93071   3.393   2.271  10.458  0.3716  0.1426  0.1028
  690MOL0     C93072   3.472   2.268  10.342  0.4256  0.7422  0.8121
  690MOL0     C93073   3.599   2.187  10.351  0.2143  0.2085  0.7972
  690MOL0     O93074   3.675   2.172  10.237 -0.1336 -0.6737 -0.2055
  690MOL0     C93075   3.697   2.045  10.183  0.1519  1.6852 -0.1221
  690MOL0     C93076   3.682   2.025  10.030 -0.2968  0.1702  0.6309
  690MOL0     C93077   3.813   2.045   9.953  0.7028  0.8747  0.2654
  690MOL0     C93078   3.908   1.924   9.964  0.1207 -0.2308 -0.5012
  690MOL0     C93079   4.037   1.971   9.920 -0.1456  1.0186 -1.3584
  690MOL0     C93080   4.141   2.022   9.884  0.1361 -0.2672  0.3278
  690MOL0     C93081   3.625   2.126  10.468  0.4570 -0.1476 -0.6287
  690MOL0     C93082   3.540   2.124  10.577 -0.7651  0.3033  0.7560
  690MOL0     H93083   3.206   1.976  10.799  1.4204 -1.9469  1.3572
  690MOL0     H93084   3.042   1.910  10.973  1.0840 -0.5037 -1.7644
  690MOL0     H93085   3.059   2.114  11.365  2.6714 -3.2365 -1.3362
  690MOL0     H93086   2.917   2.184  11.269 -0.0656 -0.8236 -1.5091
  690MOL0     H93087   2.947   1.937  11.465 -0.1661 -0.4278 -1.5909
  690MOL0     H93088   2.852   2.088  11.486  1.3464  0.2345  0.0990
  690MOL0     H93089   2.702   2.015  11.309  1.0324  0.9064 -0.6289
  690MOL0     H93090   2.797   1.864  11.294 -0.7175  0.9949 -1.1109
  690MOL0     H93091   2.731   1.798  11.512 -0.5220 -0.0913 -0.9237
  690MOL0     H93092   2.669   1.969  11.546 -2.5701  1.5447 -0.3539
  690MOL0     H93093   2.465   1.852  11.522 -0.1777  2.4321 -0.7524
  690MOL0     H93094   2.486   1.904  11.361 -1.4964 -1.9608  0.5114
  690MOL0     H93095   2.606   1.670  11.322  1.7336  1.8863  2.1008
  690MOL0     H93096   2.555   1.629  11.477  1.9268  0.3797 -0.4883
  690MOL0     H93097   2.321   1.676  11.428  0.5585 -0.5115  0.7478
  690MOL0     H93098   2.354   1.723  11.260 -2.3572 -4.1088 -1.9907
  690MOL0     H93099   2.488   1.475  11.288  0.2222  0.7717 -2.7265
  690MOL0     H93100   2.326   1.490  11.215 -3.8785 -0.9925  1.9536
  690MOL0     H93101   2.113   1.445  11.356  0.2137 -2.0872 -0.4999
  690MOL0     H93102   1.967   1.385  11.592 -0.3462 -0.4265 -1.0969
  690MOL0     H93103   2.007   1.224  11.542  0.4309  1.0936 -0.4660
  690MOL0     H93104   2.067   1.314  11.833 -1.7471 -2.0604  2.4711
  690MOL0     H93105   2.130   1.176  11.756  1.5698  1.8525 -0.9286
  690MOL0     H93106   1.897   1.103  11.712  4.4733 -2.5464  0.1466
  690MOL0     H93107   1.847   1.241  11.806 -1.5843 -1.2275 -2.2188
  690MOL0     H93108   1.991   0.981  11.913 -2.4393 -1.9442 -0.5967
  690MOL0     H93109   1.823   1.019  11.928 -0.5536  0.7127  1.1126
  690MOL0     H93110   1.885   1.167  12.294 -0.1274  1.4600 -2.2494
  690MOL0     H93111   2.107   1.221  12.553 -4.1855  3.5928 -1.3790
  690MOL0     H93112   1.944   1.210  12.514 -0.0935  1.2429  2.0311
  690MOL0     H93113   2.037   1.067  12.574 -2.1262  3.1464  4.7935
  690MOL0     H93114   2.536   0.951  12.616  3.3853 -0.5703 -2.3206
  690MOL0     H93115   2.679   1.009  12.800 -1.4089  0.6532  1.0042
  690MOL0     H93116   2.929   1.356  12.928 -2.1111  1.2954  2.5219
  690MOL0     H93117   2.871   1.394  12.775 -0.5392 -1.5937 -0.2403
  690MOL0     H93118   2.821   1.558  12.963 -2.0260 -0.1444  0.4751
  690MOL0     H93119   2.670   1.501  12.916 -1.3356  0.4192  2.6136
  690MOL0     H93120   2.829   1.374  13.123  1.0732  2.1138 -3.6196
  690MOL0     H93121   2.663   1.321  13.081  1.5828 -0.8226 -1.2838
  690MOL0     H93122   2.758   1.578  13.215  1.3008 -1.5567  2.7090
  690MOL0     H93123   2.584   1.538  13.171 -0.4259 -0.3688  1.3792
  690MOL0     H93124   2.742   1.404  13.397  0.0517 -0.1985 -0.5596
  690MOL0     H93125   2.600   1.331  13.324 -0.3753 -0.3490  0.2682
  690MOL0     H93126   2.560   1.488  13.534  2.7795  0.0307  0.3193
  690MOL0     H93127   2.590   1.615  13.400  1.2233 -1.5463 -3.5502
  690MOL0     H93128   2.371   1.397  13.401  0.6822  0.4304 -1.1037
  690MOL0     H93129   2.402   1.514  13.271 -0.9013  1.2788  0.6930
  690MOL0     H93130   2.315   1.580  13.553 -1.8585 -0.9060 -0.3620
  690MOL0     H93131   2.203   1.591  13.415 -0.0241  0.5649 -0.0399
  690MOL0     H93132   2.675   1.421  12.667 -1.5748 -0.2147  0.8676
  690MOL0     H93133   2.542   1.362  12.485 -2.5650 -0.4463  1.6561
  690MOL0     H93134   2.346   0.999  12.199 -0.9001  0.5647 -1.9719
  690MOL0     H93135   2.204   1.042  12.009  2.1655 -0.7396  0.8495
  690MOL0     H93136   3.167   2.232  11.214  1.2198  2.4134 -1.3190
  690MOL0     H93137   3.322   2.309  11.020  0.1540 -0.5470 -2.4535
  690MOL0     H93138   3.299   2.325  10.460  1.0143  1.3804 -1.4872
  690MOL0     H93139   3.438   2.304  10.246 -0.9378 -1.2931  0.4891
  690MOL0     H93140   3.790   2.013  10.230 -1.0834 -0.9751  0.7202
  690MOL0     H93141   3.632   1.968  10.226  2.0900  1.2969  2.3236
  690MOL0     H93142   3.602   2.093   9.997  1.2556  0.9157 -1.8559
  690MOL0     H93143   3.652   1.921  10.013  0.9307 -0.0441 -0.3390
  690MOL0     H93144   3.867   2.129   9.998 -1.9583  2.0383  1.5072
  690MOL0     H93145   3.795   2.070   9.848  3.2268 -0.2993 -0.5389
  690MOL0     H93146   3.868   1.854   9.890  1.4999  0.7151 -2.2247
  690MOL0     H93147   3.917   1.874  10.061  1.3216  1.1472  0.1258
  690MOL0     H93148   4.230   2.075   9.856 -1.0520  1.5865 -0.1197
  690MOL0     H93149   3.719   2.072  10.471  1.2954  1.2658 -0.2084
  690MOL0     H93150   3.573   2.053  10.652  2.1417 -1.3880 -1.9049
  691MOL0     O93151   7.871   1.518   7.954 -0.3813 -0.3140  1.0486
  691MOL0     C93152   7.816   1.612   7.897 -0.1950  0.1793  0.0895
  691MOL0     O93153   7.696   1.612   7.845 -0.6797  0.1395  0.5774
  691MOL0     C93154   7.610   1.504   7.886 -0.2899 -0.3436 -0.3378
  691MOL0     C93155   7.497   1.526   7.958  0.0176  0.4998  0.5251
  691MOL0     C93156   7.413   1.414   7.987  0.6687 -0.6445 -0.5573
  691MOL0     C93157   7.461   1.282   7.958 -0.6909 -0.4932  0.2005
  691MOL0     O93158   7.394   1.170   8.006 -0.7170  0.1152 -0.1946
  691MOL0     C93159   7.259   1.185   8.047 -0.2941 -0.5877 -0.4261
  691MOL0     C93160   7.198   1.051   8.087 -0.3928  0.7153  0.9667
  691MOL0     C93161   7.289   0.965   8.174  0.1689  0.8224 -0.8532
  691MOL0     C93162   7.217   0.842   8.254 -0.2169  0.2425  0.3255
  691MOL0     C93163   7.116   0.880   8.367  0.2566  0.4224  0.1289
  691MOL0     C93164   7.061   0.761   8.439  1.2368 -0.2707 -1.0456
  691MOL0     C93165   6.944   0.796   8.539  1.3855 -0.5994  0.1900
  691MOL0     C93166   6.921   0.663   8.631  0.3237 -1.0057  0.1041
  691MOL0     N93167   6.793   0.667   8.694  0.2854 -0.2513 -0.1868
  691MOL0     C93168   6.755   0.756   8.792 -0.5158 -0.7409 -0.1451
  691MOL0     C93169   6.632   0.710   8.827  0.2721  0.3549  0.2130
  691MOL0     C93170   6.550   0.793   8.924  0.4135  0.3620  0.0460
  691MOL0     C93171   6.503   0.723   9.048  0.2587 -0.6244  0.2269
  691MOL0     C93172   6.618   0.706   9.143  0.6544 -0.2785 -0.3959
  691MOL0     C93173   6.569   0.671   9.285 -0.0151  0.7625 -0.0401
  691MOL0     O93174   6.484   0.769   9.344  1.1038 -0.5676  0.3345
  691MOL0     C93175   6.366   0.735   9.406  0.5574  0.5690  0.6280
  691MOL0     C93176   6.262   0.825   9.410 -0.0674  0.8149 -0.4579
  691MOL0     C93177   6.144   0.793   9.470 -0.2733  0.2620 -0.5201
  691MOL0     C93178   6.048   0.910   9.480 -0.6761  0.2367  0.1179
  691MOL0     C93179   6.129   0.673   9.537 -0.6002 -0.3812 -0.1230
  691MOL0     C93180   6.007   0.625   9.614  0.4754  0.0603  0.7396
  691MOL0     O93181   6.017   0.536   9.717 -0.4177 -0.2048  0.1719
  691MOL0     C93182   5.924   0.429   9.711  0.4721 -1.0270 -0.7067
  691MOL0     C93183   5.880   0.372   9.826  0.4578  0.5671 -0.1400
  691MOL0     C93184   5.773   0.276   9.837 -0.0774 -0.2425  0.6145
  691MOL0     C93185   5.723   0.223   9.716 -0.0503  0.8619 -0.3134
  691MOL0     O93186   5.632   0.121   9.715  0.6063 -0.3825 -0.1605
  691MOL0     C93187   5.561   0.087   9.834 -0.1573  0.5950  0.5361
  691MOL0     C93188   5.474  -0.037   9.808  0.8313 -0.4262 -0.3352
  691MOL0     C93189   5.552  -0.139   9.722  0.0144 -0.1055 -0.2313
  691MOL0     C93190   5.458  -0.272   9.719  0.2558  0.0508 -0.0934
  691MOL0     C93191   5.521  -0.385   9.635 -0.8692  0.8155 -0.0580
  691MOL0     C93192   5.583  -0.492   9.732 -0.1945  0.0290  0.2649
  691MOL0     C93193   5.465  -0.562   9.802 -0.1436 -0.8846  0.0498
  691MOL0     C93194   5.518  -0.689   9.873 -0.3516  0.0066  0.2714
  691MOL0    Cl93195   5.551  -0.801   9.746 -0.1221 -0.0095  0.4749
  691MOL0     C93196   5.779   0.264   9.598  0.7301 -0.1648 -0.6988
  691MOL0     C93197   5.869   0.370   9.586  0.0306 -0.4502  0.9223
  691MOL0     O93198   5.901   0.684   9.586 -0.0133  0.1600  0.4198
  691MOL0     C93199   6.240   0.581   9.536 -0.1100  1.0751  0.4487
  691MOL0     C93200   6.355   0.610   9.469 -0.5181  0.4170 -0.9248
  691MOL0     N93201   6.599   0.589   8.764  0.3854  0.0726  0.0217
  691MOL0     N93202   6.690   0.575   8.674 -0.5249 -0.2070  0.7935
  691MOL0     C93203   7.573   1.266   7.877  0.3587  0.4195 -0.0854
  691MOL0     C93204   7.629   1.375   7.831  0.0197 -1.0002  0.5282
  691MOL0     C93205   7.894   1.729   7.866  0.2356 -0.3103  0.5515
  691MOL0     C93206   7.836   1.843   7.807  0.4508  0.9350 -0.1395
  691MOL0     C93207   7.906   1.957   7.788  0.1039 -0.0911 -0.4514
  691MOL0     C93208   8.035   1.962   7.848 -0.1131  0.1021  0.7532
  691MOL0     O93209   8.114   2.074   7.868  0.4711 -1.0368  0.1587
  691MOL0     C93210   8.076   2.205   7.814  1.3706  0.2550  0.4004
  691MOL0     C93211   8.202   2.291   7.814 -0.1932 -0.6324 -0.6588
  691MOL0     C93212   8.273   2.307   7.949  0.0841 -1.0291  0.2219
  691MOL0     C93213   8.402   2.377   7.915  0.1245  0.5662 -0.9669
  691MOL0     C93214   8.492   2.396   8.042  0.4037  0.3673 -0.3651
  691MOL0     C93215   8.542   2.425   8.148  0.0782  0.3619 -0.0065
  691MOL0     C93216   8.102   1.856   7.900 -0.5605  0.2747 -0.7414
  691MOL0     C93217   8.027   1.733   7.908  0.4343  0.9736 -0.4878
  691MOL0     H93218   7.466   1.627   7.984 -3.3663 -0.0242 -1.0054
  691MOL0     H93219   7.319   1.442   8.034 -0.6023 -0.8622 -2.8150
  691MOL0     H93220   7.251   1.256   8.130 -0.6106  1.3530 -2.0360
  691MOL0     H93221   7.194   1.233   7.973 -0.7757  0.1067  0.4228
  691MOL0     H93222   7.099   1.078   8.125 -1.9619 -1.3271 -1.3907
  691MOL0     H93223   7.187   1.005   7.989 -2.3135  3.1902 -0.0621
  691MOL0     H93224   7.375   0.928   8.116  0.4723 -1.0685  0.6964
  691MOL0     H93225   7.340   1.024   8.252  1.5911  0.4287 -1.4486
  691MOL0     H93226   7.172   0.781   8.175 -2.1883  0.9169  0.8641
  691MOL0     H93227   7.295   0.780   8.300  1.8407  0.8032 -2.1817
  691MOL0     H93228   7.170   0.945   8.436  2.1670 -0.4396 -0.4672
  691MOL0     H93229   7.038   0.943   8.325  0.6250  1.1105  0.4662
  691MOL0     H93230   7.026   0.679   8.375 -3.1155 -1.6973  2.6385
  691MOL0     H93231   7.141   0.718   8.501  1.9199  1.7896 -0.4201
  691MOL0     H93232   6.965   0.883   8.603 -1.2950  1.9272 -2.0651
  691MOL0     H93233   6.853   0.822   8.484  1.7355 -1.0244 -0.6054
  691MOL0     H93234   6.991   0.650   8.713 -0.6145 -2.3450  0.7230
  691MOL0     H93235   6.931   0.575   8.568  0.1094 -0.4628 -0.7085
  691MOL0     H93236   6.793   0.852   8.825  1.3998 -1.3596 -0.4237
  691MOL0     H93237   6.613   0.877   8.954  0.3944  1.0722 -1.8136
  691MOL0     H93238   6.460   0.837   8.879  0.8500 -0.5330 -1.7840
  691MOL0     H93239   6.469   0.623   9.017 -1.4069 -1.1567  3.4046
  691MOL0     H93240   6.427   0.797   9.074  1.0365  0.4760 -0.5359
  691MOL0     H93241   6.678   0.798   9.147  0.4088 -0.0228 -1.9960
  691MOL0     H93242   6.686   0.628   9.107  2.8963  1.7623 -0.8625
  691MOL0     H93243   6.655   0.659   9.352  0.3556 -2.0552 -0.9226
  691MOL0     H93244   6.518   0.576   9.270  0.9959 -0.0751  1.5553
  691MOL0     H93245   6.278   0.913   9.349 -0.8905  1.3773  0.1300
  691MOL0     H93246   6.104   0.999   9.451 -0.8234  0.2646 -0.0774
  691MOL0     H93247   5.965   0.882   9.415 -0.6539 -2.8923  1.2383
  691MOL0     H93248   6.001   0.910   9.579  0.2561 -0.2375  0.5808
  691MOL0     H93249   5.916   0.405   9.923 -0.5965  0.1721  0.4045
  691MOL0     H93250   5.742   0.236   9.933  2.3650  1.5101  2.2609
  691MOL0     H93251   5.632   0.051   9.909 -0.8695 -0.8700  0.5387
  691MOL0     H93252   5.493   0.166   9.867 -0.1596  0.3578  1.1070
  691MOL0     H93253   5.447  -0.087   9.901  0.0410  0.9062  0.1762
  691MOL0     H93254   5.379  -0.017   9.758  1.0861  2.0023  0.0598
  691MOL0     H93255   5.647  -0.156   9.774 -1.5249 -1.8023  2.2645
  691MOL0     H93256   5.572  -0.102   9.621 -1.0047  1.1035 -0.0146
  691MOL0     H93257   5.446  -0.308   9.821  0.6943 -0.1709 -0.1191
  691MOL0     H93258   5.365  -0.253   9.664  0.1321 -1.9706 -0.6560
  691MOL0     H93259   5.602  -0.339   9.578  2.4799 -1.4362  2.5272
  691MOL0     H93260   5.455  -0.428   9.559 -4.1084  3.5991  0.9022
  691MOL0     H93261   5.629  -0.558   9.658 -2.5712 -2.6495  0.9979
  691MOL0     H93262   5.647  -0.437   9.802 -0.2104 -1.0525  1.1610
  691MOL0     H93263   5.393  -0.592   9.725  0.5002 -1.9536 -0.1671
  691MOL0     H93264   5.423  -0.489   9.871  2.2524  3.6109 -2.7271
  691MOL0     H93265   5.453  -0.734   9.948  0.9739 -0.7673  1.0012
  691MOL0     H93266   5.621  -0.670   9.903  1.1507  0.4106 -4.2956
  691MOL0     H93267   5.742   0.204   9.515  0.5271 -0.8468 -0.1189
  691MOL0     H93268   5.881   0.405   9.484 -2.3937 -2.2690 -0.0853
  691MOL0     H93269   6.235   0.480   9.576  0.7229  0.7296 -0.2979
  691MOL0     H93270   6.425   0.527   9.481 -3.0221 -1.4189  3.4732
  691MOL0     H93271   7.604   1.165   7.856  1.5981  1.0584 -1.4947
  691MOL0     H93272   7.715   1.358   7.767 -0.3116 -0.3176 -0.1235
  691MOL0     H93273   7.731   1.833   7.782  0.2586 -0.0053  0.9866
  691MOL0     H93274   7.874   2.051   7.744  1.8745  1.2518  0.9803
  691MOL0     H93275   8.019   2.205   7.721 -1.4455 -2.1010  1.9686
  691MOL0     H93276   7.999   2.249   7.879  1.5509  2.2380 -0.6280
  691MOL0     H93277   8.182   2.391   7.774 -1.1161 -0.8475 -0.7439
  691MOL0     H93278   8.259   2.241   7.736 -0.4094  0.9187 -1.8495
  691MOL0     H93279   8.306   2.209   7.985  0.4350 -1.2260 -0.6098
  691MOL0     H93280   8.209   2.368   8.014 -0.7879  0.6657 -2.1167
  691MOL0     H93281   8.381   2.479   7.880  0.9681  1.6132  1.3304
  691MOL0     H93282   8.453   2.312   7.844 -1.7738 -3.3390  0.9562
  691MOL0     H93283   8.583   2.437   8.246 -0.5798 -1.6621  0.5696
  691MOL0     H93284   8.205   1.856   7.936  0.1200 -0.9286 -2.5369
  691MOL0     H93285   8.077   1.646   7.950 -1.1637  0.9911  1.5914
  692MOL0     O93286   4.194   6.205   4.204 -0.2181 -0.6942 -0.5832
  692MOL0     C93287   4.075   6.208   4.226  0.1493  0.6982 -0.1217
  692MOL0     O93288   3.985   6.136   4.153  1.2732 -0.0895 -0.2903
  692MOL0     C93289   4.025   6.008   4.111 -0.5127  0.1405 -0.8499
  692MOL0     C93290   4.117   5.928   4.185 -0.0404 -0.0333  0.4717
  692MOL0     C93291   4.151   5.803   4.144 -0.8179  0.9871 -0.8133
  692MOL0     C93292   4.095   5.750   4.015  0.0318 -0.5093 -0.3620
  692MOL0     O93293   4.118   5.626   3.971  0.1568  0.1953 -0.0933
  692MOL0     C93294   4.246   5.592   3.935 -0.2744 -0.6934  0.1768
  692MOL0     C93295   4.264   5.433   3.925 -0.2028  0.5559  0.0773
  692MOL0     C93296   4.401   5.365   3.885  0.0693  0.0276  0.1800
  692MOL0     C93297   4.491   5.450   3.800  0.0680 -1.2413  0.5945
  692MOL0     C93298   4.623   5.384   3.778 -0.2409  0.8416 -0.0928
  692MOL0     C93299   4.698   5.460   3.664  1.1754 -0.4982  0.9768
  692MOL0     C93300   4.812   5.378   3.606 -1.2267  1.4862 -0.3853
  692MOL0     C93301   4.771   5.281   3.492  0.8328  0.0048  0.2296
  692MOL0     N93302   4.886   5.236   3.413 -0.7952 -0.3764 -0.6309
  692MOL0     C93303   4.967   5.299   3.317 -0.3366 -0.7631  0.8094
  692MOL0     C93304   5.016   5.197   3.249  0.5019 -1.0509 -0.0151
  692MOL0     C93305   5.100   5.205   3.130 -0.4952 -0.5644  0.1908
  692MOL0     C93306   5.037   5.292   3.014  0.3891 -0.6679  0.1016
  692MOL0     C93307   5.130   5.319   2.893 -0.2188 -0.7139 -1.1333
  692MOL0     C93308   5.271   5.374   2.919 -0.3155  0.0417  0.7271
  692MOL0     O93309   5.265   5.487   3.005  0.2168 -0.6285 -0.4829
  692MOL0     C93310   5.387   5.543   3.042  0.1339  0.5361  0.8278
  692MOL0     C93311   5.386   5.653   3.121  0.4159  0.2294  0.1337
  692MOL0     C93312   5.505   5.714   3.179 -0.0003 -0.5633  0.0805
  692MOL0     C93313   5.482   5.837   3.260  0.4379 -0.3443  0.7315
  692MOL0     C93314   5.632   5.673   3.151  0.3766 -0.2215 -0.4092
  692MOL0     C93315   5.751   5.748   3.165  0.1989 -1.1849  0.4203
  692MOL0     O93316   5.808   5.745   3.282 -0.7613  0.4552  0.5256
  692MOL0     C93317   5.934   5.805   3.293  0.8500  0.5553  1.0237
  692MOL0     C93318   6.049   5.751   3.224  0.7182 -0.6401 -0.5704
  692MOL0     C93319   6.168   5.814   3.238  0.1262  0.1897 -0.3084
  692MOL0     C93320   6.187   5.924   3.316  0.5210 -0.4964 -0.7280
  692MOL0     O93321   6.314   5.961   3.314 -0.6570 -0.2825 -0.3673
  692MOL0     C93322   6.349   6.068   3.395  0.0870 -0.1361 -0.3463
  692MOL0     C93323   6.492   6.099   3.370 -0.6979 -0.7767 -0.5432
  692MOL0     C93324   6.528   6.231   3.448  0.1984 -0.1034  0.0518
  692MOL0     C93325   6.666   6.287   3.398  0.0099  0.4290  0.0252
  692MOL0     C93326   6.713   6.409   3.483 -1.1562  0.0246  0.2706
  692MOL0     C93327   6.780   6.387   3.624  0.2352  0.2055  0.1011
  692MOL0     C93328   6.840   6.518   3.677  0.6115 -0.1184 -0.7605
  692MOL0     C93329   6.917   6.519   3.813 -0.5112 -0.5148 -0.5505
  692MOL0    Cl93330   7.061   6.411   3.792 -0.4681 -0.9059  0.3476
  692MOL0     C93331   6.075   5.977   3.388 -0.4245 -0.1265 -0.6306
  692MOL0     C93332   5.946   5.917   3.378 -0.3404  0.1080  0.6027
  692MOL0     O93333   5.791   5.803   3.064  0.3414  0.5484 -1.0042
  692MOL0     C93334   5.636   5.568   3.063 -0.7408 -0.6466  0.2062
  692MOL0     C93335   5.520   5.500   3.027  0.6181 -0.7687  1.1999
  692MOL0     N93336   4.959   5.081   3.290  0.5678  0.5138  0.2930
  692MOL0     N93337   4.883   5.106   3.395 -0.5944  0.4349  0.8378
  692MOL0     C93338   4.001   5.832   3.949  0.0282  0.7231 -0.3767
  692MOL0     C93339   3.967   5.955   4.004 -0.4227  0.5509  1.5887
  692MOL0     C93340   4.016   6.313   4.313 -0.5801  0.5183 -0.7441
  692MOL0     C93341   3.878   6.327   4.341  0.2765 -0.5370 -0.1399
  692MOL0     C93342   3.823   6.427   4.414  0.1431  0.9982  1.0672
  692MOL0     C93343   3.908   6.538   4.447 -0.3025 -0.4616  0.5052
  692MOL0     O93344   3.842   6.627   4.534 -0.3475  0.2531 -0.3456
  692MOL0     C93345   3.921   6.727   4.605 -0.1849  0.3697  0.3052
  692MOL0     C93346   3.835   6.774   4.724 -0.0805  0.5902  0.4723
  692MOL0     C93347   3.707   6.836   4.672 -0.2572 -0.5260  0.3842
  692MOL0     C93348   3.629   6.884   4.794  0.0600 -0.3158 -0.7504
  692MOL0     C93349   3.535   6.783   4.842 -0.1489 -0.0949 -0.0138
  692MOL0     C93350   3.443   6.709   4.852  1.0366  0.5117 -0.1547
  692MOL0     C93351   4.044   6.522   4.438  0.6496 -0.8605  0.4297
  692MOL0     C93352   4.105   6.417   4.364 -0.6679 -0.6191 -0.3737
  692MOL0     H93353   4.169   5.975   4.268  1.7529  0.6790 -1.0066
  692MOL0     H93354   4.237   5.754   4.190  1.4968  2.7701 -2.9588
  692MOL0     H93355   4.253   5.639   3.836 -1.9242 -0.2708  0.2448
  692MOL0     H93356   4.327   5.620   4.003  0.6316  0.5446 -1.3445
  692MOL0     H93357   4.228   5.394   4.021  1.1072  1.1739  0.8574
  692MOL0     H93358   4.190   5.397   3.854  0.5709 -0.4217 -0.2623
  692MOL0     H93359   4.449   5.324   3.974  0.7612  1.5437  0.5369
  692MOL0     H93360   4.383   5.282   3.816  2.7350  0.6401 -1.3928
  692MOL0     H93361   4.438   5.459   3.704  0.8849 -0.8845  0.1687
  692MOL0     H93362   4.501   5.550   3.844  1.1674 -0.8043 -0.5752
  692MOL0     H93363   4.675   5.367   3.873  0.9058 -2.0156 -1.1284
  692MOL0     H93364   4.593   5.287   3.737 -1.2256  1.3272 -0.5811
  692MOL0     H93365   4.636   5.476   3.576  1.4167  0.7197  1.0045
  692MOL0     H93366   4.737   5.558   3.694  0.5345  0.7709 -1.9705
  692MOL0     H93367   4.884   5.453   3.572  1.2724  0.1899  1.7535
  692MOL0     H93368   4.852   5.316   3.686 -2.8476 -0.4671 -0.9802
  692MOL0     H93369   4.695   5.334   3.434  0.5184 -0.9959 -0.2926
  692MOL0     H93370   4.710   5.198   3.529  0.5273  0.0511 -0.1677
  692MOL0     H93371   4.983   5.404   3.296 -2.5656  0.3514  3.9107
  692MOL0     H93372   5.192   5.250   3.168  0.0255 -1.0764 -0.4506
  692MOL0     H93373   5.120   5.104   3.094  0.2835  0.2329 -1.7184
  692MOL0     H93374   5.035   5.394   3.053  0.8019  0.6589 -3.0317
  692MOL0     H93375   4.943   5.258   2.969  0.3900 -1.8062  0.9346
  692MOL0     H93376   5.083   5.391   2.825  0.2450  0.5427 -0.1403
  692MOL0     H93377   5.147   5.228   2.834  1.3957 -0.0763 -1.7048
  692MOL0     H93378   5.321   5.399   2.825 -1.5858  0.6898  0.1982
  692MOL0     H93379   5.342   5.307   2.968  2.2472 -0.2156 -2.9612
  692MOL0     H93380   5.293   5.704   3.142  0.5629 -0.0101  1.4474
  692MOL0     H93381   5.574   5.893   3.281  2.5887 -2.5210 -2.0486
  692MOL0     H93382   5.409   5.901   3.209  0.4228 -0.1962  0.9393
  692MOL0     H93383   5.444   5.811   3.359  0.9718 -2.8660  0.3332
  692MOL0     H93384   6.026   5.659   3.171  0.7678 -0.1093 -1.5406
  692MOL0     H93385   6.259   5.772   3.195  0.7352 -0.5098  1.5543
  692MOL0     H93386   6.282   6.152   3.378 -2.5474 -1.8648  0.8414
  692MOL0     H93387   6.341   6.028   3.497 -1.4605 -4.6278 -1.9965
  692MOL0     H93388   6.548   6.014   3.407 -0.8734  0.1162  1.9674
  692MOL0     H93389   6.519   6.120   3.266  4.1184  0.5814  0.7040
  692MOL0     H93390   6.537   6.213   3.555  2.2440 -1.9044 -0.3647
  692MOL0     H93391   6.449   6.304   3.424  2.1853  3.4463  3.2669
  692MOL0     H93392   6.755   6.223   3.393  0.1588  0.7479 -2.4279
  692MOL0     H93393   6.642   6.327   3.300 -1.4294  2.2799  1.0794
  692MOL0     H93394   6.628   6.476   3.497 -0.3428  1.8888 -2.7430
  692MOL0     H93395   6.778   6.475   3.426  1.6022  0.5205  3.6537
  692MOL0     H93396   6.708   6.340   3.691  2.0320 -0.0685  1.9591
  692MOL0     H93397   6.864   6.316   3.624  1.8592  2.0258 -0.5406
  692MOL0     H93398   6.760   6.590   3.695 -0.0917 -1.2974  1.1869
  692MOL0     H93399   6.903   6.556   3.596  2.2992  0.5416  0.7733
  692MOL0     H93400   6.854   6.490   3.898 -0.7542 -2.3492 -1.2976
  692MOL0     H93401   6.946   6.619   3.845  0.4591 -1.8222  3.1573
  692MOL0     H93402   6.094   6.068   3.445  2.6172 -1.8586  1.4092
  692MOL0     H93403   5.868   5.966   3.436 -1.8315 -1.4607  0.0184
  692MOL0     H93404   5.733   5.524   3.040  0.7515  2.5194 -0.0259
  692MOL0     H93405   5.554   5.421   2.961  3.8848 -0.0628  1.8912
  692MOL0     H93406   3.956   5.782   3.863  0.4642  3.1627 -2.1373
  692MOL0     H93407   3.886   6.003   3.950  0.8913  0.5023 -0.5269
  692MOL0     H93408   3.815   6.250   4.297 -1.1158  1.6597 -2.2893
  692MOL0     H93409   3.716   6.414   4.427  0.3181 -2.8587  0.0492
  692MOL0     H93410   4.006   6.675   4.651 -1.2705 -0.8826  0.9530
  692MOL0     H93411   3.948   6.812   4.541  0.2128 -0.9619 -1.3619
  692MOL0     H93412   3.900   6.833   4.789  1.1271  1.4995 -1.4608
  692MOL0     H93413   3.823   6.687   4.790  1.4713  0.7339  0.9837
  692MOL0     H93414   3.653   6.757   4.619  0.8897 -1.5143  0.6606
  692MOL0     H93415   3.714   6.922   4.605 -3.8287 -0.1324  0.2886
  692MOL0     H93416   3.565   6.967   4.762  2.1156  0.2502 -3.7853
  692MOL0     H93417   3.695   6.920   4.873 -0.7005  0.3244 -0.3899
  692MOL0     H93418   3.363   6.638   4.842  3.3261 -2.3406  0.4442
  692MOL0     H93419   4.118   6.588   4.483 -0.4980  4.0083 -3.7954
  692MOL0     H93420   4.212   6.398   4.350 -0.9833 -1.4517 -1.9127
  693MOL0     O93421   2.405   9.739   1.314  0.5621 -0.8114  0.2195
  693MOL0     C93422   2.468   9.651   1.248  0.1669 -0.5684 -0.7364
  693MOL0     O93423   2.409   9.564   1.159  0.6536 -0.8568 -0.4457
  693MOL0     C93424   2.270   9.560   1.148 -0.2890  0.1747  0.3825
  693MOL0     C93425   2.213   9.440   1.186  0.2686  0.0243  0.3329
  693MOL0     C93426   2.076   9.429   1.178 -0.8360  0.2696  0.1317
  693MOL0     C93427   1.984   9.531   1.161  0.5815 -0.6064 -0.6786
  693MOL0     O93428   1.851   9.505   1.164 -0.2674 -0.3434  0.4613
  693MOL0     C93429   1.756   9.595   1.120  0.5511 -0.4576  0.5323
  693MOL0     C93430   1.738   9.603   0.970  0.4346  0.9784 -0.3792
  693MOL0     C93431   1.666   9.479   0.914  0.9101  0.3336  0.6345
  693MOL0     C93432   1.655   9.492   0.770  0.5021 -0.3162  0.7772
  693MOL0     C93433   1.600   9.369   0.700  1.1164  0.0098  0.6067
  693MOL0     C93434   1.473   9.406   0.634  0.2465 -0.6447  0.1764
  693MOL0     C93435   1.417   9.274   0.583 -0.7169  0.4839  1.4510
  693MOL0     C93436   1.478   9.190   0.475 -0.4727 -0.9404 -0.3173
  693MOL0     N93437   1.489   9.265   0.350  0.5408  0.2322 -0.0025
  693MOL0     C93438   1.390   9.323   0.281  0.3406  0.0310  0.2525
  693MOL0     C93439   1.444   9.380   0.176  0.4325  0.0401  0.6386
  693MOL0     C93440   1.377   9.436   0.052  0.2986 -0.2575 -0.2789
  693MOL0     C93441   1.354   9.594   0.051  0.4669  0.8790  0.0313
  693MOL0     C93442   1.477   9.671   0.099 -0.2667  0.4089  0.2743
  693MOL0     C93443   1.459   9.821   0.089 -0.8048 -0.4558  0.1050
  693MOL0     O93444   1.376   9.876   0.188  0.7325 -0.5698  0.4872
  693MOL0     C93445   1.348  10.009   0.195 -0.3203  0.2048  0.1695
  693MOL0     C93446   1.232  10.049   0.255  0.6610 -0.0265  0.8380
  693MOL0     C93447   1.186  10.186   0.239 -0.4324  0.5409 -0.6452
  693MOL0     C93448   1.063  10.222   0.320  0.8691 -0.4659 -0.4420
  693MOL0     C93449   1.270  10.287   0.179 -0.0519  0.4814  0.4460
  693MOL0     C93450   1.246  10.436   0.177 -0.2104 -0.6467  0.6899
  693MOL0     O93451   1.163  10.497   0.265  0.4043  0.8236  0.1324
  693MOL0     C93452   1.162  10.631   0.262  0.2162  0.7797  0.8786
  693MOL0     C93453   1.236  10.696   0.354  0.1764  0.4251  0.3722
  693MOL0     C93454   1.247  10.838   0.369 -0.6737 -0.4073 -0.6049
  693MOL0     C93455   1.166  10.915   0.278 -0.2709  0.2254 -0.1484
  693MOL0     O93456   1.161  11.048   0.267  0.1345  0.3749  0.3804
  693MOL0     C93457   1.211  11.130   0.370  0.5000  0.0888  1.0116
  693MOL0     C93458   1.186  11.280   0.335  0.0197 -0.1114  0.2364
  693MOL0     C93459   1.193  11.318   0.181 -0.9746  0.2583  0.3386
  693MOL0     C93460   1.198  11.469   0.152 -0.4804  0.1476 -1.1735
  693MOL0     C93461   1.178  11.525   0.008 -0.4054  1.4410  0.4015
  693MOL0     C93462   1.301  11.517  -0.078 -0.9879  0.4897 -0.0751
  693MOL0     C93463   1.272  11.538  -0.225  0.2647  0.3185  0.5272
  693MOL0     C93464   1.248  11.682  -0.268 -0.0373 -0.2317  0.1321
  693MOL0    Cl93465   1.207  11.709  -0.435 -0.0570  0.2487  0.2271
  693MOL0     C93466   1.086  10.849   0.189 -0.7841  0.1202 -0.7860
  693MOL0     C93467   1.087  10.708   0.169  0.4469  0.0459  0.1382
  693MOL0     O93468   1.308  10.502   0.088  0.0904 -0.0833  0.8955
  693MOL0     C93469   1.388  10.235   0.127 -0.3377 -0.0505  0.5590
  693MOL0     C93470   1.426  10.108   0.135 -0.8950 -0.9152 -0.1967
  693MOL0     N93471   1.576   9.368   0.181 -0.2474  0.0154 -0.6765
  693MOL0     N93472   1.604   9.309   0.295 -0.3425 -0.2180  0.3716
  693MOL0     C93473   2.044   9.652   1.139  0.4420  0.0560  0.2373
  693MOL0     C93474   2.183   9.670   1.127 -0.3262 -0.5662  0.2371
  693MOL0     C93475   2.611   9.655   1.265  0.3035 -1.0440  0.7064
  693MOL0     C93476   2.677   9.783   1.259 -0.0107 -1.1438 -0.1812
  693MOL0     C93477   2.815   9.793   1.237  0.7366 -0.5731  0.0041
  693MOL0     C93478   2.884   9.679   1.211 -0.4647  0.0535  0.0741
  693MOL0     O93479   3.007   9.670   1.175  0.0563  0.8456 -0.2031
  693MOL0     C93480   3.095   9.780   1.147  1.2658 -0.9036  0.6689
  693MOL0     C93481   3.070   9.861   1.020  0.1758 -0.0119  0.4839
  693MOL0     C93482   3.163   9.977   0.989 -0.2268 -0.3233 -0.3635
  693MOL0     C93483   3.314   9.943   1.012  0.1745 -1.0365  0.2515
  693MOL0     C93484   3.389  10.044   0.929 -0.4306  0.2477  0.0776
  693MOL0     C93485   3.460  10.115   0.858  0.4773  0.3061  0.7183
  693MOL0     C93486   2.822   9.555   1.227 -1.7609 -0.5214 -0.2176
  693MOL0     C93487   2.691   9.544   1.250  0.0528 -0.8509  0.0919
  693MOL0     H93488   2.274   9.351   1.198  2.3347  1.5904  2.3364
  693MOL0     H93489   2.025   9.338   1.209 -0.2252  0.2202  1.0475
  693MOL0     H93490   1.666   9.552   1.164  0.6608 -1.3118 -0.0683
  693MOL0     H93491   1.761   9.693   1.169  0.2051 -0.8393  1.3481
  693MOL0     H93492   1.680   9.693   0.947 -0.8555  0.4592  0.6496
  693MOL0     H93493   1.835   9.622   0.923  0.8918  1.9584  0.8881
  693MOL0     H93494   1.720   9.386   0.930 -2.5745 -1.9235  0.3871
  693MOL0     H93495   1.571   9.475   0.968  1.1773  0.3607  1.1195
  693MOL0     H93496   1.579   9.571   0.759 -1.7969 -2.0849  2.8438
  693MOL0     H93497   1.752   9.509   0.724 -0.0609  2.0795  0.3557
  693MOL0     H93498   1.673   9.340   0.625  0.7432 -1.4882  0.8034
  693MOL0     H93499   1.578   9.289   0.771 -3.0189 -0.7691 -1.2756
  693MOL0     H93500   1.412   9.444   0.717  2.0099 -0.0984  1.2932
  693MOL0     H93501   1.483   9.486   0.560  2.1402 -1.7017 -0.7820
  693MOL0     H93502   1.429   9.201   0.664 -1.0330 -3.0424 -1.4351
  693MOL0     H93503   1.311   9.287   0.558 -1.7742 -4.8786  1.9947
  693MOL0     H93504   1.420   9.099   0.457  0.9868 -2.0306  0.2748
  693MOL0     H93505   1.576   9.152   0.508  0.3311  1.0392 -0.2559
  693MOL0     H93506   1.284   9.332   0.305  0.3021  2.7975 -0.6762
  693MOL0     H93507   1.432   9.403  -0.037 -1.8542 -0.6795 -1.5527
  693MOL0     H93508   1.284   9.379   0.041  1.4039 -1.9511 -1.5030
  693MOL0     H93509   1.272   9.619   0.120  1.9392  1.0515  1.7918
  693MOL0     H93510   1.324   9.638  -0.045 -2.8846  3.2777  1.9579
  693MOL0     H93511   1.555   9.643   0.028  1.6431 -1.0924  2.8101
  693MOL0     H93512   1.497   9.639   0.201 -0.3694 -2.9229 -0.6167
  693MOL0     H93513   1.415   9.852  -0.006  0.9994  1.2887 -0.2262
  693MOL0     H93514   1.560   9.859   0.107 -1.6003  1.9677 -0.1665
  693MOL0     H93515   1.165   9.976   0.299 -1.4555  2.0456  1.2549
  693MOL0     H93516   1.002  10.295   0.267  1.2489  0.3145  0.1754
  693MOL0     H93517   1.013  10.133   0.358 -1.0374  0.1033 -1.5115
  693MOL0     H93518   1.099  10.273   0.410 -3.2327 -0.8588  1.6563
  693MOL0     H93519   1.285  10.639   0.433  2.9380  3.6787  1.2448
  693MOL0     H93520   1.326  10.878   0.431 -1.1707  1.5387 -1.1671
  693MOL0     H93521   1.155  11.088   0.454 -0.3768 -2.8885 -0.8655
  693MOL0     H93522   1.316  11.119   0.399  0.5674 -2.6727  0.0791
  693MOL0     H93523   1.084  11.303   0.366  0.7860  1.0990  2.0441
  693MOL0     H93524   1.256  11.336   0.398 -1.5339  2.3534 -0.1198
  693MOL0     H93525   1.105  11.284   0.127  1.4978  0.6703 -4.5152
  693MOL0     H93526   1.279  11.269   0.133 -1.0642 -0.0889  0.5297
  693MOL0     H93527   1.125  11.520   0.216 -0.6148  1.0765 -2.0539
  693MOL0     H93528   1.289  11.509   0.197 -2.3882  1.7053  1.6475
  693MOL0     H93529   1.149  11.629   0.025 -0.1685  1.0401  4.0914
  693MOL0     H93530   1.097  11.467  -0.038 -1.4333  1.2885  2.2854
  693MOL0     H93531   1.380  11.582  -0.040  1.7217 -2.3263 -0.4933
  693MOL0     H93532   1.335  11.413  -0.074 -2.5562 -0.0937 -0.9428
  693MOL0     H93533   1.194  11.469  -0.258  0.2721 -0.1484  1.4495
  693MOL0     H93534   1.356  11.510  -0.290 -3.8639 -3.2404 -3.9526
  693MOL0     H93535   1.339  11.739  -0.246  2.1391 -3.5465  0.4876
  693MOL0     H93536   1.165  11.715  -0.205  0.0172 -1.2234  0.7403
  693MOL0     H93537   1.011  10.906   0.136 -2.6059 -0.0497  1.4814
  693MOL0     H93538   1.018  10.664   0.097 -0.9427  3.6269 -0.9574
  693MOL0     H93539   1.473  10.293   0.091 -1.8037  2.1314  0.4381
  693MOL0     H93540   1.524  10.082   0.096  0.3775  0.1082  2.1655
  693MOL0     H93541   1.978   9.735   1.118  0.1828  0.0257  0.8922
  693MOL0     H93542   2.232   9.757   1.084  1.5470 -1.4862  0.4019
  693MOL0     H93543   2.616   9.871   1.269 -0.2800 -1.4385  0.9210
  693MOL0     H93544   2.865   9.889   1.249  1.3018 -1.0834  2.0210
  693MOL0     H93545   3.087   9.839   1.239 -2.6060  0.4130 -0.3387
  693MOL0     H93546   3.196   9.737   1.140  1.3244 -1.3567  3.3351
  693MOL0     H93547   2.967   9.897   1.027  0.3702  1.0569 -1.4927
  693MOL0     H93548   3.077   9.802   0.929 -1.6112 -0.2930  0.4967
  693MOL0     H93549   3.137  10.070   1.040  0.3084  1.2015 -2.6891
  693MOL0     H93550   3.148   9.994   0.882 -0.7399  2.7902  0.1024
  693MOL0     H93551   3.327   9.837   0.990 -1.1562 -1.8297  2.9333
  693MOL0     H93552   3.341   9.968   1.115 -1.2832 -0.7882  0.5977
  693MOL0     H93553   3.524  10.174   0.796 -1.7874  0.7062 -1.3800
  693MOL0     H93554   2.888   9.472   1.204 -0.4461  0.2661  0.5447
  693MOL0     H93555   2.660   9.441   1.256  1.0847 -1.2078 -0.3304
  694MOL0     O93556   4.998   7.797   2.686 -0.8921  0.7128 -0.2472
  694MOL0     C93557   4.990   7.690   2.622  0.4227 -0.9131 -0.1320
  694MOL0     O93558   5.071   7.642   2.531  0.1837 -0.6240  0.0269
  694MOL0     C93559   5.173   7.723   2.488 -0.1727 -1.0917 -0.0025
  694MOL0     C93560   5.151   7.843   2.419  0.0127  0.7099 -0.6898
  694MOL0     C93561   5.252   7.938   2.400 -0.0515  0.6815  0.3023
  694MOL0     C93562   5.385   7.902   2.431  0.2438 -0.6391 -0.2097
  694MOL0     O93563   5.473   8.010   2.400  0.0448 -0.3342 -0.4660
  694MOL0     C93564   5.599   7.972   2.356 -0.0288  0.3810 -0.5221
  694MOL0     C93565   5.601   7.903   2.220  0.1675 -0.3858  0.5288
  694MOL0     C93566   5.738   7.901   2.164  0.0047  0.5199 -0.2696
  694MOL0     C93567   5.727   7.862   2.019  0.3225 -1.6905 -1.3194
  694MOL0     C93568   5.860   7.829   1.959  0.4536 -0.4435 -0.1367
  694MOL0     C93569   5.855   7.795   1.806 -0.4708 -0.0814 -0.0971
  694MOL0     C93570   5.993   7.759   1.759 -0.1819 -0.4942  0.2039
  694MOL0     C93571   6.004   7.741   1.604 -0.4170 -0.5825  0.0740
  694MOL0     N93572   5.893   7.660   1.560 -0.3726 -0.2729 -0.5420
  694MOL0     C93573   5.891   7.525   1.556  0.6748  1.0757 -0.0782
  694MOL0     C93574   5.767   7.494   1.492  0.2272  0.6459 -0.5825
  694MOL0     C93575   5.733   7.350   1.472  0.6104 -0.5667  0.9943
  694MOL0     C93576   5.598   7.336   1.394  0.1842 -0.6349 -0.2422
  694MOL0     C93577   5.577   7.197   1.327 -0.3848 -0.6002  0.7655
  694MOL0     C93578   5.477   7.185   1.207  0.4511  0.6303  0.6338
  694MOL0     O93579   5.363   7.263   1.223  0.0767  0.5248  0.5150
  694MOL0     C93580   5.262   7.210   1.283 -0.1190  0.0115 -0.0791
  694MOL0     C93581   5.157   7.303   1.302  1.5361  0.2798  0.1468
  694MOL0     C93582   5.028   7.264   1.346  0.3922 -0.6817 -0.3083
  694MOL0     C93583   4.932   7.379   1.349  0.8442  0.2699  0.0569
  694MOL0     C93584   5.001   7.136   1.402  0.3695  0.4656 -0.4386
  694MOL0     C93585   4.881   7.096   1.473  0.3388 -0.3067 -0.6123
  694MOL0     O93586   4.886   7.020   1.591 -0.1025 -0.4736  0.4186
  694MOL0     C93587   4.758   6.984   1.638 -0.2148  0.4516  0.2085
  694MOL0     C93588   4.694   6.863   1.599  0.2329 -0.1107  1.1690
  694MOL0     C93589   4.566   6.835   1.630  0.5562  0.1332  0.6228
  694MOL0     C93590   4.485   6.917   1.710 -0.5716 -0.2253 -0.1940
  694MOL0     O93591   4.353   6.892   1.732 -0.0022 -0.0502  0.2508
  694MOL0     C93592   4.312   6.907   1.867  0.5339  0.2501 -0.2909
  694MOL0     C93593   4.181   6.833   1.905  0.7528  0.7000  0.0948
  694MOL0     C93594   4.073   6.867   1.798 -1.5811  0.3477 -0.9508
  694MOL0     C93595   3.942   6.806   1.830 -0.8201  1.1709  1.1406
  694MOL0     C93596   3.946   6.654   1.786  0.0728 -0.1727 -0.9855
  694MOL0     C93597   3.825   6.576   1.852  0.3887 -0.2047 -0.6357
  694MOL0     C93598   3.810   6.424   1.812  0.2096  0.4484  1.3231
  694MOL0     C93599   3.679   6.366   1.879  0.7962 -0.7664  0.4703
  694MOL0    Cl93600   3.541   6.462   1.808 -0.1845  0.0742 -0.2522
  694MOL0     C93601   4.552   7.034   1.766 -0.6933 -0.2299  0.1614
  694MOL0     C93602   4.683   7.066   1.723  0.4229  0.3450  0.0540
  694MOL0     O93603   4.777   7.145   1.433 -0.2666  0.0364  0.7095
  694MOL0     C93604   5.117   7.047   1.392 -0.1432 -0.0722 -0.4807
  694MOL0     C93605   5.238   7.070   1.331 -0.7489 -0.2523  0.2966
  694MOL0     N93606   5.700   7.612   1.472 -0.5663 -0.3019 -0.2053
  694MOL0     N93607   5.777   7.712   1.501 -0.9327 -0.2811 -0.0286
  694MOL0     C93608   5.415   7.780   2.489  0.2396 -0.0952  0.4906
  694MOL0     C93609   5.311   7.692   2.521  0.3349  0.1658  1.1679
  694MOL0     C93610   4.857   7.628   2.644 -0.3458 -0.4492 -1.2201
  694MOL0     C93611   4.793   7.548   2.542  0.0116 -0.6307  0.6056
  694MOL0     C93612   4.671   7.490   2.566  0.1534 -0.2379 -0.7879
  694MOL0     C93613   4.614   7.493   2.693  0.1656  1.5474  0.0108
  694MOL0     O93614   4.499   7.425   2.711  0.4108 -0.3672 -1.1969
  694MOL0     C93615   4.407   7.480   2.810 -0.1020  0.1932  0.4258
  694MOL0     C93616   4.264   7.440   2.791  1.3056 -0.7273  0.1037
  694MOL0     C93617   4.206   7.491   2.662  0.2316 -0.2233 -0.1406
  694MOL0     C93618   4.078   7.413   2.612  0.4161  0.1171 -0.5860
  694MOL0     C93619   4.040   7.466   2.481 -0.2211 -0.0695  0.4452
  694MOL0     C93620   4.011   7.500   2.366 -0.6135  0.1383 -0.2185
  694MOL0     C93621   4.675   7.575   2.796 -0.6513 -0.6282  0.0866
  694MOL0     C93622   4.785   7.648   2.768  0.6517  0.5287 -0.8438
  694MOL0     H93623   5.050   7.872   2.389 -0.2893  0.7650  0.3352
  694MOL0     H93624   5.220   8.029   2.351 -2.4920 -0.6173 -0.6337
  694MOL0     H93625   5.649   8.069   2.346  3.6515 -0.9151  2.8088
  694MOL0     H93626   5.644   7.911   2.434 -2.6296 -1.3834 -0.2618
  694MOL0     H93627   5.573   7.798   2.230  0.7512 -0.4308  1.9358
  694MOL0     H93628   5.525   7.946   2.154 -1.7883 -3.1232  0.8363
  694MOL0     H93629   5.779   8.002   2.171 -1.4632  1.0152  2.3046
  694MOL0     H93630   5.799   7.831   2.222  1.0023  0.3465 -1.4758
  694MOL0     H93631   5.666   7.772   2.007 -0.5961 -1.7074  2.2967
  694MOL0     H93632   5.684   7.943   1.959  1.3775  2.1306  2.6478
  694MOL0     H93633   5.932   7.912   1.960  0.6054 -0.3836 -3.5122
  694MOL0     H93634   5.910   7.744   2.007  3.9072  1.5628  0.1736
  694MOL0     H93635   5.798   7.703   1.793 -0.9513 -0.4208  3.3483
  694MOL0     H93636   5.821   7.887   1.758 -3.1436  1.6804  4.5443
  694MOL0     H93637   6.059   7.840   1.792  0.1615 -1.3515  1.6898
  694MOL0     H93638   6.037   7.670   1.805  0.3349 -0.3146  0.0724
  694MOL0     H93639   6.102   7.706   1.571  0.6386  4.8201 -3.8833
  694MOL0     H93640   5.997   7.844   1.567  1.0466  0.4335  2.3348
  694MOL0     H93641   5.964   7.450   1.584 -0.5959  0.0329  0.5464
  694MOL0     H93642   5.815   7.302   1.419  0.1845 -1.1329  0.8297
  694MOL0     H93643   5.715   7.322   1.576  0.5053  4.2922  2.5528
  694MOL0     H93644   5.594   7.412   1.316  1.6303  0.3331  0.5783
  694MOL0     H93645   5.505   7.354   1.450 -0.8207  0.2503 -2.1154
  694MOL0     H93646   5.550   7.122   1.401 -1.2704 -1.2286 -0.1541
  694MOL0     H93647   5.673   7.160   1.292 -0.2264  0.4922 -0.0092
  694MOL0     H93648   5.451   7.081   1.187 -1.0425  0.9517  0.8138
  694MOL0     H93649   5.528   7.215   1.114  1.0655  1.9775  1.3677
  694MOL0     H93650   5.155   7.400   1.253  0.6436  1.4823  2.4232
  694MOL0     H93651   4.870   7.380   1.259  2.9011  1.4270 -1.4303
  694MOL0     H93652   4.862   7.369   1.432 -0.4566  0.5702 -0.9708
  694MOL0     H93653   4.984   7.474   1.362  0.3244  0.4903  0.5754
  694MOL0     H93654   4.744   6.814   1.516  1.1051  3.8008 -0.8736
  694MOL0     H93655   4.510   6.751   1.590  1.6289  1.5893 -4.7368
  694MOL0     H93656   4.388   6.874   1.939  1.4861  0.4294 -1.1930
  694MOL0     H93657   4.299   7.014   1.885  0.9611  0.5480 -1.6164
  694MOL0     H93658   4.197   6.725   1.905 -0.0760  0.5571 -1.2247
  694MOL0     H93659   4.146   6.857   2.006 -0.9885  0.1348 -0.3315
  694MOL0     H93660   4.113   6.830   1.703  1.2649 -0.7407  0.5519
  694MOL0     H93661   4.055   6.975   1.799  0.8520  0.8335 -2.0683
  694MOL0     H93662   3.908   6.816   1.934 -2.6414  1.6193  0.5455
  694MOL0     H93663   3.862   6.854   1.773 -1.0861 -1.2488 -0.7040
  694MOL0     H93664   4.040   6.609   1.821  0.0434  0.2910 -0.2945
  694MOL0     H93665   3.942   6.633   1.679 -1.0769  0.0320 -0.9966
  694MOL0     H93666   3.843   6.581   1.959  0.6542  0.5432 -0.7114
  694MOL0     H93667   3.733   6.625   1.819  0.0985 -2.7549 -4.2967
  694MOL0     H93668   3.901   6.374   1.848  0.1096 -0.8820 -0.1744
  694MOL0     H93669   3.814   6.427   1.703  0.8620  1.2011  1.3527
  694MOL0     H93670   3.684   6.371   1.988  1.0271 -1.6702  0.5121
  694MOL0     H93671   3.671   6.262   1.843 -1.0000 -1.0051  1.4275
  694MOL0     H93672   4.522   7.107   1.840  0.0090 -0.5387  0.7587
  694MOL0     H93673   4.730   7.161   1.749  2.7702 -0.3944 -1.2057
  694MOL0     H93674   5.085   6.950   1.430  0.3200  0.7482  2.1849
  694MOL0     H93675   5.320   6.999   1.329 -1.4391 -1.0955  1.2956
  694MOL0     H93676   5.519   7.750   2.496  0.7795  1.6845  0.4758
  694MOL0     H93677   5.326   7.595   2.567 -0.2350 -0.8950 -0.7591
  694MOL0     H93678   4.845   7.534   2.448  0.1455 -2.4059  0.9121
  694MOL0     H93679   4.621   7.424   2.495  0.5961 -1.9037  0.3808
  694MOL0     H93680   4.436   7.430   2.903  1.1490  0.5701  0.2595
  694MOL0     H93681   4.419   7.589   2.813  1.6059  0.3440 -4.1211
  694MOL0     H93682   4.188   7.481   2.859  0.3952  1.3771 -2.0209
  694MOL0     H93683   4.252   7.332   2.803 -1.7491 -0.3340  1.5703
  694MOL0     H93684   4.278   7.490   2.579  0.3749 -0.3907 -0.0144
  694MOL0     H93685   4.168   7.592   2.679  1.1125 -0.0000  0.5211
  694MOL0     H93686   3.996   7.429   2.683  0.0115  2.8863 -1.5379
  694MOL0     H93687   4.104   7.307   2.599 -3.4603 -1.2147  1.0583
  694MOL0     H93688   3.977   7.510   2.265  1.2690  0.3093 -0.8781
  694MOL0     H93689   4.636   7.580   2.897 -1.0819 -0.6018 -0.0787
  694MOL0     H93690   4.828   7.718   2.839  0.8471 -1.2678  0.8997
  695MOL0     O93691   3.038   2.312   0.286  0.4778  0.1787  0.6598
  695MOL0     C93692   3.034   2.420   0.227 -1.6204 -0.2418 -0.2021
  695MOL0     O93693   2.944   2.512   0.249 -0.2119  0.1224 -0.1016
  695MOL0     C93694   2.845   2.507   0.346 -0.1771 -0.2542  0.2763
  695MOL0     C93695   2.858   2.437   0.474 -0.7085 -0.7249 -0.7408
  695MOL0     C93696   2.760   2.446   0.581 -0.5758 -1.0238  0.0283
  695MOL0     C93697   2.650   2.526   0.552  0.2432  0.4610  0.6636
  695MOL0     O93698   2.549   2.542   0.641  0.6525  0.1275  0.1482
  695MOL0     C93699   2.436   2.460   0.629 -0.2962 -0.3253 -0.3413
  695MOL0     C93700   2.320   2.517   0.716 -0.7943 -0.0138 -0.4135
  695MOL0     C93701   2.200   2.433   0.724 -0.3966 -0.1308 -0.2294
  695MOL0     C93702   2.132   2.406   0.589 -0.2701 -0.8719 -0.0947
  695MOL0     C93703   1.995   2.338   0.602 -0.2181  0.4089 -1.0773
  695MOL0     C93704   1.901   2.421   0.693  0.6085  0.2656 -0.1142
  695MOL0     C93705   1.756   2.394   0.646  0.1872 -0.0542  0.6425
  695MOL0     C93706   1.707   2.247   0.645 -0.6175  0.4951  0.5964
  695MOL0     N93707   1.581   2.223   0.716  0.5646 -0.0412 -0.6035
  695MOL0     C93708   1.565   2.250   0.853  0.1439  0.5644 -0.1386
  695MOL0     C93709   1.441   2.206   0.881 -0.3128  0.0886  0.0344
  695MOL0     C93710   1.375   2.186   1.013  0.5003 -0.4406  0.6161
  695MOL0     C93711   1.233   2.249   1.034 -0.4634 -0.8122 -0.2832
  695MOL0     C93712   1.135   2.156   1.098  0.2637  0.2049 -0.1094
  695MOL0     C93713   1.133   2.157   1.247 -0.1898  0.2616 -0.5351
  695MOL0     O93714   1.257   2.112   1.300  0.0848 -0.1261 -0.3684
  695MOL0     C93715   1.279   2.109   1.438  0.3787  1.4071 -0.5217
  695MOL0     C93716   1.414   2.074   1.479 -0.1363 -0.4104  0.0172
  695MOL0     C93717   1.456   2.084   1.612  0.2252  0.2197 -0.6607
  695MOL0     C93718   1.597   2.055   1.641 -0.6656  0.3361 -0.4190
  695MOL0     C93719   1.366   2.129   1.708  0.3620 -0.0772  0.7403
  695MOL0     C93720   1.391   2.123   1.851  0.1503  0.7030 -0.8858
  695MOL0     O93721   1.276   2.107   1.927  0.7471  0.3791  0.0128
  695MOL0     C93722   1.267   2.041   2.044  0.1063 -0.1012  0.1086
  695MOL0     C93723   1.145   2.045   2.108  1.7650  0.2636 -0.5492
  695MOL0     C93724   1.115   1.965   2.216 -0.0013  0.2246  0.0127
  695MOL0     C93725   1.224   1.884   2.282 -0.0054  0.1948  0.7303
  695MOL0     O93726   1.200   1.802   2.388  0.9608  0.3694  0.3906
  695MOL0     C93727   1.098   1.710   2.369  0.2316  0.0500 -0.9422
  695MOL0     C93728   1.075   1.618   2.495 -0.4419 -0.6954 -0.1907
  695MOL0     C93729   1.051   1.694   2.623  0.0033  1.0119 -0.4198
  695MOL0     C93730   0.916   1.774   2.638 -0.8714  0.3997  0.2301
  695MOL0     C93731   0.888   1.856   2.772 -0.7975  0.4805 -0.4267
  695MOL0     C93732   0.854   1.759   2.891 -0.3369  0.1938  0.6898
  695MOL0     C93733   0.832   1.824   3.029  0.0247  0.9688  0.2014
  695MOL0     C93734   0.951   1.867   3.109  0.0880  0.2181  1.0969
  695MOL0    Cl93735   1.053   1.733   3.160 -0.0511 -0.3661 -0.4717
  695MOL0     C93736   1.347   1.880   2.218  0.3069  1.1678 -0.5145
  695MOL0     C93737   1.366   1.954   2.095 -0.3974 -0.0673  0.2379
  695MOL0     O93738   1.506   2.123   1.898 -0.5984  0.4706 -0.4372
  695MOL0     C93739   1.240   2.178   1.664 -0.5049  0.0180  0.3815
  695MOL0     C93740   1.200   2.169   1.539  0.0201  0.0153 -0.2508
  695MOL0     N93741   1.400   2.130   0.769 -0.6721 -0.1576 -0.9146
  695MOL0     N93742   1.481   2.148   0.672  0.9333 -0.4155 -0.1514
  695MOL0     C93743   2.621   2.576   0.422 -1.3053  0.5189 -0.2960
  695MOL0     C93744   2.719   2.558   0.320  0.6567 -0.5666 -0.1771
  695MOL0     C93745   3.150   2.446   0.131 -0.1230 -0.3917 -0.4879
  695MOL0     C93746   3.166   2.574   0.074  0.0087  0.2827 -0.3178
  695MOL0     C93747   3.258   2.602  -0.025 -0.5867 -1.2397  0.6194
  695MOL0     C93748   3.349   2.497  -0.063  0.0972 -0.4205  0.6322
  695MOL0     O93749   3.442   2.540  -0.159  0.2010 -0.3201 -0.1668
  695MOL0     C93750   3.503   2.435  -0.238  0.6051 -0.9015  0.3203
  695MOL0     C93751   3.526   2.477  -0.378  0.2828 -0.0021  0.2418
  695MOL0     C93752   3.632   2.588  -0.401  0.2780  0.4489  0.3826
  695MOL0     C93753   3.652   2.641  -0.549 -0.1058 -0.1145 -0.6660
  695MOL0     C93754   3.666   2.530  -0.647 -0.4897 -0.2203 -0.0570
  695MOL0     C93755   3.666   2.446  -0.733 -0.1059 -0.2113  0.2379
  695MOL0     C93756   3.342   2.371  -0.008  0.7277 -0.3827  0.2593
  695MOL0     C93757   3.243   2.350   0.085 -0.7343  0.5897 -0.2450
  695MOL0     H93758   2.956   2.398   0.500  0.5550  3.3342  1.5531
  695MOL0     H93759   2.774   2.405   0.680  3.3063 -0.5014 -0.1753
  695MOL0     H93760   2.420   2.459   0.521  0.6162 -0.5725 -0.4805
  695MOL0     H93761   2.456   2.356   0.656  2.1210 -0.3571 -1.9771
  695MOL0     H93762   2.361   2.530   0.817  4.7089  1.3196 -2.4126
  695MOL0     H93763   2.293   2.614   0.674  0.1372  0.9483  1.0720
  695MOL0     H93764   2.225   2.331   0.756  0.6082 -0.8237 -2.9422
  695MOL0     H93765   2.128   2.468   0.799 -0.4296 -0.6223 -0.0236
  695MOL0     H93766   2.126   2.507   0.548  0.5836 -1.9592 -3.2112
  695MOL0     H93767   2.212   2.353   0.537  1.9448 -0.2496  2.4818
  695MOL0     H93768   1.948   2.312   0.507  0.6591 -2.4794 -0.8225
  695MOL0     H93769   2.017   2.243   0.651  0.2287  0.5281 -1.0456
  695MOL0     H93770   1.916   2.393   0.798  1.2606 -1.3491 -0.6062
  695MOL0     H93771   1.927   2.527   0.682 -0.1537  0.6630  1.6363
  695MOL0     H93772   1.688   2.459   0.703 -0.6114 -0.9254  0.7128
  695MOL0     H93773   1.764   2.434   0.544  0.5833 -0.4859  0.5069
  695MOL0     H93774   1.782   2.174   0.678  0.8632 -0.4180 -3.9748
  695MOL0     H93775   1.690   2.235   0.537  0.1282  0.8068  0.4419
  695MOL0     H93776   1.633   2.273   0.934  1.0825 -1.0221 -0.4456
  695MOL0     H93777   1.363   2.078   1.019  3.4817 -0.9401 -0.8253
  695MOL0     H93778   1.436   2.227   1.094  1.1752  0.1267 -0.1631
  695MOL0     H93779   1.193   2.264   0.933 -0.0639 -1.4738 -0.5465
  695MOL0     H93780   1.257   2.339   1.090  1.4654 -1.4941  0.0501
  695MOL0     H93781   1.153   2.051   1.075 -1.5131  0.2450 -2.0169
  695MOL0     H93782   1.033   2.180   1.065  0.1299  1.2648  1.0022
  695MOL0     H93783   1.050   2.094   1.280  0.8504  0.2134  2.2605
  695MOL0     H93784   1.102   2.251   1.292  0.6473  0.0874  0.4294
  695MOL0     H93785   1.490   2.056   1.403 -0.2743  1.5608 -0.6573
  695MOL0     H93786   1.596   1.962   1.699 -1.2711 -0.6190 -1.9007
  695MOL0     H93787   1.660   2.019   1.559 -1.0329 -0.3029 -0.4255
  695MOL0     H93788   1.640   2.134   1.704 -0.2369 -1.2559  1.3867
  695MOL0     H93789   1.069   2.111   2.068  0.9233 -0.3605  0.0028
  695MOL0     H93790   1.018   1.966   2.265 -0.0059  2.4436  0.0907
  695MOL0     H93791   1.006   1.767   2.352  0.7567  1.8931  1.7718
  695MOL0     H93792   1.112   1.649   2.279 -0.6868  2.7804 -3.0915
  695MOL0     H93793   0.978   1.569   2.480 -0.6783 -0.1450 -0.4804
  695MOL0     H93794   1.160   1.550   2.511  0.7507  0.1419 -2.5768
  695MOL0     H93795   1.138   1.757   2.645  0.9118 -1.0514  2.6176
  695MOL0     H93796   1.059   1.617   2.700  1.0360 -0.6198 -2.0608
  695MOL0     H93797   0.922   1.841   2.551  2.4034  0.1984  0.1712
  695MOL0     H93798   0.836   1.705   2.607 -0.6503  0.9295 -1.6680
  695MOL0     H93799   0.798   1.916   2.755  0.0279  2.4923  1.8697
  695MOL0     H93800   0.971   1.922   2.800 -1.8518  1.7789 -0.2789
  695MOL0     H93801   0.765   1.710   2.850  1.1055  2.0395 -5.7888
  695MOL0     H93802   0.926   1.678   2.903  2.5644  2.7282  1.9929
  695MOL0     H93803   0.776   1.755   3.092 -2.1112  2.8693  0.5460
  695MOL0     H93804   0.777   1.919   3.033 -0.0369  0.9756 -0.7200
  695MOL0     H93805   0.925   1.921   3.200  0.6144  1.4516  0.5547
  695MOL0     H93806   1.009   1.940   3.050 -0.2181 -2.4448 -2.9201
  695MOL0     H93807   1.424   1.812   2.255  1.8966  3.4793  0.6897
  695MOL0     H93808   1.467   1.946   2.055 -0.4812 -0.5989  0.1226
  695MOL0     H93809   1.161   2.211   1.731 -0.4727  0.5239  0.1709
  695MOL0     H93810   1.103   2.207   1.509 -1.7314 -1.4563  2.9902
  695MOL0     H93811   2.522   2.617   0.404 -0.4097  3.2197  0.5145
  695MOL0     H93812   2.689   2.592   0.221 -0.5344 -0.0681  0.3424
  695MOL0     H93813   3.092   2.652   0.090 -0.9683 -0.4885 -0.9688
  695MOL0     H93814   3.265   2.701  -0.068 -1.4292 -0.8074  1.4413
  695MOL0     H93815   3.590   2.405  -0.180  1.5542  1.6897  0.3655
  695MOL0     H93816   3.434   2.350  -0.239  0.1629 -0.5498  0.5693
  695MOL0     H93817   3.432   2.515  -0.418  0.7621  0.2886 -0.6427
  695MOL0     H93818   3.551   2.391  -0.441 -2.7350 -0.7465 -0.0820
  695MOL0     H93819   3.727   2.555  -0.359  1.6163  2.0030 -1.2434
  695MOL0     H93820   3.594   2.668  -0.337 -2.4636 -1.7307  1.7222
  695MOL0     H93821   3.738   2.708  -0.552 -0.0838 -0.1137 -0.2087
  695MOL0     H93822   3.566   2.700  -0.581  0.2303 -0.0993 -1.5452
  695MOL0     H93823   3.645   2.384  -0.818 -3.7232  2.6088 -1.2020
  695MOL0     H93824   3.419   2.296  -0.028  0.7342 -0.5332  0.8436
  695MOL0     H93825   3.244   2.251   0.130  5.5045  1.0808  1.7562
  696MOL0     O93826   0.258   2.036   4.012  0.5762  0.1141 -0.5402
  696MOL0     C93827   0.234   2.089   3.907  0.8555 -0.1896  0.0784
  696MOL0     O93828   0.319   2.156   3.824 -0.3089 -0.0791 -0.5815
  696MOL0     C93829   0.462   2.147   3.832  0.2629  0.3737  0.0698
  696MOL0     C93830   0.524   2.241   3.752  0.1228  0.4395  1.0655
  696MOL0     C93831   0.661   2.255   3.746  0.1200 -0.3867  0.8483
  696MOL0     C93832   0.741   2.169   3.816  0.3582 -0.2201  0.4327
  696MOL0     O93833   0.877   2.173   3.800  0.1836  0.1264  0.3149
  696MOL0     C93834   0.924   2.083   3.700 -1.1807 -0.9319 -0.1297
  696MOL0     C93835   1.074   2.071   3.728  0.3344  0.0001  0.5282
  696MOL0     C93836   1.152   2.201   3.688 -0.4634 -0.2101 -0.4011
  696MOL0     C93837   1.219   2.269   3.807  0.2881 -0.1423  0.0316
  696MOL0     C93838   1.254   2.416   3.783 -0.3570 -0.1559  0.3654
  696MOL0     C93839   1.280   2.499   3.909 -0.2095 -0.2845  0.5067
  696MOL0     C93840   1.169   2.491   4.016 -0.6447 -0.0611 -0.0997
  696MOL0     C93841   1.030   2.499   3.946  0.3841 -0.1171  0.0453
  696MOL0     N93842   0.929   2.490   4.052 -0.4889 -0.3671 -0.7656
  696MOL0     C93843   0.881   2.371   4.099  0.1165  0.2952 -0.3816
  696MOL0     C93844   0.821   2.404   4.217 -0.8797  0.5732 -0.3958
  696MOL0     C93845   0.749   2.313   4.312  0.0549  0.0370  0.0515
  696MOL0     C93846   0.610   2.281   4.242 -0.7746  0.5790  0.3715
  696MOL0     C93847   0.514   2.199   4.332 -0.0469  0.3263  0.2269
  696MOL0     C93848   0.424   2.289   4.415  0.3094 -0.3715  0.2681
  696MOL0     O93849   0.325   2.320   4.320 -0.0400 -0.5426  0.0877
  696MOL0     C93850   0.200   2.259   4.328 -0.2957  0.7530 -0.5615
  696MOL0     C93851   0.182   2.120   4.346  0.0054  0.3681 -0.4094
  696MOL0     C93852   0.050   2.064   4.345 -0.1604 -0.1825 -0.0250
  696MOL0     C93853   0.027   1.918   4.359  0.3425 -0.1998 -0.2221
  696MOL0     C93854  -0.059   2.154   4.337 -0.0700 -0.1749 -0.3800
  696MOL0     C93855  -0.206   2.111   4.344 -0.1156  0.4402  0.1684
  696MOL0     O93856  -0.241   2.031   4.243 -0.6087 -0.7140 -0.2652
  696MOL0     C93857  -0.370   1.989   4.236  0.2225  0.3055  0.3005
  696MOL0     C93858  -0.400   1.869   4.300  0.8196  0.3643 -0.3303
  696MOL0     C93859  -0.539   1.831   4.297 -0.2547  0.6608  0.4571
  696MOL0     C93860  -0.631   1.890   4.204 -0.5733  0.0925 -0.0951
  696MOL0     O93861  -0.758   1.833   4.189 -0.0817 -0.2601  0.4308
  696MOL0     C93862  -0.811   1.832   4.054  0.5338 -0.1075  0.2415
  696MOL0     C93863  -0.924   1.734   4.039  0.0119  1.3462 -0.0046
  696MOL0     C93864  -1.058   1.749   4.116  0.2231  0.2152 -0.2069
  696MOL0     C93865  -1.151   1.853   4.040  0.0753 -0.4444  0.2516
  696MOL0     C93866  -1.247   1.905   4.141  0.8844  0.8525 -0.3073
  696MOL0     C93867  -1.345   1.782   4.179 -0.9066 -0.2906  0.5613
  696MOL0     C93868  -1.456   1.848   4.274 -0.7103  0.7560  0.0372
  696MOL0     C93869  -1.536   1.737   4.342  0.4317 -0.0704  0.2986
  696MOL0    Cl93870  -1.657   1.667   4.232 -0.0141  0.6940 -0.3117
  696MOL0     C93871  -0.593   2.010   4.131 -0.0486 -0.3748  0.7582
  696MOL0     C93872  -0.461   2.062   4.155 -0.3149  1.0788  0.5315
  696MOL0     O93873  -0.283   2.158   4.435 -0.6213  0.1420  0.1110
  696MOL0     C93874  -0.030   2.291   4.332  0.1701  0.0017 -0.4377
  696MOL0     C93875   0.090   2.342   4.318  0.6090 -0.5186 -0.0055
  696MOL0     N93876   0.847   2.532   4.248 -0.2031 -0.0161 -0.0241
  696MOL0     N93877   0.914   2.588   4.150 -0.3551 -0.0678 -0.1815
  696MOL0     C93878   0.684   2.090   3.910 -0.7406  0.0906  0.6617
  696MOL0     C93879   0.545   2.072   3.912  0.3904 -0.0114  0.0340
  696MOL0     C93880   0.096   2.118   3.873  1.0343 -0.0590 -0.8151
  696MOL0     C93881  -0.003   2.093   3.964  0.3721  0.5015  1.2676
  696MOL0     C93882  -0.144   2.115   3.937  0.2078 -0.0680  0.6817
  696MOL0     C93883  -0.183   2.161   3.809  0.0251  0.4418 -0.3787
  696MOL0     O93884  -0.316   2.183   3.796 -0.3148  0.0944 -0.3243
  696MOL0     C93885  -0.355   2.217   3.671  0.1148 -0.2690 -0.5168
  696MOL0     C93886  -0.510   2.195   3.657 -0.1396  0.2251  0.6312
  696MOL0     C93887  -0.581   2.285   3.760  0.0395  0.1781  0.2972
  696MOL0     C93888  -0.730   2.252   3.761  0.1918 -0.1836 -0.3083
  696MOL0     C93889  -0.795   2.287   3.636  0.6822  0.4812  0.3405
  696MOL0     C93890  -0.848   2.304   3.522 -0.1739 -0.7522 -0.1591
  696MOL0     C93891  -0.083   2.188   3.716 -0.6131  0.0861  0.0493
  696MOL0     C93892   0.055   2.163   3.744 -0.6662 -0.3011  0.8466
  696MOL0     H93893   0.454   2.293   3.687 -0.4036 -0.2264  1.0763
  696MOL0     H93894   0.700   2.326   3.673 -0.2687 -1.2915 -0.2758
  696MOL0     H93895   0.889   1.979   3.698  0.1042 -1.3690 -0.5809
  696MOL0     H93896   0.901   2.131   3.605 -0.8196 -1.2777 -0.3914
  696MOL0     H93897   1.090   2.045   3.833 -0.9600  0.2582  0.8025
  696MOL0     H93898   1.112   1.997   3.656  1.4413  2.1807 -1.2383
  696MOL0     H93899   1.211   2.172   3.601  2.0311 -1.6047  1.6105
  696MOL0     H93900   1.075   2.269   3.649  0.1882  1.8792  1.7345
  696MOL0     H93901   1.153   2.262   3.894  1.0605 -1.0495  0.5578
  696MOL0     H93902   1.307   2.206   3.824  1.3854  0.8028 -1.8504
  696MOL0     H93903   1.350   2.425   3.731 -0.6917 -1.3047 -0.5051
  696MOL0     H93904   1.176   2.467   3.726 -0.0257 -0.1975 -0.1343
  696MOL0     H93905   1.377   2.487   3.957  0.6679  0.2126 -1.0797
  696MOL0     H93906   1.287   2.605   3.882  5.1839 -0.0977  1.5701
  696MOL0     H93907   1.183   2.392   4.060 -0.6904 -1.1471 -2.4127
  696MOL0     H93908   1.194   2.561   4.097 -1.5949 -0.4067  0.5164
  696MOL0     H93909   1.015   2.413   3.880 -0.1715 -0.7870  1.0191
  696MOL0     H93910   1.021   2.598   3.901 -1.5110 -0.3240 -0.1124
  696MOL0     H93911   0.873   2.273   4.053  0.2745  0.5059 -0.8697
  696MOL0     H93912   0.817   2.227   4.319  2.8442  1.9303 -1.8442
  696MOL0     H93913   0.744   2.372   4.404  0.5564 -0.1107  0.1799
  696MOL0     H93914   0.632   2.215   4.157 -2.8677  0.4405 -0.1240
  696MOL0     H93915   0.558   2.368   4.199 -1.4820 -0.6359 -1.3556
  696MOL0     H93916   0.578   2.137   4.395  0.8550 -1.6543 -2.4330
  696MOL0     H93917   0.449   2.141   4.265  0.0356  3.1043 -2.4405
  696MOL0     H93918   0.478   2.373   4.459 -0.4102 -0.9743  2.4006
  696MOL0     H93919   0.381   2.232   4.497  0.7223  0.0159  0.7551
  696MOL0     H93920   0.265   2.050   4.346  1.1937  1.6967  0.7820
  696MOL0     H93921   0.000   1.886   4.258 -1.5782 -1.3104  0.5966
  696MOL0     H93922   0.116   1.862   4.389 -0.2109 -1.6546 -1.2079
  696MOL0     H93923  -0.051   1.883   4.427 -1.1381 -0.5059 -1.9926
  696MOL0     H93924  -0.332   1.814   4.364 -0.1907 -1.5966 -0.8902
  696MOL0     H93925  -0.569   1.750   4.363 -0.2006 -2.3087 -2.8657
  696MOL0     H93926  -0.851   1.930   4.024 -2.3719 -1.2380  0.0647
  696MOL0     H93927  -0.731   1.801   3.986 -0.6965 -0.4573 -1.0909
  696MOL0     H93928  -0.948   1.728   3.932 -1.3957 -1.2103  0.3780
  696MOL0     H93929  -0.890   1.634   4.067 -2.6208 -0.5730 -2.9597
  696MOL0     H93930  -1.041   1.777   4.220 -1.6500 -2.8534  1.0591
  696MOL0     H93931  -1.115   1.656   4.129 -0.3131  0.7246  1.3370
  696MOL0     H93932  -1.106   1.941   3.994 -0.0324 -1.1768 -1.2972
  696MOL0     H93933  -1.197   1.806   3.953  2.2811  1.2961 -2.0010
  696MOL0     H93934  -1.303   1.992   4.104 -0.6714  1.3647  2.9066
  696MOL0     H93935  -1.198   1.946   4.229  1.3763  3.3723 -1.6649
  696MOL0     H93936  -1.387   1.742   4.086  1.4797  2.3103 -1.8209
  696MOL0     H93937  -1.289   1.710   4.239 -1.1455 -0.9992 -0.0483
  696MOL0     H93938  -1.513   1.930   4.229  0.5118  0.2598 -2.5601
  696MOL0     H93939  -1.403   1.910   4.348 -1.8863 -0.6302  2.1443
  696MOL0     H93940  -1.590   1.778   4.428 -1.3513 -3.6963  1.0844
  696MOL0     H93941  -1.478   1.655   4.387  1.4162 -0.0167 -0.8368
  696MOL0     H93942  -0.665   2.055   4.063  1.3348  0.1773 -0.3923
  696MOL0     H93943  -0.427   2.150   4.102 -2.6029  1.2881 -0.7229
  696MOL0     H93944  -0.103   2.371   4.338  0.7736  0.4387  3.6408
  696MOL0     H93945   0.105   2.449   4.328  2.4051 -0.4565 -2.5844
  696MOL0     H93946   0.749   2.020   3.961 -1.0178  0.8555  2.1169
  696MOL0     H93947   0.516   2.001   3.988  1.0086  0.3932  0.6589
  696MOL0     H93948   0.024   2.049   4.060 -1.7387  0.8436  2.0819
  696MOL0     H93949  -0.229   2.085   3.997 -0.4511 -0.3077 -0.3375
  696MOL0     H93950  -0.315   2.314   3.641 -0.9255  1.4585  3.0559
  696MOL0     H93951  -0.320   2.145   3.597 -0.1863  0.6256 -1.5645
  696MOL0     H93952  -0.534   2.088   3.659 -0.1707  0.2027 -0.3459
  696MOL0     H93953  -0.539   2.234   3.559  3.7068  2.2239  0.0848
  696MOL0     H93954  -0.576   2.387   3.721 -2.7563 -0.0085 -0.7520
  696MOL0     H93955  -0.541   2.270   3.861  0.5463  2.8044  0.5609
  696MOL0     H93956  -0.770   2.322   3.834  0.2031  1.1727 -1.5449
  696MOL0     H93957  -0.747   2.147   3.786  0.3028  0.0357  0.7283
  696MOL0     H93958  -0.892   2.332   3.428 -0.6219  1.0263  0.5395
  696MOL0     H93959  -0.115   2.211   3.615  0.5090 -4.0464 -1.4090
  696MOL0     H93960   0.132   2.178   3.669 -1.1947 -1.1355  0.1182
  697MOL0     O93961   7.914   6.453   6.630 -0.1948  0.2597 -0.4530
  697MOL0     C93962   7.956   6.486   6.514  0.7141  0.9171 -0.6403
  697MOL0     O93963   8.082   6.471   6.471  0.0807  0.3673  0.4928
  697MOL0     C93964   8.179   6.499   6.564 -0.5352 -0.2069  0.4347
  697MOL0     C93965   8.297   6.428   6.554  0.7666  0.8094 -0.6605
  697MOL0     C93966   8.409   6.447   6.635  0.2668  0.3482 -0.1069
  697MOL0     C93967   8.399   6.530   6.745 -0.5732  0.3621  0.5137
  697MOL0     O93968   8.503   6.535   6.832 -0.0592 -0.4682  0.4664
  697MOL0     C93969   8.481   6.591   6.961 -0.4513  0.6180 -0.1931
  697MOL0     C93970   8.617   6.618   7.038  0.2164  0.2009  0.0078
  697MOL0     C93971   8.717   6.687   6.949 -0.2906  0.4010 -0.2336
  697MOL0     C93972   8.846   6.739   7.016  0.4201 -0.0030 -0.4034
  697MOL0     C93973   8.946   6.790   6.916 -0.5303 -0.1916 -0.7903
  697MOL0     C93974   9.057   6.861   6.989 -0.0030 -0.2970 -0.9344
  697MOL0     C93975   9.195   6.875   6.915 -0.1014 -0.2180  0.2431
  697MOL0     C93976   9.187   6.936   6.777 -0.1516 -0.1097  0.0614
  697MOL0     N93977   9.146   6.833   6.678  0.4769  0.4486 -0.9725
  697MOL0     C93978   9.227   6.727   6.641  0.5968 -0.4003 -0.1857
  697MOL0     C93979   9.182   6.679   6.520  0.3498  0.8623  0.4762
  697MOL0     C93980   9.237   6.563   6.441  0.5574  0.0610  0.0718
  697MOL0     C93981   9.325   6.602   6.336 -0.2884  0.4096  0.3278
  697MOL0     C93982   9.453   6.652   6.397  0.0316 -0.3076 -0.2602
  697MOL0     C93983   9.546   6.699   6.288 -0.1903  0.0356  0.7083
  697MOL0     O93984   9.682   6.722   6.335 -0.0446 -0.6347  0.2204
  697MOL0     C93985   9.769   6.617   6.342 -0.5137  0.0170  0.3310
  697MOL0     C93986   9.811   6.563   6.462 -0.4169 -0.1208 -1.0401
  697MOL0     C93987   9.888   6.451   6.469 -0.1795 -0.1949 -0.0474
  697MOL0     C93988   9.914   6.392   6.608  0.4918 -0.6601  0.4718
  697MOL0     C93989   9.940   6.402   6.348 -0.0935 -0.0105  0.0262
  697MOL0     C93990  10.038   6.277   6.334 -0.0894  0.2932 -0.3856
  697MOL0     O93991  10.067   6.224   6.208 -0.0798 -0.4534 -1.0867
  697MOL0     C93992  10.178   6.148   6.183 -0.6643 -1.1661  0.1685
  697MOL0     C93993  10.304   6.152   6.258 -0.1140  0.0901  0.4545
  697MOL0     C93994  10.411   6.063   6.232  0.0032 -0.3023 -0.0865
  697MOL0     C93995  10.398   5.978   6.118 -0.4231 -0.9051 -0.5766
  697MOL0     O93996  10.488   5.896   6.064  0.0498 -0.4702  0.1965
  697MOL0     C93997  10.631   5.911   6.093  0.6676 -0.4013  1.0996
  697MOL0     C93998  10.693   6.049   6.055 -0.7543  0.2668  0.2400
  697MOL0     C93999  10.719   6.041   5.898 -0.8661  0.2481  0.0569
  697MOL0     C94000  10.771   6.178   5.853  0.5464  0.5811  0.6270
  697MOL0     C94001  10.803   6.176   5.702 -0.3200 -0.4683  0.7267
  697MOL0     C94002  10.801   6.328   5.657  0.1376 -0.5340  0.0574
  697MOL0     C94003  10.817   6.350   5.504 -0.1102 -0.1612  1.0204
  697MOL0     C94004  10.959   6.369   5.455  0.0543 -0.4000 -1.0577
  697MOL0    Cl94005  10.938   6.447   5.294 -0.2210  0.2867 -0.3623
  697MOL0     C94006  10.285   5.996   6.036  0.3000  0.5431  0.2653
  697MOL0     C94007  10.166   6.082   6.069 -0.0070  0.1777  0.9836
  697MOL0     O94008  10.100   6.252   6.433  0.3883 -0.0767 -0.4942
  697MOL0     C94009   9.903   6.469   6.229 -0.6986 -0.2813  0.6141
  697MOL0     C94010   9.818   6.577   6.224  1.3682 -0.5104  0.2675
  697MOL0     N94011   9.082   6.759   6.478  0.5568 -0.3632  0.6165
  697MOL0     N94012   9.064   6.860   6.571 -0.2763 -0.2956 -0.6339
  697MOL0     C94013   8.278   6.606   6.766 -0.4538 -0.2206 -0.5355
  697MOL0     C94014   8.167   6.594   6.677  0.1534  0.4852 -0.8336
  697MOL0     C94015   7.843   6.528   6.428 -0.4410 -0.3910  0.8932
  697MOL0     C94016   7.721   6.471   6.430 -1.1668 -0.3797 -0.7301
  697MOL0     C94017   7.618   6.512   6.346  0.7355 -0.2244  0.1900
  697MOL0     C94018   7.643   6.609   6.239 -0.5045  0.5005 -1.1046
  697MOL0     O94019   7.551   6.623   6.136 -0.4247 -0.5658  0.8958
  697MOL0     C94020   7.549   6.531   6.036  0.0801  0.8593  0.0111
  697MOL0     C94021   7.536   6.590   5.898  0.9638  0.8923 -0.2813
  697MOL0     C94022   7.399   6.625   5.839 -0.0350  0.5072 -0.0916
  697MOL0     C94023   7.306   6.703   5.921  0.9868 -0.2491 -0.6361
  697MOL0     C94024   7.232   6.619   6.020  0.2638 -0.2841 -0.0926
  697MOL0     C94025   7.191   6.571   6.123 -0.3613  0.3825  0.1515
  697MOL0     C94026   7.774   6.658   6.233  0.3953 -0.4204 -0.2708
  697MOL0     C94027   7.863   6.627   6.332 -0.1884  0.3644 -0.6480
  697MOL0     H94028   8.304   6.361   6.470  0.5218  0.2854 -0.2716
  697MOL0     H94029   8.495   6.384   6.615 -1.6058 -2.6014  0.5714
  697MOL0     H94030   8.432   6.688   6.956  0.4630  1.0475 -1.7705
  697MOL0     H94031   8.429   6.518   7.023 -0.3186  0.3567 -0.3840
  697MOL0     H94032   8.612   6.676   7.130  3.9985 -1.2053  1.2954
  697MOL0     H94033   8.662   6.526   7.077 -0.1916  0.7853  1.9239
  697MOL0     H94034   8.744   6.610   6.876 -0.0882 -0.3008  0.5769
  697MOL0     H94035   8.680   6.777   6.898  0.7704  1.2291  0.4246
  697MOL0     H94036   8.812   6.827   7.071 -1.1456  0.0070 -1.3199
  697MOL0     H94037   8.895   6.663   7.077  2.3640  0.5518 -1.1941
  697MOL0     H94038   8.993   6.698   6.880  1.2946  0.0273  0.8759
  697MOL0     H94039   8.905   6.861   6.844  0.5154  0.6444 -0.5788
  697MOL0     H94040   9.036   6.966   7.009  1.6969 -0.4199  2.3118
  697MOL0     H94041   9.082   6.825   7.090  0.2172  4.9001  1.1714
  697MOL0     H94042   9.253   6.946   6.975 -0.5996  0.4115 -0.0034
  697MOL0     H94043   9.257   6.785   6.914  0.9370  0.4624 -2.1850
  697MOL0     H94044   9.285   6.975   6.751 -0.4545 -0.6849 -2.1845
  697MOL0     H94045   9.118   7.021   6.777 -1.0218 -0.7988  0.0440
  697MOL0     H94046   9.298   6.685   6.711 -0.3607  2.8130  3.0273
  697MOL0     H94047   9.275   6.481   6.502  0.5363 -0.5698 -0.7394
  697MOL0     H94048   9.151   6.516   6.393  1.2914 -2.1596  0.8479
  697MOL0     H94049   9.284   6.692   6.289 -1.9614 -1.0723 -1.1473
  697MOL0     H94050   9.345   6.534   6.253 -0.9108  0.4984  0.0980
  697MOL0     H94051   9.502   6.570   6.450 -1.7910 -0.4935  1.2361
  697MOL0     H94052   9.441   6.738   6.464  1.0933  0.1176 -0.5865
  697MOL0     H94053   9.514   6.793   6.242  1.4778 -0.3976 -1.5134
  697MOL0     H94054   9.541   6.621   6.211  0.4352 -0.6319  1.3289
  697MOL0     H94055   9.755   6.605   6.544 -2.0937  0.8638 -2.6185
  697MOL0     H94056   9.900   6.284   6.599  0.2022 -0.4848 -1.6636
  697MOL0     H94057  10.014   6.420   6.643  2.7518 -4.0184 -2.5856
  697MOL0     H94058   9.837   6.435   6.673  0.0614  1.6176 -1.3890
  697MOL0     H94059  10.325   6.216   6.343  0.5152 -1.1020  1.2120
  697MOL0     H94060  10.504   6.046   6.287 -2.0264 -0.7365  3.5294
  697MOL0     H94061  10.647   5.886   6.198 -3.0173  0.0265  1.9059
  697MOL0     H94062  10.692   5.841   6.035  0.1584 -1.7830  2.1772
  697MOL0     H94063  10.635   6.137   6.083 -1.4649 -0.1386  0.0877
  697MOL0     H94064  10.791   6.058   6.102 -0.7586 -0.5812  0.4413
  697MOL0     H94065  10.626   6.024   5.843 -0.3357 -3.0702 -0.0072
  697MOL0     H94066  10.786   5.957   5.875 -0.2383  0.4736  0.9904
  697MOL0     H94067  10.683   6.236   5.881  1.1741  0.9024  1.9925
  697MOL0     H94068  10.862   6.216   5.900  1.4373  1.3476 -1.5757
  697MOL0     H94069  10.735   6.115   5.641  1.6126 -1.4557 -0.5501
  697MOL0     H94070  10.904   6.139   5.684 -0.3082 -0.1506  0.1026
  697MOL0     H94071  10.704   6.372   5.685 -0.1758  0.7075 -2.6508
  697MOL0     H94072  10.880   6.378   5.714  0.8087  1.2924 -2.2632
  697MOL0     H94073  10.760   6.438   5.472  0.3940  0.5697  2.0479
  697MOL0     H94074  10.772   6.269   5.447  0.3185 -0.1590  0.6812
  697MOL0     H94075  11.003   6.269   5.455 -0.7196 -0.7413 -1.4960
  697MOL0     H94076  11.019   6.428   5.525 -1.3895 -1.1567  0.8770
  697MOL0     H94077  10.285   5.927   5.953  2.2377 -1.6854  1.9594
  697MOL0     H94078  10.079   6.095   6.006 -1.6198  0.3160  3.1364
  697MOL0     H94079   9.940   6.423   6.138 -2.0586 -3.1801  1.4119
  697MOL0     H94080   9.793   6.628   6.131  2.5748  0.5656  0.4976
  697MOL0     H94081   8.245   6.672   6.845  0.9221 -0.5828  0.3679
  697MOL0     H94082   8.087   6.662   6.702  1.6832  1.4226  2.0122
  697MOL0     H94083   7.696   6.392   6.500 -4.5169  0.7858 -0.4274
  697MOL0     H94084   7.520   6.465   6.341  0.5432  0.1047  0.7476
  697MOL0     H94085   7.632   6.460   6.048  0.3571  0.9759 -1.1272
  697MOL0     H94086   7.454   6.478   6.051 -1.6453  3.0517 -2.2199
  697MOL0     H94087   7.577   6.514   5.830  2.0123 -0.1345  1.4187
  697MOL0     H94088   7.597   6.680   5.895  0.9924  0.8753 -0.1973
  697MOL0     H94089   7.350   6.531   5.812 -1.0920  0.9985  0.0670
  697MOL0     H94090   7.409   6.675   5.742 -0.0070 -0.0745 -0.3957
  697MOL0     H94091   7.234   6.745   5.850  0.1463  0.0124  0.3516
  697MOL0     H94092   7.345   6.793   5.971 -0.4662  0.5342 -0.8763
  697MOL0     H94093   7.139   6.523   6.203  0.7924 -2.6174 -0.7206
  697MOL0     H94094   7.800   6.728   6.154 -0.5185 -0.8819 -1.0082
  697MOL0     H94095   7.962   6.671   6.329  0.0097 -0.0783 -0.7199
  698MOL0     O94096   3.018   8.129   5.796  1.0163 -0.2616 -0.0315
  698MOL0     C94097   2.919   8.205   5.824  0.2167 -0.4436  0.7413
  698MOL0     O94098   2.920   8.295   5.929 -0.2447 -0.1435 -0.2881
  698MOL0     C94099   3.023   8.278   6.021  0.1576  0.4237  0.8399
  698MOL0     C94100   3.020   8.168   6.116  1.0329 -0.0564  0.5534
  698MOL0     C94101   3.117   8.150   6.208  0.0494 -0.2612  0.3675
  698MOL0     C94102   3.226   8.245   6.210 -0.5624  0.1439 -0.5015
  698MOL0     O94103   3.319   8.222   6.306  0.4601 -0.1819 -0.5700
  698MOL0     C94104   3.443   8.294   6.310 -0.0906 -0.5210  0.9740
  698MOL0     C94105   3.510   8.235   6.434 -0.6338  0.0764  0.7394
  698MOL0     C94106   3.654   8.255   6.423 -0.4363  0.1888  0.2652
  698MOL0     C94107   3.726   8.226   6.555 -0.7095  0.0922  0.5357
  698MOL0     C94108   3.880   8.239   6.543 -0.2223 -0.9237 -0.2464
  698MOL0     C94109   3.947   8.193   6.678 -0.4200 -0.0705 -0.0855
  698MOL0     C94110   4.104   8.199   6.657 -0.3693 -0.3044  0.1370
  698MOL0     C94111   4.192   8.167   6.773 -0.3535  0.4220 -0.0164
  698MOL0     N94112   4.333   8.162   6.740 -0.2574  1.0746 -0.1435
  698MOL0     C94113   4.434   8.165   6.832 -0.6105  0.1869 -0.1013
  698MOL0     C94114   4.547   8.130   6.770  0.7994  0.3487  0.4343
  698MOL0     C94115   4.690   8.133   6.825  0.6568 -0.7751 -0.1941
  698MOL0     C94116   4.737   8.276   6.825 -0.0396  0.1919  0.7160
  698MOL0     C94117   4.782   8.327   6.691 -0.0124 -0.2126 -0.0062
  698MOL0     C94118   4.900   8.260   6.621  0.6854 -0.0909 -0.3379
  698MOL0     O94119   4.947   8.349   6.518 -0.6263 -0.0318  0.6071
  698MOL0     C94120   5.045   8.450   6.549  0.9668 -0.1948  0.2509
  698MOL0     C94121   5.088   8.478   6.678  0.0186 -0.7426  0.7033
  698MOL0     C94122   5.164   8.602   6.706 -0.0445  0.9878  0.3189
  698MOL0     C94123   5.184   8.612   6.856 -0.0985  0.8052 -0.0576
  698MOL0     C94124   5.185   8.698   6.613 -0.2387 -0.4951 -0.0672
  698MOL0     C94125   5.267   8.814   6.632 -0.6093  1.0536 -0.8333
  698MOL0     O94126   5.242   8.928   6.560 -0.2419  0.4175 -0.2030
  698MOL0     C94127   5.320   9.035   6.587 -0.2575  0.3158  0.3533
  698MOL0     C94128   5.453   9.045   6.531 -0.9036 -0.1723 -0.1390
  698MOL0     C94129   5.538   9.148   6.567 -0.2593 -0.2994 -0.4752
  698MOL0     C94130   5.499   9.248   6.656  0.1776  0.5067  0.9317
  698MOL0     O94131   5.579   9.342   6.694  0.1975 -0.6000 -0.4937
  698MOL0     C94132   5.549   9.460   6.609 -0.2603 -0.5907 -0.0872
  698MOL0     C94133   5.611   9.580   6.676  0.5785 -0.2950 -0.9578
  698MOL0     C94134   5.751   9.559   6.733  0.4645  0.1739 -0.2608
  698MOL0     C94135   5.833   9.699   6.756  0.8081  0.2477 -0.3143
  698MOL0     C94136   5.983   9.667   6.790 -0.5304 -0.0396 -0.5257
  698MOL0     C94137   6.067   9.794   6.811  0.1916  0.3624 -0.9516
  698MOL0     C94138   6.080   9.858   6.677  0.8780  0.0524 -0.9980
  698MOL0     C94139   6.192   9.960   6.684  0.3418  0.2069 -0.1500
  698MOL0    Cl94140   6.246  10.002   6.511 -0.3233  0.0102 -0.1456
  698MOL0     C94141   5.366   9.244   6.703 -1.0053 -0.2118  0.9053
  698MOL0     C94142   5.271   9.150   6.661 -0.6083  0.5726 -0.6792
  698MOL0     O94143   5.358   8.805   6.713 -0.2826  0.4778 -0.0834
  698MOL0     C94144   5.131   8.668   6.487  0.7403 -0.1168 -1.0472
  698MOL0     C94145   5.059   8.546   6.456  0.4426 -0.3758 -0.9588
  698MOL0     N94146   4.511   8.099   6.640 -0.0074 -0.2966  0.3533
  698MOL0     N94147   4.388   8.126   6.621 -0.2707  0.3203 -0.5744
  698MOL0     C94148   3.223   8.350   6.125 -0.3233 -0.7115  0.2002
  698MOL0     C94149   3.128   8.372   6.025  0.5021  0.7984  0.7302
  698MOL0     C94150   2.799   8.203   5.742  0.0803  0.2086 -0.2279
  698MOL0     C94151   2.688   8.285   5.771  0.5715  0.2772  0.2704
  698MOL0     C94152   2.571   8.290   5.688 -0.2992  0.1519  0.4494
  698MOL0     C94153   2.573   8.209   5.571  0.1807  0.4481 -1.2213
  698MOL0     O94154   2.463   8.226   5.493 -1.0267 -0.7834 -0.2569
  698MOL0     C94155   2.438   8.136   5.384 -0.6541 -0.0900 -0.0675
  698MOL0     C94156   2.282   8.135   5.363 -0.6243  0.9759 -0.2174
  698MOL0     C94157   2.213   8.263   5.327  0.5225 -0.1169 -0.1053
  698MOL0     C94158   2.137   8.253   5.191 -0.5297 -0.3558 -0.4061
  698MOL0     C94159   2.234   8.278   5.077  0.5829  0.3805  0.2073
  698MOL0     C94160   2.315   8.285   4.984  0.1418 -1.1457 -0.4184
  698MOL0     C94161   2.684   8.139   5.538  0.1247 -0.2845  0.0956
  698MOL0     C94162   2.794   8.136   5.622  0.3548 -0.0722 -0.1347
  698MOL0     H94163   2.929   8.109   6.108  1.7414 -1.0005 -1.2981
  698MOL0     H94164   3.115   8.068   6.278 -0.1123 -2.1671 -1.7391
  698MOL0     H94165   3.507   8.270   6.225  1.4326 -0.5781  2.1124
  698MOL0     H94166   3.430   8.402   6.306  0.9244 -0.4305 -0.2578
  698MOL0     H94167   3.468   8.276   6.527  0.9200  0.6427  1.2153
  698MOL0     H94168   3.496   8.127   6.439 -1.3023  0.1979  2.0130
  698MOL0     H94169   3.694   8.201   6.336  0.2140  0.6594  0.2628
  698MOL0     H94170   3.669   8.359   6.391  0.1537 -0.1762 -0.6986
  698MOL0     H94171   3.697   8.303   6.627 -0.3138 -0.6801  1.5507
  698MOL0     H94172   3.705   8.125   6.594 -1.9455  0.1221 -0.0016
  698MOL0     H94173   3.917   8.179   6.460 -1.2558 -2.9338  0.6664
  698MOL0     H94174   3.901   8.344   6.522 -1.9807 -0.3123  0.8040
  698MOL0     H94175   3.920   8.255   6.764 -3.7576  0.6298 -1.5081
  698MOL0     H94176   3.907   8.096   6.710  2.4726 -1.6608 -0.8705
  698MOL0     H94177   4.126   8.133   6.572  0.5058  0.7526 -0.4917
  698MOL0     H94178   4.131   8.303   6.633  1.8941 -0.6739  0.8334
  698MOL0     H94179   4.161   8.066   6.799  3.2049 -0.2565  2.2250
  698MOL0     H94180   4.172   8.234   6.856  0.1065 -1.5175  1.7448
  698MOL0     H94181   4.420   8.200   6.933  0.6609 -0.0860  0.1789
  698MOL0     H94182   4.686   8.096   6.928 -1.6230  0.9257  0.4017
  698MOL0     H94183   4.762   8.071   6.769  0.0607 -1.4865 -0.1869
  698MOL0     H94184   4.810   8.292   6.905  0.7471 -0.8994  0.2371
  698MOL0     H94185   4.655   8.342   6.854  0.1700  0.8609 -0.1395
  698MOL0     H94186   4.811   8.430   6.711  1.0398 -0.0470 -2.0884
  698MOL0     H94187   4.695   8.329   6.624  1.3931 -2.8751 -2.1301
  698MOL0     H94188   4.873   8.169   6.566  0.6314  0.7546 -1.7500
  698MOL0     H94189   4.969   8.234   6.703 -0.8907  1.6691  1.6601
  698MOL0     H94190   5.058   8.417   6.763 -1.5258 -0.2460  0.5546
  698MOL0     H94191   5.290   8.590   6.868  0.5661  2.4726 -2.1752
  698MOL0     H94192   5.175   8.715   6.894  0.0637  0.5319  0.7407
  698MOL0     H94193   5.121   8.546   6.917  0.5397 -1.3920 -1.6695
  698MOL0     H94194   5.507   8.966   6.478  2.4993  1.2926  0.8376
  698MOL0     H94195   5.642   9.136   6.541  0.6328  0.1122  2.4909
  698MOL0     H94196   5.596   9.455   6.510 -1.3709  0.5387 -0.6974
  698MOL0     H94197   5.442   9.480   6.592  0.2282  1.1487 -1.3797
  698MOL0     H94198   5.620   9.674   6.621  1.9467 -0.0894 -0.4233
  698MOL0     H94199   5.539   9.593   6.757  0.1214 -0.1212 -1.3865
  698MOL0     H94200   5.804   9.494   6.662  0.2391  0.3129 -0.5620
  698MOL0     H94201   5.754   9.508   6.829 -2.8983  2.4722  1.2671
  698MOL0     H94202   5.825   9.770   6.673  1.1068 -0.3747 -0.8781
  698MOL0     H94203   5.772   9.741   6.837 -0.5429 -0.1803 -1.0965
  698MOL0     H94204   6.030   9.609   6.710  2.8978 -0.7703  1.7833
  698MOL0     H94205   5.993   9.608   6.882  0.3427  0.3488 -0.3602
  698MOL0     H94206   6.019   9.860   6.884 -1.9054 -2.4212  0.3975
  698MOL0     H94207   6.166   9.761   6.844 -0.8020 -0.3927  1.5436
  698MOL0     H94208   5.987   9.907   6.648  0.7489  0.7382  0.4882
  698MOL0     H94209   6.104   9.786   6.598 -3.6089  0.1254 -2.7480
  698MOL0     H94210   6.281   9.923   6.737 -0.1192 -2.2839 -0.9620
  698MOL0     H94211   6.149  10.054   6.719 -0.7189  0.2571 -1.4910
  698MOL0     H94212   5.323   9.317   6.771 -0.6493  2.1493 -1.2402
  698MOL0     H94213   5.171   9.160   6.702 -0.2462  2.3192 -0.0907
  698MOL0     H94214   5.129   8.750   6.414 -0.6480  0.4268 -0.4350
  698MOL0     H94215   5.003   8.537   6.363  1.3901  1.0843 -1.7151
  698MOL0     H94216   3.298   8.426   6.142 -0.9392 -0.1257  0.3493
  698MOL0     H94217   3.137   8.464   5.968  1.8459  0.1180 -0.1957
  698MOL0     H94218   2.691   8.351   5.857  3.8019  1.7758 -0.8234
  698MOL0     H94219   2.492   8.359   5.715 -0.0331  0.4550  0.4649
  698MOL0     H94220   2.482   8.174   5.291  0.5298  1.3419  1.0331
  698MOL0     H94221   2.480   8.039   5.413  0.2568  0.2577 -0.1983
  698MOL0     H94222   2.240   8.095   5.456 -3.0204  0.5907 -1.3879
  698MOL0     H94223   2.254   8.064   5.285 -0.5781  0.3456  0.3271
  698MOL0     H94224   2.293   8.338   5.316 -0.5814  0.8949 -1.7045
  698MOL0     H94225   2.147   8.299   5.406  1.8862  1.3342  0.4424
  698MOL0     H94226   2.053   8.323   5.185  0.2383  0.6488  0.2350
  698MOL0     H94227   2.085   8.157   5.183  0.0581 -0.5726 -1.7678
  698MOL0     H94228   2.374   8.294   4.895 -0.3048 -2.9622 -0.9483
  698MOL0     H94229   2.690   8.081   5.446  2.0746 -0.3758  0.2332
  698MOL0     H94230   2.886   8.089   5.590 -1.7341 -1.9373 -4.1433
  699MOL0     O94231  11.223   7.647   4.176 -0.9714  0.4063  0.2202
  699MOL0     C94232  11.311   7.583   4.232  0.3494  0.3252  0.6985
  699MOL0     O94233  11.301   7.453   4.262  0.4106 -0.1812  0.1701
  699MOL0     C94234  11.200   7.381   4.200  0.6213  1.0432  0.7974
  699MOL0     C94235  11.062   7.405   4.231  0.1262 -0.2685 -0.6932
  699MOL0     C94236  10.951   7.337   4.174  0.0035  0.2464  0.7849
  699MOL0     C94237  10.975   7.240   4.077  0.0609  0.2405  0.1248
  699MOL0     O94238  10.868   7.193   4.004  0.2618  0.5280  0.1093
  699MOL0     C94239  10.744   7.273   3.994 -0.0081  0.1000 -0.9772
  699MOL0     C94240  10.646   7.223   3.885 -0.5230 -0.6453  0.4200
  699MOL0     C94241  10.566   7.101   3.917  0.5117 -0.7808 -0.7976
  699MOL0     C94242  10.450   7.127   4.026 -1.2534  0.4420  0.5161
  699MOL0     C94243  10.384   7.003   4.074  0.5378  0.8366  1.1394
  699MOL0     C94244  10.294   6.950   3.955 -0.2878  0.3474 -0.2999
  699MOL0     C94245  10.154   7.016   3.946  0.0957 -0.7421  0.2960
  699MOL0     C94246  10.061   6.936   3.857 -0.3329  0.6537  0.9697
  699MOL0     N94247  10.032   6.801   3.902  0.9478 -0.6883 -0.8976
  699MOL0     C94248   9.909   6.752   3.958 -0.3497  0.1752  1.0706
  699MOL0     C94249   9.926   6.619   3.959  0.4052  0.4225 -0.6106
  699MOL0     C94250   9.809   6.520   3.987 -0.7075 -0.2589 -0.0706
  699MOL0     C94251   9.741   6.542   4.117  0.3224  0.7023 -0.1555
  699MOL0     C94252   9.829   6.526   4.239  0.4305 -0.3387  0.6143
  699MOL0     C94253   9.881   6.388   4.276 -0.2173  0.4512  0.0911
  699MOL0     O94254  10.001   6.380   4.196  0.2812 -0.2384 -0.2592
  699MOL0     C94255  10.114   6.451   4.224 -0.0339 -0.6161  0.0737
  699MOL0     C94256  10.211   6.459   4.127 -0.5597  0.6237  0.1998
  699MOL0     C94257  10.329   6.544   4.146 -0.2155 -0.6314 -0.1772
  699MOL0     C94258  10.420   6.533   4.028 -1.0498 -0.5029 -0.2587
  699MOL0     C94259  10.345   6.628   4.262  0.8800  1.8263 -0.4561
  699MOL0     C94260  10.459   6.713   4.287 -0.6298 -0.4508  0.1498
  699MOL0     O94261  10.562   6.706   4.198  0.3093 -0.3964  0.3129
  699MOL0     C94262  10.689   6.734   4.247  0.1796  0.2507 -0.4779
  699MOL0     C94263  10.781   6.803   4.168 -0.3010 -0.3840  0.9156
  699MOL0     C94264  10.906   6.841   4.211  0.5013 -0.7647  0.0969
  699MOL0     C94265  10.947   6.794   4.335  0.5475  0.3858 -1.4966
  699MOL0     O94266  11.072   6.808   4.400  0.1033  0.4775  1.2055
  699MOL0     C94267  11.169   6.818   4.304 -0.3101 -0.7944 -0.2956
  699MOL0     C94268  11.316   6.784   4.350  0.2219  0.7358 -0.6090
  699MOL0     C94269  11.345   6.638   4.330  0.3067  0.4368 -1.0849
  699MOL0     C94270  11.486   6.594   4.366  0.1898  0.6871 -0.2940
  699MOL0     C94271  11.483   6.438   4.369  0.3643 -0.0549 -0.5521
  699MOL0     C94272  11.618   6.378   4.346  0.5546  0.0384 -0.1578
  699MOL0     C94273  11.665   6.379   4.208  1.1828  0.6740 -0.3365
  699MOL0     C94274  11.807   6.339   4.197 -0.4502  0.2373  0.3190
  699MOL0    Cl94275  11.850   6.317   4.022 -0.1811  0.1579  0.2963
  699MOL0     C94276  10.860   6.732   4.418  0.4421  0.2834 -0.0418
  699MOL0     C94277  10.733   6.683   4.374 -0.3843  0.2061  0.0688
  699MOL0     O94278  10.453   6.791   4.381 -0.0273  0.1408  0.7467
  699MOL0     C94279  10.248   6.614   4.360  0.6895 -0.2478 -0.9375
  699MOL0     C94280  10.137   6.530   4.338 -0.2526  0.6288  0.0678
  699MOL0     N94281  10.046   6.583   3.905  0.1659 -0.4857 -0.3996
  699MOL0     N94282  10.105   6.690   3.865  0.0812 -0.4389 -0.5352
  699MOL0     C94283  11.103   7.200   4.046  1.2007 -0.4176  0.6620
  699MOL0     C94284  11.216   7.266   4.116  0.5309  0.0615  0.0728
  699MOL0     C94285  11.443   7.651   4.264 -0.0707  0.8183 -0.0289
  699MOL0     C94286  11.536   7.599   4.362  0.8561 -0.0972 -0.1580
  699MOL0     C94287  11.653   7.655   4.395  0.0283 -0.5615 -0.4779
  699MOL0     C94288  11.696   7.776   4.341 -0.2579 -0.1106 -0.1282
  699MOL0     O94289  11.812   7.844   4.375 -0.3470 -0.0614 -0.0530
  699MOL0     C94290  11.902   7.789   4.472 -0.0057  0.8764  0.1566
  699MOL0     C94291  12.018   7.877   4.490  0.1818 -0.4773 -0.6363
  699MOL0     C94292  11.975   8.016   4.535  0.2896 -0.3962 -0.1514
  699MOL0     C94293  11.891   8.009   4.656  0.0230 -0.1262 -0.6264
  699MOL0     C94294  11.941   7.936   4.770 -0.2747  0.2696 -0.3003
  699MOL0     C94295  11.956   7.870   4.872  0.4661  0.2882  0.3000
  699MOL0     C94296  11.615   7.821   4.238 -0.3685  0.2967 -0.0307
  699MOL0     C94297  11.489   7.763   4.204  0.2125  0.0749  0.2668
  699MOL0     H94298  11.048   7.478   4.311  1.2317 -0.4060 -0.3580
  699MOL0     H94299  10.850   7.360   4.204 -0.2367 -0.0737  0.2472
  699MOL0     H94300  10.697   7.260   4.093  0.6558  0.8154 -0.5554
  699MOL0     H94301  10.779   7.373   3.968  0.2874  0.3335  0.2548
  699MOL0     H94302  10.575   7.298   3.849 -1.3084 -1.1396  0.9273
  699MOL0     H94303  10.712   7.202   3.799 -2.4554 -1.8992 -0.8384
  699MOL0     H94304  10.529   7.041   3.833  1.1735 -1.8024 -0.3763
  699MOL0     H94305  10.634   7.031   3.967 -0.6667 -3.2724 -2.4607
  699MOL0     H94306  10.500   7.178   4.108  1.1161  0.2733 -0.7266
  699MOL0     H94307  10.377   7.187   3.971 -1.1094 -1.7657 -2.3675
  699MOL0     H94308  10.458   6.925   4.090  0.8004  0.7521 -0.3423
  699MOL0     H94309  10.322   7.022   4.162 -1.5335 -0.0225 -0.0630
  699MOL0     H94310  10.343   6.956   3.857 -0.7310  2.2881 -0.4381
  699MOL0     H94311  10.278   6.845   3.982  0.2890  0.3343  0.0121
  699MOL0     H94312  10.117   7.017   4.049 -0.9635  2.2234 -0.0366
  699MOL0     H94313  10.162   7.118   3.908  0.6110 -0.1210  1.9431
  699MOL0     H94314  10.102   6.933   3.756 -1.0919 -1.2462  0.6713
  699MOL0     H94315   9.960   6.979   3.853 -0.7637 -0.1498  2.6023
  699MOL0     H94316   9.825   6.811   3.993 -0.3272  0.2167  1.0557
  699MOL0     H94317   9.740   6.526   3.902 -0.5256  0.6059 -0.1617
  699MOL0     H94318   9.839   6.415   3.977  1.6907  0.1987  1.4796
  699MOL0     H94319   9.652   6.480   4.132 -1.3311  2.4466 -2.1665
  699MOL0     H94320   9.699   6.642   4.122 -0.1547  0.4428  1.4281
  699MOL0     H94321   9.784   6.573   4.327 -3.4650 -0.6739 -0.9802
  699MOL0     H94322   9.911   6.593   4.211  0.6873 -1.5012 -1.7037
  699MOL0     H94323   9.817   6.303   4.252  1.6639 -0.5615 -1.6360
  699MOL0     H94324   9.911   6.375   4.380 -0.9434 -1.0269  0.1375
  699MOL0     H94325  10.181   6.397   4.043 -0.5034  1.7654 -0.6878
  699MOL0     H94326  10.523   6.512   4.057 -0.7948 -2.0001 -2.0207
  699MOL0     H94327  10.400   6.458   3.950  1.0607 -0.3844 -0.9664
  699MOL0     H94328  10.412   6.629   3.976 -0.8536 -1.6165 -2.4679
  699MOL0     H94329  10.752   6.839   4.070  0.7978 -5.0898 -1.4194
  699MOL0     H94330  10.971   6.900   4.147  1.1596 -2.2682 -0.6822
  699MOL0     H94331  11.156   6.772   4.206 -0.3093  0.5749 -0.9684
  699MOL0     H94332  11.178   6.925   4.285  1.6660 -1.4112 -3.5451
  699MOL0     H94333  11.378   6.845   4.283  1.3782 -1.2560 -1.4251
  699MOL0     H94334  11.340   6.811   4.453  0.4810  0.9790 -0.7292
  699MOL0     H94335  11.314   6.610   4.229 -0.1689  1.1798 -1.1506
  699MOL0     H94336  11.291   6.576   4.403  2.5702 -1.6229 -1.0504
  699MOL0     H94337  11.550   6.635   4.287 -1.8314 -0.7726 -2.8509
  699MOL0     H94338  11.508   6.632   4.466 -0.2332  0.7550 -0.2246
  699MOL0     H94339  11.412   6.407   4.293  1.0623  1.4333 -1.8603
  699MOL0     H94340  11.449   6.421   4.472 -0.1795  1.3656 -0.4766
  699MOL0     H94341  11.682   6.438   4.411 -3.3378  2.1400  2.1419
  699MOL0     H94342  11.618   6.275   4.384  1.6651 -0.7209 -2.0466
  699MOL0     H94343  11.653   6.476   4.158  1.4065  0.8722 -0.0120
  699MOL0     H94344  11.608   6.300   4.158  1.6208 -0.0750  0.3287
  699MOL0     H94345  11.825   6.252   4.260  4.3649  1.3542  0.8507
  699MOL0     H94346  11.873   6.414   4.242  0.1151 -1.1728  1.9343
  699MOL0     H94347  10.902   6.717   4.517  2.3379 -1.1519 -1.0008
  699MOL0     H94348  10.664   6.622   4.431  0.0206 -0.5028 -0.1882
  699MOL0     H94349  10.256   6.664   4.456  1.6809 -0.8053 -0.7185
  699MOL0     H94350  10.061   6.518   4.416  2.7792 -2.1255  2.9369
  699MOL0     H94351  11.112   7.135   3.960 -2.6065  1.0057 -1.0010
  699MOL0     H94352  11.313   7.220   4.101  0.8307  1.2921 -2.2419
  699MOL0     H94353  11.517   7.505   4.415 -0.4189  2.1344  3.7904
  699MOL0     H94354  11.725   7.604   4.458 -1.8243 -2.5731  0.1148
  699MOL0     H94355  11.844   7.737   4.550 -1.9905  0.0830 -1.7397
  699MOL0     H94356  11.944   7.695   4.435 -5.6269 -3.5739  3.3563
  699MOL0     H94357  12.079   7.890   4.400  1.5442 -0.8969  0.2024
  699MOL0     H94358  12.088   7.827   4.557  1.1623 -0.5438 -1.6787
  699MOL0     H94359  11.931   8.076   4.455  0.5784  0.4881  0.3411
  699MOL0     H94360  12.068   8.059   4.574 -0.2903  0.2599  0.5493
  699MOL0     H94361  11.792   7.976   4.625 -1.1687  1.9291  0.7158
  699MOL0     H94362  11.883   8.106   4.707  0.5817 -1.0157  1.2753
  699MOL0     H94363  11.960   7.826   4.969 -1.0399  0.4816  0.4754
  699MOL0     H94364  11.645   7.903   4.174 -1.4870 -0.9391 -2.3025
  699MOL0     H94365  11.431   7.808   4.124  1.4608 -1.1004 -1.3678
  700MOL0     O94366   2.257   5.531   0.473  0.3587 -0.2609  0.5247
  700MOL0     C94367   2.256   5.652   0.457 -0.7918  0.0174  1.1300
  700MOL0     O94368   2.256   5.754   0.553 -0.2024 -0.1307  0.5065
  700MOL0     C94369   2.243   5.711   0.681  0.5051 -0.0731  0.0412
  700MOL0     C94370   2.354   5.670   0.763  0.0988 -0.3641 -0.8868
  700MOL0     C94371   2.333   5.627   0.896 -0.4114  0.0822  0.5296
  700MOL0     C94372   2.201   5.614   0.951  0.0255  0.5177 -0.3525
  700MOL0     O94373   2.212   5.553   1.073  0.1383 -0.8792  0.3712
  700MOL0     C94374   2.096   5.575   1.159 -0.6792 -0.6716  0.8475
  700MOL0     C94375   2.089   5.517   1.294  0.0379  0.3225 -0.1021
  700MOL0     C94376   2.167   5.604   1.387 -0.3712  0.5134  0.1201
  700MOL0     C94377   2.204   5.522   1.510 -0.0511 -0.7382  0.0403
  700MOL0     C94378   2.345   5.456   1.530  0.6075  0.4572 -0.3768
  700MOL0     C94379   2.451   5.556   1.554 -0.9989 -0.3920 -0.9205
  700MOL0     C94380   2.586   5.489   1.569 -0.7909  0.3894 -0.4769
  700MOL0     C94381   2.697   5.587   1.616 -0.7395 -0.1749 -0.2038
  700MOL0     N94382   2.820   5.510   1.643  0.3629  0.1417  0.8004
  700MOL0     C94383   2.845   5.413   1.740  0.9711 -0.6362  0.2885
  700MOL0     C94384   2.957   5.357   1.703  0.9510  0.7892 -0.1182
  700MOL0     C94385   3.005   5.226   1.766  0.5354 -0.0828 -0.5597
  700MOL0     C94386   3.060   5.128   1.660  0.6398  0.0291 -0.8588
  700MOL0     C94387   3.214   5.149   1.649 -0.3339 -0.1344 -0.6980
  700MOL0     C94388   3.295   5.078   1.537  0.2817 -0.3519 -0.9552
  700MOL0     O94389   3.429   5.124   1.531  0.9610  0.0955  0.9708
  700MOL0     C94390   3.455   5.255   1.497 -0.0635  0.2948 -0.1357
  700MOL0     C94391   3.591   5.304   1.529  0.6976 -0.1401  1.4915
  700MOL0     C94392   3.631   5.428   1.480  0.7423 -0.3746  0.4357
  700MOL0     C94393   3.783   5.455   1.488 -0.5665  0.2549 -0.4153
  700MOL0     C94394   3.536   5.518   1.420 -0.6829  0.2327  0.2672
  700MOL0     C94395   3.564   5.662   1.401 -0.0910  0.5105  0.5708
  700MOL0     O94396   3.476   5.736   1.335 -0.0331  0.0115 -0.0864
  700MOL0     C94397   3.485   5.874   1.357  0.2300 -0.6935  0.0692
  700MOL0     C94398   3.470   5.946   1.238  1.3585 -0.4379 -0.4306
  700MOL0     C94399   3.464   6.093   1.230  0.6870 -0.2936 -0.4265
  700MOL0     C94400   3.476   6.164   1.360 -0.1741  0.4347  0.5473
  700MOL0     O94401   3.476   6.303   1.364 -0.3119  0.2375  0.4035
  700MOL0     C94402   3.445   6.369   1.237 -0.1634 -0.2349  0.3695
  700MOL0     C94403   3.430   6.516   1.261  0.3702 -0.2880 -1.1062
  700MOL0     C94404   3.379   6.597   1.142  0.5583 -0.0259  0.2382
  700MOL0     C94405   3.376   6.752   1.182  1.5862  0.7713 -0.2718
  700MOL0     C94406   3.330   6.838   1.066 -0.1751  0.5669 -0.3020
  700MOL0     C94407   3.193   6.821   1.017  0.1477 -0.1052  0.5093
  700MOL0     C94408   3.186   6.880   0.865  0.6653 -0.6823  0.1129
  700MOL0     C94409   3.073   6.835   0.773  0.0498  0.5506 -0.5113
  700MOL0    Cl94410   2.911   6.871   0.855  0.9415  0.1922  0.2715
  700MOL0     C94411   3.494   6.087   1.479 -0.6848  0.1416 -0.3743
  700MOL0     C94412   3.509   5.941   1.477  0.5759 -0.5702 -0.4038
  700MOL0     O94413   3.667   5.705   1.446 -0.4882  0.2339  0.0112
  700MOL0     C94414   3.408   5.463   1.387  0.1314  1.0319  0.7754
  700MOL0     C94415   3.369   5.328   1.418  0.4858  0.3092  0.5735
  700MOL0     N94416   3.001   5.419   1.586 -0.3134 -0.3369 -0.1478
  700MOL0     N94417   2.924   5.520   1.553  0.3354  0.9433 -0.2213
  700MOL0     C94418   2.092   5.665   0.876 -0.8555  0.2159  1.8389
  700MOL0     C94419   2.114   5.711   0.741 -0.9998 -0.2952 -0.7712
  700MOL0     C94420   2.273   5.704   0.318  0.3205  0.8730 -0.1870
  700MOL0     C94421   2.219   5.824   0.276  0.8563 -0.5781 -0.0821
  700MOL0     C94422   2.232   5.863   0.148  0.7231 -0.0893  0.1096
  700MOL0     C94423   2.310   5.790   0.049 -0.2205 -0.1971 -0.0386
  700MOL0     O94424   2.316   5.817  -0.084  0.4141  0.6950 -0.8763
  700MOL0     C94425   2.260   5.938  -0.136 -1.2882 -0.0440  0.8654
  700MOL0     C94426   2.122   5.906  -0.178  0.8186  0.1479  0.4137
  700MOL0     C94427   2.109   5.785  -0.265 -0.2333 -0.4269  0.4935
  700MOL0     C94428   1.977   5.802  -0.343 -0.9075  0.1566  0.0141
  700MOL0     C94429   1.999   5.895  -0.454 -0.2506 -0.3578  0.3944
  700MOL0     C94430   2.005   5.989  -0.524  0.5161 -0.6280 -0.3958
  700MOL0     C94431   2.381   5.675   0.094 -0.1987  0.3878  0.2305
  700MOL0     C94432   2.360   5.630   0.228 -0.0527 -0.0369  0.0097
  700MOL0     H94433   2.455   5.664   0.722  0.4781  2.3688 -0.5048
  700MOL0     H94434   2.417   5.590   0.952 -1.7952 -1.5390  1.6421
  700MOL0     H94435   2.078   5.683   1.156  1.9883 -0.1205 -3.0332
  700MOL0     H94436   2.025   5.515   1.102 -0.0747 -0.3415 -0.2749
  700MOL0     H94437   1.985   5.511   1.328 -0.3536  0.7512 -1.1849
  700MOL0     H94438   2.133   5.417   1.287  0.0106  0.2068  1.1464
  700MOL0     H94439   2.252   5.639   1.329  0.5499 -0.7018  0.6699
  700MOL0     H94440   2.104   5.686   1.422 -0.4801  0.5099 -0.0692
  700MOL0     H94441   2.192   5.590   1.596 -0.2294  1.4111 -1.5972
  700MOL0     H94442   2.134   5.439   1.526 -1.0165  0.4891  3.0002
  700MOL0     H94443   2.347   5.399   1.623  0.9064  1.7553  0.4402
  700MOL0     H94444   2.374   5.402   1.439  1.9431  0.7935 -0.1791
  700MOL0     H94445   2.456   5.626   1.470 -0.1053 -0.8758 -1.2896
  700MOL0     H94446   2.432   5.622   1.638  2.5848  4.2071 -3.2495
  700MOL0     H94447   2.580   5.409   1.643  1.6558 -0.5638 -1.2053
  700MOL0     H94448   2.612   5.447   1.472  1.2013  2.0201 -0.7232
  700MOL0     H94449   2.677   5.647   1.705  2.3602  1.5323 -0.4934
  700MOL0     H94450   2.715   5.662   1.539 -0.3912 -1.2773 -1.2304
  700MOL0     H94451   2.775   5.391   1.820  2.0483  0.8437  1.6844
  700MOL0     H94452   3.088   5.238   1.837  0.6837 -1.7135 -0.4141
  700MOL0     H94453   2.926   5.185   1.829  2.3657 -1.5443  0.9246
  700MOL0     H94454   3.017   5.152   1.562  1.3772 -0.5551 -1.3397
  700MOL0     H94455   3.040   5.022   1.677 -2.8377  0.6510 -0.5221
  700MOL0     H94456   3.260   5.126   1.746  1.3236  2.4783 -0.7621
  700MOL0     H94457   3.221   5.258   1.635 -1.5086 -0.0050 -0.3732
  700MOL0     H94458   3.250   5.082   1.437 -1.4836 -0.8678 -0.2164
  700MOL0     H94459   3.299   4.978   1.579 -1.5971  0.5604  1.6522
  700MOL0     H94460   3.658   5.237   1.581 -0.6350 -0.1584  3.2759
  700MOL0     H94461   3.813   5.505   1.395  0.9360 -0.1902 -0.2016
  700MOL0     H94462   3.807   5.526   1.568  2.2302  0.8264 -1.6297
  700MOL0     H94463   3.841   5.362   1.495  1.6686  1.6531  0.9461
  700MOL0     H94464   3.458   5.894   1.144  0.1545  0.7833 -0.9934
  700MOL0     H94465   3.459   6.145   1.135 -0.9714 -0.7784 -0.6293
  700MOL0     H94466   3.526   6.360   1.163  0.7974  1.5617  1.1196
  700MOL0     H94467   3.344   6.346   1.204 -1.3977  2.1810  2.1785
  700MOL0     H94468   3.352   6.513   1.338  2.5724 -1.8956  1.2398
  700MOL0     H94469   3.519   6.548   1.317 -1.9841  0.0784  2.7851
  700MOL0     H94470   3.285   6.561   1.099  0.3374  3.0333 -2.2007
  700MOL0     H94471   3.446   6.577   1.057 -0.1923  0.8519 -0.5860
  700MOL0     H94472   3.302   6.772   1.260  2.7474  0.6390  0.8858
  700MOL0     H94473   3.473   6.793   1.211  1.4381  2.9644 -2.4823
  700MOL0     H94474   3.401   6.817   0.986 -1.7484 -2.4453 -1.0530
  700MOL0     H94475   3.338   6.941   1.102  0.5956  1.1278 -1.9503
  700MOL0     H94476   3.180   6.713   1.009 -0.5424 -0.0693  1.0990
  700MOL0     H94477   3.116   6.868   1.079 -1.2589  0.5661 -1.6414
  700MOL0     H94478   3.280   6.858   0.813  1.2924 -0.8772  1.3081
  700MOL0     H94479   3.185   6.989   0.879 -0.2752 -0.8097  1.1870
  700MOL0     H94480   3.078   6.731   0.740 -4.1026  0.2290 -0.6498
  700MOL0     H94481   3.078   6.900   0.685  0.2134 -0.7713 -1.5083
  700MOL0     H94482   3.522   6.140   1.569 -1.6264 -1.1425  0.7083
  700MOL0     H94483   3.528   5.894   1.573 -2.0126  1.0233  1.0113
  700MOL0     H94484   3.332   5.523   1.337 -3.2308  0.0376  4.2134
  700MOL0     H94485   3.268   5.297   1.392 -1.0382 -1.2768  6.7535
  700MOL0     H94486   1.990   5.670   0.913 -1.3493  0.5215  0.5101
  700MOL0     H94487   2.017   5.737   0.698 -1.7962 -4.1685 -1.6594
  700MOL0     H94488   2.169   5.891   0.345  1.6187  1.0080 -1.0160
  700MOL0     H94489   2.170   5.946   0.117  0.8650 -0.2195 -0.5417
  700MOL0     H94490   2.267   6.016  -0.059 -1.7127 -0.1494  1.0101
  700MOL0     H94491   2.311   5.979  -0.224 -2.4330  2.9831  1.4953
  700MOL0     H94492   2.087   5.993  -0.235  2.0828  0.4537  0.0573
  700MOL0     H94493   2.054   5.913  -0.092 -0.7501  1.9695 -0.8952
  700MOL0     H94494   2.096   5.690  -0.212  0.5381 -2.0660 -2.0416
  700MOL0     H94495   2.198   5.781  -0.328  1.1043 -0.9448  2.3447
  700MOL0     H94496   1.896   5.836  -0.278 -2.1874  0.9485 -1.8854
  700MOL0     H94497   1.949   5.704  -0.383 -5.4170  1.4377 -0.5702
  700MOL0     H94498   2.012   6.090  -0.558 -0.9738  0.7749  2.9736
  700MOL0     H94499   2.450   5.623   0.029 -1.1400 -2.5084  1.4093
  700MOL0     H94500   2.409   5.547   0.279 -2.1222  0.8334  3.7140
  701MOL0     O94501  10.436   0.758   9.564 -0.0956 -1.5390 -0.4202
  701MOL0     C94502  10.428   0.691   9.464  0.0991 -0.3110 -1.2302
  701MOL0     O94503  10.534   0.655   9.392  0.2127 -0.7072 -0.1670
  701MOL0     C94504  10.665   0.697   9.421  0.4002  0.6304  1.2573
  701MOL0     C94505  10.730   0.669   9.538 -0.0335 -0.1929  0.0694
  701MOL0     C94506  10.865   0.682   9.548  0.4072 -0.1560 -0.4926
  701MOL0     C94507  10.944   0.728   9.444 -0.3833  0.4186  0.7038
  701MOL0     O94508  11.077   0.755   9.450 -0.1206  0.1620 -0.2149
  701MOL0     C94509  11.132   0.798   9.571  0.4897  0.7999 -0.4981
  701MOL0     C94510  11.214   0.914   9.522 -0.4672 -0.4472 -0.1346
  701MOL0     C94511  11.127   1.042   9.524  0.8913  0.9180 -1.2444
  701MOL0     C94512  11.062   1.091   9.653 -0.3544  0.3872 -0.4533
  701MOL0     C94513  11.015   1.227   9.635  0.2907 -0.7492  0.6217
  701MOL0     C94514  11.009   1.295   9.777  0.3204 -0.1333 -0.3845
  701MOL0     C94515  10.975   1.444   9.766 -0.4764  0.6641 -0.6174
  701MOL0     C94516  10.953   1.498   9.909 -0.1577 -0.3671 -0.3888
  701MOL0     N94517  11.068   1.474   9.995  0.9595 -0.0364 -0.1775
  701MOL0     C94518  11.184   1.553  10.005  1.7142  0.4448  0.6997
  701MOL0     C94519  11.249   1.512  10.109  0.5393  1.0185  0.6904
  701MOL0     C94520  11.375   1.562  10.166 -0.2982 -0.1375 -0.0532
  701MOL0     C94521  11.460   1.442  10.210 -0.3520  0.1666  0.4300
  701MOL0     C94522  11.593   1.475  10.275 -0.0585 -1.2029 -0.2148
  701MOL0     C94523  11.664   1.360  10.346  1.0593  0.4857  0.4020
  701MOL0     O94524  11.772   1.319  10.258  0.1439  0.8278  0.4128
  701MOL0     C94525  11.889   1.269  10.313  0.2661 -0.3646  0.2791
  701MOL0     C94526  11.994   1.272  10.230  0.1722 -1.2773 -0.7166
  701MOL0     C94527  12.127   1.243  10.260  0.3900  0.3258  0.0807
  701MOL0     C94528  12.243   1.270  10.160  0.1780  0.1030  0.5409
  701MOL0     C94529  12.152   1.212  10.397 -0.2232  0.2540 -0.0646
  701MOL0     C94530  12.295   1.198  10.456 -0.7851  1.1293 -0.1357
  701MOL0     O94531  12.383   1.300  10.428  0.7352  0.1780 -0.6094
  701MOL0     C94532  12.514   1.277  10.442 -0.5827  0.5853  0.4611
  701MOL0     C94533  12.596   1.315  10.545  0.2318  0.4904  0.3367
  701MOL0     C94534  12.729   1.300  10.553 -0.1839 -0.2732  0.4092
  701MOL0     C94535  12.798   1.231  10.449  0.2716 -0.1219  0.4822
  701MOL0     O94536  12.931   1.218  10.437 -0.1705  0.7349 -0.0934
  701MOL0     C94537  13.009   1.197  10.561 -0.0031 -0.0400  0.6441
  701MOL0     C94538  13.154   1.252  10.536 -0.3059 -0.8487  0.0944
  701MOL0     C94539  13.138   1.406  10.487  0.5201  0.9162 -0.5251
  701MOL0     C94540  13.260   1.489  10.533  0.7476 -0.9973  0.0922
  701MOL0     C94541  13.268   1.615  10.450  0.0646 -0.2140  0.5491
  701MOL0     C94542  13.368   1.724  10.491  0.3253  0.0256  0.1160
  701MOL0     C94543  13.323   1.865  10.440  1.1592  0.4735  1.4741
  701MOL0     C94544  13.405   1.980  10.493 -0.5709 -0.4228  0.0490
  701MOL0    Cl94545  13.375   1.984  10.676 -0.3854 -0.0406 -0.1564
  701MOL0     C94546  12.719   1.183  10.342  0.6956  0.1953 -0.2551
  701MOL0     C94547  12.575   1.192  10.345  0.8915  0.2132 -0.2586
  701MOL0     O94548  12.316   1.100  10.523 -0.2515 -0.3699  0.1580
  701MOL0     C94549  12.041   1.184  10.480 -0.0456  0.6442 -1.2152
  701MOL0     C94550  11.909   1.217  10.441  0.0192 -0.1833  0.0646
  701MOL0     N94551  11.174   1.417  10.175  0.4038  0.1377 -0.6296
  701MOL0     N94552  11.062   1.396  10.102 -0.1757  0.1262 -0.1705
  701MOL0     C94553  10.879   0.742   9.322 -0.0880 -1.0400  0.7143
  701MOL0     C94554  10.742   0.733   9.310 -0.5352 -0.2958 -0.5241
  701MOL0     C94555  10.294   0.631   9.432 -0.6807 -0.5675  0.1174
  701MOL0     C94556  10.188   0.619   9.519 -0.3235  0.5194 -1.0190
  701MOL0     C94557  10.063   0.561   9.488 -0.0704 -0.1737 -0.1853
  701MOL0     C94558  10.047   0.502   9.358  0.1852  0.9731 -0.0621
  701MOL0     O94559   9.922   0.442   9.344  0.0198 -0.3055  0.3740
  701MOL0     C94560   9.875   0.407   9.216 -0.3839 -0.4235 -0.1444
  701MOL0     C94561   9.743   0.322   9.224  0.3933  0.3074 -0.7675
  701MOL0     C94562   9.634   0.384   9.316 -0.3954 -0.3860 -0.2414
  701MOL0     C94563   9.534   0.275   9.377 -0.4389 -0.3955 -0.6056
  701MOL0     C94564   9.464   0.211   9.269  0.2024 -0.3819 -0.0507
  701MOL0     C94565   9.389   0.152   9.198  0.1645  1.3876 -0.4192
  701MOL0     C94566  10.146   0.527   9.262  0.1030  0.7901  0.3015
  701MOL0     C94567  10.262   0.599   9.297  0.1304 -0.2713 -1.3781
  701MOL0     H94568  10.666   0.631   9.617 -0.9290  2.3195  0.6592
  701MOL0     H94569  10.910   0.658   9.643 -2.2279  1.9530  1.4463
  701MOL0     H94570  11.043   0.837   9.620 -0.6467  1.2153 -2.7299
  701MOL0     H94571  11.180   0.717   9.626 -2.0427 -0.2059  0.3766
  701MOL0     H94572  11.301   0.929   9.587  0.6250  0.2240 -1.6774
  701MOL0     H94573  11.247   0.909   9.417 -0.8196  0.9006 -0.3272
  701MOL0     H94574  11.179   1.123   9.472 -1.7450  3.2423 -0.5291
  701MOL0     H94575  11.041   1.020   9.461  1.2297 -0.9571 -1.1044
  701MOL0     H94576  10.971   1.042   9.690 -1.1129  2.7324  0.9980
  701MOL0     H94577  11.141   1.100   9.728 -1.9898  0.6829  1.3144
  701MOL0     H94578  11.084   1.290   9.579 -0.2218 -3.5773 -3.6876
  701MOL0     H94579  10.918   1.234   9.584  0.7926  1.6626 -0.1049
  701MOL0     H94580  10.932   1.259   9.845  0.0460  0.8419 -0.1645
  701MOL0     H94581  11.104   1.275   9.828 -0.3145  0.8269  1.2306
  701MOL0     H94582  11.055   1.499   9.716  1.0660  0.2514  1.2368
  701MOL0     H94583  10.887   1.456   9.703 -0.9873  2.6079  0.4173
  701MOL0     H94584  10.866   1.458   9.962  0.8073 -2.2303 -0.1349
  701MOL0     H94585  10.943   1.607   9.912  0.0060 -0.3118 -1.4287
  701MOL0     H94586  11.221   1.626   9.934 -0.1952  1.4068  0.6552
  701MOL0     H94587  11.427   1.624  10.092  0.5291  0.6497  1.1591
  701MOL0     H94588  11.347   1.628  10.249 -1.1058 -3.3933  2.4720
  701MOL0     H94589  11.473   1.371  10.128  0.8279 -0.0060  0.7442
  701MOL0     H94590  11.408   1.387  10.290 -1.0591  3.2248  2.2227
  701MOL0     H94591  11.565   1.544  10.355  2.6206  1.6236 -1.4714
  701MOL0     H94592  11.653   1.533  10.203  1.5199 -2.3836  0.0892
  701MOL0     H94593  11.586   1.283  10.352  0.7359  0.9153  2.1103
  701MOL0     H94594  11.699   1.388  10.445  0.0037  0.5466  0.7668
  701MOL0     H94595  11.965   1.304  10.131  0.4783 -0.2993 -0.5026
  701MOL0     H94596  12.217   1.247  10.057  1.4863 -0.1587  0.2532
  701MOL0     H94597  12.280   1.372  10.169  2.3292 -0.1085 -3.6325
  701MOL0     H94598  12.328   1.209  10.193  0.5154 -0.2982 -1.0137
  701MOL0     H94599  12.537   1.365  10.621 -1.0077 -0.5676  0.1216
  701MOL0     H94600  12.792   1.345  10.629 -1.1603  2.2515 -0.1614
  701MOL0     H94601  12.966   1.231  10.656 -0.9261 -0.4721  0.3983
  701MOL0     H94602  13.006   1.088  10.577 -2.0956  0.1061  1.5968
  701MOL0     H94603  13.200   1.245  10.635 -0.7676  1.6842  0.5628
  701MOL0     H94604  13.213   1.196  10.464  0.5733  0.7598 -0.4846
  701MOL0     H94605  13.050   1.453  10.532 -0.2520 -0.6590 -0.3183
  701MOL0     H94606  13.120   1.402  10.379 -1.2865 -3.1356 -0.2598
  701MOL0     H94607  13.260   1.517  10.638  0.8088  2.6369 -0.7348
  701MOL0     H94608  13.351   1.431  10.515  0.1754 -1.0623 -3.3695
  701MOL0     H94609  13.173   1.669  10.463  0.4726  0.1102  2.4716
  701MOL0     H94610  13.277   1.587  10.345 -2.2906 -0.3009  0.3209
  701MOL0     H94611  13.382   1.733  10.599  2.8137 -1.4458 -0.0148
  701MOL0     H94612  13.470   1.706  10.456 -0.6028 -2.3014 -1.6275
  701MOL0     H94613  13.220   1.877  10.475  0.4063  0.9295 -0.7258
  701MOL0     H94614  13.332   1.850  10.332  0.0017 -1.6941  1.6394
  701MOL0     H94615  13.397   2.068  10.429 -1.2881 -0.0663  0.6078
  701MOL0     H94616  13.511   1.954  10.484 -0.2017  1.2447 -0.7090
  701MOL0     H94617  12.758   1.116  10.266 -2.1691 -3.1420  0.9176
  701MOL0     H94618  12.523   1.147  10.262 -0.0235 -1.0923  0.9657
  701MOL0     H94619  12.063   1.148  10.580 -0.3696  2.3318 -0.5015
  701MOL0     H94620  11.840   1.204  10.524  2.1644 -0.8280  1.8327
  701MOL0     H94621  10.946   0.764   9.240  0.2079 -1.9318  0.6983
  701MOL0     H94622  10.696   0.762   9.216  1.9551  2.2686 -1.1017
  701MOL0     H94623  10.179   0.656   9.621 -0.2383 -2.3165  0.1079
  701MOL0     H94624   9.984   0.553   9.562  0.6726 -1.4394  0.4857
  701MOL0     H94625   9.859   0.499   9.159  1.7566  0.2933  0.2993
  701MOL0     H94626   9.942   0.340   9.161 -0.3436 -1.1604  0.7805
  701MOL0     H94627   9.754   0.217   9.253 -1.6264  0.6629  1.7108
  701MOL0     H94628   9.695   0.324   9.125  1.3572 -2.5179 -1.3938
  701MOL0     H94629   9.583   0.466   9.263  1.3726  0.0075 -1.4024
  701MOL0     H94630   9.696   0.435   9.390 -1.8321 -0.5635  1.1339
  701MOL0     H94631   9.459   0.324   9.440 -1.8594 -1.7787 -1.1622
  701MOL0     H94632   9.577   0.208   9.452 -2.8965  1.5008  2.8000
  701MOL0     H94633   9.322   0.096   9.137  1.0298  0.5475 -0.6144
  701MOL0     H94634  10.128   0.509   9.157  1.8909  2.2475 -0.2968
  701MOL0     H94635  10.325   0.638   9.219 -1.5676 -0.0733 -2.7062
  702MOL0     O94636   1.022   7.964   9.479 -0.0208  0.4870  0.7409
  702MOL0     C94637   1.046   8.018   9.588  0.6651 -0.1164  1.0130
  702MOL0     O94638   0.964   8.104   9.656  1.0039 -0.7459 -0.7762
  702MOL0     C94639   0.849   8.145   9.587 -0.2092 -0.7153  0.4721
  702MOL0     C94640   0.735   8.080   9.623  0.4701  0.5819 -0.2810
  702MOL0     C94641   0.615   8.109   9.558 -0.4085 -0.3069 -0.2976
  702MOL0     C94642   0.610   8.215   9.460  0.1701  0.2883  0.0779
  702MOL0     O94643   0.487   8.248   9.430  0.0941 -1.0003  0.9304
  702MOL0     C94644   0.455   8.371   9.357  0.3514  0.4131  0.2738
  702MOL0     C94645   0.302   8.381   9.334 -0.7817  0.9043 -0.5180
  702MOL0     C94646   0.213   8.427   9.452  0.0287 -0.0998  0.2588
  702MOL0     C94647   0.078   8.441   9.390 -0.3235  0.2427  0.5895
  702MOL0     C94648  -0.032   8.485   9.481  0.2195  0.0892  0.3859
  702MOL0     C94649  -0.048   8.628   9.507  0.2991  0.2124  0.2876
  702MOL0     C94650  -0.148   8.661   9.606  0.1636 -0.1704 -0.2362
  702MOL0     C94651  -0.296   8.621   9.566  0.5679  0.4485 -0.0177
  702MOL0     N94652  -0.353   8.699   9.454  0.3451 -0.2108 -0.0807
  702MOL0     C94653  -0.376   8.833   9.448  0.0414  0.3351 -0.1377
  702MOL0     C94654  -0.440   8.862   9.330 -0.6702  0.4774  0.6498
  702MOL0     C94655  -0.485   8.997   9.271 -0.4849  0.6010 -0.4485
  702MOL0     C94656  -0.627   9.009   9.226  0.4733 -0.2279  0.2276
  702MOL0     C94657  -0.721   8.985   9.350 -0.0828  0.4322  0.4081
  702MOL0     C94658  -0.870   8.958   9.306  0.8147  0.4194  0.3568
  702MOL0     O94659  -0.870   8.822   9.274  0.0146 -0.1388  1.3414
  702MOL0     C94660  -0.984   8.780   9.222  0.1069 -0.0348 -0.1407
  702MOL0     C94661  -1.003   8.811   9.087  0.4397  0.0523 -0.0981
  702MOL0     C94662  -1.115   8.761   9.015 -0.2418  0.7511 -1.1287
  702MOL0     C94663  -1.135   8.820   8.876 -0.3359 -0.0121 -0.3036
  702MOL0     C94664  -1.212   8.685   9.085 -0.4555  1.0587 -0.9065
  702MOL0     C94665  -1.333   8.631   9.015  0.4567 -0.1128  0.6951
  702MOL0     O94666  -1.443   8.615   9.096  0.7486 -0.3680  0.3837
  702MOL0     C94667  -1.561   8.561   9.031  0.3952 -0.4433  0.5217
  702MOL0     C94668  -1.673   8.640   9.020 -0.5347  0.8298 -0.5826
  702MOL0     C94669  -1.784   8.602   8.951 -0.2472 -1.3576 -0.6140
  702MOL0     C94670  -1.784   8.481   8.887  0.3100  0.8361  0.6865
  702MOL0     O94671  -1.896   8.423   8.824 -0.0124 -0.6897  0.0416
  702MOL0     C94672  -2.009   8.492   8.775 -0.8516 -0.3723 -0.3897
  702MOL0     C94673  -2.127   8.502   8.873  0.2847 -0.2976  1.2550
  702MOL0     C94674  -2.238   8.578   8.800  0.1778  0.1023 -1.1337
  702MOL0     C94675  -2.225   8.728   8.816 -0.0930 -0.2927  0.0594
  702MOL0     C94676  -2.346   8.815   8.764 -0.7989  0.1439 -0.1650
  702MOL0     C94677  -2.387   8.793   8.620  0.3204 -0.1295  0.6123
  702MOL0     C94678  -2.524   8.865   8.606 -0.0412  0.5569 -0.5676
  702MOL0     C94679  -2.579   8.847   8.465  0.1916 -0.4092 -0.6491
  702MOL0    Cl94680  -2.757   8.858   8.478 -0.1003  0.0255 -0.1660
  702MOL0     C94681  -1.672   8.397   8.895  1.0196 -0.3087 -0.7758
  702MOL0     C94682  -1.556   8.438   8.976  0.4138 -0.4919 -0.5159
  702MOL0     O94683  -1.331   8.611   8.893 -0.6188  0.0703 -0.0811
  702MOL0     C94684  -1.199   8.665   9.225  0.0391  0.4393  0.0088
  702MOL0     C94685  -1.084   8.712   9.298  0.0026 -0.0228  0.0043
  702MOL0     N94686  -0.463   8.734   9.270  0.5821  0.8810  0.1316
  702MOL0     N94687  -0.412   8.641   9.342  0.5950  0.5898 -0.4094
  702MOL0     C94688   0.719   8.271   9.421 -0.2496  1.0675 -0.4575
  702MOL0     C94689   0.843   8.240   9.483 -0.1982 -0.4099 -0.1852
  702MOL0     C94690   1.178   8.004   9.648  0.0077 -0.3819  0.4473
  702MOL0     C94691   1.236   8.111   9.722  0.6740  0.1046 -0.0769
  702MOL0     C94692   1.370   8.105   9.767  0.3081  0.6045  0.1752
  702MOL0     C94693   1.451   7.992   9.726  0.1044 -0.3765 -0.3636
  702MOL0     O94694   1.581   7.980   9.764  0.0722  0.2351 -0.3435
  702MOL0     C94695   1.622   8.052   9.876 -0.3096 -0.1024  0.3473
  702MOL0     C94696   1.767   8.008   9.926  0.8221 -0.0074  0.4489
  702MOL0     C94697   1.865   8.009   9.814 -0.2911  0.0161 -0.9770
  702MOL0     C94698   1.906   7.870   9.770  0.5373 -0.2640 -0.1290
  702MOL0     C94699   2.002   7.802   9.865  0.3208 -0.5598 -0.5276
  702MOL0     C94700   2.082   7.724   9.908 -0.6297 -0.6093  0.2208
  702MOL0     C94701   1.397   7.883   9.665 -1.1255  0.2520  0.0933
  702MOL0     C94702   1.263   7.887   9.620  0.0400  0.3376 -0.4545
  702MOL0     H94703   0.721   8.008   9.703 -0.7693  2.9317  1.7423
  702MOL0     H94704   0.523   8.064   9.594 -0.1880 -0.0245  0.6723
  702MOL0     H94705   0.473   8.456   9.423  1.5624  0.2483  0.1778
  702MOL0     H94706   0.505   8.384   9.261 -2.0207 -0.9768 -1.2536
  702MOL0     H94707   0.288   8.454   9.253 -0.4753 -0.1006 -1.5023
  702MOL0     H94708   0.266   8.286   9.294 -0.8534  0.3349  0.8458
  702MOL0     H94709   0.206   8.349   9.528  0.5643 -0.7538 -0.3513
  702MOL0     H94710   0.247   8.524   9.489 -3.3373  0.6811  1.7053
  702MOL0     H94711   0.088   8.514   9.309 -2.2959 -0.6833 -0.5486
  702MOL0     H94712   0.051   8.352   9.334 -1.6132  2.2073 -2.1597
  702MOL0     H94713  -0.125   8.452   9.435  0.4521 -1.0636  0.7234
  702MOL0     H94714  -0.030   8.434   9.577  2.4957  0.0874  0.3946
  702MOL0     H94715   0.048   8.672   9.534 -0.3640  1.6105  0.4513
  702MOL0     H94716  -0.085   8.674   9.414 -1.9427  0.2799  1.1505
  702MOL0     H94717  -0.123   8.606   9.697  1.6481 -0.9855 -1.1023
  702MOL0     H94718  -0.146   8.768   9.629  0.2058 -0.1141 -0.4931
  702MOL0     H94719  -0.361   8.639   9.653 -1.9511 -1.1207 -1.4300
  702MOL0     H94720  -0.289   8.514   9.547  0.5053  0.4302  0.0608
  702MOL0     H94721  -0.353   8.899   9.531  1.2000 -1.2396  0.8570
  702MOL0     H94722  -0.463   9.073   9.346 -0.5422 -1.1281  1.4366
  702MOL0     H94723  -0.437   9.009   9.174 -1.9060 -1.3530 -1.4783
  702MOL0     H94724  -0.639   8.931   9.150  1.0161  0.6848 -0.8152
  702MOL0     H94725  -0.645   9.110   9.191  1.1786 -0.2458 -0.2155
  702MOL0     H94726  -0.709   9.069   9.419  1.1101  0.4525  0.1942
  702MOL0     H94727  -0.683   8.908   9.418  3.2617  1.3998 -0.1802
  702MOL0     H94728  -0.912   9.015   9.223 -0.2543 -1.6993 -0.6399
  702MOL0     H94729  -0.934   8.968   9.394  1.0943 -1.3843  0.7988
  702MOL0     H94730  -0.926   8.863   9.030  0.6966 -2.7539 -2.5570
  702MOL0     H94731  -1.235   8.865   8.867  0.3685  1.4848 -1.0215
  702MOL0     H94732  -1.066   8.903   8.859  2.8220 -2.0985  1.3371
  702MOL0     H94733  -1.124   8.748   8.794  1.7068  1.2570 -1.2205
  702MOL0     H94734  -1.657   8.733   9.075  1.9553  0.0334  0.1900
  702MOL0     H94735  -1.871   8.666   8.943  1.4099  1.0141 -0.5935
  702MOL0     H94736  -1.981   8.591   8.738 -1.3542  1.2901  3.2793
  702MOL0     H94737  -2.054   8.435   8.693 -1.3489 -0.3214 -0.1605
  702MOL0     H94738  -2.172   8.405   8.892 -0.4952  0.2409  2.1885
  702MOL0     H94739  -2.097   8.549   8.967  0.6168  0.8622  0.6037
  702MOL0     H94740  -2.336   8.542   8.834 -1.7382  2.3728 -3.7722
  702MOL0     H94741  -2.242   8.548   8.695 -0.6618 -2.5850 -0.4308
  702MOL0     H94742  -2.216   8.753   8.922 -4.6647  1.1116  0.3492
  702MOL0     H94743  -2.132   8.750   8.762 -0.8961 -0.6749 -1.5615
  702MOL0     H94744  -2.329   8.923   8.775  0.6305 -0.1037  0.2358
  702MOL0     H94745  -2.425   8.781   8.831 -0.8111 -1.7621 -1.0913
  702MOL0     H94746  -2.322   8.849   8.553  1.4983  1.3141  2.8140
  702MOL0     H94747  -2.396   8.686   8.599 -1.5049 -0.1467  1.2405
  702MOL0     H94748  -2.527   8.965   8.650  1.3972  0.0624  0.7859
  702MOL0     H94749  -2.594   8.809   8.669 -0.5660 -0.9387 -2.3845
  702MOL0     H94750  -2.542   8.747   8.440  2.4350 -0.3310  1.8643
  702MOL0     H94751  -2.536   8.908   8.386  1.6352  0.0220  0.4238
  702MOL0     H94752  -1.668   8.296   8.855 -0.4181 -0.4936 -0.4892
  702MOL0     H94753  -1.468   8.374   8.976  0.4019 -0.5346  0.8312
  702MOL0     H94754  -1.282   8.620   9.279 -0.6106 -1.2522 -2.2097
  702MOL0     H94755  -1.074   8.713   9.406  0.7036 -0.1063 -0.0524
  702MOL0     H94756   0.723   8.359   9.357 -1.5925  0.6495 -1.1359
  702MOL0     H94757   0.924   8.294   9.436 -1.5244 -0.0875 -2.2221
  702MOL0     H94758   1.186   8.204   9.747 -3.1983 -1.3231 -1.6833
  702MOL0     H94759   1.417   8.182   9.826  2.2722  0.2353 -0.8135
  702MOL0     H94760   1.620   8.158   9.850  0.7357  0.9483  3.9506
  702MOL0     H94761   1.544   8.035   9.952 -1.8363 -2.4399 -1.5911
  702MOL0     H94762   1.754   7.910   9.973  2.3039  0.3145  1.5792
  702MOL0     H94763   1.809   8.073  10.003  0.3756  0.1262  0.5837
  702MOL0     H94764   1.953   8.070   9.838  0.6262 -1.0797 -1.4890
  702MOL0     H94765   1.819   8.064   9.731 -0.5141  2.0915  0.4601
  702MOL0     H94766   1.963   7.876   9.677  1.2071 -0.1520  0.2813
  702MOL0     H94767   1.821   7.803   9.754 -0.9213  0.7915  2.4995
  702MOL0     H94768   2.160   7.667   9.955 -0.9771 -0.6280  0.7713
  702MOL0     H94769   1.466   7.802   9.648  2.9357  2.9340  2.2859
  702MOL0     H94770   1.228   7.815   9.547 -0.5806  1.2806 -1.1129
  703MOL0     O94771  10.956   8.591   0.385  0.4347  0.0559  0.3310
  703MOL0     C94772  10.833   8.596   0.366  0.5647  0.0461 -0.4161
  703MOL0     O94773  10.761   8.534   0.266 -1.0758 -0.3830  0.5252
  703MOL0     C94774  10.810   8.446   0.176 -0.1167 -0.2002  1.0365
  703MOL0     C94775  10.714   8.359   0.120  0.7101  0.4292 -0.9020
  703MOL0     C94776  10.755   8.248   0.040  0.3196  0.0513  0.0554
  703MOL0     C94777  10.882   8.234  -0.012  0.1750  0.4076  0.2153
  703MOL0     O94778  10.910   8.131  -0.095  0.1693  0.1141  0.5179
  703MOL0     C94779  10.829   8.137  -0.217  0.4057  0.6952  0.6427
  703MOL0     C94780  10.771   7.993  -0.233 -0.5212 -0.1240  0.1193
  703MOL0     C94781  10.727   7.961  -0.378 -0.1261  0.4035 -0.0676
  703MOL0     C94782  10.685   7.816  -0.408 -0.5824 -0.0768 -0.8920
  703MOL0     C94783  10.545   7.773  -0.344 -0.9220  0.5368  0.0946
  703MOL0     C94784  10.432   7.777  -0.450  0.2451 -0.1758 -0.0917
  703MOL0     C94785  10.306   7.711  -0.389 -0.8015  0.6106 -0.0234
  703MOL0     C94786  10.174   7.760  -0.457 -0.7235  0.9022 -0.4528
  703MOL0     N94787  10.056   7.733  -0.374  0.2892  0.1311  0.1030
  703MOL0     C94788  10.021   7.802  -0.261 -0.6422 -0.3831  0.3721
  703MOL0     C94789   9.921   7.741  -0.194 -0.1334 -0.5852  0.5351
  703MOL0     C94790   9.839   7.796  -0.077 -0.1198 -0.4610  0.8852
  703MOL0     C94791   9.699   7.812  -0.107 -0.1917  0.2030  0.4306
  703MOL0     C94792   9.659   7.904  -0.220  0.4099 -1.0255  0.0757
  703MOL0     C94793   9.539   7.994  -0.166 -0.0984 -0.1402  0.1102
  703MOL0     O94794   9.535   8.112  -0.253  1.1241 -0.6659 -0.5514
  703MOL0     C94795   9.413   8.190  -0.275 -0.4953  0.6513  0.1614
  703MOL0     C94796   9.411   8.255  -0.399 -0.4983  0.6534 -0.9834
  703MOL0     C94797   9.299   8.328  -0.443  0.0433  0.3748 -0.3735
  703MOL0     C94798   9.305   8.388  -0.578  0.5293  0.3048  0.4310
  703MOL0     C94799   9.192   8.340  -0.354 -0.4676 -0.5701  0.3969
  703MOL0     C94800   9.082   8.433  -0.370  0.2286  0.0430 -0.6533
  703MOL0     O94801   8.965   8.370  -0.350  0.1338  0.4259  0.4315
  703MOL0     C94802   8.853   8.434  -0.313 -0.1984  0.3094  0.8110
  703MOL0     C94803   8.768   8.354  -0.231  0.2388 -0.7661  0.0184
  703MOL0     C94804   8.637   8.394  -0.199 -0.5097 -0.0452  0.7402
  703MOL0     C94805   8.584   8.512  -0.249 -0.1499 -0.1906  0.1208
  703MOL0     O94806   8.457   8.566  -0.219 -0.6006  0.7005  0.5390
  703MOL0     C94807   8.426   8.705  -0.233 -0.7719 -0.7755  1.2362
  703MOL0     C94808   8.389   8.758  -0.373 -0.3495  0.4496  0.2303
  703MOL0     C94809   8.237   8.717  -0.396 -0.8129  0.1113  0.3282
  703MOL0     C94810   8.168   8.822  -0.476 -0.2131  0.0568  0.7042
  703MOL0     C94811   8.036   8.778  -0.531  0.0953  0.6142  0.3488
  703MOL0     C94812   7.971   8.903  -0.598 -0.4464 -0.5105 -0.4058
  703MOL0     C94813   7.840   8.874  -0.678  1.0082 -0.0503 -0.5006
  703MOL0     C94814   7.864   8.831  -0.821  0.2127 -0.4728 -0.7768
  703MOL0    Cl94815   7.931   8.667  -0.847  0.4991 -0.0570 -0.2209
  703MOL0     C94816   8.669   8.593  -0.334 -1.4686  0.4151  0.6116
  703MOL0     C94817   8.797   8.549  -0.371 -0.0933 -0.1600 -0.2206
  703MOL0     O94818   9.103   8.550  -0.403  0.0807 -0.2748  0.2497
  703MOL0     C94819   9.194   8.285  -0.225 -0.3246  0.1452  0.7604
  703MOL0     C94820   9.312   8.214  -0.188 -0.3776 -0.5331 -0.9202
  703MOL0     N94821   9.906   7.620  -0.255  0.2365 -0.2449 -0.1292
  703MOL0     N94822   9.988   7.614  -0.362  0.0299  0.3832  0.5975
  703MOL0     C94823  10.971   8.323   0.034  0.1608  0.2923 -0.6635
  703MOL0     C94824  10.942   8.430   0.127  0.3811 -1.3950 -0.3768
  703MOL0     C94825  10.745   8.685   0.450 -0.7691  0.5056  0.1270
  703MOL0     C94826  10.806   8.750   0.557 -1.0164 -0.3559 -0.3850
  703MOL0     C94827  10.729   8.836   0.646  0.8475  0.1934  0.2467
  703MOL0     C94828  10.593   8.852   0.619 -0.6330 -1.0230 -0.4643
  703MOL0     O94829  10.520   8.939   0.702  0.1444 -1.2516  0.1124
  703MOL0     C94830  10.458   8.870   0.817 -0.8445 -0.2844  0.0039
  703MOL0     C94831  10.329   8.801   0.779  0.7026 -0.3732 -0.6638
  703MOL0     C94832  10.269   8.723   0.907  0.1840  0.0676  0.5034
  703MOL0     C94833  10.329   8.583   0.911 -0.0501 -1.5572  0.5208
  703MOL0     C94834  10.286   8.514   1.029 -0.2540 -0.5512 -0.3921
  703MOL0     C94835  10.231   8.428   1.099 -0.6604 -0.5239 -0.4990
  703MOL0     C94836  10.535   8.789   0.511 -0.1159 -0.6494  0.6797
  703MOL0     C94837  10.605   8.705   0.426 -0.1390  0.3061 -0.5103
  703MOL0     H94838  10.611   8.357   0.154  1.2056  0.5490  0.6542
  703MOL0     H94839  10.681   8.175   0.009 -1.9397  2.4716 -0.5806
  703MOL0     H94840  10.737   8.196  -0.217 -0.0026  0.2888 -3.1117
  703MOL0     H94841  10.892   8.169  -0.299  1.3096  2.0116  1.8099
  703MOL0     H94842  10.843   7.916  -0.203 -1.7591 -0.4239  2.6256
  703MOL0     H94843  10.688   7.985  -0.162 -0.6696 -0.4107 -0.0822
  703MOL0     H94844  10.634   8.012  -0.403 -0.8845 -1.3776 -1.0839
  703MOL0     H94845  10.807   7.990  -0.447  0.2356  0.4381  0.3591
  703MOL0     H94846  10.686   7.788  -0.514 -1.1836  0.3916 -1.0277
  703MOL0     H94847  10.766   7.757  -0.365 -1.4474  1.1432  2.8252
  703MOL0     H94848  10.560   7.672  -0.305  0.2843  1.3440  1.8271
  703MOL0     H94849  10.520   7.842  -0.263  1.8553  1.0311  0.6064
  703MOL0     H94850  10.427   7.884  -0.475 -1.8264  0.3726  2.2219
  703MOL0     H94851  10.465   7.731  -0.543 -2.1444  1.0822 -1.6714
  703MOL0     H94852  10.323   7.603  -0.396  0.0620  0.7898 -0.8972
  703MOL0     H94853  10.300   7.754  -0.289 -0.3645  0.5064  0.0490
  703MOL0     H94854  10.163   7.719  -0.558  0.0088 -3.0981  0.9096
  703MOL0     H94855  10.180   7.869  -0.471 -1.1265  0.8096 -1.3909
  703MOL0     H94856  10.054   7.905  -0.252  3.2604 -0.8792 -4.3037
  703MOL0     H94857   9.843   7.716  -0.002  0.5769 -0.7214  0.5719
  703MOL0     H94858   9.885   7.889  -0.042  0.0322  0.0262 -0.5396
  703MOL0     H94859   9.640   7.824  -0.015 -1.8595 -3.0760 -0.0645
  703MOL0     H94860   9.659   7.713  -0.134 -0.6850  0.5568 -0.1643
  703MOL0     H94861   9.631   7.848  -0.309  1.6245 -0.8955 -0.4171
  703MOL0     H94862   9.749   7.958  -0.252 -1.3601  0.1287 -3.4321
  703MOL0     H94863   9.563   8.028  -0.065 -1.5643  2.2724 -0.2583
  703MOL0     H94864   9.447   7.935  -0.165 -0.9614  1.0533 -2.0791
  703MOL0     H94865   9.504   8.254  -0.456 -0.2142  2.2805 -0.5971
  703MOL0     H94866   9.295   8.497  -0.573 -0.6679  0.1636  3.4886
  703MOL0     H94867   9.401   8.354  -0.619  1.1496 -1.7433  3.2757
  703MOL0     H94868   9.220   8.354  -0.637 -1.0412  2.4307  1.3370
  703MOL0     H94869   8.787   8.256  -0.189 -0.8513 -1.0858 -0.1886
  703MOL0     H94870   8.571   8.334  -0.137 -3.0623  0.9400 -0.8558
  703MOL0     H94871   8.353   8.728  -0.155  0.0606  0.0831  1.7883
  703MOL0     H94872   8.513   8.762  -0.200 -0.2150 -1.8511  1.6633
  703MOL0     H94873   8.398   8.867  -0.369 -1.0766  0.6833 -2.6425
  703MOL0     H94874   8.458   8.718  -0.447  0.3280  2.7212 -0.4505
  703MOL0     H94875   8.187   8.708  -0.299 -2.1908  3.2104  0.0037
  703MOL0     H94876   8.234   8.616  -0.439  3.6643 -0.8997  1.8302
  703MOL0     H94877   8.160   8.920  -0.429 -1.0660 -0.5466  1.8575
  703MOL0     H94878   8.236   8.840  -0.560  0.7921  1.0416  1.7015
  703MOL0     H94879   7.973   8.741  -0.449 -0.3127 -3.7047 -1.6410
  703MOL0     H94880   8.042   8.703  -0.611 -2.7446 -0.7635  1.2850
  703MOL0     H94881   7.952   8.976  -0.519 -2.0962 -0.9917 -0.3122
  703MOL0     H94882   8.026   8.952  -0.679  1.2901 -4.0675 -1.5466
  703MOL0     H94883   7.784   8.965  -0.702  4.1335  2.0091 -0.6061
  703MOL0     H94884   7.782   8.793  -0.634  2.2879  0.4839  2.4148
  703MOL0     H94885   7.939   8.900  -0.861 -0.0138  0.1868 -0.0790
  703MOL0     H94886   7.777   8.860  -0.881  0.0492 -0.3123 -0.4619
  703MOL0     H94887   8.652   8.695  -0.368  1.3004  0.2548 -1.5992
  703MOL0     H94888   8.854   8.610  -0.440 -1.6170  0.1689 -1.2158
  703MOL0     H94889   9.126   8.315  -0.145 -0.2493 -2.1592  1.7708
  703MOL0     H94890   9.308   8.152  -0.098  3.0588 -0.6350 -0.7282
  703MOL0     H94891  11.075   8.329   0.003  0.2993  3.1288  0.0418
  703MOL0     H94892  11.029   8.486   0.160 -1.2998  1.5719 -0.5608
  703MOL0     H94893  10.911   8.732   0.575 -1.4836 -2.5307  0.4208
  703MOL0     H94894  10.781   8.880   0.731  2.2861 -0.0997 -0.4448
  703MOL0     H94895  10.526   8.798   0.862  0.6284  0.6360 -0.6874
  703MOL0     H94896  10.447   8.949   0.893  1.3445  1.3187 -1.2353
  703MOL0     H94897  10.354   8.726   0.704  1.5583 -1.2644  0.4741
  703MOL0     H94898  10.261   8.879   0.743 -0.0403  0.7393  2.7664
  703MOL0     H94899  10.160   8.716   0.896  0.3274 -1.5368 -0.2287
  703MOL0     H94900  10.288   8.786   0.994  0.6623  4.3890 -2.4239
  703MOL0     H94901  10.439   8.581   0.910 -0.0261 -0.8445  1.2352
  703MOL0     H94902  10.287   8.527   0.826 -4.5340  1.2689  0.5838
  703MOL0     H94903  10.189   8.348   1.157 -3.3258  2.4151  1.9662
  703MOL0     H94904  10.431   8.804   0.484  0.8444  0.8574 -2.7845
  703MOL0     H94905  10.553   8.643   0.354 -0.8375  2.3470 -1.8551
  704MOL0     O94906  10.803   8.283   4.178  0.1263 -0.2216 -0.0352
  704MOL0     C94907  10.839   8.168   4.170 -0.6625  0.3931 -0.0691
  704MOL0     O94908  10.767   8.060   4.135  0.5720  0.4504  0.3304
  704MOL0     C94909  10.654   8.083   4.071  1.3461 -0.2190  0.4699
  704MOL0     C94910  10.539   8.092   4.146  0.1883 -0.0236 -0.6190
  704MOL0     C94911  10.417   8.112   4.086  0.1212  0.1355  1.0119
  704MOL0     C94912  10.402   8.119   3.947 -0.5154  0.7532  0.0299
  704MOL0     O94913  10.292   8.130   3.876  0.3420  0.8512  0.1190
  704MOL0     C94914  10.157   8.121   3.943  0.7856 -0.1292 -0.6791
  704MOL0     C94915  10.046   8.098   3.849  0.4166  0.9511 -0.1380
  704MOL0     C94916   9.948   7.997   3.880  1.2899 -0.2120 -0.4923
  704MOL0     C94917   9.835   8.053   3.981  0.0562 -0.9669  0.9713
  704MOL0     C94918   9.692   8.019   3.931  0.3147 -0.4020  0.3686
  704MOL0     C94919   9.641   8.111   3.818  0.3650  0.8103  0.6618
  704MOL0     C94920   9.576   8.244   3.873 -0.0811 -0.3037  1.0730
  704MOL0     C94921   9.580   8.356   3.770  0.3390  0.0175 -0.4570
  704MOL0     N94922   9.493   8.469   3.823 -0.1744  0.1190  0.7677
  704MOL0     C94923   9.373   8.452   3.891 -1.0104  0.8113  0.2508
  704MOL0     C94924   9.328   8.582   3.898  1.2089  0.3069 -0.4200
  704MOL0     C94925   9.188   8.618   3.958  0.6288 -0.0204 -0.2963
  704MOL0     C94926   9.190   8.613   4.116  0.3334 -0.6251  0.0646
  704MOL0     C94927   9.044   8.627   4.170  0.3886 -0.3871  0.4102
  704MOL0     C94928   9.044   8.679   4.318  0.2929  0.0713 -0.2587
  704MOL0     O94929   8.908   8.684   4.356  0.7176  0.1530  0.4708
  704MOL0     C94930   8.874   8.687   4.483 -0.4058  0.4269  0.3270
  704MOL0     C94931   8.736   8.679   4.508 -0.1385  1.2406 -0.0977
  704MOL0     C94932   8.683   8.681   4.640 -0.2536  0.4604  0.0253
  704MOL0     C94933   8.531   8.673   4.644 -0.7021  0.1414  0.1405
  704MOL0     C94934   8.770   8.722   4.745 -0.0125 -0.3681  0.3602
  704MOL0     C94935   8.725   8.765   4.883 -0.0462  1.1417 -0.8576
  704MOL0     O94936   8.828   8.810   4.965  0.3212 -0.5222 -0.1220
  704MOL0     C94937   8.817   8.818   5.103 -0.1534  0.0434 -0.1511
  704MOL0     C94938   8.705   8.785   5.185 -0.8476 -0.2808  0.6209
  704MOL0     C94939   8.712   8.794   5.323  0.2101  0.0280  0.2047
  704MOL0     C94940   8.824   8.838   5.386 -0.5279  0.1862  1.3602
  704MOL0     O94941   8.843   8.845   5.520 -0.0328 -0.3916  0.6252
  704MOL0     C94942   8.727   8.904   5.577  0.1866 -0.0649  0.3484
  704MOL0     C94943   8.765   8.981   5.703  0.6821 -0.1282  0.1984
  704MOL0     C94944   8.840   9.115   5.669 -0.5048  1.6226 -0.1985
  704MOL0     C94945   8.821   9.214   5.780  0.5645  0.1085  0.2695
  704MOL0     C94946   8.904   9.342   5.754  0.1322  0.4752  0.0562
  704MOL0     C94947   8.940   9.428   5.880  0.5445  0.5021  0.9940
  704MOL0     C94948   8.822   9.491   5.942  0.1262  0.0380 -0.1925
  704MOL0     C94949   8.847   9.540   6.084 -0.0645  0.6219  0.3498
  704MOL0    Cl94950   8.948   9.685   6.075 -0.5935 -0.0602 -0.0926
  704MOL0     C94951   8.929   8.877   5.307 -0.3900  0.8012 -0.7099
  704MOL0     C94952   8.920   8.877   5.167 -0.6018  0.4545  0.0977
  704MOL0     O94953   8.604   8.768   4.910  0.8241  0.0870  0.0710
  704MOL0     C94954   8.908   8.714   4.718  0.3051  0.3708  0.4321
  704MOL0     C94955   8.963   8.688   4.589  0.5488  0.0089 -1.0783
  704MOL0     N94956   9.422   8.669   3.854  0.5185 -0.0720  0.8548
  704MOL0     N94957   9.518   8.603   3.814  0.1187 -0.7511 -0.3863
  704MOL0     C94958  10.518   8.102   3.875  0.9201 -1.0029  0.4997
  704MOL0     C94959  10.644   8.092   3.933  0.1802 -0.4486  0.0460
  704MOL0     C94960  10.982   8.153   4.192 -0.2118 -0.1321  0.0324
  704MOL0     C94961  11.043   8.020   4.194 -0.3647  0.5493 -0.1008
  704MOL0     C94962  11.176   8.006   4.232 -0.0399 -0.7868 -0.0213
  704MOL0     C94963  11.252   8.121   4.262 -0.1528  0.3639 -0.0998
  704MOL0     O94964  11.391   8.112   4.261 -0.1083 -0.0041 -0.4932
  704MOL0     C94965  11.442   8.136   4.392 -1.0055 -1.0421 -0.4264
  704MOL0     C94966  11.535   8.258   4.386 -0.8327 -0.0885  0.2204
  704MOL0     C94967  11.668   8.213   4.348  1.1045  0.3171  0.3017
  704MOL0     C94968  11.764   8.326   4.323  0.7086  0.2427 -0.2746
  704MOL0     C94969  11.888   8.270   4.280 -0.0841  0.5165  0.3723
  704MOL0     C94970  11.991   8.240   4.226 -0.7180  0.2385 -0.1273
  704MOL0     C94971  11.190   8.249   4.267 -0.3595  0.2814 -0.1714
  704MOL0     C94972  11.064   8.262   4.230 -0.4179 -0.4408  0.3159
  704MOL0     H94973  10.551   8.082   4.254 -0.5248 -1.2980 -0.6444
  704MOL0     H94974  10.330   8.120   4.151 -1.5893 -1.2645 -0.9722
  704MOL0     H94975  10.170   8.035   4.009  2.1795  1.4341  1.2042
  704MOL0     H94976  10.131   8.202   4.011  1.2607 -1.5372  1.2817
  704MOL0     H94977   9.990   8.188   3.822 -0.2681  0.9370  1.1288
  704MOL0     H94978  10.090   8.063   3.756  2.2693  2.8390 -0.0482
  704MOL0     H94979   9.898   7.969   3.787  1.3168 -0.7615 -0.3477
  704MOL0     H94980  10.001   7.912   3.924 -0.1347 -0.4340  0.9086
  704MOL0     H94981   9.864   7.997   4.071  0.1078 -4.2388 -0.9109
  704MOL0     H94982   9.841   8.160   4.003 -1.4309 -0.6855  0.1273
  704MOL0     H94983   9.679   7.912   3.912 -4.3263  0.1276 -0.5786
  704MOL0     H94984   9.617   8.044   4.007 -0.8444 -2.9687  0.1515
  704MOL0     H94985   9.726   8.121   3.750  0.8750  0.7179  1.2755
  704MOL0     H94986   9.571   8.048   3.762  1.1664 -0.7096  1.3073
  704MOL0     H94987   9.471   8.222   3.896 -2.1199  3.2727 -3.2693
  704MOL0     H94988   9.628   8.279   3.962  3.0847 -0.9725 -0.3802
  704MOL0     H94989   9.541   8.321   3.674  1.3513 -2.2952 -0.1006
  704MOL0     H94990   9.683   8.392   3.757  0.4439 -0.8842 -2.4132
  704MOL0     H94991   9.320   8.359   3.912 -0.7667  0.6129 -0.0113
  704MOL0     H94992   9.150   8.716   3.929 -1.1520  1.3486  5.4316
  704MOL0     H94993   9.112   8.544   3.930 -0.6399  0.4812  1.6171
  704MOL0     H94994   9.236   8.707   4.148 -2.3734  1.3760 -1.5117
  704MOL0     H94995   9.235   8.522   4.155 -3.1098 -1.0235  3.7626
  704MOL0     H94996   8.985   8.535   4.163  0.5400 -0.6230  1.7970
  704MOL0     H94997   8.987   8.698   4.109 -0.8806  1.1748  3.2071
  704MOL0     H94998   9.085   8.780   4.327  2.0521 -0.3507 -2.7261
  704MOL0     H94999   9.097   8.600   4.372  1.3649  0.1231 -1.2097
  704MOL0     H95000   8.673   8.663   4.421  2.5101 -3.3997 -1.4824
  704MOL0     H95001   8.486   8.769   4.671  0.1850  0.5666  0.1448
  704MOL0     H95002   8.493   8.632   4.550  1.9501  1.6649 -1.7054
  704MOL0     H95003   8.494   8.606   4.723 -3.2721 -0.4557 -1.4307
  704MOL0     H95004   8.617   8.731   5.149  0.3474 -0.6804 -1.9117
  704MOL0     H95005   8.626   8.766   5.383 -2.1090  1.7486 -2.1169
  704MOL0     H95006   8.675   8.981   5.520 -0.4221  0.4861  1.6083
  704MOL0     H95007   8.652   8.827   5.598  0.7171 -1.6934 -2.9941
  704MOL0     H95008   8.678   9.000   5.766  0.8396  2.4059 -0.2394
  704MOL0     H95009   8.821   8.907   5.761 -0.6269 -3.7387 -2.6613
  704MOL0     H95010   8.791   9.141   5.575 -2.7474 -0.7373  0.2066
  704MOL0     H95011   8.944   9.084   5.654 -0.7040  0.6290  0.3872
  704MOL0     H95012   8.718   9.251   5.782 -1.0671 -3.7265 -1.8475
  704MOL0     H95013   8.831   9.174   5.882 -1.0001  1.3751  0.9605
  704MOL0     H95014   8.854   9.412   5.686 -0.6029  1.3854  1.4934
  704MOL0     H95015   9.009   9.324   5.727  0.5895  3.8154 -0.8380
  704MOL0     H95016   9.002   9.374   5.953 -0.1164 -0.3438  0.9487
  704MOL0     H95017   9.020   9.495   5.847  0.7354 -0.2978 -0.2441
  704MOL0     H95018   8.738   9.421   5.935 -0.8482  1.2150 -0.7088
  704MOL0     H95019   8.793   9.581   5.886  3.9451  0.6151 -1.4840
  704MOL0     H95020   8.892   9.467   6.153 -0.8690  0.6598  0.9313
  704MOL0     H95021   8.752   9.569   6.129  0.3953  0.7218  1.2820
  704MOL0     H95022   9.011   8.930   5.354  0.5015 -0.9240 -0.2434
  704MOL0     H95023   8.992   8.937   5.111 -0.9135  1.0224  0.3000
  704MOL0     H95024   8.980   8.715   4.799  0.2339 -1.4829  0.5495
  704MOL0     H95025   9.071   8.673   4.592  0.6186  0.6260  0.7968
  704MOL0     H95026  10.508   8.100   3.767  0.4043  1.2668  0.4666
  704MOL0     H95027  10.740   8.077   3.885  0.5192  0.4071  0.4179
  704MOL0     H95028  10.976   7.942   4.160  0.3416  0.1952 -0.7104
  704MOL0     H95029  11.235   7.915   4.227  1.4559  0.2144 -2.0218
  704MOL0     H95030  11.363   8.149   4.466  1.5231 -1.7482  2.6190
  704MOL0     H95031  11.487   8.043   4.428  0.6762 -0.0258  0.2048
  704MOL0     H95032  11.543   8.297   4.487  1.6728 -4.5005  2.0129
  704MOL0     H95033  11.499   8.329   4.310 -0.2972  0.6606  0.6521
  704MOL0     H95034  11.647   8.171   4.249  0.7602 -3.4324  1.7985
  704MOL0     H95035  11.704   8.137   4.418 -1.1615 -1.6255 -0.4983
  704MOL0     H95036  11.782   8.380   4.416 -0.5129  1.3774 -0.6693
  704MOL0     H95037  11.715   8.393   4.252 -4.7428 -1.7561  1.0880
  704MOL0     H95038  12.085   8.209   4.184 -1.4944 -0.0059 -1.7884
  704MOL0     H95039  11.238   8.340   4.302 -0.0546 -0.7899  2.4281
  704MOL0     H95040  11.014   8.358   4.239 -0.2372  0.0711 -2.8916
  705MOL0     O95041   4.056   9.022   1.627  0.7695 -0.2323  0.5322
  705MOL0     C95042   4.003   8.923   1.571 -0.1522  0.9069  0.0526
  705MOL0     O95043   4.063   8.848   1.468 -0.1347  0.1820  0.0362
  705MOL0     C95044   4.162   8.907   1.389 -0.9723 -0.1231 -0.2571
  705MOL0     C95045   4.124   8.985   1.285 -0.2978 -0.1485  0.6434
  705MOL0     C95046   4.223   9.043   1.200 -0.4209  0.1612  0.3530
  705MOL0     C95047   4.357   9.013   1.210  0.4980 -0.4538  1.2821
  705MOL0     O95048   4.450   9.040   1.114 -0.3031  0.0442 -0.0386
  705MOL0     C95049   4.447   9.172   1.054  0.3857  0.6712 -0.9686
  705MOL0     C95050   4.566   9.209   0.976 -0.3259 -0.4233 -0.4866
  705MOL0     C95051   4.527   9.298   0.852  0.2669  0.3158  0.1461
  705MOL0     C95052   4.660   9.342   0.789 -0.0861 -0.0464 -0.0730
  705MOL0     C95053   4.649   9.451   0.685  0.5833 -1.0015  0.7247
  705MOL0     C95054   4.551   9.420   0.571 -0.8202  0.5007  0.3248
  705MOL0     C95055   4.587   9.513   0.458  0.9639  0.1465  1.0383
  705MOL0     C95056   4.508   9.491   0.328  0.9066 -0.5363  0.5379
  705MOL0     N95057   4.571   9.571   0.218 -0.2907 -0.6627  0.8310
  705MOL0     C95058   4.689   9.519   0.155  0.3691 -0.8149 -0.2208
  705MOL0     C95059   4.702   9.597   0.044  0.0138  0.5181 -0.6436
  705MOL0     C95060   4.796   9.556  -0.063  1.2429  0.0292 -0.0853
  705MOL0     C95061   4.853   9.674  -0.144 -0.3691  0.1351 -0.0922
  705MOL0     C95062   4.921   9.782  -0.058  0.2762  0.3441 -0.9983
  705MOL0     C95063   4.889   9.916  -0.116  0.0247 -0.3725  0.1014
  705MOL0     O95064   4.971  10.013  -0.051 -1.1049 -0.1801  0.2560
  705MOL0     C95065   4.983  10.147  -0.090  0.3697 -0.2840 -0.5715
  705MOL0     C95066   5.103  10.214  -0.076  0.7126  0.5195 -0.6775
  705MOL0     C95067   5.125  10.347  -0.111 -0.0162 -0.0073 -0.3823
  705MOL0     C95068   5.275  10.389  -0.091  0.0974  0.7007 -0.1451
  705MOL0     C95069   5.021  10.428  -0.161 -0.2673 -0.0116 -0.3158
  705MOL0     C95070   5.042  10.565  -0.235  1.5914  1.0523 -0.6393
  705MOL0     O95071   4.937  10.617  -0.305 -0.5047  0.4747 -0.3195
  705MOL0     C95072   4.929  10.747  -0.344  0.4231 -0.7408 -0.8754
  705MOL0     C95073   4.800  10.800  -0.311  0.0827  0.4582  1.1282
  705MOL0     C95074   4.775  10.932  -0.337  0.4173 -0.0963  1.2482
  705MOL0     C95075   4.868  11.011  -0.406 -0.5119 -0.9502  0.4660
  705MOL0     O95076   4.846  11.143  -0.431 -0.0845  0.2751 -0.9517
  705MOL0     C95077   4.745  11.177  -0.523 -0.1191  1.1541  0.3407
  705MOL0     C95078   4.790  11.307  -0.594  0.2246  0.2805 -0.3347
  705MOL0     C95079   4.927  11.283  -0.659  0.1461  0.4772 -0.1195
  705MOL0     C95080   4.981  11.419  -0.718  0.3166  0.4745 -0.5540
  705MOL0     C95081   5.094  11.394  -0.829  0.2942  1.2695 -1.0163
  705MOL0     C95082   5.164  11.523  -0.861 -0.8811  0.2039  0.1040
  705MOL0     C95083   5.282  11.510  -0.950  0.2691  0.0967  0.2814
  705MOL0     C95084   5.408  11.452  -0.869  0.1935  0.1432 -0.3643
  705MOL0    Cl95085   5.548  11.461  -0.974  0.0341 -0.5324 -0.0997
  705MOL0     C95086   4.995  10.960  -0.439  0.2013 -0.0099 -0.1446
  705MOL0     C95087   5.019  10.826  -0.405  0.0294 -1.0634  0.4933
  705MOL0     O95088   5.152  10.619  -0.229 -0.0131 -1.2677  0.0515
  705MOL0     C95089   4.894  10.360  -0.178  1.5861  0.2101  0.2931
  705MOL0     C95090   4.870  10.224  -0.139 -0.2839  0.9256  0.5177
  705MOL0     N95091   4.609   9.698   0.053  0.3699 -0.1824 -0.4591
  705MOL0     N95092   4.538   9.686   0.164 -0.5955  0.7442  0.2175
  705MOL0     C95093   4.387   8.928   1.310 -0.4601  0.1672  0.5082
  705MOL0     C95094   4.291   8.879   1.398 -0.6164 -0.2372 -0.6592
  705MOL0     C95095   3.897   8.854   1.639  0.1885 -0.0169 -0.5537
  705MOL0     C95096   3.822   8.929   1.734  0.6244  0.4629  0.4436
  705MOL0     C95097   3.715   8.875   1.811 -0.8024 -0.6921 -0.2263
  705MOL0     C95098   3.685   8.748   1.781 -0.1748 -0.6172  0.4127
  705MOL0     O95099   3.574   8.698   1.846  0.3214 -0.4324  0.3080
  705MOL0     C95100   3.601   8.629   1.970  0.1478 -1.0727  0.3708
  705MOL0     C95101   3.469   8.588   2.041 -0.0283 -0.1135  0.0528
  705MOL0     C95102   3.357   8.692   2.075 -0.5481  0.9502 -0.0215
  705MOL0     C95103   3.382   8.778   2.191 -0.3430  0.9521 -0.2483
  705MOL0     C95104   3.502   8.863   2.180  0.3586  0.4048 -0.3629
  705MOL0     C95105   3.598   8.940   2.166  0.2293 -0.6016 -0.4771
  705MOL0     C95106   3.765   8.656   1.700  0.9268 -1.1963  0.2317
  705MOL0     C95107   3.870   8.716   1.616 -0.3725 -0.2499 -0.8863
  705MOL0     H95108   4.023   9.019   1.266  0.9780  3.1228 -1.2765
  705MOL0     H95109   4.191   9.109   1.120  6.0295  0.8948 -2.2712
  705MOL0     H95110   4.358   9.181   0.991 -1.6239  0.7924  1.7292
  705MOL0     H95111   4.440   9.248   1.132 -0.0325  1.2861 -1.5953
  705MOL0     H95112   4.642   9.264   1.032  1.2171 -2.8825 -0.0228
  705MOL0     H95113   4.621   9.127   0.929 -0.8012  0.5169 -2.8469
  705MOL0     H95114   4.469   9.245   0.777 -0.3495  2.4438 -0.9315
  705MOL0     H95115   4.477   9.390   0.883  2.6204  2.2089 -1.2988
  705MOL0     H95116   4.723   9.386   0.867  0.0813  1.1187 -0.8435
  705MOL0     H95117   4.722   9.258   0.756 -0.1632 -0.5542  1.0052
  705MOL0     H95118   4.612   9.540   0.737 -0.4544 -1.7846  1.3558
  705MOL0     H95119   4.750   9.472   0.648 -1.2464  1.2827 -3.8626
  705MOL0     H95120   4.567   9.317   0.536 -0.0970 -0.0421  2.1443
  705MOL0     H95121   4.449   9.436   0.607 -0.2217 -2.8568  4.3078
  705MOL0     H95122   4.573   9.619   0.480  0.2861  0.7562 -1.8969
  705MOL0     H95123   4.692   9.497   0.432  0.6347  1.5116 -1.4234
  705MOL0     H95124   4.406   9.528   0.342  0.9425 -0.9261  1.9365
  705MOL0     H95125   4.518   9.393   0.281  0.8897  0.5872 -1.9746
  705MOL0     H95126   4.736   9.421   0.159  3.3404  0.5053 -0.3341
  705MOL0     H95127   4.875   9.503  -0.009 -1.3080 -1.3456  2.6197
  705MOL0     H95128   4.730   9.494  -0.125  0.7588  1.2664 -0.8313
  705MOL0     H95129   4.772   9.717  -0.203  0.5013  2.0303  0.0051
  705MOL0     H95130   4.932   9.639  -0.211 -0.5674  0.0441 -0.2776
  705MOL0     H95131   5.029   9.763  -0.059  0.2903  0.2397  0.4664
  705MOL0     H95132   4.885   9.785   0.045  1.8365 -0.7357 -0.3958
  705MOL0     H95133   4.785   9.944  -0.099  0.3158  0.1862  0.9966
  705MOL0     H95134   4.910   9.920  -0.224  3.3580 -1.0994  0.6262
  705MOL0     H95135   5.186  10.150  -0.046 -1.7016 -1.9754  1.2326
  705MOL0     H95136   5.310  10.423  -0.189 -1.9252 -0.5356 -1.3729
  705MOL0     H95137   5.281  10.475  -0.024  2.1225  0.4380  0.0754
  705MOL0     H95138   5.349  10.313  -0.063  0.9330  0.7526 -2.0978
  705MOL0     H95139   4.724  10.734  -0.270 -0.2432 -1.4466 -2.1126
  705MOL0     H95140   4.684  10.972  -0.294 -0.5861 -1.1689  0.2250
  705MOL0     H95141   4.739  11.103  -0.603  1.3926  1.1506  0.1986
  705MOL0     H95142   4.645  11.190  -0.479 -0.4322 -0.7359  0.2743
  705MOL0     H95143   4.729  11.349  -0.675  0.3859  2.4038  0.5900
  705MOL0     H95144   4.785  11.394  -0.528  4.1162  0.5248 -0.1323
  705MOL0     H95145   4.943  11.204  -0.734  3.1533 -2.0670  2.8553
  705MOL0     H95146   4.994  11.248  -0.580  0.0192  0.7629  0.1150
  705MOL0     H95147   4.892  11.467  -0.760 -1.4326 -1.5796  0.6114
  705MOL0     H95148   5.019  11.485  -0.639  1.2709 -0.4208 -0.2465
  705MOL0     H95149   5.048  11.366  -0.925 -0.5098  0.8184 -0.5149
  705MOL0     H95150   5.156  11.314  -0.786 -0.1919  2.7777  2.8914
  705MOL0     H95151   5.090  11.584  -0.915 -2.2561 -0.4392  1.2034
  705MOL0     H95152   5.194  11.579  -0.772  0.1265 -1.9747  1.1962
  705MOL0     H95153   5.305  11.610  -0.988 -0.2937 -0.0850 -0.5879
  705MOL0     H95154   5.257  11.448  -1.037 -0.6670  2.2470 -1.1095
  705MOL0     H95155   5.383  11.348  -0.845 -0.4155 -0.0516 -1.7353
  705MOL0     H95156   5.426  11.519  -0.784 -0.9149 -0.2545  0.2051
  705MOL0     H95157   5.075  11.016  -0.487  0.6496 -1.7365 -1.5200
  705MOL0     H95158   5.116  10.781  -0.426  0.4460 -0.2067  0.5389
  705MOL0     H95159   4.807  10.408  -0.221 -0.6514 -2.3363  1.6362
  705MOL0     H95160   4.778  10.176  -0.172  2.1775 -4.0290 -0.1578
  705MOL0     H95161   4.490   8.905   1.334 -0.5192 -0.9961 -0.2929
  705MOL0     H95162   4.333   8.825   1.482 -0.7766 -0.0579 -0.4620
  705MOL0     H95163   3.845   9.034   1.748 -1.2851  1.2607 -1.7627
  705MOL0     H95164   3.641   8.924   1.873 -0.0350  0.3979 -0.1392
  705MOL0     H95165   3.646   8.531   1.954  2.1562 -0.4289  1.7590
  705MOL0     H95166   3.661   8.692   2.036 -1.0974  0.4093  0.1350
  705MOL0     H95167   3.497   8.547   2.139 -0.9886 -3.3121 -0.8926
  705MOL0     H95168   3.420   8.502   1.995 -0.3347  1.5025 -2.9073
  705MOL0     H95169   3.269   8.640   2.114 -1.1015  3.8480  3.0901
  705MOL0     H95170   3.339   8.753   1.986  0.1036 -0.6152 -1.2730
  705MOL0     H95171   3.382   8.726   2.287 -2.6974 -0.7242 -1.0619
  705MOL0     H95172   3.288   8.833   2.199 -1.8071 -1.3046 -0.8430
  705MOL0     H95173   3.691   8.994   2.163  1.3070 -2.4112 -1.2088
  705MOL0     H95174   3.729   8.555   1.686  0.5687 -1.1374  0.6980
  705MOL0     H95175   3.928   8.660   1.544  1.5771  1.7888 -1.0267
  706MOL0     O95176   9.907   8.064   1.790 -0.1130 -0.1312  0.3412
  706MOL0     C95177   9.902   7.950   1.738 -0.4262 -0.0138 -0.4175
  706MOL0     O95178  10.007   7.871   1.708 -0.5336 -0.0243  0.6567
  706MOL0     C95179  10.131   7.900   1.746 -0.0265  0.5877  0.0255
  706MOL0     C95180  10.229   7.936   1.650  0.0379  0.0362 -0.2231
  706MOL0     C95181  10.367   7.955   1.685 -0.4747  0.4329 -0.2156
  706MOL0     C95182  10.402   7.953   1.814  0.5849  0.9333 -0.7321
  706MOL0     O95183  10.530   7.972   1.853 -0.6003 -0.0269 -0.3694
  706MOL0     C95184  10.597   7.845   1.868 -0.8339  0.0125  0.3279
  706MOL0     C95185  10.671   7.805   1.740  0.8455 -0.0744 -0.6744
  706MOL0     C95186  10.763   7.922   1.691  0.4093 -0.0109  0.0404
  706MOL0     C95187  10.875   7.961   1.783 -0.3244  0.1328 -0.5811
  706MOL0     C95188  10.977   8.051   1.707  0.6228  0.0079  0.3669
  706MOL0     C95189  11.129   8.053   1.757  0.3863  0.6989 -0.2208
  706MOL0     C95190  11.219   7.936   1.712  0.1519  0.0200  0.0450
  706MOL0     C95191  11.263   7.943   1.566  0.3930  0.6171 -0.7155
  706MOL0     N95192  11.376   8.037   1.560 -0.5738 -0.2768  0.5887
  706MOL0     C95193  11.366   8.174   1.544  1.2015  0.9306 -0.1160
  706MOL0     C95194  11.493   8.215   1.519  0.8213  0.4109 -0.3142
  706MOL0     C95195  11.527   8.355   1.494 -0.5866 -0.1807  0.3984
  706MOL0     C95196  11.563   8.450   1.614  0.7326 -0.2839 -0.4623
  706MOL0     C95197  11.705   8.406   1.662  0.5713 -0.0281 -0.6062
  706MOL0     C95198  11.774   8.507   1.751  0.1457 -0.3368 -0.0440
  706MOL0     O95199  11.849   8.596   1.664  0.3363 -0.5684  0.1718
  706MOL0     C95200  11.925   8.687   1.737  0.6269  0.0712  0.2263
  706MOL0     C95201  11.874   8.788   1.820  0.1329 -0.4940 -0.4142
  706MOL0     C95202  11.963   8.874   1.885 -1.3630 -1.6355  0.8634
  706MOL0     C95203  11.896   8.984   1.973 -0.2871 -0.4139 -0.1618
  706MOL0     C95204  12.099   8.870   1.861 -1.4331  0.5098  1.0901
  706MOL0     C95205  12.206   8.952   1.928 -0.0571  0.6484  0.6396
  706MOL0     O95206  12.341   8.926   1.916  0.5295  0.0426 -0.0693
  706MOL0     C95207  12.435   8.983   2.001  0.0044 -0.1075  0.2498
  706MOL0     C95208  12.540   9.048   1.945 -1.5690  0.1166 -0.4013
  706MOL0     C95209  12.650   9.100   2.020 -0.1242 -0.1225 -0.7942
  706MOL0     C95210  12.645   9.107   2.159 -0.4839 -0.5952  0.6184
  706MOL0     O95211  12.753   9.171   2.221 -0.1844  0.2817  0.0338
  706MOL0     C95212  12.784   9.142   2.361 -0.3814 -0.5929 -0.8456
  706MOL0     C95213  12.860   9.257   2.434  0.2856 -0.0792  0.4392
  706MOL0     C95214  12.818   9.395   2.387 -0.1808  0.0185 -0.9428
  706MOL0     C95215  12.902   9.496   2.459  0.5331  0.8925  0.7188
  706MOL0     C95216  12.855   9.529   2.594  0.7305  1.1853 -1.4609
  706MOL0     C95217  12.710   9.561   2.606 -0.6047 -0.0740  0.1311
  706MOL0     C95218  12.693   9.640   2.732  0.0114 -0.1824 -0.1772
  706MOL0     C95219  12.556   9.700   2.751  0.1024 -0.3712 -0.1628
  706MOL0    Cl95220  12.464   9.728   2.597  0.6420  0.1866  0.3661
  706MOL0     C95221  12.530   9.059   2.216  1.3375 -0.4554 -0.4492
  706MOL0     C95222  12.427   8.993   2.144  0.2579 -0.5147  0.4110
  706MOL0     O95223  12.174   9.056   1.983 -0.5771 -0.7920  0.8192
  706MOL0     C95224  12.143   8.763   1.791 -1.3634 -0.0783 -0.0048
  706MOL0     C95225  12.059   8.671   1.741  0.6808  1.0080 -0.7077
  706MOL0     N95226  11.579   8.108   1.507 -0.7024 -0.0336  0.6827
  706MOL0     N95227  11.505   7.999   1.531  0.0233  0.2897  0.3328
  706MOL0     C95228  10.300   7.927   1.911 -0.1855  0.8288  0.0161
  706MOL0     C95229  10.174   7.883   1.873 -0.0168 -0.8768  0.4557
  706MOL0     C95230   9.767   7.898   1.693 -0.9298 -0.5106 -0.2004
  706MOL0     C95231   9.655   7.983   1.711  0.0864  0.7076 -0.6460
  706MOL0     C95232   9.532   7.959   1.669  1.3514  0.3889 -0.3951
  706MOL0     C95233   9.515   7.847   1.583  0.1021  0.2016  0.3398
  706MOL0     O95234   9.381   7.824   1.547  0.3601  0.7592 -0.6075
  706MOL0     C95235   9.342   7.721   1.456 -1.3766 -1.1453 -0.0944
  706MOL0     C95236   9.375   7.765   1.319  0.3638  0.7483 -0.3448
  706MOL0     C95237   9.334   7.914   1.289  0.5875  0.1070  0.5110
  706MOL0     C95238   9.291   7.946   1.150  1.0180 -0.0983  0.5111
  706MOL0     C95239   9.402   7.939   1.050  0.1169 -0.0911  0.1123
  706MOL0     C95240   9.509   7.939   0.989  0.3392  0.0711 -0.1882
  706MOL0     C95241   9.618   7.763   1.558 -0.4723  0.5930  0.0168
  706MOL0     C95242   9.745   7.785   1.613 -0.5404  0.3386  0.1804
  706MOL0     H95243  10.199   7.951   1.547 -0.8074  1.9328  0.2509
  706MOL0     H95244  10.448   7.952   1.612  2.1545  2.6251  2.3603
  706MOL0     H95245  10.680   7.839   1.939  0.1239  2.9179 -0.4162
  706MOL0     H95246  10.528   7.766   1.897 -0.8235  0.9298  3.1028
  706MOL0     H95247  10.734   7.720   1.768  1.5213  1.3819  2.6670
  706MOL0     H95248  10.609   7.764   1.659  0.7451  0.2288 -0.7543
  706MOL0     H95249  10.808   7.907   1.592  0.3223  0.9229 -0.1590
  706MOL0     H95250  10.703   8.013   1.681  0.3951  0.2730  2.2452
  706MOL0     H95251  10.849   8.011   1.877  1.6706 -3.5992  2.2598
  706MOL0     H95252  10.931   7.873   1.818  1.4030  0.3510 -2.6222
  706MOL0     H95253  10.973   8.012   1.605 -2.7504  1.7607 -0.3371
  706MOL0     H95254  10.944   8.155   1.699 -0.8104 -0.5434 -1.6569
  706MOL0     H95255  11.176   8.147   1.726  2.1756 -0.2033 -0.3600
  706MOL0     H95256  11.132   8.044   1.866  3.2953 -0.0013 -0.2834
  706MOL0     H95257  11.307   7.947   1.776  0.0757 -2.6915  0.7381
  706MOL0     H95258  11.180   7.839   1.744  2.6050 -2.1090 -2.8165
  706MOL0     H95259  11.180   7.971   1.501 -1.7093  0.2326  1.6451
  706MOL0     H95260  11.296   7.845   1.530 -2.4314  0.0146 -1.8794
  706MOL0     H95261  11.280   8.237   1.563  0.3997  0.0880 -0.8529
  706MOL0     H95262  11.606   8.354   1.419 -1.1666 -1.1452 -0.2159
  706MOL0     H95263  11.437   8.403   1.454  1.8499  3.0265 -1.6780
  706MOL0     H95264  11.496   8.431   1.698  2.3084  1.2820  1.2567
  706MOL0     H95265  11.566   8.555   1.582  3.4856  0.0472  0.5644
  706MOL0     H95266  11.773   8.381   1.580 -0.6094 -0.0186 -1.6093
  706MOL0     H95267  11.683   8.329   1.736 -3.2377  3.5589  2.5393
  706MOL0     H95268  11.843   8.456   1.819  3.7576 -0.2022 -3.2434
  706MOL0     H95269  11.705   8.566   1.812 -1.5472 -2.7068  0.4765
  706MOL0     H95270  11.770   8.819   1.820  1.1001  3.1108  0.2542
  706MOL0     H95271  11.955   8.999   2.064 -0.4602 -0.0777 -0.1048
  706MOL0     H95272  11.892   9.085   1.933  1.1880 -0.7042 -1.1377
  706MOL0     H95273  11.790   8.972   1.997 -0.0064 -2.1447  0.3414
  706MOL0     H95274  12.562   9.033   1.840 -0.2968 -1.8048  0.0990
  706MOL0     H95275  12.732   9.156   1.976 -1.5186  1.7740 -1.1165
  706MOL0     H95276  12.692   9.116   2.414  0.2519 -1.4983 -0.1482
  706MOL0     H95277  12.857   9.060   2.362  0.8962  0.4898 -1.9431
  706MOL0     H95278  12.847   9.255   2.543 -1.0758  0.6435  0.3181
  706MOL0     H95279  12.965   9.239   2.410  1.1797  2.2029  2.2172
  706MOL0     H95280  12.713   9.420   2.404 -0.6464 -0.5483 -2.7425
  706MOL0     H95281  12.839   9.393   2.280 -3.8708  1.0214 -1.8433
  706MOL0     H95282  13.009   9.471   2.461  0.3233 -0.0487  0.3603
  706MOL0     H95283  12.895   9.591   2.404  1.0073  1.5181  1.7039
  706MOL0     H95284  12.924   9.609   2.624  0.1536  0.5963  1.7723
  706MOL0     H95285  12.869   9.452   2.669  1.8868  0.5340 -2.3126
  706MOL0     H95286  12.670   9.619   2.522 -3.4312  1.4102  2.3100
  706MOL0     H95287  12.660   9.465   2.610  1.6333 -1.3324 -0.2203
  706MOL0     H95288  12.766   9.722   2.736  0.6034 -0.7306  0.5011
  706MOL0     H95289  12.713   9.578   2.820 -3.4959 -1.5720 -0.1869
  706MOL0     H95290  12.557   9.792   2.810 -0.2280 -1.0183  0.8769
  706MOL0     H95291  12.495   9.637   2.816  2.0081  0.0282  2.1438
  706MOL0     H95292  12.509   9.072   2.322 -0.0934 -1.9610 -0.5069
  706MOL0     H95293  12.347   8.946   2.200 -0.1648 -1.8070 -1.1947
  706MOL0     H95294  12.247   8.730   1.796 -1.5041 -0.3427  2.0151
  706MOL0     H95295  12.095   8.584   1.686 -1.0526  0.9227 -1.7762
  706MOL0     H95296  10.308   7.907   2.017  2.5829  1.9727  0.1160
  706MOL0     H95297  10.103   7.848   1.947 -0.0318  0.3938  1.0717
  706MOL0     H95298   9.665   8.078   1.762  0.5583  1.9203 -2.9180
  706MOL0     H95299   9.448   8.016   1.707  1.4259 -2.0842  4.1589
  706MOL0     H95300   9.382   7.625   1.487 -0.0051  0.1191  2.3599
  706MOL0     H95301   9.234   7.715   1.473 -1.4983  0.9168  0.1242
  706MOL0     H95302   9.325   7.703   1.243  3.0970  0.0941 -1.7547
  706MOL0     H95303   9.482   7.749   1.301  0.5253  2.1134 -0.6820
  706MOL0     H95304   9.404   7.995   1.313 -0.8220  1.2036  1.0602
  706MOL0     H95305   9.245   7.921   1.352  0.5333  1.2944  0.3269
  706MOL0     H95306   9.242   8.043   1.138 -1.1278 -1.1446  0.3564
  706MOL0     H95307   9.221   7.866   1.125 -2.5885  2.3299  1.9178
  706MOL0     H95308   9.604   7.926   0.942  1.2654 -1.7066  2.0140
  706MOL0     H95309   9.600   7.684   1.486 -2.6224  2.3901 -1.5690
  706MOL0     H95310   9.819   7.709   1.590 -1.4464 -0.9439  1.3102
  707MOL0     O95311   0.469   7.901   6.346 -0.0770 -0.2442 -0.3317
  707MOL0     C95312   0.591   7.916   6.389 -0.1829 -0.1828  0.0531
  707MOL0     O95313   0.650   8.037   6.456  0.1514  1.0693  0.1244
  707MOL0     C95314   0.563   8.142   6.488 -0.1970 -0.6063 -0.3734
  707MOL0     C95315   0.449   8.131   6.567 -0.5026 -0.0584  0.3046
  707MOL0     C95316   0.346   8.233   6.563  0.5848  0.0084 -0.7828
  707MOL0     C95317   0.367   8.347   6.490 -0.2784 -0.3637  0.4118
  707MOL0     O95318   0.290   8.461   6.493  0.1367 -0.1519  0.3937
  707MOL0     C95319   0.146   8.445   6.493  0.9754  0.2811  0.0514
  707MOL0     C95320   0.093   8.395   6.355  0.4473 -0.3742 -0.2458
  707MOL0     C95321  -0.058   8.378   6.356  0.4884 -0.5077 -0.4134
  707MOL0     C95322  -0.104   8.366   6.209  0.0693 -0.7431  0.0049
  707MOL0     C95323  -0.253   8.330   6.213  0.9316  0.8503 -0.4617
  707MOL0     C95324  -0.311   8.320   6.066 -0.2143 -0.0005  0.2589
  707MOL0     C95325  -0.337   8.459   6.014 -0.4269 -0.3168 -0.1033
  707MOL0     C95326  -0.404   8.462   5.872  0.1683 -0.6840 -0.4724
  707MOL0     N95327  -0.450   8.600   5.834  0.2528 -0.1039  0.0194
  707MOL0     C95328  -0.580   8.612   5.797 -0.6074  0.5187  0.2491
  707MOL0     C95329  -0.593   8.742   5.766  0.6566 -0.3387 -0.5899
  707MOL0     C95330  -0.729   8.804   5.747 -0.3792  0.8353 -1.0501
  707MOL0     C95331  -0.762   8.898   5.864 -0.1698 -1.2517 -0.5127
  707MOL0     C95332  -0.905   8.949   5.845  0.4069 -0.4959 -0.0144
  707MOL0     C95333  -0.936   9.019   5.717  0.4455  0.0863  1.1253
  707MOL0     O95334  -1.079   9.061   5.709  0.3653 -0.6212 -0.1369
  707MOL0     C95335  -1.120   9.127   5.592 -0.2058 -0.1976 -0.3165
  707MOL0     C95336  -1.226   9.068   5.517 -0.7046  0.5604  0.0453
  707MOL0     C95337  -1.282   9.126   5.405 -0.0276 -0.8543  0.6840
  707MOL0     C95338  -1.381   9.044   5.333  0.4476  1.2874  1.0630
  707MOL0     C95339  -1.220   9.248   5.347  0.4302  1.0241  0.0967
  707MOL0     C95340  -1.256   9.298   5.211 -0.0883 -0.5515 -0.7614
  707MOL0     O95341  -1.154   9.370   5.154 -0.4682 -0.3600 -0.0187
  707MOL0     C95342  -1.171   9.392   5.025 -0.4504 -0.5813  0.9364
  707MOL0     C95343  -1.241   9.506   4.974 -0.3060  0.8602 -0.2517
  707MOL0     C95344  -1.240   9.528   4.835  0.5368 -0.5778 -0.5949
  707MOL0     C95345  -1.175   9.447   4.751 -0.6373 -0.3386  0.3683
  707MOL0     O95346  -1.182   9.471   4.611 -0.0311  0.1776  0.5129
  707MOL0     C95347  -1.194   9.605   4.567  0.7532  0.4262  0.8091
  707MOL0     C95348  -1.214   9.608   4.418  1.0042 -0.7841  0.2480
  707MOL0     C95349  -1.082   9.569   4.343  0.0726  0.0026 -0.4740
  707MOL0     C95350  -1.127   9.476   4.225 -0.0935 -0.4534  0.4158
  707MOL0     C95351  -1.006   9.436   4.139 -0.4811  0.8284  0.1136
  707MOL0     C95352  -1.048   9.314   4.042  0.2889 -0.0172  1.4013
  707MOL0     C95353  -0.965   9.276   3.914 -0.4303  0.3912 -0.1746
  707MOL0     C95354  -0.983   9.374   3.801  0.2883  0.1632 -0.0170
  707MOL0    Cl95355  -0.926   9.311   3.647  0.2416  0.0309  0.4443
  707MOL0     C95356  -1.104   9.337   4.806 -0.2773  0.5935 -0.1936
  707MOL0     C95357  -1.100   9.314   4.943  0.4878  0.1025  0.1702
  707MOL0     O95358  -1.365   9.279   5.160  0.1697  0.7237 -0.1565
  707MOL0     C95359  -1.119   9.303   5.431 -0.0643  0.2303  0.3529
  707MOL0     C95360  -1.070   9.249   5.552  1.8907 -0.0775 -0.1166
  707MOL0     N95361  -0.473   8.804   5.788  0.0128  0.0611  0.2955
  707MOL0     N95362  -0.385   8.719   5.835  0.0526  0.4229  0.5769
  707MOL0     C95363   0.486   8.362   6.422  0.6337  0.5463 -0.3298
  707MOL0     C95364   0.576   8.259   6.413 -0.0446 -0.7877 -0.0627
  707MOL0     C95365   0.700   7.819   6.342 -0.4931 -0.2218  0.0538
  707MOL0     C95366   0.673   7.696   6.276  0.2232  0.2194 -0.0579
  707MOL0     C95367   0.759   7.610   6.221  0.0014  0.3263 -0.0143
  707MOL0     C95368   0.895   7.645   6.230 -0.5381  0.0075 -0.1722
  707MOL0     O95369   0.985   7.544   6.191 -0.2552 -1.0421  0.0299
  707MOL0     C95370   1.100   7.592   6.122  0.2022 -0.0532 -0.0290
  707MOL0     C95371   1.155   7.472   6.039  0.4494  0.2530  0.3367
  707MOL0     C95372   1.049   7.430   5.921  0.9924  0.1259 -0.4978
  707MOL0     C95373   1.079   7.295   5.854 -0.0850  0.1811 -0.2054
  707MOL0     C95374   0.972   7.270   5.761 -0.6655  0.4246  0.4839
  707MOL0     C95375   0.876   7.249   5.683  0.3565 -0.3161 -0.5331
  707MOL0     C95376   0.931   7.765   6.300 -0.1493 -0.3553  0.0741
  707MOL0     C95377   0.836   7.858   6.353  0.6264  0.1530 -0.6697
  707MOL0     H95378   0.431   8.038   6.620  0.7476 -1.7525 -2.0659
  707MOL0     H95379   0.258   8.221   6.625  1.9321  1.4252  1.5197
  707MOL0     H95380   0.119   8.380   6.577  2.0121 -0.1922  0.0305
  707MOL0     H95381   0.104   8.544   6.517 -0.5169  0.0808 -1.5836
  707MOL0     H95382   0.115   8.466   6.276 -0.6519 -0.3000 -0.5123
  707MOL0     H95383   0.135   8.296   6.336  1.6115 -0.1211  0.9114
  707MOL0     H95384  -0.102   8.301   6.419 -1.8647  0.1961 -1.1110
  707MOL0     H95385  -0.100   8.470   6.397  0.4475 -1.1675  1.0664
  707MOL0     H95386  -0.096   8.464   6.160 -1.7952 -0.2552  0.5823
  707MOL0     H95387  -0.033   8.302   6.156 -1.9174 -1.8981 -1.3839
  707MOL0     H95388  -0.262   8.237   6.270 -1.0812  0.4817 -1.3104
  707MOL0     H95389  -0.311   8.403   6.269 -1.9237 -2.6886  1.6158
  707MOL0     H95390  -0.242   8.259   6.007  0.6804 -0.5228  1.7786
  707MOL0     H95391  -0.400   8.259   6.087 -0.9326  0.5138 -1.1786
  707MOL0     H95392  -0.388   8.525   6.085  0.1875  0.4461 -0.3552
  707MOL0     H95393  -0.237   8.499   5.997  0.9005 -1.7184  3.3496
  707MOL0     H95394  -0.488   8.394   5.890 -1.8251  1.9315  0.7633
  707MOL0     H95395  -0.344   8.412   5.795 -0.5002 -2.8284  0.3020
  707MOL0     H95396  -0.650   8.529   5.795 -1.5212  1.2061  1.6601
  707MOL0     H95397  -0.725   8.848   5.646  0.8453 -0.0745 -1.4167
  707MOL0     H95398  -0.807   8.727   5.747  2.2729 -2.0608 -1.2820
  707MOL0     H95399  -0.707   8.992   5.858 -1.2588 -0.5714 -0.0837
  707MOL0     H95400  -0.756   8.864   5.968  1.0914  3.1606  1.0531
  707MOL0     H95401  -0.917   9.030   5.917 -0.8764  0.4594 -1.2352
  707MOL0     H95402  -0.987   8.878   5.863 -1.1867  1.3180  0.1767
  707MOL0     H95403  -0.924   8.950   5.633 -0.9645 -1.1187  1.8609
  707MOL0     H95404  -0.869   9.106   5.711 -1.4460  1.6713  1.9433
  707MOL0     H95405  -1.270   8.972   5.545  2.1100 -0.6124  0.8389
  707MOL0     H95406  -1.412   8.956   5.390 -3.4968  1.6629 -0.1858
  707MOL0     H95407  -1.469   9.105   5.313  0.5060  0.1144 -4.8493
  707MOL0     H95408  -1.340   9.022   5.234  0.0927  2.0149  0.7498
  707MOL0     H95409  -1.300   9.567   5.042 -0.2283 -0.8482  1.4069
  707MOL0     H95410  -1.299   9.615   4.807  1.8679  0.0840 -1.4300
  707MOL0     H95411  -1.275   9.661   4.616  0.8872  1.8176 -0.4832
  707MOL0     H95412  -1.101   9.660   4.585  0.4336  1.8520 -1.4055
  707MOL0     H95413  -1.284   9.529   4.393  1.5575 -0.6177 -2.0918
  707MOL0     H95414  -1.241   9.707   4.380  0.6838 -1.0204 -0.1351
  707MOL0     H95415  -1.013   9.513   4.406  0.5047  1.0697  0.0238
  707MOL0     H95416  -1.029   9.660   4.313  2.0291 -0.2044  1.9913
  707MOL0     H95417  -1.168   9.385   4.268  2.1133 -1.0235  1.4641
  707MOL0     H95418  -1.204   9.517   4.159  1.2861  0.9753 -0.3847
  707MOL0     H95419  -0.922   9.408   4.203  0.8866  3.1559 -0.5224
  707MOL0     H95420  -0.970   9.520   4.079  2.2812 -0.5850 -0.3287
  707MOL0     H95421  -1.059   9.223   4.102 -1.8211  0.6928  2.2208
  707MOL0     H95422  -1.145   9.348   4.002  1.0406  1.3517  0.6565
  707MOL0     H95423  -1.011   9.181   3.885 -1.5049  0.8977 -0.1928
  707MOL0     H95424  -0.859   9.261   3.935 -0.0323  0.7665 -1.7823
  707MOL0     H95425  -0.940   9.474   3.816 -1.6741  0.9127  0.9711
  707MOL0     H95426  -1.088   9.399   3.786  0.8162  3.8407  1.2888
  707MOL0     H95427  -1.049   9.275   4.737 -0.5963  1.3588 -1.1697
  707MOL0     H95428  -1.046   9.237   4.997  0.7851 -0.8121 -1.3942
  707MOL0     H95429  -1.064   9.390   5.398 -0.2693  0.3641  0.3611
  707MOL0     H95430  -1.004   9.313   5.610  1.4890  1.1823 -1.0047
  707MOL0     H95431   0.508   8.456   6.372  0.4618  0.7218 -0.0756
  707MOL0     H95432   0.667   8.269   6.355 -1.3764 -1.4930 -2.4215
  707MOL0     H95433   0.577   7.645   6.273  1.7457 -3.8094  4.8032
  707MOL0     H95434   0.737   7.515   6.172 -0.7863  1.5427 -2.1563
  707MOL0     H95435   1.099   7.690   6.075 -0.6899 -1.9709 -4.5660
  707MOL0     H95436   1.174   7.594   6.202 -1.6773 -0.5663  1.8253
  707MOL0     H95437   1.180   7.386   6.102 -2.4365  0.5463  2.0265
  707MOL0     H95438   1.248   7.506   5.993  0.3558  0.6062  0.4097
  707MOL0     H95439   1.023   7.513   5.855 -3.4048 -0.1001  0.6447
  707MOL0     H95440   0.952   7.416   5.970  1.1448 -0.0412 -0.2391
  707MOL0     H95441   1.087   7.220   5.933 -0.5512  3.2588  2.9738
  707MOL0     H95442   1.166   7.305   5.788 -0.3349  2.4191 -0.2726
  707MOL0     H95443   0.794   7.250   5.614 -0.4386  0.2997  0.3947
  707MOL0     H95444   1.035   7.784   6.325  0.9146 -1.2010 -3.1892
  707MOL0     H95445   0.872   7.951   6.396  3.9219 -0.5072 -1.6495
  708MOL0     O95446   0.261   1.531   6.335 -0.2927  0.3488 -0.0070
  708MOL0     C95447   0.308   1.606   6.413 -0.3518  0.0505  0.6771
  708MOL0     O95448   0.283   1.736   6.423 -0.3047 -0.1718 -0.1037
  708MOL0     C95449   0.229   1.807   6.316  0.0559  1.0412  0.3214
  708MOL0     C95450   0.120   1.760   6.233 -0.1895 -0.1479  0.7858
  708MOL0     C95451   0.076   1.843   6.125  0.4898 -0.2274 -0.3099
  708MOL0     C95452   0.146   1.963   6.094 -0.3572  0.1821  0.6773
  708MOL0     O95453   0.124   2.032   5.977 -0.3415 -0.0318  0.1136
  708MOL0     C95454   0.016   1.998   5.895  0.7501 -0.1693  0.6588
  708MOL0     C95455   0.003   2.103   5.783 -0.4931  1.1350 -0.7289
  708MOL0     C95456  -0.142   2.117   5.739  0.9429 -0.3052  0.0740
  708MOL0     C95457  -0.151   2.218   5.627  0.4160 -0.0927  0.5546
  708MOL0     C95458  -0.061   2.188   5.504  0.2094  0.1629  0.9271
  708MOL0     C95459  -0.082   2.055   5.425 -0.0824  0.4257  0.2689
  708MOL0     C95460  -0.052   2.051   5.277  0.4906  0.3684  0.5067
  708MOL0     C95461   0.074   2.127   5.226  0.1224  0.1754 -0.7551
  708MOL0     N95462   0.031   2.253   5.160  0.1154  0.0086  0.3969
  708MOL0     C95463   0.019   2.271   5.024  0.7325  0.0341 -0.2938
  708MOL0     C95464  -0.010   2.404   5.019 -0.7988 -0.5953  0.0587
  708MOL0     C95465  -0.032   2.480   4.886 -0.3306  0.2990  0.4807
  708MOL0     C95466  -0.167   2.437   4.824  0.3819  0.7060 -0.0144
  708MOL0     C95467  -0.168   2.466   4.673  0.2529  0.1021 -0.3443
  708MOL0     C95468  -0.177   2.608   4.645 -0.3621  0.3825  0.2524
  708MOL0     O95469  -0.195   2.617   4.500  0.1081 -0.2889  0.4518
  708MOL0     C95470  -0.162   2.736   4.443 -0.1512 -0.0074 -0.0710
  708MOL0     C95471  -0.169   2.746   4.299 -0.8209 -0.5533  0.1532
  708MOL0     C95472  -0.143   2.861   4.229 -0.2199  0.3395  0.0368
  708MOL0     C95473  -0.154   2.854   4.080 -0.3764 -0.4622 -0.2391
  708MOL0     C95474  -0.116   2.984   4.291 -0.1675  0.1275 -0.4019
  708MOL0     C95475  -0.095   3.117   4.221 -0.3389  0.6510 -1.0952
  708MOL0     O95476  -0.097   3.225   4.306  0.5638  0.0468 -0.2119
  708MOL0     C95477  -0.071   3.351   4.255 -0.0694  0.2100 -1.0290
  708MOL0     C95478  -0.179   3.440   4.259  0.9776  0.2762  0.1429
  708MOL0     C95479  -0.160   3.574   4.210  0.0222 -0.3537 -0.0104
  708MOL0     C95480  -0.044   3.598   4.137 -0.8118  0.1267  0.7377
  708MOL0     O95481  -0.039   3.729   4.075 -0.3187  0.4884 -0.2174
  708MOL0     C95482  -0.022   3.730   3.926  0.4057  0.5502 -0.8375
  708MOL0     C95483  -0.142   3.681   3.839 -0.2263 -0.2055 -0.6752
  708MOL0     C95484  -0.249   3.786   3.823  0.0770  0.2403  0.3069
  708MOL0     C95485  -0.392   3.733   3.804 -0.6298 -0.3900 -0.2487
  708MOL0     C95486  -0.501   3.849   3.778  0.4602  0.3563  0.0226
  708MOL0     C95487  -0.546   3.933   3.895 -0.3224 -0.2671 -0.7976
  708MOL0     C95488  -0.582   3.854   4.019 -0.8422 -0.8355  0.6659
  708MOL0     C95489  -0.662   3.944   4.110  1.0720 -0.3911 -0.5522
  708MOL0    Cl95490  -0.563   4.070   4.180  0.2141  0.2187  0.7435
  708MOL0     C95491   0.064   3.502   4.138 -0.0306 -0.6160  0.0113
  708MOL0     C95492   0.052   3.379   4.200  1.4433  0.2743 -1.1524
  708MOL0     O95493  -0.056   3.113   4.102 -0.3949  0.2897 -0.6193
  708MOL0     C95494  -0.118   2.984   4.439 -0.1546  0.8324  0.0187
  708MOL0     C95495  -0.140   2.863   4.508  0.7244  0.1829  0.5305
  708MOL0     N95496  -0.002   2.468   5.142  0.0659 -0.4073 -0.0625
  708MOL0     N95497   0.018   2.371   5.228 -0.4865 -0.0335 -0.3648
  708MOL0     C95498   0.240   2.007   6.179 -0.7631  0.3641 -0.6219
  708MOL0     C95499   0.283   1.929   6.293 -0.0354 -0.6345  0.3116
  708MOL0     C95500   0.378   1.546   6.524 -0.4094  1.0431 -0.7668
  708MOL0     C95501   0.410   1.631   6.632 -0.2080 -0.1825  0.7496
  708MOL0     C95502   0.463   1.588   6.758  0.3540 -0.3378  0.0679
  708MOL0     C95503   0.482   1.445   6.784  0.3774  0.3978  0.7943
  708MOL0     O95504   0.523   1.396   6.905  0.7048 -0.1344  0.0441
  708MOL0     C95505   0.623   1.469   6.969 -0.1096 -0.5320  0.5348
  708MOL0     C95506   0.695   1.391   7.074  0.1858  0.6419 -0.5535
  708MOL0     C95507   0.760   1.268   7.027  0.6660 -0.0642 -0.9930
  708MOL0     C95508   0.831   1.194   7.145 -0.0560  0.1573  1.7362
  708MOL0     C95509   0.954   1.262   7.183  0.7490 -1.2389 -1.0331
  708MOL0     C95510   1.052   1.318   7.223  0.6752  0.0810  0.4313
  708MOL0     C95511   0.456   1.358   6.673  0.3068  0.2249  0.1084
  708MOL0     C95512   0.404   1.410   6.546  0.7084  0.9752  0.3729
  708MOL0     H95513   0.079   1.661   6.252 -0.3797 -0.7131 -2.1045
  708MOL0     H95514  -0.013   1.815   6.070 -0.6526  0.3504  1.1744
  708MOL0     H95515   0.032   1.901   5.847 -1.1350  0.7480 -2.1064
  708MOL0     H95516  -0.072   2.006   5.960 -0.6936 -1.5546 -1.0189
  708MOL0     H95517   0.049   2.198   5.813  2.2480 -0.7184  1.4758
  708MOL0     H95518   0.068   2.071   5.701 -1.0444 -0.2620 -0.6426
  708MOL0     H95519  -0.177   2.024   5.693 -1.7061  0.9189 -0.5838
  708MOL0     H95520  -0.200   2.158   5.822  1.1041 -1.1345  0.6006
  708MOL0     H95521  -0.258   2.224   5.604  0.7423 -1.0825 -1.4746
  708MOL0     H95522  -0.128   2.319   5.663  1.4017  0.1267 -0.6072
  708MOL0     H95523  -0.092   2.270   5.437  1.9187 -1.1466 -1.6468
  708MOL0     H95524   0.046   2.187   5.525  0.0735 -4.0698  2.3259
  708MOL0     H95525  -0.036   1.969   5.475 -1.6395 -0.1858  0.6799
  708MOL0     H95526  -0.185   2.023   5.443  0.8234 -1.3285  3.0143
  708MOL0     H95527  -0.049   1.944   5.255  0.7378  0.0285  2.1117
  708MOL0     H95528  -0.134   2.085   5.213  1.5368 -0.7631 -1.5598
  708MOL0     H95529   0.111   2.064   5.144 -2.1627 -0.9567 -0.9797
  708MOL0     H95530   0.140   2.150   5.310  2.4621 -1.6498 -1.9348
  708MOL0     H95531   0.026   2.201   4.942  0.8919  2.5508 -2.5648
  708MOL0     H95532  -0.031   2.587   4.905  0.0596  0.6325 -1.2537
  708MOL0     H95533   0.051   2.454   4.820 -0.7054  0.5550 -0.0988
  708MOL0     H95534  -0.257   2.487   4.861 -0.4718 -1.1670  0.5806
  708MOL0     H95535  -0.188   2.334   4.853  1.8750  1.3945  4.2323
  708MOL0     H95536  -0.254   2.416   4.628  0.3010 -1.6273  1.3528
  708MOL0     H95537  -0.078   2.427   4.626  2.3697  2.2159  1.6462
  708MOL0     H95538  -0.094   2.661   4.692 -0.4032 -1.2986  2.3670
  708MOL0     H95539  -0.269   2.650   4.686  0.1172  2.0245 -0.2625
  708MOL0     H95540  -0.182   2.656   4.241  1.4773 -0.4304 -0.6421
  708MOL0     H95541  -0.054   2.862   4.037 -1.5027 -1.1329 -3.2950
  708MOL0     H95542  -0.194   2.756   4.054  0.3659 -0.6798 -0.5881
  708MOL0     H95543  -0.229   2.927   4.047 -0.1981  0.2570  0.9152
  708MOL0     H95544  -0.274   3.414   4.306  1.2683 -0.3074  0.4094
  708MOL0     H95545  -0.239   3.648   4.208  1.5154  1.2820 -0.6443
  708MOL0     H95546  -0.005   3.834   3.897 -0.2327  1.2031  0.9707
  708MOL0     H95547   0.066   3.667   3.908  0.9212  1.2965 -0.9951
  708MOL0     H95548  -0.109   3.665   3.736  1.4000  1.6471 -0.4911
  708MOL0     H95549  -0.185   3.593   3.887  0.1516 -1.1280 -1.9807
  708MOL0     H95550  -0.227   3.860   3.746  1.8995 -1.1914 -0.6404
  708MOL0     H95551  -0.259   3.839   3.918 -0.3804  3.5586 -1.4523
  708MOL0     H95552  -0.397   3.672   3.713 -0.0407 -0.2537 -0.3755
  708MOL0     H95553  -0.419   3.664   3.884  2.6984 -2.8702 -1.0298
  708MOL0     H95554  -0.597   3.811   3.743 -1.2029  0.2324  4.1944
  708MOL0     H95555  -0.466   3.903   3.690  0.5183 -0.5923 -0.5536
  708MOL0     H95556  -0.468   4.007   3.914  0.1780 -0.6791 -1.2267
  708MOL0     H95557  -0.628   4.002   3.870  1.6375  4.4053  3.8028
  708MOL0     H95558  -0.496   3.821   4.078 -1.5401 -2.7623  0.6615
  708MOL0     H95559  -0.623   3.756   3.994  3.1691 -1.5850 -5.2592
  708MOL0     H95560  -0.712   3.886   4.188  1.1412 -0.6054 -0.6648
  708MOL0     H95561  -0.744   3.991   4.054  1.5195  3.6535  1.8517
  708MOL0     H95562   0.157   3.527   4.088 -0.0951  0.9057  0.6012
  708MOL0     H95563   0.135   3.310   4.191  1.5148  0.5635 -3.4930
  708MOL0     H95564  -0.123   3.072   4.502 -1.1136  1.5083 -0.9572
  708MOL0     H95565  -0.145   2.873   4.616  0.2148 -2.7232  0.8682
  708MOL0     H95566   0.293   2.100   6.162 -3.9132  2.4491  0.3037
  708MOL0     H95567   0.342   1.992   6.358  1.0245 -0.3749 -0.8769
  708MOL0     H95568   0.372   1.733   6.630  3.2901  1.2646  1.1278
  708MOL0     H95569   0.469   1.659   6.839  2.5808  1.0297 -1.1720
  708MOL0     H95570   0.696   1.500   6.894 -1.4264  2.1029  0.2296
  708MOL0     H95571   0.577   1.554   7.020  3.0722  0.8257  1.3568
  708MOL0     H95572   0.625   1.362   7.154 -0.9404  1.3821 -1.2393
  708MOL0     H95573   0.760   1.465   7.121 -2.0284  2.3001  0.1052
  708MOL0     H95574   0.829   1.305   6.950  2.5602 -1.8924 -0.2689
  708MOL0     H95575   0.686   1.196   6.991  2.2601 -2.9788  1.1522
  708MOL0     H95576   0.868   1.103   7.097 -1.6671 -0.1949  1.0944
  708MOL0     H95577   0.768   1.185   7.233  0.0923  0.9259  1.9302
  708MOL0     H95578   1.139   1.359   7.269  2.4653 -2.5842 -0.3925
  708MOL0     H95579   0.456   1.251   6.690  1.0509  0.1793 -0.1563
  708MOL0     H95580   0.383   1.342   6.464  1.4881  1.0425  0.1078
  709MOL0     O95581   6.964   4.795   6.139  0.2177  0.5155  0.1646
  709MOL0     C95582   6.906   4.828   6.247 -0.6136  0.3314  0.2810
  709MOL0     O95583   6.905   4.743   6.356 -0.4598  0.2291 -0.2142
  709MOL0     C95584   7.009   4.646   6.367 -0.3135 -0.2606  0.8587
  709MOL0     C95585   6.984   4.520   6.306 -0.3456  0.6756  0.2553
  709MOL0     C95586   7.086   4.424   6.314  0.9546 -0.0877  0.1633
  709MOL0     C95587   7.201   4.443   6.399 -0.4070 -0.7659  0.4325
  709MOL0     O95588   7.305   4.359   6.425 -0.5300  0.4368 -0.7234
  709MOL0     C95589   7.289   4.228   6.364 -0.0591  0.2263  1.0508
  709MOL0     C95590   7.420   4.153   6.404  0.4252  0.9087 -0.9391
  709MOL0     C95591   7.526   4.193   6.302 -0.3570 -0.3835  1.0133
  709MOL0     C95592   7.669   4.126   6.317  0.5494 -0.8671  0.6178
  709MOL0     C95593   7.764   4.203   6.221  0.2379  0.2460  0.2199
  709MOL0     C95594   7.918   4.181   6.263 -0.0104  0.5131  0.2743
  709MOL0     C95595   8.020   4.279   6.201 -0.2738  0.0778  0.8515
  709MOL0     C95596   8.026   4.269   6.045  0.1921  0.0863  0.1583
  709MOL0     N95597   8.063   4.136   5.995  0.0563  0.0228  0.4085
  709MOL0     C95598   7.979   4.031   5.975  0.5953  0.4042 -0.0351
  709MOL0     C95599   8.064   3.924   5.941 -0.2853 -0.7544  0.2981
  709MOL0     C95600   8.016   3.781   5.903 -0.0818 -0.5460 -0.4126
  709MOL0     C95601   7.969   3.800   5.765  0.0080  0.3457  0.9008
  709MOL0     C95602   7.908   3.682   5.703 -0.8471  0.3153  1.1533
  709MOL0     C95603   8.004   3.573   5.654  0.5911 -0.5925  0.1092
  709MOL0     O95604   8.052   3.499   5.764 -0.2483 -0.4824 -0.6733
  709MOL0     C95605   8.117   3.376   5.745  0.3530  1.0503 -0.2912
  709MOL0     C95606   8.152   3.306   5.856  0.3633  0.5506 -0.1095
  709MOL0     C95607   8.239   3.196   5.847 -0.3615  0.1188  0.7089
  709MOL0     C95608   8.274   3.145   5.985 -0.7119  0.2550 -0.8856
  709MOL0     C95609   8.283   3.136   5.724  0.6005 -0.3006 -0.5367
  709MOL0     C95610   8.354   3.009   5.707  0.1294  0.7714  0.4142
  709MOL0     O95611   8.369   2.927   5.813  0.4483  0.2473  0.6708
  709MOL0     C95612   8.447   2.812   5.799  0.0984 -0.4377 -0.3257
  709MOL0     C95613   8.408   2.717   5.704 -0.7610  0.1297 -0.1953
  709MOL0     C95614   8.478   2.598   5.694 -0.0453 -0.6601  0.6472
  709MOL0     C95615   8.579   2.570   5.784  0.3617 -0.3254 -0.1350
  709MOL0     O95616   8.644   2.450   5.755  0.6310 -0.7627 -0.4040
  709MOL0     C95617   8.781   2.444   5.799 -0.3919 -0.3524 -0.2395
  709MOL0     C95618   8.852   2.321   5.741  0.1351 -0.0665 -0.3115
  709MOL0     C95619   8.927   2.351   5.610 -0.2420 -0.2976 -0.1603
  709MOL0     C95620   8.975   2.218   5.555 -0.1391  0.4391  1.0793
  709MOL0     C95621   9.057   2.231   5.424  0.4645  0.5794  0.1175
  709MOL0     C95622   9.192   2.295   5.452  0.0023 -0.2444 -0.4448
  709MOL0     C95623   9.250   2.322   5.308  0.9871 -0.0783 -0.2428
  709MOL0     C95624   9.392   2.379   5.319  0.8193 -0.7653  0.0294
  709MOL0    Cl95625   9.381   2.534   5.409  0.2093 -0.1483 -0.3231
  709MOL0     C95626   8.608   2.657   5.889  0.5575  0.0485  0.1790
  709MOL0     C95627   8.534   2.781   5.902  0.2665  1.2951 -0.7780
  709MOL0     O95628   8.388   2.980   5.590  0.1615 -0.6475 -0.6113
  709MOL0     C95629   8.242   3.211   5.607  0.8870 -0.9060 -0.6006
  709MOL0     C95630   8.161   3.325   5.616  0.0225  0.2697  0.3488
  709MOL0     N95631   8.198   3.963   5.941  0.1541 -0.0440 -1.4440
  709MOL0     N95632   8.190   4.089   5.981  0.5762  0.2136 -0.0359
  709MOL0     C95633   7.221   4.576   6.450  0.1600  0.5763 -0.4245
  709MOL0     C95634   7.120   4.671   6.439  0.4180 -0.3313 -0.2282
  709MOL0     C95635   6.824   4.947   6.243 -0.3435 -0.6385 -0.1680
  709MOL0     C95636   6.795   5.010   6.121  0.2078 -1.2279 -0.3034
  709MOL0     C95637   6.700   5.119   6.116  0.2547  0.3003  0.1176
  709MOL0     C95638   6.640   5.171   6.229  0.3628  0.0332  0.0597
  709MOL0     O95639   6.546   5.273   6.212  0.3132  0.5024  0.4135
  709MOL0     C95640   6.522   5.375   6.314  0.6798 -0.9160 -0.4795
  709MOL0     C95641   6.446   5.483   6.241  1.5934 -0.2314 -0.4738
  709MOL0     C95642   6.385   5.594   6.334  0.1370  0.2040  0.5899
  709MOL0     C95643   6.262   5.548   6.415 -1.7102 -0.2113  0.2150
  709MOL0     C95644   6.240   5.651   6.512  0.3217 -0.5444 -0.1729
  709MOL0     C95645   6.223   5.735   6.591  0.7149 -0.3416 -0.0987
  709MOL0     C95646   6.679   5.115   6.354  0.5434 -0.1828  0.3995
  709MOL0     C95647   6.760   5.004   6.360 -0.3853 -0.1921  0.0038
  709MOL0     H95648   6.895   4.504   6.246  0.4349  2.7646 -1.5928
  709MOL0     H95649   7.052   4.330   6.272 -0.9012  0.2776  0.7569
  709MOL0     H95650   7.200   4.178   6.403 -0.3546  0.8529  1.1803
  709MOL0     H95651   7.274   4.242   6.256 -1.0476 -0.4095  1.0895
  709MOL0     H95652   7.453   4.185   6.503 -1.9798  4.9600 -1.2276
  709MOL0     H95653   7.386   4.049   6.400 -2.1904  1.6130  0.6459
  709MOL0     H95654   7.491   4.169   6.201  0.1460  1.1203  0.4443
  709MOL0     H95655   7.537   4.302   6.305  0.6311 -0.3806 -0.9858
  709MOL0     H95656   7.708   4.136   6.418 -1.0011  2.5949  0.9902
  709MOL0     H95657   7.671   4.017   6.304 -3.5964 -1.2370  1.8428
  709MOL0     H95658   7.734   4.170   6.121 -5.0324 -2.8691  2.4213
  709MOL0     H95659   7.764   4.312   6.234  1.4669  0.2028  0.6742
  709MOL0     H95660   7.930   4.175   6.371 -0.0536 -0.3607  0.2344
  709MOL0     H95661   7.944   4.079   6.232 -0.7609  0.9452 -2.0213
  709MOL0     H95662   8.005   4.380   6.240  3.9960  0.2915  2.5718
  709MOL0     H95663   8.121   4.261   6.240  0.7638  1.0470 -1.2233
  709MOL0     H95664   8.106   4.338   6.019  0.9975 -0.8340  0.1503
  709MOL0     H95665   7.927   4.291   6.004 -1.1261 -3.5957  0.9700
  709MOL0     H95666   7.872   4.047   5.983  0.3206 -0.9915 -0.7378
  709MOL0     H95667   8.097   3.707   5.905  1.3795  1.0232  0.5046
  709MOL0     H95668   7.944   3.741   5.975  1.8838 -2.9315  0.3705
  709MOL0     H95669   8.059   3.835   5.714 -0.6242  2.3775  1.0865
  709MOL0     H95670   7.900   3.885   5.767 -0.4488  0.1320 -1.6587
  709MOL0     H95671   7.841   3.708   5.620 -1.4420 -2.3823  0.7094
  709MOL0     H95672   7.845   3.625   5.772 -2.0282 -1.3215 -1.1391
  709MOL0     H95673   8.086   3.612   5.592 -0.8475  0.3024 -1.2990
  709MOL0     H95674   7.953   3.503   5.588 -1.5342 -0.9818  2.0501
  709MOL0     H95675   8.121   3.357   5.946  4.0070  2.2141  0.3685
  709MOL0     H95676   8.377   3.122   6.013 -0.5700  1.8894  0.1038
  709MOL0     H95677   8.242   3.217   6.061  1.3497  0.9885 -0.6402
  709MOL0     H95678   8.205   3.061   5.990 -0.3968 -0.1158 -2.3687
  709MOL0     H95679   8.335   2.730   5.625  0.9667  0.1462 -1.8536
  709MOL0     H95680   8.443   2.530   5.617  3.8516 -0.0844 -1.9145
  709MOL0     H95681   8.831   2.536   5.767  0.0586 -0.2106  0.8260
  709MOL0     H95682   8.786   2.450   5.908 -0.4628  3.3609 -0.2945
  709MOL0     H95683   8.936   2.292   5.805  0.8819 -2.7135 -2.3045
  709MOL0     H95684   8.789   2.231   5.739 -1.7931  1.0581  2.4618
  709MOL0     H95685   9.009   2.422   5.621  1.0983 -1.9929  1.4116
  709MOL0     H95686   8.856   2.407   5.548  0.3228 -0.1202 -0.6606
  709MOL0     H95687   9.035   2.157   5.623 -1.0055 -0.3836  1.1193
  709MOL0     H95688   8.889   2.154   5.533  2.0217 -1.8934 -1.3196
  709MOL0     H95689   9.007   2.295   5.350 -0.3135  0.4639  0.5298
  709MOL0     H95690   9.079   2.135   5.375 -1.2358 -1.2717  2.7164
  709MOL0     H95691   9.187   2.395   5.497  4.4073 -0.1199  0.2937
  709MOL0     H95692   9.266   2.237   5.508 -0.6149  1.0118  1.7761
  709MOL0     H95693   9.194   2.400   5.255  3.3314  0.4372 -2.1465
  709MOL0     H95694   9.251   2.234   5.244  0.1355  0.1091 -0.5216
  709MOL0     H95695   9.433   2.384   5.217  2.5963 -3.3964  0.5420
  709MOL0     H95696   9.455   2.310   5.373  1.2873 -2.8615 -2.9457
  709MOL0     H95697   8.685   2.632   5.961  0.8769 -2.0670 -0.8495
  709MOL0     H95698   8.547   2.840   5.993 -1.5669  0.5425  0.0195
  709MOL0     H95699   8.284   3.180   5.511  2.9370  0.5216 -0.2371
  709MOL0     H95700   8.132   3.381   5.528  1.3618 -1.8875 -1.5600
  709MOL0     H95701   7.302   4.602   6.517 -2.3546  1.0692  2.6750
  709MOL0     H95702   7.122   4.771   6.481 -0.7227 -1.4222  2.6232
  709MOL0     H95703   6.845   4.989   6.027  2.1676  5.8722 -1.4993
  709MOL0     H95704   6.686   5.162   6.017  2.1434 -0.1752 -0.3824
  709MOL0     H95705   6.460   5.332   6.393  1.8661  0.5735  1.3614
  709MOL0     H95706   6.614   5.401   6.367  0.5761 -1.0695 -0.2200
  709MOL0     H95707   6.370   5.444   6.172 -1.0930  3.5796  0.0209
  709MOL0     H95708   6.508   5.549   6.180 -1.3709  1.2866 -2.0433
  709MOL0     H95709   6.362   5.678   6.268  0.5761  0.5736  0.9093
  709MOL0     H95710   6.465   5.628   6.400  1.5533  0.9913 -1.4156
  709MOL0     H95711   6.287   5.457   6.470  2.9645 -0.3129 -1.5955
  709MOL0     H95712   6.182   5.528   6.343  0.2943 -0.2616 -2.1451
  709MOL0     H95713   6.190   5.816   6.654 -1.7936 -1.9552  0.8098
  709MOL0     H95714   6.645   5.150   6.452  2.2796  0.2062  0.9123
  709MOL0     H95715   6.784   4.945   6.448 -3.1573 -1.3771  0.0584
  710MOL0     O95716  11.002   0.663   3.169 -0.3401 -0.7777 -0.2497
  710MOL0     C95717  10.981   0.610   3.279 -0.6727 -0.0227 -0.3021
  710MOL0     O95718  11.062   0.617   3.385 -0.3507  0.4619 -0.2130
  710MOL0     C95719  11.178   0.685   3.362 -0.3082 -1.3120  0.5023
  710MOL0     C95720  11.194   0.815   3.403  0.1179 -0.8429 -0.3377
  710MOL0     C95721  11.310   0.889   3.377 -0.0693  0.3287  0.0578
  710MOL0     C95722  11.419   0.821   3.311  0.2118  0.0150  0.1750
  710MOL0     O95723  11.540   0.877   3.275  0.0554 -0.1004  0.0251
  710MOL0     C95724  11.585   0.969   3.364 -1.0112 -0.0194 -0.1763
  710MOL0     C95725  11.719   1.016   3.321 -0.3095  0.2440  0.0213
  710MOL0     C95726  11.831   0.913   3.346  0.1569  0.0220 -0.3975
  710MOL0     C95727  11.900   0.924   3.487  0.3737 -0.2573 -0.5067
  710MOL0     C95728  11.992   0.805   3.503  0.0005 -0.1242 -0.1244
  710MOL0     C95729  12.087   0.816   3.616 -0.3565  0.0192 -0.3515
  710MOL0     C95730  12.213   0.713   3.610 -0.4864  0.1236 -0.9822
  710MOL0     C95731  12.291   0.713   3.744  0.2079  0.0459  0.6478
  710MOL0     N95732  12.335   0.844   3.765 -0.4713 -1.0884 -1.2765
  710MOL0     C95733  12.426   0.914   3.686  0.3258  0.4790  0.1290
  710MOL0     C95734  12.438   1.034   3.730  1.0407  0.2710  0.0319
  710MOL0     C95735  12.523   1.142   3.661 -0.4317  1.3405 -0.4786
  710MOL0     C95736  12.677   1.144   3.697  0.4601 -0.3722  0.0235
  710MOL0     C95737  12.747   1.279   3.656 -0.3317 -0.0887 -1.2262
  710MOL0     C95738  12.882   1.280   3.736 -0.2244 -0.3643 -0.0395
  710MOL0     O95739  12.930   1.418   3.738 -0.0488 -0.1657  0.3544
  710MOL0     C95740  13.034   1.448   3.659  0.0234 -0.7531  0.1858
  710MOL0     C95741  13.054   1.395   3.531 -0.3147 -0.5010  0.0758
  710MOL0     C95742  13.169   1.425   3.445  0.1370 -1.0135 -0.1057
  710MOL0     C95743  13.174   1.362   3.313  0.3901  0.1002 -0.0714
  710MOL0     C95744  13.259   1.521   3.491 -0.9794 -0.0629  0.4190
  710MOL0     C95745  13.370   1.580   3.407  0.7356 -0.5703 -0.1540
  710MOL0     O95746  13.461   1.663   3.471 -0.3638 -0.4382  0.4684
  710MOL0     C95747  13.564   1.713   3.397  0.0687 -0.0041  0.0946
  710MOL0     C95748  13.694   1.682   3.426 -0.1320  0.2382  0.5582
  710MOL0     C95749  13.805   1.731   3.362 -0.4027  0.4115  0.1450
  710MOL0     C95750  13.783   1.842   3.277 -0.3419  1.2030  0.2654
  710MOL0     O95751  13.894   1.907   3.226  0.1734  0.3086  0.6490
  710MOL0     C95752  13.895   2.053   3.214 -0.2186 -0.5524 -0.7296
  710MOL0     C95753  14.043   2.094   3.176  0.2549  0.8971  0.4754
  710MOL0     C95754  14.083   2.022   3.040 -0.5550 -0.0652 -0.0239
  710MOL0     C95755  14.221   2.079   3.005 -0.7146  0.3661  0.6641
  710MOL0     C95756  14.258   2.028   2.861  0.6359  0.6017  0.6434
  710MOL0     C95757  14.403   2.029   2.824 -1.3585 -0.6951  0.0202
  710MOL0     C95758  14.429   1.983   2.685  0.0334 -0.4673  0.8892
  710MOL0     C95759  14.449   1.836   2.683 -0.0518 -0.0015  0.3483
  710MOL0    Cl95760  14.499   1.766   2.528  0.5155  0.1468 -0.0941
  710MOL0     C95761  13.650   1.874   3.234  0.4358 -0.0246  1.1678
  710MOL0     C95762  13.541   1.815   3.298  0.5537 -0.4710 -0.0782
  710MOL0     O95763  13.374   1.556   3.290  0.7080 -0.3435 -0.0485
  710MOL0     C95764  13.235   1.584   3.611 -0.6782 -0.7242 -0.4080
  710MOL0     C95765  13.128   1.543   3.696  0.6158 -0.2494 -1.0966
  710MOL0     N95766  12.360   1.044   3.845  0.4168 -1.1457 -0.4596
  710MOL0     N95767  12.298   0.935   3.866 -0.5813  0.3704 -0.0319
  710MOL0     C95768  11.404   0.684   3.279 -0.4696  0.5462 -1.0988
  710MOL0     C95769  11.283   0.617   3.292  0.2995  0.2269 -0.4772
  710MOL0     C95770  10.856   0.525   3.297 -0.2675 -0.4379  0.3538
  710MOL0     C95771  10.753   0.540   3.205 -0.2139  0.4754 -0.1357
  710MOL0     C95772  10.638   0.459   3.217  0.3436  0.4757 -0.2766
  710MOL0     C95773  10.610   0.378   3.331  0.3475 -1.0086 -0.0692
  710MOL0     O95774  10.486   0.329   3.352 -0.4978  0.5464  0.0568
  710MOL0     C95775  10.481   0.186   3.322  0.2731 -0.1077  0.2429
  710MOL0     C95776  10.453   0.166   3.170  0.2735  0.5165 -0.0217
  710MOL0     C95777  10.308   0.202   3.135  0.0480 -0.2699  0.0390
  710MOL0     C95778  10.294   0.331   3.059  0.5614 -0.6148  1.0913
  710MOL0     C95779  10.153   0.341   3.004  0.1489 -0.6020  0.0580
  710MOL0     C95780  10.042   0.336   2.950 -0.0603  0.6926 -0.1734
  710MOL0     C95781  10.717   0.369   3.418  0.6294  0.2118 -0.8162
  710MOL0     C95782  10.833   0.444   3.406  0.0375  1.2777  0.0035
  710MOL0     H95783  11.116   0.856   3.467 -1.2431 -1.9091 -1.2366
  710MOL0     H95784  11.315   0.989   3.418  1.4053 -0.2958  1.5272
  710MOL0     H95785  11.517   1.055   3.369 -4.7569 -2.6823 -1.1761
  710MOL0     H95786  11.601   0.916   3.459 -0.5824  0.4387  0.0099
  710MOL0     H95787  11.716   1.043   3.215 -0.4553  3.0082  0.6671
  710MOL0     H95788  11.734   1.107   3.379 -1.5895  1.2786 -1.1981
  710MOL0     H95789  11.806   0.810   3.320  1.7344  0.0613 -2.3408
  710MOL0     H95790  11.901   0.940   3.265 -1.7121  0.8660 -1.8204
  710MOL0     H95791  11.963   1.012   3.502  2.1566 -0.8765 -3.5110
  710MOL0     H95792  11.824   0.916   3.566 -0.6638 -0.2076 -1.4816
  710MOL0     H95793  11.925   0.723   3.528 -4.3059  2.7734 -1.1649
  710MOL0     H95794  12.044   0.781   3.411  1.0726  3.5636 -0.6566
  710MOL0     H95795  12.126   0.916   3.636  1.3017 -0.5955 -0.2829
  710MOL0     H95796  12.035   0.786   3.708  1.5655  0.6719  1.0172
  710MOL0     H95797  12.182   0.609   3.602  0.3352 -0.3675  1.4275
  710MOL0     H95798  12.271   0.743   3.522 -0.8290  1.5833 -0.7408
  710MOL0     H95799  12.376   0.643   3.746  1.4374  1.4909  0.9904
  710MOL0     H95800  12.221   0.690   3.825 -0.5208 -3.2843 -0.7438
  710MOL0     H95801  12.476   0.871   3.600 -0.4269  2.1239 -1.1966
  710MOL0     H95802  12.512   1.138   3.553  1.6143  1.9467 -0.7654
  710MOL0     H95803  12.476   1.237   3.688  2.0994  2.7060 -0.5523
  710MOL0     H95804  12.723   1.054   3.654 -2.3051 -0.8178 -2.3028
  710MOL0     H95805  12.696   1.144   3.804 -0.2710 -1.3024  0.1713
  710MOL0     H95806  12.679   1.357   3.691  0.3616 -0.2332  0.5171
  710MOL0     H95807  12.758   1.273   3.547  3.8778 -1.8798 -0.8734
  710MOL0     H95808  12.956   1.219   3.683  0.8419  1.8681 -1.2648
  710MOL0     H95809  12.877   1.234   3.835  0.0033  0.9110  0.5778
  710MOL0     H95810  12.977   1.329   3.492 -1.9103  2.7638 -2.8584
  710MOL0     H95811  13.095   1.286   3.313  1.2050 -1.0331 -4.6778
  710MOL0     H95812  13.132   1.440   3.249  0.1059  0.0026 -0.0070
  710MOL0     H95813  13.270   1.320   3.282  1.4060  0.1974  2.7219
  710MOL0     H95814  13.716   1.603   3.496  2.5591  1.9906  1.8422
  710MOL0     H95815  13.904   1.690   3.378  0.0949  1.1404 -0.9360
  710MOL0     H95816  13.820   2.068   3.136 -1.4071  2.5279  0.8478
  710MOL0     H95817  13.860   2.111   3.299  1.3962  0.4179 -0.6840
  710MOL0     H95818  14.054   2.203   3.169 -2.0300  1.4016  2.9853
  710MOL0     H95819  14.107   2.063   3.259 -1.7303  0.2449  1.8465
  710MOL0     H95820  14.021   2.042   2.952  2.4580 -2.0992 -2.8393
  710MOL0     H95821  14.084   1.914   3.051  0.9685 -0.1959 -1.1777
  710MOL0     H95822  14.224   2.186   3.026  2.1187  0.2217  1.3905
  710MOL0     H95823  14.298   2.036   3.069  0.4581 -0.2542 -1.0995
  710MOL0     H95824  14.207   2.084   2.782  2.8985  2.8478  0.6653
  710MOL0     H95825  14.233   1.921   2.860  0.6999  0.4359  4.0885
  710MOL0     H95826  14.444   2.129   2.838 -0.2424 -1.4341  2.8291
  710MOL0     H95827  14.465   1.966   2.888 -0.5922 -0.6903 -0.7030
  710MOL0     H95828  14.524   2.020   2.646 -0.0216 -1.5384 -0.3389
  710MOL0     H95829  14.345   2.003   2.618  3.2117  1.9773 -2.7706
  710MOL0     H95830  14.358   1.780   2.705 -1.2603  1.5576 -0.4293
  710MOL0     H95831  14.529   1.807   2.752 -0.5751 -1.0309  0.5237
  710MOL0     H95832  13.638   1.951   3.159  2.9165 -0.6450  0.0629
  710MOL0     H95833  13.436   1.832   3.278  0.8625  0.0337 -1.3648
  710MOL0     H95834  13.299   1.666   3.643 -0.2154 -0.2979 -2.3485
  710MOL0     H95835  13.119   1.596   3.790  3.9984 -0.1265 -0.7120
  710MOL0     H95836  11.484   0.623   3.238 -2.3389 -3.0709  0.2389
  710MOL0     H95837  11.254   0.518   3.259 -0.6426  0.3399 -0.0372
  710MOL0     H95838  10.764   0.612   3.125  1.4211 -0.3908 -0.7279
  710MOL0     H95839  10.561   0.478   3.144 -1.0020  3.1008  1.6439
  710MOL0     H95840  10.577   0.135   3.336 -0.7064 -1.8139  1.0244
  710MOL0     H95841  10.408   0.132   3.382 -0.7389 -0.7319 -1.4619
  710MOL0     H95842  10.452   0.061   3.140 -1.9535  0.0482  1.4987
  710MOL0     H95843  10.524   0.217   3.103  0.2086  1.9420  0.9516
  710MOL0     H95844  10.249   0.214   3.226 -0.4271 -3.1230  0.1866
  710MOL0     H95845  10.270   0.132   3.060 -1.8228  1.9543 -1.2295
  710MOL0     H95846  10.374   0.332   2.984  0.5283 -0.1580  1.0571
  710MOL0     H95847  10.318   0.419   3.120  0.3926  0.2774 -0.0969
  710MOL0     H95848   9.937   0.331   2.929 -0.8124 -0.0647  3.1918
  710MOL0     H95849  10.711   0.306   3.506 -2.2932 -0.2658 -1.2704
  710MOL0     H95850  10.906   0.432   3.486  0.9072  0.4984 -0.8700
  711MOL0     O95851   7.025  10.044   1.722 -0.2068  0.8393  0.0266
  711MOL0     C95852   7.007  10.113   1.623  0.2596  0.8354 -0.2907
  711MOL0     O95853   6.884  10.151   1.574 -0.2507 -0.2600  0.6393
  711MOL0     C95854   6.783  10.139   1.670  0.2230 -0.0114  0.1702
  711MOL0     C95855   6.744  10.249   1.742 -0.7089  0.7421  0.4205
  711MOL0     C95856   6.634  10.243   1.831  0.4123  1.0093 -0.4015
  711MOL0     C95857   6.560  10.121   1.855 -0.6355  0.0604  0.2468
  711MOL0     O95858   6.449  10.125   1.936 -0.0539 -0.8783 -0.0803
  711MOL0     C95859   6.366  10.012   1.951 -0.5196 -0.6847 -0.3844
  711MOL0     C95860   6.264  10.027   2.062 -0.4584 -0.7441 -0.0496
  711MOL0     C95861   6.182  10.156   2.046  0.2693  0.6440  0.7351
  711MOL0     C95862   6.056  10.146   2.137  0.1177  0.8862 -0.9882
  711MOL0     C95863   6.000  10.280   2.150  0.5919  0.2852  0.3396
  711MOL0     C95864   5.964  10.349   2.016 -0.9573 -0.3346 -0.1351
  711MOL0     C95865   5.883  10.478   2.029  0.6435  0.4588 -0.0259
  711MOL0     C95866   5.829  10.505   1.892  0.9352 -0.7708  0.9974
  711MOL0     N95867   5.753  10.629   1.869  0.0127  0.0301  0.5171
  711MOL0     C95868   5.715  10.713   1.968  0.5148 -0.1974 -0.0467
  711MOL0     C95869   5.616  10.789   1.915 -0.0345 -0.6318 -0.1229
  711MOL0     C95870   5.528  10.893   1.985  0.7274  0.1292 -0.1750
  711MOL0     C95871   5.478  10.843   2.119  1.2230  1.2978 -0.0149
  711MOL0     C95872   5.321  10.813   2.123 -0.3303 -0.1469  0.5937
  711MOL0     C95873   5.234  10.934   2.116 -0.5740 -0.5584 -0.4538
  711MOL0     O95874   5.251  11.009   2.240 -0.2622  0.3368  0.9302
  711MOL0     C95875   5.163  11.114   2.257 -0.2885 -0.6975  0.3923
  711MOL0     C95876   5.163  11.178   2.381  0.1171 -1.1350 -0.0254
  711MOL0     C95877   5.079  11.286   2.417 -0.3215 -0.3190 -0.6796
  711MOL0     C95878   5.086  11.338   2.564 -0.3537 -0.2060 -0.3997
  711MOL0     C95879   4.987  11.337   2.316 -0.4621  0.4118  0.6850
  711MOL0     C95880   4.913  11.459   2.331  0.2508 -0.1883  0.3446
  711MOL0     O95881   4.822  11.491   2.233 -1.0019  0.0870 -0.4425
  711MOL0     C95882   4.774  11.621   2.246 -0.3090  0.3275  0.6190
  711MOL0     C95883   4.790  11.710   2.139 -0.3922  0.1007 -0.6103
  711MOL0     C95884   4.714  11.831   2.152 -0.1903 -0.4297 -0.5560
  711MOL0     C95885   4.624  11.855   2.254 -0.1375  0.3237 -0.2528
  711MOL0     O95886   4.540  11.964   2.267  0.2908 -0.0100 -0.5692
  711MOL0     C95887   4.494  12.021   2.144  0.2957  0.7418 -0.1572
  711MOL0     C95888   4.375  12.110   2.168 -0.3217 -0.4072  0.0056
  711MOL0     C95889   4.400  12.230   2.272  1.3518  0.6810  0.9525
  711MOL0     C95890   4.262  12.303   2.291 -0.6980  0.3897  0.0868
  711MOL0     C95891   4.195  12.371   2.166  0.6774 -0.1682  0.0313
  711MOL0     C95892   4.272  12.492   2.112  0.1859 -0.5926  0.3238
  711MOL0     C95893   4.185  12.592   2.035  0.3101  0.1553 -0.1516
  711MOL0     C95894   4.258  12.726   2.002 -0.1012  0.4595 -0.9087
  711MOL0    Cl95895   4.155  12.842   1.922 -0.5513  0.3861  0.0372
  711MOL0     C95896   4.616  11.760   2.358  0.1936 -0.5071 -0.8856
  711MOL0     C95897   4.690  11.643   2.357  0.3152  0.3195  0.5835
  711MOL0     O95898   4.947  11.534   2.424 -0.0689 -0.2422 -0.2160
  711MOL0     C95899   4.978  11.263   2.193  0.0727  0.3174 -0.0932
  711MOL0     C95900   5.064  11.155   2.165 -0.0111  0.1773  0.5436
  711MOL0     N95901   5.604  10.750   1.785  0.1699 -0.1514  0.3657
  711MOL0     N95902   5.682  10.652   1.761  0.5201 -0.4848  0.3288
  711MOL0     C95903   6.604  10.011   1.780 -0.5410  0.2384  0.6578
  711MOL0     C95904   6.720  10.012   1.695  0.0228 -0.2398 -0.3910
  711MOL0     C95905   7.128  10.156   1.542  0.0079  0.1105 -0.7229
  711MOL0     C95906   7.258  10.120   1.580  0.3668 -0.5831  0.6107
  711MOL0     C95907   7.368  10.148   1.505  0.1250  0.3733 -0.1114
  711MOL0     C95908   7.357  10.231   1.396  0.1537  0.7564 -0.4563
  711MOL0     O95909   7.471  10.258   1.315  0.1108 -0.0190 -0.4335
  711MOL0     C95910   7.458  10.342   1.202 -0.0176  0.3657  0.5884
  711MOL0     C95911   7.567  10.364   1.104  0.1051  0.9948  0.2060
  711MOL0     C95912   7.702  10.392   1.168 -1.0540 -0.1477 -0.7620
  711MOL0     C95913   7.819  10.382   1.070 -0.1634 -0.5402  0.2143
  711MOL0     C95914   7.953  10.378   1.130  0.4833 -0.5022 -0.6691
  711MOL0     C95915   8.053  10.374   1.202  0.2208  0.2517 -0.8852
  711MOL0     C95916   7.226  10.284   1.372  0.0382 -0.0795  0.1421
  711MOL0     C95917   7.114  10.255   1.448 -0.0132 -0.3889  0.9910
  711MOL0     H95918   6.808  10.334   1.716  1.6928 -1.3895 -1.0999
  711MOL0     H95919   6.597  10.333   1.879  0.3943  1.0980 -0.5786
  711MOL0     H95920   6.314   9.996   1.857  1.5062 -1.1045 -1.4914
  711MOL0     H95921   6.432   9.925   1.961 -2.3765 -2.5372 -3.0845
  711MOL0     H95922   6.204   9.936   2.058  0.0302 -1.1334  0.9812
  711MOL0     H95923   6.304  10.027   2.164 -0.8068  0.2225  0.0990
  711MOL0     H95924   6.249  10.239   2.070  1.9204 -1.4705  4.4875
  711MOL0     H95925   6.148  10.169   1.943  0.9937  1.5323  0.5970
  711MOL0     H95926   5.989  10.075   2.086  0.3918  1.0949 -1.6377
  711MOL0     H95927   6.088  10.105   2.233 -0.4128 -0.1475 -1.2365
  711MOL0     H95928   5.907  10.264   2.205  1.0592 -2.9627  0.3628
  711MOL0     H95929   6.061  10.345   2.213  1.2210 -0.7932  0.8640
  711MOL0     H95930   6.046  10.374   1.949  0.2184 -4.2665 -0.4519
  711MOL0     H95931   5.907  10.268   1.969 -2.2335 -1.2952  2.8513
  711MOL0     H95932   5.806  10.474   2.106  2.0938  2.4169  1.6316
  711MOL0     H95933   5.951  10.559   2.057 -0.2216  1.6239 -1.1218
  711MOL0     H95934   5.756  10.426   1.871  0.9425 -1.4338  3.2433
  711MOL0     H95935   5.912  10.496   1.821  0.9580  0.0374  0.9124
  711MOL0     H95936   5.752  10.711   2.070 -0.3627 -3.1048  0.3014
  711MOL0     H95937   5.595  10.974   2.015 -0.0867 -0.8764  5.5694
  711MOL0     H95938   5.445  10.924   1.921  0.5674 -1.9275 -1.0552
  711MOL0     H95939   5.508  10.915   2.196 -0.5375  3.6345 -1.3739
  711MOL0     H95940   5.528  10.752   2.152 -2.2814 -0.5542  0.7343
  711MOL0     H95941   5.291  10.772   2.220 -0.6093 -1.1387  0.1105
  711MOL0     H95942   5.300  10.751   2.035  0.5628 -2.1238  1.6807
  711MOL0     H95943   5.127  10.908   2.114 -1.0036  1.0239  0.3046
  711MOL0     H95944   5.251  11.001   2.032 -2.4821 -0.2160 -0.6107
  711MOL0     H95945   5.236  11.139   2.451  0.3092  1.3757  1.2699
  711MOL0     H95946   5.129  11.262   2.630 -1.1598 -2.7070 -2.5503
  711MOL0     H95947   5.152  11.425   2.568  0.8558 -0.9786 -2.1029
  711MOL0     H95948   4.986  11.363   2.601  0.0852  0.3620  0.4229
  711MOL0     H95949   4.859  11.682   2.060  0.5071 -4.8126  1.5708
  711MOL0     H95950   4.732  11.899   2.069  2.9868 -2.6613 -1.9242
  711MOL0     H95951   4.570  12.078   2.091  1.4512  0.2079  0.8817
  711MOL0     H95952   4.463  11.933   2.087  0.8795  0.1946  0.3517
  711MOL0     H95953   4.346  12.155   2.073 -0.4606  1.7035  0.9968
  711MOL0     H95954   4.292  12.053   2.210 -0.5155  0.3238  0.6289
  711MOL0     H95955   4.474  12.299   2.232 -1.2083  2.0835 -1.7941
  711MOL0     H95956   4.429  12.196   2.372  1.7701 -1.2556  0.2290
  711MOL0     H95957   4.191  12.226   2.322  0.2648 -1.7397 -2.5338
  711MOL0     H95958   4.283  12.374   2.372  1.6180  0.7443 -0.7322
  711MOL0     H95959   4.095  12.400   2.198 -0.7580 -2.1053 -2.3753
  711MOL0     H95960   4.197  12.298   2.084 -2.0786 -0.6794  0.3300
  711MOL0     H95961   4.307  12.551   2.197  0.2776  2.6594 -1.7778
  711MOL0     H95962   4.358  12.466   2.049  3.4009  3.7110  2.3823
  711MOL0     H95963   4.097  12.610   2.098  0.5489  1.1614 -0.0942
  711MOL0     H95964   4.134  12.543   1.951  0.2161 -0.2657  0.1476
  711MOL0     H95965   4.331  12.689   1.930 -2.3602 -0.3417 -2.8994
  711MOL0     H95966   4.304  12.767   2.093 -2.0048 -1.9057  1.2584
  711MOL0     H95967   4.554  11.789   2.442 -0.4118  0.3212 -1.6070
  711MOL0     H95968   4.669  11.569   2.433 -1.6034  1.4678  1.2455
  711MOL0     H95969   4.900  11.275   2.119 -3.3590 -2.2966  2.7809
  711MOL0     H95970   5.047  11.108   2.069 -2.0552  1.4386  0.2403
  711MOL0     H95971   6.548   9.918   1.790 -0.5433  0.1142 -0.4414
  711MOL0     H95972   6.743   9.918   1.647 -3.0562 -2.7284  2.4642
  711MOL0     H95973   7.276  10.059   1.669  1.3122 -0.4851  0.4926
  711MOL0     H95974   7.464  10.110   1.538 -0.1647 -1.1973 -0.9893
  711MOL0     H95975   7.378  10.298   1.142 -0.7253  2.7364 -0.3153
  711MOL0     H95976   7.419  10.439   1.236 -2.0130  0.3434 -1.4396
  711MOL0     H95977   7.536  10.447   1.040 -3.0929  1.0363  1.6439
  711MOL0     H95978   7.563  10.281   1.033 -2.0272  0.3056  1.0492
  711MOL0     H95979   7.712  10.325   1.255 -2.0054 -0.6837 -1.0550
  711MOL0     H95980   7.702  10.492   1.212 -4.6795 -0.5937  0.5592
  711MOL0     H95981   7.832  10.481   1.026  1.9168 -0.0972  1.6957
  711MOL0     H95982   7.807  10.302   0.997  1.8636  2.3033 -3.5752
  711MOL0     H95983   8.142  10.368   1.261 -0.0194  0.0529 -0.5362
  711MOL0     H95984   7.212  10.364   1.299  0.8492 -0.9801 -1.0387
  711MOL0     H95985   7.028  10.317   1.424  2.2453  3.0425  1.1601
  712MOL0     O95986   5.761   9.342   1.096 -0.4173  0.2500  0.5501
  712MOL0     C95987   5.749   9.393   0.985 -0.5318 -0.3351 -0.1169
  712MOL0     O95988   5.651   9.484   0.950 -0.1091 -0.0264  0.0820
  712MOL0     C95989   5.547   9.488   1.043 -1.0932  0.0957  0.2605
  712MOL0     C95990   5.555   9.564   1.162  0.1282  0.7035  0.9892
  712MOL0     C95991   5.456   9.561   1.261  0.0158  0.2109 -0.2755
  712MOL0     C95992   5.341   9.481   1.234 -0.1231  0.0080  0.1063
  712MOL0     O95993   5.233   9.460   1.321 -0.4551  0.6234 -0.1660
  712MOL0     C95994   5.260   9.443   1.462 -0.2197 -0.0335  0.4421
  712MOL0     C95995   5.146   9.448   1.553 -0.2588  0.1493  0.7677
  712MOL0     C95996   5.016   9.395   1.500 -0.2613  0.5504 -0.2205
  712MOL0     C95997   4.899   9.377   1.605  0.2306  0.0085 -0.1703
  712MOL0     C95998   4.766   9.371   1.523 -0.9245  0.6660 -0.1491
  712MOL0     C95999   4.643   9.361   1.616 -1.4496 -0.7931 -0.3018
  712MOL0     C96000   4.619   9.219   1.679 -0.2028 -0.6262  1.3184
  712MOL0     C96001   4.565   9.123   1.573  1.1872 -0.0047 -0.1336
  712MOL0     N96002   4.536   8.990   1.636  0.2011 -0.9953  0.0911
  712MOL0     C96003   4.432   8.967   1.724 -0.7742 -0.7846 -0.2906
  712MOL0     C96004   4.427   8.830   1.736 -0.1749  0.1188  0.0136
  712MOL0     C96005   4.325   8.760   1.824  1.3126 -0.3051  0.6003
  712MOL0     C96006   4.215   8.668   1.755 -0.2341 -0.6703 -0.2545
  712MOL0     C96007   4.259   8.530   1.760  0.1795  0.4886  0.5381
  712MOL0     C96008   4.159   8.423   1.708 -0.2273 -1.3090  0.2219
  712MOL0     O96009   4.076   8.414   1.828  0.5708 -1.1287  0.3297
  712MOL0     C96010   3.957   8.357   1.822  0.5793 -0.6188  0.1791
  712MOL0     C96011   3.890   8.341   1.935 -0.1644 -0.2283  0.6951
  712MOL0     C96012   3.766   8.276   1.951  0.0641 -0.1282 -0.7383
  712MOL0     C96013   3.719   8.274   2.097  1.0143  0.1896 -0.7017
  712MOL0     C96014   3.701   8.228   1.828 -0.7519  0.0069 -0.2187
  712MOL0     C96015   3.559   8.177   1.836 -1.2566  0.6512  0.5110
  712MOL0     O96016   3.500   8.152   1.714 -1.1818  0.3943 -1.1390
  712MOL0     C96017   3.378   8.087   1.722 -0.3573 -0.4211 -0.6579
  712MOL0     C96018   3.365   7.945   1.721  0.0492  0.6280 -0.3051
  712MOL0     C96019   3.248   7.879   1.749  0.0369  0.4292  0.4575
  712MOL0     C96020   3.131   7.953   1.768 -0.8641  0.0763  0.2777
  712MOL0     O96021   3.022   7.880   1.800 -0.0275  0.6339 -0.2679
  712MOL0     C96022   2.893   7.942   1.830 -0.9285  0.8745  0.2263
  712MOL0     C96023   2.783   7.841   1.790 -0.7178  0.0256  0.6386
  712MOL0     C96024   2.794   7.782   1.646 -0.7481 -0.2077 -0.1589
  712MOL0     C96025   2.678   7.836   1.550  0.1555  0.6866 -0.1643
  712MOL0     C96026   2.704   7.773   1.410  0.1519 -1.5930 -0.0690
  712MOL0     C96027   2.586   7.780   1.320  0.2592 -0.0383  0.2465
  712MOL0     C96028   2.548   7.920   1.288  0.2407  0.7126  1.1944
  712MOL0     C96029   2.465   7.930   1.165 -0.6882  0.4858  0.2109
  712MOL0    Cl96030   2.284   7.915   1.208 -0.1144 -0.3574 -0.0476
  712MOL0     C96031   3.132   8.095   1.759 -0.3247  0.0892 -0.1442
  712MOL0     C96032   3.258   8.159   1.733  0.1646 -0.0085  1.1187
  712MOL0     O96033   3.500   8.158   1.941 -0.4671 -0.4680 -0.3801
  712MOL0     C96034   3.775   8.248   1.704 -0.1331  0.5021 -0.6151
  712MOL0     C96035   3.904   8.307   1.701  0.0780 -0.5015  0.5220
  712MOL0     N96036   4.517   8.775   1.655  0.3037 -0.2695  0.2860
  712MOL0     N96037   4.582   8.872   1.607  0.1924  0.8970  0.1677
  712MOL0     C96038   5.344   9.399   1.123 -0.3884  1.1887  0.2367
  712MOL0     C96039   5.444   9.396   1.028  0.4256 -0.6105  0.2988
  712MOL0     C96040   5.852   9.356   0.883  0.4145 -0.2134 -0.7039
  712MOL0     C96041   5.915   9.229   0.891  0.2028  0.3857  0.2546
  712MOL0     C96042   6.018   9.199   0.792  0.3640  0.7729  0.4165
  712MOL0     C96043   6.047   9.282   0.688 -0.7344 -0.1507 -1.1222
  712MOL0     O96044   6.148   9.252   0.599  0.3803 -0.3151 -0.5457
  712MOL0     C96045   6.243   9.154   0.641 -0.6326  0.6442 -0.5563
  712MOL0     C96046   6.350   9.139   0.537  1.1549  0.6643  0.2753
  712MOL0     C96047   6.440   9.262   0.539 -0.0470  0.0562  0.0236
  712MOL0     C96048   6.533   9.272   0.418  0.3275 -0.4804 -0.5669
  712MOL0     C96049   6.636   9.173   0.408  0.4400  0.8098 -0.4842
  712MOL0     C96050   6.723   9.089   0.377  1.1964  0.2362  0.2729
  712MOL0     C96051   5.977   9.404   0.674 -1.4552 -0.6875 -0.2205
  712MOL0     C96052   5.886   9.443   0.775  0.9171 -0.8358  0.8459
  712MOL0     H96053   5.643   9.627   1.172 -1.0482  2.2502  2.1979
  712MOL0     H96054   5.481   9.619   1.349  1.5669 -0.6473 -0.1023
  712MOL0     H96055   5.313   9.350   1.486  1.5790  0.1960 -2.2081
  712MOL0     H96056   5.326   9.521   1.500 -2.1364  0.8462  2.1406
  712MOL0     H96057   5.175   9.407   1.650  0.0144 -1.3324  0.0828
  712MOL0     H96058   5.123   9.552   1.576  2.7694  0.7045  1.6804
  712MOL0     H96059   4.980   9.456   1.417 -5.2572 -1.4109  0.1152
  712MOL0     H96060   5.029   9.291   1.471  0.6331  1.1542 -2.1293
  712MOL0     H96061   4.918   9.292   1.670 -2.5357 -0.6200 -0.0619
  712MOL0     H96062   4.902   9.467   1.667  1.5724 -0.7779  0.9677
  712MOL0     H96063   4.758   9.458   1.458 -1.9921  0.3314 -0.4970
  712MOL0     H96064   4.774   9.280   1.462  0.4218  2.0189 -2.0813
  712MOL0     H96065   4.673   9.422   1.701 -2.1537 -0.0819 -0.5601
  712MOL0     H96066   4.550   9.399   1.574 -2.1711 -2.1251 -0.0001
  712MOL0     H96067   4.703   9.179   1.737 -0.0566  0.2399  1.7289
  712MOL0     H96068   4.537   9.235   1.750 -0.5913  1.3100  0.4817
  712MOL0     H96069   4.620   9.098   1.482  0.6151 -0.9343 -0.2442
  712MOL0     H96070   4.467   9.157   1.538  0.4561 -1.5030  0.3308
  712MOL0     H96071   4.375   9.042   1.778 -0.3854  2.2196 -3.6555
  712MOL0     H96072   4.375   8.712   1.908 -2.2321  1.0543  3.7918
  712MOL0     H96073   4.261   8.839   1.864  0.3819 -1.1041  0.7261
  712MOL0     H96074   4.194   8.717   1.659 -0.3854  0.4222  0.3311
  712MOL0     H96075   4.121   8.679   1.808 -1.1449 -1.1844 -1.7028
  712MOL0     H96076   4.292   8.496   1.858 -1.0330 -3.9570 -0.4021
  712MOL0     H96077   4.343   8.528   1.691  1.3299  2.1542  1.8189
  712MOL0     H96078   4.210   8.327   1.695  2.9452  0.3542 -0.6392
  712MOL0     H96079   4.100   8.451   1.620  1.1081  0.3955 -0.1845
  712MOL0     H96080   3.939   8.377   2.025  3.3691  1.8457 -1.8177
  712MOL0     H96081   3.673   8.370   2.121 -0.3379 -0.4357 -0.6868
  712MOL0     H96082   3.652   8.192   2.125  1.6412  0.3965  1.5910
  712MOL0     H96083   3.808   8.259   2.158  0.8557  0.1569 -0.4800
  712MOL0     H96084   3.452   7.880   1.732 -0.2964  0.2031 -0.0062
  712MOL0     H96085   3.251   7.772   1.764  0.7673  0.2013 -1.1449
  712MOL0     H96086   2.872   7.962   1.935 -1.1716  2.0254 -0.0291
  712MOL0     H96087   2.880   8.041   1.786  0.9039  0.2095 -2.0310
  712MOL0     H96088   2.796   7.756   1.858  0.8875 -1.0515 -0.8989
  712MOL0     H96089   2.687   7.891   1.808 -0.9933 -0.8207  1.5381
  712MOL0     H96090   2.795   7.674   1.657  2.2822 -0.4539 -1.7812
  712MOL0     H96091   2.879   7.821   1.589 -1.2381  0.7231 -0.2742
  712MOL0     H96092   2.572   7.824   1.574  0.3911  0.3238  0.7453
  712MOL0     H96093   2.699   7.944   1.547  1.9361  0.3649 -0.3400
  712MOL0     H96094   2.711   7.670   1.447  2.3549 -0.5044  2.9662
  712MOL0     H96095   2.794   7.807   1.359 -0.7947 -0.6907 -1.2134
  712MOL0     H96096   2.609   7.723   1.230 -0.1025 -0.3831  0.3713
  712MOL0     H96097   2.498   7.730   1.362  0.3579  0.4120  1.0133
  712MOL0     H96098   2.636   7.979   1.262 -0.3252  0.0466 -2.8194
  712MOL0     H96099   2.492   7.972   1.366 -3.4125 -0.1322 -0.6779
  712MOL0     H96100   2.495   7.856   1.090  0.8614  0.2935  0.9795
  712MOL0     H96101   2.467   8.036   1.137  0.3162  0.2225 -0.7721
  712MOL0     H96102   3.042   8.156   1.769 -2.5461 -3.1311  0.9928
  712MOL0     H96103   3.267   8.266   1.719  1.9806 -0.0423  1.7422
  712MOL0     H96104   3.741   8.210   1.609 -0.7316 -1.7664  0.4340
  712MOL0     H96105   3.943   8.316   1.600  0.3163  3.1975  0.8198
  712MOL0     H96106   5.248   9.349   1.109 -1.1120  2.5559  0.0982
  712MOL0     H96107   5.437   9.336   0.939 -2.3935 -0.2763  0.2171
  712MOL0     H96108   5.890   9.156   0.967  0.3018 -1.8831 -1.7646
  712MOL0     H96109   6.076   9.109   0.812  1.4085  1.7987  2.3735
  712MOL0     H96110   6.290   9.158   0.740  0.3473 -2.2393 -0.8194
  712MOL0     H96111   6.193   9.058   0.629  2.0514 -0.7598 -1.1284
  712MOL0     H96112   6.297   9.135   0.441  0.1043 -1.0016  0.8801
  712MOL0     H96113   6.401   9.042   0.537 -1.5249 -0.8510  1.0573
  712MOL0     H96114   6.494   9.264   0.634 -0.7260  0.2529  0.4070
  712MOL0     H96115   6.374   9.348   0.550 -1.5711 -1.3288  3.0167
  712MOL0     H96116   6.584   9.368   0.434 -1.3880  0.0409  2.5625
  712MOL0     H96117   6.474   9.266   0.326  0.0129 -0.7334 -0.3509
  712MOL0     H96118   6.798   9.022   0.341  0.0382 -0.3229 -1.2484
  712MOL0     H96119   6.015   9.463   0.592 -0.5115 -0.7967  0.1270
  712MOL0     H96120   5.845   9.543   0.782  0.4550 -0.8107 -1.4078
  713MOL0     O96121   6.152   9.425   3.168 -0.3013  0.0578 -1.5188
  713MOL0     C96122   6.166   9.535   3.226 -0.4955 -0.7190  0.3923
  713MOL0     O96123   6.081   9.590   3.315 -0.5247  0.2400 -0.5288
  713MOL0     C96124   5.980   9.514   3.367 -0.2465  0.0378  0.0753
  713MOL0     C96125   5.860   9.578   3.396  0.4223 -0.5350  0.0184
  713MOL0     C96126   5.746   9.520   3.442 -0.3717  0.0634 -0.2315
  713MOL0     C96127   5.740   9.378   3.454  0.2687 -0.2270  0.2241
  713MOL0     O96128   5.627   9.301   3.473 -0.1239 -0.0655  0.5595
  713MOL0     C96129   5.504   9.362   3.514  0.5109  0.1805  0.6763
  713MOL0     C96130   5.396   9.329   3.422  0.7597  0.7337 -0.2203
  713MOL0     C96131   5.367   9.183   3.402  0.3987  0.8845 -0.6830
  713MOL0     C96132   5.304   9.134   3.534 -0.3566  0.1009 -0.4679
  713MOL0     C96133   5.252   8.990   3.531  0.6062  0.0959 -1.0016
  713MOL0     C96134   5.225   8.929   3.676 -0.3355 -0.0683 -0.0824
  713MOL0     C96135   5.110   9.005   3.746 -0.3320  0.2169 -0.0574
  713MOL0     C96136   5.074   8.936   3.878  0.0473 -0.0415  0.3295
  713MOL0     N96137   5.012   8.803   3.860 -0.1921 -0.5565 -0.1138
  713MOL0     C96138   4.884   8.785   3.838 -0.3702 -0.7567 -0.4722
  713MOL0     C96139   4.864   8.656   3.806  0.2141 -0.8117  0.3768
  713MOL0     C96140   4.728   8.613   3.761  1.0370 -0.3544 -0.3428
  713MOL0     C96141   4.720   8.495   3.660 -0.3609  0.2965  0.1553
  713MOL0     C96142   4.762   8.356   3.721 -0.1361  0.6583 -0.2997
  713MOL0     C96143   4.889   8.306   3.663  0.1634  0.3791  0.0357
  713MOL0     O96144   4.856   8.220   3.550  0.2496  0.3279 -0.2059
  713MOL0     C96145   4.958   8.140   3.511  0.3832 -0.1625  0.6141
  713MOL0     C96146   5.095   8.185   3.507  0.0317 -0.1644 -0.5347
  713MOL0     C96147   5.197   8.098   3.475 -0.1276  0.3810  0.2359
  713MOL0     C96148   5.342   8.141   3.483  0.5421 -0.4306  0.1871
  713MOL0     C96149   5.160   7.965   3.432  0.8968  0.4927  0.6806
  713MOL0     C96150   5.260   7.863   3.387  0.1361 -0.3356  0.1270
  713MOL0     O96151   5.235   7.733   3.403  0.3725  0.5755  0.3254
  713MOL0     C96152   5.342   7.646   3.395  1.0671  0.8914  0.2321
  713MOL0     C96153   5.305   7.519   3.365 -0.1266 -0.1584 -0.1587
  713MOL0     C96154   5.397   7.420   3.367 -0.5635  0.0017  0.4737
  713MOL0     C96155   5.539   7.439   3.386 -0.3686 -0.9391 -0.3227
  713MOL0     O96156   5.643   7.343   3.391 -0.2364 -0.1445  0.6884
  713MOL0     C96157   5.610   7.206   3.375 -0.0377 -0.8526 -0.7895
  713MOL0     C96158   5.557   7.152   3.509 -0.3524  0.3346 -0.6000
  713MOL0     C96159   5.653   7.168   3.624 -0.2995  0.4927  0.5189
  713MOL0     C96160   5.747   7.046   3.623 -0.8475 -0.9942  0.3961
  713MOL0     C96161   5.856   7.070   3.725  0.0953  0.0892 -0.9328
  713MOL0     C96162   5.930   6.933   3.744  0.2215 -0.2233  0.6138
  713MOL0     C96163   6.039   6.950   3.853  0.2799 -0.7545 -0.2104
  713MOL0     C96164   6.178   6.954   3.803 -0.0427  0.1130  0.9134
  713MOL0    Cl96165   6.237   7.108   3.760  0.3272  0.0319 -0.0505
  713MOL0     C96166   5.571   7.569   3.417 -0.6441  0.2686  0.5750
  713MOL0     C96167   5.474   7.671   3.425 -1.3086  1.0034 -0.0090
  713MOL0     O96168   5.349   7.901   3.308  0.0976  0.3237 -0.5239
  713MOL0     C96169   5.028   7.924   3.444  0.0169  0.3519 -1.0246
  713MOL0     C96170   4.930   8.010   3.482  0.6068  0.6445  0.3257
  713MOL0     N96171   4.987   8.597   3.819  0.0176 -0.7130  0.2172
  713MOL0     N96172   5.067   8.681   3.864 -0.0161 -0.7569 -0.1913
  713MOL0     C96173   5.861   9.307   3.420  0.6820 -0.2376 -0.0261
  713MOL0     C96174   5.979   9.377   3.388 -0.4722  0.1955 -0.9596
  713MOL0     C96175   6.282   9.611   3.193  0.2341 -0.2252 -0.2640
  713MOL0     C96176   6.316   9.737   3.256 -0.5243  0.4818 -0.1795
  713MOL0     C96177   6.420   9.818   3.212  0.8340 -0.1586  0.9903
  713MOL0     C96178   6.498   9.785   3.098  0.5256  0.2201 -0.1390
  713MOL0     O96179   6.596   9.846   3.029  0.8210  0.4699 -0.8794
  713MOL0     C96180   6.611   9.989   3.035  0.3398  0.0307 -1.1552
  713MOL0     C96181   6.558  10.073   2.923 -0.1041 -0.3109  0.0585
  713MOL0     C96182   6.592  10.024   2.783  0.6034  0.5932 -0.5961
  713MOL0     C96183   6.468  10.022   2.693  0.5270  0.4591  0.9874
  713MOL0     C96184   6.497   9.947   2.572  1.4837  0.0405  0.4670
  713MOL0     C96185   6.521   9.873   2.473  0.0585  1.1873  0.0775
  713MOL0     C96186   6.474   9.658   3.049 -0.0628 -0.2130 -0.5585
  713MOL0     C96187   6.374   9.568   3.098  1.0176  0.4567  0.2048
  713MOL0     H96188   5.856   9.686   3.397 -1.3289 -0.5720  1.0905
  713MOL0     H96189   5.666   9.588   3.470 -1.7465 -0.9173 -1.6174
  713MOL0     H96190   5.477   9.336   3.616 -1.0992 -2.3938 -0.3226
  713MOL0     H96191   5.523   9.470   3.512  0.4696  0.1842  0.0298
  713MOL0     H96192   5.303   9.374   3.458  1.2726  0.5972  1.3429
  713MOL0     H96193   5.418   9.368   3.322  0.5818 -1.2619 -1.0895
  713MOL0     H96194   5.302   9.169   3.315  0.0413 -0.6472 -0.1993
  713MOL0     H96195   5.460   9.132   3.372 -0.8408 -2.8495  1.2038
  713MOL0     H96196   5.393   9.130   3.597  0.7294  0.7106 -1.9129
  713MOL0     H96197   5.227   9.196   3.581 -2.1192 -1.5915 -0.9947
  713MOL0     H96198   5.161   8.979   3.471  1.8753  0.7814 -3.1420
  713MOL0     H96199   5.325   8.936   3.471 -0.6183 -1.2216 -1.3653
  713MOL0     H96200   5.207   8.822   3.666  1.9292 -0.5840  0.6507
  713MOL0     H96201   5.310   8.945   3.743 -1.3232  4.1369  0.4392
  713MOL0     H96202   5.156   9.103   3.761 -1.7108  0.8520  0.1935
  713MOL0     H96203   5.026   9.017   3.676  0.4056  0.4449 -0.9246
  713MOL0     H96204   5.004   8.998   3.934 -0.5318 -2.6466  2.7329
  713MOL0     H96205   5.159   8.931   3.946 -0.7514  1.7191  1.5214
  713MOL0     H96206   4.812   8.865   3.843  1.2927  0.7644  0.2976
  713MOL0     H96207   4.675   8.577   3.850 -0.9186  3.1949  0.1129
  713MOL0     H96208   4.666   8.700   3.737  0.5746 -0.4238  0.5336
  713MOL0     H96209   4.774   8.531   3.572 -3.3293 -0.1885 -2.0462
  713MOL0     H96210   4.614   8.482   3.634  0.1948  0.8129 -2.7052
  713MOL0     H96211   4.692   8.277   3.693 -1.5125  0.6467  2.7701
  713MOL0     H96212   4.756   8.352   3.830 -0.5184 -0.0861 -0.3470
  713MOL0     H96213   4.942   8.255   3.744 -3.4846 -0.5604  2.0789
  713MOL0     H96214   4.947   8.393   3.629 -0.6785  1.4779  1.2833
  713MOL0     H96215   5.120   8.284   3.543 -1.3910 -0.0652  0.2695
  713MOL0     H96216   5.354   8.234   3.540  2.1150 -1.9674  2.5495
  713MOL0     H96217   5.392   8.059   3.537 -0.1551 -2.5613 -2.2259
  713MOL0     H96218   5.386   8.167   3.387  3.8962  0.1784  1.7133
  713MOL0     H96219   5.199   7.494   3.368  0.3340 -2.2643  1.2557
  713MOL0     H96220   5.358   7.321   3.348  0.8461 -0.1072 -2.4191
  713MOL0     H96221   5.537   7.187   3.296 -1.1967  0.1359  0.0219
  713MOL0     H96222   5.703   7.160   3.340  3.5857  2.8861  2.8206
  713MOL0     H96223   5.465   7.204   3.539 -0.6734 -1.2546  1.3750
  713MOL0     H96224   5.534   7.046   3.493 -2.1735  0.6253 -0.1421
  713MOL0     H96225   5.596   7.174   3.717  1.6260  2.5056  1.6801
  713MOL0     H96226   5.716   7.258   3.622 -0.1478  0.4002  1.1602
  713MOL0     H96227   5.696   6.949   3.629  1.7187 -2.6006 -1.5451
  713MOL0     H96228   5.797   7.049   3.526 -1.2654 -2.2875  0.1202
  713MOL0     H96229   5.815   7.109   3.819 -0.9443 -2.5580 -0.1727
  713MOL0     H96230   5.933   7.140   3.693 -1.5294  2.5733  0.2610
  713MOL0     H96231   5.843   6.869   3.761 -2.2462  1.5023 -3.8148
  713MOL0     H96232   5.968   6.902   3.647 -2.4564 -1.7101 -0.0564
  713MOL0     H96233   6.028   6.859   3.913 -0.2021 -0.6503 -0.1364
  713MOL0     H96234   6.027   7.038   3.917 -0.7881  0.9803 -2.6424
  713MOL0     H96235   6.177   6.888   3.716  2.0487  1.1187  0.0457
  713MOL0     H96236   6.237   6.920   3.890 -4.1716 -2.6815  2.9433
  713MOL0     H96237   5.676   7.572   3.446 -0.5050 -0.4122  0.1794
  713MOL0     H96238   5.502   7.773   3.450 -0.7257  0.1704  3.1098
  713MOL0     H96239   4.987   7.825   3.428  1.3683 -0.3182 -0.5264
  713MOL0     H96240   4.831   7.964   3.481  0.8707 -0.0175 -2.2318
  713MOL0     H96241   5.865   9.199   3.433  0.3595 -0.1930  0.4521
  713MOL0     H96242   6.073   9.323   3.378  0.5211  1.6822 -0.0609
  713MOL0     H96243   6.259   9.772   3.342  0.7922  1.3152  0.3972
  713MOL0     H96244   6.426   9.918   3.254  1.3884  0.4968 -0.5898
  713MOL0     H96245   6.571  10.036   3.125  4.9854  0.1459  1.1530
  713MOL0     H96246   6.717  10.014   3.035  0.1752  1.4797  3.2191
  713MOL0     H96247   6.580  10.179   2.938 -1.9324  0.1508 -0.3396
  713MOL0     H96248   6.450  10.066   2.940  0.1762  2.3232  4.6115
  713MOL0     H96249   6.636   9.924   2.781  1.5184  0.9876 -1.0835
  713MOL0     H96250   6.666  10.082   2.726  1.7616 -0.3703 -0.1336
  713MOL0     H96251   6.434  10.126   2.678 -0.4310 -0.1367 -1.4518
  713MOL0     H96252   6.392   9.969   2.751  2.6472  0.3975  3.9191
  713MOL0     H96253   6.520   9.817   2.382  0.0666  0.9129  0.2431
  713MOL0     H96254   6.522   9.627   2.957  0.4709 -0.0766 -0.3348
  713MOL0     H96255   6.364   9.476   3.042  1.6335  0.2409  0.4450
  714MOL0     O96256   0.675   7.956   2.162  0.7790  0.4157  0.8258
  714MOL0     C96257   0.654   8.013   2.268 -0.5856  0.7896  0.1933
  714MOL0     O96258   0.567   7.970   2.370  0.5716 -0.3575  0.7388
  714MOL0     C96259   0.476   7.865   2.342  0.1533  0.7838 -0.5683
  714MOL0     C96260   0.377   7.875   2.241 -0.3837 -0.1949  0.4392
  714MOL0     C96261   0.281   7.772   2.222  0.1965 -0.9486 -0.1737
  714MOL0     C96262   0.284   7.652   2.298  0.6920 -0.8766  0.6604
  714MOL0     O96263   0.212   7.542   2.267 -0.6893  0.6326  0.0803
  714MOL0     C96264   0.075   7.557   2.240 -0.4729 -0.6838 -0.1777
  714MOL0     C96265   0.011   7.408   2.217 -0.3233 -0.1201  0.8554
  714MOL0     C96266  -0.143   7.429   2.181  0.0150  0.1852  0.5232
  714MOL0     C96267  -0.218   7.303   2.140 -0.4330 -0.1460 -0.7908
  714MOL0     C96268  -0.367   7.329   2.138  0.1588  0.6280  0.0252
  714MOL0     C96269  -0.427   7.200   2.089 -0.4938  1.0669 -0.0378
  714MOL0     C96270  -0.561   7.217   2.027 -0.6076  0.1084  0.1170
  714MOL0     C96271  -0.550   7.256   1.881 -0.6345  0.4449  0.2861
  714MOL0     N96272  -0.684   7.264   1.821  0.8264 -1.3178  0.4746
  714MOL0     C96273  -0.791   7.172   1.814  0.0347  0.2747 -0.5056
  714MOL0     C96274  -0.888   7.232   1.736  0.0159  0.2093 -0.4843
  714MOL0     C96275  -1.018   7.177   1.682  1.0928 -0.6259  1.0339
  714MOL0     C96276  -1.054   7.241   1.535  0.5321  0.7749 -0.5056
  714MOL0     C96277  -1.167   7.170   1.455  0.4166  1.2065  0.5335
  714MOL0     C96278  -1.296   7.149   1.541  0.8303 -1.5890 -0.2516
  714MOL0     O96279  -1.403   7.108   1.450  0.0357 -0.1607  0.0015
  714MOL0     C96280  -1.536   7.127   1.493 -0.2975  0.1932  0.2222
  714MOL0     C96281  -1.593   7.221   1.578 -0.0728  0.5567 -0.3721
  714MOL0     C96282  -1.732   7.235   1.588  0.9556 -0.0438  0.9886
  714MOL0     C96283  -1.769   7.341   1.689  0.1439  0.3918 -0.9451
  714MOL0     C96284  -1.823   7.152   1.510 -0.5144  0.1226  0.2726
  714MOL0     C96285  -1.975   7.160   1.511 -0.1521  0.3196 -0.1561
  714MOL0     O96286  -2.035   7.224   1.617  0.2302 -0.2861 -0.4188
  714MOL0     C96287  -2.166   7.262   1.602  0.6028 -0.6977  0.6472
  714MOL0     C96288  -2.241   7.259   1.715  0.3699  0.3886 -0.2234
  714MOL0     C96289  -2.378   7.292   1.720  0.2355  0.5448  0.1323
  714MOL0     C96290  -2.440   7.330   1.598  0.1925  1.1061 -0.2391
  714MOL0     O96291  -2.571   7.361   1.593  0.0989 -0.2400 -0.1879
  714MOL0     C96292  -2.638   7.400   1.712  0.6851 -0.5084 -0.0439
  714MOL0     C96293  -2.759   7.499   1.679  0.0885 -0.3622  0.0194
  714MOL0     C96294  -2.818   7.577   1.810 -1.2572  0.4558 -0.4998
  714MOL0     C96295  -2.949   7.642   1.769 -0.0102 -0.8086  0.3216
  714MOL0     C96296  -3.006   7.756   1.859  0.0518  0.7091  0.7785
  714MOL0     C96297  -3.123   7.822   1.782 -0.2743 -0.1882  0.2999
  714MOL0     C96298  -3.197   7.945   1.846 -0.1064 -0.5631 -0.9857
  714MOL0     C96299  -3.108   8.073   1.843  0.3389  0.8861  0.2613
  714MOL0    Cl96300  -3.027   8.102   1.674  0.3766 -0.0573 -0.1558
  714MOL0     C96301  -2.350   7.357   1.491  0.9980  0.5094  0.7519
  714MOL0     C96302  -2.215   7.329   1.493 -0.0399 -0.3615 -0.3732
  714MOL0     O96303  -2.025   7.119   1.409 -0.1366 -0.3558 -0.6261
  714MOL0     C96304  -1.759   7.057   1.424  0.8622 -0.4703  0.5246
  714MOL0     C96305  -1.619   7.052   1.416  1.3238  0.3230 -0.1402
  714MOL0     N96306  -0.842   7.359   1.709  0.4589  0.9742 -0.6079
  714MOL0     N96307  -0.726   7.383   1.762  0.1420 -0.2736  0.3088
  714MOL0     C96308   0.367   7.643   2.416  1.1197  0.1993 -0.1891
  714MOL0     C96309   0.453   7.752   2.438 -0.7193  0.0296 -0.0400
  714MOL0     C96310   0.736   8.129   2.295  0.2297  0.0112 -0.4958
  714MOL0     C96311   0.822   8.180   2.199  0.2698 -0.3179 -0.6384
  714MOL0     C96312   0.903   8.294   2.226 -0.1092 -0.5225 -0.3482
  714MOL0     C96313   0.901   8.365   2.349  0.1908  0.4434 -0.2783
  714MOL0     O96314   0.963   8.478   2.383 -0.1115 -0.9761 -0.0963
  714MOL0     C96315   1.039   8.533   2.272  0.1484  0.2872 -0.2987
  714MOL0     C96316   1.093   8.672   2.299 -0.0674 -0.6323 -0.9910
  714MOL0     C96317   1.232   8.660   2.373 -0.3055  0.1643  0.2055
  714MOL0     C96318   1.291   8.793   2.414 -0.4649  0.2662 -0.1266
  714MOL0     C96319   1.227   8.865   2.527 -0.2253  0.8976 -0.2996
  714MOL0     C96320   1.160   8.923   2.603 -0.0681 -0.5686  0.2481
  714MOL0     C96321   0.806   8.318   2.443 -0.3678  0.0951  0.1036
  714MOL0     C96322   0.729   8.200   2.417 -0.5130  0.0072  0.1270
  714MOL0     H96323   0.387   7.951   2.163  2.1730 -1.3817 -0.5394
  714MOL0     H96324   0.213   7.774   2.137  0.9651  0.0431 -0.7710
  714MOL0     H96325   0.032   7.612   2.324  3.0314  0.9045  0.7712
  714MOL0     H96326   0.065   7.624   2.155 -0.8036 -2.5524 -1.6731
  714MOL0     H96327   0.067   7.375   2.128 -2.1734 -1.3259  0.0663
  714MOL0     H96328   0.039   7.339   2.297  1.1898 -1.5208 -0.7874
  714MOL0     H96329  -0.194   7.475   2.267 -1.9357 -0.3027 -0.3085
  714MOL0     H96330  -0.153   7.502   2.100 -0.9331  1.9555  2.1405
  714MOL0     H96331  -0.175   7.261   2.049  2.9094 -1.5103  1.2281
  714MOL0     H96332  -0.205   7.231   2.221 -3.0475  0.3059  0.1039
  714MOL0     H96333  -0.419   7.354   2.231 -0.7353 -0.1755 -0.2398
  714MOL0     H96334  -0.381   7.416   2.074 -0.4371  0.6321  0.1504
  714MOL0     H96335  -0.363   7.150   2.016 -2.3167 -0.0514 -0.9554
  714MOL0     H96336  -0.434   7.127   2.170  4.0110 -0.7233 -0.9952
  714MOL0     H96337  -0.608   7.120   2.046 -2.4327  1.0181  0.4965
  714MOL0     H96338  -0.606   7.300   2.082  0.5390 -0.7499  2.5233
  714MOL0     H96339  -0.480   7.190   1.831  0.3022  1.0014  0.8285
  714MOL0     H96340  -0.511   7.358   1.882 -1.7196  0.8844 -0.3219
  714MOL0     H96341  -0.803   7.074   1.857 -4.3322  0.0459 -1.7246
  714MOL0     H96342  -1.012   7.072   1.649  1.0548  0.2613 -2.1752
  714MOL0     H96343  -1.095   7.213   1.750  1.8023  2.6833  0.2218
  714MOL0     H96344  -0.965   7.242   1.472  3.1680  0.5008  2.9086
  714MOL0     H96345  -1.070   7.349   1.545 -0.5551  0.5543  0.3569
  714MOL0     H96346  -1.147   7.068   1.421 -3.1086  1.5980 -3.4849
  714MOL0     H96347  -1.192   7.233   1.369  0.3376  0.3730 -0.0706
  714MOL0     H96348  -1.319   7.248   1.582  2.2671 -1.2154 -0.2875
  714MOL0     H96349  -1.285   7.077   1.622  1.3245  0.4235  1.5719
  714MOL0     H96350  -1.525   7.289   1.627  0.2128 -0.3960  0.6054
  714MOL0     H96351  -1.689   7.355   1.763 -0.1635  0.0387 -0.5358
  714MOL0     H96352  -1.799   7.433   1.638  1.1849 -0.3075 -2.9446
  714MOL0     H96353  -1.842   7.308   1.763 -0.5842 -0.9819 -2.2168
  714MOL0     H96354  -2.186   7.205   1.792  2.7738 -0.7761 -2.5853
  714MOL0     H96355  -2.432   7.258   1.808  1.3745 -1.2708  0.1782
  714MOL0     H96356  -2.674   7.313   1.767 -1.7177 -1.5981 -2.9958
  714MOL0     H96357  -2.572   7.457   1.778 -1.6820  0.0806  1.9993
  714MOL0     H96358  -2.732   7.567   1.598  1.9709  0.8857  1.6114
  714MOL0     H96359  -2.848   7.442   1.648  1.1578 -3.2424  1.7977
  714MOL0     H96360  -2.748   7.649   1.853 -1.5788 -0.4355  1.6407
  714MOL0     H96361  -2.840   7.507   1.892 -0.5685 -0.8456 -1.3826
  714MOL0     H96362  -2.936   7.694   1.673  0.7102 -0.8948  0.3698
  714MOL0     H96363  -3.036   7.577   1.756 -2.8571  2.7374 -0.1272
  714MOL0     H96364  -2.924   7.824   1.882  0.3350  0.3958  0.6951
  714MOL0     H96365  -3.038   7.705   1.950  1.9907  0.9703  1.6528
  714MOL0     H96366  -3.098   7.851   1.680 -0.9558  3.3000  1.0153
  714MOL0     H96367  -3.206   7.753   1.762 -2.1477  2.7615 -3.1882
  714MOL0     H96368  -3.204   7.929   1.954  2.3985  1.6794 -0.3912
  714MOL0     H96369  -3.293   7.963   1.796  0.6642 -0.9387 -2.6948
  714MOL0     H96370  -3.027   8.081   1.916 -0.6075  2.3310  1.2011
  714MOL0     H96371  -3.169   8.159   1.868  0.1519  1.4346 -1.8959
  714MOL0     H96372  -2.398   7.387   1.399 -0.5141 -0.1721  1.2811
  714MOL0     H96373  -2.153   7.357   1.408  0.1094  1.8936  0.4022
  714MOL0     H96374  -1.815   6.992   1.357 -0.0132  1.4653 -0.7056
  714MOL0     H96375  -1.568   6.969   1.368 -0.0542 -0.6637  0.0164
  714MOL0     H96376   0.354   7.561   2.485  2.5585 -1.6602 -1.9993
  714MOL0     H96377   0.506   7.749   2.533  1.0807 -1.9189 -1.0303
  714MOL0     H96378   0.819   8.131   2.102  0.4217 -1.3457 -0.1349
  714MOL0     H96379   0.978   8.317   2.151  1.1059 -1.4822  0.5462
  714MOL0     H96380   1.121   8.466   2.244  0.0990 -0.7368  1.8182
  714MOL0     H96381   0.973   8.543   2.186 -0.0537  3.2780  0.0866
  714MOL0     H96382   1.018   8.731   2.353  0.3610 -1.2942  0.3682
  714MOL0     H96383   1.105   8.724   2.203  1.4219  1.0005  0.0325
  714MOL0     H96384   1.295   8.609   2.299 -2.2857 -2.8952  0.4149
  714MOL0     H96385   1.228   8.594   2.461 -1.4820 -0.1849 -0.0909
  714MOL0     H96386   1.299   8.864   2.332  2.0085 -0.5050 -0.6307
  714MOL0     H96387   1.394   8.766   2.439  0.6467  0.2644 -3.9740
  714MOL0     H96388   1.107   8.986   2.672  1.1027  2.1023 -1.1540
  714MOL0     H96389   0.784   8.375   2.533 -1.9001  0.3099 -0.3756
  714MOL0     H96390   0.656   8.175   2.494 -2.5984 -1.1946 -2.0832
  715MOL0     O96391   9.855  10.402   7.105 -0.5830 -0.1161 -0.8285
  715MOL0     C96392   9.910  10.509   7.131  0.2813  0.3528  0.2006
  715MOL0     O96393   9.935  10.557   7.249 -0.4551 -0.0899 -0.0854
  715MOL0     C96394   9.898  10.500   7.371  0.0648  0.1531 -0.6813
  715MOL0     C96395   9.954  10.563   7.484  0.0533 -0.0377  0.9034
  715MOL0     C96396   9.914  10.528   7.612 -0.3642  0.6587  0.4796
  715MOL0     C96397   9.839  10.412   7.632 -0.0697 -0.1854 -1.2573
  715MOL0     O96398   9.813  10.376   7.760  0.0658  0.0832 -0.5887
  715MOL0     C96399   9.691  10.319   7.803 -0.3950 -0.2596 -0.7361
  715MOL0     C96400   9.660  10.353   7.952  0.5581  0.0737  0.0051
  715MOL0     C96401   9.516  10.330   8.002  0.7374  0.4098  0.3274
  715MOL0     C96402   9.467  10.180   7.979 -1.3669 -0.2374 -0.5276
  715MOL0     C96403   9.335  10.147   8.050 -0.4520  0.6115 -0.1265
  715MOL0     C96404   9.234  10.058   7.969  0.2691  0.0807  0.2245
  715MOL0     C96405   9.110  10.057   8.051  0.5113  0.2888 -1.2484
  715MOL0     C96406   9.121   9.940   8.164  0.1233 -0.1738  0.3901
  715MOL0     N96407   9.006   9.944   8.264  0.1741 -0.8367  1.1844
  715MOL0     C96408   8.887   9.884   8.243 -0.0322 -0.5233  0.0007
  715MOL0     C96409   8.820   9.911   8.349  0.2728  0.2645 -1.0206
  715MOL0     C96410   8.689   9.842   8.382 -0.1577  0.5174  0.7475
  715MOL0     C96411   8.586   9.947   8.408  0.1282  0.7856  0.6015
  715MOL0     C96412   8.452   9.872   8.386 -0.0145 -0.5688 -0.3553
  715MOL0     C96413   8.327   9.960   8.394  0.1436 -0.1704  0.2907
  715MOL0     O96414   8.234   9.935   8.287 -0.8351 -0.2182 -0.5288
  715MOL0     C96415   8.152   9.829   8.297 -0.9248  0.0337  1.4382
  715MOL0     C96416   8.088   9.802   8.174  0.3595 -0.1004 -0.6100
  715MOL0     C96417   8.000   9.688   8.174  0.1114 -0.1273  0.4135
  715MOL0     C96418   7.940   9.649   8.043  0.1152  0.7698  0.2726
  715MOL0     C96419   7.986   9.612   8.292  0.0362  0.0607 -0.0872
  715MOL0     C96420   7.894   9.491   8.297  0.2115 -0.4821  0.6398
  715MOL0     O96421   7.933   9.386   8.373 -0.2870 -0.7359  0.6818
  715MOL0     C96422   7.849   9.276   8.373 -0.9859  0.5439 -1.0537
  715MOL0     C96423   7.741   9.259   8.456 -0.4634  0.2781 -0.5132
  715MOL0     C96424   7.665   9.142   8.455 -0.0258  0.2436 -0.0469
  715MOL0     C96425   7.688   9.035   8.374  0.3346 -1.0998  0.8409
  715MOL0     O96426   7.611   8.931   8.341 -0.2498 -0.2618 -0.8059
  715MOL0     C96427   7.495   8.912   8.428  0.8903  0.2316 -0.0442
  715MOL0     C96428   7.365   8.960   8.367  0.1846 -0.3818 -0.2406
  715MOL0     C96429   7.331   8.902   8.227  0.2515 -0.0116 -0.9902
  715MOL0     C96430   7.192   8.921   8.172 -0.6737  0.8353  0.5457
  715MOL0     C96431   7.172   8.838   8.051 -0.5988 -0.1014  0.4300
  715MOL0     C96432   7.193   8.922   7.927  0.4344  0.0283  0.5653
  715MOL0     C96433   7.164   8.830   7.808 -0.7097  0.5833  0.7459
  715MOL0     C96434   7.157   8.911   7.673 -1.0898  0.1322  0.7773
  715MOL0    Cl96435   7.080   8.803   7.548 -0.2418  0.4598 -0.1010
  715MOL0     C96436   7.798   9.057   8.290 -0.8676 -0.4929 -0.1896
  715MOL0     C96437   7.880   9.169   8.287 -0.3243  0.4059  0.5111
  715MOL0     O96438   7.786   9.507   8.247  0.1969 -0.4451  0.6931
  715MOL0     C96439   8.050   9.647   8.407  0.1516  1.0542 -0.3275
  715MOL0     C96440   8.139   9.755   8.408 -0.3514 -0.5163 -1.0484
  715MOL0     N96441   8.889   9.998   8.427 -1.1177 -1.0847  0.1331
  715MOL0     N96442   9.008  10.017   8.372 -0.2434  0.2080 -0.1765
  715MOL0     C96443   9.787  10.340   7.528  0.3092  0.1263 -0.2803
  715MOL0     C96444   9.809  10.381   7.398  0.1982 -0.7732  0.0159
  715MOL0     C96445   9.945  10.581   7.017 -0.1234 -1.0194 -0.8764
  715MOL0     C96446   9.991  10.716   7.012 -0.7499 -0.1153 -0.9698
  715MOL0     C96447  10.035  10.775   6.892  0.5031  0.3635 -0.1284
  715MOL0     C96448  10.017  10.714   6.765 -0.9828  0.3225 -0.0735
  715MOL0     O96449  10.045  10.781   6.647 -0.5797  0.3412  0.5036
  715MOL0     C96450  10.146  10.890   6.648  0.1801  0.3014 -0.5824
  715MOL0     C96451  10.282  10.812   6.684  0.7716  0.5773 -0.6307
  715MOL0     C96452  10.395  10.916   6.681 -0.1179 -0.2257 -0.3863
  715MOL0     C96453  10.526  10.858   6.737  0.0131 -0.4579 -0.1227
  715MOL0     C96454  10.632  10.941   6.680 -0.9694  1.3193 -0.8840
  715MOL0     C96455  10.736  10.999   6.659 -0.5841  0.2634 -0.1195
  715MOL0     C96456   9.972  10.579   6.773 -0.0283 -0.0827  0.3188
  715MOL0     C96457   9.938  10.517   6.888  0.0156  0.8239  0.2791
  715MOL0     H96458  10.024  10.640   7.454  2.3116 -2.7782 -1.3483
  715MOL0     H96459   9.962  10.573   7.698  0.8256  1.6552 -0.6636
  715MOL0     H96460   9.613  10.373   7.749 -0.3218 -0.5780 -1.1649
  715MOL0     H96461   9.673  10.213   7.781 -1.9591 -0.2902  0.5656
  715MOL0     H96462   9.726  10.288   8.011  1.9218  0.0931 -1.4387
  715MOL0     H96463   9.681  10.457   7.977  1.5185 -0.4294  1.4405
  715MOL0     H96464   9.509  10.361   8.107  0.0965 -1.7146  0.9784
  715MOL0     H96465   9.450  10.395   7.943 -0.6043 -1.8118 -0.7466
  715MOL0     H96466   9.457  10.175   7.870  0.9461  0.4713 -0.8212
  715MOL0     H96467   9.548  10.113   8.009  1.7006  2.6287 -1.8131
  715MOL0     H96468   9.359  10.092   8.141  3.1963 -1.5116 -2.1468
  715MOL0     H96469   9.293  10.245   8.073 -1.0226  0.5806 -1.0012
  715MOL0     H96470   9.224  10.109   7.873 -0.2394  0.2229  0.3471
  715MOL0     H96471   9.280   9.960   7.959 -1.0135 -0.5066 -0.2067
  715MOL0     H96472   9.102  10.156   8.097 -3.0141 -0.4578  0.0972
  715MOL0     H96473   9.019  10.036   7.994  1.2067 -0.7175 -2.0268
  715MOL0     H96474   9.212   9.943   8.224  0.4588 -1.1366 -0.0466
  715MOL0     H96475   9.123   9.842   8.116 -0.5507  1.3479 -3.0622
  715MOL0     H96476   8.864   9.838   8.147  1.4207  1.5622 -1.4345
  715MOL0     H96477   8.648   9.771   8.309 -2.9259  0.8230  1.8919
  715MOL0     H96478   8.694   9.775   8.468 -1.0182  0.8393  1.0540
  715MOL0     H96479   8.595  10.032   8.341  2.1428 -2.1556 -3.2558
  715MOL0     H96480   8.602   9.980   8.511 -0.8984 -2.6719  2.0329
  715MOL0     H96481   8.447   9.792   8.462 -0.4322  1.0425  1.3911
  715MOL0     H96482   8.456   9.836   8.283  2.3017 -0.0624 -0.4938
  715MOL0     H96483   8.355  10.063   8.371 -1.7545 -0.5242 -4.9780
  715MOL0     H96484   8.293   9.957   8.498 -1.4839  0.4640 -0.1829
  715MOL0     H96485   8.102   9.869   8.090 -2.5695  0.8285 -0.4651
  715MOL0     H96486   7.834   9.673   8.028 -0.0495  1.2485  1.8906
  715MOL0     H96487   7.998   9.693   7.962  3.5219 -2.2317  0.8139
  715MOL0     H96488   7.955   9.541   8.036 -1.6879  0.3910  1.4357
  715MOL0     H96489   7.724   9.339   8.527 -2.1889 -0.2356 -0.2946
  715MOL0     H96490   7.582   9.140   8.524  2.0329 -0.8957  2.6051
  715MOL0     H96491   7.484   8.804   8.441  3.5828 -0.1373 -0.1788
  715MOL0     H96492   7.505   8.953   8.529 -1.5817  0.2317  0.2630
  715MOL0     H96493   7.281   8.938   8.433 -0.8368  0.1738 -1.3052
  715MOL0     H96494   7.376   9.068   8.356  0.2030 -0.5363 -2.0681
  715MOL0     H96495   7.352   8.795   8.234  3.3171  0.5801  1.4536
  715MOL0     H96496   7.404   8.941   8.155  0.2049  2.1329  0.0409
  715MOL0     H96497   7.115   8.882   8.240  0.8319 -1.7965  0.8746
  715MOL0     H96498   7.172   9.027   8.151  2.3918  1.7042  1.5509
  715MOL0     H96499   7.070   8.797   8.049 -1.1231  1.1479  0.6468
  715MOL0     H96500   7.247   8.758   8.045 -1.6819 -1.0639 -0.7090
  715MOL0     H96501   7.116   8.999   7.926  0.7097  0.3014  0.0154
  715MOL0     H96502   7.294   8.965   7.926 -1.0288  3.9207  1.5296
  715MOL0     H96503   7.070   8.776   7.819 -2.0500  1.9557 -2.5706
  715MOL0     H96504   7.242   8.754   7.793 -1.5224  0.0970 -1.4714
  715MOL0     H96505   7.255   8.937   7.633 -1.7499 -0.0208 -1.0261
  715MOL0     H96506   7.095   8.996   7.702  0.2792  1.4082  0.0755
  715MOL0     H96507   7.843   8.978   8.231  0.5693 -1.2057  1.7368
  715MOL0     H96508   7.964   9.170   8.219  0.4177  0.4101  1.4022
  715MOL0     H96509   8.047   9.585   8.496  1.0895 -0.9367 -1.6240
  715MOL0     H96510   8.195   9.767   8.500 -1.6626 -2.5648  0.0995
  715MOL0     H96511   9.718  10.257   7.542 -1.9377  1.4808 -2.5042
  715MOL0     H96512   9.764  10.329   7.314 -2.4391  0.5475  0.5124
  715MOL0     H96513  10.001  10.778   7.100  4.5927 -2.1609  0.2360
  715MOL0     H96514  10.069  10.877   6.911 -1.2392  1.2053 -1.2812
  715MOL0     H96515  10.143  10.928   6.546 -1.4354 -0.0233 -0.6846
  715MOL0     H96516  10.118  10.968   6.720 -0.7451 -1.7627  1.4185
  715MOL0     H96517  10.299  10.736   6.607  0.4755  0.5997 -0.7195
  715MOL0     H96518  10.272  10.756   6.777 -0.7218  1.5291 -0.1724
  715MOL0     H96519  10.384  11.013   6.729  1.1453 -1.7749  3.4570
  715MOL0     H96520  10.417  10.937   6.576  0.7929  1.8340  0.1764
  715MOL0     H96521  10.539  10.754   6.707 -0.5372  0.2876 -3.3197
  715MOL0     H96522  10.530  10.875   6.845  0.2630 -2.0901  0.1380
  715MOL0     H96523  10.819  11.066   6.662 -0.3409  0.0747 -1.7935
  715MOL0     H96524   9.971  10.518   6.683  2.0921 -1.3736  1.1005
  715MOL0     H96525   9.923  10.410   6.876  2.6560 -0.0749  3.4461
  716MOL0     O96526   7.806   8.214   5.170  0.1475 -0.8281  0.7966
  716MOL0     C96527   7.762   8.327   5.135  0.3943  0.4000  0.2574
  716MOL0     O96528   7.642   8.371   5.167  0.5433 -0.2174 -0.1460
  716MOL0     C96529   7.547   8.288   5.227  0.1627 -0.6266 -0.1899
  716MOL0     C96530   7.530   8.148   5.214  0.1264  0.3285  0.5892
  716MOL0     C96531   7.428   8.072   5.276 -0.3659  0.1521 -0.1294
  716MOL0     C96532   7.341   8.136   5.371  0.9407 -0.0558  0.1214
  716MOL0     O96533   7.238   8.069   5.442 -0.2398  0.2404 -0.5576
  716MOL0     C96534   7.239   8.096   5.579 -0.6667 -0.3249  0.0666
  716MOL0     C96535   7.163   7.975   5.639 -0.7927 -0.1528  0.6655
  716MOL0     C96536   7.158   7.966   5.794  0.2516 -0.1908  0.3355
  716MOL0     C96537   7.293   7.951   5.862 -0.1378  0.4174 -0.6958
  716MOL0     C96538   7.279   7.888   6.001 -0.5588 -1.0609  0.6230
  716MOL0     C96539   7.233   7.983   6.110  0.0436 -0.3560 -0.9385
  716MOL0     C96540   7.282   7.941   6.250  0.3626 -0.2563  0.2973
  716MOL0     C96541   7.255   8.035   6.358 -0.0079 -0.3373 -0.1462
  716MOL0     N96542   7.320   8.008   6.491  0.1043 -0.0927  0.7564
  716MOL0     C96543   7.427   7.924   6.507  0.4595 -0.3913  1.5215
  716MOL0     C96544   7.474   7.947   6.627  0.5769 -1.2711 -0.6531
  716MOL0     C96545   7.598   7.896   6.693 -0.9762  0.6654  0.0388
  716MOL0     C96546   7.581   7.783   6.796  0.4721  0.0293 -0.7021
  716MOL0     C96547   7.491   7.819   6.913  0.0894 -0.5313  0.4511
  716MOL0     C96548   7.505   7.715   7.030  0.7004  0.0414 -0.1199
  716MOL0     O96549   7.625   7.728   7.096 -0.2808 -0.3390 -0.0624
  716MOL0     C96550   7.639   7.634   7.185 -0.1305 -0.1868 -0.7253
  716MOL0     C96551   7.648   7.495   7.148 -0.2065 -0.5073 -0.0621
  716MOL0     C96552   7.675   7.400   7.245 -0.2769 -0.2685  0.0586
  716MOL0     C96553   7.683   7.257   7.194 -0.2246  0.6700  0.1098
  716MOL0     C96554   7.684   7.437   7.387 -0.2703 -0.3223  0.5567
  716MOL0     C96555   7.687   7.345   7.503 -1.1213  0.3012  0.2009
  716MOL0     O96556   7.729   7.396   7.616  0.0814 -0.2791  0.2235
  716MOL0     C96557   7.689   7.340   7.737 -0.3732 -0.0167  0.0160
  716MOL0     C96558   7.564   7.275   7.762 -0.8604  0.0967  0.4352
  716MOL0     C96559   7.517   7.253   7.893  0.2112 -0.4830  0.3850
  716MOL0     C96560   7.596   7.295   8.005 -0.3429 -0.3798  0.0933
  716MOL0     O96561   7.565   7.281   8.140  0.2454  0.2717 -0.7351
  716MOL0     C96562   7.446   7.203   8.172  0.4352 -0.2364  0.1529
  716MOL0     C96563   7.482   7.053   8.192 -0.3046 -0.0957 -0.5304
  716MOL0     C96564   7.358   6.963   8.237  0.6712  0.4061  0.1878
  716MOL0     C96565   7.257   6.956   8.116 -0.0550  0.7360 -0.0683
  716MOL0     C96566   7.156   6.832   8.126 -1.1422 -0.6502  0.1883
  716MOL0     C96567   7.076   6.822   8.250  0.0552 -0.2658  0.8035
  716MOL0     C96568   6.970   6.709   8.217 -0.9318 -0.3617 -0.2095
  716MOL0     C96569   6.847   6.717   8.311  0.0743 -0.6185  0.0844
  716MOL0    Cl96570   6.892   6.726   8.484 -0.2864  0.2950  0.4177
  716MOL0     C96571   7.717   7.356   7.981  0.5394  0.3806  0.2243
  716MOL0     C96572   7.766   7.373   7.851 -0.0104 -0.1051 -0.7435
  716MOL0     O96573   7.656   7.225   7.482 -0.5547  0.1616 -0.4634
  716MOL0     C96574   7.686   7.581   7.421 -0.2666 -0.4486 -0.7074
  716MOL0     C96575   7.651   7.676   7.318 -0.3134  0.0212 -0.2894
  716MOL0     N96576   7.394   8.043   6.687  0.3087  0.1948 -0.5309
  716MOL0     N96577   7.312   8.086   6.596  0.1279  0.0758  0.5165
  716MOL0     C96578   7.355   8.273   5.383  0.4884 -0.2129 -0.4870
  716MOL0     C96579   7.451   8.349   5.313 -0.0274  0.9207  0.4122
  716MOL0     C96580   7.845   8.421   5.063  0.0928  0.8625  0.4035
  716MOL0     C96581   7.814   8.555   5.050 -0.2384  0.5090 -0.4715
  716MOL0     C96582   7.891   8.625   4.957 -0.1793  0.0236 -0.0068
  716MOL0     C96583   8.011   8.582   4.896  0.0678  0.6093  0.4935
  716MOL0     O96584   8.102   8.658   4.834 -0.5659 -0.6179  0.5597
  716MOL0     C96585   8.043   8.782   4.772 -0.4971 -0.8771 -0.3313
  716MOL0     C96586   8.132   8.847   4.675 -0.0296 -1.0627  0.1348
  716MOL0     C96587   8.181   8.747   4.569  0.0146 -0.0792  0.0646
  716MOL0     C96588   8.251   8.798   4.448 -0.2749 -0.0166  0.6464
  716MOL0     C96589   8.194   8.923   4.403 -0.7272  0.0947 -0.2112
  716MOL0     C96590   8.148   9.033   4.384 -0.2226  0.6782 -0.4142
  716MOL0     C96591   8.033   8.448   4.912 -0.3984 -0.1933 -0.2352
  716MOL0     C96592   7.948   8.365   4.986  0.4360 -0.3587 -1.0028
  716MOL0     H96593   7.583   8.093   5.136 -0.3627 -0.1983  0.6206
  716MOL0     H96594   7.410   7.968   5.251  0.1591 -0.1472  0.7236
  716MOL0     H96595   7.341   8.104   5.616 -1.3111 -0.1251  1.8758
  716MOL0     H96596   7.178   8.183   5.604 -0.3142 -0.9736  3.6649
  716MOL0     H96597   7.064   7.987   5.593  0.4609  2.8747 -1.5083
  716MOL0     H96598   7.197   7.883   5.590 -0.1979  1.1680 -1.5241
  716MOL0     H96599   7.109   8.060   5.823  0.9782 -0.0906  1.3122
  716MOL0     H96600   7.097   7.880   5.822 -3.1986  1.8354 -0.3807
  716MOL0     H96601   7.354   7.894   5.791  2.1848  1.7334  0.1563
  716MOL0     H96602   7.343   8.048   5.866  1.2855 -0.3291  1.6936
  716MOL0     H96603   7.214   7.801   6.001 -1.1369 -0.6373  0.3323
  716MOL0     H96604   7.382   7.860   6.023  0.7537  0.4556 -2.9427
  716MOL0     H96605   7.264   8.085   6.085 -0.6654  0.0697 -0.1322
  716MOL0     H96606   7.124   7.981   6.108 -0.2917  1.7692  3.1299
  716MOL0     H96607   7.255   7.836   6.260  2.3371 -1.0356 -1.6662
  716MOL0     H96608   7.390   7.931   6.258  0.2969 -0.3321  1.1750
  716MOL0     H96609   7.147   8.046   6.368 -0.1105 -0.6409 -0.8634
  716MOL0     H96610   7.280   8.137   6.326 -0.8219 -0.5383 -1.4931
  716MOL0     H96611   7.486   7.864   6.438  1.8801  1.3715  1.1166
  716MOL0     H96612   7.656   7.853   6.611 -2.4310  1.9215 -1.7097
  716MOL0     H96613   7.651   7.973   6.751  0.2236 -0.3861  0.3752
  716MOL0     H96614   7.680   7.772   6.843 -0.1473 -1.0812  0.4154
  716MOL0     H96615   7.555   7.682   6.761  2.2549 -1.2370  1.3223
  716MOL0     H96616   7.390   7.833   6.875  0.1936  0.8794  0.6519
  716MOL0     H96617   7.510   7.922   6.943  0.2775 -0.7782  1.2064
  716MOL0     H96618   7.498   7.617   6.981  0.3769 -1.2727  2.3725
  716MOL0     H96619   7.425   7.730   7.103  1.4360 -3.3852  1.6230
  716MOL0     H96620   7.664   7.446   7.052  2.4207 -2.6915  1.3587
  716MOL0     H96621   7.584   7.211   7.188 -1.1808  2.8315 -3.0528
  716MOL0     H96622   7.726   7.246   7.094 -2.1714 -2.2490 -0.5402
  716MOL0     H96623   7.759   7.207   7.255 -0.4225  1.7722  1.3057
  716MOL0     H96624   7.516   7.252   7.667 -1.5541  3.7632 -0.2776
  716MOL0     H96625   7.414   7.216   7.890 -0.7052  1.8686  0.8701
  716MOL0     H96626   7.423   7.251   8.267 -0.7361  2.8973 -1.5662
  716MOL0     H96627   7.356   7.214   8.110 -1.1172  1.5339  2.5667
  716MOL0     H96628   7.513   7.016   8.095 -2.7341 -0.0730 -1.3924
  716MOL0     H96629   7.562   7.046   8.266  0.8000  3.6788 -1.1577
  716MOL0     H96630   7.310   7.020   8.317  1.8504  0.3569  0.9611
  716MOL0     H96631   7.395   6.864   8.265  0.5279  0.6651  1.3511
  716MOL0     H96632   7.194   7.045   8.105  2.7594  2.8456 -0.3641
  716MOL0     H96633   7.314   6.952   8.023 -0.6908  3.9465 -0.7218
  716MOL0     H96634   7.213   6.739   8.124  2.1666  1.0645  3.0055
  716MOL0     H96635   7.096   6.842   8.035  0.9107  0.4600 -1.1290
  716MOL0     H96636   7.124   6.780   8.339 -0.0438  0.1277  1.0454
  716MOL0     H96637   7.032   6.919   8.276  3.3648  0.9342  2.5169
  716MOL0     H96638   7.022   6.615   8.236  0.9574  0.8292  0.8523
  716MOL0     H96639   6.939   6.702   8.113 -0.5178 -2.1747 -0.2282
  716MOL0     H96640   6.783   6.633   8.282  2.2590 -1.6719 -2.0741
  716MOL0     H96641   6.802   6.814   8.289 -2.4342 -1.5687  0.6784
  716MOL0     H96642   7.777   7.364   8.071  2.0246 -2.1340 -0.4314
  716MOL0     H96643   7.865   7.412   7.833  0.0096 -0.5657 -1.6455
  716MOL0     H96644   7.709   7.618   7.520  0.7014 -0.0066 -1.0913
  716MOL0     H96645   7.628   7.779   7.341  0.5910  0.5165 -1.4524
  716MOL0     H96646   7.288   8.325   5.451  0.4239 -1.5715  0.5280
  716MOL0     H96647   7.457   8.457   5.302  1.0306  0.6774 -2.0081
  716MOL0     H96648   7.742   8.602   5.116  1.3663 -0.3094  2.0325
  716MOL0     H96649   7.869   8.731   4.951 -1.6881 -0.0382  2.7277
  716MOL0     H96650   7.949   8.764   4.719 -1.3652  0.3083  0.7529
  716MOL0     H96651   8.008   8.846   4.853 -2.1757 -1.4965 -0.5157
  716MOL0     H96652   8.227   8.877   4.721 -0.0791 -1.4317  0.4840
  716MOL0     H96653   8.083   8.932   4.627  0.9929 -1.2395 -1.2837
  716MOL0     H96654   8.094   8.694   4.530 -1.8549  2.3058  0.7637
  716MOL0     H96655   8.249   8.675   4.616 -1.3857 -0.4068  1.6587
  716MOL0     H96656   8.265   8.721   4.372  0.8797  0.8273 -0.0355
  716MOL0     H96657   8.347   8.832   4.488 -0.2437  0.1767  0.4124
  716MOL0     H96658   8.109   9.132   4.372  1.2661  1.8623  3.1956
  716MOL0     H96659   8.126   8.416   4.867  1.6825  2.0420  2.1630
  716MOL0     H96660   7.968   8.259   4.988  1.0769 -0.3918  3.8867
  717MOL0     O96661   9.922   0.957   1.157 -0.3732 -0.1110 -0.9416
  717MOL0     C96662   9.870   1.008   1.064  0.8777 -0.6224 -0.4361
  717MOL0     O96663   9.740   0.988   1.039  0.8252 -0.3105  0.1907
  717MOL0     C96664   9.651   0.940   1.126 -0.3710  0.1144 -0.6373
  717MOL0     C96665   9.648   0.961   1.264  0.1105 -0.2882 -0.0167
  717MOL0     C96666   9.545   0.910   1.344 -0.4558 -0.4865  0.0126
  717MOL0     C96667   9.447   0.828   1.288  0.9433 -0.2974  0.3884
  717MOL0     O96668   9.347   0.774   1.355 -0.9499 -0.3914  0.4358
  717MOL0     C96669   9.383   0.685   1.467 -0.1834  0.8648  0.5907
  717MOL0     C96670   9.256   0.627   1.524  0.1612 -0.0225 -0.4068
  717MOL0     C96671   9.186   0.741   1.610 -0.2407 -0.0798  0.1699
  717MOL0     C96672   9.064   0.691   1.672  0.0045 -0.3503 -0.6754
  717MOL0     C96673   9.025   0.783   1.795 -0.5059 -0.1707 -0.2436
  717MOL0     C96674   8.896   0.756   1.864  0.4836  0.7897  0.4580
  717MOL0     C96675   8.904   0.625   1.944  0.8479 -0.1205  0.4367
  717MOL0     C96676   8.935   0.647   2.087  0.4561  0.3964  0.0365
  717MOL0     N96677   8.846   0.735   2.159  0.0378 -0.0967 -0.3246
  717MOL0     C96678   8.707   0.752   2.144  0.3599  0.8541  0.1483
  717MOL0     C96679   8.676   0.846   2.226  0.6363 -1.6983 -0.5300
  717MOL0     C96680   8.536   0.910   2.249  0.4739 -0.6037  0.3210
  717MOL0     C96681   8.439   0.804   2.298  0.0737  0.8425  0.3369
  717MOL0     C96682   8.304   0.859   2.338 -0.1473  0.3485  0.6746
  717MOL0     C96683   8.215   0.754   2.390  0.5128 -0.6473 -0.0192
  717MOL0     O96684   8.146   0.677   2.287 -0.3936  0.4943  0.3071
  717MOL0     C96685   8.014   0.687   2.263  0.6822  0.5159 -0.0755
  717MOL0     C96686   7.964   0.628   2.142 -0.5469  0.2230 -0.6197
  717MOL0     C96687   7.834   0.621   2.113  0.6293 -0.3232  1.9028
  717MOL0     C96688   7.783   0.555   1.975 -0.3928  0.9881 -1.5103
  717MOL0     C96689   7.735   0.681   2.200 -0.9221 -0.1981 -0.3797
  717MOL0     C96690   7.595   0.678   2.164 -0.3929 -0.2531 -0.4897
  717MOL0     O96691   7.533   0.799   2.193 -0.2065 -0.2484 -0.1714
  717MOL0     C96692   7.404   0.795   2.202  0.4724  0.1335  0.1371
  717MOL0     C96693   7.342   0.825   2.330 -0.6373  0.0520  0.2686
  717MOL0     C96694   7.207   0.827   2.341  0.1530 -0.5164  0.2119
  717MOL0     C96695   7.123   0.800   2.231 -0.4242  0.1668 -0.2581
  717MOL0     O96696   6.986   0.800   2.247 -0.0897  0.3769 -0.0770
  717MOL0     C96697   6.896   0.770   2.139  0.3082  0.1829 -0.9073
  717MOL0     C96698   6.757   0.775   2.194 -1.2242 -0.0876  0.2640
  717MOL0     C96699   6.656   0.696   2.108 -0.1949  0.9611 -1.2563
  717MOL0     C96700   6.548   0.787   2.079 -0.2676 -0.0997 -0.7045
  717MOL0     C96701   6.454   0.814   2.205 -0.2926  0.0001 -0.4893
  717MOL0     C96702   6.342   0.902   2.167  0.4097 -0.4556  0.2238
  717MOL0     C96703   6.242   0.920   2.280 -0.6586 -0.0131 -0.2265
  717MOL0     C96704   6.106   0.972   2.222  0.0452  0.2458 -0.0173
  717MOL0    Cl96705   5.994   0.998   2.348 -0.2504 -0.5247  0.2557
  717MOL0     C96706   7.180   0.780   2.103 -0.2488 -0.2790  0.5165
  717MOL0     C96707   7.322   0.785   2.092  0.2811 -0.7114 -0.0402
  717MOL0     O96708   7.534   0.578   2.119  0.8648  0.1819  0.2989
  717MOL0     C96709   7.776   0.746   2.319 -0.2913  0.5116 -0.7146
  717MOL0     C96710   7.923   0.749   2.349  0.1470  0.7872 -0.6753
  717MOL0     N96711   8.789   0.881   2.297  0.7665 -0.2484  0.4695
  717MOL0     N96712   8.893   0.812   2.256  0.1027 -0.3815  0.5164
  717MOL0     C96713   9.452   0.804   1.146 -0.1318  0.3287 -1.0945
  717MOL0     C96714   9.545   0.864   1.068  0.9226 -0.0967  0.8713
  717MOL0     C96715   9.944   1.078   0.959  1.0844  0.1266 -0.3668
  717MOL0     C96716   9.883   1.110   0.838  0.4153  0.1232  0.2789
  717MOL0     C96717   9.954   1.170   0.738 -0.5461  0.8675 -0.8514
  717MOL0     C96718  10.094   1.191   0.746 -0.3735 -0.4480 -0.3468
  717MOL0     O96719  10.178   1.253   0.656  0.3209  0.1518  0.0577
  717MOL0     C96720  10.109   1.295   0.528 -0.1475 -0.1707 -1.1068
  717MOL0     C96721  10.217   1.341   0.432  0.6740  0.6244 -0.0214
  717MOL0     C96722  10.303   1.224   0.374  0.3836  0.1414  0.2237
  717MOL0     C96723  10.424   1.285   0.295  0.4918  0.8223 -1.5500
  717MOL0     C96724  10.529   1.310   0.398 -0.4188 -0.8655  1.0844
  717MOL0     C96725  10.627   1.325   0.470  0.1130 -0.8420 -0.1906
  717MOL0     C96726  10.156   1.134   0.861  0.3482  0.5623  0.0929
  717MOL0     C96727  10.085   1.093   0.970  0.3746  0.2124 -0.0304
  717MOL0     H96728   9.728   1.026   1.301  1.1456  1.0126 -4.0226
  717MOL0     H96729   9.543   0.942   1.448  2.5388 -2.3181  0.7491
  717MOL0     H96730   9.455   0.609   1.435 -2.3256 -1.0984  0.1976
  717MOL0     H96731   9.427   0.734   1.554 -0.2452 -2.7035  2.8202
  717MOL0     H96732   9.183   0.598   1.447 -2.9599  1.6196  1.7050
  717MOL0     H96733   9.289   0.549   1.592  1.4802 -0.3625 -1.4151
  717MOL0     H96734   9.258   0.784   1.679  1.1817 -0.7166 -0.8696
  717MOL0     H96735   9.153   0.817   1.538  0.9586 -1.0462 -1.4583
  717MOL0     H96736   8.992   0.680   1.591  0.8350 -0.9166 -1.3527
  717MOL0     H96737   9.087   0.595   1.719 -0.1224  0.6686  1.6165
  717MOL0     H96738   9.108   0.778   1.866 -0.8012 -1.3024  0.0402
  717MOL0     H96739   9.025   0.886   1.757  3.0371  0.0657  0.0862
  717MOL0     H96740   8.871   0.838   1.933 -0.7514  0.7147  0.1289
  717MOL0     H96741   8.810   0.753   1.796  0.6102  0.4292  0.3114
  717MOL0     H96742   8.800   0.591   1.941 -0.1739  2.7134  1.2131
  717MOL0     H96743   8.967   0.550   1.893 -0.1340  0.0233 -1.0381
  717MOL0     H96744   9.038   0.683   2.094  0.7239 -0.1853 -0.7272
  717MOL0     H96745   8.920   0.558   2.150 -1.0502  1.5777  1.4167
  717MOL0     H96746   8.642   0.715   2.066 -1.4641  0.4954  1.7718
  717MOL0     H96747   8.536   0.998   2.314 -0.7636  1.3611 -2.1951
  717MOL0     H96748   8.493   0.949   2.156 -2.1286 -0.3936  1.5318
  717MOL0     H96749   8.490   0.759   2.384 -0.0301 -0.1558 -0.1128
  717MOL0     H96750   8.431   0.724   2.224 -0.0976  1.3068 -0.1508
  717MOL0     H96751   8.270   0.907   2.245  0.4986  0.4688  0.4986
  717MOL0     H96752   8.316   0.944   2.406  2.2317  0.9420 -0.3958
  717MOL0     H96753   8.145   0.804   2.459  1.8532  1.0902  0.1634
  717MOL0     H96754   8.264   0.682   2.456 -1.9859 -2.2412  0.2333
  717MOL0     H96755   8.038   0.594   2.069  3.3577  1.7191  2.2720
  717MOL0     H96756   7.746   0.632   1.907 -1.3691  0.7896 -1.2194
  717MOL0     H96757   7.876   0.518   1.932 -0.8124  0.5020 -2.0203
  717MOL0     H96758   7.714   0.470   1.981  1.8401 -1.0531 -2.6503
  717MOL0     H96759   7.416   0.837   2.408  1.8628  1.7133 -2.1556
  717MOL0     H96760   7.156   0.832   2.437 -2.7017 -0.3578 -1.2014
  717MOL0     H96761   6.910   0.837   2.054  2.4894 -1.6087 -2.0602
  717MOL0     H96762   6.920   0.667   2.111 -0.0318 -0.2066  0.1719
  717MOL0     H96763   6.774   0.713   2.283 -1.0369 -1.8084 -0.9167
  717MOL0     H96764   6.747   0.879   2.226  2.5534  0.0685  1.4282
  717MOL0     H96765   6.631   0.611   2.172  2.6602  1.0767  0.1809
  717MOL0     H96766   6.692   0.655   2.013 -2.8779  0.3212 -2.0685
  717MOL0     H96767   6.592   0.885   2.060  0.5144  0.3447  2.7972
  717MOL0     H96768   6.493   0.746   1.993 -0.6882 -0.0912 -0.4423
  717MOL0     H96769   6.518   0.852   2.285 -2.2425 -4.2795  3.5998
  717MOL0     H96770   6.420   0.716   2.240  0.2496  1.0010  3.1551
  717MOL0     H96771   6.380   1.001   2.139  0.6042 -0.1760  1.4252
  717MOL0     H96772   6.284   0.860   2.084  1.0332  0.4273 -0.6702
  717MOL0     H96773   6.275   1.000   2.347  1.7660 -2.1073  1.2485
  717MOL0     H96774   6.243   0.828   2.339  2.0248  0.3947  0.4693
  717MOL0     H96775   6.085   0.886   2.158  4.4778 -2.2952  1.4746
  717MOL0     H96776   6.108   1.055   2.152  2.5477 -0.8156 -1.3621
  717MOL0     H96777   7.122   0.758   2.014  2.6265 -2.1801 -1.0535
  717MOL0     H96778   7.363   0.785   1.991 -0.8668 -4.0031 -0.6155
  717MOL0     H96779   7.699   0.773   2.391 -2.8280 -2.4437 -2.0688
  717MOL0     H96780   7.936   0.789   2.449 -1.4392  1.8928 -0.8838
  717MOL0     H96781   9.369   0.749   1.103  1.4451 -3.1553 -0.0025
  717MOL0     H96782   9.536   0.856   0.960  1.0761  2.0162  0.6577
  717MOL0     H96783   9.776   1.098   0.823  0.3490  0.6305  0.3227
  717MOL0     H96784   9.892   1.214   0.661 -1.3855  2.6033  0.7317
  717MOL0     H96785  10.046   1.211   0.497 -1.2472 -0.2701  1.1664
  717MOL0     H96786  10.048   1.384   0.550  2.0661  1.3994 -0.9994
  717MOL0     H96787  10.267   1.411   0.499 -1.6492  1.6541  0.7441
  717MOL0     H96788  10.179   1.415   0.361  3.7602  1.5795 -0.8117
  717MOL0     H96789  10.238   1.171   0.305 -1.2427  0.6980  1.2593
  717MOL0     H96790  10.346   1.157   0.449  1.3358 -0.2508 -0.6619
  717MOL0     H96791  10.389   1.378   0.251  1.3087  2.1807  0.5153
  717MOL0     H96792  10.444   1.225   0.206 -0.4047  0.3990 -1.4808
  717MOL0     H96793  10.727   1.334   0.506  0.5743  0.8257 -1.7295
  717MOL0     H96794  10.264   1.136   0.863  0.4056 -0.3383 -1.2053
  717MOL0     H96795  10.144   1.063   1.057 -0.1652 -2.3818 -0.4702
  718MOL0     O96796   8.214   1.955   2.697 -0.0588 -0.0716  0.1271
  718MOL0     C96797   8.196   1.883   2.606 -0.1527  0.2617 -0.1143
  718MOL0     O96798   8.073   1.813   2.571  0.4639 -0.6765  0.0849
  718MOL0     C96799   7.952   1.850   2.640  0.0796  0.4630 -0.8650
  718MOL0     C96800   7.833   1.829   2.569  0.4712 -0.6569  0.7105
  718MOL0     C96801   7.707   1.868   2.612 -1.4565 -0.6421  0.3170
  718MOL0     C96802   7.702   1.946   2.728  0.2933 -0.0328  0.0971
  718MOL0     O96803   7.588   1.995   2.779 -0.3285 -0.1182  0.0069
  718MOL0     C96804   7.559   2.122   2.708  0.2431  0.1626  0.2672
  718MOL0     C96805   7.476   2.204   2.809  0.7450 -1.2149  0.2073
  718MOL0     C96806   7.564   2.227   2.932  0.5924 -0.4029  0.5845
  718MOL0     C96807   7.498   2.305   3.044 -0.4035 -0.1237  0.3356
  718MOL0     C96808   7.586   2.328   3.168  0.6636 -0.4737  0.4872
  718MOL0     C96809   7.517   2.422   3.275  0.4834  0.2027  0.6435
  718MOL0     C96810   7.391   2.369   3.343 -0.5294  0.1739 -0.6468
  718MOL0     C96811   7.340   2.489   3.436 -0.5029  0.0519  0.2642
  718MOL0     N96812   7.328   2.452   3.582  0.4487 -0.3231 -0.3326
  718MOL0     C96813   7.423   2.402   3.673 -0.4146 -0.5495 -0.3652
  718MOL0     C96814   7.355   2.381   3.787  0.2094 -0.8322  0.8258
  718MOL0     C96815   7.416   2.335   3.908 -0.6187 -0.4816 -0.2476
  718MOL0     C96816   7.456   2.187   3.883 -1.1955  0.2448  0.3255
  718MOL0     C96817   7.547   2.147   4.011 -0.2525  0.2625  0.6925
  718MOL0     C96818   7.534   2.004   4.040  0.0296  1.1530 -1.2569
  718MOL0     O96819   7.636   1.981   4.133 -0.6846 -0.3435  0.3676
  718MOL0     C96820   7.610   1.875   4.215  0.7021  0.5942  0.2162
  718MOL0     C96821   7.508   1.877   4.306 -0.1458  0.0471  0.0415
  718MOL0     C96822   7.494   1.779   4.409  0.0515 -0.1686  0.2499
  718MOL0     C96823   7.371   1.783   4.485 -0.0545  0.7312  0.4481
  718MOL0     C96824   7.596   1.682   4.411 -0.6012  0.2681  0.9609
  718MOL0     C96825   7.603   1.566   4.500  0.2419  0.3329 -1.5499
  718MOL0     O96826   7.712   1.481   4.490 -1.1193 -0.2430  0.0115
  718MOL0     C96827   7.741   1.398   4.596 -0.4283 -0.2384  0.9995
  718MOL0     C96828   7.676   1.274   4.593  0.3456  0.1183 -0.9775
  718MOL0     C96829   7.725   1.174   4.685 -0.3746 -0.4372 -0.0684
  718MOL0     C96830   7.842   1.192   4.764  0.0435  0.5789 -0.0503
  718MOL0     O96831   7.881   1.083   4.842 -0.0218 -0.3910 -0.8596
  718MOL0     C96832   7.835   1.079   4.975 -0.3957 -0.0353 -0.8680
  718MOL0     C96833   7.927   0.992   5.066  0.2175  0.1715 -0.6211
  718MOL0     C96834   8.078   1.024   5.049 -0.0679 -1.1347  1.5929
  718MOL0     C96835   8.156   0.974   5.169  0.1768 -0.3854 -1.2152
  718MOL0     C96836   8.300   0.994   5.145 -0.6648 -0.5626  0.0711
  718MOL0     C96837   8.373   0.895   5.054  0.1730 -1.0215 -1.6239
  718MOL0     C96838   8.517   0.951   5.023  0.6858 -0.7082  0.2052
  718MOL0     C96839   8.583   0.887   4.898  0.8642 -0.9231 -0.6715
  718MOL0    Cl96840   8.747   0.942   4.874 -0.2718  0.1380 -0.2429
  718MOL0     C96841   7.921   1.311   4.748  0.3418  0.0331 -0.5745
  718MOL0     C96842   7.868   1.416   4.661 -0.3986  0.4942 -0.4384
  718MOL0     O96843   7.518   1.556   4.587 -0.8139  0.2736  0.4887
  718MOL0     C96844   7.700   1.681   4.317 -0.2135  0.5697  0.5522
  718MOL0     C96845   7.706   1.778   4.224  0.2644  0.9821 -0.0046
  718MOL0     N96846   7.226   2.440   3.778  0.0408  0.2805  0.6473
  718MOL0     N96847   7.213   2.482   3.653 -0.0665  0.3619  0.0085
  718MOL0     C96848   7.814   1.958   2.812 -0.8287  0.3929 -0.4188
  718MOL0     C96849   7.947   1.911   2.772  0.6454 -0.8931  0.7742
  718MOL0     C96850   8.310   1.863   2.521 -0.6148 -0.0953  0.4165
  718MOL0     C96851   8.283   1.822   2.386 -0.6720  0.6392 -0.7693
  718MOL0     C96852   8.398   1.795   2.299  0.9411 -0.2323 -0.9811
  718MOL0     C96853   8.529   1.795   2.351 -0.3350 -0.7323  0.0267
  718MOL0     O96854   8.644   1.759   2.291 -0.3224 -0.0664  0.7539
  718MOL0     C96855   8.634   1.645   2.200 -0.0353  0.1159 -0.2500
  718MOL0     C96856   8.771   1.613   2.140  0.5290  0.5428 -0.3339
  718MOL0     C96857   8.832   1.712   2.049 -0.1317 -0.6382  0.2361
  718MOL0     C96858   8.948   1.788   2.106  0.3390  0.9433 -0.5513
  718MOL0     C96859   8.960   1.909   2.039 -0.4503 -0.8250 -0.4248
  718MOL0     C96860   8.999   2.010   1.994 -0.1793  0.5286 -0.3024
  718MOL0     C96861   8.541   1.835   2.487 -0.4814  0.0293  0.9299
  718MOL0     C96862   8.440   1.858   2.574  0.5721  0.2494 -0.0229
  718MOL0     H96863   7.825   1.787   2.470  3.8737 -1.1123  0.4970
  718MOL0     H96864   7.617   1.851   2.554 -1.3523 -3.3460  0.7894
  718MOL0     H96865   7.650   2.181   2.692  0.1271  0.6019  1.1775
  718MOL0     H96866   7.506   2.108   2.614 -1.3671 -1.5219  1.3613
  718MOL0     H96867   7.453   2.301   2.765  2.2791 -0.7049  0.4674
  718MOL0     H96868   7.383   2.154   2.836 -0.4385  0.2465 -0.9928
  718MOL0     H96869   7.585   2.129   2.976 -1.8594 -0.3740  1.9797
  718MOL0     H96870   7.658   2.274   2.899  0.5439 -1.3844 -1.0852
  718MOL0     H96871   7.483   2.404   2.999 -1.1727 -0.3408  0.0981
  718MOL0     H96872   7.395   2.269   3.048 -0.2421 -0.8422 -1.1414
  718MOL0     H96873   7.598   2.229   3.215  1.0532  0.6217  2.8791
  718MOL0     H96874   7.683   2.371   3.143  0.7185 -0.1530  1.2159
  718MOL0     H96875   7.589   2.437   3.356 -1.1021  2.3165  1.7387
  718MOL0     H96876   7.489   2.509   3.215  3.2607  0.4814 -0.3906
  718MOL0     H96877   7.315   2.341   3.270 -1.6610  2.6880 -0.5391
  718MOL0     H96878   7.419   2.275   3.391  1.8180  1.5549  0.8660
  718MOL0     H96879   7.239   2.525   3.414 -0.0375  2.6043  1.8826
  718MOL0     H96880   7.405   2.575   3.419 -1.3640  0.6220 -0.2149
  718MOL0     H96881   7.519   2.364   3.642  0.2274  1.5738 -1.1066
  718MOL0     H96882   7.501   2.395   3.941 -1.2254 -0.5454  1.5061
  718MOL0     H96883   7.351   2.341   3.995  0.3675  0.7161  0.4286
  718MOL0     H96884   7.520   2.182   3.794 -0.6749  0.7174  0.6662
  718MOL0     H96885   7.363   2.130   3.873 -2.0575  1.9418 -3.1317
  718MOL0     H96886   7.522   2.204   4.100 -0.6426 -0.0043  0.7541
  718MOL0     H96887   7.648   2.173   3.976 -0.5544 -1.0260 -1.2890
  718MOL0     H96888   7.557   1.940   3.954  0.8655  1.0973 -1.0044
  718MOL0     H96889   7.437   1.971   4.079  0.7633 -1.6993 -1.6211
  718MOL0     H96890   7.431   1.950   4.284 -1.4724 -0.9407  1.2184
  718MOL0     H96891   7.315   1.875   4.465  0.1594  0.9758  0.9521
  718MOL0     H96892   7.311   1.693   4.469  0.4178  0.7481 -1.7592
  718MOL0     H96893   7.401   1.784   4.590 -0.3687 -0.3708  0.5543
  718MOL0     H96894   7.595   1.260   4.522  0.0819  1.2005 -0.9195
  718MOL0     H96895   7.682   1.076   4.701 -0.9733  0.0803  1.6585
  718MOL0     H96896   7.840   1.178   5.022  0.3060  0.8352 -2.6795
  718MOL0     H96897   7.731   1.046   4.971 -1.1298  2.1360 -1.0012
  718MOL0     H96898   7.905   0.999   5.173  1.4235 -1.8340 -0.1946
  718MOL0     H96899   7.932   0.886   5.041  1.0607  0.6264 -2.5316
  718MOL0     H96900   8.108   1.129   5.051  0.5351 -1.2631  0.3000
  718MOL0     H96901   8.112   0.969   4.961  0.7577 -1.6981  2.2490
  718MOL0     H96902   8.148   1.036   5.258  1.3366  0.2146 -1.4964
  718MOL0     H96903   8.132   0.869   5.188 -0.9996 -0.1350 -1.2445
  718MOL0     H96904   8.356   0.998   5.239 -2.2812  4.8652  1.1772
  718MOL0     H96905   8.309   1.096   5.107  0.1470 -0.0361  1.6302
  718MOL0     H96906   8.387   0.802   5.108  1.5822  0.6771  1.1330
  718MOL0     H96907   8.322   0.895   4.957 -1.0908  0.7080 -1.0193
  718MOL0     H96908   8.585   0.936   5.107  0.7502 -0.9194  0.1164
  718MOL0     H96909   8.505   1.055   4.992 -2.8620 -1.7624 -2.7234
  718MOL0     H96910   8.527   0.895   4.804 -1.7283 -3.7175  0.4775
  718MOL0     H96911   8.549   0.785   4.916 -0.7517 -0.0682  1.5524
  718MOL0     H96912   8.024   1.331   4.776 -0.2319  2.1420  0.2650
  718MOL0     H96913   7.922   1.510   4.651  1.6616 -0.6915 -1.2200
  718MOL0     H96914   7.778   1.606   4.314  1.9920  2.6703  1.7202
  718MOL0     H96915   7.789   1.780   4.154  1.0289  2.4011  0.8948
  718MOL0     H96916   7.801   2.001   2.911  1.0548 -0.6761  0.3340
  718MOL0     H96917   8.036   1.929   2.831  3.4598  2.4745 -3.8824
  718MOL0     H96918   8.182   1.793   2.362 -1.4227  0.4261  2.1709
  718MOL0     H96919   8.371   1.758   2.201  1.0153 -1.2196 -0.6389
  718MOL0     H96920   8.590   1.561   2.254  1.9888 -0.1836  1.0428
  718MOL0     H96921   8.571   1.678   2.117 -0.4341  0.0833  0.0372
  718MOL0     H96922   8.752   1.527   2.076  0.1410  1.2703 -1.2164
  718MOL0     H96923   8.843   1.578   2.215  2.5348  0.1732 -2.3420
  718MOL0     H96924   8.752   1.779   2.017 -0.4172 -1.5763 -1.0796
  718MOL0     H96925   8.862   1.665   1.955 -0.3293 -0.4745  0.0900
  718MOL0     H96926   9.031   1.718   2.093 -1.1329 -0.5223 -2.6808
  718MOL0     H96927   8.921   1.816   2.209 -2.7728 -1.3788 -0.5777
  718MOL0     H96928   9.033   2.101   1.949  0.7618  0.7402  0.7892
  718MOL0     H96929   8.645   1.851   2.514  0.3064  1.3835 -2.3499
  718MOL0     H96930   8.468   1.884   2.675 -1.3823 -0.4188  0.7298
  719MOL0     O96931  10.564   1.160   2.262 -1.2675  0.6459 -0.3900
  719MOL0     C96932  10.514   1.215   2.159 -0.2997  0.5791  0.0964
  719MOL0     O96933  10.575   1.304   2.078 -0.1760 -0.1804 -1.1094
  719MOL0     C96934  10.704   1.332   2.119 -0.7808  0.0695 -0.4086
  719MOL0     C96935  10.724   1.466   2.163  0.3773 -0.3739 -0.7322
  719MOL0     C96936  10.848   1.508   2.216  0.4156  0.5327 -0.0321
  719MOL0     C96937  10.961   1.425   2.213  0.1916  0.4633 -0.3863
  719MOL0     O96938  11.078   1.485   2.255  0.2826  0.2791 -0.1707
  719MOL0     C96939  11.174   1.405   2.323 -0.2564  0.1037  0.2127
  719MOL0     C96940  11.296   1.500   2.345  0.1250 -0.2226 -0.4077
  719MOL0     C96941  11.417   1.439   2.405  0.1282 -0.3480  0.0009
  719MOL0     C96942  11.534   1.534   2.416 -0.1776 -0.7452 -0.2097
  719MOL0     C96943  11.656   1.466   2.454  0.0386 -1.0787 -0.4205
  719MOL0     C96944  11.755   1.575   2.511  1.3990  0.4428  0.1182
  719MOL0     C96945  11.896   1.516   2.536  0.1740  0.6032  0.9884
  719MOL0     C96946  11.968   1.600   2.642  0.3933  0.3153  1.4706
  719MOL0     N96947  11.970   1.738   2.594 -0.2795  0.2142  0.1217
  719MOL0     C96948  12.038   1.782   2.485 -0.1000  0.3783 -0.3598
  719MOL0     C96949  11.999   1.908   2.475 -0.4165  0.4660 -0.2443
  719MOL0     C96950  12.069   2.001   2.391  0.2157 -1.0331 -0.6104
  719MOL0     C96951  12.011   2.000   2.238  0.6635 -0.4427  0.6614
  719MOL0     C96952  12.006   2.140   2.188  0.0466  0.3863  0.8477
  719MOL0     C96953  12.143   2.171   2.121  0.0527  0.1292  0.0506
  719MOL0     O96954  12.197   2.071   2.028  0.3436 -0.0481 -0.4516
  719MOL0     C96955  12.151   2.061   1.897 -0.1451 -0.4718 -0.9906
  719MOL0     C96956  12.208   1.970   1.808  0.1278  0.6831 -0.4228
  719MOL0     C96957  12.163   1.959   1.675  0.3246 -0.1041 -0.3066
  719MOL0     C96958  12.219   1.845   1.601 -0.3508  0.0425 -0.1959
  719MOL0     C96959  12.062   2.040   1.624  0.3389 -0.0670  0.1620
  719MOL0     C96960  12.025   2.045   1.486  0.1884 -0.2518 -0.3420
  719MOL0     O96961  12.129   2.048   1.394 -0.5246 -0.8475  0.2818
  719MOL0     C96962  12.102   2.024   1.261 -0.2927  0.3833  0.8557
  719MOL0     C96963  11.998   2.082   1.182  0.1405  0.4443 -0.1123
  719MOL0     C96964  11.996   2.069   1.046 -0.8678  0.2528  0.2023
  719MOL0     C96965  12.095   1.990   0.977  0.8257 -0.4546 -0.3891
  719MOL0     O96966  12.088   1.986   0.842 -0.9131 -0.8771  0.3187
  719MOL0     C96967  11.963   1.949   0.786  0.1783  0.3751 -0.1439
  719MOL0     C96968  11.956   1.869   0.643 -0.4155 -0.5059 -0.4909
  719MOL0     C96969  11.995   1.976   0.537 -0.2611 -1.0503  0.0601
  719MOL0     C96970  11.981   1.938   0.391 -0.2859 -0.2729 -0.4948
  719MOL0     C96971  12.043   2.031   0.281 -1.2177 -0.6698 -0.7200
  719MOL0     C96972  12.188   2.044   0.288  0.1762  0.0424 -0.3272
  719MOL0     C96973  12.238   2.163   0.201 -0.0102 -0.2021  0.5609
  719MOL0     C96974  12.385   2.162   0.154  0.1613  0.1015  0.2593
  719MOL0    Cl96975  12.418   2.036   0.038  0.1310 -0.6291  0.5037
  719MOL0     C96976  12.195   1.922   1.050  0.7095 -0.8560  0.2580
  719MOL0     C96977  12.202   1.944   1.188 -1.2574 -0.6898 -1.0577
  719MOL0     O96978  11.906   2.053   1.458  0.4506  0.2447 -0.2145
  719MOL0     C96979  12.002   2.131   1.712  0.7222 -0.5244  0.9214
  719MOL0     C96980  12.043   2.139   1.849 -0.2583  0.0840  0.5495
  719MOL0     N96981  11.905   1.939   2.577  0.0745 -0.2823  0.0611
  719MOL0     N96982  11.886   1.835   2.648  0.3406 -0.6902 -0.1238
  719MOL0     C96983  10.951   1.296   2.157  0.1850  0.5329 -0.6653
  719MOL0     C96984  10.818   1.244   2.115  0.0730 -0.4593 -0.6647
  719MOL0     C96985  10.387   1.165   2.111 -0.0607 -0.7630 -0.0409
  719MOL0     C96986  10.304   1.255   2.039 -0.2822  0.1166  0.3352
  719MOL0     C96987  10.184   1.200   1.986  0.2668  0.1958  0.6455
  719MOL0     C96988  10.130   1.077   2.026  0.6201 -0.0460  0.9911
  719MOL0     O96989  10.011   1.024   1.980 -0.6109  0.5520 -0.3056
  719MOL0     C96990   9.944   1.082   1.866 -0.4009  0.6462 -0.3740
  719MOL0     C96991   9.828   1.172   1.913  0.5014 -0.7717  0.5205
  719MOL0     C96992   9.726   1.194   1.794 -0.1536  0.0458 -0.6659
  719MOL0     C96993   9.757   1.330   1.724  0.3981  0.1963 -0.6488
  719MOL0     C96994   9.655   1.350   1.616  0.0631  0.0848  1.3242
  719MOL0     C96995   9.571   1.335   1.533 -0.3837 -0.9419 -0.3441
  719MOL0     C96996  10.204   0.994   2.107 -0.1104 -0.1244  0.5229
  719MOL0     C96997  10.336   1.037   2.143  0.0064 -0.1042 -0.6106
  719MOL0     H96998  10.649   1.544   2.159  1.3217  0.6551  0.7595
  719MOL0     H96999  10.837   1.613   2.241  0.4415 -0.0483  2.7937
  719MOL0     H97000  11.148   1.374   2.425  2.2229 -2.3129  0.2249
  719MOL0     H97001  11.196   1.319   2.260  1.5187  3.2163 -3.9228
  719MOL0     H97002  11.332   1.527   2.245  3.1290  0.5451  0.7687
  719MOL0     H97003  11.268   1.593   2.394  0.6993 -0.6719  0.8049
  719MOL0     H97004  11.404   1.388   2.501 -1.1752  2.2856  1.3406
  719MOL0     H97005  11.446   1.353   2.344 -1.3848  0.7900 -2.4907
  719MOL0     H97006  11.558   1.572   2.316 -1.1400  0.6415  0.0550
  719MOL0     H97007  11.504   1.616   2.482  0.3569 -1.1286  0.5256
  719MOL0     H97008  11.633   1.388   2.527  2.5119 -2.2951 -0.8383
  719MOL0     H97009  11.705   1.410   2.374 -1.6990 -0.8639 -1.7026
  719MOL0     H97010  11.772   1.656   2.438  1.7734  0.3511  0.0970
  719MOL0     H97011  11.714   1.617   2.603 -0.3277 -1.9624  0.5520
  719MOL0     H97012  11.881   1.419   2.584 -0.4776  1.0960  1.8123
  719MOL0     H97013  11.946   1.513   2.439 -3.3242  1.0412 -1.0318
  719MOL0     H97014  12.067   1.557   2.661 -0.5143 -1.5590  2.2482
  719MOL0     H97015  11.909   1.597   2.735 -0.7992 -1.2954  0.7019
  719MOL0     H97016  12.116   1.735   2.426  1.5364  3.9714 -1.2874
  719MOL0     H97017  12.049   2.101   2.431 -1.2266 -1.2395 -0.7702
  719MOL0     H97018  12.178   1.991   2.380  0.6243  2.3655 -0.7857
  719MOL0     H97019  11.913   1.952   2.245  0.5418 -0.0577  1.8423
  719MOL0     H97020  12.069   1.938   2.168 -1.4115 -1.3104 -0.3674
  719MOL0     H97021  11.981   2.204   2.273  0.5325  1.3017  0.3175
  719MOL0     H97022  11.929   2.163   2.114 -2.5822 -1.6971  2.7964
  719MOL0     H97023  12.219   2.173   2.200 -0.9025  1.2767  0.9773
  719MOL0     H97024  12.145   2.266   2.067 -1.9004 -1.1701 -2.5043
  719MOL0     H97025  12.286   1.900   1.837  1.0267  1.7667 -0.1589
  719MOL0     H97026  12.320   1.825   1.638 -0.1081  2.3533  0.5516
  719MOL0     H97027  12.168   1.749   1.616  0.3800 -0.4524 -0.8413
  719MOL0     H97028  12.236   1.867   1.496 -0.9895 -1.1594 -0.5687
  719MOL0     H97029  11.928   2.144   1.238 -0.7468 -0.5546 -0.0840
  719MOL0     H97030  11.914   2.113   0.990 -1.0772  0.6806  0.8388
  719MOL0     H97031  11.902   1.882   0.847 -2.2021  0.2565 -2.4747
  719MOL0     H97032  11.911   2.044   0.777 -1.6916 -0.2867  2.5732
  719MOL0     H97033  12.035   1.794   0.633 -0.6058 -0.7151 -0.4188
  719MOL0     H97034  11.855   1.830   0.627 -1.0466  1.3234 -1.2216
  719MOL0     H97035  12.101   2.000   0.550 -0.5115  0.5742 -0.6908
  719MOL0     H97036  11.936   2.066   0.554  1.7928  0.6725 -1.4075
  719MOL0     H97037  12.028   1.839   0.389 -2.3812 -1.2947 -1.0776
  719MOL0     H97038  11.877   1.921   0.363  0.0940 -1.7041 -1.1007
  719MOL0     H97039  11.988   2.122   0.308 -0.5932 -0.3444 -0.5135
  719MOL0     H97040  12.020   1.997   0.180  0.3579 -0.4949 -1.1669
  719MOL0     H97041  12.219   2.037   0.393 -0.4411 -3.7446 -0.2455
  719MOL0     H97042  12.229   1.948   0.254 -1.4700 -0.4833 -0.9560
  719MOL0     H97043  12.212   2.254   0.255 -1.8554  0.2980 -1.0560
  719MOL0     H97044  12.176   2.177   0.112  0.3659  1.6619  0.5433
  719MOL0     H97045  12.453   2.157   0.239  2.4683  0.0289 -1.5023
  719MOL0     H97046  12.404   2.258   0.105  0.3672 -0.0549  0.0315
  719MOL0     H97047  12.252   1.845   1.000  2.1475  0.2125  0.1990
  719MOL0     H97048  12.277   1.891   1.246 -2.7877 -0.9241  0.7939
  719MOL0     H97049  11.929   2.204   1.680  0.4137 -2.2630 -2.8193
  719MOL0     H97050  11.973   2.203   1.902  0.4610  2.4620 -1.1725
  719MOL0     H97051  11.038   1.232   2.156 -0.3248 -0.2096  0.1066
  719MOL0     H97052  10.801   1.151   2.063 -0.0454  0.4179 -2.2654
  719MOL0     H97053  10.341   1.354   2.016  1.0388 -0.5576 -0.5984
  719MOL0     H97054  10.139   1.248   1.900  3.0276 -1.7266 -2.0638
  719MOL0     H97055  10.018   1.122   1.796  0.0221 -0.1744 -0.3986
  719MOL0     H97056   9.899   1.001   1.809  0.5695 -0.2888  0.1414
  719MOL0     H97057   9.856   1.273   1.943 -4.4948  1.6935 -1.7196
  719MOL0     H97058   9.773   1.126   1.996 -2.2767 -0.4992 -1.0168
  719MOL0     H97059   9.622   1.205   1.826 -1.1490 -1.3531 -3.1415
  719MOL0     H97060   9.737   1.107   1.729  2.2829 -1.5169  1.6416
  719MOL0     H97061   9.857   1.323   1.679  1.8508  0.0169  2.3548
  719MOL0     H97062   9.759   1.418   1.789  1.4787 -0.5384  0.3486
  719MOL0     H97063   9.492   1.309   1.465  0.0074 -2.5368 -0.2261
  719MOL0     H97064  10.169   0.899   2.146  0.0361 -0.4377 -0.0971
  719MOL0     H97065  10.405   0.972   2.195 -1.5036 -1.1830  0.1292
  720MOL0     O97066   4.701   3.934  10.001  0.2211 -0.4183  0.6372
  720MOL0     C97067   4.756   3.934   9.886  0.1530 -0.1048 -0.3496
  720MOL0     O97068   4.698   3.904   9.773 -0.2182  0.9234  0.0068
  720MOL0     C97069   4.575   3.869   9.782  0.1164 -0.3110  0.0600
  720MOL0     C97070   4.539   3.733   9.787 -0.2379  0.5197 -0.6752
  720MOL0     C97071   4.402   3.690   9.780  0.7024  1.1960  1.5248
  720MOL0     C97072   4.301   3.791   9.779 -0.4995 -0.1649  0.3870
  720MOL0     O97073   4.165   3.776   9.768 -0.2967 -0.1218 -0.5498
  720MOL0     C97074   4.112   3.640   9.756 -0.4976 -0.4521 -0.0960
  720MOL0     C97075   3.962   3.643   9.723  0.5208  0.6424 -1.5949
  720MOL0     C97076   3.927   3.716   9.596  0.4618 -0.4066  0.3282
  720MOL0     C97077   3.783   3.687   9.552  0.0399  0.3574 -0.9572
  720MOL0     C97078   3.686   3.756   9.639  0.4345  0.7154 -1.4944
  720MOL0     C97079   3.541   3.731   9.600  0.0659 -0.0810 -0.4102
  720MOL0     C97080   3.458   3.799   9.713  1.0645  0.3787  0.9566
  720MOL0     C97081   3.346   3.711   9.782  0.8317 -0.2432 -0.3178
  720MOL0     N97082   3.417   3.615   9.861  0.6391 -0.0874  1.2977
  720MOL0     C97083   3.450   3.628   9.988 -0.7428  0.1269 -0.5438
  720MOL0     C97084   3.517   3.511  10.027 -0.2035  0.7679  0.1585
  720MOL0     C97085   3.569   3.465  10.153  0.7304 -0.4696 -0.0660
  720MOL0     C97086   3.717   3.518  10.166  0.4629  0.6377  0.4914
  720MOL0     C97087   3.809   3.455  10.052 -0.0245 -0.1284  0.5143
  720MOL0     C97088   3.959   3.459  10.087 -0.1496 -0.3451  0.0077
  720MOL0     O97089   4.004   3.471  10.222  0.2830  0.0427  0.3225
  720MOL0     C97090   4.123   3.411  10.243 -0.2159 -0.2938 -0.0970
  720MOL0     C97091   4.121   3.304  10.323 -0.9284  0.9365  0.5698
  720MOL0     C97092   4.235   3.251  10.369 -0.0348 -0.4400  0.2305
  720MOL0     C97093   4.229   3.141  10.458  0.6668  0.2951 -0.9539
  720MOL0     C97094   4.369   3.305  10.339 -0.0648  0.0132  0.0346
  720MOL0     C97095   4.505   3.273  10.391  0.8038  0.4744 -0.7344
  720MOL0     O97096   4.577   3.370  10.429 -0.5068 -0.3804 -0.3813
  720MOL0     C97097   4.709   3.361  10.465  0.6302  0.3029 -0.0653
  720MOL0     C97098   4.743   3.290  10.573  0.0807 -0.1824 -0.0862
  720MOL0     C97099   4.868   3.297  10.625  0.4370  0.8605 -0.2159
  720MOL0     C97100   4.968   3.369  10.553  0.3856  0.1101  0.6250
  720MOL0     O97101   5.089   3.356  10.612  0.2786  0.3024  0.1570
  720MOL0     C97102   5.194   3.436  10.554 -0.6475 -0.6084  0.0602
  720MOL0     C97103   5.193   3.587  10.591  0.2182  0.1198 -0.9860
  720MOL0     C97104   5.244   3.610  10.733 -0.5772 -0.6458 -0.4663
  720MOL0     C97105   5.124   3.621  10.835  0.0660 -0.3222  0.3962
  720MOL0     C97106   5.183   3.645  10.979  0.4072 -0.0808  0.1362
  720MOL0     C97107   5.259   3.776  11.005  0.2184  0.7017 -0.0625
  720MOL0     C97108   5.176   3.899  10.994 -0.8861  0.7126 -0.8311
  720MOL0     C97109   5.271   4.015  10.962  0.3874 -0.0968  0.5045
  720MOL0    Cl97110   5.381   4.049  11.108  0.3745  0.1266  0.2103
  720MOL0     C97111   4.933   3.426  10.435  0.5090 -1.0263  0.0488
  720MOL0     C97112   4.802   3.430  10.394  0.9054  0.1346 -0.8760
  720MOL0     O97113   4.543   3.150  10.378  0.5854 -0.2537  0.5459
  720MOL0     C97114   4.361   3.411  10.242  0.3779 -0.9578 -0.3865
  720MOL0     C97115   4.244   3.462  10.196 -0.0049 -0.1421  0.5187
  720MOL0     N97116   3.510   3.428   9.918 -0.1441  0.6825 -0.0347
  720MOL0     N97117   3.454   3.490   9.818 -0.3882 -0.2200  0.5884
  720MOL0     C97118   4.344   3.923   9.765  0.4943 -0.1522  0.3693
  720MOL0     C97119   4.480   3.965   9.771  0.5234 -0.4534  0.4092
  720MOL0     C97120   4.890   3.998   9.879 -0.4745 -0.4786 -0.5150
  720MOL0     C97121   4.927   4.080   9.767  0.5139 -0.0930 -0.7780
  720MOL0     C97122   5.055   4.141   9.764  0.4650 -0.2534  0.6271
  720MOL0     C97123   5.149   4.122   9.870  0.9585  0.2489 -0.9230
  720MOL0     O97124   5.273   4.181   9.882 -0.1259  0.3284  0.6478
  720MOL0     C97125   5.293   4.319   9.840 -0.5530 -0.1481 -0.0798
  720MOL0     C97126   5.442   4.359   9.863  0.2951  0.0149 -0.6801
  720MOL0     C97127   5.458   4.505   9.844  0.6750  0.6276 -0.5425
  720MOL0     C97128   5.605   4.531   9.835 -0.1704  0.0615  0.1108
  720MOL0     C97129   5.644   4.665   9.787 -0.0969 -0.2034 -0.6149
  720MOL0     C97130   5.662   4.776   9.755  0.4218 -0.2506 -0.6843
  720MOL0     C97131   5.108   4.037   9.969 -0.8924 -0.4677  0.7469
  720MOL0     C97132   4.984   3.964   9.974 -0.3945 -0.9978 -1.2245
  720MOL0     H97133   4.616   3.657   9.793 -0.9214 -0.0724  1.3666
  720MOL0     H97134   4.373   3.586   9.776  2.2699  0.5845 -4.7061
  720MOL0     H97135   4.158   3.597   9.666 -2.3906  0.8291 -1.7758
  720MOL0     H97136   4.133   3.583   9.846  0.1549 -2.0860 -1.2405
  720MOL0     H97137   3.933   3.538   9.718 -2.0664  1.1557  0.2976
  720MOL0     H97138   3.917   3.673   9.818  0.7961 -3.0046 -0.1492
  720MOL0     H97139   3.945   3.823   9.610  1.4565 -0.7789  2.3212
  720MOL0     H97140   3.984   3.664   9.518 -1.8548  2.1276 -3.3913
  720MOL0     H97141   3.766   3.725   9.451  2.7963 -0.5817 -1.8477
  720MOL0     H97142   3.755   3.581   9.554 -0.2137  0.4042 -1.6375
  720MOL0     H97143   3.701   3.715   9.739 -0.5744  2.4763 -0.5865
  720MOL0     H97144   3.703   3.864   9.644  2.4820  0.4436 -1.7184
  720MOL0     H97145   3.517   3.771   9.501 -0.2639 -0.6266 -0.5540
  720MOL0     H97146   3.538   3.622   9.593  1.3105 -0.1868  0.2551
  720MOL0     H97147   3.520   3.851   9.787 -0.3285 -0.0070  2.4661
  720MOL0     H97148   3.395   3.877   9.668 -2.4215 -1.8432  1.5865
  720MOL0     H97149   3.280   3.653   9.716 -1.1166  1.4181  0.0671
  720MOL0     H97150   3.291   3.779   9.848  0.7704 -0.9322  0.3595
  720MOL0     H97151   3.430   3.718  10.045  1.7086  0.7576 -0.5820
  720MOL0     H97152   3.516   3.496  10.243  1.4002  0.0904  0.1503
  720MOL0     H97153   3.559   3.356  10.156 -2.9877 -0.4516 -3.7903
  720MOL0     H97154   3.763   3.474  10.255  1.5744  1.0890  0.1435
  720MOL0     H97155   3.708   3.627  10.161  2.0587  0.8506  1.6330
  720MOL0     H97156   3.800   3.514   9.960  1.2772 -4.8245 -3.0105
  720MOL0     H97157   3.766   3.356  10.034 -0.8087  0.1226  0.9466
  720MOL0     H97158   4.015   3.524  10.020 -0.2243 -1.6791 -1.4047
  720MOL0     H97159   3.996   3.362  10.050 -2.5722 -1.7945  1.1147
  720MOL0     H97160   4.023   3.266  10.352  0.8149 -2.1603  2.8981
  720MOL0     H97161   4.141   3.077  10.443  1.3530 -1.1395  0.7819
  720MOL0     H97162   4.313   3.073  10.440 -1.0923 -3.0283  2.1235
  720MOL0     H97163   4.243   3.168  10.563  2.9548 -4.0512  0.1164
  720MOL0     H97164   4.672   3.224  10.623 -0.6696 -0.4592 -1.4843
  720MOL0     H97165   4.894   3.234  10.709 -0.3147 -1.8075 -1.8411
  720MOL0     H97166   5.289   3.390  10.579 -2.4513 -4.0501  1.1954
  720MOL0     H97167   5.191   3.416  10.447  1.2939 -0.0844 -0.1236
  720MOL0     H97168   5.261   3.646  10.528 -0.7882  2.2083 -0.2123
  720MOL0     H97169   5.093   3.626  10.574  1.2311  2.5944 -1.8269
  720MOL0     H97170   5.317   3.690  10.749  2.6921 -3.2480 -1.2540
  720MOL0     H97171   5.302   3.524  10.767 -1.5064 -0.5813  1.3810
  720MOL0     H97172   5.057   3.704  10.809  2.3653  1.3377 -0.5765
  720MOL0     H97173   5.064   3.530  10.825 -2.5783  1.0718  2.1340
  720MOL0     H97174   5.244   3.563  11.017 -3.2214 -2.2028  1.9409
  720MOL0     H97175   5.099   3.647  11.049  0.4068 -2.1185  0.2545
  720MOL0     H97176   5.301   3.769  11.106 -1.5850 -3.2619  0.6307
  720MOL0     H97177   5.348   3.779  10.942  1.4030 -2.1732  1.2742
  720MOL0     H97178   5.120   3.918  11.086  3.3223  4.3589  1.3882
  720MOL0     H97179   5.103   3.898  10.912  0.7219  1.5421 -2.3366
  720MOL0     H97180   5.210   4.103  10.943  0.5961  0.1139  0.8018
  720MOL0     H97181   5.321   4.001  10.866 -0.3863  2.3846 -0.3179
  720MOL0     H97182   4.999   3.463  10.357  1.6466 -0.4251  1.2535
  720MOL0     H97183   4.782   3.493  10.309  0.6567 -1.7062 -2.2299
  720MOL0     H97184   4.446   3.467  10.204  0.9385 -0.3591  1.6387
  720MOL0     H97185   4.252   3.549  10.131 -0.4001 -2.6159 -3.1671
  720MOL0     H97186   4.276   4.006   9.775  0.0417 -0.6039  1.1608
  720MOL0     H97187   4.498   4.072   9.771 -0.8142 -0.1715 -1.3371
  720MOL0     H97188   4.858   4.099   9.686 -0.8247 -0.5981  0.1989
  720MOL0     H97189   5.082   4.216   9.689  1.4982 -1.8682 -0.6842
  720MOL0     H97190   5.267   4.327   9.734 -1.4104  0.3818  0.1632
  720MOL0     H97191   5.225   4.386   9.893 -3.4491 -2.5164 -0.5607
  720MOL0     H97192   5.502   4.297   9.795  2.8401  0.5254  0.9665
  720MOL0     H97193   5.486   4.318   9.954  2.0336 -0.9976 -1.9064
  720MOL0     H97194   5.420   4.563   9.929  1.7020 -0.6120  0.7955
  720MOL0     H97195   5.406   4.528   9.750  2.5314 -0.6724 -1.9613
  720MOL0     H97196   5.666   4.470   9.768  0.9217 -0.1623  1.2727
  720MOL0     H97197   5.646   4.518   9.935 -2.0316  0.5610  0.9584
  720MOL0     H97198   5.692   4.876   9.731 -0.6014  1.3306  3.6994
  720MOL0     H97199   5.168   4.010  10.055  0.1128 -1.5000 -0.2473
  720MOL0     H97200   4.962   3.898  10.057  0.2713  1.9134  1.4604
  721MOL0     O97201   3.709   4.959  10.283 -0.9485 -0.0304  0.1766
  721MOL0     C97202   3.622   4.996  10.203 -0.1876 -0.2173  0.5250
  721MOL0     O97203   3.562   5.121  10.196 -0.0052  0.3203 -0.0132
  721MOL0     C97204   3.600   5.202  10.298 -0.0741  0.9602  0.4915
  721MOL0     C97205   3.719   5.255  10.286 -0.2586  0.6711  0.1288
  721MOL0     C97206   3.772   5.340  10.388 -0.3839 -0.6300 -0.2481
  721MOL0     C97207   3.702   5.348  10.512 -0.0316 -0.6421  0.7954
  721MOL0     O97208   3.742   5.426  10.611 -0.2664 -0.2560  0.0912
  721MOL0     C97209   3.794   5.558  10.566 -0.0144  0.8449  0.3191
  721MOL0     C97210   3.756   5.655  10.679  0.3633  0.8586  0.2297
  721MOL0     C97211   3.599   5.661  10.674 -0.0603 -0.5255 -0.0926
  721MOL0     C97212   3.547   5.762  10.776 -0.8453 -0.0774  0.3216
  721MOL0     C97213   3.401   5.748  10.815 -0.8093  0.6107 -0.6505
  721MOL0     C97214   3.296   5.739  10.713 -0.0610 -0.7399 -0.7709
  721MOL0     C97215   3.268   5.870  10.641  0.2798 -0.1345 -0.9418
  721MOL0     C97216   3.146   5.846  10.552  0.9037 -0.2315  0.8767
  721MOL0     N97217   3.156   5.724  10.464 -0.3447  0.6642 -0.8305
  721MOL0     C97218   3.261   5.696  10.379 -0.3557  0.4913  0.1574
  721MOL0     C97219   3.237   5.563  10.348 -0.0285 -0.7714  0.0913
  721MOL0     C97220   3.339   5.478  10.279  0.6784 -0.6015  0.5705
  721MOL0     C97221   3.331   5.505  10.130 -0.0248  0.0804 -0.1422
  721MOL0     C97222   3.401   5.394  10.048 -0.1837 -0.0033  0.4566
  721MOL0     C97223   3.366   5.409   9.896  0.6966 -0.0898 -0.1533
  721MOL0     O97224   3.447   5.323   9.816  0.1690 -0.7117 -0.7327
  721MOL0     C97225   3.452   5.351   9.684 -0.2864  0.0674 -0.4184
  721MOL0     C97226   3.349   5.408   9.607 -0.1057  0.0186  0.8955
  721MOL0     C97227   3.359   5.429   9.469  0.6555 -1.2871  0.4700
  721MOL0     C97228   3.235   5.483   9.395  0.2283  0.1122  0.0008
  721MOL0     C97229   3.485   5.393   9.407 -0.1383  0.1450 -0.2073
  721MOL0     C97230   3.504   5.415   9.271 -0.8421 -0.3125  0.0902
  721MOL0     O97231   3.579   5.529   9.231  0.0281  0.8923 -0.3370
  721MOL0     C97232   3.638   5.528   9.110  0.9337  0.0124  0.5601
  721MOL0     C97233   3.766   5.474   9.096  0.1533  0.9886  0.3581
  721MOL0     C97234   3.830   5.465   8.977 -0.9533 -0.9455  0.4667
  721MOL0     C97235   3.774   5.512   8.858 -0.7253 -0.4574  0.2699
  721MOL0     O97236   3.857   5.510   8.748  0.3766  0.4274 -0.1053
  721MOL0     C97237   3.785   5.497   8.618 -0.0482  0.3969 -1.3351
  721MOL0     C97238   3.870   5.541   8.495 -0.6003  0.5000  0.0711
  721MOL0     C97239   3.953   5.667   8.526  0.1950  0.6926  0.4446
  721MOL0     C97240   3.870   5.787   8.568  0.1152  0.6487 -0.1536
  721MOL0     C97241   3.954   5.909   8.563 -0.0451  0.5015 -0.2389
  721MOL0     C97242   3.942   5.984   8.438 -0.1995 -0.5545 -0.1822
  721MOL0     C97243   4.001   6.134   8.435 -0.9507  0.1433 -0.3308
  721MOL0     C97244   3.915   6.227   8.517 -0.3506 -0.0503 -0.8254
  721MOL0    Cl97245   3.745   6.251   8.444 -0.2358  0.4187 -0.1339
  721MOL0     C97246   3.646   5.580   8.863  0.3329  0.5349  0.2593
  721MOL0     C97247   3.576   5.579   8.989 -0.0720  0.0302 -0.9172
  721MOL0     O97248   3.442   5.344   9.196 -0.0896 -0.0561  1.3539
  721MOL0     C97249   3.595   5.333   9.483  0.3123  0.0185 -0.5524
  721MOL0     C97250   3.573   5.315   9.623 -0.0303  0.5742  0.5315
  721MOL0     N97251   3.124   5.519  10.415 -0.2689 -0.4494  0.1993
  721MOL0     N97252   3.073   5.621  10.486  0.6058  0.8137 -0.8665
  721MOL0     C97253   3.580   5.287  10.527  0.8816 -0.2498 -0.1237
  721MOL0     C97254   3.521   5.213  10.418 -0.3369  0.8629 -0.6862
  721MOL0     C97255   3.574   4.895  10.105  0.1934 -0.5972 -0.3945
  721MOL0     C97256   3.522   4.934   9.982  0.1423 -0.3728 -0.3317
  721MOL0     C97257   3.478   4.845   9.883 -0.1136 -1.3157  0.3432
  721MOL0     C97258   3.510   4.708   9.891  0.0370 -0.4606 -0.9418
  721MOL0     O97259   3.473   4.626   9.785 -0.0804  0.1568  0.1204
  721MOL0     C97260   3.559   4.506   9.762  0.8433  0.6983  0.9959
  721MOL0     C97261   3.520   4.439   9.637  1.0740  0.1283  0.1302
  721MOL0     C97262   3.623   4.320   9.618  0.4696 -0.4954  0.5893
  721MOL0     C97263   3.571   4.241   9.510  0.3344 -0.0165 -0.0022
  721MOL0     C97264   3.683   4.185   9.444  0.2572 -0.0069  0.0108
  721MOL0     C97265   3.764   4.128   9.374 -0.1786 -0.3663 -0.5780
  721MOL0     C97266   3.576   4.671  10.012 -0.1022 -0.3858  0.1216
  721MOL0     C97267   3.605   4.764  10.110  0.2729  0.6170  0.6569
  721MOL0     H97268   3.777   5.253  10.195 -2.5065  1.2368 -1.4061
  721MOL0     H97269   3.870   5.384  10.378 -1.2919  1.1985 -1.9469
  721MOL0     H97270   3.902   5.570  10.549 -0.3178  1.9616 -1.0130
  721MOL0     H97271   3.759   5.601  10.472  2.6271  1.2480 -0.5732
  721MOL0     H97272   3.795   5.624  10.776  3.3120  3.0046 -0.1555
  721MOL0     H97273   3.808   5.749  10.658  1.6837 -0.0909 -0.9359
  721MOL0     H97274   3.572   5.698  10.575 -2.8829  1.3568  1.2634
  721MOL0     H97275   3.556   5.561  10.690  2.5184 -2.0041 -1.6681
  721MOL0     H97276   3.604   5.749  10.869 -0.8756  1.5808  0.6100
  721MOL0     H97277   3.571   5.862  10.739 -2.1580 -0.2085 -0.9809
  721MOL0     H97278   3.405   5.656  10.876  2.1082  0.5550 -0.8190
  721MOL0     H97279   3.376   5.820  10.893 -0.8306 -0.8914  0.7981
  721MOL0     H97280   3.338   5.660  10.650  3.2001  0.6052 -0.4553
  721MOL0     H97281   3.212   5.706  10.775  2.8065 -0.3513  3.8058
  721MOL0     H97282   3.246   5.959  10.701 -1.5859 -1.1668  0.0253
  721MOL0     H97283   3.350   5.904  10.577 -0.5068  3.0089 -0.4729
  721MOL0     H97284   3.145   5.931  10.482 -0.9398  0.1804  1.3613
  721MOL0     H97285   3.057   5.848  10.616  1.1908  2.6586  1.3135
  721MOL0     H97286   3.352   5.753  10.362 -1.5204  2.8173  1.1329
  721MOL0     H97287   3.443   5.505  10.299  1.0507 -0.0017 -1.8210
  721MOL0     H97288   3.322   5.373  10.304  1.4639 -0.3108  2.4253
  721MOL0     H97289   3.376   5.603  10.110  1.2069 -0.2075  1.0779
  721MOL0     H97290   3.225   5.503  10.101  0.0458  0.6651 -0.4636
  721MOL0     H97291   3.374   5.292  10.076 -1.3613  0.4482  1.0442
  721MOL0     H97292   3.510   5.388  10.056 -0.1300 -0.7149 -0.6890
  721MOL0     H97293   3.384   5.514   9.871  1.2236  0.1640  1.2131
  721MOL0     H97294   3.262   5.378   9.881  0.5287  0.9354 -1.3030
  721MOL0     H97295   3.251   5.423   9.651 -0.3189  1.1592  0.0768
  721MOL0     H97296   3.228   5.433   9.298  0.7911  0.4251 -0.2059
  721MOL0     H97297   3.148   5.452   9.453  1.7409 -0.5423  2.0437
  721MOL0     H97298   3.230   5.591   9.379 -0.9567  0.0416 -0.1708
  721MOL0     H97299   3.817   5.429   9.181  3.1726  0.9299 -1.3631
  721MOL0     H97300   3.933   5.431   8.968 -0.9576 -0.4459 -2.3908
  721MOL0     H97301   3.752   5.394   8.598 -1.6273  1.2154 -3.2247
  721MOL0     H97302   3.690   5.549   8.628  1.0088  2.0190  1.0719
  721MOL0     H97303   3.934   5.459   8.462 -0.4186 -0.1016  1.8329
  721MOL0     H97304   3.801   5.552   8.410 -3.3174 -0.5107  2.0141
  721MOL0     H97305   4.000   5.690   8.430 -2.3995  0.6878 -0.9102
  721MOL0     H97306   4.037   5.656   8.596  0.2311  1.3725  0.5122
  721MOL0     H97307   3.787   5.799   8.498  0.2776  1.0109 -0.2865
  721MOL0     H97308   3.820   5.773   8.664 -1.3827 -4.2434 -1.3383
  721MOL0     H97309   4.061   5.886   8.567  0.5853  2.8051 -1.8278
  721MOL0     H97310   3.919   5.975   8.643 -2.6290  1.5614 -2.1114
  721MOL0     H97311   3.978   5.921   8.356  3.5932  1.6674 -0.4714
  721MOL0     H97312   3.833   5.986   8.422 -0.8356 -1.3616  3.3282
  721MOL0     H97313   3.989   6.176   8.334  1.1152  2.7489  0.3944
  721MOL0     H97314   4.105   6.131   8.469 -0.3751 -2.1063 -2.0791
  721MOL0     H97315   3.968   6.323   8.520 -1.1695  0.4412 -1.3569
  721MOL0     H97316   3.910   6.201   8.623  1.7053  2.1579 -0.0930
  721MOL0     H97317   3.598   5.623   8.775  4.1986  0.4442 -2.1447
  721MOL0     H97318   3.486   5.639   8.997  0.4347  0.7447 -0.4856
  721MOL0     H97319   3.688   5.308   9.434  0.3171 -0.0739 -0.4977
  721MOL0     H97320   3.650   5.273   9.687  0.9742  0.1394 -0.9239
  721MOL0     H97321   3.523   5.304  10.619  0.6002  2.9179 -0.7759
  721MOL0     H97322   3.427   5.160  10.422  0.3417 -0.2989  1.1811
  721MOL0     H97323   3.488   5.035   9.961  1.7361  0.4324  0.7903
  721MOL0     H97324   3.430   4.874   9.791  0.9077  0.0343  0.1890
  721MOL0     H97325   3.664   4.535   9.749  0.8269  0.7161  0.9030
  721MOL0     H97326   3.538   4.434   9.841 -1.7012 -0.9447 -0.9992
  721MOL0     H97327   3.542   4.516   9.562 -3.2492  1.1161 -0.3561
  721MOL0     H97328   3.416   4.406   9.640  1.1679 -0.1122  2.2772
  721MOL0     H97329   3.634   4.263   9.711  0.7767  0.2757  1.0361
  721MOL0     H97330   3.714   4.372   9.587  1.8810 -2.1156  1.8393
  721MOL0     H97331   3.526   4.309   9.437 -0.8336 -0.2684  0.4627
  721MOL0     H97332   3.499   4.169   9.550 -0.1582  0.6046  0.2474
  721MOL0     H97333   3.837   4.075   9.316  2.6013  3.6805 -1.2453
  721MOL0     H97334   3.582   4.566  10.039 -4.2334 -1.2001 -1.3581
  721MOL0     H97335   3.652   4.729  10.201 -1.0041 -0.0898  1.0788
  722MOL0     O97336   2.885   0.621   5.964 -1.0107  0.5701  0.9119
  722MOL0     C97337   2.908   0.666   6.075  0.3588 -0.5763  0.3700
  722MOL0     O97338   2.824   0.741   6.141  0.3564  0.5140  0.4647
  722MOL0     C97339   2.699   0.767   6.085 -0.1673  0.9227 -0.3897
  722MOL0     C97340   2.683   0.817   5.958 -0.9775 -0.2263 -0.1230
  722MOL0     C97341   2.556   0.844   5.896 -1.0904  0.0875  0.1837
  722MOL0     C97342   2.443   0.803   5.969 -0.2830  0.5042 -0.5169
  722MOL0     O97343   2.319   0.820   5.911  0.2919  0.0787  0.0031
  722MOL0     C97344   2.295   0.935   5.827 -0.3590  0.2583 -1.0717
  722MOL0     C97345   2.145   0.942   5.810  0.1281  0.5218  0.2114
  722MOL0     C97346   2.078   1.000   5.686  0.8026  0.0960  0.0150
  722MOL0     C97347   1.921   0.983   5.695  0.3536  0.4731 -0.3716
  722MOL0     C97348   1.850   1.058   5.580  0.2776  0.3093  0.4679
  722MOL0     C97349   1.697   1.016   5.572  0.2436 -0.0933  0.5150
  722MOL0     C97350   1.630   1.078   5.445  1.2374  0.3154 -0.9355
  722MOL0     C97351   1.490   1.008   5.435  0.2294 -0.8058 -0.3305
  722MOL0     N97352   1.398   1.069   5.332 -0.0067  0.4040 -0.0590
  722MOL0     C97353   1.306   1.161   5.365  0.0061 -0.2849  0.5275
  722MOL0     C97354   1.234   1.191   5.255 -0.4045  0.2640 -0.2718
  722MOL0     C97355   1.125   1.301   5.253 -0.0434  0.2755 -0.3308
  722MOL0     C97356   1.168   1.445   5.274  0.7615 -0.2606 -0.0692
  722MOL0     C97357   1.244   1.509   5.156 -0.7505 -0.2809 -0.9685
  722MOL0     C97358   1.287   1.657   5.184 -0.8104  0.8181 -0.3797
  722MOL0     O97359   1.177   1.752   5.167 -0.4059  1.4375 -0.1568
  722MOL0     C97360   1.205   1.881   5.194  0.5178  0.1032  0.3723
  722MOL0     C97361   1.186   1.920   5.328 -1.3035 -0.5169  0.4904
  722MOL0     C97362   1.198   2.048   5.371 -0.4042  0.1414 -0.7264
  722MOL0     C97363   1.170   2.080   5.517 -0.4354 -1.0874 -0.5185
  722MOL0     C97364   1.244   2.148   5.272  1.1065  1.0397 -0.1413
  722MOL0     C97365   1.230   2.300   5.289 -0.4641 -0.0411 -0.7531
  722MOL0     O97366   1.300   2.373   5.201 -0.2201  0.3551 -0.5405
  722MOL0     C97367   1.312   2.512   5.225  0.2501 -0.3502  0.6020
  722MOL0     C97368   1.441   2.566   5.209  0.2717  0.4434  0.9966
  722MOL0     C97369   1.460   2.707   5.233 -0.4543  0.8222  0.9698
  722MOL0     C97370   1.355   2.785   5.271  0.5318 -0.0108 -0.4374
  722MOL0     O97371   1.398   2.916   5.297  0.1549  0.4401  0.4396
  722MOL0     C97372   1.314   3.036   5.290 -0.7571 -0.0732  0.2121
  722MOL0     C97373   1.377   3.143   5.375 -0.9118 -0.0655 -0.3159
  722MOL0     C97374   1.279   3.252   5.397  0.2660 -0.3616  0.2366
  722MOL0     C97375   1.352   3.365   5.469  0.2061  0.4979 -0.3495
  722MOL0     C97376   1.415   3.463   5.369 -0.2205 -0.0049 -0.2294
  722MOL0     C97377   1.497   3.560   5.458  0.2462 -0.2556 -0.0526
  722MOL0     C97378   1.558   3.672   5.388 -0.7166  0.0511  0.7985
  722MOL0     C97379   1.686   3.726   5.454  0.9045 -0.9717 -0.6567
  722MOL0    Cl97380   1.829   3.739   5.358  0.3139 -0.0242  0.2936
  722MOL0     C97381   1.224   2.728   5.286  0.5250  0.2094  0.6926
  722MOL0     C97382   1.201   2.595   5.267 -0.6796  0.8033  0.3614
  722MOL0     O97383   1.169   2.341   5.388  0.2036  0.0055 -0.1734
  722MOL0     C97384   1.267   2.105   5.144  0.9485  0.8683  0.3522
  722MOL0     C97385   1.258   1.973   5.106  0.4876  0.2482 -0.0016
  722MOL0     N97386   1.278   1.109   5.152 -0.3247 -0.0272 -0.4027
  722MOL0     N97387   1.375   1.032   5.205 -1.0002 -0.5202  0.3985
  722MOL0     C97388   2.453   0.735   6.091 -0.6343  0.1840 -0.4734
  722MOL0     C97389   2.577   0.723   6.156 -0.6800  0.1114  0.3142
  722MOL0     C97390   3.034   0.614   6.136 -0.0151 -0.7710 -0.1855
  722MOL0     C97391   3.064   0.644   6.267  0.1233  0.4371 -0.8715
  722MOL0     C97392   3.189   0.622   6.326  0.6615 -0.3879  0.3220
  722MOL0     C97393   3.285   0.559   6.255 -0.3437  0.4274 -0.0304
  722MOL0     O97394   3.411   0.524   6.296  0.9204 -0.7359  0.9871
  722MOL0     C97395   3.468   0.551   6.423 -0.2981  0.0858 -0.0219
  722MOL0     C97396   3.518   0.687   6.455 -0.2755  0.9566  0.7349
  722MOL0     C97397   3.620   0.721   6.358 -1.4349  0.2639  0.5439
  722MOL0     C97398   3.673   0.866   6.386 -0.5260 -0.6173 -0.2188
  722MOL0     C97399   3.773   0.909   6.288 -0.0865  0.3994 -0.3383
  722MOL0     C97400   3.845   0.960   6.203 -0.1909  1.1248 -0.2189
  722MOL0     C97401   3.260   0.520   6.116 -0.4472  0.2113  0.1194
  722MOL0     C97402   3.135   0.541   6.059 -0.0551 -0.3793 -0.1399
  722MOL0     H97403   2.771   0.832   5.896  0.8371 -3.2322  1.4517
  722MOL0     H97404   2.559   0.901   5.804  4.2871  0.0880  0.0770
  722MOL0     H97405   2.327   1.022   5.886  0.4533 -1.6069  1.4524
  722MOL0     H97406   2.353   0.935   5.735 -0.0027  3.7859 -0.9829
  722MOL0     H97407   2.105   0.840   5.819 -0.9551  0.8912 -0.3189
  722MOL0     H97408   2.112   0.991   5.901  0.1752  1.5234 -0.3039
  722MOL0     H97409   2.102   1.106   5.671  3.5331 -0.5145 -0.5059
  722MOL0     H97410   2.112   0.951   5.594  3.6376 -0.6625  1.3354
  722MOL0     H97411   1.903   0.875   5.693  0.9524  0.2939 -4.5287
  722MOL0     H97412   1.891   1.025   5.791  3.6067 -0.6176  1.2891
  722MOL0     H97413   1.856   1.167   5.590  1.9170  0.3911 -0.8819
  722MOL0     H97414   1.907   1.035   5.489  0.8331 -3.0096  1.5367
  722MOL0     H97415   1.708   0.908   5.557 -0.5689 -0.8077  4.0375
  722MOL0     H97416   1.646   1.036   5.667  1.8889  1.6091  1.0972
  722MOL0     H97417   1.603   1.182   5.467 -1.8671 -0.7939  1.2895
  722MOL0     H97418   1.694   1.057   5.359  3.0716 -2.7126  1.0080
  722MOL0     H97419   1.437   1.014   5.531 -2.7532  0.7916 -1.9669
  722MOL0     H97420   1.517   0.906   5.405 -1.4056 -1.7427  1.1469
  722MOL0     H97421   1.295   1.210   5.462 -2.2836  1.5477 -0.5542
  722MOL0     H97422   1.075   1.305   5.156 -0.2129  0.6787 -0.2318
  722MOL0     H97423   1.060   1.279   5.338 -0.1501  0.3287 -0.3976
  722MOL0     H97424   1.222   1.459   5.368 -1.6335  0.2966  1.3267
  722MOL0     H97425   1.080   1.510   5.280 -0.4169 -1.8779  1.4383
  722MOL0     H97426   1.182   1.506   5.066  0.2561 -0.2959 -1.6804
  722MOL0     H97427   1.329   1.444   5.131  0.3921  0.3482  1.0673
  722MOL0     H97428   1.366   1.697   5.120 -0.1308  1.5120  0.8512
  722MOL0     H97429   1.322   1.665   5.287 -1.0129 -0.6117 -0.1710
  722MOL0     H97430   1.166   1.834   5.391 -1.5760 -2.6662 -2.3751
  722MOL0     H97431   1.078   2.138   5.530  1.7387  1.9646  4.3741
  722MOL0     H97432   1.152   1.993   5.580 -1.8354 -0.4436  0.0114
  722MOL0     H97433   1.244   2.146   5.564 -1.7299  0.5967 -0.7467
  722MOL0     H97434   1.519   2.507   5.163 -1.1002  1.1432 -2.5985
  722MOL0     H97435   1.558   2.753   5.235 -1.9257  4.4136  4.9750
  722MOL0     H97436   1.317   3.069   5.185 -0.7055 -0.3724  0.1184
  722MOL0     H97437   1.207   3.029   5.313 -1.3485  1.9539 -1.5946
  722MOL0     H97438   1.419   3.096   5.464 -3.7093 -2.4690 -0.1104
  722MOL0     H97439   1.457   3.191   5.319  1.0992 -0.5706  1.9768
  722MOL0     H97440   1.211   3.221   5.476  0.9484  3.0927  2.4025
  722MOL0     H97441   1.227   3.282   5.306  0.5831 -1.1618 -0.2177
  722MOL0     H97442   1.278   3.415   5.531 -0.7474  2.2281 -2.7242
  722MOL0     H97443   1.429   3.314   5.528 -0.0602 -3.3617 -2.9166
  722MOL0     H97444   1.350   3.525   5.308  1.5144  0.7772 -1.3632
  722MOL0     H97445   1.494   3.407   5.318  0.6809 -0.3122  1.4221
  722MOL0     H97446   1.429   3.593   5.536  1.9239  0.6178  1.1164
  722MOL0     H97447   1.571   3.501   5.513 -0.8692 -1.6393  0.0266
  722MOL0     H97448   1.495   3.760   5.371  3.6935  2.9316 -2.9251
  722MOL0     H97449   1.586   3.629   5.291  0.9390 -1.4799  1.8986
  722MOL0     H97450   1.714   3.678   5.549 -2.7377 -1.0242  0.5738
  722MOL0     H97451   1.662   3.829   5.480  2.3992 -1.3494  2.7858
  722MOL0     H97452   1.140   2.786   5.325 -1.9023 -0.1417 -3.4456
  722MOL0     H97453   1.102   2.552   5.278  0.3823 -2.4449 -1.5650
  722MOL0     H97454   1.288   2.176   5.064  0.4428  0.7913  0.1430
  722MOL0     H97455   1.261   1.968   4.998  2.4774  0.1643  0.0209
  722MOL0     H97456   2.360   0.689   6.124  0.1032 -2.1896 -1.4351
  722MOL0     H97457   2.586   0.667   6.248 -0.5912 -0.8906 -0.2923
  722MOL0     H97458   2.985   0.701   6.317 -0.4187 -0.4159 -0.7340
  722MOL0     H97459   3.203   0.666   6.424 -3.1465  0.1872  0.7478
  722MOL0     H97460   3.394   0.532   6.502  2.4483 -2.3418  2.2016
  722MOL0     H97461   3.545   0.474   6.437  1.1015  1.0779 -1.8776
  722MOL0     H97462   3.558   0.693   6.556 -0.4733 -0.0942  0.8893
  722MOL0     H97463   3.441   0.764   6.443 -0.3693  0.9142  1.0589
  722MOL0     H97464   3.588   0.724   6.253  0.4384  3.8886 -0.0743
  722MOL0     H97465   3.712   0.662   6.365  0.1002  1.6322 -4.1795
  722MOL0     H97466   3.720   0.865   6.485 -1.7006  0.0502  0.3722
  722MOL0     H97467   3.590   0.938   6.386 -0.0881 -0.0807  1.0161
  722MOL0     H97468   3.906   0.993   6.121 -1.0468  2.8852 -0.1993
  722MOL0     H97469   3.342   0.475   6.061  0.5381  1.8985  0.1360
  722MOL0     H97470   3.126   0.529   5.952  0.4913  0.5941 -0.3089
  723MOL0     O97471   9.881   3.723   8.034 -1.0407 -0.5172 -0.3891
  723MOL0     C97472   9.919   3.832   7.985 -0.5205 -0.6440  0.4429
  723MOL0     O97473   9.853   3.907   7.891  0.5217  0.4725 -0.1886
  723MOL0     C97474   9.725   3.865   7.858  0.5289  0.1815 -0.1941
  723MOL0     C97475   9.692   3.823   7.728 -0.1591  0.2685  0.5171
  723MOL0     C97476   9.565   3.775   7.706  0.2129 -0.3067 -0.6566
  723MOL0     C97477   9.467   3.783   7.802 -0.1690 -0.1818 -0.3790
  723MOL0     O97478   9.343   3.744   7.767 -0.6209  0.4181  1.1160
  723MOL0     C97479   9.251   3.680   7.857  1.0838 -0.7894 -0.3846
  723MOL0     C97480   9.106   3.750   7.886  0.2375 -0.1955 -0.2036
  723MOL0     C97481   9.120   3.897   7.931 -0.1842 -1.0035  0.2619
  723MOL0     C97482   8.979   3.935   7.983 -0.1229  0.3819  0.7941
  723MOL0     C97483   8.967   4.086   8.008 -0.0122 -0.7198  0.2671
  723MOL0     C97484   9.042   4.117   8.137 -0.3583 -0.4539 -0.5839
  723MOL0     C97485   9.035   4.263   8.188  0.5510  0.3135 -0.1349
  723MOL0     C97486   9.146   4.300   8.278 -0.2058  0.5955  0.1174
  723MOL0     N97487   9.123   4.426   8.351  0.2986 -0.6981  0.4587
  723MOL0     C97488   9.098   4.432   8.487 -0.3116  0.2527 -0.0335
  723MOL0     C97489   9.038   4.554   8.500 -0.0013 -0.2405  0.2650
  723MOL0     C97490   8.967   4.599   8.625 -0.4695 -0.3489  0.0581
  723MOL0     C97491   8.812   4.576   8.612 -1.2272 -0.1441 -0.1621
  723MOL0     C97492   8.774   4.430   8.595 -0.1685  1.0268 -0.0557
  723MOL0     C97493   8.789   4.351   8.724 -0.1178  0.0569  0.2585
  723MOL0     O97494   8.932   4.328   8.753  0.5983  0.0580  0.1372
  723MOL0     C97495   8.982   4.224   8.830 -0.0254 -0.6804 -0.1629
  723MOL0     C97496   8.901   4.142   8.910  0.2471 -0.1504  0.1971
  723MOL0     C97497   8.957   4.037   8.983 -0.9702  0.0683  0.3260
  723MOL0     C97498   8.850   3.934   9.030 -0.5134  0.2434 -0.2583
  723MOL0     C97499   9.095   4.022   8.992 -0.1639  0.2571  0.1098
  723MOL0     C97500   9.172   3.929   9.082  0.8767 -0.4488 -0.3774
  723MOL0     O97501   9.300   3.903   9.055 -0.2660  0.0089  0.4796
  723MOL0     C97502   9.360   3.824   9.144  0.4929 -0.0025  0.1512
  723MOL0     C97503   9.361   3.844   9.280 -0.2175 -0.4972 -0.4371
  723MOL0     C97504   9.411   3.748   9.367  0.8322  0.2716 -0.3165
  723MOL0     C97505   9.473   3.635   9.313 -0.2686 -0.0202 -0.9043
  723MOL0     O97506   9.539   3.534   9.385  0.4748 -0.6689 -0.3140
  723MOL0     C97507   9.529   3.531   9.525  0.0160 -0.1110  0.2170
  723MOL0     C97508   9.591   3.409   9.577  0.0083 -1.1479 -0.4210
  723MOL0     C97509   9.569   3.365   9.729 -0.2431  0.1069 -0.5574
  723MOL0     C97510   9.693   3.381   9.816 -0.7016 -0.5342 -0.4278
  723MOL0     C97511   9.682   3.330   9.966 -0.1291  0.4055 -0.3937
  723MOL0     C97512   9.580   3.411  10.043 -0.2096  0.2834  0.2074
  723MOL0     C97513   9.590   3.388  10.193 -0.7985 -0.8992 -0.7034
  723MOL0     C97514   9.732   3.431  10.250  0.1157 -0.3467  0.6976
  723MOL0    Cl97515   9.799   3.582  10.176 -0.1848 -0.5680 -0.0781
  723MOL0     C97516   9.491   3.625   9.172  0.0072  0.2279  0.2478
  723MOL0     C97517   9.411   3.706   9.094 -0.9806  0.2562 -0.2888
  723MOL0     O97518   9.115   3.893   9.184  0.1584 -0.0117 -0.2062
  723MOL0     C97519   9.177   4.105   8.908 -0.1257 -0.2304 -1.5000
  723MOL0     C97520   9.117   4.199   8.825 -0.4743  0.8720 -0.8626
  723MOL0     N97521   9.032   4.623   8.381 -0.5083  0.3314 -0.6088
  723MOL0     N97522   9.079   4.546   8.289  0.0985  0.0335  0.6720
  723MOL0     C97523   9.495   3.835   7.931  0.1651  0.1616  0.8454
  723MOL0     C97524   9.625   3.870   7.962 -0.8003  0.6602 -0.4205
  723MOL0     C97525  10.053   3.873   8.022  0.6727 -0.0995 -0.2113
  723MOL0     C97526  10.142   3.785   8.078 -1.2835  0.7859  0.9441
  723MOL0     C97527  10.267   3.828   8.132 -0.4480 -0.2998  0.5399
  723MOL0     C97528  10.306   3.960   8.103  0.4031 -0.8283 -1.1809
  723MOL0     O97529  10.419   4.022   8.154  0.1914 -0.1790  0.4614
  723MOL0     C97530  10.544   3.966   8.112 -0.4698  0.6795 -0.5741
  723MOL0     C97531  10.640   3.981   8.228  0.9365 -0.0993 -0.7522
  723MOL0     C97532  10.775   3.908   8.220  0.4881  0.1198  0.2483
  723MOL0     C97533  10.870   3.962   8.106 -0.2074  0.2308 -0.2309
  723MOL0     C97534  10.896   4.107   8.106 -0.0451 -0.4376  0.3708
  723MOL0     C97535  10.909   4.230   8.096  0.6556  0.8752 -0.8328
  723MOL0     C97536  10.215   4.042   8.040 -0.6320 -0.4664  0.1284
  723MOL0     C97537  10.087   4.010   8.013  0.5217 -0.4244 -1.1576
  723MOL0     H97538   9.764   3.808   7.648 -1.0664  1.6193 -0.5873
  723MOL0     H97539   9.525   3.736   7.613 -2.3677  0.3572  0.0687
  723MOL0     H97540   9.234   3.586   7.803  1.1350  0.2902 -2.3696
  723MOL0     H97541   9.293   3.642   7.951  0.4971 -1.1678 -0.2728
  723MOL0     H97542   9.038   3.748   7.801 -1.8274 -1.9166  1.3753
  723MOL0     H97543   9.070   3.687   7.968  2.8255 -0.4353  0.8766
  723MOL0     H97544   9.190   3.912   8.014 -1.5416  0.3723  1.2134
  723MOL0     H97545   9.148   3.955   7.844  1.6653 -0.5110  1.1308
  723MOL0     H97546   8.906   3.912   7.905  0.5267  0.6861  0.0880
  723MOL0     H97547   8.963   3.866   8.067  1.4178  1.9486  2.4509
  723MOL0     H97548   9.011   4.144   7.925 -1.7753 -0.9764 -0.9072
  723MOL0     H97549   8.861   4.112   8.016  0.4438  0.8423  2.0968
  723MOL0     H97550   8.987   4.052   8.206 -0.8144 -1.7053 -2.0500
  723MOL0     H97551   9.148   4.090   8.133 -0.9013 -2.8556 -0.4014
  723MOL0     H97552   9.029   4.334   8.105  0.8763  0.5670  0.0539
  723MOL0     H97553   8.937   4.278   8.234  1.3324 -1.2500  2.2550
  723MOL0     H97554   9.242   4.309   8.225  0.3824  2.7214  1.4024
  723MOL0     H97555   9.155   4.214   8.344 -0.4938  0.9931  0.6800
  723MOL0     H97556   9.089   4.348   8.555  1.2717 -1.4593 -1.8288
  723MOL0     H97557   9.010   4.556   8.716 -0.9803 -2.0627 -0.4811
  723MOL0     H97558   8.981   4.708   8.619 -0.1013 -0.4493 -1.5676
  723MOL0     H97559   8.786   4.639   8.526 -1.3365  1.8778  1.3033
  723MOL0     H97560   8.758   4.623   8.694  0.2700 -1.0444  1.4011
  723MOL0     H97561   8.824   4.380   8.513  1.0631 -0.3461  1.4620
  723MOL0     H97562   8.666   4.423   8.579 -0.0384  0.9328 -0.9240
  723MOL0     H97563   8.733   4.257   8.718 -0.3336  0.0411  2.0377
  723MOL0     H97564   8.745   4.412   8.804 -0.4267 -0.7278  0.7046
  723MOL0     H97565   8.793   4.136   8.903  0.3599 -1.7090 -0.5657
  723MOL0     H97566   8.844   3.953   9.137 -1.2782 -0.4733 -0.1667
  723MOL0     H97567   8.753   3.942   8.978  1.4777 -3.0700 -5.2144
  723MOL0     H97568   8.881   3.831   9.012  0.2747  0.3358  0.5345
  723MOL0     H97569   9.313   3.926   9.332  0.3660 -1.4064  1.6289
  723MOL0     H97570   9.387   3.779   9.468 -1.6500 -2.7690  0.1970
  723MOL0     H97571   9.591   3.614   9.561 -0.5269  1.5411 -2.3471
  723MOL0     H97572   9.431   3.557   9.566 -0.7097 -2.2900 -0.0233
  723MOL0     H97573   9.549   3.326   9.520  2.1078 -2.0535 -0.7469
  723MOL0     H97574   9.698   3.418   9.557 -0.3631  1.0541 -1.7187
  723MOL0     H97575   9.534   3.262   9.743 -0.4517  0.3020  0.4751
  723MOL0     H97576   9.483   3.426   9.760 -1.2579 -0.5122 -2.0361
  723MOL0     H97577   9.774   3.326   9.767  0.3668 -1.7539  2.4540
  723MOL0     H97578   9.728   3.484   9.815 -0.6856 -0.0237  6.1493
  723MOL0     H97579   9.783   3.346  10.004 -0.5740  2.7141 -0.0291
  723MOL0     H97580   9.662   3.222   9.966  1.0243  0.0669 -3.7733
  723MOL0     H97581   9.600   3.512  10.006  0.3893  0.0437 -0.1414
  723MOL0     H97582   9.481   3.386  10.003 -0.2769 -2.5356  1.8315
  723MOL0     H97583   9.568   3.281  10.205 -1.3146 -0.7369 -0.1810
  723MOL0     H97584   9.518   3.456  10.237  2.7168  1.4369  1.9790
  723MOL0     H97585   9.807   3.351  10.245 -2.0337 -2.4763  0.4004
  723MOL0     H97586   9.723   3.453  10.357 -2.0380 -1.3367  0.7907
  723MOL0     H97587   9.533   3.531   9.138  0.5772  0.1199  1.2060
  723MOL0     H97588   9.405   3.684   8.988  0.6744  0.8921 -0.5421
  723MOL0     H97589   9.285   4.093   8.903 -0.2740 -1.5768 -1.8827
  723MOL0     H97590   9.180   4.264   8.766 -1.8817  1.9386 -1.2460
  723MOL0     H97591   9.420   3.847   8.009 -0.9595  1.0316 -0.3128
  723MOL0     H97592   9.650   3.890   8.065 -0.4956 -0.9780 -0.1556
  723MOL0     H97593  10.136   3.678   8.095  1.8902  0.3888  0.2506
  723MOL0     H97594  10.337   3.758   8.177  1.7121  1.6053  0.3371
  723MOL0     H97595  10.538   3.860   8.085  2.5884 -0.6240  3.0896
  723MOL0     H97596  10.573   4.012   8.017  0.6041  1.6770  0.2146
  723MOL0     H97597  10.585   3.950   8.317 -0.4750 -1.4183 -2.0259
  723MOL0     H97598  10.664   4.085   8.253 -3.9859  0.8691  1.1882
  723MOL0     H97599  10.752   3.803   8.202 -0.4773  0.1952  0.9684
  723MOL0     H97600  10.830   3.914   8.315 -1.4840  2.1387  1.3787
  723MOL0     H97601  10.819   3.940   8.012 -1.5072  0.1623  0.4645
  723MOL0     H97602  10.961   3.902   8.109 -1.0548 -1.0537  1.8599
  723MOL0     H97603  10.926   4.336   8.096  0.6363  0.9948  2.7031
  723MOL0     H97604  10.247   4.143   8.015 -0.3467 -0.4296  0.6332
  723MOL0     H97605  10.031   4.091   7.967 -0.1662  1.1688  2.1555
  724MOL0     O97606   6.162   3.397   3.649 -0.2336  0.2684  0.4306
  724MOL0     C97607   6.283   3.359   3.635 -0.0426 -0.4076 -0.0392
  724MOL0     O97608   6.329   3.227   3.617  0.4894  0.9340 -0.8263
  724MOL0     C97609   6.230   3.135   3.632 -0.2894  0.3629  0.2681
  724MOL0     C97610   6.180   3.093   3.513 -0.3169  1.1294  0.4528
  724MOL0     C97611   6.079   3.000   3.502 -0.3195 -0.5878  0.9135
  724MOL0     C97612   6.012   2.955   3.620  0.2496 -0.2415 -0.2324
  724MOL0     O97613   5.905   2.867   3.633  0.4145  0.2353  0.3538
  724MOL0     C97614   5.820   2.852   3.511  0.0320  0.5566 -0.6844
  724MOL0     C97615   5.850   2.711   3.456 -0.2153 -0.6058  0.2393
  724MOL0     C97616   5.727   2.645   3.391 -0.0816 -0.0933 -0.2273
  724MOL0     C97617   5.736   2.494   3.365 -0.0572 -0.9865 -0.1323
  724MOL0     C97618   5.601   2.433   3.324 -0.5679  0.0587 -0.0635
  724MOL0     C97619   5.620   2.285   3.272 -0.4096 -0.3265  0.7500
  724MOL0     C97620   5.497   2.244   3.178 -0.0929  0.0750  0.0221
  724MOL0     C97621   5.522   2.135   3.080 -1.0654  0.2669  0.7111
  724MOL0     N97622   5.402   2.068   3.034 -0.2478  0.8353  0.4475
  724MOL0     C97623   5.402   1.942   2.987 -0.6975 -0.2994 -0.2384
  724MOL0     C97624   5.292   1.926   2.916  1.3627  0.6270 -0.3702
  724MOL0     C97625   5.243   1.809   2.840  0.2688  0.8931 -0.6106
  724MOL0     C97626   5.283   1.837   2.690  0.4524 -0.3957 -0.3241
  724MOL0     C97627   5.279   1.712   2.593 -1.0479 -0.3383  0.2895
  724MOL0     C97628   5.134   1.657   2.603  0.0866 -0.2527 -0.0998
  724MOL0     O97629   5.111   1.600   2.480  0.1901 -0.0218 -0.3361
  724MOL0     C97630   4.975   1.550   2.475 -0.3432 -0.0101  0.3477
  724MOL0     C97631   4.951   1.416   2.488 -0.3570 -0.1574  0.1102
  724MOL0     C97632   4.824   1.357   2.473 -0.2469  0.6769 -0.3089
  724MOL0     C97633   4.813   1.223   2.523 -0.0583  0.5062 -0.0445
  724MOL0     C97634   4.716   1.437   2.437 -0.0158  0.6709 -0.1070
  724MOL0     C97635   4.572   1.395   2.411  0.1739  0.7895  0.1637
  724MOL0     O97636   4.481   1.488   2.393 -0.3999  0.2583  0.0841
  724MOL0     C97637   4.350   1.450   2.375  0.1912 -0.5600 -0.5175
  724MOL0     C97638   4.271   1.520   2.283  0.0480  0.0579  0.1681
  724MOL0     C97639   4.130   1.502   2.280  0.2126 -0.0727  0.0224
  724MOL0     C97640   4.066   1.411   2.366 -0.2589  0.4667  0.3548
  724MOL0     O97641   3.931   1.386   2.350 -1.0023  1.0284  0.0283
  724MOL0     C97642   3.866   1.336   2.465 -0.5187 -0.8895  0.1031
  724MOL0     C97643   3.720   1.360   2.433 -0.3862 -1.3225  0.2501
  724MOL0     C97644   3.676   1.286   2.305 -0.9560 -0.1768 -0.4096
  724MOL0     C97645   3.528   1.264   2.281  1.0587  0.3382  0.1848
  724MOL0     C97646   3.488   1.159   2.171  0.1167  0.7331  0.5752
  724MOL0     C97647   3.336   1.150   2.153 -0.1470 -0.4267  0.0307
  724MOL0     C97648   3.282   1.267   2.060 -0.3549 -0.4087  0.0173
  724MOL0     C97649   3.146   1.240   1.998  0.6150  0.4146 -0.1051
  724MOL0    Cl97650   3.026   1.362   2.052  0.0929 -0.2991 -0.2574
  724MOL0     C97651   4.141   1.340   2.461  0.8957  0.0853 -0.2870
  724MOL0     C97652   4.283   1.359   2.464  0.7620  0.1796  0.1984
  724MOL0     O97653   4.551   1.275   2.397 -0.0640 -0.2361  0.4542
  724MOL0     C97654   4.745   1.569   2.419  0.0104 -0.1198  0.0982
  724MOL0     C97655   4.870   1.625   2.435  0.4369  0.4073  0.3316
  724MOL0     N97656   5.216   2.039   2.942  1.3408  0.6616  0.4816
  724MOL0     N97657   5.289   2.126   3.002  0.9877  0.9912  0.2447
  724MOL0     C97658   6.064   3.010   3.738 -0.1050  0.2026 -0.2105
  724MOL0     C97659   6.182   3.089   3.748 -0.6464  0.3558 -0.4524
  724MOL0     C97660   6.382   3.470   3.635 -0.0859 -0.2728  0.3039
  724MOL0     C97661   6.520   3.442   3.654 -0.6643 -0.5634  0.4906
  724MOL0     C97662   6.617   3.537   3.670  0.2032  0.3381  1.0300
  724MOL0     C97663   6.580   3.677   3.660  0.0309  0.2034  0.3924
  724MOL0     O97664   6.670   3.783   3.694 -0.0173 -0.3403 -0.4368
  724MOL0     C97665   6.728   3.759   3.831  0.6167 -1.7056  0.8654
  724MOL0     C97666   6.877   3.733   3.814  0.4840 -0.6477  0.9806
  724MOL0     C97667   6.924   3.686   3.955  0.7924  0.7957  0.2832
  724MOL0     C97668   7.066   3.624   3.951 -0.7033  0.6488 -0.1964
  724MOL0     C97669   7.180   3.721   3.933  1.0915 -0.4169 -0.5013
  724MOL0     C97670   7.276   3.791   3.936 -0.0386  0.4545 -0.0156
  724MOL0     C97671   6.447   3.703   3.621 -0.6692 -0.4487 -1.3107
  724MOL0     C97672   6.351   3.606   3.616  0.2933  0.1112  0.2268
  724MOL0     H97673   6.226   3.124   3.420 -0.5249  1.9701  0.6206
  724MOL0     H97674   6.068   2.972   3.398  2.5405  0.9194  0.1145
  724MOL0     H97675   5.720   2.856   3.555  1.2449  0.3732  2.3033
  724MOL0     H97676   5.837   2.928   3.433  0.1688 -1.7187 -3.0084
  724MOL0     H97677   5.928   2.732   3.382  1.4739  1.8434  2.4981
  724MOL0     H97678   5.894   2.659   3.542 -1.0980 -0.7250  0.6285
  724MOL0     H97679   5.641   2.656   3.458  0.3596  0.5668  0.2442
  724MOL0     H97680   5.703   2.709   3.305  1.2137  3.3730  1.7838
  724MOL0     H97681   5.801   2.481   3.278 -2.8154 -3.2753 -2.0318
  724MOL0     H97682   5.781   2.454   3.456 -0.1915  0.1978  0.4708
  724MOL0     H97683   5.534   2.427   3.411  0.2539  0.6426  0.6301
  724MOL0     H97684   5.566   2.492   3.239 -1.0590  1.8590  1.3182
  724MOL0     H97685   5.707   2.291   3.206  0.6200  0.5179  2.1153
  724MOL0     H97686   5.660   2.212   3.343  2.3747  3.3982  3.4112
  724MOL0     H97687   5.403   2.224   3.231 -1.2986 -0.9216 -2.3711
  724MOL0     H97688   5.463   2.325   3.112 -0.6376  0.4939  0.7930
  724MOL0     H97689   5.596   2.058   3.104 -2.1852 -1.2642 -0.5034
  724MOL0     H97690   5.553   2.170   2.982 -2.5360  0.6753  0.3686
  724MOL0     H97691   5.486   1.874   2.999 -0.4283  0.1806  0.6860
  724MOL0     H97692   5.272   1.710   2.876 -1.3038 -0.0145 -1.7007
  724MOL0     H97693   5.134   1.807   2.856  0.6224  0.9141  2.3105
  724MOL0     H97694   5.385   1.878   2.690  0.5008 -0.4791  0.7587
  724MOL0     H97695   5.216   1.914   2.651 -0.8402 -1.8513 -1.0859
  724MOL0     H97696   5.352   1.637   2.626 -2.1407 -0.9097  1.4866
  724MOL0     H97697   5.322   1.734   2.494 -1.7177 -2.7936 -0.6244
  724MOL0     H97698   5.058   1.733   2.622 -0.7606 -1.2899  0.8174
  724MOL0     H97699   5.120   1.585   2.684 -4.0965  1.6251  1.0935
  724MOL0     H97700   5.046   1.365   2.500 -0.3869 -0.1088  0.5506
  724MOL0     H97701   4.870   1.163   2.452 -2.8754 -2.0278 -0.3715
  724MOL0     H97702   4.863   1.229   2.620  0.9344  0.9749 -0.5707
  724MOL0     H97703   4.710   1.186   2.530 -0.0751  0.3131 -1.0617
  724MOL0     H97704   4.319   1.604   2.233  1.4211 -1.5382 -1.3388
  724MOL0     H97705   4.075   1.554   2.202 -2.4620  0.7890  2.3096
  724MOL0     H97706   3.898   1.233   2.481  2.0521 -0.6535 -2.4886
  724MOL0     H97707   3.899   1.389   2.555  0.2323 -0.9398 -0.1278
  724MOL0     H97708   3.662   1.319   2.516 -0.3774  0.8162  1.3964
  724MOL0     H97709   3.681   1.462   2.426 -0.0779 -1.0732  1.7614
  724MOL0     H97710   3.727   1.189   2.293 -1.8738 -0.7976  0.5651
  724MOL0     H97711   3.697   1.348   2.217 -2.8697 -1.5790 -1.9740
  724MOL0     H97712   3.481   1.232   2.375 -0.4043 -0.2784 -0.7305
  724MOL0     H97713   3.478   1.356   2.250  2.0091  0.7765 -0.0799
  724MOL0     H97714   3.527   1.059   2.189  0.3731  0.9388  1.1891
  724MOL0     H97715   3.524   1.193   2.074 -1.7834 -1.2479 -0.9278
  724MOL0     H97716   3.309   1.050   2.118 -3.2973 -0.5237  2.2498
  724MOL0     H97717   3.296   1.160   2.255 -1.9840 -0.4224 -0.6489
  724MOL0     H97718   3.350   1.277   1.975  2.1686  2.6561  2.1551
  724MOL0     H97719   3.292   1.364   2.109  2.2099 -0.6435  0.0950
  724MOL0     H97720   3.105   1.142   2.024 -0.1474  0.4004 -1.2678
  724MOL0     H97721   3.160   1.235   1.889  1.0167  0.3330 -0.0524
  724MOL0     H97722   4.093   1.272   2.532 -1.6190  1.2232 -0.7650
  724MOL0     H97723   4.347   1.315   2.539 -1.1452 -3.3600 -0.0212
  724MOL0     H97724   4.682   1.652   2.387  0.9817  1.1767  1.3797
  724MOL0     H97725   4.863   1.730   2.408 -1.1924  0.5915  1.3321
  724MOL0     H97726   5.998   2.999   3.824 -0.8226 -0.7909 -0.8589
  724MOL0     H97727   6.218   3.129   3.842  0.0640  1.9766 -1.3885
  724MOL0     H97728   6.551   3.338   3.662  3.0636  0.4869  1.7407
  724MOL0     H97729   6.717   3.501   3.693  1.1801  1.5259 -1.0807
  724MOL0     H97730   6.709   3.845   3.897  0.3853 -0.5513 -0.6582
  724MOL0     H97731   6.685   3.671   3.881  0.3079 -2.7250 -1.1206
  724MOL0     H97732   6.936   3.822   3.788  0.2027 -0.4640  0.9716
  724MOL0     H97733   6.887   3.660   3.732 -0.2849  1.4227 -1.0639
  724MOL0     H97734   6.856   3.610   3.993 -1.5299  1.2326 -2.6699
  724MOL0     H97735   6.924   3.767   4.028  0.0508 -0.6161  1.8991
  724MOL0     H97736   7.084   3.540   3.883 -0.0891  1.4105 -0.9924
  724MOL0     H97737   7.081   3.576   4.048 -1.6200  1.2818  0.2664
  724MOL0     H97738   7.367   3.844   3.920  0.1580 -0.1415 -0.9347
  724MOL0     H97739   6.413   3.806   3.611 -2.0669 -0.5489  1.4633
  724MOL0     H97740   6.251   3.639   3.590  0.7566  0.7053 -0.8379
  725MOL0     O97741   5.178  11.028   5.265  0.3797 -0.8384  0.1563
  725MOL0     C97742   5.246  10.959   5.186  0.0159  0.2987  0.3347
  725MOL0     O97743   5.361  10.998   5.128 -0.2131 -0.0368 -0.5678
  725MOL0     C97744   5.440  11.101   5.172 -0.2213 -1.0810 -0.4421
  725MOL0     C97745   5.502  11.192   5.079  0.8283  0.2427 -1.0116
  725MOL0     C97746   5.560  11.311   5.125 -0.4162  0.2022 -0.2469
  725MOL0     C97747   5.568  11.349   5.259 -0.6380  0.5487 -0.1035
  725MOL0     O97748   5.624  11.460   5.318  0.4786 -0.1724  0.5220
  725MOL0     C97749   5.644  11.583   5.238 -0.0076 -0.3085 -0.0683
  725MOL0     C97750   5.701  11.689   5.338  0.5172 -0.3425 -0.4222
  725MOL0     C97751   5.849  11.677   5.393 -0.0105 -0.5903 -0.2525
  725MOL0     C97752   5.953  11.734   5.307  0.5252 -0.2852 -0.3315
  725MOL0     C97753   6.102  11.713   5.347  0.9804  0.0844 -0.3568
  725MOL0     C97754   6.180  11.777   5.246  0.2379 -0.4917  0.3289
  725MOL0     C97755   6.335  11.788   5.295  0.1001 -0.2584  0.6457
  725MOL0     C97756   6.437  11.832   5.182 -0.8395 -0.2014  0.2891
  725MOL0     N97757   6.571  11.775   5.195 -0.3626 -0.1052  0.2274
  725MOL0     C97758   6.676  11.809   5.270  0.5235 -0.2346 -0.6606
  725MOL0     C97759   6.777  11.734   5.231  0.8770 -0.3411 -0.0199
  725MOL0     C97760   6.924  11.733   5.274 -0.1985 -0.1883  0.1309
  725MOL0     C97761   6.936  11.736   5.429  0.3401  0.1173  0.0213
  725MOL0     C97762   6.923  11.590   5.490 -0.4259  0.3682  0.8407
  725MOL0     C97763   6.929  11.577   5.642  0.4885 -0.2326  0.8057
  725MOL0     O97764   6.865  11.694   5.705  0.5412  0.1793 -0.1982
  725MOL0     C97765   6.736  11.660   5.747 -0.7063 -0.6800 -0.5055
  725MOL0     C97766   6.637  11.639   5.657 -0.5054 -0.1099 -0.6442
  725MOL0     C97767   6.509  11.590   5.701 -0.3048  0.1715  0.7986
  725MOL0     C97768   6.398  11.572   5.604 -0.1117  0.6624 -0.1925
  725MOL0     C97769   6.480  11.575   5.838 -0.5991 -0.2724  0.3557
  725MOL0     C97770   6.374  11.488   5.896  0.0412 -0.3777 -0.0269
  725MOL0     O97771   6.354  11.518   6.029  0.0724 -0.0815 -0.1104
  725MOL0     C97772   6.224  11.500   6.075 -0.6803 -0.3583 -0.3610
  725MOL0     C97773   6.205  11.428   6.191  0.5573 -0.8906  0.5126
  725MOL0     C97774   6.078  11.429   6.250  0.8183  0.4141 -1.1781
  725MOL0     C97775   5.961  11.482   6.183 -0.4627  1.2486 -0.7766
  725MOL0     O97776   5.835  11.459   6.245 -0.5727 -0.0773  0.8995
  725MOL0     C97777   5.752  11.576   6.264 -0.3111 -0.7863 -0.4876
  725MOL0     C97778   5.610  11.532   6.292  0.2346 -0.3030  0.6807
  725MOL0     C97779   5.549  11.461   6.164  0.1264  0.5855  0.1632
  725MOL0     C97780   5.537  11.561   6.048 -0.4399 -0.7456  0.0512
  725MOL0     C97781   5.458  11.504   5.931 -0.9692  0.5693 -0.2071
  725MOL0     C97782   5.455  11.595   5.804  0.5995  0.6597 -0.9258
  725MOL0     C97783   5.420  11.519   5.672  0.7698 -0.2514 -0.5279
  725MOL0     C97784   5.353  11.614   5.563 -0.6774  0.3976 -0.1790
  725MOL0    Cl97785   5.185  11.658   5.599  0.2428 -0.1315  0.0314
  725MOL0     C97786   5.985  11.544   6.065  0.6501  0.0563 -0.4099
  725MOL0     C97787   6.117  11.559   6.015  0.1943 -0.6584 -0.0574
  725MOL0     O97788   6.302  11.416   5.829  0.1533  0.1797 -0.0911
  725MOL0     C97789   6.575  11.616   5.930  0.2544 -0.5867  0.0582
  725MOL0     C97790   6.703  11.663   5.883  0.5373  0.2092 -0.1247
  725MOL0     N97791   6.733  11.647   5.138  0.5429 -1.2051  0.1628
  725MOL0     N97792   6.607  11.673   5.119  0.1592  0.3983 -0.2737
  725MOL0     C97793   5.523  11.252   5.342  0.2127 -0.0826 -0.0308
  725MOL0     C97794   5.453  11.133   5.307  0.1933  0.1385 -0.8298
  725MOL0     C97795   5.203  10.816   5.153 -0.3266  0.4758  0.5684
  725MOL0     C97796   5.077  10.770   5.198  0.4794  0.2304 -0.6983
  725MOL0     C97797   5.036  10.640   5.190  0.3609  0.1582  0.0318
  725MOL0     C97798   5.109  10.544   5.115 -0.0296 -0.6625  0.4842
  725MOL0     O97799   5.048  10.430   5.075  0.0165  0.5720  0.0283
  725MOL0     C97800   5.123  10.304   5.099 -0.2188 -1.3029  0.2942
  725MOL0     C97801   5.151  10.264   5.251 -0.5547 -0.2663  0.9723
  725MOL0     C97802   5.023  10.207   5.319  0.4285 -0.6884 -0.1666
  725MOL0     C97803   4.931  10.314   5.385  0.6148 -1.1647  0.0519
  725MOL0     C97804   4.984  10.358   5.510  0.2352 -0.6395 -0.6743
  725MOL0     C97805   5.016  10.388   5.627 -0.1873  0.0023 -0.2335
  725MOL0     C97806   5.240  10.587   5.071 -0.1147  1.3730 -0.3887
  725MOL0     C97807   5.285  10.721   5.094 -0.0379  0.4303  0.0093
  725MOL0     H97808   5.491  11.170   4.973 -1.5538 -0.3207 -0.6919
  725MOL0     H97809   5.598  11.382   5.052  1.1357 -1.7044 -1.4030
  725MOL0     H97810   5.717  11.578   5.157  0.3770  2.6234  0.0050
  725MOL0     H97811   5.549  11.607   5.190  0.5531  0.2060 -0.9486
  725MOL0     H97812   5.684  11.787   5.292 -5.0461 -1.6156 -1.8972
  725MOL0     H97813   5.634  11.689   5.424 -1.1234  1.2209 -1.6030
  725MOL0     H97814   5.858  11.734   5.486 -0.5222  0.8355 -1.0423
  725MOL0     H97815   5.866  11.573   5.423 -1.6352 -0.3788  1.5341
  725MOL0     H97816   5.933  11.703   5.204 -0.4807 -1.1965  0.1086
  725MOL0     H97817   5.928  11.840   5.303 -1.0826 -0.6007  0.3701
  725MOL0     H97818   6.120  11.767   5.441 -2.5803 -1.6399  1.4860
  725MOL0     H97819   6.119  11.606   5.361  0.4402 -0.0249 -0.5440
  725MOL0     H97820   6.172  11.712   5.158 -1.9037  1.4204 -0.9839
  725MOL0     H97821   6.141  11.878   5.229 -0.7545 -0.7717  0.8892
  725MOL0     H97822   6.345  11.850   5.385  1.9136  0.0919  0.2313
  725MOL0     H97823   6.358  11.685   5.325 -4.0733 -1.6528 -0.2119
  725MOL0     H97824   6.446  11.941   5.183 -0.5073 -0.0864 -3.2480
  725MOL0     H97825   6.407  11.812   5.079  2.0197  0.1063 -0.7029
  725MOL0     H97826   6.695  11.883   5.347  2.6150 -3.1792  1.9295
  725MOL0     H97827   6.978  11.649   5.228  0.4111  1.4270 -2.2994
  725MOL0     H97828   6.968  11.824   5.231 -1.8916  0.7506  0.2811
  725MOL0     H97829   6.862  11.801   5.477  0.1418  0.4436 -0.7118
  725MOL0     H97830   7.035  11.778   5.453 -0.0622  2.2525 -1.7557
  725MOL0     H97831   6.999  11.521   5.453 -1.5999  0.6998 -2.4744
  725MOL0     H97832   6.828  11.557   5.447 -0.7102  0.3576  1.4671
  725MOL0     H97833   7.028  11.580   5.687 -0.5126 -0.3577  3.1809
  725MOL0     H97834   6.883  11.479   5.660 -2.2158  1.0019  1.1659
  725MOL0     H97835   6.668  11.624   5.554 -1.8842  0.3548 -1.1508
  725MOL0     H97836   6.352  11.473   5.608 -3.6007  2.1801  2.4319
  725MOL0     H97837   6.329  11.652   5.629  2.8438  4.0747 -1.9668
  725MOL0     H97838   6.439  11.597   5.505 -0.0660  0.9998 -0.0884
  725MOL0     H97839   6.297  11.392   6.237  2.7248  2.1918 -0.9700
  725MOL0     H97840   6.056  11.378   6.343  2.3249  1.5334 -0.1733
  725MOL0     H97841   5.782  11.644   6.344 -1.6529  1.3305 -1.6761
  725MOL0     H97842   5.760  11.645   6.179 -1.4858  0.3431  0.2869
  725MOL0     H97843   5.609  11.466   6.378  2.7256  1.6332  2.3677
  725MOL0     H97844   5.558  11.623   6.323  1.6272  0.6510  0.3263
  725MOL0     H97845   5.453  11.415   6.190  1.9298 -1.3082  4.5669
  725MOL0     H97846   5.620  11.382   6.137 -1.7328 -0.7135 -1.2138
  725MOL0     H97847   5.501  11.655   6.090  2.8173  2.6196 -3.8095
  725MOL0     H97848   5.634  11.596   6.010 -2.4079  3.4617 -1.7667
  725MOL0     H97849   5.357  11.474   5.960 -1.4710  2.4281  0.0950
  725MOL0     H97850   5.518  11.415   5.911 -0.7574  0.6126  0.2301
  725MOL0     H97851   5.383  11.672   5.833 -0.4964 -0.3503 -0.8862
  725MOL0     H97852   5.550  11.647   5.792  0.0808  1.6727 -0.7922
  725MOL0     H97853   5.347  11.442   5.697  0.1766  1.2638  2.8100
  725MOL0     H97854   5.508  11.469   5.630 -0.3849 -0.9572 -2.2352
  725MOL0     H97855   5.349  11.563   5.467 -0.9632 -1.8487  0.9482
  725MOL0     H97856   5.419  11.701   5.561  1.8779 -1.2139  3.1235
  725MOL0     H97857   5.897  11.576   6.011  0.9645 -1.1472 -1.6909
  725MOL0     H97858   6.132  11.620   5.926 -2.0153  2.4437  1.5098
  725MOL0     H97859   6.563  11.604   6.038 -1.5837 -0.3507 -0.0995
  725MOL0     H97860   6.783  11.687   5.952  0.4671 -0.7185  0.2956
  725MOL0     H97861   5.556  11.258   5.446  4.7084  2.1707 -1.3351
  725MOL0     H97862   5.400  11.067   5.375  1.3592  0.5952  0.5592
  725MOL0     H97863   5.010  10.846   5.236  0.8537  0.0282  0.3915
  725MOL0     H97864   4.938  10.609   5.225  1.7997 -1.3553  3.1435
  725MOL0     H97865   5.060  10.222   5.063  0.0030 -1.1506 -0.4632
  725MOL0     H97866   5.202  10.290   5.025  2.3814  3.9189  1.6073
  725MOL0     H97867   5.201  10.338   5.313  1.5495 -1.8884  1.3343
  725MOL0     H97868   5.233  10.192   5.243  1.3092  1.8714 -0.4240
  725MOL0     H97869   5.039  10.134   5.400 -0.8615  0.6533  1.3616
  725MOL0     H97870   4.970  10.139   5.252  2.9355 -2.6238 -0.3660
  725MOL0     H97871   4.834  10.271   5.412 -0.9553  1.9335 -0.2488
  725MOL0     H97872   4.922  10.395   5.312 -3.5763 -0.6389  0.8694
  725MOL0     H97873   5.028  10.398   5.733  1.3810 -4.0718  0.1749
  725MOL0     H97874   5.305  10.520   5.016  0.0231  2.7173 -1.9060
  725MOL0     H97875   5.383  10.735   5.049  0.4968  0.9709  1.3048
  726MOL0     O97876   0.086  11.321   5.304  0.1183 -0.6630 -0.6501
  726MOL0     C97877   0.051  11.404   5.392 -0.0423 -0.6147  0.3659
  726MOL0     O97878   0.128  11.467   5.485  0.2824 -0.2527 -0.9929
  726MOL0     C97879   0.264  11.466   5.500 -0.7825 -0.6965  1.1194
  726MOL0     C97880   0.320  11.486   5.630 -0.3821  0.4210 -0.1839
  726MOL0     C97881   0.457  11.484   5.651  0.1278  0.1758 -0.4252
  726MOL0     C97882   0.547  11.454   5.546  0.6157 -0.4230 -0.8877
  726MOL0     O97883   0.683  11.459   5.557  0.0041 -0.1071 -0.1716
  726MOL0     C97884   0.729  11.370   5.662  0.1165  0.7825 -0.4930
  726MOL0     C97885   0.804  11.457   5.766  0.0704 -0.1816  0.4507
  726MOL0     C97886   0.858  11.381   5.879 -0.0670  0.7043 -0.0214
  726MOL0     C97887   0.944  11.455   5.977 -0.2166  0.9463  0.6022
  726MOL0     C97888   0.861  11.510   6.097  0.1757  0.4678 -0.0436
  726MOL0     C97889   0.938  11.551   6.220 -0.0751  0.3832 -0.2656
  726MOL0     C97890   1.064  11.644   6.207  0.0813  0.2666  0.2792
  726MOL0     C97891   1.027  11.789   6.174  0.8897 -0.1245 -0.0721
  726MOL0     N97892   0.995  11.810   6.029  0.1439 -0.1967 -1.1632
  726MOL0     C97893   1.072  11.802   5.914 -0.5235 -0.4545 -0.3849
  726MOL0     C97894   0.997  11.861   5.815 -0.1040 -0.0124  0.4133
  726MOL0     C97895   1.043  11.880   5.675  0.4787 -0.7646 -0.1015
  726MOL0     C97896   0.928  11.925   5.581  0.3220 -0.1848 -0.9374
  726MOL0     C97897   0.826  11.815   5.562 -0.7737  0.0625  0.0729
  726MOL0     C97898   0.746  11.839   5.445  1.0516 -0.1207  0.7250
  726MOL0     O97899   0.607  11.791   5.455 -0.5523  0.1163  0.4378
  726MOL0     C97900   0.523  11.788   5.344  0.3887  0.8066  0.0772
  726MOL0     C97901   0.387  11.765   5.365  0.0329 -0.4155  0.3932
  726MOL0     C97902   0.290  11.756   5.264  0.3977  0.5326 -0.6494
  726MOL0     C97903   0.144  11.742   5.294  0.1706 -0.0928  0.2472
  726MOL0     C97904   0.334  11.761   5.126  0.1183 -0.1503  0.2870
  726MOL0     C97905   0.246  11.736   5.008 -0.8075 -0.0661  0.1206
  726MOL0     O97906   0.311  11.778   4.891  0.9442  0.3700 -0.6034
  726MOL0     C97907   0.238  11.772   4.773 -0.1236 -0.6237 -0.3258
  726MOL0     C97908   0.189  11.653   4.712 -0.4606 -0.5349  0.0482
  726MOL0     C97909   0.109  11.668   4.600 -0.3145  0.8978 -0.0162
  726MOL0     C97910   0.082  11.796   4.544 -0.6378  0.1061  1.0837
  726MOL0     O97911  -0.002  11.800   4.432 -0.8667  0.8410 -0.6689
  726MOL0     C97912  -0.134  11.760   4.455  0.3757 -0.4025 -0.2384
  726MOL0     C97913  -0.221  11.885   4.399 -0.0626 -0.2597  0.8297
  726MOL0     C97914  -0.370  11.836   4.397 -0.7390  0.7409 -1.5469
  726MOL0     C97915  -0.473  11.899   4.309 -0.0818  0.0690 -1.3371
  726MOL0     C97916  -0.522  12.034   4.363 -0.2368  1.0500  0.3339
  726MOL0     C97917  -0.653  12.084   4.302  0.3679  0.0277  1.0847
  726MOL0     C97918  -0.669  12.072   4.149 -0.3205 -0.1662 -0.0598
  726MOL0     C97919  -0.787  12.148   4.092  0.1201 -0.2081 -0.5094
  726MOL0    Cl97920  -0.839  12.102   3.931 -0.1971  0.4491 -0.3842
  726MOL0     C97921   0.138  11.909   4.597  0.2704 -0.2112 -0.7815
  726MOL0     C97922   0.213  11.904   4.709  0.0674 -0.0940  0.2221
  726MOL0     O97923   0.143  11.681   5.014  0.1354 -0.0569  0.0886
  726MOL0     C97924   0.473  11.778   5.107 -0.0122  0.5413 -1.3823
  726MOL0     C97925   0.566  11.797   5.213  0.6192 -0.9323  0.5732
  726MOL0     N97926   0.871  11.879   5.869  0.1737  0.0806 -0.2520
  726MOL0     N97927   0.875  11.860   6.000  0.5115 -0.5276  0.1936
  726MOL0     C97928   0.492  11.426   5.426 -1.1995  0.5899  0.9950
  726MOL0     C97929   0.354  11.431   5.398 -0.3093  0.3677 -0.2099
  726MOL0     C97930  -0.092  11.439   5.393  0.2766 -0.2089 -0.3982
  726MOL0     C97931  -0.189  11.364   5.323  0.5013 -0.6347 -0.7095
  726MOL0     C97932  -0.326  11.391   5.337 -0.8248  0.0116  0.4355
  726MOL0     C97933  -0.377  11.500   5.411 -0.5629  0.0415 -0.3146
  726MOL0     O97934  -0.514  11.510   5.424  0.6250  1.3394 -0.4114
  726MOL0     C97935  -0.550  11.618   5.511  0.1865 -0.0492  0.2821
  726MOL0     C97936  -0.700  11.627   5.538  0.6080 -0.1768 -0.3359
  726MOL0     C97937  -0.743  11.755   5.620  0.5032  0.3658  0.7115
  726MOL0     C97938  -0.715  11.738   5.769  0.0789  0.1183 -0.1766
  726MOL0     C97939  -0.794  11.834   5.852 -0.1876  1.1388  0.4171
  726MOL0     C97940  -0.863  11.882   5.937  1.4270  0.2516 -0.1849
  726MOL0     C97941  -0.282  11.582   5.465 -0.4815  0.4483 -0.8955
  726MOL0     C97942  -0.147  11.554   5.456 -0.2613  0.3952 -0.3723
  726MOL0     H97943   0.259  11.530   5.709 -2.9377  3.2716 -3.4708
  726MOL0     H97944   0.493  11.532   5.742 -2.3770  1.6247 -0.1179
  726MOL0     H97945   0.665  11.299   5.716  1.2271 -1.7977 -2.3582
  726MOL0     H97946   0.807  11.310   5.615  0.7525  1.1034  0.1223
  726MOL0     H97947   0.880  11.500   5.700 -2.1704 -0.2927 -2.4053
  726MOL0     H97948   0.741  11.542   5.794  2.2316  1.0685  1.7537
  726MOL0     H97949   0.779  11.323   5.927 -0.0390 -2.0504 -2.9757
  726MOL0     H97950   0.921  11.304   5.833 -0.9812 -0.5857  0.8488
  726MOL0     H97951   1.021  11.378   5.994 -2.4776 -2.2143 -2.2647
  726MOL0     H97952   0.993  11.538   5.926 -1.8018 -0.1571 -3.0487
  726MOL0     H97953   0.812  11.601   6.062  0.0023  0.4454  0.1406
  726MOL0     H97954   0.778  11.442   6.117 -0.1031 -0.4049 -3.6033
  726MOL0     H97955   0.873  11.599   6.293 -0.1174 -1.5536  1.0341
  726MOL0     H97956   0.973  11.464   6.276 -1.4222 -0.1665 -0.2283
  726MOL0     H97957   1.109  11.639   6.307  0.6560  0.8224  0.0560
  726MOL0     H97958   1.135  11.609   6.132  2.1635  1.1526  1.7217
  726MOL0     H97959   1.113  11.857   6.182 -1.1050  2.3964  1.9576
  726MOL0     H97960   0.946  11.820   6.241  0.2213  2.2419 -1.8429
  726MOL0     H97961   1.165  11.750   5.893 -0.4671 -0.1743 -0.8433
  726MOL0     H97962   1.126  11.951   5.669 -0.7870  0.8332  0.6422
  726MOL0     H97963   1.095  11.792   5.637  0.5832 -0.8345  0.2032
  726MOL0     H97964   0.967  11.961   5.485 -0.9543  2.4383 -0.5808
  726MOL0     H97965   0.864  11.998   5.632  0.3354  1.2755 -2.9037
  726MOL0     H97966   0.761  11.814   5.650  0.6466 -0.2943  1.1505
  726MOL0     H97967   0.879  11.721   5.542 -0.5676  0.6298 -2.2934
  726MOL0     H97968   0.792  11.779   5.366 -2.7788 -0.5996 -1.4154
  726MOL0     H97969   0.752  11.944   5.413 -1.7788 -0.1218 -0.1496
  726MOL0     H97970   0.349  11.747   5.465 -0.7132  2.2483  0.6798
  726MOL0     H97971   0.081  11.819   5.248 -1.4740  0.0012  2.4681
  726MOL0     H97972   0.112  11.639   5.274 -1.5637  0.1687  1.4509
  726MOL0     H97973   0.127  11.768   5.399  2.2646 -0.3001  0.6803
  726MOL0     H97974   0.201  11.556   4.760 -3.1570 -0.3218  1.3203
  726MOL0     H97975   0.076  11.575   4.555  0.2386 -0.4439  2.2020
  726MOL0     H97976  -0.147  11.668   4.397 -1.4875 -1.7916  2.1908
  726MOL0     H97977  -0.159  11.743   4.560  0.5051  0.9808  0.0449
  726MOL0     H97978  -0.215  11.983   4.447  2.5999 -0.5546  1.2705
  726MOL0     H97979  -0.185  11.910   4.299  0.7700  0.9752  1.4139
  726MOL0     H97980  -0.409  11.846   4.499 -2.3101 -0.6040 -1.9771
  726MOL0     H97981  -0.370  11.729   4.375  1.7803 -0.4031  2.7390
  726MOL0     H97982  -0.430  11.900   4.208 -1.8021 -2.5576 -2.2022
  726MOL0     H97983  -0.561  11.833   4.308 -0.3203  0.3310  0.3059
  726MOL0     H97984  -0.447  12.108   4.334 -0.2952  0.0952 -2.6156
  726MOL0     H97985  -0.530  12.033   4.472 -0.6696  1.0288  0.3034
  726MOL0     H97986  -0.740  12.032   4.342 -0.2136  1.3121  1.5511
  726MOL0     H97987  -0.661  12.190   4.328 -2.5249 -0.1910  1.3147
  726MOL0     H97988  -0.681  11.970   4.111 -2.2109  0.2958 -0.7962
  726MOL0     H97989  -0.577  12.097   4.097 -0.6594 -2.8641 -2.1973
  726MOL0     H97990  -0.772  12.256   4.087  0.0110 -0.2078 -0.8487
  726MOL0     H97991  -0.868  12.143   4.166 -2.3094  1.1323 -2.8921
  726MOL0     H97992   0.115  12.005   4.551  2.4288 -0.4685 -2.5751
  726MOL0     H97993   0.245  12.003   4.738  3.2441  0.2229 -3.4931
  726MOL0     H97994   0.510  11.792   5.006 -0.5408 -2.3745 -2.0678
  726MOL0     H97995   0.672  11.816   5.196  0.2775  1.4533  0.7199
  726MOL0     H97996   0.561  11.395   5.349  0.3206 -2.3305  3.2989
  726MOL0     H97997   0.316  11.421   5.297  0.8261 -2.2076 -0.4471
  726MOL0     H97998  -0.165  11.275   5.266 -0.1944 -1.6705  0.5643
  726MOL0     H97999  -0.405  11.331   5.291 -0.9296 -2.0719  3.0651
  726MOL0     H98000  -0.504  11.592   5.607  2.5585 -1.2329 -1.0707
  726MOL0     H98001  -0.516  11.714   5.472 -0.7996 -0.2178 -1.0504
  726MOL0     H98002  -0.740  11.534   5.577 -1.4905  0.0106 -1.8782
  726MOL0     H98003  -0.750  11.652   5.444 -1.0945  4.2880  1.4735
  726MOL0     H98004  -0.851  11.759   5.600  0.1806 -2.1035  1.5543
  726MOL0     H98005  -0.700  11.842   5.570 -2.5013  0.9915 -1.0216
  726MOL0     H98006  -0.610  11.758   5.789 -0.7567  2.3462  2.4983
  726MOL0     H98007  -0.747  11.641   5.809  0.0658 -0.6535 -1.9232
  726MOL0     H98008  -0.921  11.926   6.015  1.1083 -0.5101  0.0180
  726MOL0     H98009  -0.299  11.667   5.531 -1.8175  0.5130 -1.2794
  726MOL0     H98010  -0.085  11.630   5.505  1.6290  1.5533 -4.1533
  727MOL0     O98011   4.526   2.570   7.511  1.3054 -0.2061  0.3718
  727MOL0     C98012   4.490   2.680   7.551 -0.3793 -0.2959 -0.7830
  727MOL0     O98013   4.379   2.745   7.517 -0.4237 -0.1870 -0.1316
  727MOL0     C98014   4.292   2.703   7.419  0.4024  0.6445  0.5669
  727MOL0     C98015   4.335   2.630   7.306  0.2609  0.0585 -0.5668
  727MOL0     C98016   4.244   2.594   7.206  0.8239 -1.1061 -0.0437
  727MOL0     C98017   4.100   2.628   7.220 -0.2364 -0.5247  0.0378
  727MOL0     O98018   4.014   2.612   7.117 -0.6498 -0.4971 -0.1007
  727MOL0     C98019   4.032   2.517   7.015 -0.2344 -0.6301  0.1348
  727MOL0     C98020   3.943   2.547   6.894 -0.9657  0.3010  0.3619
  727MOL0     C98021   3.790   2.535   6.918  0.0115 -0.2556 -0.3492
  727MOL0     C98022   3.730   2.667   6.959 -0.2612 -0.5101 -0.8277
  727MOL0     C98023   3.577   2.662   7.002  0.1092  0.0779 -0.8126
  727MOL0     C98024   3.562   2.643   7.154 -0.0854  0.6016  0.2371
  727MOL0     C98025   3.608   2.769   7.234  0.5245  0.4241  0.4260
  727MOL0     C98026   3.636   2.725   7.383  0.1187 -0.1194  0.4865
  727MOL0     N98027   3.729   2.801   7.479  0.7069  1.2935  0.5836
  727MOL0     C98028   3.775   2.932   7.459  0.5178 -0.9937  0.0205
  727MOL0     C98029   3.887   2.942   7.537  0.3743  0.3331 -0.6190
  727MOL0     C98030   3.990   3.058   7.549  0.2856 -0.6927  0.4931
  727MOL0     C98031   3.920   3.195   7.530  0.5285  0.5469  0.4116
  727MOL0     C98032   4.024   3.311   7.558 -0.7585  0.0898  1.3432
  727MOL0     C98033   3.957   3.446   7.530 -0.5015 -0.0498  0.9075
  727MOL0     O98034   3.865   3.467   7.639 -0.3227 -0.1843  0.1305
  727MOL0     C98035   3.731   3.449   7.622 -0.5037  0.0748 -0.0863
  727MOL0     C98036   3.644   3.454   7.725 -0.7643  0.8370  0.3188
  727MOL0     C98037   3.510   3.417   7.718  0.2427 -1.1323 -0.6305
  727MOL0     C98038   3.427   3.435   7.845 -0.7050  0.3522 -0.4371
  727MOL0     C98039   3.460   3.360   7.602  0.6153 -0.6184 -0.5298
  727MOL0     C98040   3.324   3.294   7.592 -0.6731 -0.0713 -0.0968
  727MOL0     O98041   3.262   3.298   7.471  0.0302  0.3613  0.3703
  727MOL0     C98042   3.140   3.241   7.447 -0.0943  0.1078  0.2443
  727MOL0     C98043   3.041   3.332   7.442  0.5015  0.1975  0.1097
  727MOL0     C98044   2.907   3.283   7.427 -0.5307  0.4802 -0.1900
  727MOL0     C98045   2.883   3.142   7.402  0.7220  0.7903 -1.0316
  727MOL0     O98046   2.767   3.085   7.375  0.3946  0.2191  0.0839
  727MOL0     C98047   2.668   3.161   7.305 -0.5767 -0.0540 -0.5704
  727MOL0     C98048   2.574   3.066   7.225 -0.0438  0.0298 -0.6694
  727MOL0     C98049   2.643   2.958   7.143  0.3930 -0.5527  0.5845
  727MOL0     C98050   2.755   3.012   7.056  0.4797 -0.1258  0.1218
  727MOL0     C98051   2.843   2.894   6.993 -0.2837 -0.6466  0.4066
  727MOL0     C98052   2.965   2.856   7.086  0.1027  0.2064 -0.3335
  727MOL0     C98053   3.047   2.753   7.004 -0.6504  0.4009  0.0747
  727MOL0     C98054   3.145   2.666   7.078  0.3749  0.1839 -0.5202
  727MOL0    Cl98055   3.217   2.750   7.213 -0.8580 -0.2853 -0.0759
  727MOL0     C98056   2.988   3.062   7.403  0.4062  0.1870 -0.0436
  727MOL0     C98057   3.118   3.106   7.433  0.8090 -0.7250  0.7672
  727MOL0     O98058   3.290   3.227   7.690  0.0591 -0.7364 -0.3595
  727MOL0     C98059   3.533   3.363   7.491 -0.3454 -0.9417 -0.4451
  727MOL0     C98060   3.668   3.403   7.502  0.8380  0.9710 -0.3698
  727MOL0     N98061   3.889   2.827   7.620  0.4843 -0.3820 -0.0449
  727MOL0     N98062   3.800   2.740   7.582 -0.1856 -0.0616  0.1445
  727MOL0     C98063   4.059   2.694   7.336  0.5314 -0.2025  0.7507
  727MOL0     C98064   4.158   2.728   7.439 -0.3234 -0.5234  1.1421
  727MOL0     C98065   4.576   2.745   7.646 -0.8820 -0.2022  0.1181
  727MOL0     C98066   4.524   2.859   7.715 -0.2067  0.5441  0.2223
  727MOL0     C98067   4.603   2.910   7.821  0.4406  0.7430 -0.3105
  727MOL0     C98068   4.730   2.867   7.846  0.2109 -0.2585 -0.2156
  727MOL0     O98069   4.809   2.919   7.950 -0.0514  0.7680 -0.0385
  727MOL0     C98070   4.800   3.057   7.982  0.8694 -0.3336  1.3194
  727MOL0     C98071   4.908   3.108   8.076 -0.1568  0.2064  0.2786
  727MOL0     C98072   5.055   3.077   8.018  1.8575  0.0147 -0.1734
  727MOL0     C98073   5.161   3.134   8.116  0.5298 -0.4411 -0.2614
  727MOL0     C98074   5.282   3.119   8.046  0.1092  0.4996  0.1273
  727MOL0     C98075   5.393   3.114   7.998  0.1348 -1.0054  0.1922
  727MOL0     C98076   4.788   2.766   7.774 -0.0976 -0.8686 -1.6972
  727MOL0     C98077   4.706   2.699   7.681  0.4067  0.0222  0.0460
  727MOL0     H98078   4.434   2.587   7.297 -0.3231 -1.9261  1.5432
  727MOL0     H98079   4.283   2.538   7.122 -1.9056 -0.1910 -2.0321
  727MOL0     H98080   4.138   2.517   6.987 -0.5620  3.3561 -1.8994
  727MOL0     H98081   4.006   2.421   7.059 -0.4188 -0.8030 -0.3459
  727MOL0     H98082   3.972   2.642   6.849  1.7699  0.2184  1.7502
  727MOL0     H98083   3.967   2.478   6.812  0.1279  1.1147 -0.0257
  727MOL0     H98084   3.738   2.509   6.825 -0.1359  0.8925 -0.6047
  727MOL0     H98085   3.774   2.451   6.986 -2.0704  1.4762  1.4649
  727MOL0     H98086   3.797   2.692   7.042 -0.5257 -0.9250 -0.4861
  727MOL0     H98087   3.735   2.745   6.882  0.5868  0.9573  0.6444
  727MOL0     H98088   3.527   2.755   6.973 -1.1611 -1.2993 -3.3195
  727MOL0     H98089   3.529   2.591   6.935  0.5914 -0.7832 -0.2632
  727MOL0     H98090   3.461   2.603   7.169  0.4454 -0.8637  0.0088
  727MOL0     H98091   3.634   2.571   7.193  0.7673  2.2779  1.9191
  727MOL0     H98092   3.703   2.808   7.198  0.9148 -0.0090  0.9835
  727MOL0     H98093   3.531   2.847   7.227 -1.4959 -1.3596  1.5206
  727MOL0     H98094   3.685   2.627   7.383 -1.3421 -0.8731  1.0847
  727MOL0     H98095   3.534   2.716   7.421 -1.2186  2.2038 -2.2210
  727MOL0     H98096   3.739   3.006   7.388  1.5410 -1.5446 -1.1173
  727MOL0     H98097   4.036   3.060   7.647  2.0331 -1.3071 -0.2717
  727MOL0     H98098   4.068   3.042   7.473  0.8194  1.0177  0.6519
  727MOL0     H98099   3.838   3.191   7.602  1.1225 -2.0987  1.0415
  727MOL0     H98100   3.866   3.205   7.435 -1.6536  0.9998  1.6466
  727MOL0     H98101   4.101   3.303   7.481 -2.1875 -5.3905  0.1018
  727MOL0     H98102   4.074   3.303   7.655  1.8602  2.4093  0.3348
  727MOL0     H98103   3.921   3.463   7.428 -2.7564  0.8907  1.7939
  727MOL0     H98104   4.029   3.527   7.548 -0.0681 -0.2016 -0.0838
  727MOL0     H98105   3.685   3.511   7.808 -0.6807  2.8466 -1.0301
  727MOL0     H98106   3.328   3.471   7.814  0.0609  0.6421 -2.7370
  727MOL0     H98107   3.425   3.344   7.905  0.1282  0.3578 -0.4017
  727MOL0     H98108   3.462   3.516   7.910  2.3256 -0.3445 -1.0616
  727MOL0     H98109   3.057   3.436   7.465  2.0534 -0.6954  3.8609
  727MOL0     H98110   2.827   3.356   7.435 -1.8268 -0.6729 -1.8649
  727MOL0     H98111   2.616   3.211   7.387 -1.4373 -0.7306 -0.6976
  727MOL0     H98112   2.704   3.238   7.235  1.4776 -0.7528 -0.3300
  727MOL0     H98113   2.509   3.029   7.304  0.0672  3.6018  1.2951
  727MOL0     H98114   2.508   3.128   7.163  0.7359  2.1915  0.5696
  727MOL0     H98115   2.571   2.902   7.084 -0.3350  2.5876 -1.7959
  727MOL0     H98116   2.693   2.892   7.215  1.4135  0.7546  1.1161
  727MOL0     H98117   2.706   3.085   6.991  1.4191  2.9023  2.5656
  727MOL0     H98118   2.823   3.079   7.109 -1.8565  1.5832  1.0732
  727MOL0     H98119   2.877   2.939   6.899 -4.4260 -0.7115 -1.3334
  727MOL0     H98120   2.787   2.803   6.969  0.8304 -1.3905  0.5982
  727MOL0     H98121   3.027   2.943   7.109 -3.1483  2.6177  0.0352
  727MOL0     H98122   2.923   2.803   7.173  1.1163  0.5513  0.3797
  727MOL0     H98123   3.099   2.814   6.929 -0.0392 -0.2261 -0.0211
  727MOL0     H98124   2.970   2.686   6.963 -0.8469 -0.5215  1.8744
  727MOL0     H98125   3.214   2.627   7.003 -1.8198 -3.1819 -1.0204
  727MOL0     H98126   3.094   2.576   7.115 -0.6957 -0.7539 -3.9376
  727MOL0     H98127   2.964   2.957   7.390 -1.9743  0.2882  2.6012
  727MOL0     H98128   3.196   3.031   7.425  1.8868  0.5725 -2.5589
  727MOL0     H98129   3.498   3.325   7.396 -2.6633  2.2717 -1.0463
  727MOL0     H98130   3.718   3.381   7.409  0.1587 -0.4487 -0.4224
  727MOL0     H98131   3.954   2.709   7.359  0.4929  1.9754 -0.5456
  727MOL0     H98132   4.124   2.782   7.528  1.9660  0.4794  1.4656
  727MOL0     H98133   4.423   2.897   7.705  0.7026  2.8350 -0.9653
  727MOL0     H98134   4.558   2.976   7.894  1.4186 -0.8186  1.8264
  727MOL0     H98135   4.803   3.115   7.889  0.1870 -2.4584 -0.0848
  727MOL0     H98136   4.700   3.069   8.024  0.1133  2.9842 -1.0388
  727MOL0     H98137   4.892   3.068   8.176 -1.3451 -0.6329 -0.2258
  727MOL0     H98138   4.901   3.217   8.084  0.1303  0.1525  1.5372
  727MOL0     H98139   5.074   3.128   7.923  4.0281 -1.4275 -0.5875
  727MOL0     H98140   5.067   2.969   8.016  0.2719 -0.1955  0.2633
  727MOL0     H98141   5.171   3.071   8.205 -2.0850  0.5618  0.8266
  727MOL0     H98142   5.151   3.240   8.139 -2.0023  0.2741 -3.7584
  727MOL0     H98143   5.494   3.098   7.968  1.3952 -0.8026  3.8553
  727MOL0     H98144   4.891   2.734   7.784  0.7995  2.2114  0.1583
  727MOL0     H98145   4.732   2.608   7.630 -3.7207 -1.9651  1.0772
  728MOL0     O98146  10.300   3.485   8.090 -1.0281  0.4861 -0.1070
  728MOL0     C98147  10.394   3.406   8.069  1.3781  0.4616 -0.0683
  728MOL0     O98148  10.397   3.272   8.111 -0.1158 -0.8885  0.0515
  728MOL0     C98149  10.315   3.236   8.210 -0.9815  0.2534 -0.7048
  728MOL0     C98150  10.273   3.310   8.324  0.8983  0.3637 -0.3516
  728MOL0     C98151  10.176   3.257   8.411 -0.1722  0.0204 -0.0426
  728MOL0     C98152  10.118   3.133   8.390 -0.6429  0.0915  0.2399
  728MOL0     O98153  10.021   3.093   8.484  0.0975  0.0191  0.1159
  728MOL0     C98154   9.898   3.063   8.417 -0.1025 -0.6285  0.2122
  728MOL0     C98155   9.787   3.043   8.522  0.9838  0.2475 -0.4031
  728MOL0     C98156   9.751   3.180   8.586 -0.1676  0.4231  0.4512
  728MOL0     C98157   9.606   3.178   8.635  0.4222 -0.7331  0.6797
  728MOL0     C98158   9.569   3.324   8.673 -0.6348  0.3024  0.1970
  728MOL0     C98159   9.428   3.325   8.739 -0.7478  0.1720 -0.1378
  728MOL0     C98160   9.316   3.306   8.634 -0.0462  0.7750  0.1701
  728MOL0     C98161   9.247   3.445   8.587 -0.5584  0.3938  0.4704
  728MOL0     N98162   9.155   3.496   8.685  0.4094 -0.1332  0.5882
  728MOL0     C98163   9.035   3.432   8.716  0.8173  0.0568  0.1908
  728MOL0     C98164   9.002   3.481   8.834  0.2032  0.5402 -0.0863
  728MOL0     C98165   8.886   3.422   8.921 -0.3995  0.4296 -0.1371
  728MOL0     C98166   8.769   3.514   8.954 -0.1832 -0.8971  1.0803
  728MOL0     C98167   8.720   3.481   9.096  0.0262 -0.1187 -0.3502
  728MOL0     C98168   8.597   3.566   9.131  0.7481  0.0960  0.8336
  728MOL0     O98169   8.559   3.566   9.273  0.1605  0.2951 -0.8007
  728MOL0     C98170   8.644   3.623   9.366  0.1275  0.2203  0.0595
  728MOL0     C98171   8.626   3.593   9.504  0.2067 -1.0820 -0.2589
  728MOL0     C98172   8.720   3.632   9.599  0.2470 -0.5185 -0.0940
  728MOL0     C98173   8.685   3.599   9.748  0.6874 -0.5743  0.0222
  728MOL0     C98174   8.832   3.707   9.553  0.3212 -0.6471  0.1318
  728MOL0     C98175   8.942   3.743   9.647 -0.4020 -0.1809  0.2891
  728MOL0     O98176   8.988   3.644   9.729 -0.9712 -0.2946 -0.7054
  728MOL0     C98177   9.066   3.684   9.837  0.3129  0.5015 -0.2191
  728MOL0     C98178   9.016   3.708   9.968  0.4786 -0.6588 -0.1429
  728MOL0     C98179   9.091   3.754  10.076  0.4672 -0.2370  0.0233
  728MOL0     C98180   9.219   3.791  10.048 -0.8402 -0.0362  0.0094
  728MOL0     O98181   9.299   3.843  10.150 -0.3137 -0.4466  0.2914
  728MOL0     C98182   9.306   3.762  10.263 -0.1710  0.6543 -0.4737
  728MOL0     C98183   9.384   3.816  10.384 -0.0661 -0.6829  0.4622
  728MOL0     C98184   9.536   3.817  10.376 -0.1759 -0.2679  0.2848
  728MOL0     C98185   9.611   3.866  10.507  1.1803 -0.0248  0.5749
  728MOL0     C98186   9.764   3.834  10.487  1.0225  0.9682  0.0345
  728MOL0     C98187   9.838   3.873  10.607 -0.1906 -0.0645 -0.3455
  728MOL0     C98188   9.977   3.794  10.634 -0.3394 -0.1029  0.7580
  728MOL0     C98189   9.959   3.641  10.657 -0.1444 -0.8109 -0.7340
  728MOL0    Cl98190   9.833   3.599  10.773  0.0566  0.1267 -0.2727
  728MOL0     C98191   9.275   3.773   9.927 -0.0609 -0.4821 -0.3695
  728MOL0     C98192   9.199   3.721   9.819 -0.9372  0.3387  0.2523
  728MOL0     O98193   8.994   3.850   9.628  0.1569  0.1545 -0.1318
  728MOL0     C98194   8.840   3.740   9.413 -0.0423 -1.2537 -0.2014
  728MOL0     C98195   8.743   3.714   9.326  0.4363  0.0088 -0.2437
  728MOL0     N98196   9.083   3.585   8.865 -0.6682  0.8297 -0.0634
  728MOL0     N98197   9.175   3.592   8.781  0.1740  0.0656  0.1594
  728MOL0     C98198  10.149   3.064   8.267  0.4851  0.1485  0.1830
  728MOL0     C98199  10.244   3.110   8.178 -0.0634  0.0843 -0.7287
  728MOL0     C98200  10.514   3.460   8.009 -0.4094 -0.6519 -0.3889
  728MOL0     C98201  10.635   3.395   8.036 -0.1923 -0.3357 -0.8507
  728MOL0     C98202  10.750   3.447   7.979 -0.7338 -1.0571 -0.1756
  728MOL0     C98203  10.741   3.560   7.900 -0.0067  0.2644 -0.5657
  728MOL0     O98204  10.846   3.612   7.828 -0.9374 -0.4950 -0.4107
  728MOL0     C98205  10.980   3.577   7.876 -0.0042 -0.6895 -0.1417
  728MOL0     C98206  11.094   3.650   7.813  0.4051 -0.3021  0.1901
  728MOL0     C98207  11.077   3.805   7.826 -0.4593  0.9162  0.7729
  728MOL0     C98208  11.204   3.864   7.764 -0.5483  0.0502 -0.6162
  728MOL0     C98209  11.207   4.011   7.798  0.5792  0.0691 -0.5650
  728MOL0     C98210  11.209   4.125   7.841 -0.7795  0.2795 -0.5965
  728MOL0     C98211  10.622   3.630   7.881 -0.0714  0.3651 -0.0785
  728MOL0     C98212  10.505   3.579   7.935  0.1216 -1.1025  0.1965
  728MOL0     H98213  10.310   3.412   8.334  2.6859 -0.3508  0.8730
  728MOL0     H98214  10.147   3.310   8.501  0.8408 -0.8270  0.8153
  728MOL0     H98215   9.881   3.147   8.349  1.5389  0.3908  1.0249
  728MOL0     H98216   9.909   2.968   8.363  0.0372 -1.0510  0.9699
  728MOL0     H98217   9.704   3.005   8.462  1.1317  0.7442 -0.9377
  728MOL0     H98218   9.810   2.985   8.611 -1.4321  0.4808  0.4489
  728MOL0     H98219   9.822   3.216   8.661 -1.1938  1.0367  1.1440
  728MOL0     H98220   9.761   3.255   8.507 -0.2637  2.6327  2.4174
  728MOL0     H98221   9.539   3.147   8.554 -1.8162 -2.4458  3.0272
  728MOL0     H98222   9.596   3.108   8.719 -0.6519 -0.0222  1.1578
  728MOL0     H98223   9.641   3.375   8.737  0.5824  1.9564 -2.3453
  728MOL0     H98224   9.573   3.383   8.582 -1.4853  0.1291  0.0378
  728MOL0     H98225   9.430   3.253   8.822 -1.9518 -0.0988 -0.3292
  728MOL0     H98226   9.417   3.420   8.793  0.7505  1.5789 -2.1510
  728MOL0     H98227   9.349   3.253   8.544  2.1616 -1.3196  2.0661
  728MOL0     H98228   9.239   3.238   8.671  3.3139 -2.3919  1.9122
  728MOL0     H98229   9.194   3.409   8.498 -1.6808 -1.7309  1.9278
  728MOL0     H98230   9.319   3.525   8.567 -1.8527  0.7359 -4.2157
  728MOL0     H98231   8.982   3.347   8.673 -2.9984  1.2141  2.1467
  728MOL0     H98232   8.836   3.330   8.889  0.5300 -0.5303  1.0687
  728MOL0     H98233   8.939   3.392   9.012 -1.6172 -0.0827  0.4342
  728MOL0     H98234   8.686   3.493   8.886  2.0915  2.2034 -3.0984
  728MOL0     H98235   8.805   3.615   8.936 -3.0460 -0.1093 -0.8194
  728MOL0     H98236   8.796   3.504   9.171 -0.2668  1.5942 -0.5327
  728MOL0     H98237   8.716   3.373   9.109  3.0673  0.0538  4.5364
  728MOL0     H98238   8.509   3.535   9.075  0.4396  2.2299  0.0445
  728MOL0     H98239   8.623   3.665   9.092 -0.2287  0.0945  0.1646
  728MOL0     H98240   8.535   3.539   9.527 -0.6291  1.2024  2.2712
  728MOL0     H98241   8.733   3.506   9.782 -2.5408 -2.0558  0.9123
  728MOL0     H98242   8.714   3.684   9.810  2.0751 -1.2807  0.3789
  728MOL0     H98243   8.580   3.576   9.766  0.0370  0.4362 -2.1051
  728MOL0     H98244   8.913   3.682   9.995  0.0414  0.1934 -0.9421
  728MOL0     H98245   9.050   3.772  10.175  3.1788  1.2211  0.9828
  728MOL0     H98246   9.208   3.773  10.310  0.4151  0.5930  0.8102
  728MOL0     H98247   9.321   3.656  10.237  1.1882  1.2116 -2.1735
  728MOL0     H98248   9.360   3.921  10.401 -1.0639 -1.0055  1.1383
  728MOL0     H98249   9.340   3.763  10.468 -1.6563 -2.5573 -1.4471
  728MOL0     H98250   9.556   3.880  10.288 -2.0005 -3.6923 -2.8899
  728MOL0     H98251   9.572   3.716  10.354 -1.0395 -0.5705  0.2226
  728MOL0     H98252   9.592   3.971  10.530 -1.7941  0.4301 -3.0246
  728MOL0     H98253   9.569   3.814  10.593 -1.7827  2.1516  0.5750
  728MOL0     H98254   9.811   3.878  10.399  2.1844 -1.6530 -0.7511
  728MOL0     H98255   9.775   3.726  10.476  1.4487  0.9431  0.6595
  728MOL0     H98256   9.869   3.978  10.604  0.4036 -0.1242  1.9528
  728MOL0     H98257   9.780   3.855  10.699  0.3671 -0.9403 -0.1601
  728MOL0     H98258  10.036   3.830  10.718  0.6126 -0.9688  0.4826
  728MOL0     H98259  10.036   3.798  10.542 -0.0218 -4.0289  0.6327
  728MOL0     H98260  10.055   3.601  10.690  0.8617 -0.9385 -3.5257
  728MOL0     H98261   9.926   3.586  10.568 -0.7985 -0.5144 -0.6875
  728MOL0     H98262   9.377   3.809   9.921  0.3909 -0.6461  3.6130
  728MOL0     H98263   9.255   3.713   9.726  0.7381  1.0549  1.1617
  728MOL0     H98264   8.929   3.795   9.382 -0.7348  0.5553  0.8446
  728MOL0     H98265   8.740   3.750   9.224 -2.9176 -2.7076 -1.3090
  728MOL0     H98266  10.109   2.964   8.253 -0.8309  0.5434  0.9446
  728MOL0     H98267  10.264   3.055   8.086 -1.5170 -0.8389 -0.5361
  728MOL0     H98268  10.650   3.305   8.095 -0.6901 -1.0001 -1.7069
  728MOL0     H98269  10.842   3.392   7.994 -0.9806 -1.8259 -1.3445
  728MOL0     H98270  10.984   3.603   7.982  2.5850  0.3870 -0.4502
  728MOL0     H98271  10.998   3.469   7.873  2.2804 -0.5260  2.9977
  728MOL0     H98272  11.099   3.631   7.705  1.3869  0.5380  0.0790
  728MOL0     H98273  11.182   3.606   7.860 -0.2183 -0.1026  1.5980
  728MOL0     H98274  11.076   3.822   7.934 -0.0618  1.5052  0.6873
  728MOL0     H98275  10.982   3.846   7.789 -0.3232  1.9576  1.5520
  728MOL0     H98276  11.206   3.836   7.658 -0.6054 -1.8336 -0.1425
  728MOL0     H98277  11.295   3.835   7.816  0.0877  0.8805 -1.2310
  728MOL0     H98278  11.208   4.229   7.865 -3.8598  0.0831  0.5919
  728MOL0     H98279  10.636   3.725   7.829  0.3063 -0.1971 -1.0418
  728MOL0     H98280  10.411   3.627   7.912  2.3951  3.1434 -1.3499
  729MOL0     O98281   2.240  10.592   7.565 -0.0959  0.0358  0.0730
  729MOL0     C98282   2.136  10.661   7.547 -0.1190 -0.2763  0.1909
  729MOL0     O98283   2.126  10.793   7.516  0.1011 -0.4218 -0.5474
  729MOL0     C98284   2.219  10.891   7.519 -0.1969  1.0309 -0.7495
  729MOL0     C98285   2.349  10.882   7.591 -0.0471 -0.1099  0.0424
  729MOL0     C98286   2.431  10.996   7.602  0.1769  0.5168 -0.1811
  729MOL0     C98287   2.392  11.112   7.539 -0.1194 -0.6075  0.0724
  729MOL0     O98288   2.469  11.229   7.526 -0.0702  0.3334 -0.3958
  729MOL0     C98289   2.419  11.348   7.598 -0.0433  0.1766  0.6820
  729MOL0     C98290   2.526  11.380   7.706 -0.5136 -0.1207 -0.0076
  729MOL0     C98291   2.661  11.415   7.655 -0.1216  0.4044 -0.3512
  729MOL0     C98292   2.754  11.443   7.774  0.1740 -0.2877 -0.5545
  729MOL0     C98293   2.890  11.471   7.715 -0.2633 -0.1516  0.1276
  729MOL0     C98294   3.007  11.504   7.810 -0.6702 -0.4573  0.0662
  729MOL0     C98295   3.140  11.525   7.729 -0.0031 -0.0846  0.3412
  729MOL0     C98296   3.232  11.639   7.773  0.2667  0.1299 -0.3700
  729MOL0     N98297   3.289  11.626   7.908 -1.3245 -0.3600  0.5212
  729MOL0     C98298   3.378  11.537   7.966 -0.8199  0.6842  0.7749
  729MOL0     C98299   3.424  11.590   8.085  0.6021 -1.0373 -0.6435
  729MOL0     C98300   3.530  11.531   8.178 -0.1572  0.8029 -0.0227
  729MOL0     C98301   3.664  11.587   8.135 -1.1657 -0.1442  0.3010
  729MOL0     C98302   3.787  11.508   8.198  0.5084  0.3266  0.9683
  729MOL0     C98303   3.906  11.523   8.103  0.1790 -0.2426 -0.6918
  729MOL0     O98304   3.880  11.429   7.995 -0.2236 -0.3291 -0.7210
  729MOL0     C98305   3.987  11.349   7.963 -0.4748  0.0432 -0.9162
  729MOL0     C98306   4.074  11.382   7.856 -0.5272  0.9581  1.1773
  729MOL0     C98307   4.190  11.310   7.809  1.3291 -0.5679  0.6836
  729MOL0     C98308   4.269  11.355   7.688 -0.0613 -0.0528  0.3733
  729MOL0     C98309   4.223  11.194   7.878 -0.2498 -1.0680  0.0634
  729MOL0     C98310   4.334  11.101   7.854 -0.5010 -0.5671 -0.3530
  729MOL0     O98311   4.313  10.972   7.901  0.3086 -0.0248 -0.3123
  729MOL0     C98312   4.411  10.875   7.903 -0.0914 -0.4654  0.0924
  729MOL0     C98313   4.401  10.763   7.819 -0.5908  0.9893 -0.4055
  729MOL0     C98314   4.494  10.664   7.827  0.5411 -1.0402  0.3485
  729MOL0     C98315   4.599  10.667   7.920 -0.5517  1.0063 -0.2764
  729MOL0     O98316   4.695  10.562   7.940  0.3394 -0.5494  0.2464
  729MOL0     C98317   4.737  10.496   7.821  0.7413 -0.2421 -0.2062
  729MOL0     C98318   4.875  10.442   7.846 -0.3337  0.3831  0.1942
  729MOL0     C98319   4.905  10.316   7.760  0.5082 -0.5212 -0.1902
  729MOL0     C98320   5.048  10.257   7.801 -0.3412 -0.5728  0.4076
  729MOL0     C98321   5.075  10.132   7.704  0.7471 -0.2177  0.3320
  729MOL0     C98322   5.184  10.156   7.604  0.3267 -0.1055  0.6031
  729MOL0     C98323   5.214  10.045   7.499 -0.4233  0.1930 -0.2162
  729MOL0     C98324   5.340   9.972   7.539  0.0818  0.6234  0.9889
  729MOL0    Cl98325   5.367   9.827   7.439 -0.1760  0.0623  0.1808
  729MOL0     C98326   4.604  10.775   8.008 -0.8435  0.0727 -0.6119
  729MOL0     C98327   4.513  10.882   7.994  0.7127  0.5480 -0.6544
  729MOL0     O98328   4.429  11.133   7.784 -0.6156 -0.3962  0.5949
  729MOL0     C98329   4.140  11.172   7.998  0.2649  0.4288 -1.0137
  729MOL0     C98330   4.022  11.246   8.041 -1.0095  0.0488 -0.2757
  729MOL0     N98331   3.335  11.697   8.114 -0.1235  0.3234 -1.0854
  729MOL0     N98332   3.261  11.716   8.008 -0.0878  0.3457 -0.2930
  729MOL0     C98333   2.267  11.124   7.476  0.1018  0.7763  0.1992
  729MOL0     C98334   2.177  11.018   7.471  1.0420  0.1386 -0.1499
  729MOL0     C98335   2.012  10.571   7.532  0.2738  0.6666 -0.4417
  729MOL0     C98336   2.025  10.431   7.576  0.5893 -0.4958  0.7703
  729MOL0     C98337   1.921  10.345   7.559  0.5719  0.3495 -1.0348
  729MOL0     C98338   1.797  10.383   7.497  0.6444  0.9144  0.5860
  729MOL0     O98339   1.704  10.292   7.445  0.0279 -0.3836  0.3227
  729MOL0     C98340   1.592  10.335   7.366 -0.0998 -0.9950 -0.3225
  729MOL0     C98341   1.637  10.366   7.214 -0.3253 -0.2328  0.6081
  729MOL0     C98342   1.723  10.259   7.152 -0.2218 -0.6309  0.8473
  729MOL0     C98343   1.759  10.288   7.001  0.6252  0.5751  0.0283
  729MOL0     C98344   1.837  10.187   6.934  0.0527 -0.2667 -0.7021
  729MOL0     C98345   1.905  10.095   6.883 -0.5259  0.5459 -0.6355
  729MOL0     C98346   1.785  10.528   7.460  0.0137  0.0056  0.0741
  729MOL0     C98347   1.887  10.615   7.485 -0.8397 -0.2872  0.2461
  729MOL0     H98348   2.388  10.786   7.625  1.9427  0.9017  0.7795
  729MOL0     H98349   2.533  10.985   7.639  1.0076  3.1318 -1.3834
  729MOL0     H98350   2.399  11.431   7.530 -0.7866 -0.8902 -0.4589
  729MOL0     H98351   2.323  11.334   7.650  0.2190  1.0885  1.4262
  729MOL0     H98352   2.476  11.464   7.755 -5.0221 -0.9599 -2.5744
  729MOL0     H98353   2.531  11.287   7.763  5.0496  0.4432  0.9344
  729MOL0     H98354   2.700  11.332   7.596 -0.6885  0.3254 -0.6241
  729MOL0     H98355   2.649  11.503   7.591 -2.7344  2.0750  2.1421
  729MOL0     H98356   2.722  11.525   7.839  1.6617 -0.1961  0.1197
  729MOL0     H98357   2.758  11.353   7.837  0.7494 -0.0765 -0.2789
  729MOL0     H98358   2.922  11.393   7.645  2.2548  1.1555 -0.2819
  729MOL0     H98359   2.876  11.563   7.657 -3.4819  0.0204  1.0031
  729MOL0     H98360   2.975  11.590   7.870  1.2699  0.9419 -0.8096
  729MOL0     H98361   3.023  11.419   7.877 -1.5469 -0.3781  0.3943
  729MOL0     H98362   3.200  11.434   7.734  2.1836  1.0998 -1.8703
  729MOL0     H98363   3.125  11.554   7.624  0.5067 -1.5460 -0.1673
  729MOL0     H98364   3.170  11.727   7.756 -1.1880 -1.1421 -2.0235
  729MOL0     H98365   3.315  11.649   7.702 -0.2172  2.1522 -0.7084
  729MOL0     H98366   3.425  11.449   7.923 -1.7713  0.9943 -0.9903
  729MOL0     H98367   3.521  11.567   8.280  3.3255 -1.4437  1.2521
  729MOL0     H98368   3.508  11.425   8.167  0.0682  0.6513  0.9341
  729MOL0     H98369   3.686  11.691   8.162 -0.0803 -1.2313  4.2443
  729MOL0     H98370   3.666  11.578   8.026 -1.0997  0.6606  0.2285
  729MOL0     H98371   3.758  11.405   8.220  0.9795  0.3235  1.5894
  729MOL0     H98372   3.812  11.556   8.293 -0.5066 -0.9184  1.9004
  729MOL0     H98373   3.997  11.499   8.158 -0.7480  0.0003  1.0182
  729MOL0     H98374   3.914  11.621   8.054  0.0367 -0.0580 -0.3478
  729MOL0     H98375   4.042  11.464   7.793 -0.7484 -0.6574 -0.9309
  729MOL0     H98376   4.269  11.286   7.604 -0.5736 -0.1654  0.4633
  729MOL0     H98377   4.213  11.441   7.649  3.2188  1.3433 -1.7014
  729MOL0     H98378   4.375  11.379   7.696  0.5602 -0.7962 -3.6339
  729MOL0     H98379   4.320  10.750   7.748  1.7719 -2.4968 -2.7955
  729MOL0     H98380   4.487  10.573   7.768 -1.0132 -2.0085  1.9307
  729MOL0     H98381   4.666  10.415   7.797  0.7924 -0.9931  1.9422
  729MOL0     H98382   4.737  10.573   7.744 -1.2898 -0.7450 -0.7854
  729MOL0     H98383   4.946  10.519   7.815  1.0315 -0.9572 -0.1316
  729MOL0     H98384   4.883  10.409   7.950 -0.8594 -1.4490 -0.3016
  729MOL0     H98385   4.905  10.344   7.654  0.6603  0.9494  0.1795
  729MOL0     H98386   4.832  10.236   7.775  0.2130 -0.0254  1.0881
  729MOL0     H98387   5.130  10.328   7.794 -0.1748 -0.8707 -0.8829
  729MOL0     H98388   5.052  10.219   7.904 -0.2782  0.7070  0.8941
  729MOL0     H98389   4.984  10.105   7.649  0.3551  0.6306  0.5411
  729MOL0     H98390   5.101  10.043   7.762 -1.0614 -2.8587 -2.5665
  729MOL0     H98391   5.157  10.239   7.539  0.6642 -2.0652 -2.2327
  729MOL0     H98392   5.282  10.170   7.651  0.9173 -0.0706 -0.5861
  729MOL0     H98393   5.220  10.086   7.397 -0.1441 -0.8728 -0.6460
  729MOL0     H98394   5.130   9.977   7.487  0.0742 -0.1584 -2.2091
  729MOL0     H98395   5.324   9.941   7.643 -1.5233  1.4934  1.0339
  729MOL0     H98396   5.427  10.037   7.556 -0.0475  0.9929  0.2635
  729MOL0     H98397   4.675  10.776   8.091 -0.8455 -1.5145 -0.5595
  729MOL0     H98398   4.519  10.967   8.062 -1.6201  0.5693 -0.4188
  729MOL0     H98399   4.154  11.093   8.072  1.0475  2.7259  1.4406
  729MOL0     H98400   3.977  11.225   8.137 -2.4139  0.8108 -0.7387
  729MOL0     H98401   2.233  11.224   7.453 -3.2383 -0.2266  0.2858
  729MOL0     H98402   2.077  11.026   7.430  1.2988  1.3175 -0.5776
  729MOL0     H98403   2.122  10.401   7.615  1.4178 -0.9437 -1.5129
  729MOL0     H98404   1.948  10.241   7.577  0.4999  0.8585  3.0577
  729MOL0     H98405   1.525  10.249   7.357  1.2180 -2.0656 -0.1882
  729MOL0     H98406   1.550  10.424   7.415  0.0378 -1.0099 -0.1775
  729MOL0     H98407   1.683  10.464   7.197 -1.7265  0.3402 -0.0324
  729MOL0     H98408   1.548  10.378   7.152  1.3392  1.9605 -1.5812
  729MOL0     H98409   1.672  10.163   7.156  0.4026 -1.0322 -0.4149
  729MOL0     H98410   1.815  10.251   7.210  0.4106 -0.4424 -0.1141
  729MOL0     H98411   1.814  10.383   6.994 -0.2500  1.0786 -0.2109
  729MOL0     H98412   1.665  10.301   6.947  1.9758  2.3902 -2.0487
  729MOL0     H98413   1.966  10.019   6.839 -1.0862 -2.1434  2.8141
  729MOL0     H98414   1.706  10.576   7.403  1.8471 -2.3246 -4.9809
  729MOL0     H98415   1.882  10.720   7.457 -2.3251 -0.1947  0.7707
  730MOL0     O98416   9.299   2.100   1.865  0.1596  0.1602  0.0340
  730MOL0     C98417   9.419   2.103   1.886  0.5195 -0.5987 -1.0864
  730MOL0     O98418   9.511   2.158   1.805  0.1642  0.0276  0.1831
  730MOL0     C98419   9.484   2.203   1.678 -0.3189  0.0407  0.2113
  730MOL0     C98420   9.568   2.308   1.625 -0.3884 -0.6561 -1.1583
  730MOL0     C98421   9.547   2.353   1.499  0.2504 -0.3453 -0.8250
  730MOL0     C98422   9.451   2.295   1.415  0.5596 -0.0499 -0.8686
  730MOL0     O98423   9.428   2.341   1.289 -0.4970  0.1104  0.3637
  730MOL0     C98424   9.419   2.471   1.252  0.2983 -0.2065  0.1507
  730MOL0     C98425   9.555   2.524   1.199  0.1250 -0.2871  0.4864
  730MOL0     C98426   9.607   2.438   1.080 -0.1715  0.5384  0.2921
  730MOL0     C98427   9.744   2.505   1.050 -0.4927  0.6742 -0.9252
  730MOL0     C98428   9.809   2.459   0.917 -0.0612 -0.9288 -0.0583
  730MOL0     C98429   9.743   2.536   0.800 -0.0231  0.3217  0.1405
  730MOL0     C98430   9.819   2.502   0.671 -0.5994  0.0315 -0.3472
  730MOL0     C98431   9.748   2.558   0.551 -0.0158 -0.4191 -0.3767
  730MOL0     N98432   9.772   2.707   0.525 -0.6452 -0.7099 -0.4433
  730MOL0     C98433   9.860   2.754   0.435 -1.0167  0.3423 -0.3624
  730MOL0     C98434   9.846   2.891   0.446 -0.6230  0.9334 -0.6912
  730MOL0     C98435   9.935   2.990   0.373  0.2690  0.1604  0.4546
  730MOL0     C98436  10.077   3.011   0.431 -0.1580 -0.5964 -0.6969
  730MOL0     C98437  10.162   3.093   0.327  0.8334  0.5626  0.9144
  730MOL0     C98438  10.287   3.140   0.394  0.6708 -0.0179 -0.6382
  730MOL0     O98439  10.373   3.023   0.422 -0.4489  0.5160  0.0778
  730MOL0     C98440  10.507   3.028   0.395  0.0582 -0.5936  0.7063
  730MOL0     C98441  10.556   3.091   0.276  0.9048  0.5487 -0.2914
  730MOL0     C98442  10.689   3.088   0.244 -0.3365  0.0305  0.0228
  730MOL0     C98443  10.737   3.140   0.115 -0.2068  0.2859  0.8622
  730MOL0     C98444  10.784   3.042   0.340 -0.7989 -0.1128  0.6542
  730MOL0     C98445  10.937   3.048   0.325 -0.0465 -0.6291  0.5114
  730MOL0     O98446  10.995   3.094   0.207 -0.1694  0.2801  0.4085
  730MOL0     C98447  11.125   3.111   0.195 -1.3233  0.0113  0.3365
  730MOL0     C98448  11.186   3.234   0.231  0.0510  0.2895 -0.4346
  730MOL0     C98449  11.322   3.254   0.202 -0.0945 -0.6574 -0.4777
  730MOL0     C98450  11.404   3.155   0.148  0.3203  0.3877 -0.1511
  730MOL0     O98451  11.538   3.164   0.151  0.1983  0.2121 -0.3802
  730MOL0     C98452  11.619   3.265   0.226  0.0938 -0.1753  0.1449
  730MOL0     C98453  11.606   3.399   0.151 -0.2860  0.5050 -0.4231
  730MOL0     C98454  11.747   3.455   0.129  0.1640 -1.0217 -0.0133
  730MOL0     C98455  11.816   3.493   0.258 -0.1951  0.4094  0.0693
  730MOL0     C98456  11.884   3.635   0.238 -0.5121 -0.4756 -0.7484
  730MOL0     C98457  11.971   3.667   0.360 -0.1017  0.4751 -0.2515
  730MOL0     C98458  11.988   3.817   0.389 -0.7532  0.4340  0.4891
  730MOL0     C98459  12.109   3.852   0.473  0.1934  0.5782 -0.9938
  730MOL0    Cl98460  12.256   3.854   0.371 -0.1760 -0.0855  0.4613
  730MOL0     C98461  11.353   3.034   0.120  0.7174 -0.2164 -0.3853
  730MOL0     C98462  11.211   3.015   0.138  0.1052  0.1764  0.2586
  730MOL0     O98463  10.998   3.006   0.419  0.2791  0.9363 -0.4079
  730MOL0     C98464  10.743   2.983   0.463  0.5864 -0.0012 -0.1632
  730MOL0     C98465  10.598   2.979   0.482 -0.0157  0.8211 -0.8999
  730MOL0     N98466   9.763   2.925   0.544  0.1585 -0.0048  0.4639
  730MOL0     N98467   9.710   2.819   0.593 -0.9660  0.2421  0.5149
  730MOL0     C98468   9.380   2.189   1.466 -0.8892 -0.2388  0.0831
  730MOL0     C98469   9.399   2.137   1.589 -0.1959 -0.0316  0.4319
  730MOL0     C98470   9.456   2.038   2.011  1.1217  0.0127  0.3839
  730MOL0     C98471   9.357   1.995   2.107  0.2917  0.4483 -0.5050
  730MOL0     C98472   9.394   1.915   2.209 -1.0132  0.5820 -0.9670
  730MOL0     C98473   9.541   1.887   2.241 -0.5443 -0.0125  0.2684
  730MOL0     O98474   9.574   1.825   2.357 -0.6320  0.2863  0.2673
  730MOL0     C98475   9.711   1.782   2.375  0.6527  0.3399  0.1243
  730MOL0     C98476   9.719   1.695   2.505 -0.2873  0.2371 -0.5816
  730MOL0     C98477   9.598   1.616   2.532  0.2164 -0.1426  0.9522
  730MOL0     C98478   9.635   1.519   2.643 -0.7340  0.2218  0.2296
  730MOL0     C98479   9.528   1.423   2.664 -0.3786  0.3731  1.4535
  730MOL0     C98480   9.421   1.362   2.681  0.1812  0.7372 -0.9149
  730MOL0     C98481   9.626   1.932   2.146 -0.2211  0.0759  0.1647
  730MOL0     C98482   9.593   2.005   2.032  0.2787  0.0218  0.3397
  730MOL0     H98483   9.645   2.355   1.686 -2.8853 -0.6936  2.2523
  730MOL0     H98484   9.591   2.446   1.465 -2.1182  1.5577  0.9511
  730MOL0     H98485   9.337   2.491   1.182  2.4627  1.4031 -2.1038
  730MOL0     H98486   9.389   2.527   1.341 -0.2969 -0.7136  0.2686
  730MOL0     H98487   9.526   2.622   1.162  0.4474  0.4955  2.1829
  730MOL0     H98488   9.628   2.536   1.280  0.0574  2.3752  0.2406
  730MOL0     H98489   9.619   2.335   1.113 -3.9660 -0.0525  0.3207
  730MOL0     H98490   9.544   2.452   0.991  1.9696  1.3509 -1.1753
  730MOL0     H98491   9.734   2.613   1.064  0.7555  0.6680  0.2219
  730MOL0     H98492   9.817   2.474   1.125 -1.1693 -5.3223 -2.2190
  730MOL0     H98493   9.917   2.474   0.923 -0.2899  0.0726  2.8257
  730MOL0     H98494   9.802   2.351   0.899  0.8143 -1.2298  1.3006
  730MOL0     H98495   9.637   2.514   0.785 -0.1193  0.2134  0.9712
  730MOL0     H98496   9.733   2.644   0.813 -0.3586  0.0493  2.4403
  730MOL0     H98497   9.922   2.540   0.676 -0.2012 -0.6623 -2.4651
  730MOL0     H98498   9.836   2.395   0.655  1.9985  0.4796 -1.1057
  730MOL0     H98499   9.640   2.549   0.554 -0.1159  0.7677  0.2741
  730MOL0     H98500   9.779   2.496   0.466 -3.8669 -2.0133 -0.7869
  730MOL0     H98501   9.922   2.702   0.363 -1.3734 -1.3868  0.5437
  730MOL0     H98502   9.939   2.950   0.271  1.6423 -0.7697  0.8550
  730MOL0     H98503   9.879   3.084   0.367  0.3401  0.1564 -0.3701
  730MOL0     H98504  10.125   2.916   0.458  2.5795  1.2196  1.2879
  730MOL0     H98505  10.066   3.062   0.527  0.9841  0.8747 -1.3154
  730MOL0     H98506  10.099   3.177   0.296 -1.1909 -0.9359  0.7815
  730MOL0     H98507  10.187   3.021   0.249 -1.2649 -1.3838  1.9160
  730MOL0     H98508  10.261   3.192   0.486  1.6749 -2.3975  1.0971
  730MOL0     H98509  10.337   3.209   0.325  1.1360 -1.2347 -1.5637
  730MOL0     H98510  10.477   3.128   0.211 -0.6974 -1.8664  0.1397
  730MOL0     H98511  10.654   3.151   0.045 -1.5041 -0.2332  2.2634
  730MOL0     H98512  10.803   3.227   0.120  1.5860 -0.9013 -0.3686
  730MOL0     H98513  10.795   3.058   0.072  0.1523  2.3287 -3.0104
  730MOL0     H98514  11.131   3.323   0.259  0.6131  0.8728 -1.1485
  730MOL0     H98515  11.347   3.359   0.214 -2.8309  0.3759 -2.5206
  730MOL0     H98516  11.568   3.292   0.319  0.4989  0.6603  0.1369
  730MOL0     H98517  11.724   3.236   0.232  0.6620  1.5674 -0.6355
  730MOL0     H98518  11.559   3.377   0.055  1.1162 -0.7405 -0.8812
  730MOL0     H98519  11.554   3.471   0.215  4.1528  0.7510  3.4201
  730MOL0     H98520  11.731   3.538   0.060  0.9741 -2.1561 -1.6591
  730MOL0     H98521  11.813   3.389   0.071 -0.2461 -0.3678 -1.2691
  730MOL0     H98522  11.748   3.513   0.341 -0.0563  0.5585  0.1493
  730MOL0     H98523  11.887   3.417   0.292 -3.8749 -2.8737  1.1209
  730MOL0     H98524  11.815   3.719   0.225  1.3789  1.0516 -1.3836
  730MOL0     H98525  11.949   3.632   0.150  0.6545  1.8925 -0.0598
  730MOL0     H98526  11.950   3.616   0.454  3.2141 -1.1600 -0.2715
  730MOL0     H98527  12.068   3.622   0.338  0.2149  0.2192  1.5160
  730MOL0     H98528  11.900   3.837   0.451 -0.4388 -3.3192  2.4807
  730MOL0     H98529  11.987   3.880   0.300  0.1411  0.4632  0.4838
  730MOL0     H98530  12.114   3.772   0.548 -1.0342 -2.6735 -4.1060
  730MOL0     H98531  12.097   3.949   0.521  0.8798  1.1337 -1.9132
  730MOL0     H98532  11.414   2.953   0.079  0.1224  0.0660 -1.8840
  730MOL0     H98533  11.166   2.922   0.105  0.9104  0.8160 -2.9605
  730MOL0     H98534  10.804   2.943   0.543  0.8262  2.5965  1.0585
  730MOL0     H98535  10.568   2.932   0.576 -1.6423 -0.2934 -1.9092
  730MOL0     H98536   9.329   2.128   1.393  1.1507  0.9223 -2.4604
  730MOL0     H98537   9.353   2.039   1.601 -2.6029  0.9451 -0.1268
  730MOL0     H98538   9.253   2.027   2.109 -0.9390 -3.0404 -1.4830
  730MOL0     H98539   9.314   1.883   2.275  0.5922 -1.5003  0.1025
  730MOL0     H98540   9.736   1.712   2.295 -1.2633 -2.2166  1.6208
  730MOL0     H98541   9.772   1.873   2.378 -0.7801  1.3583 -0.1617
  730MOL0     H98542   9.725   1.767   2.588 -1.8145  3.0937 -2.7714
  730MOL0     H98543   9.810   1.635   2.503 -1.2205 -1.5196  2.5794
  730MOL0     H98544   9.591   1.551   2.445 -0.3707  0.8942  0.1962
  730MOL0     H98545   9.504   1.671   2.544  0.1836  0.0898 -0.2477
  730MOL0     H98546   9.657   1.571   2.736  2.2965  1.0947 -0.8531
  730MOL0     H98547   9.733   1.477   2.620  0.9118  1.7729  3.7578
  730MOL0     H98548   9.330   1.307   2.692 -0.4621  0.9009 -4.3093
  730MOL0     H98549   9.731   1.921   2.169 -0.5540 -0.2879  1.5661
  730MOL0     H98550   9.678   2.046   1.977  1.6118  0.2310  2.4290
  731MOL0     O98551   0.539  11.358   2.123  0.1097 -0.0661  0.8367
  731MOL0     C98552   0.476  11.290   2.040  0.0833 -0.3042  0.4906
  731MOL0     O98553   0.508  11.268   1.911  0.8151  0.3246 -0.3826
  731MOL0     C98554   0.617  11.331   1.861  0.2763 -0.8694  0.3038
  731MOL0     C98555   0.598  11.436   1.776 -0.4411  0.5645 -0.0081
  731MOL0     C98556   0.709  11.502   1.713 -0.3567 -0.3100 -0.3238
  731MOL0     C98557   0.839  11.476   1.766 -0.2049 -0.6772 -0.0653
  731MOL0     O98558   0.948  11.541   1.717  0.7502  0.7323  0.0863
  731MOL0     C98559   0.941  11.551   1.576  0.2924 -0.2228  0.3327
  731MOL0     C98560   1.077  11.592   1.527 -0.0042 -0.7498 -0.9838
  731MOL0     C98561   1.094  11.646   1.385 -0.1345  0.1139  0.5593
  731MOL0     C98562   1.247  11.672   1.353  0.9443 -0.0972  0.3900
  731MOL0     C98563   1.267  11.701   1.206  0.5095  0.1316 -0.2476
  731MOL0     C98564   1.250  11.854   1.167  0.0856 -0.9200  0.0443
  731MOL0     C98565   1.365  11.958   1.193  0.5589 -0.3383  0.1682
  731MOL0     C98566   1.461  11.984   1.084  0.2964  0.2457 -0.3360
  731MOL0     N98567   1.394  12.074   0.990 -0.0902 -0.5275  0.1397
  731MOL0     C98568   1.386  12.212   1.007  0.3147 -0.1788  0.7869
  731MOL0     C98569   1.329  12.258   0.892  0.1079  0.2856 -0.5182
  731MOL0     C98570   1.285  12.394   0.856  0.0496  0.0071  0.4529
  731MOL0     C98571   1.163  12.442   0.951 -0.2903 -0.1129  0.1948
  731MOL0     C98572   1.195  12.583   0.998 -0.3252 -0.5367  0.1381
  731MOL0     C98573   1.179  12.697   0.890  0.4759  0.1531 -0.3673
  731MOL0     O98574   1.251  12.668   0.773 -1.6361 -0.5024 -0.4104
  731MOL0     C98575   1.343  12.763   0.739  0.4819 -0.1004  0.0356
  731MOL0     C98576   1.469  12.727   0.727 -1.4713  0.5205  0.2408
  731MOL0     C98577   1.574  12.824   0.685 -0.9059  0.2470  0.5546
  731MOL0     C98578   1.714  12.771   0.674 -0.9300  0.5241  0.5955
  731MOL0     C98579   1.534  12.950   0.631  0.0408 -0.2926 -0.0929
  731MOL0     C98580   1.625  13.045   0.581 -0.6595 -0.4102  0.3876
  731MOL0     O98581   1.655  13.165   0.643  0.9622 -0.0749 -0.7689
  731MOL0     C98582   1.717  13.267   0.562 -0.3056 -1.4764 -0.0129
  731MOL0     C98583   1.643  13.323   0.460  0.5885 -0.2612  0.8059
  731MOL0     C98584   1.704  13.416   0.368  0.6613 -0.1264  0.2606
  731MOL0     C98585   1.829  13.476   0.401 -0.0523  0.1030  1.2325
  731MOL0     O98586   1.897  13.561   0.311  0.8748 -0.5598 -0.4342
  731MOL0     C98587   1.838  13.600   0.185  0.1658 -0.4476  0.5004
  731MOL0     C98588   1.938  13.697   0.123 -0.6014  0.5937 -0.0370
  731MOL0     C98589   2.081  13.647   0.093  0.9117  0.0032 -0.4173
  731MOL0     C98590   2.180  13.671   0.213 -0.1097  0.4962 -0.2610
  731MOL0     C98591   2.319  13.603   0.188 -0.2019 -0.2645 -0.2742
  731MOL0     C98592   2.408  13.625   0.309  0.2106 -0.2602 -0.1666
  731MOL0     C98593   2.534  13.545   0.270  0.3493 -0.5272  0.0936
  731MOL0     C98594   2.632  13.578   0.382 -0.0824 -0.2584  0.0810
  731MOL0    Cl98595   2.581  13.546   0.547  0.4622  0.0890  0.5730
  731MOL0     C98596   1.896  13.420   0.516 -0.1475 -0.1204  0.1109
  731MOL0     C98597   1.840  13.329   0.593 -0.0250  1.2097 -0.3050
  731MOL0     O98598   1.657  13.012   0.464 -0.2689 -0.1842  0.0591
  731MOL0     C98599   1.403  12.985   0.641  0.5103  0.0320  0.0918
  731MOL0     C98600   1.309  12.889   0.698 -0.4473 -0.1283  0.5639
  731MOL0     N98601   1.322  12.150   0.809 -0.0679 -0.1906 -0.2762
  731MOL0     N98602   1.364  12.044   0.861  0.4556  0.2216  0.1139
  731MOL0     C98603   0.857  11.374   1.863 -0.9354 -0.0667  0.2448
  731MOL0     C98604   0.746  11.302   1.910  0.7399  1.1997 -0.1746
  731MOL0     C98605   0.352  11.228   2.084  0.6196 -0.2517  0.5628
  731MOL0     C98606   0.280  11.135   2.007  0.8513 -0.2484  1.1370
  731MOL0     C98607   0.156  11.083   2.051  0.6286 -0.4581 -0.6065
  731MOL0     C98608   0.105  11.112   2.181  0.9551  0.1099  0.8557
  731MOL0     O98609  -0.009  11.058   2.225 -1.0061  0.0749 -0.3391
  731MOL0     C98610  -0.056  11.098   2.355  0.3642  0.5511  0.4999
  731MOL0     C98611  -0.192  11.022   2.369 -0.8497  0.0101  0.0253
  731MOL0     C98612  -0.215  10.981   2.517  0.1223  0.0094  0.2511
  731MOL0     C98613  -0.327  10.880   2.547 -0.7457 -0.5471  0.6981
  731MOL0     C98614  -0.310  10.747   2.484 -0.2956  0.5764 -0.2749
  731MOL0     C98615  -0.321  10.645   2.421 -0.5808 -0.6323  0.8104
  731MOL0     C98616   0.189  11.190   2.259  0.5507 -0.8930  0.8864
  731MOL0     C98617   0.305  11.253   2.213 -0.2587  0.3237 -0.2543
  731MOL0     H98618   0.492  11.455   1.765 -0.6420 -0.9865 -0.9996
  731MOL0     H98619   0.701  11.576   1.635  2.9619  1.7327  1.0530
  731MOL0     H98620   0.929  11.459   1.518  2.8827 -0.2592 -0.2705
  731MOL0     H98621   0.868  11.629   1.550  0.0780  0.1423  1.9476
  731MOL0     H98622   1.126  11.668   1.588  1.9440 -1.8872 -1.0371
  731MOL0     H98623   1.146  11.508   1.542 -0.4868 -0.7977  1.3015
  731MOL0     H98624   1.051  11.577   1.313 -0.3868  0.5389  0.2977
  731MOL0     H98625   1.043  11.741   1.365  1.7086  1.8173  3.1770
  731MOL0     H98626   1.283  11.760   1.406  1.3540 -0.0482  0.0349
  731MOL0     H98627   1.303  11.584   1.387  1.2347  0.0207  0.2159
  731MOL0     H98628   1.367  11.661   1.184  1.4100  1.5791  0.9759
  731MOL0     H98629   1.198  11.644   1.142  0.7184 -0.8995  0.4207
  731MOL0     H98630   1.237  11.847   1.059  2.7312  1.7269 -0.5837
  731MOL0     H98631   1.163  11.894   1.219  1.4946  0.6380  1.3107
  731MOL0     H98632   1.317  12.055   1.209  0.9368 -0.2793  0.9950
  731MOL0     H98633   1.421  11.941   1.285  0.7196  0.9649  0.3313
  731MOL0     H98634   1.482  11.887   1.038 -1.4387 -0.8297  1.0127
  731MOL0     H98635   1.553  12.037   1.111 -1.0809  1.9394  1.4132
  731MOL0     H98636   1.401  12.274   1.095 -0.2224  0.0139  0.7481
  731MOL0     H98637   1.373  12.458   0.870  1.6209 -2.0156  0.2712
  731MOL0     H98638   1.247  12.401   0.754  0.8931  2.4627  0.2317
  731MOL0     H98639   1.155  12.385   1.044 -2.5043  0.3488  0.3242
  731MOL0     H98640   1.067  12.448   0.900 -0.7968  1.3533  1.2699
  731MOL0     H98641   1.296  12.588   1.041 -0.3240  0.2160  0.0715
  731MOL0     H98642   1.121  12.617   1.071  1.2178 -3.4407  3.4014
  731MOL0     H98643   1.203  12.790   0.944 -3.2195  0.8805  0.2702
  731MOL0     H98644   1.070  12.696   0.880 -0.4232 -0.1874  5.7529
  731MOL0     H98645   1.507  12.627   0.740 -0.5258  0.2734 -3.2976
  731MOL0     H98646   1.785  12.842   0.718  1.6068 -1.9423  0.7625
  731MOL0     H98647   1.723  12.682   0.737 -0.1730  2.3349  3.1906
  731MOL0     H98648   1.730  12.731   0.574  0.6209  1.1359  0.5758
  731MOL0     H98649   1.550  13.269   0.442  1.8441 -2.9306  1.7852
  731MOL0     H98650   1.647  13.436   0.278 -1.1112 -0.7730  1.1857
  731MOL0     H98651   1.823  13.512   0.121  0.3520  1.5075 -2.4106
  731MOL0     H98652   1.740  13.648   0.195  0.5604  0.5184 -0.0848
  731MOL0     H98653   1.896  13.744   0.034 -2.4981  1.0852  1.0719
  731MOL0     H98654   1.949  13.768   0.206  2.6091 -0.7538  0.8573
  731MOL0     H98655   2.115  13.705   0.008 -1.4532 -1.4021 -2.4500
  731MOL0     H98656   2.068  13.540   0.073 -2.7553  0.0210  1.0449
  731MOL0     H98657   2.190  13.779   0.226  0.3438  0.7370 -2.2913
  731MOL0     H98658   2.146  13.635   0.310  0.0120  3.5222  1.0020
  731MOL0     H98659   2.366  13.659   0.107  1.3106  1.0682  1.4336
  731MOL0     H98660   2.305  13.500   0.155  0.2218  0.0377 -1.4031
  731MOL0     H98661   2.430  13.731   0.325  0.5503 -0.2638 -0.5898
  731MOL0     H98662   2.361  13.590   0.402  1.5888 -2.3427 -0.1784
  731MOL0     H98663   2.573  13.585   0.176  0.5308 -0.7135  0.0895
  731MOL0     H98664   2.514  13.438   0.281  1.3894 -0.5522  2.2702
  731MOL0     H98665   2.661  13.683   0.369 -0.3979  0.0092  1.4536
  731MOL0     H98666   2.725  13.522   0.368 -0.2479 -0.7852  1.0113
  731MOL0     H98667   1.999  13.452   0.527 -0.5215  0.8204  1.1518
  731MOL0     H98668   1.900  13.291   0.675 -0.5277  1.5079  0.2144
  731MOL0     H98669   1.371  13.088   0.627  1.0834  0.1338 -0.5168
  731MOL0     H98670   1.203  12.911   0.707 -1.1190 -3.5083  2.9936
  731MOL0     H98671   0.953  11.348   1.906 -0.0126  1.7067 -0.6498
  731MOL0     H98672   0.761  11.220   1.979 -1.3188  2.1271  1.4925
  731MOL0     H98673   0.317  11.121   1.907  1.5887  0.6481  1.2704
  731MOL0     H98674   0.097  11.015   1.990 -1.9597  0.9273  0.2141
  731MOL0     H98675   0.023  11.057   2.418  3.0776  2.1654 -1.5958
  731MOL0     H98676  -0.062  11.204   2.378 -2.0882  1.0430 -1.8848
  731MOL0     H98677  -0.178  10.922   2.327  0.9960  0.2614 -0.0412
  731MOL0     H98678  -0.280  11.070   2.324  0.2990 -1.1441 -3.8098
  731MOL0     H98679  -0.226  11.072   2.577 -1.7898 -0.5018  0.7555
  731MOL0     H98680  -0.120  10.942   2.554  0.2724 -0.8024 -0.9466
  731MOL0     H98681  -0.425  10.922   2.523  0.3330  1.6367 -0.0648
  731MOL0     H98682  -0.336  10.859   2.655  0.8425  0.5242  1.0590
  731MOL0     H98683  -0.332  10.552   2.369 -0.1690  0.5481 -1.5133
  731MOL0     H98684   0.168  11.204   2.365 -2.0655  0.3925  0.2780
  731MOL0     H98685   0.357  11.320   2.281  1.3293 -2.9301  2.0327
  732MOL0     O98686  10.567   2.746   7.652  0.1644  0.1531  0.2574
  732MOL0     C98687  10.648   2.688   7.572  0.8860 -0.2380  0.4785
  732MOL0     O98688  10.674   2.556   7.569 -0.3473 -0.4488  0.3276
  732MOL0     C98689  10.587   2.463   7.635 -0.2940  0.3131  0.7721
  732MOL0     C98690  10.632   2.347   7.713  0.1817 -0.6932 -0.2405
  732MOL0     C98691  10.529   2.271   7.777  0.2494 -0.6109  0.3987
  732MOL0     C98692  10.389   2.288   7.749 -1.4082 -0.5046 -0.1459
  732MOL0     O98693  10.290   2.205   7.795 -0.2703  0.2797 -0.2424
  732MOL0     C98694  10.312   2.129   7.917  0.1771 -0.3165 -1.2374
  732MOL0     C98695  10.179   2.081   7.974 -0.5681  0.4313 -0.1486
  732MOL0     C98696  10.095   2.205   8.027  0.0421 -0.0550 -0.0574
  732MOL0     C98697   9.975   2.160   8.110 -0.7074 -0.3469 -1.4707
  732MOL0     C98698   9.897   2.283   8.160 -0.2854 -0.3771  0.3227
  732MOL0     C98699   9.749   2.257   8.197  0.0197  0.1667  0.0241
  732MOL0     C98700   9.672   2.389   8.223 -0.6309 -0.0373  0.4448
  732MOL0     C98701   9.706   2.470   8.341  0.5757 -0.0805  0.2435
  732MOL0     N98702   9.650   2.607   8.336  0.3405  0.4703 -0.0463
  732MOL0     C98703   9.525   2.642   8.366  0.1424 -0.1819 -0.8517
  732MOL0     C98704   9.503   2.764   8.317  0.3303  0.4634 -0.1785
  732MOL0     C98705   9.371   2.835   8.335 -1.3141  0.0548 -0.5119
  732MOL0     C98706   9.252   2.758   8.276 -0.2347 -0.2031 -0.6584
  732MOL0     C98707   9.125   2.828   8.323 -0.5172  0.3842  0.2252
  732MOL0     C98708   9.003   2.761   8.249 -0.3950  0.7178  1.3139
  732MOL0     O98709   8.884   2.819   8.301  0.5617 -1.5014 -0.0834
  732MOL0     C98710   8.783   2.854   8.211  0.1989 -0.9811 -0.4638
  732MOL0     C98711   8.753   2.784   8.099  0.5435 -0.5763  0.2111
  732MOL0     C98712   8.639   2.802   8.027  0.5335  0.4549 -0.1749
  732MOL0     C98713   8.620   2.714   7.907  0.6161  0.0110  0.2528
  732MOL0     C98714   8.552   2.906   8.066  0.6053 -0.2919 -0.0644
  732MOL0     C98715   8.426   2.932   7.978  0.2465 -0.4535  0.8405
  732MOL0     O98716   8.448   2.916   7.839 -0.3193  0.7917  0.2015
  732MOL0     C98717   8.351   2.892   7.751 -0.9259  0.0818  0.5622
  732MOL0     C98718   8.218   2.866   7.777  0.4947  0.8653 -0.1082
  732MOL0     C98719   8.123   2.860   7.672 -0.1284  0.2528 -0.5834
  732MOL0     C98720   8.158   2.874   7.543 -0.4332  0.1622 -0.4072
  732MOL0     O98721   8.057   2.868   7.455 -0.8866 -0.3086 -0.3410
  732MOL0     C98722   8.105   2.822   7.329  0.5988 -0.3238  0.0346
  732MOL0     C98723   7.973   2.793   7.242  0.7193  0.1202  0.0188
  732MOL0     C98724   8.001   2.750   7.099 -0.3575 -0.7409  1.6443
  732MOL0     C98725   8.031   2.600   7.094  1.3100 -0.8428 -0.4715
  732MOL0     C98726   7.984   2.543   6.961  0.0522  0.5434 -0.1458
  732MOL0     C98727   8.074   2.434   6.909 -0.1973  0.5882 -0.3690
  732MOL0     C98728   8.065   2.428   6.755  0.3871 -0.3534 -0.9722
  732MOL0     C98729   8.172   2.347   6.693  0.6599  0.5544 -0.1931
  732MOL0    Cl98730   8.147   2.332   6.517  0.0271 -0.0431  0.0363
  732MOL0     C98731   8.298   2.885   7.517 -0.3916  0.6682  0.1522
  732MOL0     C98732   8.388   2.901   7.614 -0.9779  0.0414 -0.0314
  732MOL0     O98733   8.330   2.987   8.037  0.2022 -0.2025 -0.3152
  732MOL0     C98734   8.579   2.982   8.177 -0.2316 -0.0322 -0.3488
  732MOL0     C98735   8.690   2.957   8.256 -0.1697  0.5145 -0.4574
  732MOL0     N98736   9.631   2.810   8.266  0.1027  0.4808  0.2241
  732MOL0     N98737   9.718   2.708   8.276 -0.2967 -0.1365  0.6749
  732MOL0     C98738  10.357   2.386   7.655 -0.4110 -0.3141  0.2661
  732MOL0     C98739  10.448   2.480   7.612  0.6516 -0.3590 -0.6158
  732MOL0     C98740  10.735   2.771   7.489  0.2483  0.0028  0.3551
  732MOL0     C98741  10.823   2.704   7.396  0.6462 -0.8211 -0.5454
  732MOL0     C98742  10.903   2.791   7.319 -0.0976  0.3486 -0.1137
  732MOL0     C98743  10.893   2.922   7.320  0.4192  0.8465  0.1198
  732MOL0     O98744  10.971   2.999   7.240 -0.3420  0.3160 -0.0435
  732MOL0     C98745  11.027   2.953   7.116  0.0765 -0.1568 -0.3347
  732MOL0     C98746  10.928   2.901   7.017  1.7061 -0.6463  0.4524
  732MOL0     C98747  10.804   3.003   6.993  0.1193  0.1585 -0.1251
  732MOL0     C98748  10.732   2.981   6.852  0.1233 -0.5418  0.0342
  732MOL0     C98749  10.638   2.873   6.861  0.0172  0.2690  0.5177
  732MOL0     C98750  10.576   2.772   6.856 -0.6251 -0.2976 -1.8468
  732MOL0     C98751  10.813   2.985   7.415  0.4444 -0.4445  0.5233
  732MOL0     C98752  10.733   2.914   7.505 -0.9252  0.6025 -0.2642
  732MOL0     H98753  10.739   2.334   7.711  0.1979 -0.7560 -3.1167
  732MOL0     H98754  10.570   2.194   7.842  1.5045 -0.1102  0.2196
  732MOL0     H98755  10.371   2.039   7.897  1.1642 -0.3898  1.6498
  732MOL0     H98756  10.370   2.185   7.990 -0.3047 -0.7653 -0.5048
  732MOL0     H98757  10.111   2.030   7.905  0.3752 -0.6114 -0.3191
  732MOL0     H98758  10.193   2.015   8.059  0.7981 -1.0110 -1.4380
  732MOL0     H98759  10.150   2.284   8.079 -3.7032  1.1984  2.4958
  732MOL0     H98760  10.055   2.250   7.936  3.3984  1.9855 -0.7064
  732MOL0     H98761   9.904   2.108   8.045 -2.2523  2.9846 -2.6666
  732MOL0     H98762  10.016   2.108   8.197  2.2304  3.6093 -0.2407
  732MOL0     H98763   9.948   2.318   8.250  1.0287  0.2291 -0.6151
  732MOL0     H98764   9.908   2.363   8.085  0.1382 -0.6057  0.1324
  732MOL0     H98765   9.695   2.206   8.116 -0.9973  1.1766  0.0535
  732MOL0     H98766   9.749   2.206   8.294  0.6767 -0.3302 -0.2264
  732MOL0     H98767   9.706   2.455   8.143 -0.2796 -1.0373 -0.2601
  732MOL0     H98768   9.564   2.377   8.213 -0.5810  1.1928 -2.6299
  732MOL0     H98769   9.814   2.477   8.356  0.5218 -0.9777  1.1481
  732MOL0     H98770   9.664   2.415   8.425  1.9997 -2.0851 -0.2987
  732MOL0     H98771   9.466   2.569   8.422 -0.0127  2.3919  2.6237
  732MOL0     H98772   9.361   2.866   8.439 -0.7496  0.0055 -0.4414
  732MOL0     H98773   9.392   2.931   8.287  2.8513 -1.2999 -1.8224
  732MOL0     H98774   9.246   2.652   8.301  1.3210 -0.9647 -3.2215
  732MOL0     H98775   9.258   2.769   8.168 -1.9676 -0.9079 -0.8527
  732MOL0     H98776   9.128   2.935   8.301  1.6709  0.4481  0.5886
  732MOL0     H98777   9.116   2.810   8.430  1.1598  0.9636  0.4888
  732MOL0     H98778   9.004   2.654   8.272 -3.2364 -0.3360 -2.5415
  732MOL0     H98779   9.010   2.784   8.142 -1.3015 -0.6429  0.9397
  732MOL0     H98780   8.827   2.709   8.072  0.4714 -0.8853  0.8532
  732MOL0     H98781   8.692   2.632   7.908  0.4360 -0.1814 -1.0764
  732MOL0     H98782   8.517   2.677   7.897  0.3757  1.1973 -2.8288
  732MOL0     H98783   8.640   2.761   7.810 -1.0036 -0.4152 -0.3304
  732MOL0     H98784   8.174   2.863   7.876 -3.9623  0.0968 -1.9013
  732MOL0     H98785   8.022   2.849   7.712  0.8439 -0.2740  1.9267
  732MOL0     H98786   8.157   2.897   7.270  0.8234 -0.3875  0.1512
  732MOL0     H98787   8.162   2.729   7.336 -2.0268 -2.0955 -0.3957
  732MOL0     H98788   7.910   2.717   7.289 -1.5952  0.6871 -1.9483
  732MOL0     H98789   7.921   2.888   7.226  0.5446 -0.2152 -1.5470
  732MOL0     H98790   8.083   2.801   7.048 -0.9387 -3.1486 -2.1745
  732MOL0     H98791   7.911   2.775   7.041 -2.2559  1.7647  5.2767
  732MOL0     H98792   8.140   2.597   7.101  1.2958 -3.1394 -0.4104
  732MOL0     H98793   7.986   2.550   7.180  3.9095 -0.9224  0.9394
  732MOL0     H98794   7.975   2.625   6.889  0.3556  0.8830  0.1991
  732MOL0     H98795   7.880   2.510   6.971  0.3898 -0.5704 -0.1420
  732MOL0     H98796   8.180   2.441   6.936 -0.2127  0.5748 -0.3025
  732MOL0     H98797   8.049   2.335   6.947 -0.4027  0.8461  0.1809
  732MOL0     H98798   8.061   2.528   6.711  0.7465  0.1237  0.0589
  732MOL0     H98799   7.963   2.398   6.733 -0.2145  1.2805 -0.5311
  732MOL0     H98800   8.156   2.242   6.720 -0.4558  0.8992  0.5821
  732MOL0     H98801   8.266   2.396   6.716  0.5490  0.0556  1.4923
  732MOL0     H98802   8.341   2.899   7.418  2.9555 -1.0221  1.2172
  732MOL0     H98803   8.490   2.923   7.584 -1.1218 -1.8418 -2.1757
  732MOL0     H98804   8.516   3.070   8.189 -0.5875 -0.2536 -0.5555
  732MOL0     H98805   8.709   3.016   8.346  1.5123 -2.0625  1.0184
  732MOL0     H98806  10.254   2.410   7.632  0.2053  1.6953 -0.5825
  732MOL0     H98807  10.420   2.562   7.546 -1.2839 -0.0390  0.5084
  732MOL0     H98808  10.829   2.597   7.386 -2.8396 -0.9747 -2.5496
  732MOL0     H98809  10.980   2.745   7.257  3.1555  0.0728  3.7796
  732MOL0     H98810  11.064   3.044   7.068 -0.4940  0.3643  0.1911
  732MOL0     H98811  11.106   2.883   7.142  0.0075  1.1320  4.2116
  732MOL0     H98812  10.888   2.809   7.060  0.7883  0.2837  1.6838
  732MOL0     H98813  10.973   2.880   6.920 -0.1865 -0.0675 -0.6002
  732MOL0     H98814  10.846   3.104   6.995 -1.3230  0.8093  3.1858
  732MOL0     H98815  10.730   2.996   7.073 -0.9182  0.9240 -0.9854
  732MOL0     H98816  10.794   2.946   6.769 -0.3227  0.2071 -0.6236
  732MOL0     H98817  10.678   3.068   6.814  1.3083  1.4069  2.4911
  732MOL0     H98818  10.513   2.685   6.851 -0.6070 -0.6910  1.8289
  732MOL0     H98819  10.815   3.093   7.420 -1.4931 -0.3954  0.9277
  732MOL0     H98820  10.676   2.952   7.590  0.4635 -1.8033  1.8904
  733MOL0     O98821   6.083   6.977   9.009 -0.0287 -0.1975  0.7265
  733MOL0     C98822   5.973   7.018   8.976 -0.6003  0.7283  0.0695
  733MOL0     O98823   5.914   7.128   9.014  0.3875  0.2621  0.2557
  733MOL0     C98824   5.983   7.233   9.059  0.0192  0.1118  0.1279
  733MOL0     C98825   5.962   7.294   9.185  0.0891  0.0958  0.2348
  733MOL0     C98826   6.036   7.408   9.216  0.4493  0.4754  0.4021
  733MOL0     C98827   6.133   7.459   9.137  0.7132  0.9469 -0.5392
  733MOL0     O98828   6.208   7.568   9.169 -0.3360  0.2574 -0.0494
  733MOL0     C98829   6.151   7.679   9.244  0.4030  0.2607 -0.4259
  733MOL0     C98830   6.258   7.777   9.291 -0.7412 -0.3348 -1.0952
  733MOL0     C98831   6.343   7.814   9.174 -0.3547 -0.1864 -0.2146
  733MOL0     C98832   6.438   7.935   9.183 -0.1844  0.3866 -1.2494
  733MOL0     C98833   6.496   7.971   9.037  0.1023  0.0014 -0.1928
  733MOL0     C98834   6.549   8.111   9.038  0.7616 -0.4879 -0.0245
  733MOL0     C98835   6.596   8.134   8.902 -0.4442 -0.0746  0.1792
  733MOL0     C98836   6.662   8.274   8.879 -0.4079 -0.1469  0.3943
  733MOL0     N98837   6.704   8.290   8.742  0.4862  0.3563 -0.9831
  733MOL0     C98838   6.794   8.216   8.673 -0.3005  0.3704  0.3309
  733MOL0     C98839   6.835   8.298   8.572 -0.5016  0.3706  0.0581
  733MOL0     C98840   6.961   8.264   8.494 -1.0521  0.3605  0.4002
  733MOL0     C98841   6.949   8.167   8.370 -0.3253 -0.7201  0.1545
  733MOL0     C98842   6.893   8.252   8.246 -0.9431 -0.3271 -0.5555
  733MOL0     C98843   6.927   8.175   8.115  0.4790  0.2102 -0.6709
  733MOL0     O98844   6.844   8.057   8.108 -0.4753 -0.4589  0.4870
  733MOL0     C98845   6.710   8.071   8.075 -0.3692 -1.2709  1.0647
  733MOL0     C98846   6.609   8.036   8.162 -0.1709  0.1248  0.0801
  733MOL0     C98847   6.471   8.037   8.124 -0.9912  0.3393  0.2533
  733MOL0     C98848   6.374   7.988   8.227  0.4352  0.0382 -0.4823
  733MOL0     C98849   6.439   8.097   8.002  0.0489 -0.2174 -0.3336
  733MOL0     C98850   6.301   8.103   7.951  0.3629  0.2948  0.6624
  733MOL0     O98851   6.295   8.137   7.811 -0.5500  0.6435 -0.4686
  733MOL0     C98852   6.181   8.152   7.744  0.1970 -0.2632  0.7223
  733MOL0     C98853   6.098   8.266   7.776  0.0490  0.7159 -0.2147
  733MOL0     C98854   5.978   8.273   7.726  0.3105 -0.5804 -0.3929
  733MOL0     C98855   5.934   8.184   7.630  0.1100  0.4843 -0.1209
  733MOL0     O98856   5.814   8.193   7.558  0.0511 -0.0098 -0.3468
  733MOL0     C98857   5.731   8.305   7.569  0.1873 -0.6431 -0.1598
  733MOL0     C98858   5.626   8.296   7.457  0.5221 -0.0035 -0.1457
  733MOL0     C98859   5.662   8.322   7.315  0.4396 -0.7535  0.5242
  733MOL0     C98860   5.545   8.285   7.217 -0.3576 -0.1296  0.1054
  733MOL0     C98861   5.581   8.332   7.074 -0.8001  0.7652  0.4854
  733MOL0     C98862   5.703   8.247   7.020  0.8536  0.2742  0.3954
  733MOL0     C98863   5.709   8.224   6.871  0.1714  0.7101  0.1091
  733MOL0     C98864   5.729   8.350   6.795  0.4412  0.0078  0.4463
  733MOL0    Cl98865   5.886   8.424   6.831  0.0724 -0.0983 -0.0854
  733MOL0     C98866   6.011   8.070   7.606  0.2329 -0.8703  0.3893
  733MOL0     C98867   6.130   8.046   7.663 -1.1054 -0.1620 -0.9130
  733MOL0     O98868   6.202   8.083   8.025 -0.0717  0.1377  0.0265
  733MOL0     C98869   6.546   8.131   7.915  0.3434  0.2054 -0.6954
  733MOL0     C98870   6.676   8.118   7.949  0.3035 -0.0436  0.0828
  733MOL0     N98871   6.762   8.406   8.572 -0.6221  0.1773  0.2816
  733MOL0     N98872   6.681   8.410   8.672 -0.3108  1.0912 -0.0563
  733MOL0     C98873   6.163   7.395   9.017 -1.0904 -0.0878  0.3071
  733MOL0     C98874   6.084   7.278   8.973 -0.3514 -0.6336  0.0492
  733MOL0     C98875   5.885   6.926   8.891 -0.0004 -0.9149  0.5210
  733MOL0     C98876   5.924   6.809   8.837 -0.6781  0.2597 -0.2302
  733MOL0     C98877   5.851   6.735   8.751 -0.1609 -0.0304  0.9342
  733MOL0     C98878   5.714   6.755   8.738 -0.1346  0.3311  0.0014
  733MOL0     O98879   5.643   6.658   8.674 -0.8005  0.1726  0.6800
  733MOL0     C98880   5.530   6.693   8.604  0.3869 -0.2957 -0.0149
  733MOL0     C98881   5.457   6.567   8.560 -1.2394 -0.6961  0.4454
  733MOL0     C98882   5.548   6.488   8.458  0.3985 -0.2756  0.8140
  733MOL0     C98883   5.480   6.378   8.380  0.4449  0.2183 -0.3632
  733MOL0     C98884   5.381   6.449   8.290  1.4038 -0.0227  0.8269
  733MOL0     C98885   5.300   6.513   8.228  1.1756  0.7153  1.1683
  733MOL0     C98886   5.663   6.871   8.798  0.4300 -0.5744 -0.0973
  733MOL0     C98887   5.748   6.958   8.870 -0.1301  0.1283  0.0882
  733MOL0     H98888   5.880   7.251   9.240 -2.0734  2.8687 -0.5904
  733MOL0     H98889   6.007   7.454   9.311  1.8300  0.4858  0.8473
  733MOL0     H98890   6.084   7.728   9.173  0.0892  0.6881  0.1551
  733MOL0     H98891   6.102   7.638   9.332 -0.3101 -0.9029 -1.3251
  733MOL0     H98892   6.198   7.862   9.325 -1.4927 -1.7427  1.3757
  733MOL0     H98893   6.307   7.734   9.379  1.0645 -3.1109 -3.3199
  733MOL0     H98894   6.413   7.735   9.142  2.8298  2.7216 -1.0019
  733MOL0     H98895   6.290   7.845   9.084  1.1262  1.1843 -0.6445
  733MOL0     H98896   6.378   8.016   9.225 -1.0641 -0.7687 -0.1940
  733MOL0     H98897   6.520   7.912   9.252  1.2596  0.2986 -2.9310
  733MOL0     H98898   6.566   7.890   9.015  1.3423  1.3941 -1.6349
  733MOL0     H98899   6.417   7.965   8.962  0.9842 -0.2525 -1.1279
  733MOL0     H98900   6.471   8.177   9.077  1.6053 -0.2338  1.2999
  733MOL0     H98901   6.627   8.130   9.112  0.6554  2.3315 -0.5130
  733MOL0     H98902   6.672   8.059   8.878  2.6099  2.9506 -0.4879
  733MOL0     H98903   6.509   8.127   8.836  0.5490 -0.5344 -1.1439
  733MOL0     H98904   6.753   8.274   8.941 -1.1564 -0.7435  1.5262
  733MOL0     H98905   6.590   8.346   8.917  0.3467  0.2503  1.1109
  733MOL0     H98906   6.852   8.130   8.705 -1.3236 -1.7643 -3.0226
  733MOL0     H98907   7.012   8.352   8.455  2.7823 -1.0037  1.8352
  733MOL0     H98908   7.026   8.216   8.568 -0.9879 -2.9138 -1.5632
  733MOL0     H98909   6.880   8.086   8.396  2.1718 -2.8355  0.6212
  733MOL0     H98910   7.051   8.131   8.350 -0.9321 -2.4404  0.0240
  733MOL0     H98911   6.935   8.353   8.244 -2.9167  0.6816  2.4835
  733MOL0     H98912   6.786   8.265   8.260 -0.4900  3.2305  0.4379
  733MOL0     H98913   7.035   8.158   8.121  1.2883  3.3152 -3.5177
  733MOL0     H98914   6.906   8.249   8.037  0.6407  1.5001  0.4818
  733MOL0     H98915   6.629   8.010   8.266  0.9652  1.4415  0.2182
  733MOL0     H98916   6.326   7.895   8.196 -1.7383  1.0599 -0.4147
  733MOL0     H98917   6.427   7.974   8.321 -0.0683 -2.8515 -0.5368
  733MOL0     H98918   6.289   8.052   8.253  0.1528  0.1968 -1.7453
  733MOL0     H98919   6.128   8.343   7.846  0.6845 -0.3341  0.7236
  733MOL0     H98920   5.909   8.353   7.753 -0.3508 -0.4437 -2.3576
  733MOL0     H98921   5.671   8.290   7.660  0.7386  1.1070  0.5354
  733MOL0     H98922   5.781   8.402   7.563 -0.4318 -0.4078 -2.4139
  733MOL0     H98923   5.590   8.193   7.446 -1.2502  0.6914 -1.3176
  733MOL0     H98924   5.550   8.370   7.481  1.2092  1.5840 -2.4827
  733MOL0     H98925   5.753   8.263   7.298 -0.0327 -1.1565 -0.7553
  733MOL0     H98926   5.674   8.429   7.296 -1.4030 -0.7768 -1.0686
  733MOL0     H98927   5.537   8.176   7.223 -5.5289  0.0688  1.2596
  733MOL0     H98928   5.454   8.332   7.257 -0.0290 -1.1905  2.2302
  733MOL0     H98929   5.606   8.438   7.080 -0.5083  0.7055  0.3514
  733MOL0     H98930   5.487   8.323   7.018  0.1429  1.1121 -1.2177
  733MOL0     H98931   5.796   8.286   7.063  0.6746 -2.5123  3.7243
  733MOL0     H98932   5.693   8.149   7.067 -1.9013  0.3211  0.0764
  733MOL0     H98933   5.619   8.168   6.845  1.2146 -1.2570  0.5770
  733MOL0     H98934   5.796   8.164   6.842  0.0806  0.3728  0.5119
  733MOL0     H98935   5.653   8.424   6.821  1.3967  0.3985  2.3047
  733MOL0     H98936   5.726   8.330   6.688  1.0212  2.4800 -0.1181
  733MOL0     H98937   5.966   8.001   7.535  1.6390  1.4281 -2.9761
  733MOL0     H98938   6.176   7.947   7.658 -1.3768 -0.3145 -0.4656
  733MOL0     H98939   6.527   8.158   7.812 -1.1754  1.0395 -0.2247
  733MOL0     H98940   6.749   8.153   7.876 -0.0938  2.7258  0.8926
  733MOL0     H98941   6.226   7.444   8.943 -2.8643 -0.2538 -1.3917
  733MOL0     H98942   6.100   7.229   8.878  1.3828  0.8923 -0.5061
  733MOL0     H98943   6.028   6.781   8.841 -0.7569 -0.5137 -2.3937
  733MOL0     H98944   5.907   6.652   8.710 -2.2393 -1.0003 -0.0456
  733MOL0     H98945   5.466   6.745   8.676 -1.0441 -1.8808 -0.0697
  733MOL0     H98946   5.551   6.761   8.521 -0.6124 -1.1610 -1.0151
  733MOL0     H98947   5.364   6.598   8.511 -0.5394 -0.1414 -0.5766
  733MOL0     H98948   5.431   6.504   8.645 -4.8414  2.5517  2.0419
  733MOL0     H98949   5.632   6.431   8.499  0.2249 -0.7621  0.4994
  733MOL0     H98950   5.594   6.559   8.389  0.2270  0.1884  1.1737
  733MOL0     H98951   5.434   6.314   8.456  0.2261  1.2438  0.4004
  733MOL0     H98952   5.564   6.330   8.329  1.6927  2.8039 -0.9201
  733MOL0     H98953   5.212   6.567   8.203  0.5958 -0.8333 -0.3840
  733MOL0     H98954   5.560   6.900   8.781  1.5049  3.8121 -0.1668
  733MOL0     H98955   5.698   7.043   8.915 -3.5916 -2.2638  1.1482
  734MOL0     O98956   0.649   4.317   4.879 -0.5992  0.1477 -0.1042
  734MOL0     C98957   0.761   4.345   4.834 -1.0261  0.0156  0.3757
  734MOL0     O98958   0.862   4.255   4.800  0.5709  0.7729  0.0890
  734MOL0     C98959   0.843   4.121   4.816  0.1890 -0.2264 -0.5348
  734MOL0     C98960   0.781   4.066   4.929 -0.2307 -0.2152  0.6761
  734MOL0     C98961   0.760   3.925   4.943 -0.6066  0.0747 -0.9133
  734MOL0     C98962   0.781   3.839   4.844  0.3113  0.7720  1.4890
  734MOL0     O98963   0.738   3.709   4.835  0.1434  1.0244  1.2476
  734MOL0     C98964   0.803   3.634   4.931 -0.2321  0.3504  0.2957
  734MOL0     C98965   0.924   3.549   4.877  0.0252  0.2191 -0.8848
  734MOL0     C98966   1.019   3.628   4.790  0.4996 -0.5548  0.2654
  734MOL0     C98967   1.152   3.544   4.786  0.4315 -0.1490 -0.6424
  734MOL0     C98968   1.245   3.562   4.662  0.7847 -0.6196  0.0285
  734MOL0     C98969   1.220   3.493   4.532 -0.1463  0.5511  0.3905
  734MOL0     C98970   1.188   3.337   4.544 -0.2655 -0.2975  0.0894
  734MOL0     C98971   1.223   3.260   4.416  0.1221 -0.2739  0.4118
  734MOL0     N98972   1.370   3.257   4.388  0.0880 -0.6458  0.2890
  734MOL0     C98973   1.426   3.319   4.274 -0.2111  0.3603  0.6119
  734MOL0     C98974   1.553   3.262   4.281 -0.2640 -0.1607  0.3231
  734MOL0     C98975   1.649   3.254   4.163 -0.4742  0.0025  0.4277
  734MOL0     C98976   1.641   3.146   4.060  0.2564 -0.4309  0.4722
  734MOL0     C98977   1.532   3.144   3.949 -0.1589  0.1409 -0.7613
  734MOL0     C98978   1.540   3.261   3.854 -0.5319 -0.1985 -1.1720
  734MOL0     O98979   1.467   3.252   3.739  0.3796 -0.6244 -0.5203
  734MOL0     C98980   1.331   3.266   3.748 -0.2299 -0.7544 -0.1017
  734MOL0     C98981   1.274   3.245   3.622 -0.5857  0.0899 -0.3238
  734MOL0     C98982   1.139   3.248   3.589  0.0112 -0.0218 -0.3315
  734MOL0     C98983   1.097   3.215   3.441  0.7873  0.2339  0.5043
  734MOL0     C98984   1.052   3.286   3.707 -0.2675 -0.3295 -0.4843
  734MOL0     C98985   0.904   3.294   3.698  0.0108  0.1707 -0.3407
  734MOL0     O98986   0.837   3.290   3.819 -0.3547  0.0350 -0.0832
  734MOL0     C98987   0.700   3.293   3.819  0.6306 -0.3731 -0.7856
  734MOL0     C98988   0.622   3.210   3.732 -0.3944 -0.6168  1.7154
  734MOL0     C98989   0.489   3.234   3.721 -0.4945  0.8489 -0.7857
  734MOL0     C98990   0.423   3.325   3.807 -0.4566  1.3513  0.2699
  734MOL0     O98991   0.284   3.344   3.804  0.4124 -0.1423  0.2499
  734MOL0     C98992   0.193   3.239   3.772  0.1411 -0.3121 -0.9742
  734MOL0     C98993   0.054   3.304   3.748 -0.2869  0.4839 -0.9395
  734MOL0     C98994   0.076   3.397   3.632  0.1636  0.3653 -0.4108
  734MOL0     C98995  -0.057   3.417   3.563 -0.5513 -1.0433  0.4091
  734MOL0     C98996  -0.035   3.489   3.425  0.4380 -0.5149 -0.1977
  734MOL0     C98997  -0.162   3.532   3.345 -0.5945 -0.9444  0.1667
  734MOL0     C98998  -0.132   3.623   3.227 -0.1245  0.9141 -1.0942
  734MOL0     C98999  -0.075   3.542   3.112 -0.4806 -0.6698 -0.1470
  734MOL0    Cl99000   0.104   3.535   3.125 -0.2282 -0.2292 -0.2832
  734MOL0     C99001   0.495   3.401   3.904 -0.3250  0.9561  0.3768
  734MOL0     C99002   0.632   3.381   3.907 -0.7096 -0.2288  0.5448
  734MOL0     O99003   0.852   3.325   3.589  0.0889 -0.3589 -0.1749
  734MOL0     C99004   1.117   3.328   3.833  0.0570 -0.0039  0.3872
  734MOL0     C99005   1.253   3.314   3.849  1.0396  0.4015 -1.0939
  734MOL0     N99006   1.567   3.186   4.396  0.0950  0.1625  0.3851
  734MOL0     N99007   1.460   3.183   4.458  0.4462  0.0524 -0.1964
  734MOL0     C99008   0.820   3.893   4.722 -0.0085 -0.5985 -0.0177
  734MOL0     C99009   0.859   4.026   4.712 -0.2414  0.6719 -0.7473
  734MOL0     C99010   0.798   4.490   4.818  0.8662  0.1285  0.2292
  734MOL0     C99011   0.898   4.534   4.732  0.1417 -0.2556 -0.2071
  734MOL0     C99012   0.905   4.675   4.706 -0.1362 -0.5558 -0.5094
  734MOL0     C99013   0.814   4.767   4.763  0.3093 -0.4666  0.4651
  734MOL0     O99014   0.800   4.901   4.722 -0.2019 -0.1231  0.2565
  734MOL0     C99015   0.896   4.956   4.634 -0.4180 -0.4792 -0.2360
  734MOL0     C99016   0.863   5.096   4.575 -1.0283 -0.1814  0.4075
  734MOL0     C99017   0.862   5.199   4.694 -0.7666  0.5998 -0.1511
  734MOL0     C99018   0.739   5.205   4.783  0.5180  0.4730 -0.3936
  734MOL0     C99019   0.628   5.272   4.720  0.2602 -0.6413 -0.7782
  734MOL0     C99020   0.540   5.340   4.676  0.0633 -0.5872  0.0615
  734MOL0     C99021   0.727   4.724   4.848  0.7243 -1.1948 -0.4393
  734MOL0     C99022   0.713   4.585   4.876 -0.5454 -0.0188 -0.2536
  734MOL0     H99023   0.743   4.132   5.007 -3.2086  1.5689 -1.9844
  734MOL0     H99024   0.723   3.880   5.034 -0.4083  4.8775  1.8696
  734MOL0     H99025   0.819   3.677   5.031 -0.0011 -3.9623  2.3750
  734MOL0     H99026   0.720   3.565   4.950 -0.5559  0.4505 -0.6984
  734MOL0     H99027   0.969   3.516   4.971 -1.3413  0.3661 -0.1527
  734MOL0     H99028   0.886   3.464   4.821 -0.8793 -0.7873  1.1671
  734MOL0     H99029   0.961   3.637   4.697  1.6265 -0.3036 -0.4322
  734MOL0     H99030   1.034   3.722   4.844  0.2050 -0.4036  0.0873
  734MOL0     H99031   1.212   3.576   4.871  1.5889 -1.6163 -0.8715
  734MOL0     H99032   1.122   3.439   4.783 -2.1828  0.5266 -0.5302
  734MOL0     H99033   1.242   3.670   4.645  0.0439 -0.5074  0.7792
  734MOL0     H99034   1.350   3.541   4.686  3.0943  1.6754 -6.0902
  734MOL0     H99035   1.135   3.545   4.488 -2.7544 -2.3154  1.6970
  734MOL0     H99036   1.308   3.510   4.469 -1.2325  0.2062 -1.2893
  734MOL0     H99037   1.242   3.310   4.635 -2.1572 -1.5591  0.8902
  734MOL0     H99038   1.081   3.327   4.566 -0.4692  1.0569 -0.1747
  734MOL0     H99039   1.174   3.295   4.325  2.1936  0.3402 -0.5334
  734MOL0     H99040   1.186   3.159   4.436  0.6240 -1.0130 -2.0150
  734MOL0     H99041   1.378   3.392   4.209 -0.9600  0.1480  0.9184
  734MOL0     H99042   1.645   3.355   4.122 -1.3244 -0.7788 -1.5152
  734MOL0     H99043   1.746   3.243   4.212  0.7918 -2.5469 -2.3252
  734MOL0     H99044   1.639   3.050   4.113  6.7486 -0.6334  1.1091
  734MOL0     H99045   1.736   3.146   4.006 -0.6366  0.3078 -1.1379
  734MOL0     H99046   1.431   3.144   3.992 -1.2948 -2.7061 -3.0714
  734MOL0     H99047   1.542   3.057   3.884  3.5586  1.0095 -1.5822
  734MOL0     H99048   1.649   3.268   3.842 -0.0416  1.6568  2.8456
  734MOL0     H99049   1.515   3.349   3.915  2.9535  0.6569 -0.7296
  734MOL0     H99050   1.339   3.208   3.543  1.2994 -2.2904  2.1501
  734MOL0     H99051   1.168   3.255   3.368 -1.5026  1.6798 -1.0325
  734MOL0     H99052   1.112   3.107   3.434  1.2204  0.4167 -2.6173
  734MOL0     H99053   0.998   3.247   3.408  1.0844  1.4850  0.7689
  734MOL0     H99054   0.662   3.129   3.671 -1.2967 -1.4216  2.1750
  734MOL0     H99055   0.440   3.175   3.644  4.3941 -3.1929 -1.3217
  734MOL0     H99056   0.219   3.188   3.679 -2.4639 -0.6704 -1.5750
  734MOL0     H99057   0.199   3.170   3.856  1.1983 -0.3686 -1.0835
  734MOL0     H99058  -0.019   3.227   3.722  0.7751 -0.7281 -0.4471
  734MOL0     H99059   0.017   3.350   3.841  2.2886 -1.4083  1.1749
  734MOL0     H99060   0.151   3.353   3.566 -1.1722  1.6253 -2.9197
  734MOL0     H99061   0.120   3.488   3.674 -1.1729  0.7112  0.2940
  734MOL0     H99062  -0.108   3.320   3.555 -2.1549 -0.4282  2.2139
  734MOL0     H99063  -0.127   3.481   3.618 -0.9553  0.0947 -1.3311
  734MOL0     H99064   0.014   3.419   3.356 -1.6409 -0.9582 -1.3025
  734MOL0     H99065   0.032   3.575   3.430  0.5789 -0.6599  0.6706
  734MOL0     H99066  -0.214   3.441   3.316 -1.5571 -0.3099 -0.1293
  734MOL0     H99067  -0.235   3.582   3.410  1.0908 -0.4422  1.7735
  734MOL0     H99068  -0.074   3.713   3.249 -2.5248  3.1947 -3.3973
  734MOL0     H99069  -0.229   3.663   3.196 -0.8203  4.0175  3.9094
  734MOL0     H99070  -0.104   3.589   3.017  0.4068 -0.7720 -0.4821
  734MOL0     H99071  -0.124   3.444   3.111 -2.1862  0.1083  1.4342
  734MOL0     H99072   0.435   3.479   3.951 -1.6492 -0.3796  0.9956
  734MOL0     H99073   0.691   3.442   3.975 -1.4802 -0.0227  1.0409
  734MOL0     H99074   1.059   3.370   3.915  0.2163 -0.8401  0.9349
  734MOL0     H99075   1.299   3.335   3.945 -2.0568  0.4946  0.4917
  734MOL0     H99076   0.831   3.822   4.640  0.2147  0.4181 -0.8920
  734MOL0     H99077   0.916   4.053   4.624  1.2945  2.5960  0.7696
  734MOL0     H99078   0.974   4.468   4.692  2.3874  2.2474 -0.4047
  734MOL0     H99079   0.983   4.711   4.640 -1.2254 -0.1429 -1.5928
  734MOL0     H99080   0.988   4.940   4.692 -2.1372 -1.1150  2.4953
  734MOL0     H99081   0.909   4.882   4.555  0.4875 -2.9508  2.0789
  734MOL0     H99082   0.774   5.104   4.513 -1.3037  0.9249  0.9322
  734MOL0     H99083   0.950   5.113   4.510 -0.8240 -0.3768  0.6264
  734MOL0     H99084   0.890   5.298   4.657  2.3090  0.6072  1.8297
  734MOL0     H99085   0.942   5.172   4.763  0.8103  2.3848 -1.2019
  734MOL0     H99086   0.745   5.269   4.871 -1.6556  0.1564  0.0523
  734MOL0     H99087   0.711   5.104   4.814  3.6188 -0.8376 -1.4263
  734MOL0     H99088   0.458   5.392   4.631  1.6055  1.7736 -0.1594
  734MOL0     H99089   0.655   4.796   4.885  2.3634  1.2529 -1.7237
  734MOL0     H99090   0.632   4.553   4.941 -1.2654  0.8456 -0.6932
  735MOL0     O99091   8.467   3.287  10.114 -1.0135  0.1028  0.8911
  735MOL0     C99092   8.543   3.384  10.114  0.7092 -0.1478 -0.3695
  735MOL0     O99093   8.510   3.508  10.085  1.0412  0.2061 -0.2562
  735MOL0     C99094   8.396   3.536  10.016 -0.5477  0.5419  0.6856
  735MOL0     C99095   8.317   3.642  10.066 -1.0104 -0.5330 -0.1366
  735MOL0     C99096   8.206   3.679   9.987  0.2051  0.3710 -0.2435
  735MOL0     C99097   8.183   3.612   9.868  1.1261 -0.8078 -0.7344
  735MOL0     O99098   8.073   3.652   9.796 -0.1669 -0.0269 -0.0119
  735MOL0     C99099   8.102   3.699   9.661  0.1347  0.5874 -0.2143
  735MOL0     C99100   7.974   3.775   9.615 -0.0726 -0.6222  0.8120
  735MOL0     C99101   7.948   3.890   9.702 -0.0430 -0.3037 -0.0121
  735MOL0     C99102   7.828   3.973   9.646 -0.4812 -0.7127 -0.0967
  735MOL0     C99103   7.703   3.925   9.706  0.7399 -0.3731 -0.5975
  735MOL0     C99104   7.637   4.017   9.811 -0.4092  0.1761 -0.7346
  735MOL0     C99105   7.716   4.080   9.933  0.6138 -0.2185 -0.0800
  735MOL0     C99106   7.643   4.188  10.013 -0.3757  0.1450  0.1520
  735MOL0     N99107   7.539   4.139  10.091 -0.9752  0.0998  0.1403
  735MOL0     C99108   7.409   4.125  10.039 -0.5161  0.4307  0.4707
  735MOL0     C99109   7.328   4.110  10.146  0.9464 -0.6052 -1.0003
  735MOL0     C99110   7.176   4.099  10.138 -0.0486  0.4318 -0.9263
  735MOL0     C99111   7.101   4.234  10.146 -0.5795 -0.1868  0.2760
  735MOL0     C99112   7.112   4.299  10.279 -0.6844  0.6882  0.7274
  735MOL0     C99113   7.016   4.230  10.376 -0.0819 -0.2180  0.1302
  735MOL0     O99114   6.883   4.218  10.319 -1.5730  0.0205 -0.3937
  735MOL0     C99115   6.779   4.237  10.399  0.8666 -0.9761  0.2860
  735MOL0     C99116   6.767   4.197  10.536 -0.1261  0.2824  0.2972
  735MOL0     C99117   6.660   4.227  10.623 -0.6527 -0.3436 -0.5064
  735MOL0     C99118   6.674   4.169  10.765  0.3825  0.3232 -0.4195
  735MOL0     C99119   6.554   4.308  10.571 -0.4499 -0.5003 -0.3838
  735MOL0     C99120   6.434   4.346  10.640  0.4070 -0.2003 -0.2624
  735MOL0     O99121   6.317   4.352  10.566 -0.3754 -0.7004 -0.1569
  735MOL0     C99122   6.199   4.331  10.640  0.1475  0.7139  0.0025
  735MOL0     C99123   6.148   4.417  10.748 -0.4439 -0.1860 -0.2760
  735MOL0     C99124   6.024   4.396  10.802  0.7753  0.4882  0.3967
  735MOL0     C99125   5.944   4.294  10.748 -0.1363  1.0415 -0.7523
  735MOL0     O99126   5.823   4.256  10.790  0.2837 -0.3461 -0.7097
  735MOL0     C99127   5.741   4.343  10.873  0.6484  0.2983  1.1196
  735MOL0     C99128   5.743   4.318  11.028 -0.1999 -0.5524 -0.3944
  735MOL0     C99129   5.712   4.171  11.053  0.4855  0.4996  0.6717
  735MOL0     C99130   5.802   4.095  11.143  0.3568  0.1494  0.4219
  735MOL0     C99131   5.754   3.945  11.131 -1.1660 -0.2558 -0.0315
  735MOL0     C99132   5.831   3.861  11.231  0.7361  0.0256 -1.1270
  735MOL0     C99133   5.990   3.861  11.211  0.1847  0.9343 -0.3491
  735MOL0     C99134   6.074   3.768  11.302  0.0602 -0.3051  0.9663
  735MOL0    Cl99135   6.040   3.773  11.477  0.1054  0.5561  0.0781
  735MOL0     C99136   5.992   4.203  10.655  0.3815  0.1991  0.3810
  735MOL0     C99137   6.121   4.219  10.598 -1.1050  0.7818 -0.7380
  735MOL0     O99138   6.447   4.386  10.751 -0.0285  0.4022 -0.6666
  735MOL0     C99139   6.575   4.354  10.439  0.3589 -0.3898  0.3984
  735MOL0     C99140   6.686   4.325  10.352 -0.1226 -0.8143 -0.3902
  735MOL0     N99141   7.408   4.093  10.254  0.8053  0.1696 -0.1987
  735MOL0     N99142   7.535   4.107  10.226  0.9598  0.2503  0.8147
  735MOL0     C99143   8.250   3.498   9.826 -0.9693  0.0871 -0.1389
  735MOL0     C99144   8.361   3.467   9.896 -0.3702  0.5036  0.5863
  735MOL0     C99145   8.679   3.369  10.168 -1.3995 -0.0056 -0.3897
  735MOL0     C99146   8.729   3.245  10.212  0.1286  0.8748  0.4322
  735MOL0     C99147   8.867   3.219  10.257 -0.0738 -0.1064  0.4248
  735MOL0     C99148   8.955   3.324  10.268  0.5131  0.1231 -0.1946
  735MOL0     O99149   9.086   3.322  10.303 -0.4125  0.9900  0.3199
  735MOL0     C99150   9.151   3.195  10.333  0.0843  0.5717 -0.3198
  735MOL0     C99151   9.301   3.212  10.368 -0.1589 -0.3728 -0.8492
  735MOL0     C99152   9.331   3.321  10.481 -0.4222  0.5163  0.0667
  735MOL0     C99153   9.466   3.295  10.542  1.0151  0.4247  0.4549
  735MOL0     C99154   9.517   3.393  10.633 -1.0154  0.2050 -0.4876
  735MOL0     C99155   9.564   3.463  10.724  0.2766  0.3867 -1.0992
  735MOL0     C99156   8.901   3.449  10.229  0.8888 -0.5701 -0.7123
  735MOL0     C99157   8.771   3.471  10.175  0.1303  0.6954  0.0500
  735MOL0     H99158   8.343   3.691  10.159 -0.7516 -1.3964  0.2563
  735MOL0     H99159   8.139   3.763  10.007 -0.1417  0.3227 -1.1535
  735MOL0     H99160   8.185   3.770   9.654  0.0847  0.6228 -0.4353
  735MOL0     H99161   8.121   3.615   9.594 -2.9225  1.2087 -2.0036
  735MOL0     H99162   7.992   3.811   9.512 -1.5986  2.4527  1.4979
  735MOL0     H99163   7.888   3.708   9.613 -0.6048  0.0582  0.2549
  735MOL0     H99164   7.927   3.858   9.804  0.3338  3.5703  1.4545
  735MOL0     H99165   8.037   3.952   9.713 -0.5857  0.0478  3.6426
  735MOL0     H99166   7.851   4.080   9.646 -1.1662 -0.5549  0.6492
  735MOL0     H99167   7.816   3.945   9.541 -2.1118  0.7975 -0.3638
  735MOL0     H99168   7.633   3.899   9.625 -1.3563 -0.1971  1.0577
  735MOL0     H99169   7.712   3.828   9.756  1.1977 -1.4813 -2.6986
  735MOL0     H99170   7.599   4.101   9.753  0.1897  1.1269  0.2254
  735MOL0     H99171   7.562   3.951   9.857  2.0302 -1.2027  1.6009
  735MOL0     H99172   7.747   3.998   9.998  1.0718 -1.4277 -1.7703
  735MOL0     H99173   7.799   4.140   9.894 -0.0997  0.6256 -0.3364
  735MOL0     H99174   7.600   4.263   9.946 -3.7147 -2.0565 -0.4164
  735MOL0     H99175   7.708   4.234  10.088 -2.6929  0.4915  2.0803
  735MOL0     H99176   7.386   4.142   9.934  1.9084 -4.4348 -1.1033
  735MOL0     H99177   7.152   4.043  10.047  0.0360  0.7361 -1.1368
  735MOL0     H99178   7.146   4.031  10.219  2.0676  0.2831 -0.2202
  735MOL0     H99179   6.998   4.221  10.113  0.2451 -0.0982 -2.5767
  735MOL0     H99180   7.139   4.297  10.065 -0.0808 -2.2116 -1.1141
  735MOL0     H99181   7.098   4.407  10.271  0.5444  0.9141  1.3115
  735MOL0     H99182   7.214   4.294  10.319 -0.6841 -0.5184  0.6049
  735MOL0     H99183   7.018   4.291  10.466  1.4677  0.0277 -0.0410
  735MOL0     H99184   7.051   4.131  10.407  1.0013  0.1691  0.2065
  735MOL0     H99185   6.848   4.129  10.563 -1.7206 -1.9133 -0.1691
  735MOL0     H99186   6.605   4.208  10.840  1.4873  0.1762  0.6992
  735MOL0     H99187   6.678   4.060  10.772  2.8135  0.4033  0.5447
  735MOL0     H99188   6.772   4.209  10.794  0.2579 -0.2834  0.8891
  735MOL0     H99189   6.218   4.493  10.781  1.8170 -1.0836 -2.5890
  735MOL0     H99190   5.982   4.463  10.877 -0.8769 -3.6428  3.5834
  735MOL0     H99191   5.751   4.449  10.850  0.7392  0.7440  3.0085
  735MOL0     H99192   5.642   4.307  10.845  2.0083 -2.7789 -0.1488
  735MOL0     H99193   5.841   4.353  11.063 -0.4923  0.3249 -0.4209
  735MOL0     H99194   5.664   4.381  11.069 -0.0849 -0.8313  0.2587
  735MOL0     H99195   5.699   4.113  10.961 -0.9936 -0.6025  1.5230
  735MOL0     H99196   5.611   4.169  11.095  0.7140  1.5968  1.3253
  735MOL0     H99197   5.902   4.111  11.099 -0.2262 -0.3185 -1.1681
  735MOL0     H99198   5.788   4.125  11.247 -1.4324  0.9036 -0.0162
  735MOL0     H99199   5.770   3.908  11.030 -1.1559 -1.1285  0.2856
  735MOL0     H99200   5.647   3.931  11.148 -1.1650  0.0418  0.2232
  735MOL0     H99201   5.803   3.893  11.331 -1.9476 -2.5163 -0.9517
  735MOL0     H99202   5.799   3.757  11.220  2.4944 -0.5433 -1.3298
  735MOL0     H99203   6.032   3.960  11.230  1.3309  0.0523  2.0254
  735MOL0     H99204   6.002   3.852  11.103  0.2748  1.6677 -0.4081
  735MOL0     H99205   6.179   3.798  11.298 -0.2295  0.6710  0.4057
  735MOL0     H99206   6.053   3.669  11.261 -1.5850  0.4003  0.0198
  735MOL0     H99207   5.926   4.119  10.638  2.2848 -1.9982  3.0517
  735MOL0     H99208   6.166   4.155  10.523 -1.9269  1.9127 -2.2426
  735MOL0     H99209   6.495   4.417  10.402  0.0469  0.4540  2.3591
  735MOL0     H99210   6.689   4.373  10.255 -0.6598 -0.9481 -0.4783
  735MOL0     H99211   8.235   3.444   9.732  0.1123  0.5911 -0.6090
  735MOL0     H99212   8.423   3.385   9.860  1.1366  2.4719 -1.6170
  735MOL0     H99213   8.662   3.160  10.208  0.6126  0.5480 -1.1445
  735MOL0     H99214   8.896   3.121  10.292 -1.5857 -0.0153  2.0969
  735MOL0     H99215   9.105   3.170  10.429 -1.0858 -0.0018 -1.0170
  735MOL0     H99216   9.131   3.117  10.260 -0.2815  0.6548 -0.3107
  735MOL0     H99217   9.357   3.226  10.275 -1.9939  0.9078 -1.8270
  735MOL0     H99218   9.328   3.116  10.414 -0.4829 -0.2760 -0.4547
  735MOL0     H99219   9.249   3.330  10.553 -1.4757  0.6147 -1.0925
  735MOL0     H99220   9.342   3.421  10.437  2.5349  2.1258  3.9228
  735MOL0     H99221   9.536   3.282  10.459 -0.2922  0.2618 -0.6619
  735MOL0     H99222   9.458   3.198  10.593  1.3046 -0.9120 -1.8976
  735MOL0     H99223   9.600   3.507  10.815 -1.0900  0.6929 -0.6817
  735MOL0     H99224   8.967   3.535  10.229 -1.8620  1.7358  0.1592
  735MOL0     H99225   8.737   3.571  10.150 -1.6360  0.8133  2.5419
  736MOL0     O99226   4.083   7.461   7.076 -0.9379 -0.3410  0.5703
  736MOL0     C99227   4.054   7.354   7.113  0.3893  0.2701 -0.2141
  736MOL0     O99228   4.130   7.245   7.106 -0.2623  0.3661  0.4959
  736MOL0     C99229   4.267   7.233   7.082  0.0997 -0.2268 -0.5760
  736MOL0     C99230   4.347   7.343   7.031  0.1265 -0.2872 -0.3837
  736MOL0     C99231   4.483   7.312   7.003 -0.3981 -0.1481 -0.1681
  736MOL0     C99232   4.531   7.186   7.026 -0.3287 -0.5485  0.4686
  736MOL0     O99233   4.671   7.179   7.010  0.0120 -0.4287 -0.5324
  736MOL0     C99234   4.706   7.054   6.948 -0.4737 -0.2609  0.5880
  736MOL0     C99235   4.842   7.066   6.867 -0.5556 -0.1708 -0.5485
  736MOL0     C99236   4.837   7.159   6.753  0.1977  0.2395  1.1227
  736MOL0     C99237   4.886   7.307   6.788  0.5207  0.5265  0.2096
  736MOL0     C99238   4.901   7.381   6.656 -0.7338  0.7243  0.4771
  736MOL0     C99239   4.955   7.531   6.660  0.1375 -0.3790  0.0649
  736MOL0     C99240   4.976   7.588   6.517 -0.3132 -0.3603  0.1959
  736MOL0     C99241   4.834   7.628   6.449 -0.3064  0.2735 -0.0572
  736MOL0     N99242   4.836   7.730   6.338 -0.5014 -0.0027  0.3036
  736MOL0     C99243   4.826   7.868   6.360  0.0398 -0.1273 -0.3774
  736MOL0     C99244   4.857   7.934   6.242 -0.2020  0.7298  0.1293
  736MOL0     C99245   4.883   8.084   6.226  0.4207 -0.6637 -0.1814
  736MOL0     C99246   4.743   8.157   6.200  0.4402 -0.2122  0.1550
  736MOL0     C99247   4.642   8.120   6.305  0.4486  0.2913 -0.2262
  736MOL0     C99248   4.525   8.217   6.330  0.0276 -0.0966  0.3531
  736MOL0     O99249   4.481   8.293   6.210 -0.6974 -0.7316 -0.6733
  736MOL0     C99250   4.353   8.350   6.222  0.1237  0.4566 -0.2335
  736MOL0     C99251   4.282   8.360   6.102 -0.4856 -0.0310  0.0313
  736MOL0     C99252   4.151   8.406   6.099 -0.2830 -0.7779 -1.0707
  736MOL0     C99253   4.090   8.418   5.963  0.7013 -0.2742 -0.2287
  736MOL0     C99254   4.095   8.456   6.221  0.8393  0.0353 -0.3526
  736MOL0     C99255   3.961   8.520   6.243  1.3509 -0.4082  0.0710
  736MOL0     O99256   3.913   8.591   6.145  0.7105 -0.4163  0.3625
  736MOL0     C99257   3.773   8.607   6.126  0.2651 -1.2878 -0.5494
  736MOL0     C99258   3.725   8.742   6.140 -0.4917 -0.3802 -1.1341
  736MOL0     C99259   3.591   8.782   6.137 -0.6808  0.3408  0.5722
  736MOL0     C99260   3.498   8.684   6.088  1.2446  0.5904 -0.3843
  736MOL0     O99261   3.368   8.706   6.078 -0.4359 -0.1885  0.1756
  736MOL0     C99262   3.295   8.765   6.188 -0.1442  0.0848 -0.4289
  736MOL0     C99263   3.139   8.729   6.187 -0.3849 -0.5445 -0.3508
  736MOL0     C99264   3.076   8.791   6.076  0.5864 -0.6090  0.3876
  736MOL0     C99265   2.938   8.726   6.060  0.3349 -0.5981 -1.0683
  736MOL0     C99266   2.862   8.797   5.949 -0.4447  0.4483  0.2080
  736MOL0     C99267   2.898   8.741   5.810 -0.0043 -0.1400  0.1714
  736MOL0     C99268   2.824   8.811   5.702 -0.2876  0.1897 -0.3734
  736MOL0     C99269   2.845   8.738   5.565 -0.3890  0.1013 -0.2785
  736MOL0    Cl99270   2.793   8.836   5.425  0.2521 -0.0779 -0.1277
  736MOL0     C99271   3.547   8.549   6.057 -0.3668  0.6932  0.3554
  736MOL0     C99272   3.684   8.512   6.089  0.3512 -0.3775  0.9370
  736MOL0     O99273   3.903   8.496   6.349 -0.4461 -0.3627 -0.1868
  736MOL0     C99274   4.171   8.445   6.338  0.5241  0.6273  0.0381
  736MOL0     C99275   4.301   8.396   6.342 -0.2741 -0.5368 -0.0321
  736MOL0     N99276   4.890   7.833   6.154 -0.9878 -0.3097  0.6961
  736MOL0     N99277   4.880   7.717   6.206  0.5778 -0.3631 -0.0712
  736MOL0     C99278   4.449   7.081   7.071 -0.1731 -0.0894  0.5480
  736MOL0     C99279   4.316   7.102   7.095 -0.3802 -1.1906  0.2027
  736MOL0     C99280   3.915   7.331   7.174 -1.2441 -0.5742 -0.4204
  736MOL0     C99281   3.831   7.439   7.213 -0.0650 -0.2912 -0.0861
  736MOL0     C99282   3.703   7.412   7.272 -0.8616  0.9166 -0.3274
  736MOL0     C99283   3.663   7.282   7.300  0.7160  0.0558  0.9332
  736MOL0     O99284   3.544   7.239   7.364 -0.0148 -0.2641  0.7814
  736MOL0     C99285   3.445   7.331   7.400  0.3837 -0.7691 -0.1369
  736MOL0     C99286   3.343   7.361   7.291 -0.9526 -0.1148  1.1451
  736MOL0     C99287   3.289   7.225   7.241 -0.5789  0.9275 -0.2476
  736MOL0     C99288   3.139   7.234   7.199 -0.0508  0.7178 -0.4995
  736MOL0     C99289   3.042   7.212   7.311  0.1172  0.8990  0.1471
  736MOL0     C99290   2.956   7.192   7.387 -0.3386  0.0533 -1.0094
  736MOL0     C99291   3.743   7.181   7.254 -1.0358  0.2178  0.4398
  736MOL0     C99292   3.868   7.199   7.195 -0.7089 -0.4126 -0.2163
  736MOL0     H99293   4.307   7.442   7.011 -1.1720 -1.1118 -2.2393
  736MOL0     H99294   4.552   7.386   6.963  1.4996 -1.3235  0.8126
  736MOL0     H99295   4.718   6.982   7.028 -2.7112 -0.2562  0.9740
  736MOL0     H99296   4.630   7.009   6.882  1.4688 -1.7262 -0.7822
  736MOL0     H99297   4.925   7.096   6.932  0.9078 -2.6204 -1.1476
  736MOL0     H99298   4.876   6.967   6.834  0.0857 -0.2037  0.1978
  736MOL0     H99299   4.903   7.128   6.671 -1.9197 -0.5768 -0.3888
  736MOL0     H99300   4.739   7.164   6.703  1.7034 -1.0058 -2.2415
  736MOL0     H99301   4.821   7.368   6.850 -1.4084 -0.8811 -0.3273
  736MOL0     H99302   4.976   7.299   6.849  0.8066  2.6825  0.1316
  736MOL0     H99303   4.976   7.334   6.592  0.1005  1.6084  0.7771
  736MOL0     H99304   4.809   7.381   6.597  0.5729  4.0625 -1.8304
  736MOL0     H99305   4.884   7.598   6.710  1.5094 -0.5691  2.3649
  736MOL0     H99306   5.049   7.537   6.714  1.1827 -0.7655 -1.6249
  736MOL0     H99307   5.044   7.673   6.522  2.3747 -2.2779 -0.9258
  736MOL0     H99308   5.020   7.511   6.452  0.0415 -1.9453  2.2223
  736MOL0     H99309   4.766   7.666   6.526 -0.4133  1.5490 -0.7576
  736MOL0     H99310   4.797   7.534   6.408  1.5077 -1.1401  1.3263
  736MOL0     H99311   4.813   7.933   6.445 -1.4162 -1.1477  0.2338
  736MOL0     H99312   4.936   8.130   6.310 -0.6672 -1.4238  0.9764
  736MOL0     H99313   4.938   8.109   6.136 -0.4070  1.3325 -0.1691
  736MOL0     H99314   4.709   8.129   6.100  2.7468 -0.2631 -0.6621
  736MOL0     H99315   4.765   8.263   6.187  0.5299 -0.0866  1.2358
  736MOL0     H99316   4.697   8.113   6.400  1.9430 -1.4867 -1.1698
  736MOL0     H99317   4.596   8.025   6.279  3.4132 -1.4541  0.4524
  736MOL0     H99318   4.549   8.296   6.401 -3.7360  1.3669  0.2269
  736MOL0     H99319   4.440   8.154   6.357  0.0337 -0.6942 -0.9113
  736MOL0     H99320   4.335   8.347   6.009 -1.0878  0.5523 -0.4059
  736MOL0     H99321   4.145   8.494   5.907  1.2362 -0.7676 -0.3810
  736MOL0     H99322   4.095   8.325   5.906  1.3856  0.1560 -0.8921
  736MOL0     H99323   3.984   8.442   5.976  1.3552  1.6157  2.8252
  736MOL0     H99324   3.805   8.810   6.166 -0.5277 -1.2887  1.7228
  736MOL0     H99325   3.553   8.881   6.159  0.6725  1.4051 -1.5948
  736MOL0     H99326   3.337   8.731   6.283 -0.3544 -1.2157 -0.7786
  736MOL0     H99327   3.315   8.871   6.169 -1.6929  0.5382  0.3528
  736MOL0     H99328   3.127   8.621   6.185  2.2250 -0.8915 -1.5665
  736MOL0     H99329   3.096   8.771   6.279 -3.2439  0.4871 -2.0274
  736MOL0     H99330   3.136   8.777   5.985 -0.1453  2.1097 -0.6258
  736MOL0     H99331   3.061   8.898   6.090 -1.2814 -0.9989  1.7387
  736MOL0     H99332   2.941   8.618   6.049 -1.0255 -0.7240 -0.2991
  736MOL0     H99333   2.886   8.759   6.150 -1.1822 -1.5509 -1.5611
  736MOL0     H99334   2.887   8.904   5.944  1.6908 -0.0464 -0.9018
  736MOL0     H99335   2.756   8.793   5.975 -0.8429 -1.0975 -1.4601
  736MOL0     H99336   3.006   8.747   5.794 -0.4046  0.0303 -3.0689
  736MOL0     H99337   2.870   8.635   5.814 -0.9881  0.1366  2.1344
  736MOL0     H99338   2.867   8.912   5.708  1.0104 -0.4333  2.2733
  736MOL0     H99339   2.716   8.802   5.714 -0.7186  1.6570 -2.5467
  736MOL0     H99340   2.788   8.645   5.554  2.0177 -1.2912 -1.8060
  736MOL0     H99341   2.945   8.701   5.542 -0.5589  0.2548 -1.3345
  736MOL0     H99342   3.480   8.470   6.024  0.2209  0.0068  0.7751
  736MOL0     H99343   3.718   8.408   6.085  0.7370 -0.2089 -2.2081
  736MOL0     H99344   4.136   8.479   6.436 -0.4266 -1.2476  0.3904
  736MOL0     H99345   4.355   8.374   6.434 -0.4671  2.7058  0.9531
  736MOL0     H99346   4.489   6.981   7.084 -0.4424  0.0046  2.3437
  736MOL0     H99347   4.258   7.013   7.116 -1.4659 -1.5202 -3.4474
  736MOL0     H99348   3.867   7.538   7.188 -0.9159 -0.5194 -2.4606
  736MOL0     H99349   3.654   7.501   7.311 -1.3877  0.6552 -0.3876
  736MOL0     H99350   3.394   7.287   7.486 -1.7085  2.5220  0.4968
  736MOL0     H99351   3.492   7.424   7.432  0.8824 -1.1181  0.1484
  736MOL0     H99352   3.386   7.418   7.208 -1.8558 -2.2269 -0.8865
  736MOL0     H99353   3.274   7.432   7.337  2.2706  3.0506  1.5373
  736MOL0     H99354   3.307   7.139   7.306  4.1261  0.0372 -2.3065
  736MOL0     H99355   3.356   7.211   7.155 -0.3942  1.8339 -0.2616
  736MOL0     H99356   3.120   7.155   7.126 -0.4772  1.7047 -1.4880
  736MOL0     H99357   3.128   7.337   7.161 -1.7544  1.4439  1.7722
  736MOL0     H99358   2.888   7.180   7.470  0.7985 -2.5982 -0.3401
  736MOL0     H99359   3.713   7.078   7.270 -0.8459 -0.2508 -1.8826
  736MOL0     H99360   3.918   7.106   7.171  1.6817  0.5567  0.7031
  737MOL0     O99361   1.914   6.442  11.380 -0.0535  0.0239 -0.1377
  737MOL0     C99362   1.814   6.379  11.426  0.4118  0.3708 -0.0432
  737MOL0     O99363   1.812   6.308  11.539 -0.2279 -0.6981 -0.3749
  737MOL0     C99364   1.933   6.266  11.590 -0.7385  0.3426 -0.5967
  737MOL0     C99365   2.061   6.265  11.526 -0.0066  0.1693 -0.1788
  737MOL0     C99366   2.174   6.221  11.587 -0.2653 -0.1426 -0.3673
  737MOL0     C99367   2.177   6.197  11.722  0.6145  0.2766  0.2417
  737MOL0     O99368   2.282   6.162  11.796 -0.0350 -0.2673  0.5074
  737MOL0     C99369   2.409   6.185  11.741 -0.4046 -0.3078 -0.3174
  737MOL0     C99370   2.517   6.143  11.846  0.0258  0.2026 -0.5573
  737MOL0     C99371   2.515   5.992  11.873  0.3629 -0.0914  1.0073
  737MOL0     C99372   2.555   5.900  11.752 -0.7186 -0.3069 -0.0462
  737MOL0     C99373   2.689   5.946  11.690 -0.0191  0.2815 -0.2161
  737MOL0     C99374   2.814   5.955  11.788 -0.0808 -0.5140  0.0928
  737MOL0     C99375   2.948   5.949  11.720 -0.3744  0.1107  0.4286
  737MOL0     C99376   2.988   6.075  11.642 -0.8481 -0.0369 -0.2906
  737MOL0     N99377   3.112   6.049  11.564  0.4160  0.6463 -0.1944
  737MOL0     C99378   3.233   6.108  11.571 -0.5367 -0.9673  0.7124
  737MOL0     C99379   3.305   6.063  11.470  0.5170 -0.3497 -0.2438
  737MOL0     C99380   3.446   6.110  11.441  0.6746  0.7424  1.5010
  737MOL0     C99381   3.437   6.252  11.376 -0.5011 -0.5316  0.2976
  737MOL0     C99382   3.584   6.309  11.336  0.4092  1.4034 -0.6782
  737MOL0     C99383   3.579   6.450  11.278 -0.0090 -0.4110  0.4760
  737MOL0     O99384   3.555   6.550  11.376  0.5739 -0.0398 -0.2403
  737MOL0     C99385   3.635   6.654  11.386 -0.7123  0.7143  0.5972
  737MOL0     C99386   3.648   6.721  11.511 -0.7406  0.9323  0.2878
  737MOL0     C99387   3.733   6.830  11.532  0.0140 -0.1371  0.0799
  737MOL0     C99388   3.741   6.873  11.674  0.1021 -0.4116 -0.5153
  737MOL0     C99389   3.813   6.878  11.426  1.1210 -0.8545  1.7102
  737MOL0     C99390   3.902   7.000  11.432  0.7031  0.1605  0.3184
  737MOL0     O99391   4.006   7.015  11.347 -0.0906  0.2296 -0.3707
  737MOL0     C99392   4.106   7.100  11.382 -0.0614 -0.0335 -0.8793
  737MOL0     C99393   4.171   7.081  11.506 -0.2632  0.4781 -0.2603
  737MOL0     C99394   4.268   7.171  11.551 -0.2222  0.1651  0.1856
  737MOL0     C99395   4.301   7.279  11.467 -0.1730 -0.1925 -0.2300
  737MOL0     O99396   4.401   7.364  11.510 -0.4530  0.1176 -0.2859
  737MOL0     C99397   4.454   7.462  11.414 -0.0698 -0.4623 -0.2529
  737MOL0     C99398   4.571   7.536  11.476 -0.1543  0.3037 -0.6618
  737MOL0     C99399   4.610   7.660  11.408 -0.0213 -0.2496 -0.3393
  737MOL0     C99400   4.721   7.739  11.475 -0.3829  0.1226  0.7217
  737MOL0     C99401   4.748   7.865  11.402  0.1947 -0.8281  0.1994
  737MOL0     C99402   4.849   7.948  11.479  0.5183 -0.4695  0.3169
  737MOL0     C99403   4.880   8.082  11.406 -0.2640 -0.6139 -0.1146
  737MOL0     C99404   4.989   8.157  11.488 -0.9134  0.5406  1.7961
  737MOL0    Cl99405   4.948   8.207  11.651 -0.7568  0.4170  0.3779
  737MOL0     C99406   4.227   7.300  11.348  0.6584 -0.3675 -1.0566
  737MOL0     C99407   4.127   7.212  11.305  0.5282 -0.1215 -0.4608
  737MOL0     O99408   3.868   7.089  11.509 -0.3683 -0.4460 -0.1484
  737MOL0     C99409   3.781   6.825  11.302 -0.0485 -0.3851 -0.2897
  737MOL0     C99410   3.694   6.716  11.277 -0.6776 -0.3821 -0.4257
  737MOL0     N99411   3.228   5.975  11.400 -0.1973  0.2187  1.0185
  737MOL0     N99412   3.114   5.972  11.453 -0.2838  0.1757  0.2443
  737MOL0     C99413   2.047   6.197  11.786 -0.3554  0.6738 -0.0712
  737MOL0     C99414   1.926   6.225  11.718  0.2898  0.1757  0.9752
  737MOL0     C99415   1.673   6.405  11.365 -0.7117  1.2809  0.6410
  737MOL0     C99416   1.657   6.501  11.271 -0.7139  0.2698  0.3838
  737MOL0     C99417   1.529   6.521  11.217  0.3375 -0.3425 -0.1703
  737MOL0     C99418   1.422   6.445  11.259 -0.1904 -0.2099  0.3014
  737MOL0     O99419   1.305   6.482  11.198  0.2228 -0.0906 -0.3717
  737MOL0     C99420   1.196   6.398  11.191  0.3410 -0.1386 -0.3172
  737MOL0     C99421   1.208   6.282  11.099 -0.3591 -0.6949  0.2507
  737MOL0     C99422   1.248   6.326  10.948  0.4838 -0.0276 -0.3783
  737MOL0     C99423   1.138   6.413  10.893 -1.1667  1.2486  0.1580
  737MOL0     C99424   1.132   6.379  10.750  0.2278 -0.3707  0.5587
  737MOL0     C99425   1.137   6.351  10.630  0.0583 -0.1888  0.1577
  737MOL0     C99426   1.435   6.347  11.358  0.2955 -0.2772 -0.6383
  737MOL0     C99427   1.565   6.331  11.411  0.2693  0.5881 -0.2365
  737MOL0     H99428   2.079   6.280  11.420  2.8613 -0.2534  0.1670
  737MOL0     H99429   2.269   6.217  11.535 -1.1315 -5.8087 -2.1725
  737MOL0     H99430   2.435   6.119  11.657  2.1690 -3.8453  2.8743
  737MOL0     H99431   2.428   6.291  11.720  0.0314 -0.2311  0.4344
  737MOL0     H99432   2.618   6.175  11.819 -0.4225  0.1264 -2.4933
  737MOL0     H99433   2.499   6.183  11.946  1.2065 -1.6475  0.4498
  737MOL0     H99434   2.582   5.980  11.959  2.1644 -2.5131 -0.6043
  737MOL0     H99435   2.413   5.965  11.903 -0.4321  0.9943 -0.6294
  737MOL0     H99436   2.568   5.797  11.787 -0.7677  0.6101  2.9021
  737MOL0     H99437   2.476   5.919  11.679 -1.3704  1.2788  1.0136
  737MOL0     H99438   2.698   5.876  11.606 -3.1040  0.7862 -1.0907
  737MOL0     H99439   2.676   6.045  11.644 -0.6009  1.1609  1.7661
  737MOL0     H99440   2.808   6.042  11.854  2.5539  1.4718 -2.0367
  737MOL0     H99441   2.808   5.866  11.852  1.3646 -0.2801  0.5880
  737MOL0     H99442   3.014   5.927  11.804  1.6680  2.3972 -0.4693
  737MOL0     H99443   2.947   5.871  11.643 -0.1330  0.9885 -0.4793
  737MOL0     H99444   3.004   6.158  11.711 -3.1270  0.2892 -0.0697
  737MOL0     H99445   2.903   6.098  11.576  0.9896  2.2836 -2.0132
  737MOL0     H99446   3.260   6.176  11.651 -0.5713  0.2254 -0.2498
  737MOL0     H99447   3.513   6.105  11.527 -0.1686  1.4768  2.2225
  737MOL0     H99448   3.483   6.055  11.354 -0.8342  0.6158  0.9138
  737MOL0     H99449   3.393   6.325  11.444  0.8285  0.4607  0.1361
  737MOL0     H99450   3.380   6.237  11.284  0.2949  3.1910 -0.9804
  737MOL0     H99451   3.630   6.238  11.267 -0.6527 -1.4276  1.3581
  737MOL0     H99452   3.648   6.309  11.425 -1.3080  1.1551  0.6019
  737MOL0     H99453   3.515   6.473  11.192  0.8732  1.7678  0.3256
  737MOL0     H99454   3.686   6.455  11.257 -0.0485  2.1393  0.5850
  737MOL0     H99455   3.594   6.682  11.597  0.6513 -0.6298  0.4998
  737MOL0     H99456   3.733   6.789  11.744  3.2960 -0.5345 -0.1830
  737MOL0     H99457   3.840   6.915  11.694  1.0341 -0.2724 -4.5697
  737MOL0     H99458   3.659   6.936  11.710 -0.0972 -0.9741  0.0347
  737MOL0     H99459   4.158   6.994  11.571  0.3146  2.3570  2.5810
  737MOL0     H99460   4.318   7.148  11.644 -1.8668 -0.7547  0.8933
  737MOL0     H99461   4.483   7.411  11.322 -1.4018  0.5607 -1.2835
  737MOL0     H99462   4.378   7.540  11.401  0.0962 -0.0566  1.0664
  737MOL0     H99463   4.549   7.553  11.582 -0.0073 -0.0600 -0.5688
  737MOL0     H99464   4.655   7.465  11.481 -0.1908  0.0908 -2.5005
  737MOL0     H99465   4.521   7.724  11.415 -0.8272 -1.4958  4.0169
  737MOL0     H99466   4.629   7.649  11.301 -0.5467  2.3695 -0.7847
  737MOL0     H99467   4.707   7.757  11.582  1.8428 -0.7629  1.2188
  737MOL0     H99468   4.813   7.682  11.487 -0.0969  0.9280  2.9395
  737MOL0     H99469   4.662   7.933  11.401 -1.5786 -2.9585  0.7941
  737MOL0     H99470   4.772   7.841  11.299 -0.0362 -0.7166  0.1180
  737MOL0     H99471   4.820   7.974  11.581  0.8812 -0.0244  0.3117
  737MOL0     H99472   4.947   7.899  11.487  2.5669  3.5024  2.6033
  737MOL0     H99473   4.799   8.155  11.406  1.0908  1.0198 -2.4465
  737MOL0     H99474   4.914   8.061  11.304  2.1534 -1.8461  0.8416
  737MOL0     H99475   5.016   8.249  11.436  2.9297 -1.1204  0.4492
  737MOL0     H99476   5.076   8.091  11.487 -0.4322  1.1446  0.1298
  737MOL0     H99477   4.271   7.370  11.277  1.6818  0.5704  0.4277
  737MOL0     H99478   4.083   7.229  11.207  0.5572  0.5899 -0.3600
  737MOL0     H99479   3.827   6.868  11.213  1.6493 -2.2575 -0.3753
  737MOL0     H99480   3.690   6.674  11.177 -1.7520  2.0526 -1.4824
  737MOL0     H99481   2.032   6.172  11.890  1.6939 -1.3650 -0.1914
  737MOL0     H99482   1.824   6.229  11.756 -0.2082  0.0278 -0.3114
  737MOL0     H99483   1.736   6.565  11.233 -0.0035 -0.6954  0.2181
  737MOL0     H99484   1.505   6.599  11.145  0.5338 -0.9612 -0.9272
  737MOL0     H99485   1.168   6.366  11.292 -0.6902 -1.9278 -1.1083
  737MOL0     H99486   1.117   6.459  11.145  1.5710  1.6843 -0.1196
  737MOL0     H99487   1.126   6.210  11.102 -1.1913  0.2408  2.1583
  737MOL0     H99488   1.304   6.253  11.142 -0.2632  1.5234  1.7239
  737MOL0     H99489   1.281   6.244  10.884  1.4141  0.8755 -1.0891
  737MOL0     H99490   1.335   6.392  10.939  0.8694 -0.1130  2.0037
  737MOL0     H99491   1.155   6.520  10.909  0.7690  1.1279 -0.8866
  737MOL0     H99492   1.043   6.392  10.944 -0.3259  1.1805  1.7508
  737MOL0     H99493   1.137   6.324  10.526 -0.5099 -2.0813  0.6210
  737MOL0     H99494   1.345   6.313  11.409  0.7910  0.6544  0.9587
  737MOL0     H99495   1.576   6.248  11.480  2.0931  0.0614 -1.0965
  738MOL0     O99496   4.904  10.342   2.466 -0.4310 -0.2201  0.3293
  738MOL0     C99497   4.888  10.462   2.441  0.4223  0.1893  0.5417
  738MOL0     O99498   4.769  10.528   2.409  0.2787 -0.1202  0.6290
  738MOL0     C99499   4.652  10.480   2.368 -0.8135  0.3609 -0.8547
  738MOL0     C99500   4.637  10.348   2.321  0.2862  0.2718  0.9376
  738MOL0     C99501   4.506  10.305   2.277 -1.0509 -1.4035  0.2071
  738MOL0     C99502   4.403  10.396   2.275  0.3678  1.0617  0.7537
  738MOL0     O99503   4.276  10.349   2.249 -0.5866  0.5042 -0.2932
  738MOL0     C99504   4.196  10.439   2.165  0.5246  0.4376 -0.3256
  738MOL0     C99505   4.061  10.376   2.140  0.5398  0.2209  0.5274
  738MOL0     C99506   4.077  10.240   2.058 -0.6509 -0.3929 -1.2744
  738MOL0     C99507   4.044  10.265   1.912 -0.3371 -0.0923 -0.5836
  738MOL0     C99508   3.892  10.248   1.899  0.0142 -0.0896 -0.1703
  738MOL0     C99509   3.838  10.302   1.767  0.5528 -0.0207 -0.7855
  738MOL0     C99510   3.687  10.312   1.763  0.2194  0.1274  0.3739
  738MOL0     C99511   3.620  10.184   1.783  0.2037  0.0894 -0.6568
  738MOL0     N99512   3.476  10.199   1.772  0.1494  0.1212  0.1479
  738MOL0     C99513   3.393  10.256   1.869  0.4943 -0.2989 -0.2432
  738MOL0     C99514   3.273  10.274   1.801  0.8171 -0.3259 -0.3258
  738MOL0     C99515   3.147  10.350   1.856 -0.1761 -0.7506  0.7539
  738MOL0     C99516   3.017  10.292   1.794 -0.0180  0.4542 -0.2450
  738MOL0     C99517   2.956  10.178   1.874  0.3507  0.1501 -0.4099
  738MOL0     C99518   2.860  10.098   1.787  0.5228 -0.8540  0.0625
  738MOL0     O99519   2.800   9.984   1.850  0.6756 -0.2038 -0.0924
  738MOL0     C99520   2.691  10.006   1.938  0.6938  0.0522 -0.1870
  738MOL0     C99521   2.647   9.906   2.018  0.5996 -0.2240 -0.6867
  738MOL0     C99522   2.550   9.912   2.112 -0.0554 -0.7504 -0.2632
  738MOL0     C99523   2.537   9.800   2.205 -0.7225  0.3516 -0.4861
  738MOL0     C99524   2.473  10.028   2.110 -0.8644  0.1572  0.1625
  738MOL0     C99525   2.356  10.057   2.201  0.2198 -0.7261 -0.0237
  738MOL0     O99526   2.308  10.191   2.205  0.3003  0.3185 -0.3542
  738MOL0     C99527   2.186  10.209   2.275  0.6019 -0.7405 -0.0973
  738MOL0     C99528   2.186  10.233   2.414  0.9439  1.0422  0.1763
  738MOL0     C99529   2.074  10.236   2.500 -0.7016  0.1347  0.5546
  738MOL0     C99530   1.947  10.229   2.448 -0.5310 -0.0883  0.3825
  738MOL0     O99531   1.848  10.240   2.538 -1.6056  0.8472  1.2021
  738MOL0     C99532   1.726  10.280   2.482  0.7856  0.4945 -1.7417
  738MOL0     C99533   1.638  10.277   2.617  0.6836 -0.1611  0.4864
  738MOL0     C99534   1.585  10.139   2.635  0.0733  0.6678  0.4536
  738MOL0     C99535   1.531  10.127   2.777 -0.4566  0.5617 -0.1934
  738MOL0     C99536   1.449   9.998   2.790  0.0448 -0.1961 -0.4577
  738MOL0     C99537   1.356   9.980   2.910 -1.3460 -0.3592  0.0146
  738MOL0     C99538   1.426   9.974   3.044 -0.1930  0.3362 -0.0842
  738MOL0     C99539   1.334   9.984   3.176 -0.3178  0.2216  0.2131
  738MOL0    Cl99540   1.441  10.048   3.305  0.2929 -0.2082 -0.0834
  738MOL0     C99541   1.940  10.204   2.305  0.7225 -0.5161  0.6075
  738MOL0     C99542   2.058  10.202   2.223  0.7862  0.4642 -0.3667
  738MOL0     O99543   2.303   9.962   2.244  0.2036 -0.1737 -0.5679
  738MOL0     C99544   2.509  10.131   2.019 -0.0989 -0.0885 -0.1343
  738MOL0     C99545   2.625  10.125   1.944 -0.1904 -0.2747  0.5088
  738MOL0     N99546   3.289  10.232   1.669  0.2664 -0.9568 -0.0101
  738MOL0     N99547   3.411  10.184   1.657 -0.1462 -0.1933  0.0432
  738MOL0     C99548   4.429  10.529   2.317  0.2520  0.3215 -0.7593
  738MOL0     C99549   4.549  10.567   2.376  1.2763 -0.4061  0.0843
  738MOL0     C99550   5.011  10.537   2.442  0.6897 -0.3490  0.7875
  738MOL0     C99551   5.009  10.681   2.450  0.4778  0.2200  0.8860
  738MOL0     C99552   5.128  10.752   2.463  0.2703  0.8614  0.1517
  738MOL0     C99553   5.252  10.683   2.479 -0.4670  0.1487  0.5033
  738MOL0     O99554   5.366  10.753   2.513 -0.4981  0.0265 -0.1518
  738MOL0     C99555   5.373  10.896   2.543 -0.8769 -0.1976 -0.9507
  738MOL0     C99556   5.326  10.908   2.686  0.6373  0.2807 -0.5484
  738MOL0     C99557   5.426  10.891   2.805  0.6294  0.3274  0.4880
  738MOL0     C99558   5.502  11.026   2.840  0.6107 -0.0162 -0.3908
  738MOL0     C99559   5.602  11.013   2.949 -0.4842 -0.1640  0.7532
  738MOL0     C99560   5.690  10.983   3.023  0.5736  0.0088 -0.1467
  738MOL0     C99561   5.257  10.538   2.471 -0.5436 -0.8763  1.2181
  738MOL0     C99562   5.135  10.470   2.453 -0.5498 -1.3172  0.1174
  738MOL0     H99563   4.722  10.281   2.314  1.1359  1.1303  2.5362
  738MOL0     H99564   4.487  10.200   2.260 -3.9513 -1.0972  1.0324
  738MOL0     H99565   4.175  10.539   2.205 -1.5841  1.3110 -3.2458
  738MOL0     H99566   4.247  10.454   2.069  0.0036 -0.9260 -0.8398
  738MOL0     H99567   4.027  10.340   2.237 -0.8226 -0.2404 -0.0919
  738MOL0     H99568   3.991  10.434   2.080  1.7934  0.6494 -0.5937
  738MOL0     H99569   4.176  10.195   2.070 -0.7671 -0.0191  1.7121
  738MOL0     H99570   4.003  10.169   2.095 -0.9484  0.1621 -0.8054
  738MOL0     H99571   4.079  10.363   1.877 -2.1038  1.8282  2.4802
  738MOL0     H99572   4.093  10.189   1.851  1.9014 -0.5376  1.6076
  738MOL0     H99573   3.857  10.145   1.912 -2.5104  0.7637  0.3875
  738MOL0     H99574   3.846  10.312   1.975  2.3804  0.1424  1.1612
  738MOL0     H99575   3.869  10.404   1.742 -1.0505  0.5518 -0.5868
  738MOL0     H99576   3.873  10.231   1.691  0.5775 -3.5895  2.2997
  738MOL0     H99577   3.649  10.385   1.834 -2.2876 -2.4334  1.8308
  738MOL0     H99578   3.656  10.348   1.664 -0.5041 -0.4233  0.3915
  738MOL0     H99579   3.642  10.156   1.887  0.0878 -0.2963 -0.7353
  738MOL0     H99580   3.666  10.110   1.717  1.4919  0.6542 -0.4268
  738MOL0     H99581   3.425  10.297   1.964  0.2947  0.0378 -0.3186
  738MOL0     H99582   3.135  10.356   1.965 -0.0857  0.7392  0.6943
  738MOL0     H99583   3.163  10.454   1.827 -1.6426  0.1025  2.7439
  738MOL0     H99584   3.023  10.251   1.693 -1.9731  1.2751 -0.7299
  738MOL0     H99585   2.946  10.374   1.782 -2.0192 -1.1026  0.4381
  738MOL0     H99586   2.902  10.218   1.961  0.9563 -0.1564  0.1134
  738MOL0     H99587   3.027  10.110   1.922 -0.0047  0.0716  0.0164
  738MOL0     H99588   2.890  10.072   1.686 -2.0356 -1.4955 -0.6200
  738MOL0     H99589   2.775  10.163   1.762 -0.7723 -0.9471  3.5920
  738MOL0     H99590   2.701   9.812   2.024  0.1029 -0.4453  1.2808
  738MOL0     H99591   2.468   9.724   2.168  0.2935  0.1315 -2.0063
  738MOL0     H99592   2.631   9.746   2.222 -1.3091 -1.1977 -1.9321
  738MOL0     H99593   2.512   9.827   2.308  2.5789  0.7606  0.3264
  738MOL0     H99594   2.282  10.248   2.462  0.2506  0.5980  1.7388
  738MOL0     H99595   2.098  10.275   2.598 -2.3525  2.8406  0.0071
  738MOL0     H99596   1.723  10.385   2.449 -0.8725  0.7837 -0.8037
  738MOL0     H99597   1.694  10.219   2.397  0.6011 -0.4786 -0.9855
  738MOL0     H99598   1.702  10.317   2.695  1.3894 -1.4199  0.5704
  738MOL0     H99599   1.555  10.347   2.602  2.5159  1.8327 -0.9430
  738MOL0     H99600   1.670  10.069   2.631 -0.4808  0.0396 -0.6646
  738MOL0     H99601   1.506  10.117   2.563 -0.0611 -0.1661  0.8405
  738MOL0     H99602   1.612  10.117   2.850  0.6883  0.1347 -1.4732
  738MOL0     H99603   1.475  10.213   2.814 -0.0108  0.2807  1.2117
  738MOL0     H99604   1.514   9.909   2.789  1.0770  0.5342 -0.8108
  738MOL0     H99605   1.406   9.979   2.691 -0.4104  2.1544 -0.7519
  738MOL0     H99606   1.283  10.062   2.907 -1.3206 -0.3420 -0.2076
  738MOL0     H99607   1.305   9.884   2.894  0.7996 -1.6269  0.3638
  738MOL0     H99608   1.502  10.053   3.039 -0.0934  0.6093  3.3074
  738MOL0     H99609   1.474   9.875   3.048 -2.7747 -0.9993 -0.1663
  738MOL0     H99610   1.299   9.884   3.201 -1.6350  1.1050  2.1353
  738MOL0     H99611   1.244  10.044   3.157  0.3196  2.7085  4.0033
  738MOL0     H99612   1.843  10.194   2.258  0.7112 -2.1609  0.8866
  738MOL0     H99613   2.054  10.180   2.117 -2.2860 -1.2565 -0.0121
  738MOL0     H99614   2.454  10.221   1.996  2.2140  0.9445 -2.0371
  738MOL0     H99615   2.646  10.219   1.894  0.4398  1.6728  4.1080
  738MOL0     H99616   4.355  10.608   2.324  0.0053  0.2522 -2.3089
  738MOL0     H99617   4.566  10.666   2.416 -1.3563  0.3431 -0.4709
  738MOL0     H99618   4.921  10.741   2.432 -0.5943 -1.8857 -1.4110
  738MOL0     H99619   5.129  10.861   2.460 -2.2157  0.9283 -1.9113
  738MOL0     H99620   5.474  10.937   2.539  0.0985 -2.2632  0.7593
  738MOL0     H99621   5.318  10.952   2.466 -0.3574 -0.2841 -1.3926
  738MOL0     H99622   5.246  10.834   2.700  1.1541 -0.4391 -1.3256
  738MOL0     H99623   5.277  11.006   2.684  0.8664  0.4337  0.5552
  738MOL0     H99624   5.495  10.811   2.778  1.2562  0.7051  0.9615
  738MOL0     H99625   5.358  10.863   2.886 -2.3849 -2.2961 -2.6596
  738MOL0     H99626   5.428  11.104   2.861  2.5631  1.5726  0.9260
  738MOL0     H99627   5.554  11.038   2.744 -0.5041 -0.0833 -1.0253
  738MOL0     H99628   5.777  10.946   3.075 -0.5651  1.0102  2.6158
  738MOL0     H99629   5.349  10.480   2.479 -0.3241 -1.1451 -1.7933
  738MOL0     H99630   5.128  10.362   2.450 -0.4750 -1.3067 -0.7096
  739MOL0     O99631   8.398   5.736   6.365 -0.1708  0.2296  0.4676
  739MOL0     C99632   8.494   5.683   6.422 -0.5162 -0.5386  0.1257
  739MOL0     O99633   8.626   5.736   6.427  0.0679  0.8624  0.1920
  739MOL0     C99634   8.646   5.871   6.386 -0.4165  1.2249 -0.0241
  739MOL0     C99635   8.633   5.972   6.477  0.0938  0.4278 -1.1300
  739MOL0     C99636   8.657   6.102   6.447 -0.5905 -0.0114  0.7199
  739MOL0     C99637   8.701   6.141   6.316 -0.4184  0.4166 -0.3808
  739MOL0     O99638   8.709   6.275   6.301 -0.0977 -0.1401  0.3805
  739MOL0     C99639   8.686   6.348   6.177 -0.0713  0.1877  0.4140
  739MOL0     C99640   8.533   6.358   6.144  0.8697 -0.2039  0.2085
  739MOL0     C99641   8.442   6.230   6.182 -0.4624 -0.0674 -0.0981
  739MOL0     C99642   8.300   6.255   6.125 -0.3285 -0.5765  0.4427
  739MOL0     C99643   8.207   6.139   6.148  0.0821 -0.1543 -0.0319
  739MOL0     C99644   8.237   6.011   6.065 -0.2080  0.5013 -0.4363
  739MOL0     C99645   8.146   5.897   6.103 -0.0910  0.2494 -0.5551
  739MOL0     C99646   7.995   5.925   6.070 -0.8152  0.7988 -0.1058
  739MOL0     N99647   7.914   5.805   6.058 -1.0348  0.1903 -0.9897
  739MOL0     C99648   7.932   5.702   6.156  0.1151 -0.7325 -0.2743
  739MOL0     C99649   7.811   5.655   6.175  1.0830  0.1866  0.3527
  739MOL0     C99650   7.757   5.549   6.272  0.0193  0.0472  0.0715
  739MOL0     C99651   7.697   5.622   6.387 -0.4731  0.1819 -0.2335
  739MOL0     C99652   7.701   5.527   6.509  0.4644  0.1224  0.2931
  739MOL0     C99653   7.814   5.566   6.599  0.0763  0.1996  0.2077
  739MOL0     O99654   7.840   5.470   6.702 -0.2920  0.2377  0.5881
  739MOL0     C99655   7.973   5.455   6.745  0.7291  0.1968  0.5392
  739MOL0     C99656   7.970   5.366   6.842 -0.5680  0.6604 -0.9271
  739MOL0     C99657   8.084   5.348   6.930 -0.3157 -0.4590  0.3465
  739MOL0     C99658   8.080   5.242   7.032  0.1269 -0.2182  0.9033
  739MOL0     C99659   8.192   5.438   6.906  0.7065 -0.1902 -1.0749
  739MOL0     C99660   8.303   5.456   6.990  0.3781  0.4636  0.4785
  739MOL0     O99661   8.414   5.372   6.986  0.0932 -0.6049  0.5977
  739MOL0     C99662   8.481   5.359   7.102 -0.1576  0.2082  0.4783
  739MOL0     C99663   8.580   5.445   7.134 -0.1610 -0.9411  0.2990
  739MOL0     C99664   8.637   5.440   7.259 -0.1720  0.2074 -0.2701
  739MOL0     C99665   8.600   5.342   7.351  0.1083 -0.6884 -0.7659
  739MOL0     O99666   8.655   5.341   7.474  0.3266 -0.2322 -0.8023
  739MOL0     C99667   8.626   5.454   7.561  0.6118 -0.2656  0.3915
  739MOL0     C99668   8.726   5.462   7.671  0.0256 -0.1375 -0.1671
  739MOL0     C99669   8.722   5.590   7.757  0.4783 -1.0080  0.3464
  739MOL0     C99670   8.636   5.588   7.881  0.8297  0.6177  1.0000
  739MOL0     C99671   8.491   5.577   7.857 -0.6396  1.0679 -0.1271
  739MOL0     C99672   8.407   5.659   7.949  0.2737 -0.3205 -0.7153
  739MOL0     C99673   8.273   5.579   7.961  1.1349  0.0143  0.1997
  739MOL0     C99674   8.165   5.681   7.983  0.9875  0.3066  0.3621
  739MOL0    Cl99675   8.191   5.744   8.142 -0.2775  0.2802  0.2070
  739MOL0     C99676   8.508   5.245   7.317  0.5184  0.1810 -0.1863
  739MOL0     C99677   8.451   5.250   7.193  0.5563  0.3986  0.7598
  739MOL0     O99678   8.274   5.535   7.080  0.5328  0.1296 -0.2242
  739MOL0     C99679   8.192   5.527   6.800  0.1707 -0.0333 -0.4921
  739MOL0     C99680   8.088   5.527   6.714  0.5082  0.2503 -0.8040
  739MOL0     N99681   7.716   5.716   6.097 -0.2606 -0.3011  0.3853
  739MOL0     N99682   7.782   5.813   6.030  0.5372 -0.3685  0.2518
  739MOL0     C99683   8.727   6.035   6.228 -0.4502 -0.1306 -0.6579
  739MOL0     C99684   8.708   5.905   6.261  0.2783 -0.0446  0.3998
  739MOL0     C99685   8.463   5.547   6.493 -0.0841 -0.3936  0.8034
  739MOL0     C99686   8.341   5.482   6.461 -0.0602 -0.0801  0.5163
  739MOL0     C99687   8.312   5.369   6.535 -0.5842  0.7479  0.5357
  739MOL0     C99688   8.410   5.310   6.622  0.4832  0.2589  0.8356
  739MOL0     O99689   8.366   5.193   6.678  0.4461  0.6319 -0.4271
  739MOL0     C99690   8.460   5.119   6.758  0.6362 -0.1506  0.4594
  739MOL0     C99691   8.376   5.009   6.819  0.0694  0.8789 -0.4371
  739MOL0     C99692   8.463   4.918   6.912  0.2169  0.3645  0.2083
  739MOL0     C99693   8.378   4.833   7.008  0.2045 -0.6049  0.6036
  739MOL0     C99694   8.459   4.798   7.128  0.3934 -0.2772  0.1015
  739MOL0     C99695   8.536   4.793   7.217  0.1471 -0.0931 -0.4013
  739MOL0     C99696   8.527   5.370   6.640  0.1627 -0.5765 -0.9510
  739MOL0     C99697   8.554   5.489   6.581 -0.4691 -0.2320 -0.4083
  739MOL0     H99698   8.598   5.952   6.578  1.1861  0.7744 -0.6577
  739MOL0     H99699   8.663   6.178   6.524  2.2406  0.6509 -0.0104
  739MOL0     H99700   8.728   6.448   6.192  0.6876  0.0929 -0.9353
  739MOL0     H99701   8.731   6.317   6.082 -3.5891  0.5178 -1.5387
  739MOL0     H99702   8.500   6.444   6.203  1.9183  1.1991 -1.1703
  739MOL0     H99703   8.522   6.384   6.039  1.9586 -2.6484 -0.5754
  739MOL0     H99704   8.487   6.139   6.142  0.6900  0.3447  0.2263
  739MOL0     H99705   8.436   6.214   6.290 -1.9528  1.8806  0.1679
  739MOL0     H99706   8.257   6.348   6.163  1.7101  0.8020 -0.4012
  739MOL0     H99707   8.330   6.269   6.020  0.8459  0.7921  0.9291
  739MOL0     H99708   8.210   6.117   6.255  0.0189 -2.7445 -0.5012
  739MOL0     H99709   8.105   6.171   6.127 -0.2208 -0.7092  0.5771
  739MOL0     H99710   8.230   6.041   5.960  0.1558  4.0840  0.4365
  739MOL0     H99711   8.340   5.986   6.091  0.0452  1.8402 -0.0783
  739MOL0     H99712   8.172   5.806   6.047 -2.2304 -1.0232  0.3887
  739MOL0     H99713   8.150   5.888   6.212 -0.7870  2.0245 -0.3582
  739MOL0     H99714   7.981   5.978   5.975  0.4623  0.2586 -0.6204
  739MOL0     H99715   7.957   5.988   6.150  1.6681  0.8205  1.1499
  739MOL0     H99716   8.013   5.655   6.212  1.0575 -0.1931 -1.1646
  739MOL0     H99717   7.678   5.496   6.217  0.6993  0.9589 -1.8914
  739MOL0     H99718   7.837   5.481   6.303 -0.1665  0.2421  1.0183
  739MOL0     H99719   7.598   5.665   6.371 -1.4236 -1.3343  1.2627
  739MOL0     H99720   7.763   5.706   6.413 -1.0623 -0.1417  2.6421
  739MOL0     H99721   7.703   5.423   6.475  1.2439  0.8609 -2.1338
  739MOL0     H99722   7.608   5.542   6.565 -0.1367  0.3225 -0.7410
  739MOL0     H99723   7.796   5.661   6.649  1.5230 -0.3426  1.8606
  739MOL0     H99724   7.904   5.569   6.538  3.3298 -3.0047  4.2176
  739MOL0     H99725   7.884   5.306   6.869  0.6227 -0.7183 -0.0079
  739MOL0     H99726   7.979   5.202   7.031  0.4613 -1.0682  0.6538
  739MOL0     H99727   8.158   5.171   7.002  0.9280  0.5775  1.0269
  739MOL0     H99728   8.111   5.287   7.127  3.1493 -1.9104  0.8488
  739MOL0     H99729   8.612   5.525   7.067 -1.8815  1.2342  1.9198
  739MOL0     H99730   8.710   5.513   7.293 -1.2038  1.1989 -0.0883
  739MOL0     H99731   8.645   5.543   7.500 -2.0247 -0.7464 -1.2902
  739MOL0     H99732   8.526   5.450   7.604  0.6309  0.6189  0.5510
  739MOL0     H99733   8.729   5.369   7.728  4.4368  0.4617  0.9518
  739MOL0     H99734   8.826   5.469   7.627  0.3679  0.8566  0.7242
  739MOL0     H99735   8.673   5.663   7.692  0.1320 -2.7268 -1.4079
  739MOL0     H99736   8.824   5.624   7.775 -0.6449  1.7041  2.3921
  739MOL0     H99737   8.666   5.506   7.947 -1.7329 -1.1229  0.1510
  739MOL0     H99738   8.660   5.677   7.941 -2.5287  2.0967  0.4426
  739MOL0     H99739   8.474   5.469   7.862  1.7272  0.6906  1.2745
  739MOL0     H99740   8.475   5.628   7.762  0.0688 -1.1732 -1.5344
  739MOL0     H99741   8.457   5.664   8.046 -0.5794 -2.5675 -0.0928
  739MOL0     H99742   8.385   5.758   7.908 -2.7390 -0.7630 -0.4035
  739MOL0     H99743   8.264   5.507   8.043  0.0901 -1.5667 -1.2208
  739MOL0     H99744   8.248   5.534   7.864  2.2936  2.7907 -1.5078
  739MOL0     H99745   8.066   5.638   7.969  1.4523 -0.8088  0.4159
  739MOL0     H99746   8.176   5.763   7.911 -0.1115 -0.2895 -0.5120
  739MOL0     H99747   8.481   5.171   7.392 -3.3543  2.9311  1.4727
  739MOL0     H99748   8.381   5.172   7.164  0.1152  1.1026 -0.1378
  739MOL0     H99749   8.272   5.591   6.764  1.6040 -0.8920  1.0158
  739MOL0     H99750   8.091   5.602   6.635  1.8483  0.8239 -0.2411
  739MOL0     H99751   8.755   6.070   6.129  0.4530  1.9877  0.2797
  739MOL0     H99752   8.724   5.837   6.178 -0.0807  1.0544 -0.5979
  739MOL0     H99753   8.281   5.521   6.380  2.6351  0.0704 -1.5795
  739MOL0     H99754   8.226   5.312   6.501 -0.6765  0.4855  1.1803
  739MOL0     H99755   8.553   5.087   6.711  1.9788  0.1911  2.7635
  739MOL0     H99756   8.504   5.183   6.835  1.5437 -0.0100 -0.1672
  739MOL0     H99757   8.325   4.947   6.744 -0.6037 -2.9470  2.8086
  739MOL0     H99758   8.291   5.053   6.872  1.1813  1.9410  0.5115
  739MOL0     H99759   8.538   4.979   6.964  3.4809 -1.7826 -1.5938
  739MOL0     H99760   8.519   4.850   6.847 -0.1084  0.0118  0.2950
  739MOL0     H99761   8.337   4.740   6.968 -0.3847  0.1710 -0.6685
  739MOL0     H99762   8.291   4.888   7.046  0.8815 -0.9380  2.7367
  739MOL0     H99763   8.604   4.771   7.297  0.1578  1.7303  0.1285
  739MOL0     H99764   8.604   5.342   6.711  0.0607  1.9177  0.2572
  739MOL0     H99765   8.638   5.553   6.607 -0.8646  0.0483  0.1743
  740MOL0     O99766   7.299   5.902  10.973  0.1395 -0.8451  0.2018
  740MOL0     C99767   7.397   5.831  10.936 -0.2055  0.0715 -0.3685
  740MOL0     O99768   7.398   5.697  10.927  1.0787  0.3131 -0.0173
  740MOL0     C99769   7.286   5.636  10.964 -0.2463  1.6402 -0.1997
  740MOL0     C99770   7.216   5.573  10.867  0.1625  0.3112  0.0459
  740MOL0     C99771   7.093   5.514  10.896 -0.0199 -1.1685  0.8550
  740MOL0     C99772   7.026   5.529  11.016 -0.5984  0.1787  0.2231
  740MOL0     O99773   6.897   5.473  11.025 -0.4136 -0.2101 -0.1771
  740MOL0     C99774   6.857   5.431  11.151  0.1975 -0.5317 -0.7220
  740MOL0     C99775   6.737   5.337  11.142 -1.0936 -0.5643 -0.6701
  740MOL0     C99776   6.607   5.416  11.094  0.1871 -0.0688 -0.5356
  740MOL0     C99777   6.548   5.495  11.218  0.4112 -0.2725 -0.1302
  740MOL0     C99778   6.459   5.614  11.165  0.1293  0.8873 -0.5579
  740MOL0     C99779   6.340   5.560  11.099  0.1564  1.1651 -0.2972
  740MOL0     C99780   6.231   5.483  11.184  1.4884 -0.4774 -0.9805
  740MOL0     C99781   6.124   5.432  11.092 -0.1687  1.0741  1.0725
  740MOL0     N99782   6.001   5.468  11.161  0.1845 -0.1302 -0.1550
  740MOL0     C99783   5.971   5.435  11.286 -0.9298 -0.3413 -0.0503
  740MOL0     C99784   5.853   5.480  11.319  0.1746 -0.3688  0.4980
  740MOL0     C99785   5.791   5.475  11.456 -0.3417 -0.0555  0.5722
  740MOL0     C99786   5.755   5.613  11.498  0.4044 -0.4926 -0.0055
  740MOL0     C99787   5.887   5.690  11.541  0.6370  0.5825  0.3248
  740MOL0     C99788   5.856   5.824  11.613 -0.2306 -0.2625 -0.4030
  740MOL0     O99789   5.814   5.929  11.520 -0.0038  0.3237 -0.4555
  740MOL0     C99790   5.817   6.058  11.559 -0.2509 -0.4566  0.2515
  740MOL0     C99791   5.820   6.108  11.688 -0.1779 -1.1404 -0.3440
  740MOL0     C99792   5.800   6.240  11.722  0.1385 -0.1098 -0.3238
  740MOL0     C99793   5.816   6.275  11.875 -0.5395 -0.0636  0.5374
  740MOL0     C99794   5.785   6.335  11.620 -0.3136  0.0399 -1.1602
  740MOL0     C99795   5.755   6.486  11.649  0.1022  0.1050  0.5977
  740MOL0     O99796   5.705   6.527  11.767  0.2062  0.3635  0.5810
  740MOL0     C99797   5.699   6.657  11.805 -0.6283 -0.3531  0.3813
  740MOL0     C99798   5.698   6.668  11.944  0.1907 -0.0191  0.2787
  740MOL0     C99799   5.695   6.799  11.996 -0.3644 -0.0948 -0.0172
  740MOL0     C99800   5.676   6.919  11.918  0.1282 -0.5116  0.0644
  740MOL0     O99801   5.684   7.043  11.991 -0.5163 -0.1690  0.1573
  740MOL0     C99802   5.654   7.154  11.915  0.6792  0.4573 -1.0846
  740MOL0     C99803   5.617   7.260  12.014  0.8113 -0.9306 -0.0679
  740MOL0     C99804   5.733   7.304  12.111 -0.3374  0.5116 -0.2621
  740MOL0     C99805   5.729   7.220  12.247 -0.0913  0.2066  0.4480
  740MOL0     C99806   5.857   7.245  12.336  0.5388 -0.1155 -0.7448
  740MOL0     C99807   5.862   7.385  12.403 -0.4095  0.2257 -0.2571
  740MOL0     C99808   5.736   7.411  12.474  0.3097  0.1931  0.4826
  740MOL0     C99809   5.724   7.555  12.528  0.2468 -0.4894 -0.4890
  740MOL0    Cl99810   5.760   7.676  12.396  0.2078  0.2407 -0.4677
  740MOL0     C99811   5.663   6.899  11.777 -0.5605 -0.1117  0.5843
  740MOL0     C99812   5.681   6.772  11.720 -0.4758 -0.0884  0.6264
  740MOL0     O99813   5.773   6.557  11.551  0.3272 -0.3604  0.2075
  740MOL0     C99814   5.800   6.290  11.487  1.0663 -0.1724  0.0389
  740MOL0     C99815   5.808   6.152  11.456 -1.6701  0.1802  0.5319
  740MOL0     N99816   5.793   5.534  11.208 -0.1324 -0.4930  0.1128
  740MOL0     N99817   5.885   5.527  11.116 -0.6589 -0.6712  0.1947
  740MOL0     C99818   7.102   5.591  11.117  0.8718  0.4499 -0.5079
  740MOL0     C99819   7.240   5.624  11.095  0.4192 -0.3326 -0.4537
  740MOL0     C99820   7.518   5.900  10.890  0.6272 -0.0754 -0.5552
  740MOL0     C99821   7.548   6.029  10.939  0.1627  0.1240  0.2349
  740MOL0     C99822   7.669   6.091  10.893  0.8149  0.5939  0.2198
  740MOL0     C99823   7.756   6.029  10.801  0.3986  0.0208  0.9644
  740MOL0     O99824   7.868   6.088  10.745  0.1840  0.3739 -0.3538
  740MOL0     C99825   7.902   6.230  10.768 -0.3563  0.0927  0.2801
  740MOL0     C99826   8.023   6.255  10.686 -0.2870  0.4604  0.7618
  740MOL0     C99827   8.146   6.256  10.770  0.5032  0.2765  0.7611
  740MOL0     C99828   8.273   6.261  10.680  0.7582  0.0608 -0.1646
  740MOL0     C99829   8.310   6.401  10.667  0.0564 -0.6201  0.3813
  740MOL0     C99830   8.353   6.506  10.629 -0.4380  0.0995  0.4282
  740MOL0     C99831   7.718   5.904  10.755 -0.7753 -0.0014 -0.3214
  740MOL0     C99832   7.608   5.836  10.801  0.0948 -0.0693 -0.3333
  740MOL0     H99833   7.267   5.567  10.772  2.3583 -2.6502  1.2626
  740MOL0     H99834   7.050   5.469  10.807 -2.2248  2.9263 -0.4038
  740MOL0     H99835   6.934   5.368  11.198 -1.1814 -1.0995  0.8686
  740MOL0     H99836   6.827   5.508  11.223  1.5308 -1.2674  0.6999
  740MOL0     H99837   6.768   5.266  11.064  0.0218  0.2120 -0.9711
  740MOL0     H99838   6.713   5.285  11.234  0.0017  0.2081  0.0846
  740MOL0     H99839   6.634   5.489  11.017 -0.7668  1.2155  0.2978
  740MOL0     H99840   6.534   5.344  11.056 -0.4943 -0.4609  1.3859
  740MOL0     H99841   6.497   5.419  11.278  1.2925 -0.9267 -0.1781
  740MOL0     H99842   6.628   5.532  11.283 -0.3732 -0.2606  0.8572
  740MOL0     H99843   6.424   5.672  11.251 -2.0076  2.5060 -2.4362
  740MOL0     H99844   6.508   5.680  11.093 -1.2982  0.7511 -1.6792
  740MOL0     H99845   6.289   5.649  11.062 -1.0422  1.1299  1.1803
  740MOL0     H99846   6.364   5.505  11.007 -2.4760  1.3901 -1.1876
  740MOL0     H99847   6.273   5.400  11.242  0.4481  0.0620  0.6319
  740MOL0     H99848   6.190   5.554  11.257 -1.0110 -1.8128 -0.9720
  740MOL0     H99849   6.133   5.325  11.068  0.4729  1.6722 -1.7459
  740MOL0     H99850   6.130   5.489  10.999  3.4957 -0.1965  0.3606
  740MOL0     H99851   6.045   5.399  11.356  0.5569 -0.2912 -1.5267
  740MOL0     H99852   5.697   5.419  11.451 -0.2574 -0.1678  0.2762
  740MOL0     H99853   5.854   5.426  11.531 -3.6803 -3.2204  1.5801
  740MOL0     H99854   5.692   5.616  11.588  1.3739  2.1842  0.6915
  740MOL0     H99855   5.705   5.664  11.415 -0.9108 -3.6861 -1.3333
  740MOL0     H99856   5.946   5.719  11.454 -2.0171  2.3229 -1.0353
  740MOL0     H99857   5.951   5.630  11.606 -2.0071 -1.1844  1.4987
  740MOL0     H99858   5.948   5.852  11.664 -0.7247 -1.3652  1.1366
  740MOL0     H99859   5.777   5.815  11.687  0.2282 -1.6423 -0.0530
  740MOL0     H99860   5.829   6.037  11.769 -0.8858  2.2347  2.9914
  740MOL0     H99861   5.718   6.276  11.924 -0.1835 -2.3405  1.4340
  740MOL0     H99862   5.854   6.187  11.927  0.8300  1.1675  1.7421
  740MOL0     H99863   5.876   6.367  11.881 -2.3022  1.4241 -2.3762
  740MOL0     H99864   5.709   6.577  12.003  0.8556  0.0116  0.2100
  740MOL0     H99865   5.713   6.823  12.101 -0.6868 -0.7032  0.1825
  740MOL0     H99866   5.730   7.181  11.842  2.5853  0.1593  0.7004
  740MOL0     H99867   5.563   7.132  11.858 -1.3170  0.2718  1.9769
  740MOL0     H99868   5.594   7.346  11.950  2.3370 -2.2756 -2.5806
  740MOL0     H99869   5.518   7.248  12.060 -2.8136  2.0483 -5.7871
  740MOL0     H99870   5.730   7.411  12.129 -1.2079  0.2460  1.3414
  740MOL0     H99871   5.837   7.292  12.078  0.3873  2.9161  0.9494
  740MOL0     H99872   5.638   7.237  12.305 -0.1678 -1.1268  0.7448
  740MOL0     H99873   5.727   7.113  12.223  5.2655 -0.0348 -0.1534
  740MOL0     H99874   5.947   7.246  12.274  1.0715  0.4928  0.0162
  740MOL0     H99875   5.873   7.176  12.418  0.9172  1.8977  0.9643
  740MOL0     H99876   5.945   7.375  12.474 -2.0035 -1.4909  1.4921
  740MOL0     H99877   5.883   7.455  12.323 -1.0189  0.1557 -0.4785
  740MOL0     H99878   5.718   7.335  12.551  1.4494 -0.5352  0.0551
  740MOL0     H99879   5.652   7.426  12.405 -0.5891  2.3392  1.9621
  740MOL0     H99880   5.806   7.577  12.597 -1.3003  2.9484  0.4509
  740MOL0     H99881   5.631   7.584  12.577 -0.3181 -0.4848 -1.5359
  740MOL0     H99882   5.645   6.988  11.718  5.4188  0.8912 -0.4471
  740MOL0     H99883   5.657   6.760  11.615 -0.8080  2.4816  0.3474
  740MOL0     H99884   5.795   6.355  11.401  0.5668  0.8179  0.7995
  740MOL0     H99885   5.821   6.125  11.352  2.9839 -0.9660  1.1778
  740MOL0     H99886   7.061   5.611  11.216  0.4268 -1.5618 -0.2548
  740MOL0     H99887   7.292   5.671  11.178  0.3967 -0.4303 -0.3850
  740MOL0     H99888   7.487   6.081  11.013  1.0755  1.4047  0.1177
  740MOL0     H99889   7.697   6.188  10.933  3.1880 -0.6217  1.7183
  740MOL0     H99890   7.815   6.291  10.742 -0.2526  0.2204  0.2325
  740MOL0     H99891   7.933   6.254  10.870 -0.0199  1.7124 -0.1871
  740MOL0     H99892   8.011   6.347  10.628  3.1326  0.2414 -0.5336
  740MOL0     H99893   8.028   6.188  10.600  0.6842  4.2203 -2.3888
  740MOL0     H99894   8.154   6.162  10.826 -2.3949  0.8150  2.3033
  740MOL0     H99895   8.139   6.338  10.842  0.2831  1.3039 -0.3970
  740MOL0     H99896   8.252   6.203  10.590 -2.6694 -2.3016  1.8903
  740MOL0     H99897   8.357   6.218  10.736  0.5846 -1.8236 -1.2630
  740MOL0     H99898   8.403   6.591  10.589  0.5226 -1.4543 -1.8733
  740MOL0     H99899   7.790   5.867  10.683 -0.7191 -0.3867 -0.0697
  740MOL0     H99900   7.585   5.732  10.779 -3.4536  0.4164  0.4697
  741MOL0     O99901   1.519   2.724   1.063  0.5452 -0.1145  1.0140
  741MOL0     C99902   1.493   2.645   0.972 -0.5645  1.4721  0.4394
  741MOL0     O99903   1.585   2.577   0.897  0.1740 -0.5049  0.2505
  741MOL0     C99904   1.709   2.584   0.944 -0.2318 -1.4156  0.1129
  741MOL0     C99905   1.796   2.677   0.891 -0.7078  0.3032  0.0927
  741MOL0     C99906   1.930   2.685   0.927 -0.0160 -0.2317  0.4263
  741MOL0     C99907   1.983   2.603   1.024  0.2579  0.8246 -0.1818
  741MOL0     O99908   2.119   2.613   1.059  0.0636  0.7469 -0.4982
  741MOL0     C99909   2.193   2.514   1.135 -0.6044  0.3634  0.5739
  741MOL0     C99910   2.342   2.552   1.121 -0.2422  0.1197 -0.2139
  741MOL0     C99911   2.424   2.422   1.111  0.0133 -0.7258  0.6206
  741MOL0     C99912   2.575   2.445   1.123  0.2835 -0.6007  0.5259
  741MOL0     C99913   2.655   2.320   1.083  0.0217  0.4408  0.2274
  741MOL0     C99914   2.806   2.327   1.094 -0.5304  0.8497 -0.3369
  741MOL0     C99915   2.886   2.384   0.966  0.3397 -0.3132 -0.4683
  741MOL0     C99916   3.035   2.429   1.001 -0.1249  0.4931 -0.5182
  741MOL0     N99917   3.115   2.393   0.889 -0.0818  0.2075  0.0238
  741MOL0     C99918   3.107   2.436   0.760 -0.4065  1.0255  0.3501
  741MOL0     C99919   3.203   2.370   0.692 -0.3632  0.4271 -0.9356
  741MOL0     C99920   3.241   2.378   0.548 -0.3453  0.4153 -0.4501
  741MOL0     C99921   3.395   2.376   0.520  0.0161  0.8407  0.1759
  741MOL0     C99922   3.430   2.411   0.377  0.2269 -0.1591 -0.5628
  741MOL0     C99923   3.585   2.393   0.348 -0.1584  0.2261 -0.6051
  741MOL0     O99924   3.622   2.457   0.231 -0.0678 -0.0895  0.7846
  741MOL0     C99925   3.744   2.432   0.189  0.1527 -0.9667  0.9068
  741MOL0     C99926   3.769   2.483   0.061 -0.8489 -0.3625  0.0644
  741MOL0     C99927   3.899   2.470   0.001 -0.1685  0.2327 -0.5479
  741MOL0     C99928   3.911   2.538  -0.134  0.6681  1.3440  0.1943
  741MOL0     C99929   4.001   2.397   0.071  0.3807  0.9278  0.2866
  741MOL0     C99930   4.122   2.339  -0.004  0.5850  0.1068  0.7006
  741MOL0     O99931   4.135   2.376  -0.145  0.7613  0.3355 -0.1259
  741MOL0     C99932   4.248   2.390  -0.221 -0.1895  0.5138 -0.3248
  741MOL0     C99933   4.240   2.418  -0.355  0.6571 -0.0630 -0.6538
  741MOL0     C99934   4.361   2.431  -0.431  0.4733 -0.1827 -0.3678
  741MOL0     C99935   4.487   2.402  -0.375  0.2995  0.1554 -0.9541
  741MOL0     O99936   4.597   2.405  -0.459 -0.6686  0.4067  0.2553
  741MOL0     C99937   4.709   2.476  -0.409  0.4623 -0.3078  0.0078
  741MOL0     C99938   4.810   2.534  -0.502 -0.1284  0.2684  1.2233
  741MOL0     C99939   4.884   2.429  -0.585 -0.1392 -0.0605  0.4315
  741MOL0     C99940   4.996   2.498  -0.673 -0.0203 -0.0938 -0.2088
  741MOL0     C99941   5.084   2.403  -0.756 -0.5987 -0.7416 -0.4264
  741MOL0     C99942   5.185   2.316  -0.672 -0.3399  0.3037  0.8493
  741MOL0     C99943   5.277   2.379  -0.571 -0.0000 -0.6410  0.2977
  741MOL0     C99944   5.404   2.306  -0.535  0.2346  0.3451  0.3301
  741MOL0    Cl99945   5.387   2.172  -0.429  0.5975  0.4469  0.3611
  741MOL0     C99946   4.497   2.359  -0.241 -0.0138  0.1125  0.3756
  741MOL0     C99947   4.379   2.362  -0.165  0.7264  0.3447  0.7944
  741MOL0     O99948   4.187   2.252   0.047  0.2984 -0.1630 -0.4912
  741MOL0     C99949   3.969   2.350   0.203  0.3074  0.2248  0.2244
  741MOL0     C99950   3.847   2.367   0.260  0.3735  0.0982  0.0637
  741MOL0     N99951   3.265   2.285   0.786 -0.3179 -0.1965 -0.1718
  741MOL0     N99952   3.215   2.299   0.906 -0.2153  0.8337 -0.0150
  741MOL0     C99953   1.897   2.507   1.081 -0.0291  0.9548 -0.3309
  741MOL0     C99954   1.754   2.502   1.051  0.3901  0.5559  0.3692
  741MOL0     C99955   1.354   2.629   0.939 -0.8954 -0.1759  0.1994
  741MOL0     C99956   1.254   2.675   1.029  0.2731 -0.2269 -0.9163
  741MOL0     C99957   1.123   2.628   1.010 -0.2302 -0.0205 -0.6100
  741MOL0     C99958   1.090   2.549   0.902  0.4793 -0.3446  0.3342
  741MOL0     O99959   0.957   2.514   0.874  0.5805 -0.0769 -0.4551
  741MOL0     C99960   0.851   2.608   0.918 -0.4997  0.0722  0.1581
  741MOL0     C99961   0.872   2.754   0.872  0.5275  0.3717  0.1714
  741MOL0     C99962   0.867   2.764   0.718  0.4372  0.0701  0.4005
  741MOL0     C99963   0.823   2.901   0.673  0.6868 -0.3140  0.3693
  741MOL0     C99964   0.935   2.998   0.673 -0.0243 -0.8754  0.0389
  741MOL0     C99965   1.033   3.075   0.666  0.7423  0.3276 -0.4306
  741MOL0     C99966   1.190   2.497   0.828 -0.1458  0.3927 -0.4450
  741MOL0     C99967   1.320   2.534   0.840 -0.4818  0.1375  0.7470
  741MOL0     H99968   1.756   2.737   0.809  1.3263  0.1608 -1.0754
  741MOL0     H99969   1.993   2.756   0.876 -3.4815  1.6326 -1.6104
  741MOL0     H99970   2.167   2.522   1.241 -0.6825  0.7820  0.5258
  741MOL0     H99971   2.177   2.409   1.110 -0.1987  0.8116 -1.8967
  741MOL0     H99972   2.362   2.611   1.032 -1.4700 -1.5196 -1.6349
  741MOL0     H99973   2.376   2.625   1.195 -0.1084  1.9225 -2.0007
  741MOL0     H99974   2.385   2.361   1.193 -0.3246 -0.3439  0.7450
  741MOL0     H99975   2.400   2.382   1.012 -1.8226  2.7885 -0.5139
  741MOL0     H99976   2.607   2.524   1.054  2.4593  0.9902  3.1536
  741MOL0     H99977   2.603   2.496   1.216 -0.8149  4.3619 -1.5399
  741MOL0     H99978   2.622   2.247   1.157 -0.5889  1.5146  1.0379
  741MOL0     H99979   2.630   2.283   0.983  0.5981 -1.4390  0.7358
  741MOL0     H99980   2.825   2.392   1.180  0.7192  1.6364 -1.1721
  741MOL0     H99981   2.840   2.226   1.118 -1.8803 -0.2762 -2.7372
  741MOL0     H99982   2.883   2.305   0.891  0.0018 -5.0610  3.9692
  741MOL0     H99983   2.834   2.473   0.929 -0.8689 -0.0799  1.5817
  741MOL0     H99984   3.075   2.371   1.085  2.1579  0.3087 -1.6308
  741MOL0     H99985   3.035   2.536   1.021  0.8486  0.3247  0.4602
  741MOL0     H99986   3.037   2.508   0.720 -2.1214 -1.0102 -0.5005
  741MOL0     H99987   3.187   2.290   0.510  0.7315 -1.4041  1.9851
  741MOL0     H99988   3.199   2.472   0.511 -1.0139  0.5161  0.5237
  741MOL0     H99989   3.443   2.287   0.561  0.8853  1.2909  0.1714
  741MOL0     H99990   3.447   2.452   0.579  1.6927  2.6884 -3.3232
  741MOL0     H99991   3.405   2.518   0.375 -2.9617 -0.7174  1.6768
  741MOL0     H99992   3.361   2.360   0.310 -0.5893  0.9198 -0.5732
  741MOL0     H99993   3.608   2.286   0.346  1.5360  0.5719 -2.4907
  741MOL0     H99994   3.634   2.442   0.432  0.3920  0.1476 -0.8764
  741MOL0     H99995   3.692   2.530   0.001  0.9176 -0.4255 -2.3973
  741MOL0     H99996   4.005   2.590  -0.154  1.6651 -0.1291  0.9068
  741MOL0     H99997   3.897   2.463  -0.213 -0.8778  2.0732 -0.2578
  741MOL0     H99998   3.831   2.609  -0.159 -0.2260 -0.9900 -4.9768
  741MOL0     H99999   4.148   2.435  -0.409 -0.2099  1.1856  1.1236
  741MOL0     H    0   4.366   2.453  -0.537  1.4934 -0.2199 -0.3316
  741MOL0     H    1   4.669   2.562  -0.354 -2.8706 -2.4647  1.2925
  741MOL0     H    2   4.767   2.417  -0.337  1.3068 -0.4152 -0.7547
  741MOL0     H    3   4.748   2.600  -0.564 -1.7666  1.0164  3.5151
  741MOL0     H    4   4.881   2.600  -0.452  0.5764  0.9046 -0.5359
  741MOL0     H    5   4.814   2.377  -0.651 -0.8269  1.5735 -0.1600
  741MOL0     H    6   4.930   2.355  -0.518  0.0386  0.7298  1.1945
  741MOL0     H    7   4.940   2.554  -0.749 -1.7753  0.0326  1.1021
  741MOL0     H    8   5.060   2.566  -0.616  2.4047 -2.4042 -0.0065
  741MOL0     H    9   5.143   2.457  -0.830  0.2949  0.1561  0.8810
  741MOL0     H   10   5.010   2.333  -0.795 -0.2901 -1.0605 -0.4397
  741MOL0     H   11   5.131   2.241  -0.612 -1.8594  0.7119  0.0469
  741MOL0     H   12   5.244   2.271  -0.752 -0.6735  2.3169 -0.5946
  741MOL0     H   13   5.232   2.389  -0.472 -0.7803 -0.1991 -0.1011
  741MOL0     H   14   5.299   2.474  -0.619  0.4657 -1.1486 -0.5236
  741MOL0     H   15   5.466   2.372  -0.474  2.0885  0.5403 -1.6658
  741MOL0     H   16   5.456   2.274  -0.626 -2.6548 -1.8201 -0.7202
  741MOL0     H   17   4.583   2.311  -0.196  0.7498 -1.0794 -2.1767
  741MOL0     H   18   4.387   2.323  -0.064 -1.0678  1.6454  1.4886
  741MOL0     H   19   4.051   2.304   0.256 -0.3112 -2.5032 -1.0003
  741MOL0     H   20   3.847   2.329   0.361  0.7497  3.5172  1.4852
  741MOL0     H   21   1.932   2.442   1.160  0.2453 -1.0479 -2.0281
  741MOL0     H   22   1.688   2.426   1.092  1.3317  0.0291  0.9622
  741MOL0     H   23   1.271   2.744   1.111  1.6988 -1.4960 -0.0977
  741MOL0     H   24   1.052   2.677   1.076  0.3228 -0.5073  0.3751
  741MOL0     H   25   0.758   2.579   0.868 -2.1814  0.3368  2.9157
  741MOL0     H   26   0.828   2.604   1.025 -1.7370 -1.0333 -0.1319
  741MOL0     H   27   0.965   2.801   0.904  1.0508 -0.2340 -0.4110
  741MOL0     H   28   0.790   2.813   0.912 -1.2695 -1.1711 -1.0553
  741MOL0     H   29   0.792   2.694   0.679 -1.1032  2.5085 -1.3039
  741MOL0     H   30   0.963   2.737   0.673  1.4803  3.1725  0.5139
  741MOL0     H   31   0.739   2.938   0.732  0.6884  2.7823 -1.3549
  741MOL0     H   32   0.782   2.900   0.571 -0.1751  1.0093  0.6858
  741MOL0     H   33   1.105   3.154   0.656 -0.6053  1.8774  1.3619
  741MOL0     H   34   1.167   2.425   0.750  0.6329 -2.0665  1.4638
  741MOL0     H   35   1.390   2.492   0.769 -0.3841  1.6928 -0.1237
  742MOL0     O   36  10.133   9.371   9.795  0.1770 -0.2164  0.4417
  742MOL0     C   37  10.107   9.335   9.905 -0.0928 -0.1457 -0.4747
  742MOL0     O   38  10.009   9.251   9.934  0.0293  0.3274  0.6664
  742MOL0     C   39  10.028   9.148  10.020 -0.7785  0.6903 -0.0997
  742MOL0     C   40  10.156   9.099  10.056  0.1086 -0.0514 -0.3561
  742MOL0     C   41  10.166   8.994  10.145 -0.1626 -0.1738  0.2527
  742MOL0     C   42  10.050   8.935  10.199  0.0682 -0.2724 -0.2149
  742MOL0     O   43  10.076   8.833  10.285  0.3956  0.4867 -0.6697
  742MOL0     C   44   9.972   8.741  10.332 -0.1859 -0.5377  0.3354
  742MOL0     C   45  10.019   8.616  10.399  1.1915 -0.1786 -0.0499
  742MOL0     C   46  10.060   8.521  10.282  0.1504 -0.0315  0.7351
  742MOL0     C   47  10.142   8.403  10.340 -0.4442 -0.4593 -0.4713
  742MOL0     C   48  10.134   8.274  10.262 -0.0346 -0.1199  0.3909
  742MOL0     C   49  10.208   8.159  10.326 -0.2682 -0.0582  0.1054
  742MOL0     C   50  10.190   8.026  10.237  0.5201 -1.0593  0.9169
  742MOL0     C   51  10.239   7.902  10.304 -0.6844  0.9974 -0.6677
  742MOL0     N   52  10.197   7.885  10.443  0.3443  1.1576 -0.8905
  742MOL0     C   53  10.066   7.886  10.484  0.2386  0.2613 -0.1512
  742MOL0     C   54  10.072   7.891  10.619  0.3033  0.1858  0.3339
  742MOL0     C   55   9.947   7.905  10.708 -0.1356  0.0400  0.1543
  742MOL0     C   56   9.871   8.034  10.658  0.2914 -0.5732 -0.2831
  742MOL0     C   57   9.755   8.048  10.748  1.3318  0.1175  0.7818
  742MOL0     C   58   9.683   8.183  10.735 -0.6776  0.5080  0.4210
  742MOL0     O   59   9.664   8.226  10.604 -1.1187  0.3465  0.0220
  742MOL0     C   60   9.645   8.350  10.563  0.5667 -0.4485  0.1342
  742MOL0     C   61   9.655   8.365  10.423  0.1294  0.4256 -0.5728
  742MOL0     C   62   9.639   8.491  10.372 -0.1284 -0.7456  0.3803
  742MOL0     C   63   9.630   8.504  10.231 -0.1711 -0.1747 -0.0672
  742MOL0     C   64   9.615   8.606  10.461  0.0090  0.2288  0.3693
  742MOL0     C   65   9.588   8.754  10.413  0.3771  0.6574  0.6093
  742MOL0     O   66   9.627   8.848  10.498 -0.2302 -0.2793  0.0667
  742MOL0     C   67   9.620   8.979  10.472  0.3020  0.2197 -0.4698
  742MOL0     C   68   9.508   9.052  10.486  0.2206 -0.0639  1.1844
  742MOL0     C   69   9.506   9.182  10.439  0.4021 -0.2930  0.2602
  742MOL0     C   70   9.615   9.237  10.368  0.5480 -0.0248  0.5331
  742MOL0     O   71   9.586   9.362  10.315 -0.4192  0.3202 -0.0679
  742MOL0     C   72   9.671   9.391  10.193 -0.3964 -0.6315 -0.5634
  742MOL0     C   73   9.629   9.517  10.118  0.6441  1.2620  0.4554
  742MOL0     C   74   9.664   9.512   9.967  0.3223 -0.1247 -0.3395
  742MOL0     C   75   9.569   9.419   9.882  0.7874  0.2658  0.6912
  742MOL0     C   76   9.615   9.404   9.732  0.3599 -0.4361 -0.1948
  742MOL0     C   77   9.764   9.412   9.713 -0.7981  0.0962 -0.0309
  742MOL0     C   78   9.798   9.411   9.564  0.0379 -0.4863  0.1854
  742MOL0     C   79   9.950   9.425   9.555 -0.1598 -0.2616 -1.0772
  742MOL0    Cl   80  10.006   9.435   9.380 -0.4011 -0.2175  0.4595
  742MOL0     C   81   9.736   9.167  10.368 -0.9779  0.8470  0.1000
  742MOL0     C   82   9.737   9.038  10.417 -0.2662  0.2426 -0.4230
  742MOL0     O   83   9.551   8.769  10.296  0.2425  0.1219  0.1285
  742MOL0     C   84   9.597   8.577  10.600  0.0882  0.0045 -0.2264
  742MOL0     C   85   9.631   8.455  10.649  0.1461 -0.5613 -0.4171
  742MOL0     N   86  10.204   7.886  10.652 -0.3137 -0.1547 -0.1752
  742MOL0     N   87  10.283   7.887  10.551 -0.0625  1.0633  0.4049
  742MOL0     C   88   9.925   8.970  10.143  0.7566 -0.5361 -0.0939
  742MOL0     C   89   9.916   9.075  10.055 -0.3472 -1.3689  0.4880
  742MOL0     C   90  10.185   9.396  10.022  0.2955  0.8360 -0.0824
  742MOL0     C   91  10.307   9.474  10.000  0.7133  0.3135 -0.1499
  742MOL0     C   92  10.388   9.526  10.106 -0.0748  0.4302 -0.3635
  742MOL0     C   93  10.333   9.535  10.237 -0.3914 -0.3067  0.1161
  742MOL0     O   94  10.411   9.587  10.335  0.0251  0.8769 -0.2921
  742MOL0     C   95  10.364   9.571  10.472  0.9748 -0.1089  0.5079
  742MOL0     C   96  10.472   9.587  10.581  0.4789  0.6941 -0.2414
  742MOL0     C   97  10.605   9.500  10.568  1.3383 -0.5331  0.4465
  742MOL0     C   98  10.583   9.356  10.630  0.4013  0.3310  0.3094
  742MOL0     C   99  10.710   9.281  10.644 -0.4921  0.4006 -0.4505
  742MOL0     C  100  10.803   9.212  10.690 -0.3999  0.4870 -0.4862
  742MOL0     C  101  10.206   9.481  10.255 -0.7163  1.1079 -0.5110
  742MOL0     C  102  10.129   9.416  10.151  0.2325  0.8482 -0.2829
  742MOL0     H  103  10.242   9.149  10.010 -1.6827  2.2896 -1.3630
  742MOL0     H  104  10.266   8.957  10.166  0.2357  1.1859  0.9456
  742MOL0     H  105   9.919   8.795  10.412  1.5941  1.8147  0.0444
  742MOL0     H  106   9.904   8.709  10.252 -0.1682  0.7543 -0.2315
  742MOL0     H  107  10.101   8.649  10.463  1.1280  2.8229 -1.3298
  742MOL0     H  108   9.936   8.573  10.455  0.5219 -0.1823 -1.0223
  742MOL0     H  109   9.969   8.479  10.238 -0.5053  1.1262  0.9417
  742MOL0     H  110  10.112   8.580  10.207 -1.3463  3.6854  2.3988
  742MOL0     H  111  10.244   8.442  10.344 -1.1881  1.8490 -1.8997
  742MOL0     H  112  10.109   8.390  10.443 -0.0542  0.6600 -0.1897
  742MOL0     H  113  10.027   8.250  10.260 -0.5477  1.7560  2.1541
  742MOL0     H  114  10.163   8.300  10.160  1.0907  3.3335  1.4857
  742MOL0     H  115  10.313   8.185  10.335 -0.6260  0.8622  2.1186
  742MOL0     H  116  10.166   8.144  10.426 -3.0060 -1.7875 -1.1747
  742MOL0     H  117  10.085   8.015  10.211 -0.2815  2.5188  2.0636
  742MOL0     H  118  10.252   8.032  10.147 -2.7778 -1.4662 -1.5717
  742MOL0     H  119  10.346   7.881  10.300 -0.5699  1.3697  0.1240
  742MOL0     H  120  10.198   7.822  10.242 -4.1934  2.4806 -0.4724
  742MOL0     H  121   9.984   7.880  10.413 -0.2963 -1.3881  0.5704
  742MOL0     H  122   9.882   7.818  10.700  0.1766 -0.2626  0.8312
  742MOL0     H  123   9.976   7.897  10.813  2.1748 -2.3090 -0.5642
  742MOL0     H  124   9.834   8.023  10.555  0.9846 -1.4513 -0.4471
  742MOL0     H  125   9.923   8.130  10.662 -1.6232  0.4804  0.8933
  742MOL0     H  126   9.761   8.024  10.855  0.4814  1.0303  1.0486
  742MOL0     H  127   9.684   7.973  10.712 -0.5448  0.9340  2.5860
  742MOL0     H  128   9.747   8.259  10.782  1.7813  0.8888 -3.1011
  742MOL0     H  129   9.587   8.177  10.786 -0.8267 -0.1788  0.0657
  742MOL0     H  130   9.675   8.279  10.360  0.7264  0.9322 -1.0956
  742MOL0     H  131   9.719   8.560  10.203 -2.3817  3.2108 -0.9356
  742MOL0     H  132   9.641   8.406  10.183 -1.5532 -0.9455  1.1000
  742MOL0     H  133   9.535   8.552  10.202  1.2543  2.0502 -1.3334
  742MOL0     H  134   9.422   9.003  10.531 -0.4229 -1.3714 -1.3090
  742MOL0     H  135   9.415   9.240  10.453  1.1226  0.5485  1.7731
  742MOL0     H  136   9.772   9.404  10.234 -1.6309  2.1942  1.9598
  742MOL0     H  137   9.678   9.310  10.121  4.8210  0.0043 -1.1440
  742MOL0     H  138   9.521   9.519  10.134  0.5956 -2.0015  1.2052
  742MOL0     H  139   9.672   9.600  10.175 -0.3700 -0.3698  3.8425
  742MOL0     H  140   9.762   9.464   9.971 -1.1838 -3.4042  2.2106
  742MOL0     H  141   9.655   9.615   9.931 -2.7938 -0.1974 -0.0588
  742MOL0     H  142   9.566   9.315   9.918  1.1136 -0.4829 -1.2940
  742MOL0     H  143   9.463   9.446   9.884 -0.4842 -3.8893  0.0472
  742MOL0     H  144   9.570   9.490   9.682 -2.3615  0.0297  2.7512
  742MOL0     H  145   9.575   9.306   9.704 -0.9288 -0.0195  0.1216
  742MOL0     H  146   9.808   9.504   9.753  2.4937 -1.1601 -0.4884
  742MOL0     H  147   9.804   9.324   9.764  1.6856  1.0319 -0.2559
  742MOL0     H  148   9.732   9.485   9.517 -0.3213 -0.4958  0.6717
  742MOL0     H  149   9.765   9.316   9.521 -3.2486  2.3491 -4.6259
  742MOL0     H  150   9.987   9.335   9.606 -1.4973 -0.4971 -0.4717
  742MOL0     H  151   9.960   9.516   9.614 -1.5663 -1.9390  2.0148
  742MOL0     H  152   9.820   9.208  10.312 -1.2938 -2.0234 -2.7686
  742MOL0     H  153   9.825   8.974  10.419  0.8504  1.6585  2.8167
  742MOL0     H  154   9.576   8.663  10.664  3.7257  0.6440  0.3126
  742MOL0     H  155   9.645   8.454  10.757  0.0461 -1.6474 -0.4040
  742MOL0     H  156   9.849   8.902  10.180 -1.3648  2.3061  1.2374
  742MOL0     H  157   9.825   9.112  10.008 -0.0768 -0.4581  0.6613
  742MOL0     H  158  10.345   9.486   9.899  2.0922  2.8787  0.5770
  742MOL0     H  159  10.474   9.584  10.073 -0.7805  0.7252 -1.7224
  742MOL0     H  160  10.282   9.642  10.487  1.5724  0.2046  2.5539
  742MOL0     H  161  10.318   9.473  10.488 -2.0733  1.3614  1.5202
  742MOL0     H  162  10.429   9.571  10.680 -0.8140  1.2963 -0.6882
  742MOL0     H  163  10.509   9.689  10.569  3.7020 -0.1845  1.1334
  742MOL0     H  164  10.693   9.545  10.614  2.7553  1.3257 -3.5546
  742MOL0     H  165  10.623   9.489  10.460 -0.3079  0.0077  0.0864
  742MOL0     H  166  10.520   9.305  10.557 -0.0221  0.2293  0.7404
  742MOL0     H  167  10.531   9.364  10.726  1.0160 -0.9989  0.7685
  742MOL0     H  168  10.878   9.143  10.724 -1.2833  0.2379  1.0732
  742MOL0     H  169  10.156   9.492  10.351  0.8460  5.8431  0.0169
  742MOL0     H  170  10.040   9.358  10.172  1.2707 -1.4087 -1.7088
  743MOL0     O  171   3.991   6.467   5.003  0.2000 -0.0033  0.0636
  743MOL0     C  172   4.099   6.407   4.977  0.3908  0.6405  0.0614
  743MOL0     O  173   4.231   6.430   5.024 -0.5967  0.0884  0.1913
  743MOL0     C  174   4.263   6.535   5.103  0.0209  0.9195  0.1392
  743MOL0     C  175   4.184   6.645   5.138  0.8296 -0.1717 -0.4551
  743MOL0     C  176   4.231   6.739   5.234  0.1714  1.2502 -0.3309
  743MOL0     C  177   4.364   6.735   5.280  1.2711 -0.1927 -0.9341
  743MOL0     O  178   4.423   6.835   5.360 -0.2750 -0.2536 -0.2581
  743MOL0     C  179   4.366   6.863   5.485 -0.4238  0.1682 -0.7533
  743MOL0     C  180   4.467   6.931   5.579 -0.2603 -0.0042 -0.5027
  743MOL0     C  181   4.414   6.933   5.725  0.7913  0.2353  0.0311
  743MOL0     C  182   4.498   7.027   5.810  0.0624 -0.4071  0.7547
  743MOL0     C  183   4.436   7.044   5.949 -0.2370 -0.1077 -0.1155
  743MOL0     C  184   4.448   6.911   6.036 -1.2601 -0.1022 -0.2646
  743MOL0     C  185   4.363   6.908   6.169  0.0900  0.6366 -0.3828
  743MOL0     C  186   4.216   6.875   6.151 -0.4657 -0.7899 -0.3669
  743MOL0     N  187   4.136   6.972   6.225  0.0699 -0.8176  0.9634
  743MOL0     C  188   4.121   7.096   6.180 -0.1203 -0.5926 -0.1473
  743MOL0     C  189   4.080   7.166   6.292 -0.3396  0.4244  0.4617
  743MOL0     C  190   4.072   7.320   6.295 -0.1665  0.0639 -0.5578
  743MOL0     C  191   3.953   7.375   6.219  0.3980 -0.2107  0.0623
  743MOL0     C  192   3.820   7.348   6.302 -0.3555  0.8794  0.1115
  743MOL0     C  193   3.685   7.406   6.253  0.2717 -0.2922 -0.5455
  743MOL0     O  194   3.670   7.366   6.114  0.3111 -0.7860  0.3894
  743MOL0     C  195   3.539   7.365   6.064  1.0483 -0.0776  0.3511
  743MOL0     C  196   3.426   7.436   6.120  0.2926  0.3895  1.0667
  743MOL0     C  197   3.300   7.406   6.062  0.3402  0.3725  0.1918
  743MOL0     C  198   3.180   7.473   6.130  0.1008 -0.2192 -0.7003
  743MOL0     C  199   3.290   7.309   5.958  0.6309 -0.8962  0.2428
  743MOL0     C  200   3.157   7.262   5.903 -0.6530 -0.4817 -0.3351
  743MOL0     O  201   3.059   7.239   5.990  0.5819 -0.1806  0.2004
  743MOL0     C  202   2.931   7.227   5.945 -0.1963 -0.0530 -0.1718
  743MOL0     C  203   2.901   7.131   5.850 -0.2578 -0.4751  0.7205
  743MOL0     C  204   2.767   7.115   5.813 -0.3041 -0.2872 -0.0988
  743MOL0     C  205   2.668   7.184   5.881  0.0856 -0.2702  0.3856
  743MOL0     O  206   2.533   7.156   5.853 -0.2433 -0.8503 -0.0774
  743MOL0     C  207   2.434   7.271   5.870  0.5631  0.1081 -0.5092
  743MOL0     C  208   2.295   7.237   5.807 -0.4803  0.4029  1.0731
  743MOL0     C  209   2.264   7.351   5.712 -0.1709 -0.4960  0.9465
  743MOL0     C  210   2.133   7.323   5.630 -0.1676 -0.2823  0.2793
  743MOL0     C  211   2.102   7.449   5.544  0.4269  1.1511  0.6340
  743MOL0     C  212   1.952   7.456   5.494 -0.9399 -0.2004  0.4831
  743MOL0     C  213   1.918   7.318   5.431  0.0630  0.4518 -0.3858
  743MOL0     C  214   1.777   7.326   5.373 -1.0177  0.3119 -0.0523
  743MOL0    Cl  215   1.713   7.164   5.360 -0.3502 -0.1837 -0.5757
  743MOL0     C  216   2.695   7.269   5.982  1.2077 -0.1702 -0.9189
  743MOL0     C  217   2.828   7.296   6.013 -0.2999 -0.5919  0.1352
  743MOL0     O  218   3.148   7.250   5.780 -0.0232 -0.2826  0.2060
  743MOL0     C  219   3.405   7.264   5.892 -0.4937  0.3209  0.3048
  743MOL0     C  220   3.524   7.292   5.946  0.1039  1.0291 -0.8239
  743MOL0     N  221   4.062   7.088   6.402  0.6263  0.8339  0.3329
  743MOL0     N  222   4.092   6.966   6.353 -0.5310  0.6095  0.6617
  743MOL0     C  223   4.445   6.629   5.239 -0.7389  0.1170  0.8026
  743MOL0     C  224   4.395   6.527   5.154 -0.9837 -0.3389 -0.8348
  743MOL0     C  225   4.099   6.311   4.865  0.5654  1.2237 -0.5266
  743MOL0     C  226   4.205   6.231   4.825 -0.6285  0.2405  1.3545
  743MOL0     C  227   4.182   6.138   4.721 -0.5554 -0.4044  1.4331
  743MOL0     C  228   4.069   6.132   4.647  0.3026 -0.2800  0.8725
  743MOL0     O  229   4.061   6.047   4.542  0.4328 -0.0251  0.1122
  743MOL0     C  230   3.929   6.006   4.490 -1.4906  0.1000 -0.6596
  743MOL0     C  231   3.943   5.856   4.476  0.1572  0.4981 -0.2289
  743MOL0     C  232   3.822   5.806   4.385  0.1413 -0.1890 -0.0350
  743MOL0     C  233   3.809   5.649   4.394  0.5638 -0.3510  0.4055
  743MOL0     C  234   3.670   5.617   4.351 -0.5498  0.9936  0.2469
  743MOL0     C  235   3.557   5.596   4.319 -0.6406  0.3859  0.1654
  743MOL0     C  236   3.970   6.224   4.679  0.2387  0.2466 -0.1667
  743MOL0     C  237   3.976   6.302   4.791  0.0991 -0.2502 -0.8454
  743MOL0     H  238   4.085   6.667   5.099  0.8910  0.0934 -0.4680
  743MOL0     H  239   4.178   6.829   5.264  2.0997  1.9460  1.2022
  743MOL0     H  240   4.280   6.930   5.477 -1.5950 -1.3701 -1.6318
  743MOL0     H  241   4.327   6.767   5.521  0.9516 -0.5916 -1.2357
  743MOL0     H  242   4.564   6.880   5.588 -0.6848 -0.5312  1.4103
  743MOL0     H  243   4.491   7.025   5.529  1.1166  0.2072  0.4964
  743MOL0     H  244   4.309   6.964   5.729 -0.1198 -2.2924 -1.6837
  743MOL0     H  245   4.404   6.831   5.764  0.4948 -0.0158 -0.6894
  743MOL0     H  246   4.604   7.000   5.806  1.2919  3.8583 -2.4706
  743MOL0     H  247   4.504   7.127   5.765 -2.3591 -0.4390  0.2087
  743MOL0     H  248   4.474   7.136   5.994 -0.5396  0.6591 -1.3544
  743MOL0     H  249   4.329   7.054   5.928 -0.0774 -2.3239 -2.4682
  743MOL0     H  250   4.426   6.828   5.968  1.7647 -0.8759 -0.4420
  743MOL0     H  251   4.552   6.890   6.059 -1.3621 -0.9708 -0.5512
  743MOL0     H  252   4.406   6.830   6.232  1.8105 -0.2901 -2.5565
  743MOL0     H  253   4.374   7.005   6.219  0.2060  0.4804 -0.1028
  743MOL0     H  254   4.194   6.777   6.194  4.1833 -1.0035  2.0680
  743MOL0     H  255   4.186   6.870   6.045  0.3548 -1.8720 -0.5597
  743MOL0     H  256   4.146   7.137   6.083 -1.6387 -0.7754 -0.6388
  743MOL0     H  257   4.066   7.355   6.398  0.1140 -1.0441 -0.1510
  743MOL0     H  258   4.172   7.344   6.258  1.8081 -0.3198  3.8962
  743MOL0     H  259   3.939   7.335   6.118 -1.3834  1.0903 -0.2628
  743MOL0     H  260   3.965   7.482   6.204  0.4867 -0.0928  0.9221
  743MOL0     H  261   3.853   7.392   6.397  3.0098 -1.6254  0.2821
  743MOL0     H  262   3.800   7.244   6.329  0.6030 -0.1277 -2.6536
  743MOL0     H  263   3.710   7.513   6.245  0.6550  0.0091  2.9747
  743MOL0     H  264   3.602   7.369   6.313  1.3151 -2.8103 -0.5335
  743MOL0     H  265   3.431   7.504   6.205  1.6630 -1.9142  2.9757
  743MOL0     H  266   3.197   7.566   6.185 -0.3619  1.3743 -3.0756
  743MOL0     H  267   3.110   7.503   6.051 -2.0285  2.5621  1.9890
  743MOL0     H  268   3.135   7.401   6.198 -0.2274  1.0528  0.4896
  743MOL0     H  269   2.972   7.068   5.797 -0.3492 -0.6494  0.8038
  743MOL0     H  270   2.742   7.033   5.746 -1.9091 -1.3199  1.6622
  743MOL0     H  271   2.413   7.281   5.977 -1.1775 -1.2018 -0.6865
  743MOL0     H  272   2.463   7.372   5.842 -0.4632  0.7479  0.6563
  743MOL0     H  273   2.296   7.144   5.749  0.7104  0.1761  1.4430
  743MOL0     H  274   2.210   7.233   5.876 -1.6463  1.5074 -0.2371
  743MOL0     H  275   2.346   7.374   5.643 -0.2134  0.6751  1.2805
  743MOL0     H  276   2.253   7.440   5.774  1.0390  0.1146  0.3169
  743MOL0     H  277   2.136   7.234   5.567 -2.6652  0.6308 -1.3014
  743MOL0     H  278   2.058   7.306   5.708 -1.7128 -0.7159 -1.2439
  743MOL0     H  279   2.167   7.444   5.456 -1.9881  1.2501 -1.2636
  743MOL0     H  280   2.118   7.540   5.603  1.0052  0.1413  2.0872
  743MOL0     H  281   1.903   7.470   5.591 -0.3144 -1.6551  1.0294
  743MOL0     H  282   1.938   7.541   5.427 -0.1164 -1.2584 -1.1019
  743MOL0     H  283   1.915   7.245   5.513  0.8110  1.0223  0.1691
  743MOL0     H  284   1.993   7.293   5.356  0.6705 -0.6064  0.5476
  743MOL0     H  285   1.765   7.365   5.271 -1.8541 -0.6006 -0.3214
  743MOL0     H  286   1.712   7.387   5.436  1.0217  0.2192  2.2890
  743MOL0     H  287   2.616   7.309   6.044 -0.3381 -0.6136 -2.5391
  743MOL0     H  288   2.857   7.366   6.090 -1.4164  0.2377 -0.1758
  743MOL0     H  289   3.397   7.194   5.810  0.3230  0.7393 -0.1530
  743MOL0     H  290   3.603   7.245   5.889 -1.2682 -1.0253 -1.1535
  743MOL0     H  291   4.547   6.637   5.273 -1.1702  0.9860  1.9731
  743MOL0     H  292   4.444   6.434   5.131 -1.1159 -1.1520  1.8718
  743MOL0     H  293   4.301   6.234   4.875 -1.3980  1.5695  2.8347
  743MOL0     H  294   4.261   6.065   4.704 -0.4507 -0.1018  0.5666
  743MOL0     H  295   3.838   6.032   4.545 -3.1884  0.3585 -3.4348
  743MOL0     H  296   3.911   6.035   4.386 -1.2344 -0.3086 -0.8223
  743MOL0     H  297   3.933   5.816   4.577  1.5683 -0.2862 -0.3670
  743MOL0     H  298   4.038   5.826   4.429 -0.7360  1.0091 -2.5057
  743MOL0     H  299   3.839   5.820   4.278 -1.0786  0.4216 -0.1592
  743MOL0     H  300   3.725   5.856   4.398 -1.0403 -2.0063 -1.4311
  743MOL0     H  301   3.814   5.619   4.499  3.6487  0.7308  0.6653
  743MOL0     H  302   3.880   5.595   4.330  0.9806 -1.2684  1.6142
  743MOL0     H  303   3.454   5.577   4.298 -1.8239  3.5599  2.3103
  743MOL0     H  304   3.882   6.239   4.617  0.8652  1.0390 -0.8915
  743MOL0     H  305   3.895   6.368   4.818  1.5170  0.9837  0.6483
  744MOL0     O  306  10.855   2.866   1.142 -0.2940 -0.7111 -1.0217
  744MOL0     C  307  10.913   2.823   1.241  0.4344 -0.0344  0.1995
  744MOL0     O  308  10.857   2.790   1.358  0.1990 -0.3109  0.0155
  744MOL0     C  309  10.735   2.850   1.383  0.3882  0.3071  0.1484
  744MOL0     C  310  10.644   2.784   1.460 -0.0797 -0.1817 -0.2145
  744MOL0     C  311  10.514   2.836   1.481  0.0189  0.2399  0.3163
  744MOL0     C  312  10.477   2.966   1.444  0.3929  0.4106 -0.6210
  744MOL0     O  313  10.356   3.022   1.480  0.4884 -0.7270  0.2230
  744MOL0     C  314  10.237   2.949   1.456  1.1277 -0.3034 -0.1418
  744MOL0     C  315  10.110   3.032   1.500 -0.3130  0.5276  0.5593
  744MOL0     C  316  10.087   3.152   1.403  0.5144  0.3568  0.2172
  744MOL0     C  317   9.944   3.211   1.408  0.7778 -0.7363 -0.1826
  744MOL0     C  318   9.926   3.348   1.351 -0.4125 -0.2434 -0.1262
  744MOL0     C  319   9.959   3.364   1.202  0.1990 -0.7501 -0.6183
  744MOL0     C  320  10.091   3.438   1.175 -1.0039  0.5138  0.2839
  744MOL0     C  321  10.086   3.590   1.173 -0.1528  0.0198  0.2700
  744MOL0     N  322  10.013   3.644   1.059  0.5066 -0.6166  0.0588
  744MOL0     C  323   9.879   3.687   1.068  0.6592  0.2153 -0.4458
  744MOL0     C  324   9.839   3.712   0.942 -0.5330 -0.5329 -0.3562
  744MOL0     C  325   9.702   3.761   0.911  0.6024  0.6914 -0.1042
  744MOL0     C  326   9.696   3.886   0.818  0.1170  0.0857 -0.1416
  744MOL0     C  327   9.552   3.898   0.756 -0.4789  0.4379 -0.0938
  744MOL0     C  328   9.544   4.017   0.669 -0.0681 -0.2245  0.2128
  744MOL0     O  329   9.537   4.141   0.736  0.3940  0.2647  0.2449
  744MOL0     C  330   9.619   4.243   0.681 -0.4470  0.6262  1.0039
  744MOL0     C  331   9.580   4.377   0.689  0.7585 -0.2990 -0.0719
  744MOL0     C  332   9.664   4.483   0.655 -0.2095  0.0281  1.2804
  744MOL0     C  333   9.592   4.617   0.641  0.3590 -0.1010 -1.0000
  744MOL0     C  334   9.804   4.458   0.631 -0.5650 -0.6350  0.4696
  744MOL0     C  335   9.903   4.562   0.595 -0.0590  0.0678 -0.2164
  744MOL0     O  336  10.033   4.520   0.576 -0.3038  0.4576  0.1041
  744MOL0     C  337  10.129   4.622   0.584  0.6314 -0.1781  0.6191
  744MOL0     C  338  10.196   4.668   0.467  0.5092 -0.7387 -0.2234
  744MOL0     C  339  10.289   4.764   0.480 -0.9420  0.3374  0.3892
  744MOL0     C  340  10.320   4.817   0.606 -0.4043  0.2157 -0.2010
  744MOL0     O  341  10.413   4.912   0.623  0.3512 -0.0871 -0.0029
  744MOL0     C  342  10.371   5.031   0.548 -0.7430 -0.5781 -0.2036
  744MOL0     C  343  10.467   5.143   0.566  0.3301  0.1326  0.2473
  744MOL0     C  344  10.441   5.214   0.706  0.2137 -0.4389 -0.3251
  744MOL0     C  345  10.523   5.338   0.722 -0.1477 -0.3457  0.1068
  744MOL0     C  346  10.666   5.338   0.699 -0.5152 -0.3527 -0.8022
  744MOL0     C  347  10.724   5.481   0.717  0.2609 -0.2299 -0.1569
  744MOL0     C  348  10.868   5.494   0.771 -0.1973  0.1860 -0.8018
  744MOL0     C  349  10.967   5.449   0.663 -0.1782 -0.7542  0.2278
  744MOL0    Cl  350  10.983   5.592   0.553 -0.0406 -0.1195 -0.1274
  744MOL0     C  351  10.260   4.774   0.723 -0.6116  0.3948 -0.5205
  744MOL0     C  352  10.165   4.670   0.712  0.2792  0.7328  0.1852
  744MOL0     O  353   9.861   4.679   0.592 -0.4839 -0.5076  0.6003
  744MOL0     C  354   9.849   4.327   0.633  0.6534 -0.6025 -0.5640
  744MOL0     C  355   9.761   4.223   0.656  1.2547  0.4181 -1.1437
  744MOL0     N  356   9.947   3.681   0.857 -0.7647  0.6232 -0.2300
  744MOL0     N  357  10.046   3.638   0.927 -0.0384 -0.7467 -0.2084
  744MOL0     C  358  10.566   3.039   1.370 -0.4298 -0.0962  1.5425
  744MOL0     C  359  10.692   2.978   1.343 -0.2970 -0.9298  0.3531
  744MOL0     C  360  11.063   2.802   1.228  0.1008 -0.0996 -0.6468
  744MOL0     C  361  11.142   2.793   1.340 -0.6818  0.9344 -0.0277
  744MOL0     C  362  11.285   2.773   1.323  0.5893 -0.0520 -0.1291
  744MOL0     C  363  11.339   2.764   1.196  0.6512 -0.7573 -0.4448
  744MOL0     O  364  11.481   2.757   1.183  0.1620  0.4415  0.5864
  744MOL0     C  365  11.570   2.745   1.294  0.0437  0.2457 -0.2991
  744MOL0     C  366  11.710   2.703   1.239  0.4273 -0.0714 -0.0175
  744MOL0     C  367  11.750   2.765   1.103 -0.8339  0.0564 -0.5944
  744MOL0     C  368  11.890   2.717   1.052  0.4492 -0.2442 -0.6027
  744MOL0     C  369  11.893   2.758   0.920  0.0072 -0.6340 -0.4010
  744MOL0     C  370  11.894   2.803   0.804  0.4242 -0.1628 -0.0993
  744MOL0     C  371  11.262   2.763   1.089  0.9711  0.0922  0.4680
  744MOL0     C  372  11.123   2.786   1.099  0.0506 -1.5049  0.3200
  744MOL0     H  373  10.682   2.696   1.512  3.6717  0.8148 -0.9807
  744MOL0     H  374  10.448   2.770   1.536  1.7635 -1.3737  0.5619
  744MOL0     H  375  10.227   2.938   1.348 -2.3039  1.1315 -0.0715
  744MOL0     H  376  10.227   2.853   1.508 -1.9334 -0.7280 -1.3452
  744MOL0     H  377  10.030   2.959   1.485  0.3631 -0.6982  2.5008
  744MOL0     H  378  10.113   3.068   1.604 -0.7797 -1.2682  1.2303
  744MOL0     H  379  10.144   3.236   1.445  0.3665 -0.7217  2.7894
  744MOL0     H  380  10.124   3.141   1.301  2.3136  1.9010  0.6512
  744MOL0     H  381   9.870   3.146   1.360 -0.0533 -0.3631  0.5546
  744MOL0     H  382   9.905   3.208   1.510  1.6400 -1.5169  0.1465
  744MOL0     H  383   9.825   3.386   1.366 -1.2279 -2.2866 -0.0574
  744MOL0     H  384   9.990   3.412   1.413 -1.1869 -0.4163  0.8907
  744MOL0     H  385   9.961   3.260   1.169 -1.3845 -1.6958  1.9898
  744MOL0     H  386   9.877   3.402   1.140  2.3279  0.9761 -2.5271
  744MOL0     H  387  10.164   3.397   1.245 -2.6226  0.2436  1.8610
  744MOL0     H  388  10.131   3.402   1.079 -2.0419 -1.0603  0.4114
  744MOL0     H  389  10.189   3.618   1.197  0.3915 -1.0883 -0.6817
  744MOL0     H  390  10.014   3.624   1.249 -0.6195  1.9937 -0.9787
  744MOL0     H  391   9.826   3.706   1.161 -2.3709 -1.3832 -1.6990
  744MOL0     H  392   9.652   3.679   0.859  0.0590 -0.3265  1.9509
  744MOL0     H  393   9.651   3.780   1.005  1.4158 -2.5652  1.1276
  744MOL0     H  394   9.759   3.872   0.730 -0.9405  1.2491 -1.1173
  744MOL0     H  395   9.717   3.971   0.882 -0.7136 -0.9754  1.6103
  744MOL0     H  396   9.475   3.905   0.833  1.2953  2.5911  1.6249
  744MOL0     H  397   9.533   3.801   0.708  2.3948 -1.7719  2.7758
  744MOL0     H  398   9.454   4.012   0.608  0.6165 -2.7469 -0.6900
  744MOL0     H  399   9.626   4.014   0.597  1.1383  1.3229  1.4184
  744MOL0     H  400   9.484   4.407   0.728  2.5265  1.0317  3.7407
  744MOL0     H  401   9.483   4.612   0.651 -0.1893  1.9868 -4.4055
  744MOL0     H  402   9.619   4.682   0.724 -0.0064 -0.4680 -0.5820
  744MOL0     H  403   9.604   4.667   0.545  0.7236  1.5639 -0.1209
  744MOL0     H  404  10.173   4.631   0.367 -0.3564  0.2101 -0.3919
  744MOL0     H  405  10.342   4.801   0.394 -1.5796 -0.4458 -0.3596
  744MOL0     H  406  10.358   5.020   0.440  2.0777  3.2971 -1.1510
  744MOL0     H  407  10.273   5.074   0.573  0.3208  1.8813  0.0231
  744MOL0     H  408  10.567   5.098   0.555  0.3659  0.3959 -0.5942
  744MOL0     H  409  10.461   5.208   0.478 -1.7444 -1.6682 -1.0394
  744MOL0     H  410  10.476   5.156   0.793  0.4192  1.6084  1.0285
  744MOL0     H  411  10.336   5.237   0.726 -0.3526 -2.6150 -0.5205
  744MOL0     H  412  10.478   5.421   0.668  2.5446  0.9943 -0.2124
  744MOL0     H  413  10.512   5.359   0.829  2.8764  1.0785  0.2374
  744MOL0     H  414  10.677   5.299   0.598 -0.2157 -1.4630 -0.3600
  744MOL0     H  415  10.718   5.271   0.768 -1.7839  0.5675  1.1393
  744MOL0     H  416  10.724   5.535   0.622  0.3723  2.1213  1.0980
  744MOL0     H  417  10.658   5.533   0.787  1.2059 -1.0810  1.4500
  744MOL0     H  418  10.873   5.430   0.860 -1.7216  0.0822 -0.7695
  744MOL0     H  419  10.899   5.597   0.794  0.7279 -0.4885  1.1337
  744MOL0     H  420  10.926   5.367   0.603  1.2923  0.0742 -2.0346
  744MOL0     H  421  11.063   5.432   0.713 -0.5377 -0.1910  1.1298
  744MOL0     H  422  10.287   4.812   0.821  0.5645  3.1510 -1.8010
  744MOL0     H  423  10.103   4.632   0.792  0.3280  0.7854  0.2476
  744MOL0     H  424   9.954   4.303   0.615  1.0104 -0.3704  1.0413
  744MOL0     H  425   9.793   4.119   0.660 -2.6976 -0.9599  0.8296
  744MOL0     H  426  10.541   3.142   1.344 -2.2230 -0.7571  0.4558
  744MOL0     H  427  10.765   3.034   1.285 -2.3657  1.6559  0.0442
  744MOL0     H  428  11.100   2.795   1.440 -1.8680 -1.4929 -0.4044
  744MOL0     H  429  11.347   2.767   1.412 -1.0119 -2.4283  0.9472
  744MOL0     H  430  11.579   2.840   1.349  1.3930  0.4229 -0.7785
  744MOL0     H  431  11.534   2.662   1.355 -1.8870  0.1370 -1.5077
  744MOL0     H  432  11.697   2.595   1.229  0.6151 -0.0091 -0.9813
  744MOL0     H  433  11.782   2.719   1.319 -1.0696 -3.2070  2.1626
  744MOL0     H  434  11.751   2.873   1.120  1.2655  0.3856 -2.3391
  744MOL0     H  435  11.665   2.748   1.036  0.2866  1.9979 -2.6625
  744MOL0     H  436  11.892   2.607   1.052 -0.5778 -0.2992  1.2970
  744MOL0     H  437  11.970   2.754   1.116 -0.8319  1.6419 -0.0110
  744MOL0     H  438  11.880   2.832   0.702 -1.7410  2.3343  0.8322
  744MOL0     H  439  11.315   2.764   0.994  3.4452  0.8960  1.7743
  744MOL0     H  440  11.056   2.804   1.016 -0.9552 -1.4734  1.1090
  745MOL0     O  441   6.099   5.440   5.997 -0.1722  0.9594 -0.8443
  745MOL0     C  442   5.975   5.422   5.977  0.5202 -0.4390  0.2358
  745MOL0     O  443   5.912   5.355   5.876 -0.2224 -0.4417 -0.1186
  745MOL0     C  444   5.990   5.268   5.809  0.0380 -0.5205 -0.0421
  745MOL0     C  445   6.042   5.151   5.861  0.7774  0.8705 -0.0358
  745MOL0     C  446   6.135   5.073   5.794 -0.2395 -0.7965  0.3493
  745MOL0     C  447   6.199   5.120   5.679  0.4337 -0.2000 -0.5334
  745MOL0     O  448   6.307   5.045   5.624 -0.2518 -0.3582 -0.6789
  745MOL0     C  449   6.394   5.112   5.527 -0.6573  0.1111 -1.4459
  745MOL0     C  450   6.501   5.219   5.579  0.9998 -0.1123  0.8828
  745MOL0     C  451   6.610   5.167   5.677 -0.9777 -0.1910 -0.5183
  745MOL0     C  452   6.692   5.054   5.619 -0.0858  0.5268  0.0269
  745MOL0     C  453   6.809   5.019   5.713 -0.1669  1.4020 -0.6399
  745MOL0     C  454   6.893   4.906   5.653  1.3739 -0.9240  0.3921
  745MOL0     C  455   6.971   4.816   5.752 -0.0854 -0.7495  0.3804
  745MOL0     C  456   7.070   4.889   5.836  0.3707 -0.6890 -0.1347
  745MOL0     N  457   7.172   4.958   5.761 -0.8405  0.3807 -0.1003
  745MOL0     C  458   7.172   5.087   5.741  0.2420  0.1189 -0.3163
  745MOL0     C  459   7.293   5.104   5.683 -0.2647 -0.7023  0.3893
  745MOL0     C  460   7.350   5.245   5.646  0.3308 -0.3176 -0.2039
  745MOL0     C  461   7.403   5.320   5.768  0.2151 -0.3156 -0.6769
  745MOL0     C  462   7.556   5.285   5.787  0.1000 -0.4917 -0.1922
  745MOL0     C  463   7.612   5.338   5.917  0.2458 -0.4704 -0.6963
  745MOL0     O  464   7.753   5.339   5.911 -0.6588  0.6124 -0.2550
  745MOL0     C  465   7.833   5.447   5.879  0.5405  0.0690  0.0195
  745MOL0     C  466   7.974   5.428   5.894 -0.3778 -0.4183 -0.1927
  745MOL0     C  467   8.073   5.524   5.836 -0.2866 -0.4684  0.1629
  745MOL0     C  468   8.221   5.501   5.865 -0.5583  0.3742 -0.0490
  745MOL0     C  469   8.020   5.641   5.771  0.1637  1.2703  0.2029
  745MOL0     C  470   8.105   5.743   5.709  0.3367 -0.4658 -0.6013
  745MOL0     O  471   8.030   5.834   5.643  0.3955  0.3245 -0.3728
  745MOL0     C  472   8.079   5.958   5.620  0.0695  0.2591 -0.4062
  745MOL0     C  473   8.140   5.977   5.489  0.3828 -0.1157  0.2171
  745MOL0     C  474   8.177   6.106   5.455  0.0392 -0.3071 -0.4701
  745MOL0     C  475   8.169   6.217   5.537 -0.1354  0.2590  0.3995
  745MOL0     O  476   8.230   6.337   5.510 -0.4816 -0.3735  0.9630
  745MOL0     C  477   8.206   6.388   5.377  0.5832  0.2310  1.0654
  745MOL0     C  478   8.265   6.524   5.349  0.3411 -0.2375  0.1336
  745MOL0     C  479   8.238   6.588   5.216  0.2526 -0.3912 -1.0317
  745MOL0     C  480   8.312   6.530   5.099 -0.1447  0.2287  0.0115
  745MOL0     C  481   8.240   6.555   4.968 -1.3335 -0.4281  0.4092
  745MOL0     C  482   8.292   6.687   4.899 -0.5212 -0.2833 -0.4094
  745MOL0     C  483   8.211   6.718   4.768 -0.4039  0.1273 -0.0978
  745MOL0     C  484   8.285   6.822   4.681  0.6146  0.1098 -0.6510
  745MOL0    Cl  485   8.236   6.793   4.517 -0.2820 -0.0033 -0.4654
  745MOL0     C  486   8.095   6.197   5.654 -0.1251  0.7167  0.5320
  745MOL0     C  487   8.051   6.073   5.702 -0.3026 -0.5372  0.6980
  745MOL0     O  488   8.224   5.752   5.717  0.0382 -0.9806 -0.4920
  745MOL0     C  489   7.877   5.656   5.762  0.5159 -0.1403 -0.1482
  745MOL0     C  490   7.788   5.562   5.820  0.2846 -0.0089 -0.0173
  745MOL0     N  491   7.364   4.987   5.682  0.3278 -0.2087 -0.2722
  745MOL0     N  492   7.291   4.903   5.733 -0.3959 -0.3226  0.6725
  745MOL0     C  493   6.162   5.247   5.632 -0.4847  0.5609  0.4949
  745MOL0     C  494   6.058   5.318   5.704 -0.1980 -0.1216 -0.1824
  745MOL0     C  495   5.876   5.490   6.070 -0.1706  0.9739  0.2193
  745MOL0     C  496   5.735   5.462   6.062 -0.5100  0.2708  0.1825
  745MOL0     C  497   5.646   5.511   6.161 -1.1172 -0.0155 -0.0895
  745MOL0     C  498   5.698   5.585   6.275 -0.3975 -0.4188  0.7479
  745MOL0     O  499   5.624   5.635   6.382 -0.0969 -0.0339 -0.0473
  745MOL0     C  500   5.478   5.646   6.372  0.4633 -0.3033 -0.5219
  745MOL0     C  501   5.422   5.753   6.471 -0.7488  0.5905 -0.0310
  745MOL0     C  502   5.455   5.711   6.613  0.7202 -1.4692  0.4113
  745MOL0     C  503   5.411   5.831   6.698  0.0536 -0.0961 -0.4154
  745MOL0     C  504   5.459   5.820   6.840 -0.4503 -0.0089  0.0036
  745MOL0     C  505   5.515   5.825   6.942  0.0308 -0.2088 -0.6330
  745MOL0     C  506   5.834   5.618   6.274  0.3191 -0.1303 -0.3927
  745MOL0     C  507   5.921   5.568   6.179  0.1284  0.9788  0.4939
  745MOL0     H  508   6.000   5.112   5.954  2.5650  0.2976  0.5755
  745MOL0     H  509   6.155   4.971   5.826 -1.6946 -0.8797  1.0874
  745MOL0     H  510   6.450   5.030   5.482  1.6651  1.2615 -0.8459
  745MOL0     H  511   6.333   5.160   5.450  0.3035  1.4447 -1.4203
  745MOL0     H  512   6.548   5.262   5.490 -3.1352 -1.4423 -2.2363
  745MOL0     H  513   6.445   5.298   5.630  2.9479 -0.0352  3.1153
  745MOL0     H  514   6.665   5.251   5.721 -1.5463  0.0342 -0.2247
  745MOL0     H  515   6.555   5.135   5.766 -1.1830  0.7519 -0.2887
  745MOL0     H  516   6.625   4.968   5.618  1.4429 -0.7040 -1.2207
  745MOL0     H  517   6.729   5.087   5.521  1.0188 -0.4218  0.1028
  745MOL0     H  518   6.870   5.109   5.728 -0.6017  1.5834  0.0722
  745MOL0     H  519   6.784   5.001   5.818  4.4183  1.7108  0.7016
  745MOL0     H  520   6.828   4.841   5.594  0.6694  1.7831 -2.0811
  745MOL0     H  521   6.968   4.941   5.582  1.3917 -2.7059 -0.5154
  745MOL0     H  522   6.904   4.776   5.828 -0.3155 -1.5948 -0.2454
  745MOL0     H  523   7.029   4.739   5.700  0.0951 -0.1849 -0.2781
  745MOL0     H  524   7.104   4.808   5.901  0.6211  0.7197  1.5803
  745MOL0     H  525   7.021   4.963   5.901  2.1260 -0.1773  0.6890
  745MOL0     H  526   7.091   5.158   5.753  0.7706  1.0365 -1.8528
  745MOL0     H  527   7.421   5.238   5.563  1.5295  1.3409  0.6191
  745MOL0     H  528   7.267   5.310   5.618  1.8721  1.4536 -0.8013
  745MOL0     H  529   7.352   5.307   5.864 -0.0997  2.7913 -0.3063
  745MOL0     H  530   7.399   5.426   5.741  0.4854  0.2448  1.3410
  745MOL0     H  531   7.605   5.339   5.706 -0.4285  2.2120  1.1779
  745MOL0     H  532   7.577   5.177   5.785  2.0309 -0.2249  1.8485
  745MOL0     H  533   7.573   5.280   6.001 -1.0285  2.2924  0.7340
  745MOL0     H  534   7.586   5.442   5.939  1.1050 -0.1968 -0.9347
  745MOL0     H  535   8.010   5.339   5.944  2.5272  0.7612  0.0171
  745MOL0     H  536   8.276   5.471   5.775 -1.3034 -1.4931  0.0738
  745MOL0     H  537   8.277   5.585   5.909  1.4224 -0.7768 -0.2369
  745MOL0     H  538   8.234   5.416   5.932 -0.5044 -0.0489 -0.5874
  745MOL0     H  539   8.151   5.893   5.421 -2.0160 -1.7914  1.7395
  745MOL0     H  540   8.212   6.122   5.354  1.8516  0.6687  0.2700
  745MOL0     H  541   8.244   6.321   5.299  0.4173 -0.8077  1.8607
  745MOL0     H  542   8.098   6.399   5.368  0.6464 -0.4891 -1.3117
  745MOL0     H  543   8.235   6.585   5.435 -0.6827 -1.1034  0.4282
  745MOL0     H  544   8.373   6.517   5.366  0.2748  0.8750  1.1480
  745MOL0     H  545   8.267   6.693   5.222  2.0788 -0.7740 -2.0684
  745MOL0     H  546   8.133   6.582   5.188 -0.6042  1.0173  1.6166
  745MOL0     H  547   8.411   6.576   5.098  0.2342 -0.5027  1.0691
  745MOL0     H  548   8.321   6.421   5.106  1.2093  0.1756 -1.8788
  745MOL0     H  549   8.131   6.560   4.982 -1.9019  1.2963 -3.4257
  745MOL0     H  550   8.263   6.467   4.906  0.7008  0.3628 -0.0121
  745MOL0     H  551   8.291   6.772   4.968  1.0716  1.1947 -2.1269
  745MOL0     H  552   8.397   6.668   4.873 -0.8300 -0.4090 -1.6254
  745MOL0     H  553   8.121   6.768   4.806 -0.7922  1.4414 -2.5769
  745MOL0     H  554   8.183   6.629   4.711 -2.0852  1.0159 -0.7144
  745MOL0     H  555   8.394   6.811   4.683  0.6562  0.4394 -1.0525
  745MOL0     H  556   8.260   6.923   4.712 -0.8263 -0.5716  0.5362
  745MOL0     H  557   8.097   6.284   5.719  2.3265  1.7281 -0.7336
  745MOL0     H  558   7.998   6.069   5.797  1.0095  3.1444  1.7566
  745MOL0     H  559   7.828   5.734   5.706 -2.3254 -1.8493 -0.2372
  745MOL0     H  560   7.682   5.583   5.813  0.6686  1.4750 -2.4708
  745MOL0     H  561   6.208   5.292   5.545  1.6425 -1.2377  0.5828
  745MOL0     H  562   6.034   5.416   5.663 -1.1425 -0.6758 -0.9821
  745MOL0     H  563   5.691   5.415   5.975 -2.5296  3.3652 -0.6199
  745MOL0     H  564   5.540   5.491   6.145 -1.1423 -0.6676  0.8529
  745MOL0     H  565   5.443   5.664   6.270  1.8624 -0.1785 -1.0039
  745MOL0     H  566   5.436   5.550   6.406  1.1545 -0.8373 -1.1328
  745MOL0     H  567   5.314   5.748   6.452 -0.0307 -1.8198 -5.5457
  745MOL0     H  568   5.463   5.849   6.439  2.4455 -1.5310 -3.0350
  745MOL0     H  569   5.562   5.693   6.626  0.4519 -2.7855  0.9174
  745MOL0     H  570   5.398   5.622   6.642 -2.2257  0.2947  0.4312
  745MOL0     H  571   5.301   5.833   6.705 -0.1273 -4.1855  0.7553
  745MOL0     H  572   5.448   5.926   6.659  2.6855  0.1559  2.2807
  745MOL0     H  573   5.568   5.860   7.029 -0.0396  1.3048 -1.1679
  745MOL0     H  574   5.881   5.670   6.357  0.9469  0.5461 -1.1583
  745MOL0     H  575   6.026   5.591   6.193 -0.3283  1.6076  3.5185
  746MOL0     O  576   1.089   9.757   9.971 -0.6756 -0.0379 -0.5111
  746MOL0     C  577   1.001   9.726   9.900  0.2671 -0.5683 -0.1534
  746MOL0     O  578   1.015   9.670   9.778 -0.1725 -0.5836  1.1153
  746MOL0     C  579   1.146   9.647   9.746 -0.0568  0.2121  1.0369
  746MOL0     C  580   1.220   9.736   9.664  0.2872 -0.3087 -0.4941
  746MOL0     C  581   1.339   9.696   9.603  0.3463 -0.2046 -0.2422
  746MOL0     C  582   1.394   9.573   9.636  0.1548  0.5868 -0.3376
  746MOL0     O  583   1.506   9.529   9.566  0.1828 -0.8101  0.8240
  746MOL0     C  584   1.554   9.393   9.590  0.1587  0.4913  1.2793
  746MOL0     C  585   1.642   9.368   9.466 -0.6606  0.3336  0.2104
  746MOL0     C  586   1.721   9.235   9.478  0.0143  0.6629  0.4369
  746MOL0     C  587   1.871   9.253   9.469 -0.1513  0.1372 -0.6367
  746MOL0     C  588   1.949   9.125   9.457 -0.4289 -0.9204  0.4137
  746MOL0     C  589   1.926   9.054   9.321 -0.5204  0.0426  0.0640
  746MOL0     C  590   2.032   8.943   9.301 -0.5199  0.7764  0.5583
  746MOL0     C  591   1.996   8.829   9.402 -0.3760 -0.3121  0.2251
  746MOL0     N  592   2.104   8.801   9.497 -0.4587 -0.0487 -0.2264
  746MOL0     C  593   2.192   8.701   9.484  0.3492 -0.7611  0.0078
  746MOL0     C  594   2.250   8.682   9.606  0.3473 -0.7187  0.0671
  746MOL0     C  595   2.361   8.587   9.648 -0.4159 -1.1129 -0.4167
  746MOL0     C  596   2.498   8.660   9.673 -0.0400  0.2445  0.5750
  746MOL0     C  597   2.613   8.620   9.584  0.2623 -0.6409 -0.3665
  746MOL0     C  598   2.611   8.664   9.447 -0.2115  0.4197 -0.0872
  746MOL0     O  599   2.636   8.805   9.425 -0.5355 -0.7090 -0.2449
  746MOL0     C  600   2.741   8.838   9.342 -0.0103 -0.5705  0.3874
  746MOL0     C  601   2.723   8.889   9.210  0.3392 -0.0513  0.1156
  746MOL0     C  602   2.842   8.904   9.129 -0.5195 -0.2127 -0.4277
  746MOL0     C  603   2.814   8.932   8.983 -0.8523 -0.1099 -0.3628
  746MOL0     C  604   2.965   8.882   9.186 -0.6744 -0.6211 -0.2435
  746MOL0     C  605   3.102   8.934   9.132  0.4465 -0.0726 -0.4923
  746MOL0     O  606   3.220   8.889   9.186  0.2476 -0.9328  0.0609
  746MOL0     C  607   3.336   8.945   9.148 -0.6299  0.0811  0.0651
  746MOL0     C  608   3.388   8.931   9.017 -0.0162  0.2295 -0.0759
  746MOL0     C  609   3.507   9.001   8.970 -0.3397  0.4789 -0.2240
  746MOL0     C  610   3.587   9.080   9.056  0.6639  0.2822 -0.1810
  746MOL0     O  611   3.700   9.154   9.023 -0.2089 -0.6114  0.1831
  746MOL0     C  612   3.730   9.173   8.884  0.4885 -0.3220 -0.1005
  746MOL0     C  613   3.863   9.247   8.855  0.3030 -0.1339 -0.9581
  746MOL0     C  614   3.854   9.394   8.916 -0.6512 -0.2252  0.3727
  746MOL0     C  615   3.757   9.471   8.837 -0.8741  0.0821  0.0445
  746MOL0     C  616   3.783   9.617   8.852 -0.1365  0.0294  0.6663
  746MOL0     C  617   3.867   9.686   8.740  0.0208 -0.2234 -0.6551
  746MOL0     C  618   3.946   9.808   8.776  0.0164  0.0440 -0.5022
  746MOL0     C  619   4.077   9.823   8.696 -0.1462 -0.0421 -0.0994
  746MOL0    Cl  620   4.164   9.967   8.757  0.1039 -0.2318 -0.2178
  746MOL0     C  621   3.543   9.078   9.193  0.0082  0.5348 -1.0664
  746MOL0     C  622   3.418   9.018   9.239  0.0548 -0.9088  0.6859
  746MOL0     O  623   3.094   9.013   9.039 -0.3643 -0.1129 -0.0395
  746MOL0     C  624   2.980   8.848   9.322 -0.4739 -0.8826 -0.1552
  746MOL0     C  625   2.868   8.822   9.403  0.5702 -0.5184  0.2449
  746MOL0     N  626   2.195   8.781   9.694  0.4817  0.5705  0.1594
  746MOL0     N  627   2.116   8.851   9.622 -0.1420  0.0994 -0.8956
  746MOL0     C  628   1.329   9.490   9.734 -0.9665  0.1575 -0.1458
  746MOL0     C  629   1.208   9.524   9.783 -0.1507 -0.9093 -0.4300
  746MOL0     C  630   0.860   9.741   9.943 -0.2690 -0.5714  0.1689
  746MOL0     C  631   0.755   9.711   9.860  0.5096 -0.1498  1.1240
  746MOL0     C  632   0.621   9.712   9.902  1.0178  0.0376 -0.7167
  746MOL0     C  633   0.586   9.755  10.028 -0.7474  0.4893  0.5190
  746MOL0     O  634   0.453   9.740  10.060  0.5556 -0.3465  0.1964
  746MOL0     C  635   0.403   9.834  10.155 -0.3945 -0.0581 -1.1269
  746MOL0     C  636   0.252   9.846  10.152 -0.0663 -0.0003 -0.1912
  746MOL0     C  637   0.206   9.919  10.024  0.2926 -0.0089 -0.7502
  746MOL0     C  638   0.057   9.920   9.998  0.5532 -0.5844  0.8968
  746MOL0     C  639   0.028   9.973   9.863  0.5456  0.1364 -0.1370
  746MOL0     C  640   0.018   9.997   9.744  0.1960 -0.1350 -0.0945
  746MOL0     C  641   0.692   9.801  10.110 -0.4893  1.6277 -0.9234
  746MOL0     C  642   0.829   9.796  10.069 -0.3543  0.3997 -0.2334
  746MOL0     H  643   1.171   9.827   9.629 -0.3157 -1.0217 -1.5693
  746MOL0     H  644   1.383   9.752   9.521 -0.2851 -1.2674 -1.3359
  746MOL0     H  645   1.616   9.397   9.680  1.3922  4.2221  0.4308
  746MOL0     H  646   1.481   9.312   9.601 -1.9161  2.2474  1.0114
  746MOL0     H  647   1.583   9.354   9.374 -0.4259  2.1940 -0.2470
  746MOL0     H  648   1.709   9.453   9.458 -0.4044  0.1632  0.5377
  746MOL0     H  649   1.697   9.184   9.571  1.2780  0.7238  0.8117
  746MOL0     H  650   1.680   9.176   9.396  2.0412 -0.8838  0.4626
  746MOL0     H  651   1.888   9.313   9.379 -1.6404  1.3374 -0.1541
  746MOL0     H  652   1.907   9.286   9.566  1.0065 -0.3091 -0.8997
  746MOL0     H  653   2.055   9.149   9.470 -0.7736  0.9014  0.1697
  746MOL0     H  654   1.919   9.061   9.541 -1.6733 -2.4772 -1.1447
  746MOL0     H  655   1.820   9.028   9.321 -0.9522  1.6751 -0.3031
  746MOL0     H  656   1.946   9.127   9.242  1.6928 -0.2380  0.3139
  746MOL0     H  657   2.025   8.905   9.199 -2.3346 -1.3581  1.3914
  746MOL0     H  658   2.137   8.965   9.317  0.0273 -1.9712  1.2361
  746MOL0     H  659   1.948   8.740   9.360 -2.9316  1.4883 -0.8941
  746MOL0     H  660   1.915   8.868   9.465 -2.6150  1.1044 -3.2249
  746MOL0     H  661   2.189   8.641   9.394 -1.0337  0.5792 -0.8796
  746MOL0     H  662   2.328   8.545   9.743  3.3263 -0.5444  1.2921
  746MOL0     H  663   2.379   8.517   9.566  0.8653 -0.4327 -0.7548
  746MOL0     H  664   2.521   8.634   9.777 -1.1748 -0.3852  0.6892
  746MOL0     H  665   2.494   8.770   9.674  4.0182  0.5346  0.5374
  746MOL0     H  666   2.624   8.512   9.576  2.4519 -0.4417 -0.6596
  746MOL0     H  667   2.701   8.659   9.636 -0.4781  0.8499 -0.1549
  746MOL0     H  668   2.512   8.632   9.412 -0.4047  2.1965 -1.2991
  746MOL0     H  669   2.681   8.618   9.376 -0.0469  2.2622 -1.1743
  746MOL0     H  670   2.627   8.901   9.160  0.3804 -2.4227 -0.6930
  746MOL0     H  671   2.896   8.984   8.934 -0.7300  0.9453  0.9261
  746MOL0     H  672   2.800   8.839   8.926  0.0048  0.2179 -1.1312
  746MOL0     H  673   2.725   8.995   8.979 -0.4162  0.5660  0.4960
  746MOL0     H  674   3.335   8.882   8.936 -0.3178  0.7565 -0.2050
  746MOL0     H  675   3.537   8.987   8.867  0.7492 -0.3992  0.1897
  746MOL0     H  676   3.744   9.069   8.852  0.3658 -0.3715  0.0059
  746MOL0     H  677   3.649   9.231   8.838 -2.3255 -1.9040  2.4829
  746MOL0     H  678   3.935   9.185   8.909  1.2912 -2.3451 -4.4724
  746MOL0     H  679   3.907   9.253   8.755  1.5566 -3.1192 -0.6782
  746MOL0     H  680   3.953   9.441   8.910 -0.0964 -1.2121  1.3719
  746MOL0     H  681   3.818   9.392   9.020 -1.8746 -0.5197 -0.0405
  746MOL0     H  682   3.782   9.436   8.736  4.8177  0.3774  1.0592
  746MOL0     H  683   3.656   9.439   8.867 -0.0850 -3.6064 -0.7100
  746MOL0     H  684   3.831   9.633   8.948  1.3365 -3.1832  0.6111
  746MOL0     H  685   3.683   9.661   8.849  0.7706  2.1897  0.6042
  746MOL0     H  686   3.944   9.614   8.709  1.5531  0.8222  0.5740
  746MOL0     H  687   3.805   9.700   8.651  0.1916  1.9260 -0.4854
  746MOL0     H  688   3.973   9.796   8.882 -3.8470  1.3310  0.8343
  746MOL0     H  689   3.884   9.897   8.766 -1.9751 -1.0869  0.8913
  746MOL0     H  690   4.052   9.839   8.591  2.0844 -1.7913 -0.9777
  746MOL0     H  691   4.134   9.730   8.695 -1.6452 -1.0533 -2.7671
  746MOL0     H  692   3.597   9.133   9.269 -1.7184  2.5939 -1.2334
  746MOL0     H  693   3.386   9.039   9.340 -1.3907 -0.4088  0.1533
  746MOL0     H  694   3.075   8.832   9.372 -0.8070 -4.7949 -0.4960
  746MOL0     H  695   2.878   8.795   9.507 -2.1603  1.9419  1.2944
  746MOL0     H  696   1.357   9.392   9.773 -2.9293 -0.6881 -0.7313
  746MOL0     H  697   1.145   9.455   9.838 -1.7362 -1.4562 -2.7682
  746MOL0     H  698   0.774   9.686   9.756  0.3557 -0.5383  1.1880
  746MOL0     H  699   0.535   9.689   9.839  1.2022  2.4450 -1.9841
  746MOL0     H  700   0.419   9.788  10.252  0.7020 -0.9793 -1.7104
  746MOL0     H  701   0.453   9.932  10.159  0.4201 -0.3530 -2.9885
  746MOL0     H  702   0.223   9.905  10.239 -1.5939  0.3886 -0.9342
  746MOL0     H  703   0.208   9.746  10.160  0.3454 -0.1796 -0.1567
  746MOL0     H  704   0.269   9.881   9.943  0.9458  0.3617 -0.4300
  746MOL0     H  705   0.237  10.024  10.029 -0.0438  0.1424 -1.6349
  746MOL0     H  706   0.002   9.982  10.069  3.1315 -0.2445  2.7391
  746MOL0     H  707   0.014   9.819  10.004 -0.6264 -0.2760 -1.2924
  746MOL0     H  708  -0.013   9.990   9.642  0.7927 -2.0060 -0.1913
  746MOL0     H  709   0.678   9.833  10.213  2.7058  0.2290  0.0869
  746MOL0     H  710   0.911   9.834  10.130 -1.0779  0.4989  0.7048
  747MOL0     O  711  11.233   6.981   0.395 -0.0905  0.7598  0.1250
  747MOL0     C  712  11.225   7.085   0.462  0.1442 -0.5930  0.2561
  747MOL0     O  713  11.132   7.182   0.450 -0.1902 -0.3205 -0.1461
  747MOL0     C  714  11.037   7.194   0.352  0.1651  0.2600  1.1343
  747MOL0     C  715  10.934   7.283   0.381  0.8198 -0.1268 -0.3463
  747MOL0     C  716  10.830   7.299   0.293  0.2128 -0.9440 -0.5940
  747MOL0     C  717  10.822   7.220   0.178 -0.0411  0.1259 -0.5231
  747MOL0     O  718  10.715   7.238   0.100  0.7415 -0.5502  0.2106
  747MOL0     C  719  10.718   7.180  -0.036  0.2732 -0.6260  0.9113
  747MOL0     C  720  10.584   7.151  -0.104  0.4756 -0.1531  0.0257
  747MOL0     C  721  10.471   7.241  -0.055  0.3661  0.1801  0.3880
  747MOL0     C  722  10.343   7.182  -0.111 -0.7923  0.0962 -0.1240
  747MOL0     C  723  10.338   7.183  -0.270  0.6651 -0.2991  0.2892
  747MOL0     C  724  10.321   7.325  -0.327 -0.0465  0.2653  0.7281
  747MOL0     C  725  10.290   7.317  -0.479 -0.2195 -0.1074 -0.5779
  747MOL0     C  726  10.139   7.280  -0.494  0.3682  0.2419  0.4773
  747MOL0     N  727  10.116   7.278  -0.638 -0.2620 -0.2217  0.8714
  747MOL0     C  728  10.097   7.390  -0.711  0.0587 -0.4184  0.8726
  747MOL0     C  729  10.125   7.348  -0.837  0.3464 -0.5196 -0.7641
  747MOL0     C  730  10.139   7.430  -0.961 -0.7160 -0.1513 -0.2166
  747MOL0     C  731  10.233   7.545  -0.927  0.6958  0.4198  0.5585
  747MOL0     C  732  10.380   7.510  -0.952  0.4363 -0.6292 -0.0364
  747MOL0     C  733  10.442   7.431  -0.831  0.8288 -1.1771  0.3962
  747MOL0     O  734  10.576   7.421  -0.862 -0.2980  0.6883 -0.8591
  747MOL0     C  735  10.676   7.403  -0.763  0.5135  0.3739  0.4028
  747MOL0     C  736  10.656   7.410  -0.624  0.6796 -0.2337  1.0276
  747MOL0     C  737  10.775   7.399  -0.543  0.8492 -0.3798  1.3189
  747MOL0     C  738  10.737   7.426  -0.407  0.7909  0.2165 -0.1838
  747MOL0     C  739  10.899   7.383  -0.596 -0.7375  0.4009 -0.0318
  747MOL0     C  740  11.029   7.372  -0.512 -0.1219  0.3043 -0.1373
  747MOL0     O  741  11.045   7.465  -0.412 -0.5605 -0.2368  0.0323
  747MOL0     C  742  11.125   7.422  -0.311  0.1521 -0.6684 -0.4236
  747MOL0     C  743  11.085   7.335  -0.209 -0.4863  0.3271 -0.7850
  747MOL0     C  744  11.166   7.321  -0.094 -0.6704  0.1409  0.0460
  747MOL0     C  745  11.287   7.393  -0.070  0.0241  0.1062  0.7750
  747MOL0     O  746  11.368   7.370   0.032 -0.3153  0.4445 -0.1926
  747MOL0     C  747  11.342   7.280   0.139 -0.0523 -0.0274 -1.0211
  747MOL0     C  748  11.452   7.305   0.239  0.0104 -1.1992 -0.1222
  747MOL0     C  749  11.426   7.435   0.317  0.3880 -0.2726  0.3989
  747MOL0     C  750  11.535   7.455   0.422  0.8530  0.3595 -0.8802
  747MOL0     C  751  11.571   7.603   0.444  0.7644  0.5201 -0.6398
  747MOL0     C  752  11.683   7.649   0.367 -0.1639  0.8666  0.6633
  747MOL0     C  753  11.755   7.778   0.411 -0.1692 -1.0129  0.0892
  747MOL0     C  754  11.664   7.906   0.377  0.1152 -0.1278  0.5617
  747MOL0    Cl  755  11.739   8.063   0.393  0.0145 -0.0520 -0.1902
  747MOL0     C  756  11.324   7.484  -0.164  0.2215 -0.7777  0.5089
  747MOL0     C  757  11.246   7.498  -0.281  0.2970  0.5772  0.0408
  747MOL0     O  758  11.109   7.278  -0.533  0.2045 -0.5306 -0.0749
  747MOL0     C  759  10.910   7.365  -0.738 -0.2868 -0.3139  0.0636
  747MOL0     C  760  10.799   7.376  -0.812 -0.2731 -0.1471  0.1162
  747MOL0     N  761  10.159   7.208  -0.832  0.3541 -0.0265 -0.4839
  747MOL0     N  762  10.157   7.169  -0.716 -0.1973  0.0840 -0.8921
  747MOL0     C  763  10.925   7.124   0.156 -0.8673  0.3447  0.7833
  747MOL0     C  764  11.025   7.111   0.244 -0.3187 -0.5825  0.4316
  747MOL0     C  765  11.327   7.116   0.561 -0.0936 -0.7629  0.3934
  747MOL0     C  766  11.304   7.208   0.673  0.6638 -0.2234  0.3008
  747MOL0     C  767  11.403   7.241   0.765  1.2558  0.2794 -0.8950
  747MOL0     C  768  11.529   7.173   0.754  0.3449 -0.1204 -1.2157
  747MOL0     O  769  11.633   7.200   0.833  0.1718 -0.1920  0.4625
  747MOL0     C  770  11.642   7.315   0.912  0.1118 -0.0630  1.1927
  747MOL0     C  771  11.786   7.321   0.961  0.0980  0.1079 -0.9319
  747MOL0     C  772  11.888   7.304   0.846 -1.0152 -0.8367 -0.1669
  747MOL0     C  773  11.876   7.403   0.721  0.2415  0.3688 -0.2282
  747MOL0     C  774  11.890   7.340   0.596  0.0763 -0.0860 -0.1116
  747MOL0     C  775  11.888   7.295   0.477  0.0441 -0.6234 -0.0044
  747MOL0     C  776  11.549   7.084   0.652  0.4415 -0.3190 -0.5168
  747MOL0     C  777  11.449   7.055   0.561 -0.0234 -0.7026  0.6493
  747MOL0     H  778  10.952   7.344   0.469  1.8437 -0.2095 -0.4857
  747MOL0     H  779  10.746   7.366   0.305  2.6501  2.5345 -1.4566
  747MOL0     H  780  10.778   7.241  -0.104  0.2681  0.1567  1.5872
  747MOL0     H  781  10.770   7.084  -0.042  1.4722  0.0704 -0.6609
  747MOL0     H  782  10.612   7.151  -0.210  0.1240 -4.8766 -0.2901
  747MOL0     H  783  10.567   7.045  -0.081  0.5364  0.3133  2.4893
  747MOL0     H  784  10.469   7.255   0.054  0.5357  1.8430  0.2092
  747MOL0     H  785  10.507   7.340  -0.085  3.2679 -0.7362  0.5024
  747MOL0     H  786  10.342   7.082  -0.068 -0.4784 -1.2812 -3.0260
  747MOL0     H  787  10.259   7.239  -0.072 -0.9036 -0.0334 -0.1727
  747MOL0     H  788  10.428   7.135  -0.310 -2.2741 -3.8496 -2.9953
  747MOL0     H  789  10.259   7.115  -0.305 -0.5909  1.6215 -0.7825
  747MOL0     H  790  10.238   7.375  -0.277 -1.5128 -0.8056 -0.5432
  747MOL0     H  791  10.417   7.379  -0.322  0.3142 -0.2765 -0.0577
  747MOL0     H  792  10.303   7.420  -0.512  0.2859  0.6506  1.7619
  747MOL0     H  793  10.359   7.253  -0.533  2.1547  0.9218  1.0514
  747MOL0     H  794  10.073   7.345  -0.437 -1.6587 -1.8394  0.6709
  747MOL0     H  795  10.117   7.175  -0.469  3.1663 -1.5338 -3.4892
  747MOL0     H  796  10.080   7.490  -0.673  2.1946  0.5504 -0.5321
  747MOL0     H  797  10.181   7.368  -1.042 -0.0545 -1.3089  0.9696
  747MOL0     H  798  10.042   7.473  -0.985 -0.3553  1.8073  1.5797
  747MOL0     H  799  10.215   7.603  -0.837  3.9464 -1.4628  2.6620
  747MOL0     H  800  10.208   7.615  -1.007  1.8612 -2.2300 -2.3768
  747MOL0     H  801  10.454   7.589  -0.966  1.6909 -1.7802 -0.1024
  747MOL0     H  802  10.391   7.454  -1.045  2.0819  3.4200 -2.5625
  747MOL0     H  803  10.393   7.336  -0.806 -0.2545 -0.9266 -0.6958
  747MOL0     H  804  10.416   7.503  -0.753 -0.4377 -1.2985  0.1109
  747MOL0     H  805  10.559   7.423  -0.577  1.0891  0.0255  1.8122
  747MOL0     H  806  10.816   7.423  -0.331  1.7944 -1.8287 -1.2387
  747MOL0     H  807  10.682   7.520  -0.398 -0.0851 -0.3409  0.4651
  747MOL0     H  808  10.678   7.343  -0.368  1.4651 -0.2949 -0.2409
  747MOL0     H  809  11.001   7.266  -0.218  1.2951 -2.0045 -0.3999
  747MOL0     H  810  11.133   7.250  -0.018 -1.2110 -0.3672 -0.6534
  747MOL0     H  811  11.245   7.287   0.190  1.8063 -1.7571  3.2812
  747MOL0     H  812  11.352   7.179   0.100 -0.6318  0.1980 -1.7813
  747MOL0     H  813  11.454   7.233   0.322 -3.1970  1.0640  2.1666
  747MOL0     H  814  11.550   7.318   0.193  0.1191 -0.6805  0.2453
  747MOL0     H  815  11.326   7.439   0.360 -1.4869 -1.3059 -3.4388
  747MOL0     H  816  11.431   7.518   0.246  0.1648 -0.5170  0.0923
  747MOL0     H  817  11.499   7.424   0.520  1.2287 -1.7237 -1.3507
  747MOL0     H  818  11.626   7.398   0.407  0.5066 -0.7535  0.9718
  747MOL0     H  819  11.589   7.615   0.551 -0.4957 -2.2226 -0.0349
  747MOL0     H  820  11.487   7.670   0.422 -0.6532  0.3764  3.5938
  747MOL0     H  821  11.753   7.565   0.366 -2.5480 -1.2462  1.1870
  747MOL0     H  822  11.643   7.654   0.265  1.0599  1.3830  0.1946
  747MOL0     H  823  11.845   7.785   0.349 -1.2826  0.4445 -1.4251
  747MOL0     H  824  11.782   7.780   0.517 -1.4169  0.9211  0.4201
  747MOL0     H  825  11.569   7.892   0.430  0.2193 -2.9541  0.1733
  747MOL0     H  826  11.640   7.896   0.271  2.2464 -0.3549  0.0614
  747MOL0     H  827  11.417   7.539  -0.162  0.1680 -0.5351 -1.4157
  747MOL0     H  828  11.274   7.564  -0.363  0.1844 -2.7165 -2.9262
  747MOL0     H  829  11.006   7.360  -0.788 -0.9701 -1.3008 -1.2111
  747MOL0     H  830  10.820   7.356  -0.916 -1.8956  2.0639 -0.7144
  747MOL0     H  831  10.924   7.056   0.072  1.5051 -0.5304  1.3739
  747MOL0     H  832  11.092   7.029   0.218 -0.8151 -1.6066  2.2589
  747MOL0     H  833  11.207   7.250   0.694 -0.4920 -2.6317  0.1118
  747MOL0     H  834  11.371   7.294   0.855  0.5195 -1.8188  0.1456
  747MOL0     H  835  11.625   7.400   0.845 -0.2851 -0.3613  0.9104
  747MOL0     H  836  11.577   7.323   1.000 -1.6623  1.9501 -0.1897
  747MOL0     H  837  11.797   7.230   1.021 -1.2769 -0.4006 -1.4004
  747MOL0     H  838  11.807   7.405   1.028  2.3062 -0.9212 -0.2342
  747MOL0     H  839  11.885   7.201   0.810 -2.1205 -2.1758  3.3610
  747MOL0     H  840  11.991   7.317   0.880 -0.7344 -0.7875 -1.0113
  747MOL0     H  841  11.951   7.482   0.734 -0.0459  0.5196  0.5502
  747MOL0     H  842  11.783   7.461   0.716 -0.4321 -0.7451 -1.0113
  747MOL0     H  843  11.886   7.250   0.380 -3.2099 -1.5420  0.3771
  747MOL0     H  844  11.642   7.028   0.649  0.6110 -0.0602 -0.0920
  747MOL0     H  845  11.463   6.988   0.477 -2.1607 -0.5008  0.0763
  748MOL0     O  846   1.743   1.335   7.512  0.4351  0.1504 -0.1415
  748MOL0     C  847   1.832   1.337   7.428 -0.2817  0.2165  0.1871
  748MOL0     O  848   1.825   1.306   7.300  0.8611  0.3387  0.5462
  748MOL0     C  849   1.737   1.222   7.246  0.4140  0.2532  0.6847
  748MOL0     C  850   1.739   1.084   7.277 -0.4869 -0.7686  0.3411
  748MOL0     C  851   1.640   1.000   7.222  0.2204 -0.1603  0.4431
  748MOL0     C  852   1.540   1.047   7.143 -0.2287 -0.6058  1.0795
  748MOL0     O  853   1.439   0.964   7.113  0.3643  0.0190  0.5026
  748MOL0     C  854   1.320   1.006   7.181  0.8129  0.5398 -0.9752
  748MOL0     C  855   1.192   0.970   7.100  0.4397  0.4804  0.2520
  748MOL0     C  856   1.176   0.818   7.100  0.4024 -0.9875 -0.3060
  748MOL0     C  857   1.050   0.755   7.050  0.4542 -0.3952 -0.4780
  748MOL0     C  858   1.083   0.603   7.021 -0.1024 -0.3068 -0.2393
  748MOL0     C  859   0.964   0.506   7.009  0.9232 -0.5218 -0.4448
  748MOL0     C  860   0.836   0.517   7.099 -0.6595  0.0070 -0.2387
  748MOL0     C  861   0.854   0.423   7.224  0.0632 -0.8337 -0.2084
  748MOL0     N  862   0.976   0.445   7.305 -0.0000  0.9287  0.1403
  748MOL0     C  863   1.026   0.562   7.347 -0.6498  0.0635 -0.5620
  748MOL0     C  864   1.160   0.544   7.387  0.9515 -0.1947 -0.4906
  748MOL0     C  865   1.232   0.652   7.452  0.4443 -0.9217  1.2342
  748MOL0     C  866   1.381   0.657   7.401  1.0561 -0.0590 -0.6422
  748MOL0     C  867   1.470   0.766   7.454 -0.8331 -0.8534  0.3711
  748MOL0     C  868   1.495   0.735   7.601  0.1885  0.0854 -0.6919
  748MOL0     O  869   1.579   0.846   7.653  0.3282  0.3194  0.1744
  748MOL0     C  870   1.513   0.968   7.681  0.1745  0.2568  0.2702
  748MOL0     C  871   1.517   1.067   7.589 -0.5761  0.7474 -0.1184
  748MOL0     C  872   1.435   1.176   7.604  0.3149  1.0873  0.1340
  748MOL0     C  873   1.433   1.267   7.484  0.0988 -0.4078 -0.3450
  748MOL0     C  874   1.348   1.194   7.716  0.0144  0.5997 -0.9877
  748MOL0     C  875   1.236   1.293   7.737 -0.4300  1.2492  0.2995
  748MOL0     O  876   1.229   1.356   7.861 -0.4641  0.4599 -0.3824
  748MOL0     C  877   1.106   1.381   7.915 -0.8129  0.8562 -0.4684
  748MOL0     C  878   1.111   1.422   8.049  0.1088 -0.3077 -0.3323
  748MOL0     C  879   1.003   1.462   8.115  0.9609  1.8155  0.7148
  748MOL0     C  880   0.873   1.455   8.068 -0.2355 -0.0845  1.1981
  748MOL0     O  881   0.774   1.495   8.150  0.1749  1.0777 -0.1766
  748MOL0     C  882   0.720   1.622   8.108 -1.0298  0.6051  0.9825
  748MOL0     C  883   0.590   1.606   8.177 -0.0993 -0.7089  0.8327
  748MOL0     C  884   0.474   1.555   8.083  0.1182  0.5398 -0.0722
  748MOL0     C  885   0.409   1.671   8.009 -0.1131 -0.3857 -1.2663
  748MOL0     C  886   0.316   1.622   7.903 -0.5735  0.1249 -0.2125
  748MOL0     C  887   0.213   1.727   7.857  0.0163 -0.7301 -0.4982
  748MOL0     C  888   0.126   1.665   7.738  0.5373 -0.6401 -0.0440
  748MOL0     C  889  -0.012   1.740   7.715 -0.3234  0.5018  0.3424
  748MOL0    Cl  890   0.010   1.915   7.666 -0.0088  0.1031 -0.5383
  748MOL0     C  891   0.861   1.416   7.933  0.9020 -0.3366 -0.5151
  748MOL0     C  892   0.976   1.380   7.853 -0.0709  0.3971 -0.1888
  748MOL0     O  893   1.185   1.325   7.634  0.4254 -0.1799  0.0822
  748MOL0     C  894   1.357   1.102   7.823 -0.4711 -0.0259  0.3760
  748MOL0     C  895   1.444   0.991   7.810  0.0068  0.0717 -0.8282
  748MOL0     N  896   1.177   0.403   7.375  0.1729 -0.6265  0.8058
  748MOL0     N  897   1.074   0.358   7.316  0.4314  0.3510  0.4607
  748MOL0     C  898   1.537   1.188   7.106 -0.7747 -0.2279 -0.5369
  748MOL0     C  899   1.644   1.268   7.158 -1.2725 -0.4969 -0.3620
  748MOL0     C  900   1.971   1.352   7.478  0.1869 -0.6914  0.4897
  748MOL0     C  901   2.074   1.332   7.384 -1.1924  0.2809  0.0713
  748MOL0     C  902   2.207   1.359   7.418 -0.5481  0.2769  0.3762
  748MOL0     C  903   2.239   1.397   7.553 -0.6913 -0.2551  0.3514
  748MOL0     O  904   2.368   1.438   7.593 -0.5567  0.1746 -0.1670
  748MOL0     C  905   2.482   1.423   7.513  0.7196 -0.3855  0.5246
  748MOL0     C  906   2.542   1.283   7.520  0.0580  0.1907  0.2544
  748MOL0     C  907   2.680   1.280   7.463 -0.1476  0.0638  0.4625
  748MOL0     C  908   2.739   1.144   7.487  0.6858  0.1936  0.2195
  748MOL0     C  909   2.876   1.126   7.450 -0.8628 -0.5748 -0.3504
  748MOL0     C  910   2.991   1.124   7.414 -0.2433 -0.2769  0.8970
  748MOL0     C  911   2.136   1.423   7.644  0.4167  0.1626 -1.0072
  748MOL0     C  912   2.005   1.395   7.608  0.2166 -0.0980  0.6783
  748MOL0     H  913   1.809   1.041   7.348 -2.1709 -3.0637  0.7461
  748MOL0     H  914   1.628   0.895   7.244 -1.7587  0.0924  0.7174
  748MOL0     H  915   1.309   0.945   7.272 -0.6539  2.7219  0.4159
  748MOL0     H  916   1.316   1.111   7.212 -1.4179  0.3655 -0.4919
  748MOL0     H  917   1.110   1.022   7.151  0.3492  1.5941 -0.9533
  748MOL0     H  918   1.203   1.007   6.998  1.5888  0.7112  0.4463
  748MOL0     H  919   1.259   0.770   7.048  0.4166 -1.3852  0.0744
  748MOL0     H  920   1.174   0.784   7.204 -2.5904  0.5330  0.2597
  748MOL0     H  921   0.969   0.768   7.123  2.3424 -1.3809  1.9155
  748MOL0     H  922   1.008   0.798   6.959  3.2889  1.8565 -0.8339
  748MOL0     H  923   1.151   0.594   6.935  1.6114 -2.3739  1.2319
  748MOL0     H  924   1.136   0.568   7.110 -1.4006  0.7827  1.0239
  748MOL0     H  925   0.925   0.502   6.907  2.2078  0.1983 -0.9833
  748MOL0     H  926   1.006   0.406   7.025  0.0380 -1.4228 -3.2154
  748MOL0     H  927   0.827   0.624   7.120  1.0569  0.6856 -2.5471
  748MOL0     H  928   0.750   0.477   7.045 -1.8618  1.2168  0.7167
  748MOL0     H  929   0.861   0.319   7.190 -0.4640 -1.0682  0.4006
  748MOL0     H  930   0.776   0.434   7.300  1.4217  0.3719  1.0899
  748MOL0     H  931   0.983   0.661   7.353 -0.2850  0.3415 -2.1891
  748MOL0     H  932   1.188   0.751   7.441 -2.0697 -1.9188  1.6872
  748MOL0     H  933   1.225   0.631   7.559  0.1425 -0.2764  1.3459
  748MOL0     H  934   1.352   0.692   7.301 -0.4419  0.8917  0.0866
  748MOL0     H  935   1.434   0.562   7.394  0.9253 -0.5083  2.8872
  748MOL0     H  936   1.428   0.867   7.449  0.6628 -0.2738 -1.7381
  748MOL0     H  937   1.561   0.777   7.394 -0.7857 -1.5680  0.3121
  748MOL0     H  938   1.551   0.641   7.601  1.3685  0.7109 -3.1260
  748MOL0     H  939   1.399   0.717   7.650 -0.1147  1.0306 -0.9112
  748MOL0     H  940   1.579   1.056   7.501 -0.4953 -1.9505  0.2021
  748MOL0     H  941   1.422   1.371   7.518 -2.3170 -0.5348 -0.5928
  748MOL0     H  942   1.523   1.256   7.423  1.3446 -0.7158  1.4536
  748MOL0     H  943   1.346   1.244   7.422 -0.8218  3.6124 -0.8245
  748MOL0     H  944   1.210   1.428   8.094 -0.2705 -1.2784  0.6839
  748MOL0     H  945   1.005   1.496   8.218 -2.3573  0.4633  1.3525
  748MOL0     H  946   0.777   1.712   8.135 -0.9511  1.8597 -2.7685
  748MOL0     H  947   0.707   1.629   8.000 -0.1933 -2.1413  0.6427
  748MOL0     H  948   0.605   1.550   8.269  3.7633 -1.7817 -0.2680
  748MOL0     H  949   0.565   1.701   8.225  0.0906  0.8139 -1.8947
  748MOL0     H  950   0.406   1.498   8.147  1.0768 -1.7315 -0.9409
  748MOL0     H  951   0.499   1.483   8.004 -0.8690  1.2027 -1.0142
  748MOL0     H  952   0.368   1.738   8.085  3.2516  0.2208  0.1777
  748MOL0     H  953   0.489   1.720   7.955 -1.1781 -0.0461 -2.5805
  748MOL0     H  954   0.266   1.538   7.954  0.7844 -0.7502 -0.2759
  748MOL0     H  955   0.379   1.587   7.821 -0.7545 -0.3241 -0.1676
  748MOL0     H  956   0.155   1.762   7.942  2.2329 -1.2686  1.3230
  748MOL0     H  957   0.255   1.819   7.814 -1.4417  2.0644  3.5329
  748MOL0     H  958   0.101   1.561   7.760 -0.8375 -0.2146  0.5317
  748MOL0     H  959   0.180   1.669   7.643 -2.5923  0.5667 -1.9419
  748MOL0     H  960  -0.075   1.733   7.804 -2.0495 -0.2145 -0.8839
  748MOL0     H  961  -0.067   1.690   7.635  1.1647  0.3802 -0.6540
  748MOL0     H  962   0.767   1.426   7.879 -0.4536  1.6276  1.9600
  748MOL0     H  963   0.961   1.353   7.749  0.9448  0.8860 -0.4713
  748MOL0     H  964   1.302   1.107   7.916  0.3566  1.7802  0.8222
  748MOL0     H  965   1.446   0.926   7.897 -2.4959  2.1480  0.9285
  748MOL0     H  966   1.456   1.217   7.041 -0.9645 -1.3479 -0.8256
  748MOL0     H  967   1.640   1.375   7.141  1.1939 -0.4552 -1.1429
  748MOL0     H  968   2.050   1.309   7.281  0.0967 -0.2719 -0.1206
  748MOL0     H  969   2.282   1.355   7.340 -1.4423  0.3330 -0.4985
  748MOL0     H  970   2.453   1.450   7.411  0.5507  0.9969  0.9160
  748MOL0     H  971   2.558   1.498   7.536  0.3864 -0.3617  1.5894
  748MOL0     H  972   2.477   1.217   7.463  0.8834  2.3605 -3.5443
  748MOL0     H  973   2.548   1.239   7.620  1.6358 -0.4829 -0.1068
  748MOL0     H  974   2.741   1.345   7.527  0.4113 -0.7494  0.7738
  748MOL0     H  975   2.668   1.288   7.354 -1.8908 -3.2998  0.2881
  748MOL0     H  976   2.684   1.070   7.428  0.7965 -1.0740  1.6087
  748MOL0     H  977   2.738   1.110   7.592  2.0335 -2.2318 -0.4724
  748MOL0     H  978   3.091   1.110   7.379  0.4215 -1.7241  3.1519
  748MOL0     H  979   2.152   1.456   7.746 -3.4270 -0.6490 -0.0173
  748MOL0     H  980   1.929   1.399   7.686  0.6956 -1.4798  1.2472
  749MOL0     O  981   2.823   1.939  10.794 -0.9732 -0.3848  0.5953
  749MOL0     C  982   2.793   2.002  10.898  0.1423  0.3281  0.1338
  749MOL0     O  983   2.727   1.959  11.010 -0.1331  0.5062 -0.0359
  749MOL0     C  984   2.719   1.817  11.020  0.0192  0.2611 -0.6142
  749MOL0     C  985   2.822   1.731  11.055 -0.0027  1.1402  0.1093
  749MOL0     C  986   2.801   1.590  11.063  1.1711 -0.9074  0.1721
  749MOL0     C  987   2.669   1.539  11.033 -0.9828 -0.2380  0.2165
  749MOL0     O  988   2.634   1.405  11.037 -0.4498  0.3677 -0.6675
  749MOL0     C  989   2.728   1.312  11.090  0.4693 -0.3986  0.8040
  749MOL0     C  990   2.677   1.169  11.076 -0.2410  0.3595  1.1290
  749MOL0     C  991   2.545   1.137  11.137 -0.4496 -0.5861  0.1475
  749MOL0     C  992   2.525   0.990  11.180  0.6912  0.4215  0.3677
  749MOL0     C  993   2.378   0.953  11.154  0.6633 -1.0637  0.1365
  749MOL0     C  994   2.270   1.021  11.227  0.3950  0.1146 -0.4415
  749MOL0     C  995   2.283   1.014  11.379  0.0221 -0.4449  0.9906
  749MOL0     C  996   2.278   0.872  11.435  0.2458 -0.5054  0.1716
  749MOL0     N  997   2.279   0.864  11.583  0.4492 -0.5614  0.2325
  749MOL0     C  998   2.332   0.761  11.663 -0.6132 -0.1139 -0.2683
  749MOL0     C  999   2.295   0.782  11.795  0.1210  0.2148  0.0323
  749MOL0     C 1000   2.336   0.691  11.905  0.4911 -0.9697  0.3370
  749MOL0     C 1001   2.221   0.625  11.977  0.2619 -0.4720 -0.0080
  749MOL0     C 1002   2.138   0.542  11.881  0.4036  0.1558 -0.7133
  749MOL0     C 1003   2.050   0.444  11.962  0.0875 -0.4809 -0.2469
  749MOL0     O 1004   2.113   0.315  11.959  0.3070  0.8146  1.0309
  749MOL0     C 1005   2.032   0.205  11.981  0.7076  0.1796  0.0363
  749MOL0     C 1006   1.907   0.188  11.911 -0.2741  0.0023  0.2731
  749MOL0     C 1007   1.811   0.091  11.944  0.6511  0.7939  0.4226
  749MOL0     C 1008   1.690   0.100  11.855  0.1230  1.0182  0.1767
  749MOL0     C 1009   1.839   0.008  12.061  0.0486  0.2224  0.0641
  749MOL0     C 1010   1.737  -0.093  12.110  0.0667 -0.7131  0.0298
  749MOL0     O 1011   1.624  -0.114  12.035 -0.1726  0.0041 -0.1550
  749MOL0     C 1012   1.544  -0.206  12.094  0.9369  0.0758  0.3139
  749MOL0     C 1013   1.580  -0.344  12.109  0.3890 -0.4288  0.0143
  749MOL0     C 1014   1.501  -0.438  12.177  0.1218 -0.5719  0.1812
  749MOL0     C 1015   1.390  -0.394  12.239  0.3270 -0.0813  0.0991
  749MOL0     O 1016   1.316  -0.491  12.299  0.6938  0.2352  0.0689
  749MOL0     C 1017   1.187  -0.449  12.353  0.3442  0.0313  0.3788
  749MOL0     C 1018   1.113  -0.565  12.419  0.0230 -0.2455  0.2368
  749MOL0     C 1019   0.997  -0.523  12.512  0.0866 -0.4649 -0.8162
  749MOL0     C 1020   0.943  -0.660  12.579  0.3910  0.4265  0.3795
  749MOL0     C 1021   0.821  -0.655  12.677 -0.2368 -0.5700  0.9325
  749MOL0     C 1022   0.772  -0.801  12.723 -0.7246  0.9208 -0.9107
  749MOL0     C 1023   0.643  -0.804  12.799 -0.4468  0.5871  0.3751
  749MOL0     C 1024   0.651  -0.892  12.922  0.4100  0.1683  0.7696
  749MOL0    Cl 1025   0.490  -0.917  12.992  0.1801 -0.2647 -0.0003
  749MOL0     C 1026   1.354  -0.255  12.233 -0.0035 -0.4906  0.3789
  749MOL0     C 1027   1.429  -0.164  12.157 -0.2110  0.3387 -0.8984
  749MOL0     O 1028   1.764  -0.141  12.219  0.2221  0.1074  0.6111
  749MOL0     C 1029   1.960   0.028  12.132 -0.1591  0.2429 -0.0315
  749MOL0     C 1030   2.048   0.125  12.090 -0.1196  0.5508 -0.3246
  749MOL0     N 1031   2.211   0.887  11.791  0.2176 -0.5537  0.1781
  749MOL0     N 1032   2.203   0.940  11.666  0.3606 -0.2937  0.7516
  749MOL0     C 1033   2.567   1.622  11.008 -0.2274 -0.5046  0.3760
  749MOL0     C 1034   2.590   1.763  10.996  0.3685 -0.1963 -0.5499
  749MOL0     C 1035   2.838   2.143  10.905 -1.1460 -0.5312 -1.0588
  749MOL0     C 1036   2.936   2.197  10.821 -0.4352 -0.0734  0.5921
  749MOL0     C 1037   2.984   2.332  10.842 -0.1129  0.0618  0.2362
  749MOL0     C 1038   2.942   2.405  10.950  0.7149  0.0968 -0.1243
  749MOL0     O 1039   3.000   2.516  11.008 -0.0336  0.1241  0.8287
  749MOL0     C 1040   3.131   2.553  10.968 -0.0474 -0.0289 -0.2491
  749MOL0     C 1041   3.143   2.705  11.008  0.2786 -0.8747 -0.4474
  749MOL0     C 1042   3.284   2.757  11.015  0.4110  0.1142 -0.2989
  749MOL0     C 1043   3.288   2.910  11.015  0.1094  0.1741 -0.2541
  749MOL0     C 1044   3.426   2.962  11.016 -0.1763  0.2874 -0.0384
  749MOL0     C 1045   3.540   2.992  11.015 -0.2336 -0.5325  0.5979
  749MOL0     C 1046   2.831   2.355  11.022 -0.1813 -0.4809 -0.0015
  749MOL0     C 1047   2.776   2.231  10.999 -0.7467  0.4144 -0.6231
  749MOL0     H 1048   2.916   1.776  11.085 -0.6270  1.0343  2.3864
  749MOL0     H 1049   2.877   1.516  11.087  0.9436 -1.9213 -1.9631
  749MOL0     H 1050   2.830   1.315  11.051 -0.0180 -0.1147 -0.5010
  749MOL0     H 1051   2.730   1.330  11.198 -2.8206  1.6392  0.6931
  749MOL0     H 1052   2.671   1.136  10.972 -0.7526  0.1747  1.2141
  749MOL0     H 1053   2.735   1.098  11.136 -0.3800 -0.9456 -0.2244
  749MOL0     H 1054   2.532   1.195  11.229  1.0849 -0.8640  0.5654
  749MOL0     H 1055   2.469   1.170  11.065  0.1368 -0.5866 -0.4816
  749MOL0     H 1056   2.593   0.924  11.126  1.1238  2.2652 -1.4616
  749MOL0     H 1057   2.547   0.970  11.286 -0.8872 -0.3147  0.5867
  749MOL0     H 1058   2.355   0.974  11.049 -5.0309 -1.2405  1.0402
  749MOL0     H 1059   2.360   0.849  11.183 -2.0112 -0.6771  0.1563
  749MOL0     H 1060   2.262   1.127  11.200  0.8075  0.1219 -0.5446
  749MOL0     H 1061   2.177   0.972  11.196 -0.4759 -0.6058  2.9369
  749MOL0     H 1062   2.379   1.059  11.405 -0.8408  0.3454  3.0268
  749MOL0     H 1063   2.194   1.064  11.417 -0.0358 -2.1174  3.2679
  749MOL0     H 1064   2.354   0.801  11.404 -1.5405 -3.0963  1.3526
  749MOL0     H 1065   2.180   0.844  11.395 -1.4770  5.6211 -0.8949
  749MOL0     H 1066   2.384   0.677  11.618  0.7855  0.0569  0.9565
  749MOL0     H 1067   2.404   0.621  11.856  1.3513 -0.1990  0.4224
  749MOL0     H 1068   2.393   0.751  11.976 -2.2997  1.3118  0.8498
  749MOL0     H 1069   2.163   0.705  12.024  2.0107  2.0211 -1.8289
  749MOL0     H 1070   2.263   0.556  12.051 -0.4305 -1.5766 -0.6178
  749MOL0     H 1071   2.196   0.485  11.808  1.0025 -0.2049  0.0284
  749MOL0     H 1072   2.070   0.612  11.832  0.8048  3.0829  2.4860
  749MOL0     H 1073   1.953   0.439  11.912 -0.4160 -0.4166  0.6996
  749MOL0     H 1074   2.024   0.481  12.062  0.0416 -3.3159  0.8677
  749MOL0     H 1075   1.891   0.258  11.830 -1.6715 -1.7959 -1.0851
  749MOL0     H 1076   1.675   0.006  11.800 -0.5918 -0.0453  2.0974
  749MOL0     H 1077   1.593   0.126  11.897  0.9171  1.4528  1.8074
  749MOL0     H 1078   1.703   0.174  11.776 -2.1123  1.7884  0.4670
  749MOL0     H 1079   1.676  -0.378  12.073  1.0782  0.3952  1.0272
  749MOL0     H 1080   1.535  -0.541  12.179 -0.3464 -0.7148  0.7777
  749MOL0     H 1081   1.217  -0.376  12.429  0.1331  1.4964 -0.8969
  749MOL0     H 1082   1.123  -0.402  12.278 -0.1391 -2.8244 -1.1423
  749MOL0     H 1083   1.081  -0.639  12.345  1.3180 -1.3788  0.7696
  749MOL0     H 1084   1.174  -0.624  12.488 -2.7970  0.0346  3.2475
  749MOL0     H 1085   0.920  -0.481  12.447 -0.1608  1.0071  0.3817
  749MOL0     H 1086   1.034  -0.453  12.587 -0.8811 -1.5441  0.7175
  749MOL0     H 1087   0.915  -0.727  12.497  5.0949 -2.2941  0.5816
  749MOL0     H 1088   1.022  -0.712  12.636 -1.9483 -1.3444  2.2307
  749MOL0     H 1089   0.743  -0.602  12.621  1.2763  1.5265  0.6813
  749MOL0     H 1090   0.848  -0.595  12.765 -1.3138  0.4992  0.5584
  749MOL0     H 1091   0.773  -0.868  12.636  0.0650  0.0511 -0.2456
  749MOL0     H 1092   0.841  -0.840  12.798 -0.6747  2.9522  0.1671
  749MOL0     H 1093   0.561  -0.830  12.731  1.6896 -0.0841 -2.0700
  749MOL0     H 1094   0.616  -0.704  12.836 -2.8599  0.5422 -0.9942
  749MOL0     H 1095   0.722  -0.862  13.000  1.3826 -0.4328  0.1377
  749MOL0     H 1096   0.679  -0.992  12.890 -0.0439  0.1423  0.4461
  749MOL0     H 1097   1.261  -0.219  12.276 -0.3807 -0.1536 -0.6990
  749MOL0     H 1098   1.414  -0.057  12.161  1.1740  0.5884 -1.7333
  749MOL0     H 1099   1.996  -0.026  12.219  2.4325  0.8179 -0.6641
  749MOL0     H 1100   2.137   0.126  12.153 -0.1812 -1.8511 -0.1262
  749MOL0     H 1101   2.473   1.573  10.985 -0.0418 -2.5390  3.4883
  749MOL0     H 1102   2.509   1.830  10.967 -0.8133 -1.9264 -1.4331
  749MOL0     H 1103   2.964   2.135  10.736  2.3522  1.7555  0.0277
  749MOL0     H 1104   3.067   2.376  10.788  0.8565 -1.8428  0.0995
  749MOL0     H 1105   3.202   2.498  11.030  1.2377  1.7911 -0.0355
  749MOL0     H 1106   3.162   2.531  10.866 -2.0511 -1.0056 -0.6914
  749MOL0     H 1107   3.098   2.715  11.107 -0.5741 -0.3575 -0.8753
  749MOL0     H 1108   3.095   2.765  10.930 -1.3284 -0.7304  0.5977
  749MOL0     H 1109   3.338   2.719  10.929 -0.4923  2.3939 -1.9760
  749MOL0     H 1110   3.316   2.724  11.115  0.4436  4.3607  1.3022
  749MOL0     H 1111   3.239   2.945  11.106 -0.0366 -1.6520  0.4113
  749MOL0     H 1112   3.237   2.957  10.930 -2.3476  0.4762  1.2964
  749MOL0     H 1113   3.639   3.030  11.028 -1.2821  1.8492  2.3131
  749MOL0     H 1114   2.779   2.412  11.098 -2.5355 -1.3483 -0.8664
  749MOL0     H 1115   2.689   2.200  11.055  0.0356 -2.0314 -0.6533
  750MOL0     O 1116   1.881  10.977   9.775  0.4989 -0.0265 -0.3466
  750MOL0     C 1117   1.923  10.960   9.655  0.5273  0.5325 -0.4999
  750MOL0     O 1118   1.866  10.883   9.567  0.6111  0.4346  0.7171
  750MOL0     C 1119   1.755  10.804   9.582 -0.0847 -0.3935 -0.2001
  750MOL0     C 1120   1.629  10.858   9.631  0.3601  0.4910 -0.5330
  750MOL0     C 1121   1.514  10.784   9.646  0.1491 -0.2394 -0.4257
  750MOL0     C 1122   1.521  10.648   9.617 -0.4283 -0.3492  0.5041
  750MOL0     O 1123   1.414  10.571   9.628  0.6871 -0.5118 -0.4427
  750MOL0     C 1124   1.375  10.542   9.758  1.2811  0.0362 -0.0318
  750MOL0     C 1125   1.230  10.476   9.762 -0.0986  0.0363 -0.1843
  750MOL0     C 1126   1.118  10.575   9.725 -0.4685  0.1751  0.2221
  750MOL0     C 1127   1.067  10.562   9.578 -0.6414  0.5536  0.1692
  750MOL0     C 1128   1.118  10.662   9.479 -0.6633 -0.2685  0.0596
  750MOL0     C 1129   1.059  10.649   9.329 -0.6541  0.0677 -0.1872
  750MOL0     C 1130   0.910  10.635   9.310  0.0391  0.0073 -0.4963
  750MOL0     C 1131   0.867  10.636   9.162 -0.1968  0.0206 -0.4454
  750MOL0     N 1132   0.799  10.760   9.144 -0.3596  0.4489 -0.3634
  750MOL0     C 1133   0.852  10.880   9.165  0.2256 -0.0674  0.7282
  750MOL0     C 1134   0.769  10.968   9.105 -0.2861 -1.2319  0.5498
  750MOL0     C 1135   0.797  11.121   9.098  0.6574 -0.2960  1.4027
  750MOL0     C 1136   0.851  11.146   8.957  0.4870  0.1694  0.1000
  750MOL0     C 1137   0.998  11.112   8.933 -0.2039 -0.1178  0.5791
  750MOL0     C 1138   1.102  11.195   9.005 -0.1381  0.1248 -0.1933
  750MOL0     O 1139   1.098  11.145   9.139 -0.4503  0.0988 -0.3329
  750MOL0     C 1140   1.179  11.194   9.244 -0.4197 -0.5346 -1.2757
  750MOL0     C 1141   1.271  11.299   9.223 -0.3994  0.0703 -0.4261
  750MOL0     C 1142   1.354  11.336   9.326 -0.0532  0.3021  0.2381
  750MOL0     C 1143   1.451  11.457   9.302  0.3125 -0.0392  0.3010
  750MOL0     C 1144   1.359  11.262   9.446  0.0261 -0.0093  0.5899
  750MOL0     C 1145   1.471  11.277   9.545  0.0788  1.3796  0.4100
  750MOL0     O 1146   1.559  11.379   9.544  0.7122  0.3108 -0.5076
  750MOL0     C 1147   1.656  11.387   9.642 -0.6270 -0.1840  0.5580
  750MOL0     C 1148   1.701  11.521   9.662  0.1974  0.0942  1.0323
  750MOL0     C 1149   1.815  11.545   9.740 -0.1333  0.2148 -0.4901
  750MOL0     C 1150   1.879  11.437   9.811 -0.8390 -0.3032  0.0003
  750MOL0     O 1151   1.990  11.448   9.896  0.1021  0.4081  0.5457
  750MOL0     C 1152   2.034  11.576   9.937  0.0628  0.6641 -0.9795
  750MOL0     C 1153   2.122  11.631   9.828  0.1813 -0.6424  0.2335
  750MOL0     C 1154   2.270  11.567   9.843 -0.8098 -0.2180 -0.1083
  750MOL0     C 1155   2.382  11.645   9.905 -0.0804  0.3693 -0.8245
  750MOL0     C 1156   2.412  11.776   9.826  0.3634 -0.3331 -0.3021
  750MOL0     C 1157   2.529  11.863   9.877 -0.0026  0.1798  0.1505
  750MOL0     C 1158   2.582  11.989   9.789  0.2496  0.8444 -0.6884
  750MOL0     C 1159   2.687  11.949   9.688 -0.0281 -0.2616  1.2725
  750MOL0    Cl 1160   2.777  12.090   9.628  0.5604 -0.5172 -0.0813
  750MOL0     C 1161   1.835  11.306   9.785  0.1472 -1.0285 -0.3846
  750MOL0     C 1162   1.719  11.282   9.704 -0.7660 -0.0637  0.2944
  750MOL0     O 1163   1.464  11.197   9.635  0.3978  0.3179  0.2590
  750MOL0     C 1164   1.251  11.172   9.466  0.3063 -0.0279 -1.0660
  750MOL0     C 1165   1.162  11.141   9.367 -0.2862  0.8207 -0.0210
  750MOL0     N 1166   0.668  10.896   9.039 -0.1817 -0.1712 -0.4416
  750MOL0     N 1167   0.686  10.770   9.071 -0.6200 -0.3618  0.2523
  750MOL0     C 1168   1.647  10.592   9.570  0.4540 -0.1193  0.4306
  750MOL0     C 1169   1.755  10.669   9.553 -0.4818 -0.0689  0.1925
  750MOL0     C 1170   2.067  10.994   9.637  0.5131  0.8342  0.4842
  750MOL0     C 1171   2.138  11.066   9.740  0.2901 -0.2616  0.7080
  750MOL0     C 1172   2.266  11.096   9.722 -0.0328  0.3081  0.6033
  750MOL0     C 1173   2.339  11.054   9.608 -0.2178 -0.3551  0.2205
  750MOL0     O 1174   2.465  11.099   9.603  0.5801 -0.2675  0.2597
  750MOL0     C 1175   2.546  11.068   9.489  0.3619  0.1651 -0.5840
  750MOL0     C 1176   2.688  11.128   9.499 -0.8829 -0.0094  0.0421
  750MOL0     C 1177   2.775  11.099   9.378 -0.4641  0.0115 -0.6282
  750MOL0     C 1178   2.727  11.159   9.240 -0.5102  0.2122  0.1716
  750MOL0     C 1179   2.660  11.286   9.228 -0.0598  0.7784 -0.2155
  750MOL0     C 1180   2.605  11.394   9.221 -0.3100  1.6176 -0.0302
  750MOL0     C 1181   2.280  10.974   9.526  0.3800 -0.3557  0.7033
  750MOL0     C 1182   2.146  10.941   9.533  0.3735  0.4314  0.7456
  750MOL0     H 1183   1.610  10.962   9.659 -0.8537  0.6424 -1.7831
  750MOL0     H 1184   1.426  10.830   9.688 -1.1935 -1.9941 -1.2072
  750MOL0     H 1185   1.445  10.466   9.795  1.5615  0.0958 -0.4413
  750MOL0     H 1186   1.355  10.627   9.824  0.6569 -2.2865  3.0200
  750MOL0     H 1187   1.226  10.387   9.699 -3.1781  1.4693 -2.2730
  750MOL0     H 1188   1.219  10.456   9.869 -0.1727  3.0979  0.4744
  750MOL0     H 1189   1.027  10.560   9.784  1.2202  2.4220  3.6667
  750MOL0     H 1190   1.152  10.677   9.744  1.5347 -0.3069 -0.4590
  750MOL0     H 1191   1.089  10.459   9.550 -1.3143  0.6630 -0.8307
  750MOL0     H 1192   0.957  10.565   9.582 -0.6180  0.3512  1.2083
  750MOL0     H 1193   1.094  10.759   9.523 -2.2276  0.6082 -2.5529
  750MOL0     H 1194   1.227  10.662   9.468 -0.4398  1.2541  1.8104
  750MOL0     H 1195   1.094  10.731   9.266  0.1525 -1.7931 -2.3286
  750MOL0     H 1196   1.108  10.563   9.281 -1.7244  0.5600 -2.2654
  750MOL0     H 1197   0.878  10.544   9.362 -1.4547 -0.2838 -1.8511
  750MOL0     H 1198   0.866  10.715   9.371  2.6194  0.0916  1.4542
  750MOL0     H 1199   0.796  10.554   9.145 -1.2643  1.0745 -1.2202
  750MOL0     H 1200   0.948  10.629   9.089 -0.1410 -0.3923 -0.3481
  750MOL0     H 1201   0.944  10.889   9.222 -0.2173 -1.1729  1.6522
  750MOL0     H 1202   0.704  11.178   9.114 -0.8138 -2.0089 -0.6116
  750MOL0     H 1203   0.854  11.156   9.185  1.1239 -0.1953  1.0566
  750MOL0     H 1204   0.827  11.250   8.936 -1.5187  0.5610  3.6527
  750MOL0     H 1205   0.788  11.092   8.885 -1.5500  1.3548  0.9288
  750MOL0     H 1206   1.008  11.137   8.827 -0.2062  2.2384  1.0946
  750MOL0     H 1207   1.000  11.008   8.967 -3.0790 -0.2544  0.6134
  750MOL0     H 1208   1.069  11.299   9.001  2.2924  1.1760  2.8613
  750MOL0     H 1209   1.196  11.175   8.955 -0.0194 -3.0428  1.0685
  750MOL0     H 1210   1.282  11.362   9.135 -1.9405  3.3249  1.5567
  750MOL0     H 1211   1.555  11.430   9.280  0.0670  0.3581 -1.5272
  750MOL0     H 1212   1.422  11.511   9.211  0.3459  0.6550  0.7003
  750MOL0     H 1213   1.448  11.522   9.389  2.7440  3.3834 -1.8726
  750MOL0     H 1214   1.647  11.592   9.601 -0.5856 -0.4879  1.0301
  750MOL0     H 1215   1.834  11.651   9.751 -2.9795  0.9160 -1.2552
  750MOL0     H 1216   1.943  11.633   9.960 -1.7979 -1.8717 -1.5410
  750MOL0     H 1217   2.085  11.561  10.033 -3.1189  0.9922  0.9254
  750MOL0     H 1218   2.090  11.607   9.727 -0.1624  0.6811  0.0156
  750MOL0     H 1219   2.134  11.739   9.831  2.2531 -0.8313  0.7247
  750MOL0     H 1220   2.309  11.533   9.747  1.5964  0.0795  0.6913
  750MOL0     H 1221   2.259  11.479   9.907 -1.6709 -0.3943 -0.4873
  750MOL0     H 1222   2.366  11.665  10.012  0.6287  3.2102 -1.1730
  750MOL0     H 1223   2.473  11.587   9.889 -0.8233 -0.5280 -1.9371
  750MOL0     H 1224   2.332  11.850   9.819 -0.0382 -0.8812 -1.8949
  750MOL0     H 1225   2.432  11.738   9.726  0.3921  0.8510 -0.7556
  750MOL0     H 1226   2.495  11.894   9.976  0.7042 -0.9282  0.7655
  750MOL0     H 1227   2.613  11.794   9.892  0.0744  0.4499  1.0638
  750MOL0     H 1228   2.625  12.055   9.865 -2.7734  0.5948  1.4344
  750MOL0     H 1229   2.498  12.041   9.742  1.3585  0.6220 -3.0674
  750MOL0     H 1230   2.632  11.895   9.610  0.7188  1.0009 -0.1766
  750MOL0     H 1231   2.749  11.869   9.731 -2.9498 -2.8909  0.9577
  750MOL0     H 1232   1.877  11.220   9.837  0.6891 -0.7302 -0.3273
  750MOL0     H 1233   1.689  11.181   9.678 -1.4425  0.5799 -1.5934
  750MOL0     H 1234   1.239  11.116   9.558  1.1410  1.7218  0.1530
  750MOL0     H 1235   1.087  11.062   9.376  1.3121 -0.6972  0.6195
  750MOL0     H 1236   1.646  10.486   9.545 -3.0815  0.3056 -1.9440
  750MOL0     H 1237   1.851  10.622   9.534  0.2749  1.0827  1.0321
  750MOL0     H 1238   2.076  11.100   9.823 -0.9695  0.6466 -0.5699
  750MOL0     H 1239   2.313  11.158   9.798  1.0668 -1.4910  1.4567
  750MOL0     H 1240   2.553  10.962   9.464 -3.9701 -0.2229 -0.8465
  750MOL0     H 1241   2.506  11.113   9.398  0.0101 -0.9772 -1.0078
  750MOL0     H 1242   2.728  11.087   9.593  0.9597  2.3960  0.4064
  750MOL0     H 1243   2.678  11.235   9.519 -0.1503 -0.2150  1.7467
  750MOL0     H 1244   2.782  10.990   9.380 -1.1375 -0.0905  3.1494
  750MOL0     H 1245   2.874  11.143   9.389 -2.1760  3.7384  1.7181
  750MOL0     H 1246   2.657  11.085   9.201 -0.5467 -0.4583  1.4635
  750MOL0     H 1247   2.812  11.162   9.171  0.5158 -1.1207  1.3159
  750MOL0     H 1248   2.559  11.490   9.222 -2.2009  0.7562  0.1116
  750MOL0     H 1249   2.339  10.913   9.459 -0.5677 -0.1416 -0.3506
  750MOL0     H 1250   2.122  10.882   9.445 -1.5715  0.7117  1.0331
  751MOL0     O 1251   4.785   4.163   6.981 -0.4299  0.1827  0.3457
  751MOL0     C 1252   4.885   4.208   6.928 -0.7094  0.0816  0.2405
  751MOL0     O 1253   4.901   4.323   6.853  0.3291  0.0633  0.4119
  751MOL0     C 1254   4.794   4.402   6.812  0.4549  0.2473  0.8818
  751MOL0     C 1255   4.659   4.380   6.830  1.3762 -0.6845  0.0761
  751MOL0     C 1256   4.561   4.467   6.784  0.0340 -0.5819  0.2556
  751MOL0     C 1257   4.595   4.576   6.705 -0.2396  0.3039  0.2648
  751MOL0     O 1258   4.507   4.664   6.645  0.3272  0.4841  0.6459
  751MOL0     C 1259   4.374   4.645   6.686 -0.0397  0.2596 -1.1634
  751MOL0     C 1260   4.284   4.748   6.614 -0.2015 -0.0838 -0.4444
  751MOL0     C 1261   4.166   4.778   6.710 -0.1682 -0.5864 -0.1415
  751MOL0     C 1262   4.047   4.849   6.622 -0.5821  0.9753  0.4694
  751MOL0     C 1263   3.907   4.862   6.683 -0.0691  0.7479 -0.1522
  751MOL0     C 1264   3.821   4.961   6.616 -0.3633 -0.1307  0.2848
  751MOL0     C 1265   3.702   4.978   6.704 -0.2280  0.9976 -0.3186
  751MOL0     C 1266   3.595   5.064   6.638  0.6123 -0.4073 -0.5432
  751MOL0     N 1267   3.496   5.124   6.730 -0.1292  0.4570 -0.2594
  751MOL0     C 1268   3.518   5.221   6.824 -0.4887 -0.3526 -0.6954
  751MOL0     C 1269   3.399   5.226   6.894 -0.2212  0.5964 -0.6575
  751MOL0     C 1270   3.365   5.327   7.007  0.4036 -0.1633 -1.0191
  751MOL0     C 1271   3.476   5.367   7.096  0.1320 -1.1151  0.4202
  751MOL0     C 1272   3.421   5.476   7.185 -0.3781  0.0378 -0.5384
  751MOL0     C 1273   3.466   5.456   7.335 -1.0997 -1.0056  0.4167
  751MOL0     O 1274   3.399   5.349   7.407  0.3791 -0.4270 -0.5236
  751MOL0     C 1275   3.437   5.335   7.539  1.3121 -0.5205  1.1342
  751MOL0     C 1276   3.551   5.392   7.601 -0.1235  0.1410  0.6784
  751MOL0     C 1277   3.577   5.370   7.738 -0.0457 -0.0031  0.2641
  751MOL0     C 1278   3.694   5.453   7.789  0.1729  1.0451 -0.4921
  751MOL0     C 1279   3.497   5.285   7.806 -1.0943 -0.0271  0.3442
  751MOL0     C 1280   3.519   5.255   7.948  0.5777  0.0105 -0.7108
  751MOL0     O 1281   3.498   5.348   8.044  0.0528  0.0464 -0.7096
  751MOL0     C 1282   3.371   5.404   8.043  0.2556  0.2148  0.2401
  751MOL0     C 1283   3.356   5.524   7.985 -0.1554 -0.0224  0.5551
  751MOL0     C 1284   3.223   5.578   7.987  0.8177  0.3424 -0.2512
  751MOL0     C 1285   3.115   5.517   8.048  0.3499 -0.5719 -0.3071
  751MOL0     O 1286   2.988   5.564   8.061 -0.0525  0.7198  0.0736
  751MOL0     C 1287   2.954   5.702   8.035 -0.8043 -0.3195 -1.1572
  751MOL0     C 1288   2.989   5.795   8.155 -0.5166  0.4867 -0.1078
  751MOL0     C 1289   2.906   5.756   8.289 -0.3488  0.5532 -0.2219
  751MOL0     C 1290   2.939   5.850   8.402  0.1648  0.5133  0.0887
  751MOL0     C 1291   3.085   5.817   8.447 -0.8470 -0.1362 -0.4235
  751MOL0     C 1292   3.099   5.847   8.592 -0.4070  0.3732 -1.0472
  751MOL0     C 1293   3.099   5.997   8.615  0.1641  0.3497  0.5255
  751MOL0     C 1294   3.097   6.032   8.760 -0.3362 -0.5452 -0.0203
  751MOL0    Cl 1295   3.103   6.211   8.781  0.3392  0.1166 -0.0057
  751MOL0     C 1296   3.136   5.391   8.098 -0.4399  0.3018  0.3032
  751MOL0     C 1297   3.263   5.337   8.098  0.1831 -0.4721 -0.3380
  751MOL0     O 1298   3.549   5.143   7.979  0.0407  0.4211 -0.3648
  751MOL0     C 1299   3.392   5.224   7.746  1.1030  0.2016 -0.7840
  751MOL0     C 1300   3.359   5.248   7.613 -1.0646  0.0978 -0.3037
  751MOL0     N 1301   3.306   5.136   6.843 -0.7227  0.4842  0.1800
  751MOL0     N 1302   3.372   5.067   6.754  0.4873  0.3755  0.1457
  751MOL0     C 1303   4.730   4.596   6.689 -0.2997 -0.3541 -0.1057
  751MOL0     C 1304   4.826   4.514   6.743 -0.3942  0.2073  0.0983
  751MOL0     C 1305   5.004   4.138   6.945 -0.3843 -0.1208 -0.7107
  751MOL0     C 1306   5.124   4.188   6.887 -0.0447 -0.0595  0.0610
  751MOL0     C 1307   5.243   4.116   6.898  0.5746  0.0316  0.2800
  751MOL0     C 1308   5.250   3.986   6.958  0.3391 -0.0543 -0.0784
  751MOL0     O 1309   5.366   3.915   6.942  0.3520 -1.0505  0.2479
  751MOL0     C 1310   5.386   3.782   6.993  0.2039 -0.4197  0.3017
  751MOL0     C 1311   5.537   3.745   6.960  0.4045  0.3415 -0.1416
  751MOL0     C 1312   5.579   3.603   6.999  0.4246 -0.2204 -0.1682
  751MOL0     C 1313   5.724   3.582   6.982  0.2941  0.1865 -0.3759
  751MOL0     C 1314   5.751   3.435   6.988 -0.2713 -0.5995  0.0229
  751MOL0     C 1315   5.738   3.322   7.001  1.1271  0.1009  0.1344
  751MOL0     C 1316   5.132   3.944   7.018  0.2472 -0.1520  0.3294
  751MOL0     C 1317   5.015   4.013   7.012  0.1831  0.2331  1.2467
  751MOL0     H 1318   4.631   4.302   6.899  1.5241 -0.2208  0.6699
  751MOL0     H 1319   4.457   4.453   6.812  0.5696 -0.3727  2.5419
  751MOL0     H 1320   4.329   4.548   6.665 -1.8851  0.9656 -0.6083
  751MOL0     H 1321   4.368   4.655   6.794 -0.1053  0.8526 -1.2199
  751MOL0     H 1322   4.329   4.847   6.601 -0.3831  0.4304  2.3002
  751MOL0     H 1323   4.251   4.704   6.519 -1.0610 -4.1140  1.5384
  751MOL0     H 1324   4.131   4.686   6.757 -2.2099 -1.1614 -2.5805
  751MOL0     H 1325   4.198   4.850   6.786 -0.3046  1.2395 -1.7166
  751MOL0     H 1326   4.087   4.942   6.581 -1.2194  0.3970 -1.6168
  751MOL0     H 1327   4.019   4.791   6.533 -3.1767  2.5979  0.1334
  751MOL0     H 1328   3.849   4.769   6.687  2.0148 -0.7170 -1.7577
  751MOL0     H 1329   3.919   4.888   6.789 -0.5307  0.7790 -0.1065
  751MOL0     H 1330   3.876   5.054   6.632  1.1937 -0.7851 -1.0229
  751MOL0     H 1331   3.816   4.941   6.508 -1.0091  1.6390 -0.0496
  751MOL0     H 1332   3.651   4.882   6.713  1.0722 -0.1791 -3.8604
  751MOL0     H 1333   3.724   5.009   6.806  0.1075 -1.8807  0.5658
  751MOL0     H 1334   3.553   4.995   6.565 -1.0879  0.1749 -0.1636
  751MOL0     H 1335   3.651   5.143   6.586  0.5715  0.1241  0.2035
  751MOL0     H 1336   3.613   5.268   6.845  0.3590 -2.2028 -0.2376
  751MOL0     H 1337   3.319   5.417   6.966  0.5741  0.3631 -0.0832
  751MOL0     H 1338   3.286   5.273   7.059  0.1719  0.3190 -0.8599
  751MOL0     H 1339   3.561   5.409   7.041  0.1742 -1.8516 -0.0947
  751MOL0     H 1340   3.500   5.289   7.168  0.1950  2.0141  4.1357
  751MOL0     H 1341   3.313   5.458   7.192  0.0903 -4.4819 -1.5298
  751MOL0     H 1342   3.442   5.579   7.155 -0.4631 -0.5790 -2.9417
  751MOL0     H 1343   3.427   5.544   7.387 -1.9799 -2.5166  2.4385
  751MOL0     H 1344   3.575   5.462   7.341 -0.7976 -2.1361 -2.3955
  751MOL0     H 1345   3.622   5.448   7.540  1.9792 -1.9445  1.0488
  751MOL0     H 1346   3.659   5.550   7.824  0.9495  1.2304 -0.2174
  751MOL0     H 1347   3.745   5.396   7.867 -0.1240  1.9090  0.3530
  751MOL0     H 1348   3.772   5.462   7.714  3.2533 -3.9681  1.6152
  751MOL0     H 1349   3.429   5.585   7.933  1.4420 -0.8609  1.6997
  751MOL0     H 1350   3.214   5.676   7.940  0.5782 -1.0408 -3.3332
  751MOL0     H 1351   2.996   5.745   7.943 -1.4612  4.1398  0.3728
  751MOL0     H 1352   2.845   5.704   8.029 -1.0176  0.3936  1.5778
  751MOL0     H 1353   3.093   5.810   8.185 -0.9534  0.1142  1.6867
  751MOL0     H 1354   2.944   5.891   8.128  0.4720  1.3836  1.3209
  751MOL0     H 1355   2.919   5.652   8.318 -3.4310 -0.9016 -3.2807
  751MOL0     H 1356   2.800   5.767   8.265 -0.1421 -0.4875 -1.7411
  751MOL0     H 1357   2.939   5.953   8.365  1.3489  0.1406 -1.0302
  751MOL0     H 1358   2.860   5.840   8.477  1.3108  3.5697  1.8713
  751MOL0     H 1359   3.170   5.863   8.395 -1.3231  4.1653  2.1389
  751MOL0     H 1360   3.101   5.713   8.419 -0.0592 -0.5884  1.5658
  751MOL0     H 1361   3.022   5.801   8.654 -1.0877 -1.3692 -3.0774
  751MOL0     H 1362   3.197   5.813   8.628 -1.2390 -0.3791  0.6171
  751MOL0     H 1363   3.009   6.035   8.567  2.4217  1.0721 -3.5726
  751MOL0     H 1364   3.190   6.046   8.579  1.2520 -0.6843  1.7310
  751MOL0     H 1365   3.187   5.992   8.808  0.9782 -0.1167 -1.9900
  751MOL0     H 1366   3.009   5.984   8.804  0.5259 -2.9874 -0.7874
  751MOL0     H 1367   3.065   5.321   8.141  0.2835 -0.9530 -0.4733
  751MOL0     H 1368   3.266   5.233   8.128 -0.8171 -0.5423 -0.4514
  751MOL0     H 1369   3.336   5.163   7.816  0.0693  0.8843 -0.9885
  751MOL0     H 1370   3.271   5.210   7.563 -1.0705  1.5152 -1.4251
  751MOL0     H 1371   4.747   4.683   6.626  0.1282  0.5700  1.2332
  751MOL0     H 1372   4.926   4.548   6.719 -0.4115  0.3348  0.2057
  751MOL0     H 1373   5.122   4.282   6.833 -2.7139  0.8129  1.5245
  751MOL0     H 1374   5.332   4.151   6.847  0.1566  0.8504  0.1012
  751MOL0     H 1375   5.369   3.783   7.101  0.1495  3.9645  0.4118
  751MOL0     H 1376   5.328   3.708   6.937  0.6829 -0.4082 -0.2218
  751MOL0     H 1377   5.597   3.819   7.013 -1.4078  1.1222  0.9260
  751MOL0     H 1378   5.552   3.771   6.855 -0.8096  0.0761 -0.4006
  751MOL0     H 1379   5.527   3.538   6.929 -1.9948  2.3886 -0.9708
  751MOL0     H 1380   5.558   3.581   7.105  0.8159 -2.6944 -0.5573
  751MOL0     H 1381   5.786   3.629   7.059 -0.4725 -2.6237  2.1380
  751MOL0     H 1382   5.747   3.623   6.883 -0.9404 -0.0004 -0.7510
  751MOL0     H 1383   5.725   3.216   7.012 -3.1001  0.2446 -1.6371
  751MOL0     H 1384   5.131   3.849   7.072 -2.2639 -0.1976  0.3351
  751MOL0     H 1385   4.925   3.983   7.063 -0.3769  2.1603  1.4750
  752MOL0     O 1386   4.316   0.791   2.640 -0.4208  1.0807 -0.8026
  752MOL0     C 1387   4.357   0.905   2.675  0.9460 -0.1847 -0.3312
  752MOL0     O 1388   4.489   0.947   2.677 -0.3530 -0.7460 -0.9067
  752MOL0     C 1389   4.569   0.848   2.632 -0.5733 -0.0807 -0.4202
  752MOL0     C 1390   4.641   0.863   2.514  0.3551 -0.2873 -0.7601
  752MOL0     C 1391   4.725   0.765   2.474  0.9079  0.0779 -0.4316
  752MOL0     C 1392   4.747   0.653   2.535 -0.5188 -0.4132  0.3672
  752MOL0     O 1393   4.818   0.558   2.476  0.3091  0.1363 -0.1644
  752MOL0     C 1394   4.905   0.472   2.551  0.4341 -0.5574 -0.2908
  752MOL0     C 1395   5.034   0.458   2.485 -0.4131 -0.0171 -0.5743
  752MOL0     C 1396   5.132   0.382   2.571 -0.3661  0.7515 -0.1424
  752MOL0     C 1397   5.236   0.301   2.493 -0.3208 -0.4292  0.4545
  752MOL0     C 1398   5.332   0.380   2.405 -0.5462 -0.3358 -0.7968
  752MOL0     C 1399   5.441   0.455   2.492  0.1559  0.4565  0.3920
  752MOL0     C 1400   5.523   0.547   2.398 -0.0522 -0.5859 -0.8615
  752MOL0     C 1401   5.662   0.561   2.467 -1.0033  0.2590  0.7255
  752MOL0     N 1402   5.759   0.457   2.433  0.2970  0.0912  0.2581
  752MOL0     C 1403   5.757   0.355   2.342 -0.9775  0.8092 -0.1243
  752MOL0     C 1404   5.880   0.291   2.363 -0.9551  0.5902  0.5135
  752MOL0     C 1405   5.913   0.170   2.289 -1.2171  0.1341 -0.7189
  752MOL0     C 1406   6.069   0.150   2.316 -0.0638 -0.0278 -0.7445
  752MOL0     C 1407   6.130   0.023   2.248 -0.6867 -0.4370 -1.1616
  752MOL0     C 1408   6.056  -0.109   2.287  0.1735 -0.0196 -0.3070
  752MOL0     O 1409   6.123  -0.220   2.224 -0.2580  0.0420 -0.3901
  752MOL0     C 1410   6.095  -0.340   2.285 -0.3353  0.8347 -0.5679
  752MOL0     C 1411   5.971  -0.390   2.293  0.2581  0.3871 -0.8529
  752MOL0     C 1412   5.944  -0.520   2.349 -0.6470  0.1497  0.3323
  752MOL0     C 1413   5.808  -0.565   2.364 -0.4213 -0.3679  0.3889
  752MOL0     C 1414   6.056  -0.598   2.381 -0.7308 -0.2179  0.2252
  752MOL0     C 1415   6.055  -0.735   2.436 -0.6123 -0.0176  0.2251
  752MOL0     O 1416   6.162  -0.788   2.503  0.5753 -1.0500 -0.4013
  752MOL0     C 1417   6.166  -0.919   2.537  0.7053 -1.5173 -0.7792
  752MOL0     C 1418   6.248  -1.011   2.455  0.5843  0.3953 -0.9919
  752MOL0     C 1419   6.236  -1.151   2.477  0.3568  0.1544 -0.5834
  752MOL0     C 1420   6.156  -1.194   2.582 -0.1124  0.3233  0.1865
  752MOL0     O 1421   6.163  -1.323   2.618  0.0544  0.0822  0.3474
  752MOL0     C 1422   6.090  -1.409   2.532  0.2806  0.0374 -0.1425
  752MOL0     C 1423   6.176  -1.519   2.472 -0.1700 -0.1647  0.1113
  752MOL0     C 1424   6.098  -1.617   2.398  0.0439 -0.2744  0.5080
  752MOL0     C 1425   6.181  -1.732   2.338 -0.3623  0.4366 -1.0703
  752MOL0     C 1426   6.088  -1.844   2.295  0.3052 -0.1977  0.1704
  752MOL0     C 1427   5.994  -1.914   2.402  0.6075  0.5952  0.2230
  752MOL0     C 1428   6.066  -1.972   2.527 -0.4060  0.5574  0.2665
  752MOL0     C 1429   6.175  -2.071   2.489  0.6721  0.7998  0.1878
  752MOL0    Cl 1430   6.103  -2.224   2.441  0.3611  0.4847  0.3990
  752MOL0     C 1431   6.086  -1.108   2.664  0.5415 -0.3867 -0.3270
  752MOL0     C 1432   6.091  -0.972   2.640  0.3902 -0.1119  0.6386
  752MOL0     O 1433   5.947  -0.794   2.429  0.2799  0.4578  0.9348
  752MOL0     C 1434   6.186  -0.547   2.357 -0.8074  0.7287  0.3611
  752MOL0     C 1435   6.207  -0.418   2.313  0.4591 -0.0978  0.3123
  752MOL0     N 1436   5.948   0.347   2.469 -0.1199 -0.9717 -0.8563
  752MOL0     N 1437   5.876   0.453   2.501 -0.5230  0.3484 -0.1454
  752MOL0     C 1438   4.680   0.629   2.655 -0.5767  0.0536 -0.8575
  752MOL0     C 1439   4.598   0.733   2.710  0.9425 -0.2950  0.6273
  752MOL0     C 1440   4.259   0.994   2.728  0.0281 -0.5998 -0.1511
  752MOL0     C 1441   4.131   0.988   2.685 -0.4757 -0.4779 -0.3779
  752MOL0     C 1442   4.038   1.094   2.716 -0.6683 -1.0078  0.4366
  752MOL0     C 1443   4.074   1.202   2.799 -0.0970  0.6566 -0.3879
  752MOL0     O 1444   3.976   1.297   2.830 -0.9845  0.4447  0.2628
  752MOL0     C 1445   3.992   1.376   2.946  0.3257 -0.6451  0.3275
  752MOL0     C 1446   3.951   1.302   3.078  0.3073 -0.6604  0.7225
  752MOL0     C 1447   3.834   1.195   3.063  0.4361  0.9011 -0.3438
  752MOL0     C 1448   3.771   1.156   3.194  0.8179 -0.4674  0.2942
  752MOL0     C 1449   3.668   1.258   3.233 -0.0810  0.7048 -0.0439
  752MOL0     C 1450   3.580   1.329   3.273 -0.0539 -0.2570 -0.5721
  752MOL0     C 1451   4.207   1.188   2.862  1.0480  0.0738  0.4075
  752MOL0     C 1452   4.296   1.092   2.820 -0.0325  0.1483  0.7060
  752MOL0     H 1453   4.646   0.956   2.458  3.3271 -0.9375 -1.7750
  752MOL0     H 1454   4.783   0.784   2.384 -0.3477 -1.1285 -1.5572
  752MOL0     H 1455   4.927   0.510   2.651  0.9110  1.6044 -1.1730
  752MOL0     H 1456   4.858   0.373   2.563  1.1619 -0.8179  0.5262
  752MOL0     H 1457   5.025   0.391   2.398 -1.3751 -1.4652  0.5883
  752MOL0     H 1458   5.074   0.556   2.455  1.4148 -0.6913 -0.4459
  752MOL0     H 1459   5.186   0.446   2.641  3.2051 -2.1362  0.0849
  752MOL0     H 1460   5.074   0.306   2.625 -0.4411  1.3841  0.6944
  752MOL0     H 1461   5.293   0.253   2.573  2.3335  3.8962  1.4829
  752MOL0     H 1462   5.183   0.228   2.431 -1.3793  0.6652  0.0278
  752MOL0     H 1463   5.391   0.315   2.339  1.5218 -0.8908  1.4671
  752MOL0     H 1464   5.276   0.450   2.341  0.6806  0.3401 -1.1537
  752MOL0     H 1465   5.396   0.516   2.571  1.1697  2.0422 -0.1864
  752MOL0     H 1466   5.502   0.384   2.548  1.0970  1.6766  0.9507
  752MOL0     H 1467   5.542   0.504   2.299  2.2409 -0.4098 -0.5497
  752MOL0     H 1468   5.469   0.641   2.389 -0.4775 -0.1235  3.8178
  752MOL0     H 1469   5.637   0.573   2.573 -2.0286 -0.3721  0.5683
  752MOL0     H 1470   5.706   0.655   2.432 -0.3999 -0.9705 -2.1163
  752MOL0     H 1471   5.683   0.330   2.268  0.7734 -1.0221 -1.3545
  752MOL0     H 1472   5.843   0.100   2.335 -0.5404 -0.6791 -0.9171
  752MOL0     H 1473   5.903   0.184   2.181  1.4276 -1.0913 -1.1923
  752MOL0     H 1474   6.082   0.145   2.425  0.7673  3.5258 -0.5559
  752MOL0     H 1475   6.127   0.238   2.287  0.9795 -0.3701  0.2174
  752MOL0     H 1476   6.238   0.009   2.255 -0.2319  1.9582 -2.2373
  752MOL0     H 1477   6.124   0.038   2.139 -0.1231  1.1444 -1.0041
  752MOL0     H 1478   5.948  -0.100   2.268  0.0930  0.7985  0.4683
  752MOL0     H 1479   6.068  -0.117   2.396 -2.5011  0.8541  0.1333
  752MOL0     H 1480   5.890  -0.323   2.267 -0.0022  0.0670 -0.8662
  752MOL0     H 1481   5.780  -0.629   2.448  0.3591  0.9363  1.6929
  752MOL0     H 1482   5.739  -0.480   2.370  2.2806  1.9954  0.3126
  752MOL0     H 1483   5.799  -0.623   2.272  0.0203 -2.8486  1.8128
  752MOL0     H 1484   6.310  -0.967   2.378 -3.0934  2.6838 -2.9577
  752MOL0     H 1485   6.290  -1.216   2.409  2.8841  0.0280  1.3924
  752MOL0     H 1486   6.011  -1.465   2.582 -0.0653 -1.6460 -2.4054
  752MOL0     H 1487   6.034  -1.360   2.452 -0.1543 -2.5751 -1.5632
  752MOL0     H 1488   6.241  -1.468   2.400 -1.3137  0.2989 -0.6136
  752MOL0     H 1489   6.231  -1.575   2.550  1.5906 -1.0751 -1.6880
  752MOL0     H 1490   6.030  -1.579   2.321 -1.9776 -0.5693  2.0515
  752MOL0     H 1491   6.042  -1.664   2.479 -0.3084 -1.2026 -0.2554
  752MOL0     H 1492   6.232  -1.696   2.249  1.1475 -3.1389 -1.8129
  752MOL0     H 1493   6.244  -1.784   2.411  0.1806  1.3831 -0.8587
  752MOL0     H 1494   6.160  -1.916   2.252  1.0785  1.2372 -1.0448
  752MOL0     H 1495   6.022  -1.799   2.220  2.1639  1.5636 -0.4828
  752MOL0     H 1496   5.923  -1.839   2.439  0.9883 -1.1768  5.3390
  752MOL0     H 1497   5.928  -1.989   2.358  2.1262 -0.1099 -0.9340
  752MOL0     H 1498   5.990  -2.003   2.599  0.4274  2.6287  2.1568
  752MOL0     H 1499   6.117  -1.897   2.588 -0.8782  0.1215  1.2251
  752MOL0     H 1500   6.228  -2.095   2.582 -0.0381  0.9265  0.6319
  752MOL0     H 1501   6.240  -2.019   2.417  0.5891  1.6474  0.7092
  752MOL0     H 1502   6.019  -1.151   2.737  1.5019 -1.6331 -0.1598
  752MOL0     H 1503   6.031  -0.906   2.702  1.0039  0.8536  0.2473
  752MOL0     H 1504   6.278  -0.597   2.383  0.6983  2.1988 -1.7912
  752MOL0     H 1505   6.310  -0.383   2.308  1.0726 -1.8122  0.2848
  752MOL0     H 1506   4.695   0.533   2.703 -0.7855 -0.8653 -2.5447
  752MOL0     H 1507   4.567   0.725   2.814 -0.0558  2.6929  0.6667
  752MOL0     H 1508   4.090   0.911   2.619 -3.1867  0.4931  0.0504
  752MOL0     H 1509   3.938   1.086   2.674 -0.3622 -1.6742 -0.1872
  752MOL0     H 1510   4.097   1.405   2.951 -0.3466  2.6505 -1.5661
  752MOL0     H 1511   3.941   1.473   2.951 -1.4517 -1.5637  1.1930
  752MOL0     H 1512   3.939   1.369   3.164 -1.0702  2.2957 -1.6084
  752MOL0     H 1513   4.039   1.243   3.106 -1.9369 -3.3570  2.6806
  752MOL0     H 1514   3.864   1.095   3.031 -1.6355  0.2002 -0.2431
  752MOL0     H 1515   3.758   1.236   2.997 -1.3542  1.1595  1.7881
  752MOL0     H 1516   3.839   1.145   3.278 -2.9650  1.1582  3.9017
  752MOL0     H 1517   3.715   1.065   3.168 -2.1145  1.5643 -1.1766
  752MOL0     H 1518   3.497   1.375   3.321  0.3937 -2.7417  2.9295
  752MOL0     H 1519   4.234   1.253   2.945  1.5158  1.5599 -0.8474
  752MOL0     H 1520   4.393   1.102   2.868  0.4174 -1.1536  0.1157
  753MOL0     O 1521   2.806   9.680   3.774  1.3559 -0.0835  0.0740
  753MOL0     C 1522   2.819   9.808   3.790  0.0733  0.2952  0.5140
  753MOL0     O 1523   2.928   9.873   3.802  0.3563  0.3881  0.2373
  753MOL0     C 1524   3.042   9.797   3.815 -0.1419 -0.4907 -0.5387
  753MOL0     C 1525   3.047   9.697   3.914 -0.0225  0.2726  1.0524
  753MOL0     C 1526   3.162   9.628   3.940  0.2546  0.9893  1.2113
  753MOL0     C 1527   3.284   9.666   3.879 -0.5697  0.1667 -0.5489
  753MOL0     O 1528   3.401   9.599   3.907  0.4052 -0.4080 -0.0663
  753MOL0     C 1529   3.411   9.494   4.006  0.6958  0.3007 -0.2691
  753MOL0     C 1530   3.548   9.476   4.051 -0.3458 -0.5337  0.2712
  753MOL0     C 1531   3.624   9.406   3.937 -0.1920 -0.5698 -0.0677
  753MOL0     C 1532   3.734   9.335   4.007 -0.0761 -0.4993  0.2854
  753MOL0     C 1533   3.835   9.275   3.907 -0.9324 -0.6578 -0.1624
  753MOL0     C 1534   3.948   9.191   3.964  0.4755  0.2077 -0.7935
  753MOL0     C 1535   4.068   9.280   4.019  0.5306 -0.3102 -1.0573
  753MOL0     C 1536   4.171   9.198   4.091 -0.7188  0.8550  1.0901
  753MOL0     N 1537   4.236   9.100   3.995 -0.5319 -0.5439  0.4789
  753MOL0     C 1538   4.196   8.974   3.958 -0.6896 -0.1677 -0.5922
  753MOL0     C 1539   4.313   8.923   3.911  0.4643 -0.5762  0.5539
  753MOL0     C 1540   4.326   8.782   3.863  0.2660 -0.0003  0.5458
  753MOL0     C 1541   4.361   8.706   3.983  1.3416  0.1029 -0.1818
  753MOL0     C 1542   4.322   8.558   3.960 -0.3911  0.5180 -0.0672
  753MOL0     C 1543   4.170   8.544   3.911 -0.1269 -0.2875 -0.1483
  753MOL0     O 1544   4.160   8.519   3.767 -0.7686  0.2733 -0.7817
  753MOL0     C 1545   4.044   8.485   3.707 -0.2893  0.0506  0.4803
  753MOL0     C 1546   3.924   8.533   3.753 -0.3566 -0.9028 -0.7917
  753MOL0     C 1547   3.804   8.500   3.691  0.2109 -0.1381 -0.4259
  753MOL0     C 1548   3.684   8.561   3.761  0.8104  0.0202  0.0167
  753MOL0     C 1549   3.804   8.420   3.577  0.8278 -0.2733 -0.0527
  753MOL0     C 1550   3.682   8.384   3.495 -0.1180 -0.3714 -0.2446
  753MOL0     O 1551   3.559   8.405   3.539 -0.8208  0.0757  0.0602
  753MOL0     C 1552   3.458   8.452   3.467  0.8252 -0.0515  0.6537
  753MOL0     C 1553   3.398   8.571   3.506  0.7062  0.8328  0.0613
  753MOL0     C 1554   3.303   8.633   3.425  0.3718 -0.0398  1.1130
  753MOL0     C 1555   3.246   8.572   3.313  0.2523 -0.4205  0.4984
  753MOL0     O 1556   3.156   8.634   3.236 -0.6964  0.2023  0.0007
  753MOL0     C 1557   3.024   8.611   3.284  0.1072 -0.0205 -0.3368
  753MOL0     C 1558   2.956   8.520   3.175 -0.2104  0.4126  0.0276
  753MOL0     C 1559   2.917   8.598   3.041  0.0763 -0.6662  0.1806
  753MOL0     C 1560   2.833   8.515   2.941 -0.8201 -0.2422 -0.5324
  753MOL0     C 1561   2.756   8.575   2.826  0.6472  0.8988 -0.1591
  753MOL0     C 1562   2.850   8.641   2.727 -0.2019 -1.3484 -0.4271
  753MOL0     C 1563   2.800   8.666   2.587  0.3498 -0.6746 -0.5879
  753MOL0     C 1564   2.669   8.755   2.596 -0.3426  0.2753 -0.3290
  753MOL0    Cl 1565   2.519   8.677   2.630 -0.0008  0.5236 -0.1200
  753MOL0     C 1566   3.307   8.448   3.284  0.2713  0.5689 -0.0019
  753MOL0     C 1567   3.413   8.382   3.350  0.7628 -1.0228  0.1575
  753MOL0     O 1568   3.703   8.334   3.382 -0.4489  0.3884  0.2877
  753MOL0     C 1569   3.925   8.380   3.528 -0.1472 -0.1752  0.3032
  753MOL0     C 1570   4.041   8.416   3.586 -0.0550 -0.1211  0.3782
  753MOL0     N 1571   4.420   9.012   3.916  0.7711 -0.7736 -0.1048
  753MOL0     N 1572   4.364   9.115   3.958  0.2235  0.8540  0.5299
  753MOL0     C 1573   3.281   9.775   3.793 -0.5047  0.6219 -0.7074
  753MOL0     C 1574   3.160   9.836   3.759  0.3410 -0.2091 -0.7481
  753MOL0     C 1575   2.693   9.887   3.792 -0.6399  0.3691  0.6464
  753MOL0     C 1576   2.574   9.820   3.782 -0.1181 -0.0177  0.2566
  753MOL0     C 1577   2.451   9.889   3.776  0.5152  0.1055  0.3596
  753MOL0     C 1578   2.447  10.026   3.788 -0.4628 -0.2606 -0.2160
  753MOL0     O 1579   2.325  10.081   3.782 -0.6800 -0.2734  1.2391
  753MOL0     C 1580   2.307  10.207   3.856  0.3217 -1.3417  0.1540
  753MOL0     C 1581   2.336  10.213   4.008 -0.1888 -0.3888 -0.1225
  753MOL0     C 1582   2.215  10.181   4.098 -0.0651  0.6860  0.5362
  753MOL0     C 1583   2.254  10.244   4.232  0.1068  0.2684  0.4388
  753MOL0     C 1584   2.133  10.220   4.319  0.0199 -1.0597 -0.1473
  753MOL0     C 1585   2.050  10.217   4.412 -0.5478 -0.0415 -0.1778
  753MOL0     C 1586   2.567  10.098   3.798  0.1333  0.6932 -0.3370
  753MOL0     C 1587   2.693  10.027   3.792  0.3194 -0.7898  0.2239
  753MOL0     H 1588   2.957   9.657   3.959 -1.9357  1.1984 -1.6870
  753MOL0     H 1589   3.162   9.539   4.003  1.4089 -1.0600 -1.5121
  753MOL0     H 1590   3.345   9.533   4.084 -0.7009  0.5727 -1.5404
  753MOL0     H 1591   3.354   9.405   3.978  3.2731 -2.1220  1.6053
  753MOL0     H 1592   3.589   9.573   4.082 -1.1564  0.1336 -0.7156
  753MOL0     H 1593   3.547   9.412   4.140 -1.3585 -1.9261 -0.6983
  753MOL0     H 1594   3.554   9.333   3.894  2.2313 -2.2344 -1.5067
  753MOL0     H 1595   3.665   9.470   3.858 -0.1002 -0.5466 -0.0011
  753MOL0     H 1596   3.789   9.403   4.073  0.1507 -1.5012  1.1486
  753MOL0     H 1597   3.702   9.250   4.068 -0.9980 -0.3368  0.0442
  753MOL0     H 1598   3.779   9.205   3.843  0.0249 -0.7874 -0.8812
  753MOL0     H 1599   3.880   9.355   3.847 -0.2649  0.7346  2.0634
  753MOL0     H 1600   3.908   9.133   4.048  1.6278  1.0275  0.3631
  753MOL0     H 1601   3.985   9.113   3.896  2.4326 -0.3271  0.7826
  753MOL0     H 1602   4.110   9.358   3.955  4.5278 -1.4748 -0.1613
  753MOL0     H 1603   4.023   9.340   4.098  1.5230 -3.0798  1.8474
  753MOL0     H 1604   4.129   9.137   4.171 -0.4964  1.5075  1.7130
  753MOL0     H 1605   4.249   9.267   4.125  1.5656 -1.9901  2.0810
  753MOL0     H 1606   4.096   8.934   3.974 -1.6218  1.7944 -1.1093
  753MOL0     H 1607   4.233   8.753   3.813  0.7112  0.3012 -0.4827
  753MOL0     H 1608   4.397   8.762   3.782  1.2913 -0.3075  1.4952
  753MOL0     H 1609   4.297   8.737   4.066  1.0131 -1.0301  0.0051
  753MOL0     H 1610   4.467   8.717   4.007  1.3679  0.1000 -0.2987
  753MOL0     H 1611   4.334   8.510   4.057  0.0664 -0.4048 -0.5675
  753MOL0     H 1612   4.389   8.514   3.886  2.7021  2.6102  1.2916
  753MOL0     H 1613   4.126   8.635   3.952  1.2346  0.3999 -0.1532
  753MOL0     H 1614   4.114   8.467   3.964 -0.6343  1.4485  1.9676
  753MOL0     H 1615   3.926   8.598   3.839  3.3466 -2.3568  0.3967
  753MOL0     H 1616   3.641   8.642   3.700  1.1723 -0.2104 -0.5589
  753MOL0     H 1617   3.616   8.479   3.784  2.1370 -0.5274  2.2685
  753MOL0     H 1618   3.713   8.620   3.849  0.1444  3.0628 -1.6292
  753MOL0     H 1619   3.443   8.630   3.585  0.0894  2.4274 -0.7391
  753MOL0     H 1620   3.263   8.732   3.442  0.0233 -0.2181  1.3636
  753MOL0     H 1621   3.009   8.557   3.377 -1.3162  0.0414 -0.5002
  753MOL0     H 1622   2.973   8.708   3.289  0.5742  0.2160 -0.1407
  753MOL0     H 1623   3.032   8.443   3.159  0.4002  1.1079 -0.4883
  753MOL0     H 1624   2.867   8.482   3.226 -0.1155  2.4095  1.7803
  753MOL0     H 1625   3.006   8.625   2.982 -0.7255 -1.3604 -1.3818
  753MOL0     H 1626   2.861   8.689   3.062  0.2983 -0.6151  0.5645
  753MOL0     H 1627   2.903   8.441   2.901 -0.3125  0.5702 -1.1634
  753MOL0     H 1628   2.766   8.465   3.013  0.3153  0.3508  0.9820
  753MOL0     H 1629   2.678   8.637   2.870  0.5163 -0.3953  1.5580
  753MOL0     H 1630   2.702   8.492   2.778  0.5320 -0.2471  1.8432
  753MOL0     H 1631   2.870   8.738   2.774  4.4473 -2.3110  0.0319
  753MOL0     H 1632   2.937   8.576   2.719 -0.3957 -1.5717 -0.7366
  753MOL0     H 1633   2.778   8.571   2.537 -1.8131 -1.0674  0.9816
  753MOL0     H 1634   2.878   8.718   2.530  0.3730  0.1113  0.1442
  753MOL0     H 1635   2.664   8.801   2.497  1.7990 -2.2430 -1.7357
  753MOL0     H 1636   2.684   8.834   2.671 -1.1395  1.0605 -0.9676
  753MOL0     H 1637   3.283   8.398   3.191  3.0435  1.2851 -1.1986
  753MOL0     H 1638   3.448   8.281   3.333  0.3315 -0.9304 -1.5055
  753MOL0     H 1639   3.929   8.314   3.442 -1.9926 -1.8631  1.4146
  753MOL0     H 1640   4.130   8.403   3.524 -1.4006  0.2646 -1.7659
  753MOL0     H 1641   3.374   9.803   3.744  1.0893 -1.1468  1.1248
  753MOL0     H 1642   3.155   9.930   3.705 -2.3001  0.1134 -0.0949
  753MOL0     H 1643   2.567   9.712   3.773  1.2323 -0.0854 -0.0633
  753MOL0     H 1644   2.352   9.844   3.777 -0.2539  1.6803  1.2408
  753MOL0     H 1645   2.351  10.292   3.802  1.4961 -0.4782  2.3620
  753MOL0     H 1646   2.201  10.230   3.843  0.9289  0.7538 -1.7412
  753MOL0     H 1647   2.359  10.318   4.027  2.1463 -1.0825  1.2115
  753MOL0     H 1648   2.429  10.163   4.038 -1.1285 -0.0881  3.7400
  753MOL0     H 1649   2.206  10.072   4.098  1.0899  0.4272 -3.4985
  753MOL0     H 1650   2.120  10.221   4.062 -2.0067 -1.1135  3.3148
  753MOL0     H 1651   2.284  10.349   4.234  1.7417 -0.1761  1.4206
  753MOL0     H 1652   2.331  10.183   4.280 -0.5133  1.5555  3.2701
  753MOL0     H 1653   1.976  10.231   4.488 -0.1701  1.6215 -0.0708
  753MOL0     H 1654   2.562  10.206   3.803 -4.9940  0.6378  3.5315
  753MOL0     H 1655   2.781  10.090   3.795  1.7587 -2.7634  1.9543
  754MOL0     O 1656   9.477   6.477   9.563 -0.1688 -0.0666  0.6534
  754MOL0     C 1657   9.471   6.417   9.451  0.9413  0.7751 -1.2633
  754MOL0     O 1658   9.400   6.302   9.433  0.3336 -0.4637  0.4710
  754MOL0     C 1659   9.332   6.250   9.536  0.4715  0.9001 -0.1728
  754MOL0     C 1660   9.371   6.133   9.591 -0.6774 -0.0776  0.4369
  754MOL0     C 1661   9.294   6.061   9.685  0.2549 -1.0192  0.3665
  754MOL0     C 1662   9.167   6.110   9.726  0.7188 -0.9145 -1.0340
  754MOL0     O 1663   9.104   6.028   9.819 -0.3075 -0.2809 -0.0743
  754MOL0     C 1664   9.022   6.100   9.913 -0.1503  0.1381  1.0333
  754MOL0     C 1665   8.997   6.011  10.033 -0.1108  0.6051 -0.1590
  754MOL0     C 1666   8.915   5.881  10.014 -0.5260  0.2399  0.3328
  754MOL0     C 1667   8.987   5.782   9.907  0.3808  0.0839 -0.7462
  754MOL0     C 1668   8.913   5.648   9.905  0.1692 -0.3895  0.4777
  754MOL0     C 1669   8.781   5.644   9.822  0.0679 -0.1281  0.6380
  754MOL0     C 1670   8.711   5.524   9.882 -0.2137 -0.7213 -0.8295
  754MOL0     C 1671   8.760   5.381   9.874 -0.4162  0.0464 -0.1633
  754MOL0     N 1672   8.803   5.344   9.741 -0.0981 -0.3193  0.2126
  754MOL0     C 1673   8.917   5.272   9.715  0.8275  0.4971 -0.1254
  754MOL0     C 1674   8.907   5.227   9.588  0.1498  0.6409  0.5857
  754MOL0     C 1675   9.002   5.161   9.494  0.3286  0.0852 -0.2681
  754MOL0     C 1676   9.113   5.078   9.559  0.2999  0.5119  0.5682
  754MOL0     C 1677   9.056   4.957   9.652 -0.1001  1.2699 -0.4530
  754MOL0     C 1678   9.155   4.919   9.754 -0.9719 -0.7332 -0.8880
  754MOL0     O 1679   9.216   5.030   9.826 -0.4418 -0.3556 -0.4857
  754MOL0     C 1680   9.127   5.095   9.907 -0.3696 -0.1018 -0.5768
  754MOL0     C 1681   9.181   5.215   9.962 -0.9709 -0.0848 -0.0570
  754MOL0     C 1682   9.113   5.292  10.058 -0.9084 -0.3450 -0.2129
  754MOL0     C 1683   9.170   5.425  10.108  0.9012  0.8021 -0.2184
  754MOL0     C 1684   8.992   5.243  10.105  1.1881  0.3962 -0.1364
  754MOL0     C 1685   8.911   5.323  10.205 -0.0975 -1.2615 -0.1102
  754MOL0     O 1686   8.844   5.242  10.290 -0.3470  0.0577  0.4071
  754MOL0     C 1687   8.733   5.293  10.353 -0.3350 -0.0131  0.3264
  754MOL0     C 1688   8.726   5.407  10.422  0.3902 -1.0720  0.1299
  754MOL0     C 1689   8.607   5.456  10.458 -0.3184  1.0848 -0.5937
  754MOL0     C 1690   8.482   5.388  10.419  0.0018  0.2746  0.6788
  754MOL0     O 1691   8.355   5.431  10.441  0.1913 -0.1076  0.4409
  754MOL0     C 1692   8.336   5.543  10.529 -0.1753  0.6000 -0.4669
  754MOL0     C 1693   8.179   5.582  10.509 -0.1021  0.1638 -0.1340
  754MOL0     C 1694   8.084   5.484  10.562  0.0706 -0.3407  0.6336
  754MOL0     C 1695   7.940   5.545  10.564 -1.2525 -0.4683 -0.0908
  754MOL0     C 1696   7.858   5.466  10.662 -0.0158 -1.6005  1.3235
  754MOL0     C 1697   7.833   5.320  10.612  0.5208 -0.3752  0.1173
  754MOL0     C 1698   7.920   5.214  10.669 -0.0591  0.3222 -0.1240
  754MOL0     C 1699   7.954   5.089  10.574  0.4572  0.1277  0.7449
  754MOL0    Cl 1700   8.042   5.139  10.431 -0.4276  0.1629  0.4038
  754MOL0     C 1701   8.493   5.263  10.350  0.3955  0.5207 -0.3593
  754MOL0     C 1702   8.626   5.217  10.317  0.8605  0.1353 -0.3209
  754MOL0     O 1703   8.889   5.445  10.188  0.7669 -0.4986  0.1982
  754MOL0     C 1704   8.942   5.123  10.052 -0.2023  0.3182 -0.1712
  754MOL0     C 1705   9.005   5.051   9.954 -0.0295  0.4776  0.3958
  754MOL0     N 1706   8.780   5.268   9.538  0.4012 -0.4775 -0.7708
  754MOL0     N 1707   8.723   5.338   9.629  0.3692 -0.5815 -0.7287
  754MOL0     C 1708   9.121   6.230   9.664 -0.7352 -0.4275 -0.7264
  754MOL0     C 1709   9.202   6.306   9.573  0.0525  1.0026  0.6325
  754MOL0     C 1710   9.537   6.481   9.336 -0.1311  0.0683 -0.1527
  754MOL0     C 1711   9.484   6.465   9.203  0.2910  0.4163  0.2929
  754MOL0     C 1712   9.530   6.547   9.095 -0.4347  0.1779  0.1323
  754MOL0     C 1713   9.634   6.637   9.117  0.6827 -0.4504  0.1343
  754MOL0     O 1714   9.672   6.714   9.010  0.2913 -0.0116 -0.3592
  754MOL0     C 1715   9.796   6.783   9.015  0.2023  0.8935  0.0452
  754MOL0     C 1716   9.858   6.836   8.884  0.3070 -0.0197 -0.2110
  754MOL0     C 1717   9.950   6.723   8.819 -1.4220  0.1704  1.1607
  754MOL0     C 1718   9.891   6.588   8.776  0.3781 -0.4212  0.1060
  754MOL0     C 1719   9.942   6.522   8.661 -0.6387 -0.1817  0.5924
  754MOL0     C 1720   9.985   6.466   8.564 -0.1177 -0.2456 -0.1718
  754MOL0     C 1721   9.688   6.654   9.247 -1.2276  0.5435  0.2820
  754MOL0     C 1722   9.634   6.579   9.358 -0.1021  0.7269  0.5964
  754MOL0     H 1723   9.470   6.096   9.566 -0.6373  0.8560 -0.9135
  754MOL0     H 1724   9.334   5.970   9.729 -3.0721 -3.4204 -1.1886
  754MOL0     H 1725   9.061   6.198   9.942 -1.6371  0.8682  0.6807
  754MOL0     H 1726   8.925   6.118   9.866 -1.0489  0.1633  2.8109
  754MOL0     H 1727   9.090   5.973  10.074 -1.0135  0.8453  2.2749
  754MOL0     H 1728   8.945   6.071  10.109  1.3602  3.3064 -1.1541
  754MOL0     H 1729   8.893   5.823  10.104 -0.3228 -0.2824  0.0518
  754MOL0     H 1730   8.816   5.908   9.976 -0.0502 -0.1235 -1.2670
  754MOL0     H 1731   8.973   5.821   9.806  0.3479  1.3347 -0.2736
  754MOL0     H 1732   9.091   5.757   9.934 -0.4570 -2.6041  0.3498
  754MOL0     H 1733   8.984   5.576   9.864 -0.9379  0.4498 -3.3443
  754MOL0     H 1734   8.888   5.621  10.008  0.8664 -2.1850  0.2052
  754MOL0     H 1735   8.713   5.729   9.817 -0.7152 -0.7671 -3.6617
  754MOL0     H 1736   8.800   5.619   9.717  0.2813  0.9416  0.4064
  754MOL0     H 1737   8.692   5.549   9.987  0.9433 -0.2221 -0.7244
  754MOL0     H 1738   8.616   5.519   9.828 -1.1170 -1.3765  0.7380
  754MOL0     H 1739   8.693   5.305   9.914 -0.2297 -1.3566 -2.3522
  754MOL0     H 1740   8.848   5.375   9.939 -0.2479  0.1217 -0.3829
  754MOL0     H 1741   9.005   5.276   9.778  0.5918  1.3766  0.1511
  754MOL0     H 1742   8.937   5.099   9.433 -2.8185  3.8454 -1.1793
  754MOL0     H 1743   9.048   5.242   9.436  0.7628  1.1900  1.5187
  754MOL0     H 1744   9.176   5.148   9.616 -2.1311  0.8180  3.1122
  754MOL0     H 1745   9.169   5.025   9.483  2.7900  0.1215  2.5455
  754MOL0     H 1746   9.035   4.886   9.571 -2.2712 -0.3186  1.3746
  754MOL0     H 1747   8.960   4.969   9.702  0.4706  0.3021  0.9156
  754MOL0     H 1748   9.240   4.871   9.704  4.0341  5.9580 -0.1545
  754MOL0     H 1749   9.118   4.843   9.824 -2.8658  1.2110  0.3189
  754MOL0     H 1750   9.280   5.238   9.923 -0.5366 -2.8037 -0.8413
  754MOL0     H 1751   9.157   5.435  10.216  2.1568  3.6854 -0.2430
  754MOL0     H 1752   9.276   5.435  10.081  0.4266  0.1981 -2.5746
  754MOL0     H 1753   9.120   5.516  10.072 -1.0996 -0.8189 -1.7900
  754MOL0     H 1754   8.815   5.468  10.436 -0.4423  0.9140 -2.4005
  754MOL0     H 1755   8.614   5.558  10.493  0.8869  0.0212  2.6696
  754MOL0     H 1756   8.344   5.523  10.636 -1.3424 -1.6249 -0.7480
  754MOL0     H 1757   8.399   5.629  10.502  3.1979 -1.9095 -1.2596
  754MOL0     H 1758   8.160   5.672  10.569  2.3812  0.5888  0.1135
  754MOL0     H 1759   8.163   5.607  10.403  1.8651  1.1148 -0.2505
  754MOL0     H 1760   8.113   5.465  10.666  1.6781  1.6621  0.6042
  754MOL0     H 1761   8.092   5.395  10.498 -2.0386 -0.0554 -0.0845
  754MOL0     H 1762   7.947   5.644  10.610  0.8679 -1.4973  2.0426
  754MOL0     H 1763   7.895   5.563  10.466 -4.1446  2.5229  1.5896
  754MOL0     H 1764   7.763   5.516  10.685 -0.4527 -2.5380  1.6140
  754MOL0     H 1765   7.894   5.466  10.765 -0.9341 -1.1495  1.6559
  754MOL0     H 1766   7.730   5.289  10.635  0.3473 -0.3469 -0.6048
  754MOL0     H 1767   7.846   5.318  10.503  0.7063 -0.0921  0.1361
  754MOL0     H 1768   7.864   5.172  10.753  1.8766  1.0985  1.6547
  754MOL0     H 1769   8.017   5.244  10.711 -0.6682  0.2861  1.3607
  754MOL0     H 1770   7.865   5.040  10.536 -1.0338  0.4760  3.5345
  754MOL0     H 1771   7.994   4.998  10.621 -1.6299 -0.8669  0.7015
  754MOL0     H 1772   8.402   5.213  10.319 -1.4998  3.6739 -0.3210
  754MOL0     H 1773   8.629   5.124  10.261 -0.1121  0.2217 -0.5285
  754MOL0     H 1774   8.845   5.080  10.073 -0.1000  0.4032  0.5017
  754MOL0     H 1775   8.947   4.961   9.937 -2.3164  2.1903 -1.6353
  754MOL0     H 1776   9.022   6.272   9.676 -0.4765 -0.2165  0.9504
  754MOL0     H 1777   9.149   6.380   9.514  2.6416  1.5819 -1.1795
  754MOL0     H 1778   9.404   6.396   9.181 -0.9867  1.4040  1.6611
  754MOL0     H 1779   9.482   6.546   8.998 -0.8434 -0.0823  0.3349
  754MOL0     H 1780   9.777   6.875   9.071 -0.8785  3.2079 -3.7593
  754MOL0     H 1781   9.874   6.728   9.068  1.3128  0.2927 -2.1211
  754MOL0     H 1782   9.918   6.924   8.906 -1.1224  0.8781  0.2134
  754MOL0     H 1783   9.782   6.855   8.807 -1.0790 -2.0473  0.5557
  754MOL0     H 1784  10.033   6.695   8.884  2.3396  0.0757 -3.1714
  754MOL0     H 1785  10.003   6.760   8.731 -0.5715 -0.7781  1.2655
  754MOL0     H 1786   9.785   6.614   8.771  1.1060  3.0296  0.1176
  754MOL0     H 1787   9.891   6.517   8.858 -2.1969 -0.0396  0.5187
  754MOL0     H 1788  10.010   6.406   8.479  0.7429  2.1199 -1.6722
  754MOL0     H 1789   9.765   6.729   9.263 -0.0663 -0.3807 -0.7027
  754MOL0     H 1790   9.660   6.620   9.455 -3.9237  1.5635  1.4357
  755MOL0     O 1791   6.412  10.598   4.483 -0.3298 -0.7294  0.4908
  755MOL0     C 1792   6.456  10.713   4.465 -0.0257  0.1152 -0.2805
  755MOL0     O 1793   6.411  10.825   4.518  0.5836 -0.5547  1.6643
  755MOL0     C 1794   6.299  10.808   4.599 -0.0688 -0.5505 -0.4003
  755MOL0     C 1795   6.319  10.762   4.727  0.7498 -0.7978  0.1011
  755MOL0     C 1796   6.204  10.760   4.808  0.1315 -0.3836 -0.0847
  755MOL0     C 1797   6.075  10.780   4.766 -0.6836 -0.9547  0.4170
  755MOL0     O 1798   5.974  10.771   4.852 -0.6730  1.1249 -0.4938
  755MOL0     C 1799   5.840  10.755   4.814  0.0487 -0.2131 -0.4531
  755MOL0     C 1800   5.763  10.725   4.951  0.0878  0.5741 -0.0300
  755MOL0     C 1801   5.727  10.836   5.044 -0.5878 -0.0627 -0.2381
  755MOL0     C 1802   5.723  10.787   5.202 -1.1923 -0.3636  0.5052
  755MOL0     C 1803   5.734  10.903   5.299  0.4711 -0.2724 -0.5884
  755MOL0     C 1804   5.688  10.869   5.443 -0.9737  0.6567  0.0735
  755MOL0     C 1805   5.745  10.956   5.563 -0.2902  0.2955  1.3718
  755MOL0     C 1806   5.695  10.897   5.697 -0.8386  1.1684  0.3498
  755MOL0     N 1807   5.584  10.969   5.761  0.3983 -0.0017 -0.2207
  755MOL0     C 1808   5.533  10.959   5.889  0.3152  0.1401  0.0104
  755MOL0     C 1809   5.439  11.047   5.906 -0.2345 -0.1910 -0.0704
  755MOL0     C 1810   5.348  11.059   6.029  0.5817  0.3414 -0.6473
  755MOL0     C 1811   5.312  10.924   6.109 -0.4401 -0.1840 -0.0373
  755MOL0     C 1812   5.199  10.932   6.195 -0.3176  0.6144  0.4763
  755MOL0     C 1813   5.180  10.809   6.278  0.1143  0.3785  0.1121
  755MOL0     O 1814   5.072  10.805   6.366  0.3741  0.0995 -0.5285
  755MOL0     C 1815   5.036  10.686   6.428  0.5284  0.1410  0.2894
  755MOL0     C 1816   5.093  10.560   6.413  0.2472 -0.6857  0.1383
  755MOL0     C 1817   5.041  10.450   6.473  0.2143  1.1403  0.5430
  755MOL0     C 1818   5.096  10.310   6.437  0.2529 -0.6846  0.6409
  755MOL0     C 1819   4.925  10.463   6.558  0.5413  0.0198  0.1374
  755MOL0     C 1820   4.881  10.354   6.648  1.5138 -0.3213  0.3048
  755MOL0     O 1821   4.957  10.235   6.669 -0.1591 -0.0263 -0.3497
  755MOL0     C 1822   4.920  10.135   6.765 -0.0843 -0.1864  1.2257
  755MOL0     C 1823   4.820  10.146   6.861  0.1996  0.8488  0.2985
  755MOL0     C 1824   4.818  10.038   6.952 -0.7419  0.2623 -0.2292
  755MOL0     C 1825   4.894   9.920   6.950 -0.2066 -0.4146  0.7234
  755MOL0     O 1826   4.872   9.809   7.036 -0.5147 -1.6579 -0.1273
  755MOL0     C 1827   4.734   9.800   7.071  0.5238  0.9253  1.0259
  755MOL0     C 1828   4.702   9.691   7.167  0.1294  0.1157  0.6658
  755MOL0     C 1829   4.704   9.546   7.107 -1.3120  0.4515 -0.7999
  755MOL0     C 1830   4.681   9.439   7.208 -0.3110 -0.1439 -0.7415
  755MOL0     C 1831   4.666   9.294   7.152  0.3655 -0.4685  0.7703
  755MOL0     C 1832   4.524   9.270   7.106 -1.0356  1.0646  0.7379
  755MOL0     C 1833   4.526   9.126   7.056  0.0541  1.0243  0.1510
  755MOL0     C 1834   4.383   9.062   7.046  0.0007 -0.5543  0.1899
  755MOL0    Cl 1835   4.299   9.051   7.208  0.2403  0.0109 -0.3843
  755MOL0     C 1836   4.978   9.904   6.844 -1.1007 -0.1157  0.0594
  755MOL0     C 1837   5.001  10.015   6.758 -0.2273 -0.6601  0.1688
  755MOL0     O 1838   4.768  10.374   6.688 -0.3062  0.0197  0.3481
  755MOL0     C 1839   4.867  10.590   6.567  0.2273  0.4841 -0.2398
  755MOL0     C 1840   4.921  10.707   6.504 -0.2581 -1.0690 -0.4900
  755MOL0     N 1841   5.438  11.124   5.794 -0.4298 -0.3377  0.3414
  755MOL0     N 1842   5.525  11.081   5.711 -0.6170 -0.4469  0.6393
  755MOL0     C 1843   6.056  10.822   4.635 -0.2475 -0.0857  1.0118
  755MOL0     C 1844   6.175  10.835   4.545  1.0469  0.0687  0.0648
  755MOL0     C 1845   6.589  10.730   4.410  0.5851  0.3534 -0.2813
  755MOL0     C 1846   6.662  10.849   4.399 -0.1744  0.0855 -0.3467
  755MOL0     C 1847   6.792  10.846   4.349  0.2514 -1.1446  0.0721
  755MOL0     C 1848   6.860  10.731   4.312  0.2632  0.5343  0.5971
  755MOL0     O 1849   6.984  10.727   4.255  0.5437  1.0380  0.2194
  755MOL0     C 1850   7.025  10.856   4.191 -0.8242  0.5542  0.2630
  755MOL0     C 1851   6.948  10.879   4.058  1.0550  0.4267 -0.1607
  755MOL0     C 1852   6.967  10.761   3.943  0.2087 -0.8453  0.4924
  755MOL0     C 1853   6.878  10.786   3.819  0.7897  0.9430  0.3414
  755MOL0     C 1854   6.886  10.661   3.722 -0.4452 -0.9703  0.0287
  755MOL0     C 1855   6.899  10.568   3.652  0.2901 -0.2914 -0.4288
  755MOL0     C 1856   6.787  10.617   4.330 -0.2905  0.5032  0.0278
  755MOL0     C 1857   6.653  10.607   4.369  0.0067  0.3648  0.8072
  755MOL0     H 1858   6.420  10.746   4.762  0.1187  1.4969  3.5272
  755MOL0     H 1859   6.207  10.713   4.905  0.8992 -3.9608 -1.6711
  755MOL0     H 1860   5.799  10.840   4.758  0.8455  0.5573  0.1315
  755MOL0     H 1861   5.834  10.661   4.757 -2.0128 -1.4724  1.6744
  755MOL0     H 1862   5.668  10.686   4.913  0.1568  0.1787  0.2046
  755MOL0     H 1863   5.816  10.644   5.002 -0.2604 -1.2176 -2.3368
  755MOL0     H 1864   5.806  10.908   5.021  0.3427 -1.5517 -2.0325
  755MOL0     H 1865   5.636  10.893   5.021 -0.9804 -0.4337  0.3828
  755MOL0     H 1866   5.630  10.730   5.211 -1.4507  0.1730  1.2907
  755MOL0     H 1867   5.801  10.715   5.230  1.1949  1.9505  0.1429
  755MOL0     H 1868   5.838  10.934   5.316  0.4340  0.6433 -1.8824
  755MOL0     H 1869   5.684  10.990   5.255  1.8991  0.6647 -0.4146
  755MOL0     H 1870   5.580  10.885   5.437 -1.5739 -1.6126  2.9295
  755MOL0     H 1871   5.715  10.763   5.452 -4.0459 -0.2229  0.0690
  755MOL0     H 1872   5.854  10.944   5.560 -0.3745 -0.4029  0.8772
  755MOL0     H 1873   5.722  11.061   5.540 -0.8455  0.2409  1.6718
  755MOL0     H 1874   5.767  10.893   5.778 -0.2928 -0.9720 -0.1888
  755MOL0     H 1875   5.667  10.794   5.674  1.9918 -0.0786  2.0382
  755MOL0     H 1876   5.573  10.888   5.962 -1.8103 -1.5127 -0.3421
  755MOL0     H 1877   5.388  11.134   6.098 -4.4132  1.4393  1.4727
  755MOL0     H 1878   5.254  11.097   5.990 -2.7647 -4.5118  1.6540
  755MOL0     H 1879   5.393  10.900   6.177  2.1020  1.6247 -2.2287
  755MOL0     H 1880   5.297  10.838   6.042 -0.1940  0.0562 -0.4033
  755MOL0     H 1881   5.107  10.932   6.136  1.7689 -0.5370 -3.0861
  755MOL0     H 1882   5.203  11.012   6.269  2.6709  0.4428  0.6084
  755MOL0     H 1883   5.269  10.803   6.341  3.2559 -1.9991 -4.0007
  755MOL0     H 1884   5.167  10.724   6.209  1.2217  0.2823  0.0091
  755MOL0     H 1885   5.181  10.545   6.352  1.2102 -0.9419  1.5305
  755MOL0     H 1886   5.154  10.327   6.346  0.8949 -1.0720  0.9792
  755MOL0     H 1887   5.163  10.274   6.515 -2.6428 -1.6176  2.8624
  755MOL0     H 1888   5.019  10.234   6.421  0.7162 -0.7288 -1.6689
  755MOL0     H 1889   4.769  10.238   6.885  0.1486  1.1229 -0.8229
  755MOL0     H 1890   4.741  10.046   7.028  0.3857  2.8007  0.7388
  755MOL0     H 1891   4.701   9.883   7.133 -1.4518 -0.6884  2.2755
  755MOL0     H 1892   4.690   9.792   6.971 -0.2835 -0.2815  1.4566
  755MOL0     H 1893   4.783   9.702   7.240  2.0414  0.5008 -1.4154
  755MOL0     H 1894   4.614   9.711   7.229  1.1774  1.6043  1.7480
  755MOL0     H 1895   4.806   9.531   7.072  0.5552  1.7038  3.3787
  755MOL0     H 1896   4.629   9.542   7.028 -0.7371 -0.0610 -1.3253
  755MOL0     H 1897   4.762   9.433   7.280 -1.7370 -1.3155  0.8568
  755MOL0     H 1898   4.589   9.472   7.258 -0.4584 -2.9015  0.9480
  755MOL0     H 1899   4.683   9.230   7.240  0.9844 -1.1547  0.1658
  755MOL0     H 1900   4.741   9.275   7.074 -1.1780 -2.8309 -0.2699
  755MOL0     H 1901   4.477   9.270   7.204  0.4392  0.3336  1.4724
  755MOL0     H 1902   4.483   9.343   7.035  0.9642  0.9659 -0.6052
  755MOL0     H 1903   4.587   9.054   7.110 -0.0321  1.1242  0.3844
  755MOL0     H 1904   4.565   9.123   6.953  1.2945 -1.3755  0.6209
  755MOL0     H 1905   4.387   8.964   6.996 -1.4725 -2.2027  3.0461
  755MOL0     H 1906   4.321   9.115   6.973  0.3100 -0.8412 -0.2928
  755MOL0     H 1907   5.029   9.808   6.849 -1.6472 -0.3629  1.3671
  755MOL0     H 1908   5.069  10.006   6.674  1.1941 -1.9089  1.3938
  755MOL0     H 1909   4.770  10.610   6.613 -1.1617  0.3349 -2.9392
  755MOL0     H 1910   4.892  10.812   6.497  0.4608 -0.7877  0.6093
  755MOL0     H 1911   5.963  10.833   4.580  1.1698 -0.9876 -1.8020
  755MOL0     H 1912   6.166  10.866   4.441  1.1916  0.1787  0.0848
  755MOL0     H 1913   6.621  10.939   4.442  1.0639  0.6338 -0.2801
  755MOL0     H 1914   6.840  10.944   4.344 -1.0272 -0.4368  1.1284
  755MOL0     H 1915   7.030  10.937   4.265  3.2777 -2.4530  3.7900
  755MOL0     H 1916   7.131  10.854   4.164 -0.7958  1.0633  0.3149
  755MOL0     H 1917   6.982  10.973   4.014 -0.4630  1.2509  0.3403
  755MOL0     H 1918   6.844  10.884   4.093  1.1708  1.8646  0.0229
  755MOL0     H 1919   6.939  10.672   3.999  1.5997 -1.1311  0.7614
  755MOL0     H 1920   7.070  10.747   3.908 -0.3566 -1.1295 -1.1472
  755MOL0     H 1921   6.911  10.874   3.764  2.4814  0.3689  0.3815
  755MOL0     H 1922   6.781  10.799   3.868  0.6262  2.0223 -0.2414
  755MOL0     H 1923   6.923  10.482   3.593 -2.7992 -2.1598  0.8422
  755MOL0     H 1924   6.830  10.518   4.319 -1.9256 -0.1224 -1.2389
  755MOL0     H 1925   6.593  10.516   4.370 -1.0232  0.8714 -2.2971
  756MOL0     O 1926   9.573   7.076   5.423 -0.5640 -0.6166  0.1970
  756MOL0     C 1927   9.546   7.139   5.520  0.6446 -0.1622  0.4614
  756MOL0     O 1928   9.578   7.117   5.649 -0.1168 -0.1689 -0.4348
  756MOL0     C 1929   9.644   6.997   5.691  0.0889 -0.9159 -0.0281
  756MOL0     C 1930   9.766   6.986   5.753  0.0839  0.0802 -0.9252
  756MOL0     C 1931   9.826   6.861   5.778  0.2400  0.3584 -0.8260
  756MOL0     C 1932   9.754   6.746   5.741 -0.2338 -0.0762 -0.2241
  756MOL0     O 1933   9.804   6.627   5.769  0.1183  1.0398  0.6150
  756MOL0     C 1934   9.943   6.596   5.757  0.2775 -1.4496 -0.0780
  756MOL0     C 1935   9.973   6.449   5.743  0.7041  0.0053 -0.6490
  756MOL0     C 1936   9.901   6.395   5.625  0.3153 -0.2065 -0.2055
  756MOL0     C 1937   9.938   6.249   5.611 -0.3133 -1.3371  0.0831
  756MOL0     C 1938   9.887   6.174   5.488 -0.0676  0.4168 -0.1253
  756MOL0     C 1939   9.727   6.177   5.482 -0.5735 -0.2634 -0.3724
  756MOL0     C 1940   9.678   6.114   5.353 -0.6452  0.4686 -0.3534
  756MOL0     C 1941   9.540   6.047   5.367 -0.0966  0.4038  0.1162
  756MOL0     N 1942   9.547   5.939   5.461  0.9499  0.1834  0.5281
  756MOL0     C 1943   9.493   5.929   5.593 -0.4223  0.8443  0.2651
  756MOL0     C 1944   9.531   5.803   5.635  0.1710  0.4223  0.5625
  756MOL0     C 1945   9.518   5.745   5.770 -0.0033  0.3496  0.9847
  756MOL0     C 1946   9.410   5.637   5.771 -0.7766  0.6055  0.0073
  756MOL0     C 1947   9.385   5.598   5.915 -0.0271 -0.4455  0.7481
  756MOL0     C 1948   9.298   5.467   5.919 -0.4597 -0.2792 -0.8628
  756MOL0     O 1949   9.286   5.422   6.057  0.4715 -0.7054 -0.2681
  756MOL0     C 1950   9.185   5.329   6.096 -0.5309 -0.6106  0.7057
  756MOL0     C 1951   9.118   5.242   6.012  0.2095  0.0577 -0.0160
  756MOL0     C 1952   9.007   5.161   6.044 -0.2039 -0.4550  1.6657
  756MOL0     C 1953   8.956   5.070   5.937 -0.4997  0.2068  0.8646
  756MOL0     C 1954   8.979   5.151   6.183 -0.6643  0.3450  0.1014
  756MOL0     C 1955   8.876   5.068   6.236  0.5011 -0.2979 -0.3519
  756MOL0     O 1956   8.864   5.041   6.365 -0.1331 -0.1695  0.0265
  756MOL0     C 1957   8.749   4.984   6.416  0.3440  0.2946  0.1827
  756MOL0     C 1958   8.629   5.057   6.399 -0.5570  0.3005 -0.3885
  756MOL0     C 1959   8.516   4.990   6.451  0.6188  0.5832 -0.7431
  756MOL0     C 1960   8.521   4.862   6.494  0.4383  0.3960 -0.0728
  756MOL0     O 1961   8.393   4.804   6.524 -0.4898  0.1043  0.0704
  756MOL0     C 1962   8.383   4.687   6.603 -1.0466  0.0754  0.6142
  756MOL0     C 1963   8.328   4.576   6.526  0.2967  0.1332 -0.3883
  756MOL0     C 1964   8.231   4.482   6.603 -1.1563  0.4922 -0.1251
  756MOL0     C 1965   8.085   4.526   6.607  0.3948  0.9689 -0.6008
  756MOL0     C 1966   8.007   4.411   6.672  0.5428  0.5938 -0.8305
  756MOL0     C 1967   7.852   4.436   6.682 -0.4465 -0.5684 -0.3897
  756MOL0     C 1968   7.796   4.431   6.539 -0.1233  0.9776  0.0945
  756MOL0     C 1969   7.671   4.518   6.516  0.2278  0.5010  0.2704
  756MOL0    Cl 1970   7.725   4.689   6.495  0.3953 -0.2290  0.3322
  756MOL0     C 1971   8.641   4.791   6.505  0.0673  0.4576  0.4364
  756MOL0     C 1972   8.758   4.849   6.469 -1.0737 -1.2946  0.0365
  756MOL0     O 1973   8.799   5.032   6.152  1.1108  0.4223 -0.2866
  756MOL0     C 1974   9.048   5.229   6.276 -0.8588 -0.4071  0.1136
  756MOL0     C 1975   9.152   5.323   6.229 -0.0685 -0.0910  0.6197
  756MOL0     N 1976   9.596   5.746   5.533  0.0640  0.7502  0.3951
  756MOL0     N 1977   9.607   5.818   5.428 -0.1338 -0.0214 -0.5549
  756MOL0     C 1978   9.628   6.760   5.682 -0.8511  0.1238  0.5323
  756MOL0     C 1979   9.577   6.881   5.661 -0.4269  0.2409 -0.3053
  756MOL0     C 1980   9.446   7.242   5.486  0.3645  0.0096  0.7530
  756MOL0     C 1981   9.446   7.353   5.572 -0.3663  0.2835  0.0087
  756MOL0     C 1982   9.354   7.461   5.558  1.2536 -0.6390 -0.3174
  756MOL0     C 1983   9.253   7.450   5.456  0.6390 -0.3696 -0.1216
  756MOL0     O 1984   9.138   7.526   5.453  0.3369 -0.1484 -0.3032
  756MOL0     C 1985   9.083   7.554   5.588  0.7588  0.2717 -0.1637
  756MOL0     C 1986   9.052   7.426   5.668 -0.5688 -0.2406 -0.2831
  756MOL0     C 1987   8.961   7.324   5.588  0.8269 -0.1322  0.3335
  756MOL0     C 1988   8.813   7.334   5.627 -0.0006  0.2918 -0.1204
  756MOL0     C 1989   8.732   7.232   5.551  0.2846  0.5582 -0.0497
  756MOL0     C 1990   8.643   7.159   5.501  0.4682 -0.7866 -0.2649
  756MOL0     C 1991   9.259   7.346   5.365  0.3679  0.3021  0.6252
  756MOL0     C 1992   9.354   7.242   5.383  1.2507  0.0773  1.7575
  756MOL0     H 1993   9.823   7.077   5.768  0.3828 -0.5056  1.9438
  756MOL0     H 1994   9.928   6.860   5.813 -0.3523 -0.4092  0.9839
  756MOL0     H 1995   9.987   6.637   5.666 -1.5728 -1.9353 -1.2478
  756MOL0     H 1996   9.991   6.637   5.847  1.3118 -1.6001 -0.5484
  756MOL0     H 1997  10.081   6.434   5.738  1.3280  2.5184  1.9803
  756MOL0     H 1998   9.933   6.420   5.841 -1.0793  2.2392 -0.6313
  756MOL0     H 1999   9.793   6.410   5.630  0.3212  0.2318 -1.1825
  756MOL0     H 2000   9.933   6.442   5.532 -1.8332 -0.6348 -1.2136
  756MOL0     H 2001  10.046   6.230   5.612  0.3931  2.0310  2.0548
  756MOL0     H 2002   9.914   6.191   5.701  1.4406 -0.5185  1.1286
  756MOL0     H 2003   9.937   6.209   5.398 -1.5784  1.4582 -0.6047
  756MOL0     H 2004   9.908   6.067   5.494 -2.9074 -0.2873 -0.9109
  756MOL0     H 2005   9.685   6.116   5.563  3.1252 -2.2525  0.2860
  756MOL0     H 2006   9.684   6.277   5.481 -1.1244 -0.4957 -2.0432
  756MOL0     H 2007   9.692   6.192   5.277 -1.0862  0.7389 -0.1653
  756MOL0     H 2008   9.745   6.035   5.319 -1.9074 -0.5533 -0.5257
  756MOL0     H 2009   9.502   6.010   5.272  0.9897 -1.1287  0.2346
  756MOL0     H 2010   9.465   6.117   5.405 -0.4895  1.0707 -1.8018
  756MOL0     H 2011   9.453   6.015   5.646 -0.8198 -0.6355  2.4786
  756MOL0     H 2012   9.622   5.721   5.793  1.1814  2.9016 -1.1548
  756MOL0     H 2013   9.477   5.823   5.834 -2.9538  0.4582 -0.8839
  756MOL0     H 2014   9.451   5.548   5.722  1.9992  0.1316  2.8856
  756MOL0     H 2015   9.318   5.664   5.719 -1.1461 -1.3455 -0.4423
  756MOL0     H 2016   9.315   5.669   5.961 -0.6886 -1.0283  0.6553
  756MOL0     H 2017   9.476   5.592   5.975  1.6721  0.6896 -1.5579
  756MOL0     H 2018   9.346   5.390   5.858  0.3720 -0.2261 -0.2833
  756MOL0     H 2019   9.200   5.477   5.871 -1.0520 -0.3987  0.2867
  756MOL0     H 2020   9.163   5.240   5.913  1.7542 -1.6998  0.6491
  756MOL0     H 2021   8.966   4.965   5.965  3.8376  0.4497  0.9878
  756MOL0     H 2022   8.853   5.086   5.907  0.0425 -1.2859 -2.1058
  756MOL0     H 2023   9.010   5.080   5.842 -3.2627 -3.2316 -1.2975
  756MOL0     H 2024   8.637   5.159   6.361 -0.4484  0.8096  0.9419
  756MOL0     H 2025   8.425   5.047   6.438  2.4955  3.4168 -3.0968
  756MOL0     H 2026   8.478   4.648   6.642  0.0747  0.3217 -1.6801
  756MOL0     H 2027   8.324   4.697   6.694  0.4322 -1.9207  1.8936
  756MOL0     H 2028   8.271   4.617   6.442  1.5143 -0.0975 -1.3625
  756MOL0     H 2029   8.405   4.510   6.484 -2.9095 -2.8323 -2.1379
  756MOL0     H 2030   8.261   4.470   6.707  1.9570  0.3232 -0.9297
  756MOL0     H 2031   8.237   4.384   6.553  0.3867  0.3415  0.2880
  756MOL0     H 2032   8.073   4.623   6.656 -0.8653  1.7757 -2.3946
  756MOL0     H 2033   8.062   4.526   6.500 -1.5377  3.6287 -0.2699
  756MOL0     H 2034   8.054   4.392   6.769 -0.6082 -1.3944 -0.6034
  756MOL0     H 2035   8.027   4.320   6.616 -1.6308  0.8055 -2.0534
  756MOL0     H 2036   7.799   4.361   6.741  0.5119 -1.4498 -0.6145
  756MOL0     H 2037   7.830   4.535   6.723 -0.6121 -1.8762  2.9363
  756MOL0     H 2038   7.772   4.325   6.534  0.9020  0.6981  0.7288
  756MOL0     H 2039   7.874   4.462   6.469  1.0179  0.6368  1.1809
  756MOL0     H 2040   7.606   4.505   6.603  0.4556  1.4697  0.5969
  756MOL0     H 2041   7.614   4.484   6.429  1.7417 -1.7718  0.0840
  756MOL0     H 2042   8.637   4.682   6.513  0.3573  0.4392  0.3278
  756MOL0     H 2043   8.851   4.795   6.452 -1.6128 -2.5923  0.9980
  756MOL0     H 2044   9.025   5.243   6.381  0.2011  0.0354  0.3031
  756MOL0     H 2045   9.221   5.376   6.293 -0.6648  2.0435 -0.4081
  756MOL0     H 2046   9.573   6.668   5.665 -0.1185 -0.6902  2.2099
  756MOL0     H 2047   9.485   6.891   5.604 -0.7495 -0.6980  0.0184
  756MOL0     H 2048   9.517   7.356   5.654 -0.5194 -1.6050  0.2570
  756MOL0     H 2049   9.353   7.534   5.639 -0.9092 -0.1465 -0.7112
  756MOL0     H 2050   9.153   7.623   5.638 -0.8986  2.8260 -1.1312
  756MOL0     H 2051   8.986   7.602   5.575  0.3205 -1.2222 -3.0413
  756MOL0     H 2052   9.007   7.461   5.761 -2.3008 -0.8363 -0.8506
  756MOL0     H 2053   9.146   7.376   5.693 -1.5833 -2.8592 -1.2987
  756MOL0     H 2054   9.000   7.224   5.607 -0.5854 -0.5650  1.0880
  756MOL0     H 2055   8.970   7.342   5.481  0.1750 -1.0691  0.1135
  756MOL0     H 2056   8.782   7.437   5.610  1.2354  0.8656  0.9226
  756MOL0     H 2057   8.809   7.318   5.736  2.8691  1.7631  0.3022
  756MOL0     H 2058   8.561   7.103   5.460  1.3969 -1.7556 -0.8693
  756MOL0     H 2059   9.180   7.343   5.292  2.3257 -2.5619 -1.5949
  756MOL0     H 2060   9.352   7.156   5.317 -0.9233  1.2345  0.1920
  757MOL0     O 2061   7.385   3.225   2.975  0.6034  0.2625 -0.6569
  757MOL0     C 2062   7.402   3.309   2.888 -1.8745 -0.1460 -0.8348
  757MOL0     O 2063   7.304   3.364   2.807  0.0044 -0.6077 -0.6478
  757MOL0     C 2064   7.172   3.336   2.819  1.0906 -0.6739  0.0781
  757MOL0     C 2065   7.101   3.289   2.706  0.5537  0.8243  1.2164
  757MOL0     C 2066   6.963   3.259   2.713  0.0912 -0.0461 -0.5212
  757MOL0     C 2067   6.894   3.269   2.837 -0.0896  0.5732 -0.4759
  757MOL0     O 2068   6.759   3.245   2.858  0.2026  0.1148 -0.5550
  757MOL0     C 2069   6.675   3.277   2.750 -0.6322 -0.5697 -0.7658
  757MOL0     C 2070   6.533   3.223   2.791 -0.1410  0.3908  0.2961
  757MOL0     C 2071   6.434   3.253   2.680  1.7691 -0.1647 -0.2514
  757MOL0     C 2072   6.290   3.207   2.717  0.3346  0.3519 -0.3348
  757MOL0     C 2073   6.185   3.219   2.612 -0.2302  0.0696 -0.4754
  757MOL0     C 2074   6.059   3.149   2.664 -0.8224  0.6866  0.1616
  757MOL0     C 2075   5.935   3.156   2.560 -0.6000  1.0199  0.2289
  757MOL0     C 2076   5.795   3.113   2.615 -0.8272 -0.7401 -0.0153
  757MOL0     N 2077   5.805   2.966   2.644 -0.4233 -0.0708  0.3929
  757MOL0     C 2078   5.756   2.905   2.750  0.6599 -0.5224  0.7305
  757MOL0     C 2079   5.755   2.768   2.721 -0.0446  0.3664 -0.0334
  757MOL0     C 2080   5.680   2.674   2.801  0.1662 -0.2223 -1.7920
  757MOL0     C 2081   5.662   2.540   2.730  0.1792 -0.3411 -0.0069
  757MOL0     C 2082   5.573   2.451   2.808 -0.1631  0.0124 -0.8470
  757MOL0     C 2083   5.542   2.316   2.737  0.1718 -0.5861  0.3550
  757MOL0     O 2084   5.463   2.323   2.624 -0.0267 -0.4980 -0.0849
  757MOL0     C 2085   5.348   2.398   2.639 -0.1182 -0.3215  0.3341
  757MOL0     C 2086   5.339   2.496   2.538  0.6244  0.2696  0.3763
  757MOL0     C 2087   5.226   2.572   2.519 -0.8932  0.2658 -0.3457
  757MOL0     C 2088   5.221   2.659   2.392  0.8863  0.1847 -0.2778
  757MOL0     C 2089   5.122   2.558   2.610  0.1200  0.2907  0.7671
  757MOL0     C 2090   4.985   2.616   2.588 -0.4507  0.4804  0.3588
  757MOL0     O 2091   4.949   2.669   2.466  0.4006 -0.5334 -0.1254
  757MOL0     C 2092   4.818   2.682   2.428  0.0820  0.3376  0.1470
  757MOL0     C 2093   4.720   2.583   2.465  0.1410  0.0373  0.0865
  757MOL0     C 2094   4.592   2.594   2.418 -1.0755 -0.2353  0.1935
  757MOL0     C 2095   4.557   2.693   2.327 -0.2241 -0.7390 -0.0586
  757MOL0     O 2096   4.439   2.672   2.269  0.6372 -0.2470 -0.2965
  757MOL0     C 2097   4.437   2.671   2.126 -0.1035  0.4911 -0.3655
  757MOL0     C 2098   4.291   2.665   2.074 -0.0017 -0.6912 -0.1258
  757MOL0     C 2099   4.283   2.602   1.936 -0.4944 -0.0226 -0.7826
  757MOL0     C 2100   4.144   2.588   1.883  0.0943 -0.2813 -0.1572
  757MOL0     C 2101   4.167   2.557   1.727 -0.1712  1.4713  0.0221
  757MOL0     C 2102   4.205   2.681   1.648 -0.2017 -0.5981  0.8612
  757MOL0     C 2103   4.088   2.780   1.628  1.0527 -0.4969  0.0165
  757MOL0     C 2104   4.126   2.928   1.656  0.4424 -0.9911 -0.1948
  757MOL0    Cl 2105   4.271   2.982   1.564 -0.1597 -0.4136  0.2069
  757MOL0     C 2106   4.652   2.784   2.278  0.0206 -0.6474  0.6317
  757MOL0     C 2107   4.782   2.777   2.333 -0.0934 -0.1943  0.0130
  757MOL0     O 2108   4.913   2.605   2.681  1.0223 -0.6943 -0.1445
  757MOL0     C 2109   5.140   2.466   2.715  0.0781 -1.5043 -0.0343
  757MOL0     C 2110   5.248   2.379   2.727 -1.0924 -0.2627 -0.7228
  757MOL0     N 2111   5.837   2.755   2.611  0.7235 -0.4631 -0.4250
  757MOL0     N 2112   5.852   2.869   2.553 -0.2509  0.2182 -0.3974
  757MOL0     C 2113   6.974   3.314   2.952 -1.0366 -0.3854  0.8550
  757MOL0     C 2114   7.110   3.353   2.945 -0.3575 -0.5094  0.2107
  757MOL0     C 2115   7.540   3.364   2.874  0.1031 -0.2630  0.1031
  757MOL0     C 2116   7.643   3.324   2.962 -0.0811  0.2042  0.1532
  757MOL0     C 2117   7.769   3.361   2.924  0.6439 -1.0291 -0.0662
  757MOL0     C 2118   7.796   3.430   2.805 -0.6672  0.1957  0.5825
  757MOL0     O 2119   7.921   3.481   2.789 -0.4292  0.0214  0.6391
  757MOL0     C 2120   7.997   3.418   2.690 -0.5180  0.0892  0.6080
  757MOL0     C 2121   8.147   3.409   2.725  0.4355  0.2626 -0.2253
  757MOL0     C 2122   8.193   3.495   2.832 -0.2209 -0.2293 -0.3761
  757MOL0     C 2123   8.337   3.498   2.869 -0.0616 -0.9171  0.2237
  757MOL0     C 2124   8.410   3.373   2.854  0.9349  0.1795 -0.0685
  757MOL0     C 2125   8.443   3.263   2.835 -0.3582  0.8251  1.6648
  757MOL0     C 2126   7.698   3.469   2.723  0.6367  0.1858 -0.0198
  757MOL0     C 2127   7.570   3.431   2.755  1.0710 -0.3251 -0.6026
  757MOL0     H 2128   7.156   3.266   2.615  3.5020  1.2934  2.7901
  757MOL0     H 2129   6.904   3.242   2.623  0.9722  1.6378 -1.4817
  757MOL0     H 2130   6.683   3.382   2.723  1.0686 -0.4277  0.1659
  757MOL0     H 2131   6.707   3.237   2.653  0.9426  0.0348 -0.5129
  757MOL0     H 2132   6.525   3.118   2.821 -0.7533  0.1594 -0.6305
  757MOL0     H 2133   6.497   3.280   2.877  0.5274  0.2103  0.6970
  757MOL0     H 2134   6.424   3.362   2.674  3.2028 -0.0310 -0.6293
  757MOL0     H 2135   6.469   3.214   2.584 -1.3490  0.5670 -1.8144
  757MOL0     H 2136   6.288   3.107   2.759 -0.1014 -0.0503 -1.2748
  757MOL0     H 2137   6.246   3.264   2.799 -0.4224 -1.0802  0.2704
  757MOL0     H 2138   6.172   3.326   2.591  1.3584  0.1997 -0.8651
  757MOL0     H 2139   6.212   3.168   2.519  0.4687  3.2650 -2.1763
  757MOL0     H 2140   6.084   3.042   2.673  0.0657  0.6558 -2.0602
  757MOL0     H 2141   6.027   3.185   2.762 -0.7523  1.6535 -0.1634
  757MOL0     H 2142   5.936   3.261   2.528 -2.0407  0.0946 -3.2313
  757MOL0     H 2143   5.960   3.089   2.478  0.4565 -0.4608  1.6962
  757MOL0     H 2144   5.718   3.141   2.543 -1.3818  1.2277  1.2563
  757MOL0     H 2145   5.772   3.174   2.703 -1.4849 -0.6917 -0.2149
  757MOL0     H 2146   5.704   2.954   2.831  0.3662  2.8190 -1.3002
  757MOL0     H 2147   5.735   2.672   2.895 -1.2868  1.2417 -0.8462
  757MOL0     H 2148   5.586   2.727   2.823  0.0373 -1.8297  2.5422
  757MOL0     H 2149   5.761   2.498   2.712  0.8826  2.4210 -4.0138
  757MOL0     H 2150   5.617   2.563   2.633 -1.8191 -0.9943  0.7103
  757MOL0     H 2151   5.486   2.504   2.846 -2.6430 -2.8188 -2.1503
  757MOL0     H 2152   5.627   2.420   2.898 -3.2726 -4.3389 -0.1306
  757MOL0     H 2153   5.476   2.254   2.799 -0.6973 -0.2224 -0.1757
  757MOL0     H 2154   5.632   2.259   2.715  0.6358 -0.5953  2.1514
  757MOL0     H 2155   5.428   2.506   2.476  2.6886 -1.8947  2.7156
  757MOL0     H 2156   5.200   2.764   2.413 -1.3583 -0.5439  1.5364
  757MOL0     H 2157   5.313   2.643   2.336  0.6732 -0.0653 -0.5567
  757MOL0     H 2158   5.142   2.638   2.320  1.0371  1.4598 -0.8293
  757MOL0     H 2159   4.745   2.493   2.521  1.6634 -1.0490 -2.1561
  757MOL0     H 2160   4.522   2.514   2.442 -0.2114 -1.1236 -0.1761
  757MOL0     H 2161   4.493   2.753   2.082 -1.1517 -0.3033 -3.4451
  757MOL0     H 2162   4.489   2.578   2.099 -1.7584 -0.0280 -1.9473
  757MOL0     H 2163   4.222   2.617   2.143 -1.2812  1.3412  0.0935
  757MOL0     H 2164   4.261   2.770   2.065 -1.5021 -0.8855  1.9904
  757MOL0     H 2165   4.319   2.499   1.932 -0.6747 -0.0980 -0.5174
  757MOL0     H 2166   4.344   2.667   1.873 -2.5331  2.3582 -0.4701
  757MOL0     H 2167   4.094   2.515   1.947 -2.5741  0.4659 -1.2773
  757MOL0     H 2168   4.089   2.680   1.902 -1.2903 -0.9595 -0.7312
  757MOL0     H 2169   4.075   2.513   1.687  1.5540  0.5908 -3.2956
  757MOL0     H 2170   4.248   2.485   1.712 -2.4628 -0.9282 -1.9428
  757MOL0     H 2171   4.279   2.746   1.696 -2.4548  2.4535  0.4890
  757MOL0     H 2172   4.249   2.659   1.550  1.3390  0.9095  1.1751
  757MOL0     H 2173   3.999   2.745   1.682 -0.7080 -0.8559 -2.8891
  757MOL0     H 2174   4.058   2.775   1.523  1.4215 -0.2696 -0.1024
  757MOL0     H 2175   4.143   2.933   1.764 -0.2026  3.3547 -0.1089
  757MOL0     H 2176   4.034   2.981   1.627 -0.6181 -2.0463  1.0968
  757MOL0     H 2177   4.617   2.861   2.210  2.2595  1.5995  1.8655
  757MOL0     H 2178   4.860   2.844   2.300 -0.1025  0.2712  0.9212
  757MOL0     H 2179   5.058   2.446   2.783 -0.0403  0.8937  0.6267
  757MOL0     H 2180   5.250   2.306   2.807 -1.3947 -0.5883 -1.0130
  757MOL0     H 2181   6.928   3.308   3.050 -0.4185 -3.1394  1.0410
  757MOL0     H 2182   7.165   3.374   3.036  0.4307  0.5169 -0.4749
  757MOL0     H 2183   7.640   3.257   3.048 -0.9250 -0.5873 -0.4787
  757MOL0     H 2184   7.855   3.341   2.987  0.5111  0.7790  0.7247
  757MOL0     H 2185   7.967   3.316   2.666 -1.2373  0.3320  0.4314
  757MOL0     H 2186   7.981   3.479   2.600 -2.8106 -2.4766 -0.8811
  757MOL0     H 2187   8.201   3.444   2.636 -0.3996  1.8044 -0.1666
  757MOL0     H 2188   8.176   3.304   2.736  0.6754  0.2889 -0.5945
  757MOL0     H 2189   8.139   3.456   2.919  1.2397  0.6602  0.9776
  757MOL0     H 2190   8.164   3.597   2.807  0.6099  0.3175  0.8304
  757MOL0     H 2191   8.342   3.529   2.974  0.1488  1.5129 -0.4428
  757MOL0     H 2192   8.386   3.580   2.815  0.8932 -2.1397 -0.8080
  757MOL0     H 2193   8.455   3.157   2.824 -3.5955  0.6024 -2.5739
  757MOL0     H 2194   7.719   3.524   2.632  2.8268  1.5705  1.2216
  757MOL0     H 2195   7.493   3.471   2.689 -0.5443  1.3092  2.0705
  758MOL0     O 2196  11.072  10.974   3.404  0.9040  0.3945 -0.1619
  758MOL0     C 2197  11.117  11.066   3.473 -0.1757  0.3421 -1.1193
  758MOL0     O 2198  11.233  11.128   3.454  0.9893 -0.4144 -0.2866
  758MOL0     C 2199  11.330  11.068   3.380  0.3005 -0.0803  0.2632
  758MOL0     C 2200  11.455  11.075   3.441 -0.3710  0.1812  0.0097
  758MOL0     C 2201  11.570  11.031   3.374  0.3918 -0.1597  0.0639
  758MOL0     C 2202  11.560  10.997   3.248  0.0139 -0.1235  0.0053
  758MOL0     O 2203  11.659  10.936   3.172  0.4127 -0.5031  0.3401
  758MOL0     C 2204  11.774  10.887   3.242  0.1455  0.3821 -0.1974
  758MOL0     C 2205  11.742  10.741   3.304  0.1948  0.2761  0.1287
  758MOL0     C 2206  11.865  10.689   3.379  0.2678 -1.2259  0.3734
  758MOL0     C 2207  11.849  10.533   3.416  0.4519  0.2389 -0.1211
  758MOL0     C 2208  11.925  10.492   3.540 -0.2248 -0.0697  0.7694
  758MOL0     C 2209  11.895  10.345   3.581  0.0210  0.6719 -0.4229
  758MOL0     C 2210  11.958  10.318   3.717  0.4520 -1.0315  0.6668
  758MOL0     C 2211  11.946  10.173   3.748  0.4640 -0.0771 -0.0089
  758MOL0     N 2212  12.034  10.091   3.662  0.5526  0.5285  0.2032
  758MOL0     C 2213  12.174  10.094   3.664  0.5629 -0.0117  0.4367
  758MOL0     C 2214  12.205   9.986   3.587  1.4074 -1.1071  0.3548
  758MOL0     C 2215  12.338   9.950   3.539  0.3456  0.2970 -1.5223
  758MOL0     C 2216  12.420   9.866   3.642 -0.0773  0.4964 -0.6530
  758MOL0     C 2217  12.570   9.863   3.612  0.4500  0.4786  1.1930
  758MOL0     C 2218  12.609   9.775   3.493 -0.3731  0.4154 -0.3583
  758MOL0     O 2219  12.569   9.645   3.537 -0.4646  0.5985  0.0946
  758MOL0     C 2220  12.658   9.542   3.553  1.1896  0.2689  0.6775
  758MOL0     C 2221  12.596   9.438   3.624 -0.1907  0.6317 -0.3506
  758MOL0     C 2222  12.666   9.328   3.654  1.5013  0.3864 -0.4415
  758MOL0     C 2223  12.585   9.227   3.737 -0.8545 -0.7660  0.0481
  758MOL0     C 2224  12.806   9.316   3.612  0.4093  0.5259  0.3845
  758MOL0     C 2225  12.892   9.192   3.627  0.4439  0.0351  0.3010
  758MOL0     O 2226  12.889   9.118   3.742  0.5140  0.9631  0.0827
  758MOL0     C 2227  12.958   9.006   3.757  0.8084  0.2617  0.7378
  758MOL0     C 2228  12.922   8.943   3.882  0.4100  0.5205  0.1695
  758MOL0     C 2229  12.987   8.820   3.917  0.6168  0.1487  0.1548
  758MOL0     C 2230  13.096   8.769   3.848  0.4910  0.7977  0.5048
  758MOL0     O 2231  13.172   8.651   3.873  0.1778 -0.1660  0.0269
  758MOL0     C 2232  13.149   8.591   4.006  0.0705  0.5884  0.1294
  758MOL0     C 2233  13.241   8.477   4.015  0.2868 -1.1133 -0.3513
  758MOL0     C 2234  13.387   8.511   4.026 -0.9025 -0.4292 -0.8224
  758MOL0     C 2235  13.466   8.378   4.061  1.3941 -0.0158 -0.3604
  758MOL0     C 2236  13.523   8.313   3.928 -0.8955 -0.0056 -0.3301
  758MOL0     C 2237  13.639   8.213   3.968  0.2457  0.0198 -0.3126
  758MOL0     C 2238  13.700   8.138   3.845  0.2447 -0.1127 -0.4338
  758MOL0     C 2239  13.826   8.067   3.895 -0.4337 -0.4314 -0.0492
  758MOL0    Cl 2240  13.890   7.962   3.756 -0.7969 -0.1254  0.0278
  758MOL0     C 2241  13.130   8.840   3.726  0.3846  0.5135  0.7402
  758MOL0     C 2242  13.070   8.956   3.685  0.5813  1.0697  0.4900
  758MOL0     O 2243  12.954   9.162   3.523  0.2490 -0.4494  0.5043
  758MOL0     C 2244  12.873   9.422   3.545 -0.1871 -0.6075 -0.0437
  758MOL0     C 2245  12.797   9.537   3.522 -0.5570  1.2670  0.4272
  758MOL0     N 2246  12.087   9.924   3.542  0.1265  1.3351  0.3572
  758MOL0     N 2247  11.985   9.994   3.576  0.8791  0.5585  0.3000
  758MOL0     C 2248  11.431  10.984   3.190  0.1710  0.4320 -0.2009
  758MOL0     C 2249  11.321  11.024   3.252  0.2216 -0.1111  0.1920
  758MOL0     C 2250  11.029  11.109   3.582 -0.2330 -0.0256  0.0870
  758MOL0     C 2251  11.032  11.234   3.642 -1.4387  0.4740 -0.0202
  758MOL0     C 2252  10.966  11.247   3.761  0.6040 -0.2404  0.7974
  758MOL0     C 2253  10.884  11.156   3.815  0.0059  0.4634 -0.1375
  758MOL0     O 2254  10.829  11.188   3.931  0.4209  0.8391 -0.0167
  758MOL0     C 2255  10.721  11.110   3.986  0.1662  0.2838 -0.2361
  758MOL0     C 2256  10.621  11.197   4.076  0.2619  0.7498 -0.4014
  758MOL0     C 2257  10.625  11.346   4.040  0.0377  0.1004 -0.4154
  758MOL0     C 2258  10.503  11.426   4.102 -0.2794  0.1976 -0.5737
  758MOL0     C 2259  10.518  11.572   4.099 -0.1137 -0.3397  0.3032
  758MOL0     C 2260  10.533  11.691   4.113  0.9264  0.0149 -0.0696
  758MOL0     C 2261  10.859  11.044   3.742  0.0192 -0.0004  0.0225
  758MOL0     C 2262  10.937  11.018   3.636  0.7568  0.5169  0.0153
  758MOL0     H 2263  11.452  11.122   3.539 -0.6249 -0.8363  0.5103
  758MOL0     H 2264  11.668  11.030   3.422  1.2427 -0.7115 -1.5901
  758MOL0     H 2265  11.847  10.869   3.162 -0.1523  0.3632 -0.4677
  758MOL0     H 2266  11.817  10.950   3.319  1.0570 -1.4799  0.8767
  758MOL0     H 2267  11.664  10.751   3.380  1.2510  0.9617  1.1593
  758MOL0     H 2268  11.705  10.683   3.219 -2.6455  2.9791 -0.6648
  758MOL0     H 2269  11.949  10.689   3.309  0.0798 -2.0494  0.1276
  758MOL0     H 2270  11.894  10.762   3.455 -1.4966  1.3196 -1.2217
  758MOL0     H 2271  11.745  10.501   3.429 -0.3035  2.8004  0.7192
  758MOL0     H 2272  11.898  10.476   3.337  2.4081 -1.4354  2.1418
  758MOL0     H 2273  12.033  10.501   3.521  0.1970 -1.1208  2.4315
  758MOL0     H 2274  11.914  10.548   3.633  0.6683 -1.5120  1.7926
  758MOL0     H 2275  11.786  10.341   3.582 -0.0682  1.4639  2.3222
  758MOL0     H 2276  11.914  10.269   3.505 -0.0849  1.2685 -1.0592
  758MOL0     H 2277  12.065  10.342   3.714 -0.2695  2.7372  1.0145
  758MOL0     H 2278  11.896  10.379   3.783 -1.4088 -1.8553 -0.2384
  758MOL0     H 2279  11.842  10.142   3.734  0.8390 -0.7684 -1.3504
  758MOL0     H 2280  11.968  10.142   3.851  0.3158 -1.1681 -0.2943
  758MOL0     H 2281  12.229  10.173   3.714 -0.1348  2.8350 -2.9074
  758MOL0     H 2282  12.323   9.876   3.460  1.5119 -0.5809 -0.9526
  758MOL0     H 2283  12.381  10.045   3.507 -1.1513  2.1434  1.5014
  758MOL0     H 2284  12.383   9.763   3.653 -0.8382  0.8371  0.1410
  758MOL0     H 2285  12.412   9.914   3.740 -1.5875 -0.1324 -0.4397
  758MOL0     H 2286  12.626   9.830   3.701 -0.4716  2.6170  2.6417
  758MOL0     H 2287  12.618   9.959   3.594  0.3272  0.7405  2.2027
  758MOL0     H 2288  12.715   9.778   3.470  0.0822 -2.2138  1.0105
  758MOL0     H 2289  12.554   9.794   3.401 -0.7267 -0.2728 -0.3019
  758MOL0     H 2290  12.491   9.444   3.649  0.2097  3.7114  1.0995
  758MOL0     H 2291  12.657   9.204   3.816 -1.4107  2.6337  1.7003
  758MOL0     H 2292  12.502   9.281   3.782  1.7591  2.7872  1.0850
  758MOL0     H 2293  12.567   9.140   3.673  0.4268 -0.9081 -0.1461
  758MOL0     H 2294  12.837   8.971   3.943  0.0306 -2.2501  1.0523
  758MOL0     H 2295  12.965   8.763   4.006  2.6241 -1.4419 -0.3061
  758MOL0     H 2296  13.164   8.658   4.091 -0.7262  0.3953  0.4326
  758MOL0     H 2297  13.049   8.548   4.003 -0.6492  1.9529  2.2923
  758MOL0     H 2298  13.219   8.429   4.111  1.9785  2.7280  2.1986
  758MOL0     H 2299  13.221   8.405   3.935 -1.9119 -1.2876  0.2890
  758MOL0     H 2300  13.410   8.578   4.108 -0.7074 -1.8547  0.3261
  758MOL0     H 2301  13.432   8.557   3.937 -2.2222 -0.5539 -1.5912
  758MOL0     H 2302  13.547   8.410   4.128  0.7728  2.9303 -0.8864
  758MOL0     H 2303  13.411   8.304   4.120  1.4469  0.5544  0.4247
  758MOL0     H 2304  13.567   8.394   3.868  1.1394 -0.5699  0.3343
  758MOL0     H 2305  13.437   8.264   3.881 -0.7726 -1.9519  1.3597
  758MOL0     H 2306  13.715   8.283   4.003 -0.0268 -0.1540  0.6426
  758MOL0     H 2307  13.612   8.145   4.049  0.0430 -2.5968 -2.4239
  758MOL0     H 2308  13.718   8.200   3.757  1.9166  0.6889  0.4255
  758MOL0     H 2309  13.634   8.056   3.817 -1.7385  1.6522 -1.1758
  758MOL0     H 2310  13.795   8.011   3.984  0.4349  1.2705  1.3837
  758MOL0     H 2311  13.896   8.146   3.923  0.7860 -1.0697 -1.1968
  758MOL0     H 2312  13.212   8.800   3.666 -0.1535 -1.1294  1.0258
  758MOL0     H 2313  13.112   9.004   3.597  1.3679  1.9526  1.3256
  758MOL0     H 2314  12.980   9.439   3.538  0.0375 -0.2961  2.8488
  758MOL0     H 2315  12.851   9.627   3.496  1.7486  0.5695  2.3922
  758MOL0     H 2316  11.422  10.952   3.086 -0.9200 -2.8064  0.7674
  758MOL0     H 2317  11.227  11.015   3.198  0.2440 -1.8279  0.3938
  758MOL0     H 2318  11.088  11.320   3.607 -1.6467  0.3240 -0.7243
  758MOL0     H 2319  10.981  11.331   3.828  1.0244  1.2136 -1.0146
  758MOL0     H 2320  10.668  11.075   3.897  1.2080  0.6790 -1.0293
  758MOL0     H 2321  10.756  11.021   4.040  1.6374 -0.3946 -2.1654
  758MOL0     H 2322  10.658  11.169   4.175  4.7672  0.1733 -1.9812
  758MOL0     H 2323  10.522  11.156   4.057  1.0095 -0.4739 -1.8697
  758MOL0     H 2324  10.635  11.348   3.931  0.3017 -0.5745 -0.4092
  758MOL0     H 2325  10.717  11.382   4.087 -0.1953  1.3125 -0.8338
  758MOL0     H 2326  10.497  11.394   4.206  1.5318  0.0586 -0.4880
  758MOL0     H 2327  10.412  11.423   4.040 -1.6341  3.9230  0.9073
  758MOL0     H 2328  10.524  11.797   4.112 -3.7326 -0.1590  1.0979
  758MOL0     H 2329  10.795  10.964   3.775 -1.3833  0.3666 -1.6739
  758MOL0     H 2330  10.915  10.918   3.601 -2.2589  1.2787 -0.6389
  759MOL0     O 2331  10.697   3.040   6.352  0.5800 -0.1872 -0.0047
  759MOL0     C 2332  10.751   2.961   6.278  0.1416 -0.3724  0.0945
  759MOL0     O 2333  10.681   2.867   6.204 -0.5432  0.0053 -0.9893
  759MOL0     C 2334  10.554   2.828   6.223 -0.8177  0.3628  0.7548
  759MOL0     C 2335  10.462   2.856   6.326  0.4336  0.1427  0.0800
  759MOL0     C 2336  10.319   2.820   6.315 -0.4439  1.0164  0.0546
  759MOL0     C 2337  10.277   2.760   6.199  0.2131 -0.0765 -0.9558
  759MOL0     O 2338  10.152   2.705   6.183 -0.0646 -0.1849 -0.3408
  759MOL0     C 2339  10.050   2.804   6.184  0.4456 -0.2844 -0.6517
  759MOL0     C 2340   9.934   2.707   6.142  0.2620 -0.4300  0.0166
  759MOL0     C 2341   9.866   2.632   6.257 -0.8988 -0.5282 -0.8660
  759MOL0     C 2342   9.827   2.727   6.366  0.1311 -0.1844 -0.9249
  759MOL0     C 2343   9.746   2.667   6.485 -0.0003  0.2737  0.1205
  759MOL0     C 2344   9.654   2.764   6.555 -0.1539  0.5278  0.1523
  759MOL0     C 2345   9.596   2.686   6.677 -0.7096 -0.1905  0.4173
  759MOL0     C 2346   9.485   2.769   6.751 -0.1887 -0.0382 -0.6865
  759MOL0     N 2347   9.535   2.908   6.774  0.0427 -0.5286 -0.1193
  759MOL0     C 2348   9.638   2.935   6.861 -0.2026 -0.4570  0.4124
  759MOL0     C 2349   9.664   3.063   6.857 -0.6916  0.7537 -0.1520
  759MOL0     C 2350   9.759   3.135   6.957  0.3408  0.2314 -0.5281
  759MOL0     C 2351   9.827   3.263   6.898  0.1196  0.4241 -1.0951
  759MOL0     C 2352   9.901   3.345   7.009  0.2401 -1.5027  0.1185
  759MOL0     C 2353   9.939   3.487   6.955  1.1132 -0.1349  0.6728
  759MOL0     O 2354  10.054   3.486   6.878 -1.0365  0.4013  0.5267
  759MOL0     C 2355  10.181   3.491   6.938 -0.1562  0.1995  0.7680
  759MOL0     C 2356  10.208   3.505   7.076  0.0537 -0.1431  0.5068
  759MOL0     C 2357  10.341   3.533   7.124  1.4571 -0.5067  0.7459
  759MOL0     C 2358  10.355   3.568   7.265 -0.4656 -0.1974 -0.0103
  759MOL0     C 2359  10.447   3.525   7.029  0.5948  0.5424 -0.6803
  759MOL0     C 2360  10.589   3.544   7.074 -0.0090 -0.1424  0.2162
  759MOL0     O 2361  10.681   3.558   6.972  0.5466 -0.7247 -0.1961
  759MOL0     C 2362  10.812   3.524   6.997 -0.5560 -1.1480  0.4894
  759MOL0     C 2363  10.901   3.622   6.950 -0.5207 -0.6000  0.0836
  759MOL0     C 2364  11.039   3.603   6.975 -0.2785  0.4568 -0.1123
  759MOL0     C 2365  11.079   3.481   7.040  0.0475  0.4055 -0.3431
  759MOL0     O 2366  11.208   3.453   7.078  0.1472  0.7394  0.3874
  759MOL0     C 2367  11.256   3.500   7.209 -0.1371 -0.0748 -0.2123
  759MOL0     C 2368  11.232   3.398   7.318 -0.3518 -0.2952  0.1786
  759MOL0     C 2369  11.276   3.261   7.269 -0.4143 -0.6400 -0.3388
  759MOL0     C 2370  11.427   3.242   7.222 -0.4575  0.1244  0.0101
  759MOL0     C 2371  11.521   3.249   7.329 -0.4188  0.0437 -0.0381
  759MOL0     C 2372  11.658   3.188   7.283 -0.6855 -0.9886 -0.3961
  759MOL0     C 2373  11.749   3.210   7.405 -0.0293 -0.0926  0.2326
  759MOL0     C 2374  11.889   3.147   7.370  0.5294 -0.2281 -0.3414
  759MOL0    Cl 2375  11.999   3.148   7.520 -0.0335 -0.4567 -0.0240
  759MOL0     C 2376  10.985   3.387   7.079  0.1707 -0.0242  0.1999
  759MOL0     C 2377  10.854   3.411   7.057  0.2657 -0.6312 -0.4961
  759MOL0     O 2378  10.620   3.553   7.192  0.4177 -0.2170  0.3583
  759MOL0     C 2379  10.417   3.496   6.898 -0.3105 -0.2730 -0.3193
  759MOL0     C 2380  10.287   3.475   6.852 -0.2502 -0.6406  0.1327
  759MOL0     N 2381   9.572   3.114   6.761  0.2829  0.0853 -0.9602
  759MOL0     N 2382   9.489   3.028   6.723 -0.2177  0.2678  0.8391
  759MOL0     C 2383  10.368   2.731   6.097 -0.4244  0.4082  0.1090
  759MOL0     C 2384  10.502   2.754   6.108  0.0462 -0.5491 -0.3490
  759MOL0     C 2385  10.894   2.951   6.286  0.7648  0.1572 -0.7913
  759MOL0     C 2386  10.962   2.985   6.409 -0.2290 -0.3172  0.5028
  759MOL0     C 2387  11.106   2.974   6.423  0.6879 -0.6149  0.1585
  759MOL0     C 2388  11.183   2.915   6.324  0.4743  0.1675  0.4053
  759MOL0     O 2389  11.319   2.906   6.324 -0.4137 -0.5804 -0.6077
  759MOL0     C 2390  11.391   2.930   6.443  0.7926 -0.2853 -0.0938
  759MOL0     C 2391  11.533   2.880   6.417  0.3923 -0.4208 -0.2056
  759MOL0     C 2392  11.605   2.955   6.305  0.3619 -0.4799 -0.9973
  759MOL0     C 2393  11.750   2.926   6.316 -0.1105  0.6943 -0.1657
  759MOL0     C 2394  11.826   2.956   6.194  0.0821 -0.2718 -0.1422
  759MOL0     C 2395  11.875   2.990   6.092 -0.3261  0.0622 -0.2674
  759MOL0     C 2396  11.121   2.860   6.213 -0.7706  0.3049 -0.8325
  759MOL0     C 2397  10.979   2.872   6.197 -0.9778  0.0874 -0.8570
  759MOL0     H 2398  10.500   2.917   6.408 -0.0682  2.9805 -1.6696
  759MOL0     H 2399  10.248   2.840   6.394 -2.2386 -1.2552 -0.8885
  759MOL0     H 2400  10.043   2.849   6.284 -1.2571 -0.2799 -0.7358
  759MOL0     H 2401  10.063   2.881   6.108 -0.5943 -0.0866 -0.6398
  759MOL0     H 2402   9.859   2.770   6.093  1.6252  1.8597  0.7293
  759MOL0     H 2403   9.962   2.634   6.067 -4.4487  0.7453 -3.3818
  759MOL0     H 2404   9.785   2.575   6.210 -1.4408  0.7919 -1.5876
  759MOL0     H 2405   9.939   2.568   6.308 -1.3666  0.7898  1.5955
  759MOL0     H 2406   9.923   2.755   6.410 -0.5521 -0.4209  0.8216
  759MOL0     H 2407   9.775   2.814   6.324  1.4627  1.4719  0.6979
  759MOL0     H 2408   9.681   2.587   6.448 -0.7372 -0.1690  2.2666
  759MOL0     H 2409   9.816   2.611   6.546 -0.9429 -0.4647  0.5472
  759MOL0     H 2410   9.715   2.847   6.593 -0.2495  0.9629 -0.6314
  759MOL0     H 2411   9.567   2.801   6.500 -0.4393 -0.8737 -0.3833
  759MOL0     H 2412   9.554   2.589   6.651  2.8869 -2.2962  1.7772
  759MOL0     H 2413   9.674   2.671   6.752 -0.5782  0.9387  0.5239
  759MOL0     H 2414   9.451   2.719   6.842 -4.6583 -4.8110 -4.3935
  759MOL0     H 2415   9.403   2.766   6.679 -1.1801  2.6112  0.2104
  759MOL0     H 2416   9.673   2.860   6.931 -2.4041 -3.2633 -1.2436
  759MOL0     H 2417   9.687   3.160   7.036 -1.2205  1.2083 -2.1858
  759MOL0     H 2418   9.833   3.064   6.996  0.5278  0.8031  0.1734
  759MOL0     H 2419   9.755   3.335   6.858 -0.6750  0.4066  0.2184
  759MOL0     H 2420   9.894   3.230   6.819  1.0287  0.2428 -0.2644
  759MOL0     H 2421   9.995   3.292   7.028 -0.3413 -3.4666 -1.9070
  759MOL0     H 2422   9.838   3.363   7.097 -0.1999  2.5034 -0.8343
  759MOL0     H 2423   9.940   3.560   7.037  1.0727 -1.4937  1.9134
  759MOL0     H 2424   9.860   3.525   6.890 -1.1867 -2.3338  2.0158
  759MOL0     H 2425  10.129   3.501   7.149  0.6953  0.9299  1.2928
  759MOL0     H 2426  10.258   3.589   7.311  1.6000  3.9576  3.1209
  759MOL0     H 2427  10.392   3.472   7.304 -0.9017 -1.3410 -2.2454
  759MOL0     H 2428  10.422   3.653   7.279 -2.1194  1.7576 -2.9211
  759MOL0     H 2429  10.864   3.710   6.898 -1.3788 -0.9538  0.0835
  759MOL0     H 2430  11.113   3.677   6.945  1.9681 -1.0934  1.2546
  759MOL0     H 2431  11.365   3.504   7.201 -0.1815 -1.0619 -2.2198
  759MOL0     H 2432  11.204   3.591   7.237  0.5280  1.4093 -3.3280
  759MOL0     H 2433  11.290   3.400   7.411  2.5414 -4.6203 -1.2164
  759MOL0     H 2434  11.124   3.392   7.336 -0.4701 -1.6740 -0.8398
  759MOL0     H 2435  11.212   3.226   7.188 -0.5559 -0.9712 -0.0835
  759MOL0     H 2436  11.259   3.183   7.344 -0.5203  0.0541  0.3665
  759MOL0     H 2437  11.423   3.140   7.183 -0.5257  0.7149 -1.5987
  759MOL0     H 2438  11.461   3.310   7.143 -1.5342  3.3427  2.1264
  759MOL0     H 2439  11.490   3.188   7.415  0.4139 -0.3806 -0.0358
  759MOL0     H 2440  11.533   3.354   7.358  1.5537  0.1294 -1.0083
  759MOL0     H 2441  11.652   3.080   7.267 -3.7166 -1.6135  3.3965
  759MOL0     H 2442  11.706   3.243   7.202 -0.7535  0.4494  0.5066
  759MOL0     H 2443  11.702   3.153   7.485 -0.1186 -2.5846 -1.4979
  759MOL0     H 2444  11.763   3.314   7.438 -0.6575  0.5502 -1.3957
  759MOL0     H 2445  11.935   3.208   7.292  3.0073 -1.1288  0.3070
  759MOL0     H 2446  11.887   3.040   7.346 -4.1348 -0.9521  2.0499
  759MOL0     H 2447  11.015   3.291   7.119  1.7916  1.1533  2.0203
  759MOL0     H 2448  10.786   3.334   7.092  0.0950  0.8785  2.8443
  759MOL0     H 2449  10.505   3.491   6.834 -0.4601 -0.1465 -0.5349
  759MOL0     H 2450  10.277   3.445   6.749 -0.1619  1.3392 -0.4900
  759MOL0     H 2451  10.325   2.680   6.012 -0.1623 -0.2515  0.3553
  759MOL0     H 2452  10.557   2.720   6.020 -0.5711 -0.2838 -0.8423
  759MOL0     H 2453  10.902   3.028   6.488 -1.1361 -0.3609 -0.1486
  759MOL0     H 2454  11.157   3.014   6.510  0.6175  2.5082 -1.1082
  759MOL0     H 2455  11.405   3.037   6.460 -0.0142 -0.1536 -0.2253
  759MOL0     H 2456  11.336   2.886   6.526  2.6149 -0.4175  1.0927
  759MOL0     H 2457  11.550   2.774   6.400  3.6127 -0.0598  0.1938
  759MOL0     H 2458  11.597   2.897   6.504 -0.2934 -2.3852  0.7631
  759MOL0     H 2459  11.588   3.063   6.310 -0.9501 -0.7425  2.2744
  759MOL0     H 2460  11.576   2.919   6.206 -1.9460  1.5600 -1.1437
  759MOL0     H 2461  11.757   2.817   6.329 -0.1883  0.5139 -1.4516
  759MOL0     H 2462  11.800   2.971   6.402 -0.0026 -1.0479  0.7341
  759MOL0     H 2463  11.923   3.012   5.999  0.3202  0.4609  0.1542
  759MOL0     H 2464  11.180   2.795   6.149 -1.7890 -3.4377  1.7423
  759MOL0     H 2465  10.926   2.830   6.112 -2.4876 -1.5504  0.8344
  760MOL0     O 2466   8.053   6.898   1.871  0.4269 -0.7319  0.2642
  760MOL0     C 2467   8.133   6.808   1.889  0.4219  0.0839  0.6947
  760MOL0     O 2468   8.141   6.735   2.003 -0.4402 -0.5728  0.2544
  760MOL0     C 2469   8.050   6.741   2.105  0.1798  0.1459  0.8601
  760MOL0     C 2470   8.008   6.618   2.165  1.0775  0.4171 -0.6383
  760MOL0     C 2471   7.893   6.617   2.251 -0.2541 -0.8118 -0.1257
  760MOL0     C 2472   7.833   6.738   2.276 -0.0174 -0.2621 -0.0419
  760MOL0     O 2473   7.737   6.745   2.364  0.3608  0.1401 -0.0153
  760MOL0     C 2474   7.625   6.648   2.352  0.7923  0.1396 -0.2474
  760MOL0     C 2475   7.493   6.714   2.381  0.8703  0.7822 -0.2801
  760MOL0     C 2476   7.384   6.618   2.437 -0.1335  0.7543  0.2743
  760MOL0     C 2477   7.256   6.712   2.455  0.1906  0.9421  0.2082
  760MOL0     C 2478   7.114   6.650   2.492  0.1515  0.3896  0.7291
  760MOL0     C 2479   7.011   6.766   2.479  1.4542  0.4904  0.3234
  760MOL0     C 2480   6.863   6.734   2.522  0.4084 -0.0272  0.0777
  760MOL0     C 2481   6.858   6.665   2.657  0.9929  0.5816  0.4513
  760MOL0     N 2482   6.713   6.665   2.698 -0.5636  0.0252  0.5670
  760MOL0     C 2483   6.619   6.559   2.679  0.3330  0.7360 -0.2965
  760MOL0     C 2484   6.505   6.605   2.751 -0.3348  0.4282 -1.5570
  760MOL0     C 2485   6.378   6.524   2.778 -0.5786  0.4947  0.2024
  760MOL0     C 2486   6.237   6.594   2.791  1.5408 -0.1397 -0.1443
  760MOL0     C 2487   6.123   6.501   2.817  0.4203 -0.0363  0.1567
  760MOL0     C 2488   6.003   6.569   2.862 -0.0215  0.7592  0.4645
  760MOL0     O 2489   5.968   6.660   2.752 -0.2192 -0.1979 -0.0743
  760MOL0     C 2490   5.854   6.642   2.694  0.4077  0.1377  0.1673
  760MOL0     C 2491   5.768   6.751   2.674 -0.0429 -0.5794 -0.4370
  760MOL0     C 2492   5.645   6.747   2.616  0.7200 -0.2888 -0.2206
  760MOL0     C 2493   5.559   6.876   2.596 -0.6467  0.2107 -0.3156
  760MOL0     C 2494   5.596   6.622   2.586  0.2137  0.4305  0.1475
  760MOL0     C 2495   5.459   6.600   2.533 -1.0232  0.7820  0.3176
  760MOL0     O 2496   5.398   6.496   2.596  0.3479 -0.3435 -0.4313
  760MOL0     C 2497   5.266   6.476   2.553 -0.9423  0.0781 -0.8037
  760MOL0     C 2498   5.159   6.570   2.572 -0.1465 -0.6774  0.2492
  760MOL0     C 2499   5.027   6.532   2.545 -0.4267 -0.0676  0.1657
  760MOL0     C 2500   4.998   6.412   2.489 -0.0058  0.2501  0.0588
  760MOL0     O 2501   4.863   6.401   2.460  0.6214 -0.1551  0.0210
  760MOL0     C 2502   4.822   6.270   2.426  0.2367  0.7042  0.1960
  760MOL0     C 2503   4.677   6.264   2.403  0.5301 -0.1948 -0.2966
  760MOL0     C 2504   4.590   6.291   2.526  0.0181  0.1532 -0.9958
  760MOL0     C 2505   4.473   6.195   2.521 -0.0806  0.0401  0.0468
  760MOL0     C 2506   4.380   6.237   2.405 -0.1940 -1.4516 -1.1685
  760MOL0     C 2507   4.266   6.142   2.379  0.5170 -0.5874  0.3178
  760MOL0     C 2508   4.140   6.164   2.464  0.4626 -0.1375 -0.3196
  760MOL0     C 2509   4.013   6.119   2.383 -0.2906 -0.1317 -0.4351
  760MOL0    Cl 2510   4.031   5.954   2.330 -0.4762  0.3745  0.8815
  760MOL0     C 2511   5.103   6.321   2.460  0.7494 -0.4108 -1.2422
  760MOL0     C 2512   5.239   6.355   2.495 -0.9966 -0.5565  0.4187
  760MOL0     O 2513   5.415   6.672   2.441 -0.4352  0.5755  0.0062
  760MOL0     C 2514   5.680   6.508   2.584 -0.7933  0.2873 -0.2065
  760MOL0     C 2515   5.803   6.519   2.646 -0.1039 -0.4411 -0.5284
  760MOL0     N 2516   6.548   6.718   2.825  0.3397  0.1340 -0.2594
  760MOL0     N 2517   6.662   6.755   2.791 -0.1364 -0.0918 -0.2239
  760MOL0     C 2518   7.876   6.855   2.219  0.6761 -0.3787  0.3267
  760MOL0     C 2519   7.980   6.864   2.131 -0.3718  0.2307 -0.3674
  760MOL0     C 2520   8.240   6.772   1.789  0.6111  0.6095 -0.1937
  760MOL0     C 2521   8.284   6.640   1.776 -0.3156 -0.0273 -0.2546
  760MOL0     C 2522   8.371   6.602   1.661 -0.2528  0.4221 -0.2312
  760MOL0     C 2523   8.421   6.705   1.583 -0.1272 -0.5138  0.0299
  760MOL0     O 2524   8.493   6.680   1.472 -0.2725 -0.3635  0.1858
  760MOL0     C 2525   8.577   6.568   1.449  0.0312  0.5318  0.0472
  760MOL0     C 2526   8.688   6.628   1.371  1.0759  0.0067 -0.4130
  760MOL0     C 2527   8.797   6.528   1.308  0.4589 -0.7874 -0.1122
  760MOL0     C 2528   8.914   6.605   1.249  0.3424 -0.4685 -0.0270
  760MOL0     C 2529   9.014   6.524   1.186  0.1759  0.5211 -0.5503
  760MOL0     C 2530   9.102   6.467   1.128 -0.2938 -0.6788 -0.6801
  760MOL0     C 2531   8.380   6.836   1.599 -0.2114 -0.1830  0.8025
  760MOL0     C 2532   8.292   6.875   1.705 -0.7678  0.4024  0.8149
  760MOL0     H 2533   8.058   6.522   2.155 -1.0260 -0.7116 -0.8615
  760MOL0     H 2534   7.872   6.527   2.307 -1.4287 -0.0024  0.7911
  760MOL0     H 2535   7.624   6.594   2.257 -1.1494 -2.2032  0.9957
  760MOL0     H 2536   7.652   6.586   2.438 -0.8296  1.5213  1.3436
  760MOL0     H 2537   7.503   6.790   2.458 -2.5687  1.3821 -0.2517
  760MOL0     H 2538   7.448   6.753   2.290  0.4094 -2.3910 -1.5643
  760MOL0     H 2539   7.357   6.536   2.371 -0.0002  0.4921  0.5428
  760MOL0     H 2540   7.416   6.571   2.531 -0.6033 -2.2172 -0.9688
  760MOL0     H 2541   7.279   6.793   2.525 -2.0222  0.8161  1.1662
  760MOL0     H 2542   7.235   6.760   2.359 -1.2010 -1.1891 -0.6283
  760MOL0     H 2543   7.089   6.565   2.429 -0.5783  0.0666  1.4469
  760MOL0     H 2544   7.117   6.612   2.595 -1.5874  0.5628  0.8614
  760MOL0     H 2545   7.037   6.845   2.550 -1.2996  0.2534  1.6986
  760MOL0     H 2546   7.007   6.805   2.377  2.2981 -1.4984 -0.5320
  760MOL0     H 2547   6.820   6.834   2.532 -1.6405 -1.0231  2.4047
  760MOL0     H 2548   6.806   6.678   2.448 -1.0840  1.9332 -0.3387
  760MOL0     H 2549   6.914   6.720   2.733  1.3349 -1.1422  1.5018
  760MOL0     H 2550   6.893   6.562   2.644 -0.7691 -0.0120  0.0873
  760MOL0     H 2551   6.616   6.472   2.614  0.8967 -0.1705  0.8579
  760MOL0     H 2552   6.376   6.459   2.690 -2.0263  2.6883 -1.5103
  760MOL0     H 2553   6.406   6.466   2.866  4.8254 -1.0281 -2.1257
  760MOL0     H 2554   6.217   6.646   2.697 -0.9789  1.2287  1.0578
  760MOL0     H 2555   6.238   6.663   2.875 -3.4597 -2.0922  1.9535
  760MOL0     H 2556   6.156   6.432   2.895  2.9212 -0.5300 -1.2473
  760MOL0     H 2557   6.101   6.443   2.727  2.1238  0.4059 -0.5787
  760MOL0     H 2558   6.027   6.615   2.958  2.5545 -0.3269  0.4166
  760MOL0     H 2559   5.926   6.492   2.872  2.2195 -1.5257  1.1637
  760MOL0     H 2560   5.816   6.845   2.699  1.8816 -0.9267 -2.5196
  760MOL0     H 2561   5.455   6.843   2.603  0.5886 -4.6333 -1.1714
  760MOL0     H 2562   5.585   6.957   2.665  0.2388  0.7957 -1.2943
  760MOL0     H 2563   5.574   6.907   2.492  1.1824  0.1691 -0.0939
  760MOL0     H 2564   5.184   6.672   2.596  0.1609 -0.7988  0.4506
  760MOL0     H 2565   4.942   6.598   2.557 -1.3455 -0.9256 -1.3510
  760MOL0     H 2566   4.876   6.245   2.334 -0.4996 -0.1813 -0.0069
  760MOL0     H 2567   4.836   6.202   2.510 -1.9757 -0.5922 -0.3933
  760MOL0     H 2568   4.650   6.339   2.328 -0.5689  0.3082  0.5787
  760MOL0     H 2569   4.656   6.166   2.358 -1.1911 -0.3712  0.8211
  760MOL0     H 2570   4.559   6.396   2.529 -0.3396  0.0676  2.3116
  760MOL0     H 2571   4.656   6.275   2.612  0.6869 -1.8328 -1.8483
  760MOL0     H 2572   4.513   6.095   2.502 -2.1602 -0.2373 -4.0639
  760MOL0     H 2573   4.420   6.202   2.616  0.4762  1.3209  0.2874
  760MOL0     H 2574   4.436   6.234   2.311  0.6785  0.8138 -0.7961
  760MOL0     H 2575   4.358   6.342   2.426  3.8562 -1.0320  2.5085
  760MOL0     H 2576   4.235   6.154   2.275  2.0241 -1.5560 -0.2837
  760MOL0     H 2577   4.297   6.039   2.397 -1.7909 -1.0736  1.8189
  760MOL0     H 2578   4.127   6.267   2.498 -2.0107 -0.3026 -0.6074
  760MOL0     H 2579   4.153   6.110   2.558 -1.2489 -0.1173 -0.0352
  760MOL0     H 2580   3.987   6.184   2.299 -3.0456 -3.9104 -2.8456
  760MOL0     H 2581   3.929   6.129   2.452 -1.2232 -0.2236 -1.5224
  760MOL0     H 2582   5.079   6.220   2.430 -0.2078 -0.3881 -0.5930
  760MOL0     H 2583   5.319   6.286   2.471 -0.8644 -0.2767  0.0412
  760MOL0     H 2584   5.648   6.416   2.537 -0.5831  0.2462 -0.2666
  760MOL0     H 2585   5.850   6.421   2.655  0.9698 -0.2498 -3.1651
  760MOL0     H 2586   7.833   6.945   2.260 -0.4217 -0.6820 -0.1217
  760MOL0     H 2587   7.988   6.957   2.077  0.1616 -0.6065 -1.7962
  760MOL0     H 2588   8.252   6.559   1.840 -0.0707  0.1922  0.1433
  760MOL0     H 2589   8.392   6.497   1.643 -2.6469 -0.4485  1.5661
  760MOL0     H 2590   8.617   6.540   1.547  0.9198 -2.7835 -1.1035
  760MOL0     H 2591   8.529   6.485   1.396 -2.2942 -0.4696  3.3587
  760MOL0     H 2592   8.741   6.693   1.441  0.8124  0.0706 -0.2724
  760MOL0     H 2593   8.634   6.690   1.299 -0.0786 -1.8429 -1.2017
  760MOL0     H 2594   8.738   6.476   1.233 -2.9900 -1.1563  2.6383
  760MOL0     H 2595   8.826   6.452   1.380 -4.9258 -3.5863 -0.4105
  760MOL0     H 2596   8.969   6.666   1.321  1.5869  2.7186 -3.3450
  760MOL0     H 2597   8.879   6.677   1.174  3.0183  0.3170 -0.6345
  760MOL0     H 2598   9.176   6.414   1.071 -2.1327 -3.2804 -0.8376
  760MOL0     H 2599   8.418   6.920   1.542  0.0382 -1.1196 -0.4531
  760MOL0     H 2600   8.266   6.980   1.714 -1.8819  0.3909 -1.4374
  761MOL0     O 2601  11.156   3.980   1.624  0.7447 -0.3015  0.8357
  761MOL0     C 2602  11.173   3.859   1.637  0.4112  0.4021  1.1189
  761MOL0     O 2603  11.301   3.795   1.639  0.7455 -0.4436  0.2816
  761MOL0     C 2604  11.416   3.876   1.638 -0.3150 -1.1392  0.3113
  761MOL0     C 2605  11.472   3.922   1.518 -0.8206 -0.1616 -0.1196
  761MOL0     C 2606  11.602   3.982   1.517  0.5777  0.4971  0.3363
  761MOL0     C 2607  11.671   3.997   1.642 -0.7316  0.8819  0.1507
  761MOL0     O 2608  11.795   4.050   1.649  0.0932  0.1605  0.0961
  761MOL0     C 2609  11.792   4.192   1.626 -1.0353 -0.2431 -0.2604
  761MOL0     C 2610  11.929   4.244   1.682  0.9213 -0.7327  0.8101
  761MOL0     C 2611  11.926   4.254   1.834 -0.8348 -0.9284  0.3500
  761MOL0     C 2612  12.066   4.312   1.880  0.6648 -0.6483  0.4290
  761MOL0     C 2613  12.048   4.386   2.015 -0.0271 -0.3125  0.0632
  761MOL0     C 2614  12.176   4.463   2.078  0.5382  0.0721 -0.1174
  761MOL0     C 2615  12.171   4.527   2.220  0.4537 -0.5754  0.1321
  761MOL0     C 2616  12.082   4.451   2.325  0.1967  0.7388  0.5827
  761MOL0     N 2617  12.070   4.521   2.455 -0.5797 -0.1793 -0.7368
  761MOL0     C 2618  12.009   4.640   2.452 -0.8640 -0.1863  0.0316
  761MOL0     C 2619  12.017   4.681   2.582 -0.9741 -0.9089 -0.7948
  761MOL0     C 2620  11.961   4.804   2.647  0.4228  0.2785 -0.1221
  761MOL0     C 2621  11.807   4.814   2.642  0.7266  0.2273  0.0783
  761MOL0     C 2622  11.755   4.944   2.705  0.2031  0.4448 -0.1583
  761MOL0     C 2623  11.602   4.951   2.690 -0.0812  0.0523 -0.1552
  761MOL0     O 2624  11.537   5.069   2.727  0.1542  0.2930  0.6066
  761MOL0     C 2625  11.403   5.087   2.699  0.0426 -0.4278  0.1394
  761MOL0     C 2626  11.356   5.219   2.706 -0.1400  0.6343  0.3519
  761MOL0     C 2627  11.219   5.249   2.689  0.0491 -0.6142  0.0405
  761MOL0     C 2628  11.178   5.391   2.723 -0.1104  0.1820 -0.8923
  761MOL0     C 2629  11.134   5.151   2.639  0.4579  0.1153  0.6399
  761MOL0     C 2630  10.981   5.165   2.616  0.0075  1.2004 -0.6146
  761MOL0     O 2631  10.936   5.273   2.560 -0.3780 -0.4390  0.0756
  761MOL0     C 2632  10.798   5.277   2.538 -0.8112  0.2553 -0.0491
  761MOL0     C 2633  10.750   5.252   2.412  1.2821  0.1622  1.0050
  761MOL0     C 2634  10.614   5.260   2.392  0.3909 -0.9208 -0.1219
  761MOL0     C 2635  10.527   5.284   2.499  0.3301 -0.2767 -0.3421
  761MOL0     O 2636  10.399   5.291   2.460  0.5121 -0.8199  0.3271
  761MOL0     C 2637  10.294   5.284   2.549 -0.2526 -0.0975  0.0262
  761MOL0     C 2638  10.156   5.300   2.479  0.2628  0.7152 -0.7737
  761MOL0     C 2639  10.046   5.277   2.591 -0.6012 -0.0134 -0.2775
  761MOL0     C 2640   9.905   5.313   2.557 -0.5901  0.1322 -0.2458
  761MOL0     C 2641   9.820   5.298   2.686 -0.5783  0.4818 -0.2368
  761MOL0     C 2642   9.676   5.352   2.678  0.8366 -0.2835 -0.0702
  761MOL0     C 2643   9.592   5.316   2.796  0.3801 -0.1100 -0.1648
  761MOL0     C 2644   9.467   5.409   2.797 -0.0988  0.9557 -0.2738
  761MOL0    Cl 2645   9.342   5.324   2.893 -0.3143  0.0732  0.5063
  761MOL0     C 2646  10.572   5.319   2.624  0.3769  0.1994 -0.2786
  761MOL0     C 2647  10.713   5.319   2.638  0.6559  0.3093  0.6917
  761MOL0     O 2648  10.905   5.073   2.660 -0.8659  0.2921  0.2726
  761MOL0     C 2649  11.184   5.020   2.644 -0.1357  0.1353 -0.0196
  761MOL0     C 2650  11.314   4.990   2.661 -0.6999  0.2926  0.6724
  761MOL0     N 2651  12.092   4.589   2.653  0.8724  0.0060 -0.0070
  761MOL0     N 2652  12.119   4.489   2.577 -0.3012  0.4189  0.5635
  761MOL0     C 2653  11.608   3.958   1.766  0.0534 -0.6568 -0.1529
  761MOL0     C 2654  11.484   3.891   1.761 -0.2368  0.7342  0.0602
  761MOL0     C 2655  11.049   3.782   1.660  0.3944  0.0834 -0.6654
  761MOL0     C 2656  11.054   3.641   1.678 -0.0312 -0.1273  0.5518
  761MOL0     C 2657  10.937   3.568   1.676 -0.5400 -0.7774  0.0811
  761MOL0     C 2658  10.813   3.625   1.687  0.6638 -0.1796  0.3874
  761MOL0     O 2659  10.704   3.541   1.697 -0.2084  0.1270  0.4968
  761MOL0     C 2660  10.574   3.590   1.740 -0.1858 -0.1156  0.3637
  761MOL0     C 2661  10.578   3.627   1.890  0.7497  0.8397 -0.3042
  761MOL0     C 2662  10.451   3.575   1.971 -0.3924 -0.3713 -0.6000
  761MOL0     C 2663  10.325   3.661   1.939  0.0742  0.2633 -0.4406
  761MOL0     C 2664  10.272   3.745   2.046 -0.3643  0.2781 -0.9267
  761MOL0     C 2665  10.230   3.827   2.125  0.3779 -0.6367 -0.0521
  761MOL0     C 2666  10.804   3.769   1.669  0.7288  0.8960  0.8229
  761MOL0     C 2667  10.923   3.845   1.657  0.3325  0.2384  0.7945
  761MOL0     H 2668  11.416   3.915   1.425 -0.8535 -2.1229 -0.0075
  761MOL0     H 2669  11.649   4.019   1.427  0.1804 -1.1926 -0.6088
  761MOL0     H 2670  11.790   4.209   1.518  3.1673 -0.8951 -0.6077
  761MOL0     H 2671  11.720   4.243   1.690  0.7118 -0.6361  2.1639
  761MOL0     H 2672  12.009   4.174   1.655  1.2999 -0.9344  2.3751
  761MOL0     H 2673  11.965   4.333   1.629  0.0687 -1.1560 -0.5276
  761MOL0     H 2674  11.845   4.327   1.850 -1.2595 -0.6571 -2.5332
  761MOL0     H 2675  11.902   4.162   1.888 -4.2172  1.0338  2.5971
  761MOL0     H 2676  12.145   4.237   1.884  1.8337  0.5101 -0.0247
  761MOL0     H 2677  12.101   4.374   1.797  0.9932 -2.6468 -0.9889
  761MOL0     H 2678  11.967   4.459   2.007 -2.0875 -2.6946 -2.7152
  761MOL0     H 2679  12.013   4.319   2.094 -0.4225  3.1992  3.1694
  761MOL0     H 2680  12.257   4.391   2.090 -1.1383 -1.5761  2.3964
  761MOL0     H 2681  12.205   4.542   2.008  0.4262 -1.0039 -1.4286
  761MOL0     H 2682  12.265   4.537   2.275 -1.4697  2.4601  3.3304
  761MOL0     H 2683  12.125   4.625   2.206  2.1457  0.5937  2.0502
  761MOL0     H 2684  12.125   4.350   2.326 -1.7977 -0.1858 -0.7970
  761MOL0     H 2685  11.981   4.437   2.286  0.9156 -0.7224 -0.9263
  761MOL0     H 2686  11.973   4.691   2.364  1.8664 -3.8264 -3.5494
  761MOL0     H 2687  11.997   4.795   2.750  1.3405  0.8919 -0.3804
  761MOL0     H 2688  12.013   4.890   2.604 -0.6455  0.1072 -1.8429
  761MOL0     H 2689  11.764   4.729   2.696  2.4062  0.4666  1.8864
  761MOL0     H 2690  11.764   4.803   2.541 -1.5509 -2.3358  1.1788
  761MOL0     H 2691  11.795   5.030   2.652 -1.6599  0.3662 -1.8241
  761MOL0     H 2692  11.770   4.949   2.813  0.4165 -0.2856 -0.1432
  761MOL0     H 2693  11.556   4.873   2.752 -2.1758  2.6568  1.7977
  761MOL0     H 2694  11.562   4.933   2.589 -2.6464  0.4412  0.7113
  761MOL0     H 2695  11.429   5.296   2.732 -0.6558  0.4762  2.4447
  761MOL0     H 2696  11.112   5.388   2.809 -3.1316  1.0313 -3.0206
  761MOL0     H 2697  11.262   5.454   2.754 -0.6014  0.5589 -0.2987
  761MOL0     H 2698  11.131   5.446   2.641 -2.8424  1.8597  1.6320
  761MOL0     H 2699  10.821   5.228   2.333  0.3525  0.7818 -0.0438
  761MOL0     H 2700  10.575   5.246   2.292  1.1352 -1.7363 -0.3089
  761MOL0     H 2701  10.310   5.185   2.593 -1.0990  1.6998  5.0984
  761MOL0     H 2702  10.305   5.363   2.624 -0.5070 -0.6789  0.6905
  761MOL0     H 2703  10.142   5.393   2.423 -4.5100 -0.7805 -2.5269
  761MOL0     H 2704  10.132   5.223   2.405  2.2796  2.2655 -3.2378
  761MOL0     H 2705  10.077   5.333   2.680  0.8718 -0.4391 -0.4890
  761MOL0     H 2706  10.033   5.171   2.617 -2.0101  0.4725  1.1629
  761MOL0     H 2707   9.905   5.419   2.530  1.3246  0.4887  0.9468
  761MOL0     H 2708   9.868   5.250   2.476  0.8662  0.1965 -0.9947
  761MOL0     H 2709   9.883   5.354   2.755 -0.0413 -0.4922  0.0691
  761MOL0     H 2710   9.831   5.195   2.719  3.8930  0.6939 -0.4529
  761MOL0     H 2711   9.672   5.462   2.678  2.0039 -0.2350  0.4220
  761MOL0     H 2712   9.629   5.319   2.585 -1.8358  1.3127  0.5801
  761MOL0     H 2713   9.650   5.325   2.888  0.5860  1.9428 -0.4656
  761MOL0     H 2714   9.565   5.210   2.786 -1.2358  0.3186 -0.7679
  761MOL0     H 2715   9.418   5.413   2.700  0.5872 -0.9346 -0.7394
  761MOL0     H 2716   9.499   5.504   2.841  2.3980 -0.3997  1.0315
  761MOL0     H 2717  10.511   5.358   2.704 -0.1605  3.3999 -2.0632
  761MOL0     H 2718  10.753   5.352   2.734 -1.0670  0.4385  1.4020
  761MOL0     H 2719  11.116   4.935   2.637 -0.6443  0.4210  1.2056
  761MOL0     H 2720  11.344   4.886   2.659  0.7148  0.6715  0.7964
  761MOL0     H 2721  11.658   3.976   1.860  0.8394  4.6031 -1.2723
  761MOL0     H 2722  11.439   3.839   1.844  0.6083  2.3003  1.5721
  761MOL0     H 2723  11.151   3.592   1.674 -0.6062 -1.2147 -2.5052
  761MOL0     H 2724  10.919   3.462   1.669 -2.4715 -0.4804 -0.1202
  761MOL0     H 2725  10.552   3.681   1.682  3.6026  0.5870 -0.2248
  761MOL0     H 2726  10.507   3.514   1.700  0.6287  0.1936 -1.7185
  761MOL0     H 2727  10.586   3.736   1.904  2.4872  0.8103 -0.8261
  761MOL0     H 2728  10.654   3.581   1.953 -2.0410  0.0010  2.7750
  761MOL0     H 2729  10.473   3.582   2.078 -1.9619 -0.4277 -0.2439
  761MOL0     H 2730  10.430   3.470   1.950  1.4799 -1.5581  2.6882
  761MOL0     H 2731  10.241   3.597   1.910 -0.1157 -0.5532  1.7396
  761MOL0     H 2732  10.352   3.729   1.858 -1.3631  1.6359  0.1706
  761MOL0     H 2733  10.174   3.890   2.191 -0.2490 -1.2391  0.0024
  761MOL0     H 2734  10.707   3.817   1.668 -1.5477 -3.2523  1.5748
  761MOL0     H 2735  10.927   3.953   1.648 -0.9367  0.3424  1.2429
  762MOL0     O 2736   6.944   0.969   4.284 -0.2865  0.5570 -0.3387
  762MOL0     C 2737   7.000   1.035   4.367 -0.3518 -0.0619  0.0734
  762MOL0     O 2738   6.957   1.056   4.501  0.1193  0.3522  0.4227
  762MOL0     C 2739   6.835   1.029   4.554 -0.6907  0.4184  0.6266
  762MOL0     C 2740   6.831   1.016   4.695 -0.0712  0.1035  0.1868
  762MOL0     C 2741   6.717   0.984   4.766 -0.6776  0.4015 -0.1589
  762MOL0     C 2742   6.594   0.981   4.694 -1.3110 -1.0752  0.0506
  762MOL0     O 2743   6.477   0.956   4.768  0.3302  0.2286  0.0556
  762MOL0     C 2744   6.355   0.962   4.700  0.3991  0.3512 -0.8596
  762MOL0     C 2745   6.257   0.953   4.811  0.0116  0.6759 -0.5351
  762MOL0     C 2746   6.116   0.965   4.759 -0.2466  0.1068  0.3829
  762MOL0     C 2747   6.017   0.953   4.869 -0.1649 -0.1594 -0.7914
  762MOL0     C 2748   5.870   0.965   4.813 -0.5576 -0.2873 -0.1505
  762MOL0     C 2749   5.771   1.033   4.910 -0.4508 -0.8190  0.1739
  762MOL0     C 2750   5.704   0.939   5.000  0.6776  0.3944 -1.4210
  762MOL0     C 2751   5.587   0.980   5.083 -1.0846 -0.0632  0.1047
  762MOL0     N 2752   5.619   1.100   5.152 -0.2024 -0.7997 -0.0206
  762MOL0     C 2753   5.717   1.120   5.249 -1.0202 -1.2569 -0.2049
  762MOL0     C 2754   5.710   1.252   5.281 -1.1879 -0.3035 -0.1425
  762MOL0     C 2755   5.806   1.347   5.361  0.3635  0.0566  0.0558
  762MOL0     C 2756   5.857   1.285   5.497 -0.0691  0.0198  0.2566
  762MOL0     C 2757   5.983   1.192   5.489 -0.3257  0.3325  0.0311
  762MOL0     C 2758   6.059   1.197   5.628  0.6886 -1.0015 -0.0284
  762MOL0     O 2759   6.158   1.103   5.619 -0.7133  0.3961 -0.7359
  762MOL0     C 2760   6.290   1.143   5.608 -0.0505 -0.6549 -0.6636
  762MOL0     C 2761   6.377   1.057   5.675  0.9646 -0.2779 -0.1171
  762MOL0     C 2762   6.517   1.080   5.669 -0.2756 -0.1446 -0.1747
  762MOL0     C 2763   6.608   0.965   5.722  0.6920 -0.2222 -0.5158
  762MOL0     C 2764   6.566   1.192   5.598 -0.5584 -0.0471  0.1552
  762MOL0     C 2765   6.717   1.207   5.589  0.8294  0.0788 -0.3807
  762MOL0     O 2766   6.783   1.116   5.525 -0.8983  0.7518  0.0059
  762MOL0     C 2767   6.921   1.118   5.510  0.6395  1.0991  0.4932
  762MOL0     C 2768   6.959   1.194   5.404 -0.7891 -0.2714  0.1263
  762MOL0     C 2769   7.098   1.201   5.378  0.0926 -0.4248  1.0972
  762MOL0     C 2770   7.190   1.137   5.465 -0.2683 -0.3217  0.1358
  762MOL0     O 2771   7.323   1.160   5.454  0.7922  0.2396 -0.7324
  762MOL0     C 2772   7.390   1.122   5.337  1.1804 -0.2207 -0.2874
  762MOL0     C 2773   7.541   1.125   5.362  0.0022  0.3066 -0.4814
  762MOL0     C 2774   7.608   0.993   5.411 -0.0559 -0.1201  0.7781
  762MOL0     C 2775   7.552   0.928   5.534 -0.6784  0.3988 -0.7726
  762MOL0     C 2776   7.654   0.838   5.600 -0.1521  0.2407 -0.0357
  762MOL0     C 2777   7.595   0.742   5.699  1.0912  0.5496  0.3731
  762MOL0     C 2778   7.577   0.803   5.840 -0.4466 -0.1443  0.5853
  762MOL0     C 2779   7.554   0.702   5.952  1.6713  0.9592 -1.0465
  762MOL0    Cl 2780   7.435   0.777   6.066  0.3752  0.0477  0.3465
  762MOL0     C 2781   7.150   1.057   5.567  0.0565  1.1023  0.4373
  762MOL0     C 2782   7.008   1.041   5.583  0.8396 -0.3505 -0.2002
  762MOL0     O 2783   6.760   1.311   5.632 -0.2551 -0.4353  0.5333
  762MOL0     C 2784   6.484   1.289   5.546 -0.1419  0.2395  0.0852
  762MOL0     C 2785   6.347   1.262   5.543  0.9821  0.6171  0.4342
  762MOL0     N 2786   5.593   1.304   5.225 -1.0203 -0.8975  0.0241
  762MOL0     N 2787   5.538   1.208   5.151  0.2966  0.4661  0.2753
  762MOL0     C 2788   6.597   0.992   4.554 -0.2786  0.6307 -0.1570
  762MOL0     C 2789   6.715   1.016   4.486  0.0303 -0.6199  0.3059
  762MOL0     C 2790   7.135   1.092   4.336  0.4031 -0.5853 -0.1117
  762MOL0     C 2791   7.173   1.121   4.201  0.1748 -0.3390 -0.1052
  762MOL0     C 2792   7.303   1.168   4.168  0.6558 -0.2555 -0.5996
  762MOL0     C 2793   7.409   1.167   4.269  0.7025  0.0704 -0.0259
  762MOL0     O 2794   7.541   1.187   4.245 -0.7306  0.1752 -0.1245
  762MOL0     C 2795   7.586   1.242   4.114  1.2203  0.5054  0.5253
  762MOL0     C 2796   7.722   1.293   4.140 -0.0931  2.1045  0.2839
  762MOL0     C 2797   7.814   1.196   4.212  0.5900  0.8271  0.0222
  762MOL0     C 2798   7.854   1.088   4.121  0.0562  0.7369  0.3179
  762MOL0     C 2799   7.775   0.965   4.129 -0.0554 -0.3827 -0.2037
  762MOL0     C 2800   7.699   0.871   4.109  1.2290  0.8944  0.4618
  762MOL0     C 2801   7.368   1.129   4.400 -0.7004  0.4044  0.1840
  762MOL0     C 2802   7.235   1.104   4.430  0.6771  1.0128 -1.0252
  762MOL0     H 2803   6.924   1.006   4.749  0.7113 -1.6933 -1.3567
  762MOL0     H 2804   6.720   0.958   4.872  3.5235  1.3649  0.1160
  762MOL0     H 2805   6.335   1.062   4.659  3.5675  3.7565  4.6712
  762MOL0     H 2806   6.350   0.885   4.622  3.2787 -1.6903  0.8150
  762MOL0     H 2807   6.261   0.853   4.855 -3.1114  0.0157 -1.5364
  762MOL0     H 2808   6.284   1.034   4.881 -0.7101 -0.5520  1.2398
  762MOL0     H 2809   6.094   1.056   4.702  1.1607 -0.8603 -1.8522
  762MOL0     H 2810   6.111   0.882   4.688 -3.7209  0.6186 -0.1066
  762MOL0     H 2811   6.044   0.865   4.928  2.2889  1.2445  0.3360
  762MOL0     H 2812   6.034   1.031   4.944 -1.7105 -1.3823  0.9082
  762MOL0     H 2813   5.866   1.018   4.717  0.4079  1.4685  0.7335
  762MOL0     H 2814   5.834   0.869   4.775 -1.3039  0.0796 -0.4027
  762MOL0     H 2815   5.838   1.094   4.972  2.4778 -3.2300 -0.3436
  762MOL0     H 2816   5.704   1.101   4.857  0.9154  0.3486 -0.1122
  762MOL0     H 2817   5.661   0.864   4.933  0.9810 -0.1458 -1.0176
  762MOL0     H 2818   5.787   0.894   5.056  1.7333  2.8072 -0.8903
  762MOL0     H 2819   5.549   0.902   5.149 -0.5945  1.0298  1.7335
  762MOL0     H 2820   5.507   1.005   5.012 -0.1444 -2.0066 -1.7643
  762MOL0     H 2821   5.785   1.043   5.284 -2.1387 -2.3663 -0.3989
  762MOL0     H 2822   5.876   1.382   5.285 -0.6961 -0.2426 -1.1005
  762MOL0     H 2823   5.746   1.431   5.397 -1.9976 -1.2651 -0.5486
  762MOL0     H 2824   5.769   1.250   5.553 -0.4529  1.0991  0.3392
  762MOL0     H 2825   5.888   1.366   5.564 -2.2950  0.2585  1.1007
  762MOL0     H 2826   6.049   1.225   5.409 -0.0387  1.0560  0.5559
  762MOL0     H 2827   5.953   1.088   5.474  0.2767  0.0277  0.8354
  762MOL0     H 2828   5.994   1.156   5.705  0.2179  0.5462  0.4331
  762MOL0     H 2829   6.092   1.300   5.649  3.3640 -1.4902 -1.3554
  762MOL0     H 2830   6.333   0.971   5.724  0.4294  0.3899  0.6077
  762MOL0     H 2831   6.567   0.927   5.816 -1.1240  0.6260 -0.9167
  762MOL0     H 2832   6.620   0.893   5.640 -0.6604  2.2463 -3.0668
  762MOL0     H 2833   6.710   0.999   5.743  1.1103 -1.6704 -0.1246
  762MOL0     H 2834   6.890   1.248   5.341  1.3233  0.8574 -1.3512
  762MOL0     H 2835   7.129   1.269   5.299  2.4079 -0.8726  1.5344
  762MOL0     H 2836   7.361   1.023   5.300  1.2048 -0.2947 -0.1110
  762MOL0     H 2837   7.357   1.196   5.263  1.3397  2.1468  1.8527
  762MOL0     H 2838   7.591   1.157   5.270 -0.4868  3.0844  0.1207
  762MOL0     H 2839   7.563   1.203   5.436  1.2739  1.0266 -1.5506
  762MOL0     H 2840   7.711   1.024   5.431 -0.3561  0.5214  1.4068
  762MOL0     H 2841   7.606   0.928   5.324 -1.8937 -0.8117  1.2969
  762MOL0     H 2842   7.514   1.003   5.603  0.0140  0.9145 -0.9405
  762MOL0     H 2843   7.468   0.862   5.509 -1.0865  0.3052  0.7854
  762MOL0     H 2844   7.722   0.911   5.644 -0.2729 -0.7237  1.8389
  762MOL0     H 2845   7.701   0.782   5.518  1.7016  2.9375 -0.9638
  762MOL0     H 2846   7.500   0.697   5.669  2.0424 -1.6078  0.4290
  762MOL0     H 2847   7.669   0.662   5.710 -1.0487 -1.2706  2.8850
  762MOL0     H 2848   7.495   0.875   5.830 -0.0838  0.8267  3.5945
  762MOL0     H 2849   7.664   0.862   5.867 -2.6315  1.7674  4.3528
  762MOL0     H 2850   7.646   0.672   6.002  1.5016  0.1601 -1.1897
  762MOL0     H 2851   7.510   0.612   5.906 -0.3851  0.5723  1.4641
  762MOL0     H 2852   7.221   1.013   5.637 -0.3630 -0.2885  0.0161
  762MOL0     H 2853   6.956   0.993   5.664  0.4470  0.6728  0.1742
  762MOL0     H 2854   6.522   1.375   5.492 -0.3076  0.1485 -0.1775
  762MOL0     H 2855   6.293   1.330   5.478  1.9675 -0.5966 -1.8001
  762MOL0     H 2856   6.503   0.995   4.500 -0.9219  1.4154  0.9592
  762MOL0     H 2857   6.723   1.014   4.378 -2.8906  1.0155 -0.0325
  762MOL0     H 2858   7.105   1.123   4.116 -0.8419 -0.8175  0.6779
  762MOL0     H 2859   7.331   1.197   4.067 -0.5730  3.1570 -0.1002
  762MOL0     H 2860   7.588   1.169   4.033 -1.2284  0.4985  0.4130
  762MOL0     H 2861   7.517   1.315   4.072  2.1942  0.3514 -1.4345
  762MOL0     H 2862   7.721   1.381   4.205  0.4505  1.9392  0.5257
  762MOL0     H 2863   7.764   1.310   4.040  2.3176 -0.4433  0.7278
  762MOL0     H 2864   7.769   1.163   4.307  1.6321 -1.2012 -0.1248
  762MOL0     H 2865   7.897   1.253   4.254 -0.6030  2.6512  0.0467
  762MOL0     H 2866   7.955   1.051   4.142  0.4043  3.1825  3.7135
  762MOL0     H 2867   7.872   1.114   4.016  2.4957 -0.8463  0.2377
  762MOL0     H 2868   7.645   0.781   4.088  1.2416  0.6794  1.2905
  762MOL0     H 2869   7.442   1.128   4.478 -1.8912  0.4086  1.3537
  762MOL0     H 2870   7.217   1.079   4.533  0.1985  0.2521 -1.2881
  763MOL0     O 2871   7.145   2.550   0.493  0.4152 -0.1847  0.4392
  763MOL0     C 2872   7.058   2.510   0.574  0.5673 -0.2205 -0.0149
  763MOL0     O 2873   6.967   2.407   0.548 -0.0735  0.6017  0.6966
  763MOL0     C 2874   6.935   2.367   0.423 -0.1997  0.6555  0.5973
  763MOL0     C 2875   6.949   2.452   0.303 -1.0364  0.0228 -0.3745
  763MOL0     C 2876   6.947   2.397   0.170  0.3174  0.1034  0.2450
  763MOL0     C 2877   6.911   2.266   0.147 -0.2019  0.3766  0.2647
  763MOL0     O 2878   6.894   2.203   0.030  0.8536  0.1115 -0.0173
  763MOL0     C 2879   6.957   2.266  -0.087 -0.4959  0.5329 -1.6323
  763MOL0     C 2880   6.878   2.362  -0.173  0.8591  0.1360  0.1976
  763MOL0     C 2881   6.991   2.439  -0.262  0.9669 -0.6923 -0.2788
  763MOL0     C 2882   7.046   2.353  -0.367 -0.5251  0.4342  0.4766
  763MOL0     C 2883   7.085   2.415  -0.509  0.3435  0.5312 -0.7452
  763MOL0     C 2884   6.967   2.448  -0.604 -0.5324 -0.3549 -0.1914
  763MOL0     C 2885   7.033   2.521  -0.727 -0.4006  0.1456 -0.3404
  763MOL0     C 2886   6.915   2.570  -0.813  0.3325  0.3477 -0.0557
  763MOL0     N 2887   6.848   2.477  -0.896 -0.2762  0.3726 -0.2401
  763MOL0     C 2888   6.738   2.404  -0.857 -1.3257  0.6523 -0.1835
  763MOL0     C 2889   6.702   2.333  -0.972  0.2898 -0.1897 -0.8934
  763MOL0     C 2890   6.581   2.246  -0.997  0.0113 -0.2342 -0.3127
  763MOL0     C 2891   6.466   2.313  -1.086  0.3607 -0.5205 -0.7892
  763MOL0     C 2892   6.399   2.424  -1.006  0.2204 -0.1004  0.7265
  763MOL0     C 2893   6.263   2.477  -1.057 -0.5872  0.2197 -0.0850
  763MOL0     O 2894   6.184   2.524  -0.942  0.6573  1.0135  0.9799
  763MOL0     C 2895   6.049   2.525  -0.959  0.8072  0.1914 -0.3836
  763MOL0     C 2896   5.973   2.520  -0.834  0.4278  0.2523 -0.4268
  763MOL0     C 2897   5.828   2.502  -0.825  0.3880  0.6044  0.2339
  763MOL0     C 2898   5.774   2.488  -0.689  0.2689  0.3409  0.3199
  763MOL0     C 2899   5.753   2.497  -0.954  0.8366  0.1166 -0.3239
  763MOL0     C 2900   5.604   2.484  -0.967  0.3494  0.6477  0.2958
  763MOL0     O 2901   5.538   2.481  -1.085  0.4534 -0.5334 -0.0638
  763MOL0     C 2902   5.402   2.484  -1.079  1.5093  1.3125  1.1438
  763MOL0     C 2903   5.333   2.369  -1.136 -0.4871  0.0513  0.1678
  763MOL0     C 2904   5.197   2.379  -1.154  0.0701  0.1915  0.8003
  763MOL0     C 2905   5.120   2.497  -1.124  1.1440  0.6027  0.6101
  763MOL0     O 2906   4.990   2.511  -1.130  0.5288  0.2962  0.3949
  763MOL0     C 2907   4.908   2.392  -1.138 -0.7942  0.1910 -0.4602
  763MOL0     C 2908   4.769   2.425  -1.111 -0.2238 -0.6160  0.3534
  763MOL0     C 2909   4.746   2.486  -0.965  0.4123  0.3573  0.7490
  763MOL0     C 2910   4.593   2.519  -0.941 -0.1220  0.1103 -0.0879
  763MOL0     C 2911   4.573   2.557  -0.789 -0.0392  0.2925 -0.6097
  763MOL0     C 2912   4.440   2.628  -0.766 -0.9256 -1.0581  0.1552
  763MOL0     C 2913   4.327   2.536  -0.815 -0.0451  0.2988  0.7465
  763MOL0     C 2914   4.194   2.589  -0.764  0.0726 -0.1230  1.1149
  763MOL0    Cl 2915   4.169   2.738  -0.877 -0.0093 -0.0528 -0.0839
  763MOL0     C 2916   5.186   2.604  -1.077  0.0735 -1.0526  0.4471
  763MOL0     C 2917   5.324   2.602  -1.056 -0.1751  0.7633 -0.1190
  763MOL0     O 2918   5.553   2.461  -0.861  0.4903 -0.0915  0.1171
  763MOL0     C 2919   5.827   2.507  -1.071 -0.2146 -0.0625 -0.0966
  763MOL0     C 2920   5.969   2.526  -1.075  0.0390  0.4490  0.3401
  763MOL0     N 2921   6.799   2.355  -1.072  0.3722 -0.3883 -0.9756
  763MOL0     N 2922   6.883   2.438  -1.029  0.9185 -0.2126 -0.6678
  763MOL0     C 2923   6.887   2.194   0.256  0.3924  0.2854  0.3173
  763MOL0     C 2924   6.912   2.230   0.388 -0.3249 -0.1428  0.2469
  763MOL0     C 2925   7.039   2.592   0.693 -0.0256 -0.4603 -0.2934
  763MOL0     C 2926   6.940   2.550   0.782  0.1300  0.5860  0.0038
  763MOL0     C 2927   6.922   2.615   0.906  0.7384  0.2436 -0.7685
  763MOL0     C 2928   7.006   2.720   0.939 -0.0745  1.1219  0.0886
  763MOL0     O 2929   6.981   2.771   1.060 -0.3953  0.5206  0.5314
  763MOL0     C 2930   7.045   2.890   1.098 -1.0501  0.2259 -0.0477
  763MOL0     C 2931   7.026   2.918   1.251  0.4766  0.0083 -0.5578
  763MOL0     C 2932   6.885   2.904   1.316  0.5058 -0.1866  0.8239
  763MOL0     C 2933   6.885   2.938   1.462 -0.2109  0.4574 -0.2543
  763MOL0     C 2934   6.910   3.078   1.473 -1.0352  0.4104  0.1215
  763MOL0     C 2935   6.947   3.194   1.479 -0.1090  0.2395 -0.2448
  763MOL0     C 2936   7.103   2.759   0.848 -0.4105  0.4412 -0.0805
  763MOL0     C 2937   7.127   2.695   0.727  0.0046 -0.1219  0.9494
  763MOL0     H 2938   6.974   2.557   0.320 -2.4459  0.9397 -3.3279
  763MOL0     H 2939   6.972   2.459   0.084  1.5090  1.2349  1.3576
  763MOL0     H 2940   7.051   2.313  -0.053  1.1072 -1.4328 -3.1250
  763MOL0     H 2941   6.982   2.183  -0.153  1.3768 -1.3738  1.2178
  763MOL0     H 2942   6.799   2.311  -0.228  1.3852 -1.1625  0.6137
  763MOL0     H 2943   6.844   2.441  -0.106 -2.9461 -0.2321 -1.0794
  763MOL0     H 2944   6.940   2.530  -0.293  0.3108 -0.4776  1.3297
  763MOL0     H 2945   7.076   2.481  -0.208  0.9277  0.0641 -0.7926
  763MOL0     H 2946   7.141   2.307  -0.337 -2.1310 -2.1419  1.9503
  763MOL0     H 2947   6.983   2.265  -0.381 -1.0999  1.0529 -1.0299
  763MOL0     H 2948   7.156   2.498  -0.497  0.6972  0.0183  1.1641
  763MOL0     H 2949   7.147   2.349  -0.570  1.1441  1.3498 -0.8421
  763MOL0     H 2950   6.924   2.353  -0.638  1.8447 -0.8807 -2.0008
  763MOL0     H 2951   6.895   2.515  -0.556  1.7768  1.8091  0.4989
  763MOL0     H 2952   7.092   2.608  -0.698 -2.3693  1.0014  1.4104
  763MOL0     H 2953   7.092   2.445  -0.779 -0.8639 -1.7136  1.7058
  763MOL0     H 2954   6.960   2.646  -0.877 -0.1032 -1.0737 -2.1424
  763MOL0     H 2955   6.834   2.613  -0.753  1.0210  1.4458  0.1132
  763MOL0     H 2956   6.689   2.392  -0.761 -0.0612 -0.3177  0.3679
  763MOL0     H 2957   6.611   2.153  -1.047  1.4822  0.0872 -0.0876
  763MOL0     H 2958   6.533   2.233  -0.899  3.4838 -0.8370  1.4895
  763MOL0     H 2959   6.388   2.240  -1.106  0.7814 -0.9913 -0.7266
  763MOL0     H 2960   6.509   2.348  -1.181 -0.5067  2.1544 -0.2826
  763MOL0     H 2961   6.468   2.509  -1.004  0.2717  0.0897 -2.7242
  763MOL0     H 2962   6.368   2.387  -0.908 -1.5706  0.6637  0.4965
  763MOL0     H 2963   6.214   2.395  -1.110  0.4875  0.8072 -2.0773
  763MOL0     H 2964   6.290   2.555  -1.129  3.1201 -0.6793  0.0902
  763MOL0     H 2965   6.010   2.528  -0.733 -0.6551  3.0982 -0.1639
  763MOL0     H 2966   5.676   2.534  -0.676 -0.7303 -2.2517  2.9421
  763MOL0     H 2967   5.761   2.384  -0.659 -0.7182  0.4540  0.3251
  763MOL0     H 2968   5.847   2.533  -0.621  0.3254  0.1390  0.3941
  763MOL0     H 2969   5.378   2.279  -1.176  1.9611  0.6478  1.3728
  763MOL0     H 2970   5.150   2.285  -1.179 -2.2932  1.9763 -2.2380
  763MOL0     H 2971   4.924   2.353  -1.239 -0.0127  0.6485 -0.5192
  763MOL0     H 2972   4.948   2.325  -1.061  1.7764  2.2898  0.1834
  763MOL0     H 2973   4.728   2.497  -1.182 -2.2442 -2.2060 -0.1882
  763MOL0     H 2974   4.705   2.337  -1.121 -2.0640  0.6431  0.4309
  763MOL0     H 2975   4.816   2.568  -0.950  1.4017  0.2848 -2.7376
  763MOL0     H 2976   4.773   2.399  -0.904  0.7008 -0.3915 -0.4175
  763MOL0     H 2977   4.566   2.612  -0.990 -0.5582  1.7628  3.0347
  763MOL0     H 2978   4.540   2.430  -0.978 -0.0983 -0.3705  0.9951
  763MOL0     H 2979   4.646   2.636  -0.768  1.8626 -1.7506  0.9037
  763MOL0     H 2980   4.579   2.472  -0.721 -1.6410 -0.4423 -1.3286
  763MOL0     H 2981   4.424   2.645  -0.659  1.6556  0.8504  0.3081
  763MOL0     H 2982   4.440   2.727  -0.812  2.1067  2.3567  6.1779
  763MOL0     H 2983   4.349   2.437  -0.773 -2.2287  0.4932  2.5350
  763MOL0     H 2984   4.334   2.537  -0.924  0.5262  1.1594  0.7829
  763MOL0     H 2985   4.184   2.616  -0.658  1.3800  0.1958  1.1774
  763MOL0     H 2986   4.118   2.517  -0.794  3.2843 -2.5922 -1.7807
  763MOL0     H 2987   5.135   2.699  -1.062  0.9108 -0.4945 -0.1446
  763MOL0     H 2988   5.386   2.682  -1.016  0.9132 -0.2522  0.3038
  763MOL0     H 2989   5.780   2.509  -1.169  1.5971 -3.0979 -1.1528
  763MOL0     H 2990   6.018   2.529  -1.172  0.4687  1.1212  0.5756
  763MOL0     H 2991   6.866   2.089   0.242  2.6951 -0.1160 -0.6319
  763MOL0     H 2992   6.920   2.161   0.470 -0.7790 -0.3396  0.1267
  763MOL0     H 2993   6.878   2.465   0.760 -1.8466  0.5212  4.6768
  763MOL0     H 2994   6.862   2.567   0.983  0.8897  1.8749  0.4278
  763MOL0     H 2995   7.153   2.890   1.080 -1.0253  1.9632 -0.1515
  763MOL0     H 2996   6.996   2.969   1.040 -2.9088 -0.5261  0.4350
  763MOL0     H 2997   7.091   3.006   1.263  0.7941 -0.6515  4.5035
  763MOL0     H 2998   7.079   2.835   1.297 -1.2693 -2.1757 -2.2483
  763MOL0     H 2999   6.842   2.804   1.303 -0.6715  0.6168 -2.4923
  763MOL0     H 3000   6.814   2.968   1.262 -0.7508 -2.6645 -0.6713
  763MOL0     H 3001   6.965   2.896   1.524 -0.7987  0.7918  0.7512
  763MOL0     H 3002   6.789   2.908   1.505 -0.7454  0.2031 -1.5691
  763MOL0     H 3003   6.975   3.297   1.482  2.7968 -0.4761  0.2530
  763MOL0     H 3004   7.173   2.838   0.870  1.0685 -0.6776 -0.5747
  763MOL0     H 3005   7.204   2.724   0.657 -2.3816  0.9869 -1.3835
  764MOL0     O 3006   0.290   7.773   2.956  0.4699  0.4335  0.2323
  764MOL0     C 3007   0.318   7.665   2.909 -0.1660  0.5602 -0.0731
  764MOL0     O 3008   0.245   7.593   2.824  0.4215  0.4532 -0.4576
  764MOL0     C 3009   0.115   7.622   2.784  0.0632  0.2429  0.3001
  764MOL0     C 3010   0.025   7.673   2.879  0.6436 -0.3091 -0.3361
  764MOL0     C 3011  -0.104   7.684   2.842 -0.3742  0.9807 -0.6792
  764MOL0     C 3012  -0.153   7.646   2.723 -0.1617 -0.7817  0.5306
  764MOL0     O 3013  -0.287   7.657   2.704  0.1621  0.4620 -0.3450
  764MOL0     C 3014  -0.344   7.633   2.577 -0.0687 -0.2506  0.0039
  764MOL0     C 3015  -0.464   7.721   2.528  0.2377  0.3912 -0.1424
  764MOL0     C 3016  -0.561   7.743   2.646  0.0809  0.8692 -0.1662
  764MOL0     C 3017  -0.664   7.858   2.621  0.5886  0.5826 -0.6886
  764MOL0     C 3018  -0.758   7.824   2.500  0.7572 -0.3281 -0.0049
  764MOL0     C 3019  -0.828   7.953   2.462  0.2789  0.9945  0.1953
  764MOL0     C 3020  -0.944   7.945   2.363  0.7261  0.6404  0.3772
  764MOL0     C 3021  -1.073   7.880   2.429  1.3421 -0.0243 -1.4146
  764MOL0     N 3022  -1.188   7.887   2.334  1.1423  0.1982  1.0787
  764MOL0     C 3023  -1.263   7.996   2.292 -0.3776 -0.3764  0.8374
  764MOL0     C 3024  -1.367   7.958   2.218 -0.8978  0.2251 -0.2965
  764MOL0     C 3025  -1.478   8.042   2.153 -0.9796  0.1005 -0.0647
  764MOL0     C 3026  -1.614   8.003   2.213  0.1510 -0.5031 -0.4575
  764MOL0     C 3027  -1.716   8.123   2.217 -0.1858  0.6970  1.2442
  764MOL0     C 3028  -1.740   8.202   2.083 -0.3967 -0.2344  0.3900
  764MOL0     O 3029  -1.761   8.343   2.096 -0.3178 -0.1415  0.4270
  764MOL0     C 3030  -1.887   8.391   2.130  0.4357 -0.1504 -0.8383
  764MOL0     C 3031  -2.003   8.316   2.170 -0.2328 -0.0058 -0.2997
  764MOL0     C 3032  -2.119   8.386   2.203  0.3051  0.5426 -0.2217
  764MOL0     C 3033  -2.236   8.297   2.254 -0.4316 -0.2745  0.5161
  764MOL0     C 3034  -2.126   8.528   2.192  0.1927  1.1722  0.8970
  764MOL0     C 3035  -2.252   8.604   2.208 -0.2162 -0.1913  0.3492
  764MOL0     O 3036  -2.259   8.711   2.125  0.2107 -0.6611  0.0772
  764MOL0     C 3037  -2.388   8.771   2.108 -0.4686  0.8601 -0.9703
  764MOL0     C 3038  -2.473   8.693   2.042  0.1397 -0.1802 -0.3131
  764MOL0     C 3039  -2.602   8.734   2.014 -0.2517  0.4361 -0.4139
  764MOL0     C 3040  -2.637   8.869   2.033  0.3109 -1.1133 -0.0098
  764MOL0     O 3041  -2.751   8.939   1.999 -0.2850  0.2527  0.0923
  764MOL0     C 3042  -2.875   8.865   1.971 -1.4109 -1.7960 -0.7390
  764MOL0     C 3043  -2.999   8.963   1.960  0.8208  0.2120 -0.2640
  764MOL0     C 3044  -3.068   8.979   2.096  0.7707  0.0152  0.8346
  764MOL0     C 3045  -2.981   9.043   2.209  0.1520 -1.1170 -0.6914
  764MOL0     C 3046  -2.954   9.192   2.172 -0.2520  0.7144  0.5691
  764MOL0     C 3047  -2.915   9.278   2.293 -0.1559 -0.0869 -0.4711
  764MOL0     C 3048  -2.758   9.292   2.318 -0.5693 -0.1208  0.3955
  764MOL0     C 3049  -2.705   9.158   2.354  0.4080  0.4889 -0.4004
  764MOL0    Cl 3050  -2.541   9.166   2.410 -0.2262 -0.2495 -0.0440
  764MOL0     C 3051  -2.537   8.956   2.099 -0.1630  0.1710  0.8531
  764MOL0     C 3052  -2.413   8.908   2.123  0.3136  0.8120  0.1162
  764MOL0     O 3053  -2.340   8.554   2.275 -0.4484  0.2121  0.1353
  764MOL0     C 3054  -2.007   8.596   2.154 -0.5949  0.3399 -0.5542
  764MOL0     C 3055  -1.893   8.532   2.117 -0.3977  1.0603 -0.6667
  764MOL0     N 3056  -1.357   7.820   2.222 -0.2273 -0.8276  0.0459
  764MOL0     N 3057  -1.241   7.782   2.277 -0.4139  0.5485  0.5962
  764MOL0     C 3058  -0.066   7.592   2.626 -0.3609 -0.5668 -0.2316
  764MOL0     C 3059   0.069   7.583   2.657 -0.5664 -0.1380  0.2242
  764MOL0     C 3060   0.445   7.606   2.947  0.5178  0.2235  0.1637
  764MOL0     C 3061   0.527   7.649   3.061  1.4859 -0.1589  0.6225
  764MOL0     C 3062   0.639   7.579   3.095 -0.2963 -0.2575  0.4291
  764MOL0     C 3063   0.694   7.471   3.013  0.8760  0.0119 -0.4039
  764MOL0     O 3064   0.813   7.394   3.039  0.1016  0.2482 -1.0163
  764MOL0     C 3065   0.868   7.383   3.173  0.4140  0.7660 -0.2319
  764MOL0     C 3066   0.986   7.288   3.180 -0.7504 -0.5121  0.3581
  764MOL0     C 3067   1.067   7.284   3.307 -0.0660 -0.5493 -0.1056
  764MOL0     C 3068   1.182   7.184   3.288 -1.1445  0.8607 -0.9358
  764MOL0     C 3069   1.261   7.156   3.415 -0.6969 -0.5046 -0.1092
  764MOL0     C 3070   1.321   7.123   3.517  0.3729  0.1179  0.6798
  764MOL0     C 3071   0.617   7.441   2.903  0.5578 -0.0545  0.6742
  764MOL0     C 3072   0.498   7.504   2.870  0.4803  0.1298  0.5605
  764MOL0     H 3073   0.038   7.709   2.981 -1.5622  0.9111 -0.4261
  764MOL0     H 3074  -0.179   7.720   2.912 -1.4413 -1.9444 -0.1458
  764MOL0     H 3075  -0.272   7.636   2.494  0.0751 -1.8101  0.0418
  764MOL0     H 3076  -0.392   7.534   2.576 -3.2584  1.1720 -0.0549
  764MOL0     H 3077  -0.427   7.816   2.490  0.6085  1.4154  2.5792
  764MOL0     H 3078  -0.517   7.662   2.452 -2.0450 -0.7788  2.1907
  764MOL0     H 3079  -0.607   7.646   2.664 -2.2892  1.7498 -1.0841
  764MOL0     H 3080  -0.515   7.769   2.742  1.3147 -0.6590 -0.3056
  764MOL0     H 3081  -0.724   7.867   2.712  2.2230 -0.5954  0.5598
  764MOL0     H 3082  -0.608   7.952   2.613 -2.1543  2.3594 -0.2262
  764MOL0     H 3083  -0.697   7.805   2.411 -1.7485  2.3633 -2.5180
  764MOL0     H 3084  -0.821   7.741   2.530 -1.9997  0.3505 -3.3310
  764MOL0     H 3085  -0.857   8.009   2.552  0.8904 -0.1027  1.1118
  764MOL0     H 3086  -0.752   8.012   2.410  3.6052 -1.9308  1.3609
  764MOL0     H 3087  -0.965   8.046   2.326 -1.2404  1.4879  3.4315
  764MOL0     H 3088  -0.909   7.890   2.275 -0.1138  3.4552 -1.8696
  764MOL0     H 3089  -1.098   7.936   2.520  2.5226  2.3036 -2.4432
  764MOL0     H 3090  -1.046   7.783   2.472  1.0973  1.6201  3.0407
  764MOL0     H 3091  -1.227   8.096   2.313 -0.0927 -0.2593 -0.1409
  764MOL0     H 3092  -1.458   8.145   2.185  0.0912 -0.3133  0.6656
  764MOL0     H 3093  -1.476   8.041   2.044  0.7980  1.0109 -0.0729
  764MOL0     H 3094  -1.606   7.957   2.312  2.2830 -2.5953 -1.5161
  764MOL0     H 3095  -1.657   7.923   2.153 -0.0283  0.0090 -1.0283
  764MOL0     H 3096  -1.683   8.192   2.295  1.4339 -0.9004  2.0349
  764MOL0     H 3097  -1.810   8.078   2.250  1.0497 -2.8141  0.3132
  764MOL0     H 3098  -1.827   8.155   2.036 -0.3107  1.7043 -1.9010
  764MOL0     H 3099  -1.652   8.188   2.020 -1.2696 -0.9702 -0.6996
  764MOL0     H 3100  -1.989   8.208   2.177  1.2324  0.2854  1.7623
  764MOL0     H 3101  -2.275   8.319   2.354 -1.6778 -3.6436  0.9030
  764MOL0     H 3102  -2.311   8.310   2.175 -0.5345  1.9929  0.9298
  764MOL0     H 3103  -2.200   8.194   2.259 -1.6191 -0.8386 -1.3631
  764MOL0     H 3104  -2.445   8.589   2.024 -1.7852 -0.5006 -1.7830
  764MOL0     H 3105  -2.677   8.678   1.959  1.5677 -1.4251 -1.0970
  764MOL0     H 3106  -2.864   8.812   1.876 -0.1359 -2.5039 -0.2303
  764MOL0     H 3107  -2.887   8.792   2.051  0.2002  2.1691  3.6065
  764MOL0     H 3108  -2.978   9.059   1.911 -1.0942 -0.5213 -2.7647
  764MOL0     H 3109  -3.079   8.915   1.902 -1.8453  4.1920 -0.2921
  764MOL0     H 3110  -3.095   8.880   2.132 -0.0115 -0.0991 -0.0420
  764MOL0     H 3111  -3.162   9.034   2.084  0.8391  0.4079  1.9138
  764MOL0     H 3112  -3.042   9.039   2.299  1.6542  1.0500  0.5101
  764MOL0     H 3113  -2.892   8.983   2.231 -0.5977 -1.3207  2.0632
  764MOL0     H 3114  -3.049   9.240   2.145 -0.5855 -0.1672  0.1169
  764MOL0     H 3115  -2.880   9.204   2.094 -1.0433 -0.4124 -0.4017
  764MOL0     H 3116  -2.948   9.380   2.273 -1.2561  0.1020  1.9834
  764MOL0     H 3117  -2.960   9.246   2.387  3.4957 -1.6068  0.9523
  764MOL0     H 3118  -2.751   9.365   2.399 -3.6942 -0.5606  1.1894
  764MOL0     H 3119  -2.701   9.334   2.235  1.0682 -1.4922  0.7605
  764MOL0     H 3120  -2.718   9.095   2.265  3.5706  0.6777 -1.1157
  764MOL0     H 3121  -2.762   9.112   2.435  0.8882  0.0295 -0.3175
  764MOL0     H 3122  -2.562   9.061   2.116 -1.0605  0.1508 -0.2758
  764MOL0     H 3123  -2.329   8.962   2.164  2.1477 -0.3993 -1.7745
  764MOL0     H 3124  -2.011   8.703   2.139  3.2592  0.9699  1.6718
  764MOL0     H 3125  -1.807   8.591   2.086  1.2773 -1.7218 -1.7047
  764MOL0     H 3126  -0.095   7.562   2.526  0.1600  1.6640 -1.0988
  764MOL0     H 3127   0.130   7.555   2.571 -0.0048  1.6399 -0.0200
  764MOL0     H 3128   0.510   7.738   3.121  2.9015  2.1937 -2.2404
  764MOL0     H 3129   0.677   7.612   3.191 -0.2167 -0.2397  0.3917
  764MOL0     H 3130   0.893   7.480   3.216 -1.8197  2.3700 -2.2509
  764MOL0     H 3131   0.784   7.347   3.233  0.5353 -0.3087 -0.6863
  764MOL0     H 3132   1.064   7.320   3.110 -0.9520  1.1588  0.8551
  764MOL0     H 3133   0.944   7.188   3.162 -1.3006 -0.4339  1.1434
  764MOL0     H 3134   0.993   7.255   3.382 -1.2281 -1.4381 -1.5263
  764MOL0     H 3135   1.107   7.377   3.349  0.6155 -1.1131  0.5143
  764MOL0     H 3136   1.247   7.216   3.206  0.2818  1.1266  0.2484
  764MOL0     H 3137   1.132   7.089   3.267  0.8562  0.1202 -2.7263
  764MOL0     H 3138   1.383   7.100   3.601  2.3971  3.4541  0.3013
  764MOL0     H 3139   0.647   7.363   2.833 -2.5579 -0.3392 -0.5077
  764MOL0     H 3140   0.449   7.471   2.779  1.9366 -0.2053 -0.1426
  765MOL0     O 3141   9.826   8.565  10.977  0.2708 -0.0365 -0.5500
  765MOL0     C 3142   9.793   8.667  10.919 -0.2398  0.3340  0.2854
  765MOL0     O 3143   9.855   8.715  10.808  0.2200 -0.2996  0.0317
  765MOL0     C 3144   9.982   8.656  10.774  0.2773  0.0360 -0.2966
  765MOL0     C 3145  10.089   8.749  10.775  0.3030  0.0198  0.0081
  765MOL0     C 3146  10.214   8.713  10.723  0.4289  0.3260  0.4975
  765MOL0     C 3147  10.243   8.573  10.706 -0.6257 -0.3143 -0.0575
  765MOL0     O 3148  10.366   8.523  10.689  0.1976  0.4603 -0.5505
  765MOL0     C 3149  10.463   8.608  10.630 -0.8614 -0.0770  0.9065
  765MOL0     C 3150  10.574   8.507  10.568 -0.4027 -0.2089 -0.5544
  765MOL0     C 3151  10.697   8.559  10.495 -0.6570 -0.3285 -0.7059
  765MOL0     C 3152  10.800   8.448  10.453  0.4043  0.6582  0.8248
  765MOL0     C 3153  10.924   8.494  10.369  0.7877 -0.6298 -0.2629
  765MOL0     C 3154  11.024   8.380  10.329 -0.4100  0.1407  0.3976
  765MOL0     C 3155  10.959   8.286  10.228 -0.9298  0.0517  0.5194
  765MOL0     C 3156  11.064   8.191  10.171  0.7927 -0.2081  0.6318
  765MOL0     N 3157  11.091   8.082  10.259 -0.2878 -0.0752  0.9312
  765MOL0     C 3158  11.209   8.044  10.311 -0.0782 -0.4316 -0.0848
  765MOL0     C 3159  11.195   7.923  10.362  0.3780  0.1350 -0.9663
  765MOL0     C 3160  11.292   7.839  10.433 -0.2251 -0.8410  0.2941
  765MOL0     C 3161  11.295   7.857  10.587 -0.9971  0.1325 -0.2258
  765MOL0     C 3162  11.344   7.733  10.655  0.4613 -0.8774  0.4815
  765MOL0     C 3163  11.397   7.767  10.798  0.3542  0.9037 -0.1054
  765MOL0     O 3164  11.486   7.660  10.843 -0.3790  0.1790  0.3580
  765MOL0     C 3165  11.549   7.660  10.963  0.0938  0.4602  0.4067
  765MOL0     C 3166  11.594   7.776  11.024  0.3280  0.7087  0.0590
  765MOL0     C 3167  11.649   7.775  11.159  0.5889 -0.0453  0.5782
  765MOL0     C 3168  11.690   7.895  11.225  0.2529  0.6040  0.5175
  765MOL0     C 3169  11.678   7.653  11.219 -0.3174  0.5987  0.2494
  765MOL0     C 3170  11.747   7.638  11.351 -0.9580 -0.5458 -0.5095
  765MOL0     O 3171  11.820   7.519  11.352  0.4030  0.1583  0.3133
  765MOL0     C 3172  11.908   7.480  11.442  0.3544 -0.3324 -0.3298
  765MOL0     C 3173  11.985   7.564  11.521  0.4917  0.0202 -0.5692
  765MOL0     C 3174  12.068   7.514  11.621  0.0622  0.6830 -0.1338
  765MOL0     C 3175  12.087   7.375  11.644 -0.5361 -0.4044 -0.3057
  765MOL0     O 3176  12.175   7.337  11.741  0.1741 -0.2124 -0.1719
  765MOL0     C 3177  12.184   7.194  11.762 -0.1367 -0.6778  0.1130
  765MOL0     C 3178  12.292   7.172  11.867  0.2618  0.2926  0.0980
  765MOL0     C 3179  12.250   7.226  12.005  0.0794  0.2180 -0.3450
  765MOL0     C 3180  12.335   7.337  12.055 -0.0892 -0.3877  1.0135
  765MOL0     C 3181  12.270   7.423  12.171 -0.4430 -0.2505 -0.2363
  765MOL0     C 3182  12.382   7.506  12.237 -0.9752 -0.0947 -0.1596
  765MOL0     C 3183  12.347   7.614  12.340  0.3446  1.0859 -0.0163
  765MOL0     C 3184  12.354   7.578  12.483  0.2956  0.1519  0.1500
  765MOL0    Cl 3185  12.224   7.471  12.528 -0.2146  0.8984 -0.0788
  765MOL0     C 3186  12.025   7.293  11.558  0.1641  1.3634  0.9375
  765MOL0     C 3187  11.937   7.343  11.457  0.7296  0.3426 -0.1541
  765MOL0     O 3188  11.756   7.729  11.436  0.3040  0.5321  0.0239
  765MOL0     C 3189  11.650   7.545  11.145  0.4673  0.2248 -0.9778
  765MOL0     C 3190  11.581   7.544  11.021 -0.1193  0.3998 -0.8473
  765MOL0     N 3191  11.064   7.886  10.337 -0.7130  1.5838 -0.4588
  765MOL0     N 3192  10.999   7.982  10.272 -0.6250  0.1503 -0.0990
  765MOL0     C 3193  10.142   8.472  10.700 -0.2040  0.0468  0.0629
  765MOL0     C 3194  10.010   8.523  10.738  0.0417  0.4983  0.3656
  765MOL0     C 3195   9.675   8.734  10.968 -0.0615 -0.1979 -0.0006
  765MOL0     C 3196   9.640   8.859  10.922 -0.5334 -0.4716  0.8887
  765MOL0     C 3197   9.524   8.923  10.972  0.1900  0.7266 -0.7369
  765MOL0     C 3198   9.440   8.852  11.050 -0.0665 -0.2030 -0.5806
  765MOL0     O 3199   9.335   8.938  11.088  0.3372 -0.2245 -0.7125
  765MOL0     C 3200   9.219   8.891  11.160 -0.5963 -0.2076 -0.1575
  765MOL0     C 3201   9.140   9.012  11.189  0.8957 -0.0418 -0.5403
  765MOL0     C 3202   9.022   8.973  11.292  0.3385  0.1980 -0.7172
  765MOL0     C 3203   8.907   8.904  11.224  0.0260  1.2108  0.1858
  765MOL0     C 3204   8.796   8.880  11.320 -1.1515  0.2604  0.6723
  765MOL0     C 3205   8.715   8.863  11.410  0.6892 -0.3606 -0.6049
  765MOL0     C 3206   9.459   8.711  11.077 -0.0570 -0.1954 -0.3324
  765MOL0     C 3207   9.589   8.664  11.051 -0.2728 -0.4650 -0.2458
  765MOL0     H 3208  10.081   8.855  10.797  0.2663  0.3376 -1.4404
  765MOL0     H 3209  10.294   8.785  10.707 -0.2817  1.1753  0.6655
  765MOL0     H 3210  10.424   8.654  10.538  0.8967 -1.4256 -0.5883
  765MOL0     H 3211  10.504   8.684  10.697  4.2283 -1.8105  0.2132
  765MOL0     H 3212  10.609   8.446  10.651 -2.0747  0.8334  1.0145
  765MOL0     H 3213  10.525   8.426  10.513 -2.4387  0.3193  0.3527
  765MOL0     H 3214  10.665   8.615  10.407  0.6499  2.0743  0.2549
  765MOL0     H 3215  10.739   8.622  10.575  3.6548 -1.5630 -1.7313
  765MOL0     H 3216  10.837   8.409  10.549 -1.3160 -2.1647  0.4800
  765MOL0     H 3217  10.755   8.367  10.395  0.5531 -0.2801  1.9768
  765MOL0     H 3218  10.893   8.547  10.278 -0.4695 -1.3061 -0.2456
  765MOL0     H 3219  10.976   8.572  10.425 -1.6846  1.4330 -0.6970
  765MOL0     H 3220  11.112   8.431  10.288  0.4173  0.6860  2.6995
  765MOL0     H 3221  11.037   8.326  10.423 -3.3716 -0.6884  0.4375
  765MOL0     H 3222  10.878   8.232  10.278 -1.1499  2.5945  3.1760
  765MOL0     H 3223  10.918   8.354  10.154 -1.1575 -0.7742 -0.1224
  765MOL0     H 3224  11.155   8.242  10.137  1.1817 -2.7429 -2.6877
  765MOL0     H 3225  11.015   8.147  10.084  0.6739  2.0710 -0.5392
  765MOL0     H 3226  11.304   8.096  10.303 -1.0631  1.5931  0.5447
  765MOL0     H 3227  11.257   7.741  10.396 -1.0052 -0.7591  0.7950
  765MOL0     H 3228  11.395   7.860  10.404 -0.4938 -1.2326 -1.0675
  765MOL0     H 3229  11.190   7.866  10.618 -1.1762 -4.2357  1.1191
  765MOL0     H 3230  11.347   7.947  10.618  0.8893  0.2788 -3.3968
  765MOL0     H 3231  11.433   7.719  10.593  1.6409  0.5460  1.7969
  765MOL0     H 3232  11.267   7.655  10.656 -2.2883  1.6300  0.6470
  765MOL0     H 3233  11.305   7.781  10.856 -1.3672 -0.4836 -2.3376
  765MOL0     H 3234  11.451   7.862  10.794  0.2029  1.0319  0.7606
  765MOL0     H 3235  11.580   7.867  10.968 -1.0193  0.7023  0.3617
  765MOL0     H 3236  11.700   7.978  11.154 -0.1137  0.6644  0.5349
  765MOL0     H 3237  11.614   7.914  11.300 -0.5942 -2.1025  0.4702
  765MOL0     H 3238  11.794   7.892  11.259 -0.5462 -0.9733  3.1370
  765MOL0     H 3239  11.970   7.668  11.495 -3.4868 -0.6736 -1.8475
  765MOL0     H 3240  12.124   7.585  11.681 -0.0804 -0.1332  0.9977
  765MOL0     H 3241  12.091   7.149  11.800 -1.7860  0.6482 -2.1159
  765MOL0     H 3242  12.211   7.133  11.675  0.7331 -0.8982  0.5297
  765MOL0     H 3243  12.316   7.066  11.876 -1.4130  0.0127  1.8704
  765MOL0     H 3244  12.384   7.217  11.828 -1.3731  1.1090 -3.1461
  765MOL0     H 3245  12.243   7.148  12.081 -0.2738 -1.8133 -2.3557
  765MOL0     H 3246  12.146   7.260  12.000 -0.8130 -2.2138  0.1810
  765MOL0     H 3247  12.429   7.292  12.087 -0.6003 -1.5037  0.9857
  765MOL0     H 3248  12.360   7.408  11.975 -1.6531  1.6379  2.2143
  765MOL0     H 3249  12.235   7.343  12.237 -0.2966 -0.2122 -0.1108
  765MOL0     H 3250  12.182   7.477  12.137  0.3212  0.4850 -1.0911
  765MOL0     H 3251  12.448   7.434  12.286  2.8543  1.8288 -2.0245
  765MOL0     H 3252  12.432   7.545  12.148 -4.8198  3.0942 -1.2118
  765MOL0     H 3253  12.243   7.640  12.318  0.6845  0.1828 -3.2679
  765MOL0     H 3254  12.400   7.707  12.315  1.6763  0.3608 -0.0085
  765MOL0     H 3255  12.340   7.668  12.543  4.2760 -1.4016  3.9052
  765MOL0     H 3256  12.445   7.525  12.513 -1.2778 -1.5539  2.2485
  765MOL0     H 3257  12.035   7.185  11.565  2.3473  1.3240 -1.3799
  765MOL0     H 3258  11.883   7.288  11.380 -1.5628 -0.5966  1.9791
  765MOL0     H 3259  11.690   7.448  11.174 -2.2116 -0.5236  0.6536
  765MOL0     H 3260  11.567   7.461  10.953  1.4296 -0.8239  0.2354
  765MOL0     H 3261  10.160   8.368  10.673  0.7528  0.7053 -2.0602
  765MOL0     H 3262   9.924   8.457  10.743 -0.0484  0.3852 -1.6228
  765MOL0     H 3263   9.705   8.917  10.857  0.2741 -2.5072 -0.1817
  765MOL0     H 3264   9.505   9.029  10.954 -0.1248  0.6639 -0.7701
  765MOL0     H 3265   9.163   8.818  11.100  1.0442 -1.9884  0.3812
  765MOL0     H 3266   9.238   8.853  11.261 -0.1770  0.7026  0.1170
  765MOL0     H 3267   9.083   9.039  11.099 -2.6877 -1.1552  1.1858
  765MOL0     H 3268   9.201   9.096  11.223  0.0667  0.6901 -0.8008
  765MOL0     H 3269   8.984   9.057  11.351 -0.6804 -2.3873  2.6115
  765MOL0     H 3270   9.075   8.901  11.355  3.2582  1.5855 -1.4499
  765MOL0     H 3271   8.942   8.809  11.183  1.2872  0.0376  3.5955
  765MOL0     H 3272   8.860   8.969  11.150 -1.8364  1.7349  1.7239
  765MOL0     H 3273   8.639   8.860  11.486  0.2811  3.0893 -0.7124
  765MOL0     H 3274   9.385   8.667  11.143  0.2811  0.4823  0.5112
  765MOL0     H 3275   9.624   8.571  11.096 -2.5399 -0.5379  1.5305
  766MOL0     O 3276   3.409  10.865   7.363 -0.6823 -0.1835 -0.5058
  766MOL0     C 3277   3.345  10.938   7.283  0.4144  0.4952 -0.2240
  766MOL0     O 3278   3.211  10.955   7.298 -0.4480 -0.2413 -0.0267
  766MOL0     C 3279   3.157  10.891   7.410 -0.3078 -0.6371  0.6836
  766MOL0     C 3280   3.178  10.946   7.536  0.4342 -0.3857  0.7383
  766MOL0     C 3281   3.121  10.890   7.650  0.3018  0.5327  0.3925
  766MOL0     C 3282   3.024  10.784   7.636 -0.0616 -0.6183 -0.3486
  766MOL0     O 3283   2.962  10.748   7.751 -0.0637  0.2803  0.4854
  766MOL0     C 3284   2.980  10.600   7.766  0.9322 -0.0096 -0.1483
  766MOL0     C 3285   2.978  10.567   7.912  0.5152  0.6680  0.1141
  766MOL0     C 3286   2.832  10.578   7.966  0.4842 -0.8259  0.3275
  766MOL0     C 3287   2.843  10.555   8.120 -0.4196  0.5731  0.0707
  766MOL0     C 3288   2.717  10.532   8.191  0.1126  0.5176  0.9435
  766MOL0     C 3289   2.752  10.451   8.320 -0.2968 -0.7689  0.6838
  766MOL0     C 3290   2.775  10.557   8.437  0.4190 -0.4718  0.5147
  766MOL0     C 3291   2.831  10.500   8.562  1.2423 -0.8257  0.2864
  766MOL0     N 3292   2.927  10.582   8.624  0.4978  0.4902  0.0830
  766MOL0     C 3293   3.041  10.631   8.572 -0.1787 -0.2600 -0.4208
  766MOL0     C 3294   3.103  10.681   8.680 -0.3060 -0.6609  0.1855
  766MOL0     C 3295   3.246  10.746   8.677  0.0163 -0.4602  0.4600
  766MOL0     C 3296   3.343  10.628   8.680 -0.4561 -0.7563 -0.1333
  766MOL0     C 3297   3.493  10.670   8.666  0.2485 -0.3127  0.3514
  766MOL0     C 3298   3.517  10.688   8.519  0.6104 -0.3809 -0.5795
  766MOL0     O 3299   3.656  10.687   8.502  0.0542 -0.7957 -0.4265
  766MOL0     C 3300   3.700  10.702   8.374 -0.5267 -0.0717 -0.5588
  766MOL0     C 3301   3.839  10.750   8.369  0.3453  1.2368  0.4864
  766MOL0     C 3302   3.905  10.745   8.241 -0.1593 -0.1554 -0.5626
  766MOL0     C 3303   4.054  10.759   8.238  0.1200 -0.5970 -0.0811
  766MOL0     C 3304   3.830  10.729   8.124 -1.4164 -0.6529 -0.6287
  766MOL0     C 3305   3.885  10.757   7.993  0.1332 -0.1790 -0.5795
  766MOL0     O 3306   3.834  10.668   7.905 -0.7522 -0.2352  0.4485
  766MOL0     C 3307   3.877  10.667   7.774  0.2772 -0.3063  0.1176
  766MOL0     C 3308   3.794  10.641   7.656 -0.5663  0.0386 -0.9070
  766MOL0     C 3309   3.861  10.621   7.536  0.4165 -0.5908 -0.5542
  766MOL0     C 3310   3.995  10.651   7.519 -0.7663  0.2248  1.1005
  766MOL0     O 3311   4.056  10.648   7.391  0.7276 -0.5461 -0.3509
  766MOL0     C 3312   3.975  10.699   7.281  0.4088 -0.4845  0.1596
  766MOL0     C 3313   4.079  10.702   7.164 -0.3196 -0.4831 -0.1989
  766MOL0     C 3314   4.004  10.735   7.030  0.3452  0.4763  0.2056
  766MOL0     C 3315   4.099  10.727   6.910 -0.2416 -0.1438 -0.0809
  766MOL0     C 3316   4.019  10.758   6.785  0.8323 -0.3902 -0.8629
  766MOL0     C 3317   4.106  10.776   6.659  0.1195 -0.3968 -0.0800
  766MOL0     C 3318   4.150  10.637   6.596  0.1906 -0.2604 -1.6113
  766MOL0     C 3319   4.130  10.636   6.446  0.1910 -0.8712  0.3079
  766MOL0    Cl 3320   3.959  10.600   6.400  0.7161  0.2220 -0.4663
  766MOL0     C 3321   4.073  10.684   7.628 -0.3719  0.3964 -0.3073
  766MOL0     C 3322   4.014  10.690   7.752  0.7300 -0.3234  0.3330
  766MOL0     O 3323   3.952  10.861   7.970  0.6320 -0.5672  0.0511
  766MOL0     C 3324   3.694  10.693   8.136 -0.1879 -1.6553  0.6283
  766MOL0     C 3325   3.638  10.668   8.260  0.2800 -0.4484 -0.2043
  766MOL0     N 3326   3.029  10.651   8.795 -0.1299  0.5806  0.4868
  766MOL0     N 3327   2.917  10.606   8.755  0.0531  0.8893 -0.4786
  766MOL0     C 3328   2.994  10.736   7.506 -0.1618  0.8629 -0.4880
  766MOL0     C 3329   3.065  10.784   7.391 -0.3241 -0.3575  0.6598
  766MOL0     C 3330   3.407  11.029   7.182  0.1717 -0.0745 -0.9056
  766MOL0     C 3331   3.538  11.036   7.181 -0.0984  0.4815 -0.6095
  766MOL0     C 3332   3.598  11.124   7.092 -1.2844  0.4091 -0.2101
  766MOL0     C 3333   3.524  11.202   6.999  0.1766  0.1286 -0.5192
  766MOL0     O 3334   3.592  11.272   6.905  0.0878 -0.5404 -0.6117
  766MOL0     C 3335   3.518  11.315   6.787  0.0120 -0.6674 -0.0518
  766MOL0     C 3336   3.487  11.206   6.680  0.1939 -0.9347 -0.3602
  766MOL0     C 3337   3.590  11.186   6.571 -0.5674 -1.2951  0.5958
  766MOL0     C 3338   3.600  11.299   6.469  0.2711  0.3185 -0.1741
  766MOL0     C 3339   3.679  11.413   6.513 -0.0563  0.3709  0.1598
  766MOL0     C 3340   3.729  11.520   6.542  0.1645 -0.2957  0.4223
  766MOL0     C 3341   3.384  11.204   7.018  0.1224 -0.2843  0.7391
  766MOL0     C 3342   3.326  11.115   7.111 -0.5450 -0.2911 -0.3457
  766MOL0     H 3343   3.246  11.028   7.555 -0.8254  0.7688  0.4405
  766MOL0     H 3344   3.145  10.926   7.750 -1.3867  0.3751  0.8773
  766MOL0     H 3345   2.900  10.546   7.715 -0.4293  2.7933 -1.2352
  766MOL0     H 3346   3.067  10.560   7.715  2.0953  3.8304 -1.5223
  766MOL0     H 3347   3.009  10.462   7.921 -1.0612  0.0888 -0.7872
  766MOL0     H 3348   3.054  10.625   7.965  0.0758  0.1899  1.3047
  766MOL0     H 3349   2.789  10.669   7.924  0.8834 -1.3460 -1.2742
  766MOL0     H 3350   2.762  10.502   7.929  1.0918 -1.6101  0.7394
  766MOL0     H 3351   2.908  10.469   8.137 -1.6044 -0.2536  0.6021
  766MOL0     H 3352   2.900  10.638   8.162  0.3261  0.8377 -1.3997
  766MOL0     H 3353   2.665  10.626   8.211 -2.8412 -0.8503  0.2395
  766MOL0     H 3354   2.657  10.464   8.130  1.8027 -0.7428  0.6296
  766MOL0     H 3355   2.666  10.392   8.354 -1.1911 -1.3491 -2.2953
  766MOL0     H 3356   2.845  10.394   8.321  0.8872  1.0574 -0.3741
  766MOL0     H 3357   2.848  10.630   8.401 -0.1068 -0.3623 -0.3621
  766MOL0     H 3358   2.686  10.610   8.473  0.1988  1.9202 -3.0082
  766MOL0     H 3359   2.869  10.398   8.553 -3.3234 -2.6848 -0.4741
  766MOL0     H 3360   2.745  10.489   8.629 -0.1590  2.7535 -0.6643
  766MOL0     H 3361   3.072  10.633   8.468  1.2028 -1.8164 -0.0824
  766MOL0     H 3362   3.253  10.798   8.581  2.6557  1.8778  1.7628
  766MOL0     H 3363   3.265  10.814   8.761  1.5471 -0.8770  0.4786
  766MOL0     H 3364   3.313  10.555   8.604 -3.8018  0.8027 -0.4726
  766MOL0     H 3365   3.330  10.577   8.776 -0.1691 -0.8764 -0.1548
  766MOL0     H 3366   3.560  10.589   8.695 -0.4389 -0.2659  2.2190
  766MOL0     H 3367   3.521  10.762   8.718 -1.5807 -0.2515  1.3196
  766MOL0     H 3368   3.473  10.779   8.478  0.4937  0.5903  1.5653
  766MOL0     H 3369   3.471  10.602   8.469 -0.5955  0.5139 -1.0537
  766MOL0     H 3370   3.898  10.770   8.458  3.5953  0.5738 -1.3777
  766MOL0     H 3371   4.082  10.833   8.313 -0.3158 -0.4388 -0.0717
  766MOL0     H 3372   4.096  10.661   8.259  1.0851  0.5495  4.2370
  766MOL0     H 3373   4.095  10.791   8.141  1.1970  1.1009  0.8761
  766MOL0     H 3374   3.686  10.641   7.670 -0.2289  1.3166  2.8005
  766MOL0     H 3375   3.794  10.604   7.453 -0.3224 -3.9491  0.5573
  766MOL0     H 3376   3.898  10.629   7.246 -1.7218  2.8286 -2.4694
  766MOL0     H 3377   3.927  10.794   7.308 -0.7197 -0.9662 -0.0831
  766MOL0     H 3378   4.155  10.777   7.187 -0.5884 -0.1072 -0.5317
  766MOL0     H 3379   4.122  10.604   7.144  1.3345  0.3364 -0.8267
  766MOL0     H 3380   3.950  10.827   7.055  0.3375 -0.6282  5.3672
  766MOL0     H 3381   3.932  10.656   7.009  1.4732 -1.9576  4.3768
  766MOL0     H 3382   4.189  10.789   6.919  0.4434 -0.8102 -2.0261
  766MOL0     H 3383   4.142  10.627   6.900  0.0599  0.1384 -1.8765
  766MOL0     H 3384   3.957  10.846   6.805 -1.2153 -1.9541  0.0472
  766MOL0     H 3385   3.958  10.668   6.772  0.7938 -0.1685 -2.4907
  766MOL0     H 3386   4.041  10.825   6.586  1.0132 -0.1766 -0.7455
  766MOL0     H 3387   4.187  10.844   6.689  0.5674 -0.3597 -1.3234
  766MOL0     H 3388   4.100  10.546   6.630  0.8012 -0.2899 -0.7726
  766MOL0     H 3389   4.255  10.624   6.620 -0.3666 -1.6370  0.3551
  766MOL0     H 3390   4.200  10.565   6.400  0.6150  0.0665 -0.5242
  766MOL0     H 3391   4.147  10.737   6.408 -1.1610  0.1914  2.3479
  766MOL0     H 3392   4.178  10.707   7.623 -0.1820 -0.4955 -0.5621
  766MOL0     H 3393   4.080  10.711   7.836  0.1071 -1.0429  1.0234
  766MOL0     H 3394   3.648  10.657   8.045  2.5083 -2.4556 -0.5491
  766MOL0     H 3395   3.543  10.615   8.261 -0.0664  0.1616 -0.0779
  766MOL0     H 3396   2.917  10.660   7.497 -0.0710  0.3108  2.3074
  766MOL0     H 3397   3.062  10.743   7.291  4.0869 -0.3300  0.3331
  766MOL0     H 3398   3.599  10.992   7.259 -3.8602 -1.1441  1.6772
  766MOL0     H 3399   3.706  11.130   7.092 -1.2009 -0.8003  0.1466
  766MOL0     H 3400   3.421  11.357   6.815  0.1424 -0.8474  0.7113
  766MOL0     H 3401   3.567  11.400   6.739  0.2974 -0.7121  0.1552
  766MOL0     H 3402   3.398  11.234   6.623  0.6745  0.4312 -0.4868
  766MOL0     H 3403   3.449  11.113   6.721  1.0598 -2.8668 -3.5451
  766MOL0     H 3404   3.561  11.094   6.520  0.0332 -1.2038  0.0731
  766MOL0     H 3405   3.693  11.167   6.605  0.3628 -0.1462 -1.3914
  766MOL0     H 3406   3.504  11.327   6.424  0.4946  0.1953 -0.7490
  766MOL0     H 3407   3.653  11.267   6.379  0.5337  3.1419 -1.1333
  766MOL0     H 3408   3.763  11.617   6.574 -0.8441  0.6137 -1.1429
  766MOL0     H 3409   3.326  11.272   6.958  0.2532  1.2077  2.2244
  766MOL0     H 3410   3.217  11.114   7.114 -0.5576  0.8007  0.2842
  767MOL0     O 3411   2.010   1.434   2.318  0.5250 -0.1893  1.0678
  767MOL0     C 3412   2.092   1.348   2.283 -0.9618 -0.3118 -0.4480
  767MOL0     O 3413   2.090   1.274   2.166  0.1497 -0.2901 -0.3975
  767MOL0     C 3414   1.967   1.268   2.104 -0.6812  1.0372 -0.1407
  767MOL0     C 3415   1.861   1.192   2.163  0.4168 -0.2328  0.0104
  767MOL0     C 3416   1.754   1.156   2.088  0.1576  0.2964  1.2830
  767MOL0     C 3417   1.735   1.212   1.959 -0.1507 -0.1168  0.2340
  767MOL0     O 3418   1.619   1.192   1.887 -0.0800 -1.2686 -0.7334
  767MOL0     C 3419   1.524   1.093   1.928 -0.1454 -0.4541  0.5675
  767MOL0     C 3420   1.402   1.108   1.842 -0.3420 -0.3041 -0.6590
  767MOL0     C 3421   1.428   1.133   1.694 -0.0790 -0.1328  0.2946
  767MOL0     C 3422   1.291   1.122   1.627  1.3816  0.0186  0.2416
  767MOL0     C 3423   1.305   1.130   1.475  0.7909  0.7305 -0.1581
  767MOL0     C 3424   1.185   1.187   1.389 -0.5587 -0.5812 -0.7050
  767MOL0     C 3425   1.064   1.106   1.386 -0.5509  0.3760 -0.0211
  767MOL0     C 3426   1.073   0.951   1.386  0.2371  0.6202  0.2239
  767MOL0     N 3427   0.949   0.884   1.432  0.1887 -0.1042 -0.3364
  767MOL0     C 3428   0.845   0.867   1.346 -1.4211 -0.2473 -0.8151
  767MOL0     C 3429   0.741   0.829   1.430 -0.3530 -0.3673  0.3659
  767MOL0     C 3430   0.599   0.800   1.385 -0.1288 -0.2780  0.3055
  767MOL0     C 3431   0.590   0.673   1.300  0.1668  0.5617 -0.2685
  767MOL0     C 3432   0.448   0.622   1.304 -0.7082 -0.6821  0.3251
  767MOL0     C 3433   0.353   0.724   1.232 -0.9556  0.1366 -0.5127
  767MOL0     O 3434   0.293   0.814   1.322 -0.6076  0.3585 -1.7312
  767MOL0     C 3435   0.181   0.784   1.395 -0.3887 -1.2361  0.0463
  767MOL0     C 3436   0.103   0.673   1.370  0.7834  1.1368 -0.4985
  767MOL0     C 3437  -0.002   0.634   1.458  0.0618  0.8177  0.1199
  767MOL0     C 3438  -0.070   0.498   1.433 -0.6721  0.5649 -0.5666
  767MOL0     C 3439  -0.021   0.718   1.576 -0.2000 -0.0692  0.6742
  767MOL0     C 3440  -0.122   0.686   1.675  0.3357 -0.2125  0.6775
  767MOL0     O 3441  -0.224   0.599   1.644  0.0369  0.4201  0.4253
  767MOL0     C 3442  -0.308   0.565   1.747  0.2245 -0.3320 -0.4382
  767MOL0     C 3443  -0.257   0.488   1.854  0.4887  0.4558  0.7668
  767MOL0     C 3444  -0.334   0.467   1.966 -0.4320  0.3325 -0.8715
  767MOL0     C 3445  -0.472   0.513   1.974  0.3799 -0.0685 -1.0565
  767MOL0     O 3446  -0.550   0.505   2.088 -0.1404 -0.0355 -0.1210
  767MOL0     C 3447  -0.550   0.382   2.160  0.0233 -0.5830  0.4579
  767MOL0     C 3448  -0.690   0.320   2.147 -0.6662 -0.1758 -0.3039
  767MOL0     C 3449  -0.781   0.357   2.278 -0.8426 -0.3974 -0.0596
  767MOL0     C 3450  -0.922   0.285   2.285 -0.3359  0.4852  0.5468
  767MOL0     C 3451  -0.996   0.305   2.157 -0.0585 -0.2191 -0.0551
  767MOL0     C 3452  -1.141   0.245   2.162  0.0393  1.0419  0.1877
  767MOL0     C 3453  -1.224   0.299   2.275 -0.5781 -0.4570 -0.7244
  767MOL0     C 3454  -1.371   0.267   2.271 -0.5096 -0.4435 -0.5325
  767MOL0    Cl 3455  -1.402   0.114   2.168 -0.5195 -0.1568 -0.4173
  767MOL0     C 3456  -0.519   0.579   1.859  0.0373  0.7160  0.9550
  767MOL0     C 3457  -0.447   0.607   1.746 -0.2043 -0.4037 -0.0577
  767MOL0     O 3458  -0.102   0.735   1.784 -0.6890  0.1675 -0.1624
  767MOL0     C 3459   0.053   0.838   1.592 -0.5430  0.1475  0.0416
  767MOL0     C 3460   0.158   0.863   1.504  0.4167 -0.7008  0.4892
  767MOL0     N 3461   0.788   0.819   1.556 -0.7302 -0.6472 -0.1304
  767MOL0     N 3462   0.909   0.860   1.555 -0.2401  0.6844  0.1471
  767MOL0     C 3463   1.839   1.286   1.894  0.7143  0.4391  0.0349
  767MOL0     C 3464   1.957   1.303   1.971 -0.4676  0.8930 -1.1323
  767MOL0     C 3465   2.200   1.325   2.386 -0.2413 -0.6067  0.1519
  767MOL0     C 3466   2.296   1.229   2.345  0.3599 -0.4608  0.0053
  767MOL0     C 3467   2.412   1.216   2.429 -0.0733 -0.1419  0.2599
  767MOL0     C 3468   2.423   1.276   2.551 -0.1680 -0.2711  0.1966
  767MOL0     O 3469   2.532   1.255   2.626 -0.0621  0.3108  0.5403
  767MOL0     C 3470   2.531   1.297   2.765  0.8395  0.1980 -0.2403
  767MOL0     C 3471   2.598   1.429   2.786 -1.8143 -1.2269 -0.1013
  767MOL0     C 3472   2.561   1.501   2.921 -0.4142  0.2686 -0.5489
  767MOL0     C 3473   2.638   1.626   2.931  0.7310 -0.1070  0.0307
  767MOL0     C 3474   2.610   1.729   2.824 -0.0583 -1.0361 -0.0495
  767MOL0     C 3475   2.610   1.802   2.726 -0.5396 -1.1889 -0.0465
  767MOL0     C 3476   2.313   1.356   2.593  0.2239  0.0517 -0.2513
  767MOL0     C 3477   2.213   1.400   2.512 -0.2358  0.2730 -0.2294
  767MOL0     H 3478   1.874   1.157   2.265 -2.0287 -0.3481  0.3397
  767MOL0     H 3479   1.679   1.085   2.121  0.4537  0.1873  1.7330
  767MOL0     H 3480   1.567   0.994   1.907 -1.4502 -1.1326  0.9999
  767MOL0     H 3481   1.497   1.106   2.033 -0.4295  1.6064  0.2713
  767MOL0     H 3482   1.332   1.028   1.865  0.8117 -0.6462  2.1058
  767MOL0     H 3483   1.345   1.193   1.880 -2.0826 -1.7647  0.1403
  767MOL0     H 3484   1.478   1.226   1.665 -0.9104  0.4820  0.8127
  767MOL0     H 3485   1.492   1.050   1.663  1.0684  0.3096  1.4103
  767MOL0     H 3486   1.239   1.030   1.656  3.0534 -0.3117  2.4087
  767MOL0     H 3487   1.233   1.211   1.655  0.8498 -0.6215  1.2257
  767MOL0     H 3488   1.386   1.201   1.455  2.2645 -0.8553 -0.0670
  767MOL0     H 3489   1.340   1.033   1.438 -0.1687 -0.4656  1.9235
  767MOL0     H 3490   1.162   1.288   1.425  1.6770 -0.5738  0.9299
  767MOL0     H 3491   1.213   1.201   1.284 -1.4595 -0.2244 -0.9095
  767MOL0     H 3492   1.012   1.126   1.480  0.0458 -2.3901  0.9771
  767MOL0     H 3493   0.996   1.130   1.303 -1.6544 -0.6056  0.5649
  767MOL0     H 3494   1.153   0.914   1.451  0.9689 -0.6528 -1.3507
  767MOL0     H 3495   1.100   0.918   1.285 -3.0532 -0.4044 -0.4127
  767MOL0     H 3496   0.839   0.894   1.241 -1.7321  0.4743 -0.6140
  767MOL0     H 3497   0.539   0.802   1.477 -1.0788  0.9390 -0.2967
  767MOL0     H 3498   0.559   0.881   1.322  0.5799 -1.3275 -1.5486
  767MOL0     H 3499   0.658   0.600   1.345 -1.8772  0.2067  2.4590
  767MOL0     H 3500   0.606   0.698   1.194 -0.2664  0.4978 -0.3502
  767MOL0     H 3501   0.411   0.592   1.402 -0.2382 -1.4237  0.2897
  767MOL0     H 3502   0.447   0.537   1.235  3.3359  0.5449 -1.5213
  767MOL0     H 3503   0.280   0.654   1.189 -0.7050 -1.2311  1.1747
  767MOL0     H 3504   0.399   0.780   1.150  0.3719  2.2749  1.5702
  767MOL0     H 3505   0.099   0.617   1.277  1.5099 -0.5697  0.4489
  767MOL0     H 3506  -0.179   0.506   1.419 -0.6012  0.7041 -1.0252
  767MOL0     H 3507  -0.023   0.438   1.355  1.2494 -0.1011  1.0306
  767MOL0     H 3508  -0.063   0.444   1.528 -2.0309  0.5391 -0.4596
  767MOL0     H 3509  -0.152   0.462   1.851 -0.0134 -1.6293  0.2710
  767MOL0     H 3510  -0.279   0.415   2.044  0.3334 -0.2497 -1.7837
  767MOL0     H 3511  -0.470   0.316   2.125  0.0925 -1.8480  2.8236
  767MOL0     H 3512  -0.522   0.407   2.263 -0.2489  1.3576  0.1158
  767MOL0     H 3513  -0.739   0.352   2.054  1.4172  1.0666 -1.0358
  767MOL0     H 3514  -0.670   0.212   2.149  1.6587  0.2197  1.9211
  767MOL0     H 3515  -0.811   0.462   2.275  1.0176  0.5838  5.2561
  767MOL0     H 3516  -0.718   0.353   2.366 -0.7847  2.3853  0.1011
  767MOL0     H 3517  -0.914   0.178   2.305 -0.3509  0.2043 -0.8846
  767MOL0     H 3518  -0.970   0.342   2.366  1.1507 -0.0805  1.8753
  767MOL0     H 3519  -0.939   0.260   2.076  0.7788  0.5197  0.1173
  767MOL0     H 3520  -0.991   0.412   2.140 -0.4128 -0.3506 -1.0193
  767MOL0     H 3521  -1.187   0.268   2.065 -1.5583 -3.4488 -0.3709
  767MOL0     H 3522  -1.134   0.136   2.170  1.8562  1.2625  3.3134
  767MOL0     H 3523  -1.215   0.405   2.300  2.9400 -0.8378  0.2110
  767MOL0     H 3524  -1.185   0.233   2.353  2.1954 -1.3036 -2.6730
  767MOL0     H 3525  -1.419   0.352   2.221  2.4191  0.0725 -2.7388
  767MOL0     H 3526  -1.410   0.256   2.372  0.2494  0.6990 -0.0972
  767MOL0     H 3527  -0.624   0.607   1.861 -0.4107 -0.3353 -2.0825
  767MOL0     H 3528  -0.482   0.661   1.659 -0.1246  0.9108  0.6895
  767MOL0     H 3529   0.057   0.901   1.681  3.3815 -1.3978  1.1860
  767MOL0     H 3530   0.225   0.948   1.508 -1.1804  0.7932 -2.2376
  767MOL0     H 3531   1.823   1.302   1.788 -2.8277 -1.9290  0.0312
  767MOL0     H 3532   2.058   1.322   1.935  0.9113 -1.7407  1.0336
  767MOL0     H 3533   2.286   1.168   2.256 -1.9468 -2.4495  1.5125
  767MOL0     H 3534   2.495   1.151   2.404  1.5019  1.5433  0.8699
  767MOL0     H 3535   2.429   1.299   2.803  0.0975  4.0364 -2.0026
  767MOL0     H 3536   2.584   1.217   2.817  2.5967  0.3223 -1.7311
  767MOL0     H 3537   2.572   1.497   2.705 -0.8643  0.8530  1.2445
  767MOL0     H 3538   2.705   1.407   2.783 -1.7929 -1.4035  1.1653
  767MOL0     H 3539   2.576   1.429   3.001  0.8012  1.9735  0.8207
  767MOL0     H 3540   2.452   1.513   2.926 -0.5498 -0.6640 -1.0408
  767MOL0     H 3541   2.744   1.602   2.928  1.3585  2.3993  0.1277
  767MOL0     H 3542   2.628   1.670   3.031 -1.1517  0.6291 -0.4433
  767MOL0     H 3543   2.609   1.868   2.642 -1.4684 -1.1616 -0.0237
  767MOL0     H 3544   2.301   1.407   2.688 -0.8470  2.5017 -1.6099
  767MOL0     H 3545   2.135   1.471   2.537 -0.1497  0.2699  0.0578
  768MOL0     O 3546   7.995   5.823  10.919  0.2009 -0.5690 -0.5493
  768MOL0     C 3547   8.049   5.715  10.945  1.1570 -0.5748 -0.0459
  768MOL0     O 3548   8.179   5.690  10.963  0.3747  0.5763  0.1009
  768MOL0     C 3549   8.262   5.799  10.947  0.0806 -0.2280 -0.3750
  768MOL0     C 3550   8.295   5.883  11.054 -0.2874  0.5667 -0.3417
  768MOL0     C 3551   8.397   5.982  11.040 -0.2635 -0.1054 -0.1271
  768MOL0     C 3552   8.451   6.012  10.917  0.7587 -0.3566 -0.5311
  768MOL0     O 3553   8.549   6.108  10.909  0.3664 -0.4976  0.3056
  768MOL0     C 3554   8.637   6.104  10.801 -0.4889  0.0619 -0.0272
  768MOL0     C 3555   8.752   6.191  10.807 -0.4809 -0.0355 -0.0207
  768MOL0     C 3556   8.723   6.340  10.782 -0.0568 -0.4556  0.2647
  768MOL0     C 3557   8.844   6.421  10.735 -0.1485  0.1603  0.5211
  768MOL0     C 3558   8.809   6.571  10.742  0.0190 -0.3543  0.9755
  768MOL0     C 3559   8.907   6.661  10.669 -0.0331  0.1845  0.5058
  768MOL0     C 3560   8.880   6.804  10.704  0.1767  1.0512  0.4342
  768MOL0     C 3561   8.984   6.913  10.641 -0.8034  0.1011  0.7997
  768MOL0     N 3562   8.970   7.049  10.693  0.4809  0.8931 -0.1366
  768MOL0     C 3563   9.044   7.165  10.664 -0.7429 -0.6432  0.2081
  768MOL0     C 3564   8.961   7.267  10.710 -0.4123  0.3154 -0.3385
  768MOL0     C 3565   8.999   7.414  10.731  0.5071  0.1580  0.6285
  768MOL0     C 3566   9.047   7.451  10.882 -0.4876 -0.2428  0.2674
  768MOL0     C 3567   9.052   7.608  10.897 -0.0136 -0.0527 -0.0601
  768MOL0     C 3568   9.156   7.671  10.801 -0.1824 -0.6820  0.7744
  768MOL0     O 3569   9.286   7.613  10.816 -0.4547  0.5260  0.3063
  768MOL0     C 3570   9.386   7.635  10.717  0.1109 -1.4854 -0.2486
  768MOL0     C 3571   9.512   7.580  10.735 -0.1002 -0.0993  0.3478
  768MOL0     C 3572   9.617   7.605  10.649 -0.1460  1.1017  0.0271
  768MOL0     C 3573   9.747   7.530  10.667  0.1789  0.2106  0.4259
  768MOL0     C 3574   9.602   7.699  10.542 -0.0316  0.2233 -0.6446
  768MOL0     C 3575   9.707   7.738  10.443  0.4571  0.5719 -0.8550
  768MOL0     O 3576   9.674   7.842  10.352  0.5741  0.1859 -0.4019
  768MOL0     C 3577   9.750   7.889  10.250 -0.7280  0.1381  0.3542
  768MOL0     C 3578   9.741   8.021  10.229 -0.1826  0.5508 -0.0914
  768MOL0     C 3579   9.806   8.090  10.132  0.5172  0.9959  0.2248
  768MOL0     C 3580   9.901   8.020  10.044 -0.7735  0.2737 -0.1304
  768MOL0     O 3581   9.973   8.099   9.960 -0.0733  0.5844  0.4005
  768MOL0     C 3582  10.074   8.034   9.877 -0.7260 -0.5056  0.0187
  768MOL0     C 3583  10.151   8.148   9.820 -0.6785  0.2165  0.1164
  768MOL0     C 3584  10.265   8.108   9.726  0.1498 -0.8554 -0.0996
  768MOL0     C 3585  10.403   8.103   9.801 -0.1703 -0.3477 -1.2377
  768MOL0     C 3586  10.519   8.060   9.707 -0.4534 -0.6525  0.4174
  768MOL0     C 3587  10.531   7.908   9.688  0.7739 -0.7023  0.2625
  768MOL0     C 3588  10.575   7.871   9.546  0.6441  0.9294 -0.0429
  768MOL0     C 3589  10.692   7.938   9.491  0.0951  0.3304 -0.3627
  768MOL0    Cl 3590  10.830   7.884   9.599 -0.5509 -0.4702  0.0737
  768MOL0     C 3591   9.914   7.886  10.061 -0.9940  0.6080  0.0413
  768MOL0     C 3592   9.845   7.818  10.164 -0.0581  0.0163 -0.1673
  768MOL0     O 3593   9.816   7.673  10.447  0.2980  0.1337  0.1726
  768MOL0     C 3594   9.475   7.757  10.523  0.2219  0.7659 -0.2331
  768MOL0     C 3595   9.368   7.712  10.597  0.0333 -0.2675  0.3719
  768MOL0     N 3596   8.845   7.213  10.767 -0.3288  1.0385 -0.6231
  768MOL0     N 3597   8.850   7.092  10.752  0.1847  0.2131 -0.1517
  768MOL0     C 3598   8.412   5.928  10.816 -0.3778  0.7264 -1.2118
  768MOL0     C 3599   8.322   5.825  10.827 -0.0869  0.5275 -0.8992
  768MOL0     C 3600   7.958   5.603  10.988  0.3276 -0.4427  0.5917
  768MOL0     C 3601   7.821   5.627  10.993  0.1189 -0.6616  0.3516
  768MOL0     C 3602   7.725   5.529  11.028 -0.5749  0.6793  0.4651
  768MOL0     C 3603   7.777   5.394  11.053 -0.2483  0.3154  0.4466
  768MOL0     O 3604   7.707   5.275  11.089  0.2140 -0.1856  0.1444
  768MOL0     C 3605   7.567   5.285  11.123  0.6153  0.4824  0.1388
  768MOL0     C 3606   7.464   5.248  11.010 -0.3262 -0.3202 -0.3461
  768MOL0     C 3607   7.501   5.313  10.874  0.0266  0.6093 -0.1343
  768MOL0     C 3608   7.401   5.257  10.767 -0.7266  0.4766 -0.5992
  768MOL0     C 3609   7.437   5.301  10.630  0.2091 -0.3134 -0.7300
  768MOL0     C 3610   7.474   5.330  10.520 -0.9952  0.6659  0.0038
  768MOL0     C 3611   7.921   5.377  11.048 -0.3647  1.2869 -0.0517
  768MOL0     C 3612   8.012   5.477  11.016  0.2188  0.0652  0.4292
  768MOL0     H 3613   8.266   5.855  11.155  2.0315 -2.3785 -0.3603
  768MOL0     H 3614   8.411   6.039  11.131 -2.2012 -2.0628  1.5230
  768MOL0     H 3615   8.672   6.003  10.778 -2.5469 -0.7650  0.1762
  768MOL0     H 3616   8.578   6.144  10.718 -0.8141  0.9882  0.6296
  768MOL0     H 3617   8.803   6.192  10.904  0.8241  5.3597 -0.4446
  768MOL0     H 3618   8.825   6.159  10.731  0.9750  2.2561  0.3081
  768MOL0     H 3619   8.639   6.351  10.713  0.4644 -0.5281 -0.3893
  768MOL0     H 3620   8.704   6.387  10.879  4.7385  1.2265  0.6318
  768MOL0     H 3621   8.935   6.406  10.794  1.7172 -1.6500 -2.5576
  768MOL0     H 3622   8.861   6.386  10.633 -1.8980  1.7918 -0.4016
  768MOL0     H 3623   8.709   6.583  10.700 -0.7504 -0.8719  2.6004
  768MOL0     H 3624   8.805   6.595  10.848  1.9823  2.9091  0.4394
  768MOL0     H 3625   9.005   6.626  10.704 -1.9830 -3.8359  2.6042
  768MOL0     H 3626   8.894   6.658  10.560  2.2683 -0.8687  0.1867
  768MOL0     H 3627   8.776   6.825  10.676 -0.6186 -2.8935 -0.1479
  768MOL0     H 3628   8.888   6.821  10.812 -4.6455 -0.4043  1.2618
  768MOL0     H 3629   8.968   6.922  10.533 -2.6713  0.3656  1.0642
  768MOL0     H 3630   9.084   6.871  10.657 -1.1657 -4.1049 -4.7950
  768MOL0     H 3631   9.139   7.184  10.616 -0.9786 -0.0942 -0.0431
  768MOL0     H 3632   9.078   7.443  10.661  1.0492 -1.7234  0.4185
  768MOL0     H 3633   8.905   7.467  10.715 -0.0492 -1.7153 -3.4290
  768MOL0     H 3634   9.142   7.398  10.890 -1.5832 -2.2297  0.6549
  768MOL0     H 3635   8.965   7.408  10.941 -1.5681  0.0647 -0.9690
  768MOL0     H 3636   9.085   7.644  10.994  1.4127  1.5432 -1.0890
  768MOL0     H 3637   8.950   7.642  10.875 -0.7069 -3.7190 -3.8410
  768MOL0     H 3638   9.157   7.779  10.817  0.7621 -0.7918  1.5245
  768MOL0     H 3639   9.116   7.661  10.699  3.1598  4.0767 -1.3730
  768MOL0     H 3640   9.522   7.515  10.822 -1.5394 -1.5636 -0.5373
  768MOL0     H 3641   9.760   7.462  10.751  2.5299 -1.0195 -0.8224
  768MOL0     H 3642   9.761   7.468  10.578 -4.3914  0.4614 -0.7247
  768MOL0     H 3643   9.834   7.597  10.667  0.2608  0.1183 -0.2097
  768MOL0     H 3644   9.671   8.070  10.296 -0.7009 -2.5927  1.8635
  768MOL0     H 3645   9.783   8.195  10.117 -1.3785  0.8178  1.4359
  768MOL0     H 3646  10.141   7.969   9.934  0.4668 -0.1624 -0.9471
  768MOL0     H 3647  10.031   7.977   9.794  0.5631  0.0256 -1.0439
  768MOL0     H 3648  10.088   8.226   9.776 -1.0737 -0.3672 -0.3795
  768MOL0     H 3649  10.205   8.190   9.905  2.4964  0.0498 -1.6503
  768MOL0     H 3650  10.275   8.192   9.656 -1.6104 -1.2208 -0.8272
  768MOL0     H 3651  10.247   8.021   9.662 -0.5860  1.4889 -3.3319
  768MOL0     H 3652  10.420   8.200   9.847  0.4328 -1.1819  0.3736
  768MOL0     H 3653  10.390   8.028   9.880  2.6018  1.0030  0.6543
  768MOL0     H 3654  10.619   8.094   9.735 -1.3438  2.0350  0.6867
  768MOL0     H 3655  10.504   8.119   9.616  4.1174  0.8929  0.4124
  768MOL0     H 3656  10.589   7.866   9.771  1.0098  2.0376  1.6213
  768MOL0     H 3657  10.430   7.870   9.704  1.1081 -0.7055  2.8942
  768MOL0     H 3658  10.487   7.867   9.482 -0.3220  0.0198  1.2982
  768MOL0     H 3659  10.604   7.765   9.550  3.0853  1.5559  1.7418
  768MOL0     H 3660  10.671   8.044   9.476 -1.7530 -0.1275 -1.2932
  768MOL0     H 3661  10.725   7.900   9.394  2.0047  2.2867 -0.5391
  768MOL0     H 3662   9.973   7.823   9.995 -0.3802  0.2009  0.9647
  768MOL0     H 3663   9.857   7.710  10.163 -0.8800 -0.0875  0.2746
  768MOL0     H 3664   9.450   7.825  10.443 -2.5315  0.2575  0.0735
  768MOL0     H 3665   9.269   7.750  10.574  0.3660 -0.3380 -1.2482
  768MOL0     H 3666   8.456   5.937  10.717  0.9558 -1.3486 -0.8929
  768MOL0     H 3667   8.297   5.757  10.746  2.2181  1.8189 -2.8004
  768MOL0     H 3668   7.788   5.729  10.976 -1.7940 -1.4810 -1.3692
  768MOL0     H 3669   7.620   5.551  11.045 -1.0052 -0.6041 -0.3635
  768MOL0     H 3670   7.551   5.207  11.198  0.0818 -0.0869 -0.5539
  768MOL0     H 3671   7.534   5.376  11.175 -2.5419  0.6928 -1.9290
  768MOL0     H 3672   7.366   5.289  11.035  0.8275  1.4744  1.5909
  768MOL0     H 3673   7.473   5.140  10.998  1.9761 -0.3964  1.3268
  768MOL0     H 3674   7.606   5.299  10.848  0.8778  3.6244  1.1916
  768MOL0     H 3675   7.471   5.419  10.875 -2.5646 -0.0535  1.2724
  768MOL0     H 3676   7.306   5.302  10.795  0.6666  2.5382  1.2211
  768MOL0     H 3677   7.418   5.149  10.769  1.8458  0.8212  1.2941
  768MOL0     H 3678   7.519   5.367  10.429 -0.0298 -2.1905 -0.7967
  768MOL0     H 3679   7.955   5.275  11.065 -2.0257  0.4635 -1.3123
  768MOL0     H 3680   8.118   5.462  10.999  0.2069  2.2578 -2.2801
  769MOL0     O 3681   9.320   6.177   5.720 -0.3870 -0.0164  0.1140
  769MOL0     C 3682   9.241   6.210   5.631 -0.7547  0.6691 -0.2746
  769MOL0     O 3683   9.110   6.174   5.634 -0.6045 -0.5456  0.4706
  769MOL0     C 3684   9.074   6.071   5.716  0.1231  0.5584 -0.3393
  769MOL0     C 3685   8.947   6.086   5.776  0.2440 -0.5108  0.2194
  769MOL0     C 3686   8.903   5.988   5.868  0.6884 -0.4823  0.0611
  769MOL0     C 3687   8.975   5.874   5.906 -0.1990  0.4206 -1.6018
  769MOL0     O 3688   8.925   5.782   5.998 -0.7048  0.2052  0.0825
  769MOL0     C 3689   8.985   5.650   6.012  0.3385 -0.7185 -0.7308
  769MOL0     C 3690   8.907   5.572   6.117 -0.9350  0.3898 -1.0569
  769MOL0     C 3691   8.771   5.554   6.065 -0.0631  0.4241 -0.7980
  769MOL0     C 3692   8.723   5.418   6.107 -0.1236  0.0979 -0.9946
  769MOL0     C 3693   8.578   5.389   6.050 -0.2135 -0.6026 -1.2584
  769MOL0     C 3694   8.556   5.377   5.891  0.9884  0.3557 -0.2080
  769MOL0     C 3695   8.655   5.285   5.829  0.8908 -0.3818  0.0577
  769MOL0     C 3696   8.608   5.251   5.688  0.2426 -0.6566  0.0633
  769MOL0     N 3697   8.698   5.155   5.630 -0.4385 -0.0945  0.3235
  769MOL0     C 3698   8.720   5.137   5.494 -0.7472  0.4136 -0.4196
  769MOL0     C 3699   8.799   5.026   5.475 -1.5371  0.5868 -0.3903
  769MOL0     C 3700   8.843   4.956   5.348 -1.1162 -1.1326 -0.9694
  769MOL0     C 3701   8.921   5.051   5.265 -0.2489 -0.1811  0.1359
  769MOL0     C 3702   9.055   5.104   5.325 -0.0071  0.2700 -0.3518
  769MOL0     C 3703   9.122   5.195   5.232  0.2553 -0.8149  0.6356
  769MOL0     O 3704   9.253   5.207   5.286  0.4467  0.8267  0.5539
  769MOL0     C 3705   9.334   5.299   5.235 -0.4200 -0.1853 -0.3043
  769MOL0     C 3706   9.318   5.350   5.111  0.7843 -1.3833  0.0445
  769MOL0     C 3707   9.399   5.446   5.061  0.2278  0.0824  0.2506
  769MOL0     C 3708   9.384   5.493   4.921 -0.1476 -0.0880  0.3498
  769MOL0     C 3709   9.508   5.491   5.140  0.6769  0.3273  0.6782
  769MOL0     C 3710   9.606   5.588   5.090  0.0870  0.3906 -0.6298
  769MOL0     O 3711   9.737   5.551   5.117 -0.1895 -0.9431  0.1743
  769MOL0     C 3712   9.838   5.638   5.072 -0.7185  0.6186  0.1454
  769MOL0     C 3713   9.927   5.595   4.977 -0.6905 -0.3919 -0.7283
  769MOL0     C 3714  10.027   5.682   4.921 -0.4504 -0.8334  0.2287
  769MOL0     C 3715  10.039   5.815   4.970  0.3499  0.0903  0.5795
  769MOL0     O 3716  10.128   5.911   4.936 -0.1824  0.8371 -0.3545
  769MOL0     C 3717  10.228   5.893   4.836  0.0990  0.6154  0.7981
  769MOL0     C 3718  10.369   5.848   4.892 -0.0980 -0.5959  0.6547
  769MOL0     C 3719  10.374   5.713   4.966  0.8292 -0.7168 -0.5736
  769MOL0     C 3720  10.517   5.665   4.982 -0.4416  0.1566 -0.1017
  769MOL0     C 3721  10.529   5.526   5.052 -0.1494 -0.3208  0.9036
  769MOL0     C 3722  10.489   5.530   5.198  0.6356  0.6295 -0.1523
  769MOL0     C 3723  10.563   5.625   5.286  0.0850  0.1603 -0.0594
  769MOL0     C 3724  10.704   5.579   5.311  0.2990 -0.1364 -0.6054
  769MOL0    Cl 3725  10.705   5.440   5.409  0.4798  0.0635 -0.4173
  769MOL0     C 3726   9.940   5.857   5.059  0.6678  0.3306 -0.0163
  769MOL0     C 3727   9.852   5.762   5.120 -0.0254 -0.5482  0.2071
  769MOL0     O 3728   9.565   5.692   5.039 -0.3058  0.1309  1.3411
  769MOL0     C 3729   9.526   5.438   5.268  0.0509 -0.3908 -0.7903
  769MOL0     C 3730   9.440   5.344   5.313  0.4010  0.2226  0.5142
  769MOL0     N 3731   8.829   4.977   5.607 -0.5649  0.3523  0.1886
  769MOL0     N 3732   8.761   5.052   5.689 -0.5652 -0.0397  0.6048
  769MOL0     C 3733   9.087   5.855   5.837  0.6210  0.4043 -0.0427
  769MOL0     C 3734   9.146   5.950   5.750 -0.1367 -0.0507  1.0352
  769MOL0     C 3735   9.275   6.320   5.533 -0.1659 -1.4976 -0.1178
  769MOL0     C 3736   9.394   6.396   5.549 -0.1350 -0.9660 -0.6056
  769MOL0     C 3737   9.416   6.504   5.464 -0.6872 -0.0420 -0.5950
  769MOL0     C 3738   9.329   6.525   5.354  0.1070 -0.3258 -0.0453
  769MOL0     O 3739   9.377   6.629   5.276 -0.0409 -0.2771 -0.8638
  769MOL0     C 3740   9.313   6.641   5.145 -0.1117 -0.2501 -0.0037
  769MOL0     C 3741   9.401   6.708   5.042  0.3806  0.0255  0.5796
  769MOL0     C 3742   9.424   6.855   5.044 -0.1955  0.7545  0.3911
  769MOL0     C 3743   9.301   6.941   5.017 -0.6655  0.1777 -0.0684
  769MOL0     C 3744   9.325   7.079   5.004 -0.9171 -0.4563  0.4198
  769MOL0     C 3745   9.361   7.187   4.977  0.1519  0.0825  0.6842
  769MOL0     C 3746   9.203   6.465   5.346 -0.0553  0.6333 -0.7709
  769MOL0     C 3747   9.174   6.370   5.440 -0.2889 -0.1005  0.5324
  769MOL0     H 3748   8.902   6.182   5.752  0.1093 -0.5830  0.1870
  769MOL0     H 3749   8.821   5.997   5.939 -0.4564 -1.5434 -1.0624
  769MOL0     H 3750   8.991   5.595   5.917  3.1326 -1.7204 -0.0962
  769MOL0     H 3751   9.086   5.664   6.053 -0.8014 -0.8287  2.3500
  769MOL0     H 3752   8.946   5.475   6.147 -2.0858 -0.0969 -1.0754
  769MOL0     H 3753   8.898   5.631   6.209 -0.0033 -0.3651 -0.4651
  769MOL0     H 3754   8.704   5.635   6.098  0.9918  0.7082  0.7530
  769MOL0     H 3755   8.752   5.558   5.958 -2.7319  0.5554 -0.3960
  769MOL0     H 3756   8.786   5.333   6.078  1.2194  0.4886  0.6993
  769MOL0     H 3757   8.719   5.415   6.216  0.9858 -2.4334 -0.9607
  769MOL0     H 3758   8.535   5.302   6.098  0.4966  0.0273  0.6253
  769MOL0     H 3759   8.515   5.467   6.094  0.4045 -0.5840 -0.3606
  769MOL0     H 3760   8.453   5.347   5.870  1.3687 -1.4991  0.3565
  769MOL0     H 3761   8.576   5.471   5.839 -0.1250  0.2686 -0.8048
  769MOL0     H 3762   8.758   5.321   5.828  1.3717 -1.6039  1.9812
  769MOL0     H 3763   8.660   5.192   5.886  1.0415 -1.5799 -1.7927
  769MOL0     H 3764   8.620   5.342   5.628  1.7553 -0.4077  0.7006
  769MOL0     H 3765   8.501   5.227   5.683 -0.2391  1.1877  0.7193
  769MOL0     H 3766   8.690   5.189   5.403 -0.8918  0.5452 -0.2964
  769MOL0     H 3767   8.910   4.873   5.374  1.9629  1.0799 -1.1731
  769MOL0     H 3768   8.750   4.922   5.302 -1.3757 -2.7074  0.6081
  769MOL0     H 3769   8.858   5.140   5.268 -1.0835 -0.7614  0.1962
  769MOL0     H 3770   8.936   5.018   5.162 -0.2888  3.4799 -1.1826
  769MOL0     H 3771   9.119   5.016   5.336  2.1859  2.1487  4.4931
  769MOL0     H 3772   9.036   5.153   5.421  0.5100  0.3475 -0.2898
  769MOL0     H 3773   9.063   5.287   5.226  1.5830 -0.0384 -1.7071
  769MOL0     H 3774   9.122   5.165   5.127  0.5192  4.4581 -1.1822
  769MOL0     H 3775   9.241   5.312   5.045 -2.2455  1.0280  1.9141
  769MOL0     H 3776   9.478   5.472   4.869  1.3969 -0.6828  3.1721
  769MOL0     H 3777   9.312   5.441   4.857  3.1584 -2.1589 -1.9908
  769MOL0     H 3778   9.368   5.601   4.915 -1.8108 -0.3797 -2.8582
  769MOL0     H 3779   9.915   5.500   4.926 -0.2969 -0.3868 -0.8365
  769MOL0     H 3780  10.104   5.649   4.853 -0.5149 -0.8204  0.1494
  769MOL0     H 3781  10.196   5.825   4.756  1.5585  0.5071  0.2890
  769MOL0     H 3782  10.235   5.990   4.787 -1.9547 -0.8526 -2.8447
  769MOL0     H 3783  10.446   5.849   4.815  0.6244  0.1624  1.3648
  769MOL0     H 3784  10.394   5.925   4.966 -0.7487  0.7324 -0.4495
  769MOL0     H 3785  10.310   5.644   4.911 -2.5673 -2.0150  4.2957
  769MOL0     H 3786  10.318   5.723   5.060 -1.3564  1.3356 -1.9786
  769MOL0     H 3787  10.561   5.663   4.882  4.5761 -2.2800  1.7859
  769MOL0     H 3788  10.578   5.739   5.036 -2.1522  1.5386  0.0194
  769MOL0     H 3789  10.631   5.488   5.051 -0.7024 -1.9602 -1.0655
  769MOL0     H 3790  10.462   5.460   4.995  0.3982  2.7265 -3.8915
  769MOL0     H 3791  10.384   5.557   5.182  0.8755  0.9398 -1.3040
  769MOL0     H 3792  10.484   5.427   5.236 -4.1490 -0.7238 -3.4763
  769MOL0     H 3793  10.518   5.629   5.385  0.0827 -3.2291  0.1847
  769MOL0     H 3794  10.575   5.725   5.242 -1.6277 -0.3259 -1.7507
  769MOL0     H 3795  10.753   5.659   5.367  1.4026 -0.0574 -1.6386
  769MOL0     H 3796  10.768   5.562   5.224 -3.3578 -1.1183 -3.3667
  769MOL0     H 3797   9.939   5.962   5.087  1.0440 -0.4767  3.4989
  769MOL0     H 3798   9.803   5.789   5.213  1.2351  1.2348  0.4141
  769MOL0     H 3799   9.608   5.473   5.329 -1.3930  2.9751 -0.5362
  769MOL0     H 3800   9.463   5.307   5.412  3.3339  0.2736 -0.0550
  769MOL0     H 3801   9.137   5.759   5.850 -0.2435 -0.2145 -1.1190
  769MOL0     H 3802   9.244   5.932   5.708 -0.4589 -0.6176  0.5145
  769MOL0     H 3803   9.462   6.378   5.631  0.4931  0.0608 -0.8785
  769MOL0     H 3804   9.502   6.571   5.460 -2.4049  2.2283 -2.2051
  769MOL0     H 3805   9.291   6.543   5.104 -2.2089  0.6049 -1.0934
  769MOL0     H 3806   9.223   6.705   5.144 -1.2006 -1.7175 -1.2554
  769MOL0     H 3807   9.349   6.692   4.947  0.4857  1.9206  0.1566
  769MOL0     H 3808   9.492   6.648   5.043  0.0511 -0.5957 -1.1706
  769MOL0     H 3809   9.502   6.880   4.971  0.2608 -1.9651 -0.1744
  769MOL0     H 3810   9.469   6.873   5.142  0.8544 -1.3512  0.3515
  769MOL0     H 3811   9.226   6.925   5.094 -0.6237 -0.5903 -0.1836
  769MOL0     H 3812   9.269   6.909   4.918  1.7381 -0.8447 -0.5901
  769MOL0     H 3813   9.402   7.282   4.948 -2.1478 -0.1589 -4.4009
  769MOL0     H 3814   9.132   6.500   5.271 -1.4982  1.8903  1.0684
  769MOL0     H 3815   9.081   6.317   5.424 -0.0953 -0.2552 -0.0700
  770MOL0     O 3816   6.268  10.528   9.536 -0.2858 -0.1816 -0.2876
  770MOL0     C 3817   6.167  10.473   9.577 -0.7405  0.0978  0.4467
  770MOL0     O 3818   6.120  10.349   9.530  0.4838  0.2419  0.1465
  770MOL0     C 3819   6.195  10.295   9.430  0.4552 -0.4508 -0.0107
  770MOL0     C 3820   6.295  10.210   9.480 -0.6930  0.1934  0.2561
  770MOL0     C 3821   6.386  10.149   9.389  0.6411 -0.3464  0.2461
  770MOL0     C 3822   6.378  10.180   9.258  1.5636  0.6234 -0.8844
  770MOL0     O 3823   6.452  10.107   9.166 -0.7315  0.7782  0.1618
  770MOL0     C 3824   6.589  10.061   9.202  0.2208  0.0694  0.6301
  770MOL0     C 3825   6.598   9.915   9.233  0.0211 -0.2344 -1.0275
  770MOL0     C 3826   6.554   9.828   9.120 -0.6802 -0.2386 -0.1718
  770MOL0     C 3827   6.630   9.855   8.990 -0.4857 -0.5907 -0.9885
  770MOL0     C 3828   6.567   9.774   8.871  0.2978  0.3897 -0.2221
  770MOL0     C 3829   6.429   9.825   8.817  0.0032  0.0548 -0.7099
  770MOL0     C 3830   6.397   9.784   8.670  0.0498 -0.7524  0.0651
  770MOL0     C 3831   6.266   9.829   8.596 -0.5927 -0.2406 -0.0424
  770MOL0     N 3832   6.159   9.732   8.613  1.2955 -0.6867 -0.7599
  770MOL0     C 3833   6.091   9.682   8.728 -0.1074 -0.1390  0.1003
  770MOL0     C 3834   6.011   9.588   8.680 -0.0475  0.0019 -0.2229
  770MOL0     C 3835   5.950   9.482   8.767 -0.0982  1.0867 -0.1913
  770MOL0     C 3836   5.871   9.523   8.883  0.1968 -0.4576  0.4627
  770MOL0     C 3837   5.804   9.404   8.960 -0.2690 -0.6512 -1.0450
  770MOL0     C 3838   5.733   9.439   9.090 -0.7123  0.1175 -0.8023
  770MOL0     O 3839   5.844   9.464   9.194  0.9958  0.3958 -0.2903
  770MOL0     C 3840   5.814   9.525   9.309 -0.8295  0.1985  0.0960
  770MOL0     C 3841   5.903   9.537   9.417 -0.0400 -0.1452 -0.9273
  770MOL0     C 3842   5.869   9.583   9.540  0.4691  0.1803 -1.0910
  770MOL0     C 3843   5.976   9.594   9.636 -0.3419 -0.3968 -0.1832
  770MOL0     C 3844   5.735   9.625   9.574  0.5241  0.8758 -0.3923
  770MOL0     C 3845   5.680   9.676   9.700  0.6393  0.2595  0.4419
  770MOL0     O 3846   5.546   9.705   9.707  0.3739 -0.0235 -0.3608
  770MOL0     C 3847   5.494   9.741   9.830 -0.0519 -0.0677 -0.7449
  770MOL0     C 3848   5.416   9.650   9.899 -0.4613  0.3189  0.3046
  770MOL0     C 3849   5.352   9.687  10.019  0.3015  0.2217  0.7558
  770MOL0     C 3850   5.361   9.820  10.072  0.2327  1.3165  0.5154
  770MOL0     O 3851   5.275   9.837  10.174 -1.0767 -0.2023 -0.5137
  770MOL0     C 3852   5.199   9.964  10.168  0.2467 -0.3298 -0.0059
  770MOL0     C 3853   5.105   9.980  10.284 -0.1381 -0.3520  0.1275
  770MOL0     C 3854   5.159   9.998  10.427 -0.8701  0.5681  0.1024
  770MOL0     C 3855   5.251  10.112  10.475 -0.3942 -0.5971 -1.5255
  770MOL0     C 3856   5.396  10.088  10.428  1.0251  0.0813 -0.4004
  770MOL0     C 3857   5.465  10.225  10.453 -1.1731 -0.0898 -0.1770
  770MOL0     C 3858   5.615  10.205  10.433  0.0847  0.5505 -0.9138
  770MOL0     C 3859   5.686  10.338  10.419 -0.5908  0.1769 -0.8943
  770MOL0    Cl 3860   5.626  10.441  10.275  0.2409 -0.7085  0.4174
  770MOL0     C 3861   5.448   9.900  10.006  0.0190 -0.0377 -0.2462
  770MOL0     C 3862   5.519   9.862   9.895  0.0265  0.1358 -0.1484
  770MOL0     O 3863   5.761   9.706   9.788 -0.0183  0.1279  0.3183
  770MOL0     C 3864   5.643   9.616   9.468  0.1242  0.2555  0.9254
  770MOL0     C 3865   5.689   9.566   9.341 -0.1175 -0.4192  1.1808
  770MOL0     N 3866   6.022   9.579   8.544  0.6952 -0.3583 -0.3410
  770MOL0     N 3867   6.098   9.676   8.510 -0.0135 -0.4355 -0.5826
  770MOL0     C 3868   6.281  10.273   9.209 -0.7165 -0.5790 -0.3118
  770MOL0     C 3869   6.188  10.330   9.292 -0.1115  0.0715 -0.6122
  770MOL0     C 3870   6.097  10.515   9.701 -0.2534 -0.9904 -0.7217
  770MOL0     C 3871   5.969  10.468   9.736 -0.4315 -0.1996 -0.2828
  770MOL0     C 3872   5.891  10.516   9.842  0.9198 -0.6713  0.2644
  770MOL0     C 3873   5.943  10.616   9.922 -1.3876  0.4539  0.4977
  770MOL0     O 3874   5.868  10.656  10.029 -0.2081  0.3235  0.5945
  770MOL0     C 3875   5.922  10.712  10.146  0.0841  0.1405 -0.7243
  770MOL0     C 3876   5.858  10.843  10.165  0.2806 -0.2617 -0.7075
  770MOL0     C 3877   5.892  10.943  10.055 -0.2555  0.0868  0.4028
  770MOL0     C 3878   5.811  11.074  10.053 -0.0574  0.6929  0.0785
  770MOL0     C 3879   5.827  11.167  10.172  0.0935 -0.2002 -0.2372
  770MOL0     C 3880   5.823  11.249  10.267  0.1332 -1.0164  0.2532
  770MOL0     C 3881   6.080  10.661   9.902  2.0702  0.3720  0.3234
  770MOL0     C 3882   6.154  10.612   9.791 -0.3333 -0.7690  0.0292
  770MOL0     H 3883   6.295  10.178   9.583 -1.6036  0.6884  0.4180
  770MOL0     H 3884   6.444  10.069   9.435  0.9366  0.0831  0.6181
  770MOL0     H 3885   6.654  10.086   9.117  0.0916 -1.4075  0.0638
  770MOL0     H 3886   6.628  10.124   9.283 -0.2353  0.7624  0.3224
  770MOL0     H 3887   6.701   9.890   9.260 -0.6212 -0.5194  1.4282
  770MOL0     H 3888   6.537   9.888   9.320 -0.7937  0.5112 -1.3565
  770MOL0     H 3889   6.568   9.726   9.155 -0.2038 -0.6116 -1.4070
  770MOL0     H 3890   6.448   9.844   9.099 -0.7598 -1.7274 -1.0531
  770MOL0     H 3891   6.634   9.960   8.959 -1.4736 -0.1352  0.3380
  770MOL0     H 3892   6.730   9.813   9.006 -0.8198 -1.3167 -0.7624
  770MOL0     H 3893   6.643   9.773   8.792  0.6077 -0.1294  0.0783
  770MOL0     H 3894   6.551   9.670   8.899 -1.1471  0.7191  0.2634
  770MOL0     H 3895   6.359   9.775   8.885  3.2167 -1.8818  1.4117
  770MOL0     H 3896   6.423   9.932   8.840 -0.6821 -0.7603  3.8054
  770MOL0     H 3897   6.474   9.825   8.604 -1.2125 -0.6562 -1.3848
  770MOL0     H 3898   6.404   9.675   8.666  1.8032 -0.7123  0.9171
  770MOL0     H 3899   6.294   9.834   8.491  0.6015 -1.0424  0.2178
  770MOL0     H 3900   6.244   9.933   8.624  2.2612  0.5570 -0.4014
  770MOL0     H 3901   6.121   9.711   8.828 -0.3941 -2.3117  0.8673
  770MOL0     H 3902   5.888   9.425   8.696  0.4230  0.3365 -0.0554
  770MOL0     H 3903   6.026   9.413   8.803  1.3327  1.2722 -2.6636
  770MOL0     H 3904   5.796   9.596   8.852 -0.5859 -1.9095 -1.2604
  770MOL0     H 3905   5.932   9.575   8.957  0.4354  2.2530 -1.4735
  770MOL0     H 3906   5.888   9.340   8.984  0.6654  1.1492  0.7479
  770MOL0     H 3907   5.730   9.352   8.897  0.2909  1.1357 -3.3056
  770MOL0     H 3908   5.668   9.355   9.116 -1.6839  1.2938  0.7487
  770MOL0     H 3909   5.674   9.529   9.071 -0.7499  0.3633  0.3849
  770MOL0     H 3910   6.005   9.506   9.399  0.3973  0.5942  0.1628
  770MOL0     H 3911   6.001   9.700   9.654 -2.5934  0.0819  0.4799
  770MOL0     H 3912   5.951   9.539   9.728 -1.9226  3.2768  1.8157
  770MOL0     H 3913   6.065   9.543   9.600  0.7072  0.8207  0.5663
  770MOL0     H 3914   5.425   9.553   9.851 -0.2581  0.4780  0.0144
  770MOL0     H 3915   5.276   9.619  10.058 -0.5556  0.3094 -0.6848
  770MOL0     H 3916   5.265  10.051  10.169  0.4043 -0.4479  1.2596
  770MOL0     H 3917   5.140   9.964  10.076 -1.8539 -1.0517  1.2504
  770MOL0     H 3918   5.031  10.054  10.253  0.0791  0.7906  2.1758
  770MOL0     H 3919   5.045   9.889  10.290  0.1413 -0.4810  1.1706
  770MOL0     H 3920   5.206   9.909  10.469  1.4743  3.6331  4.8509
  770MOL0     H 3921   5.069  10.005  10.489 -1.2776  1.2872 -0.5505
  770MOL0     H 3922   5.216  10.200  10.419 -1.4167  0.3760  0.5374
  770MOL0     H 3923   5.252  10.138  10.581  2.2747 -2.1851 -1.0638
  770MOL0     H 3924   5.412  10.070  10.321  1.1766  0.3681 -0.4285
  770MOL0     H 3925   5.443  10.009  10.487 -1.0645 -2.7389 -2.2693
  770MOL0     H 3926   5.431  10.307  10.387  2.7493  1.8237 -0.0932
  770MOL0     H 3927   5.465  10.253  10.559 -1.2485  0.4395 -0.3101
  770MOL0     H 3928   5.630  10.150  10.340  1.6119 -0.7068  0.0148
  770MOL0     H 3929   5.673  10.167  10.518  1.8816  3.1417 -0.8892
  770MOL0     H 3930   5.793  10.319  10.410 -0.1833 -0.2342  3.1702
  770MOL0     H 3931   5.681  10.400  10.509 -0.0108  1.3949 -1.6773
  770MOL0     H 3932   5.478   9.999  10.039  1.5994 -0.9862  1.3025
  770MOL0     H 3933   5.585   9.922   9.834  4.1294 -2.8220  0.9314
  770MOL0     H 3934   5.542   9.654   9.475 -0.4722 -1.0940  0.0555
  770MOL0     H 3935   5.599   9.549   9.283 -1.1525 -0.6831  2.8119
  770MOL0     H 3936   6.278  10.306   9.105  0.4630 -0.5701 -0.3597
  770MOL0     H 3937   6.110  10.401   9.266  0.3637  0.7735 -0.1508
  770MOL0     H 3938   5.930  10.384   9.679 -2.3294 -0.0026  0.6560
  770MOL0     H 3939   5.789  10.482   9.859  1.2771 -2.4350 -0.9027
  770MOL0     H 3940   5.897  10.650  10.233  1.5676 -1.7489 -1.5588
  770MOL0     H 3941   6.031  10.711  10.151  0.0834 -0.8714 -0.6466
  770MOL0     H 3942   5.911  10.877  10.255 -0.2706  0.0532 -0.5007
  770MOL0     H 3943   5.750  10.840  10.182 -0.1827 -0.0802 -3.3223
  770MOL0     H 3944   5.866  10.898   9.958  1.1803  2.5156 -1.2217
  770MOL0     H 3945   5.999  10.966  10.049 -0.9623  3.6728 -0.9838
  770MOL0     H 3946   5.707  11.039  10.059  0.3949 -0.7363 -0.0429
  770MOL0     H 3947   5.828  11.130   9.961  1.4059  3.6479  2.0003
  770MOL0     H 3948   5.837  11.314  10.352  2.4271 -0.2387 -0.6223
  770MOL0     H 3949   6.120  10.735   9.971  2.1134 -1.7483  2.7339
  770MOL0     H 3950   6.248  10.657   9.762 -0.4680  0.5030  1.4710
  771MOL0     O 3951   9.387   2.741   9.695  0.5057  0.6708 -0.5537
  771MOL0     C 3952   9.339   2.820   9.775 -1.6328  0.2560 -0.3444
  771MOL0     O 3953   9.401   2.939   9.810  0.1542  0.2928 -0.5890
  771MOL0     C 3954   9.513   2.971   9.739  0.2262  0.6408 -0.7110
  771MOL0     C 3955   9.645   2.980   9.798  0.5869 -0.3719  0.2396
  771MOL0     C 3956   9.752   3.022   9.720 -0.5268 -0.9623 -0.1407
  771MOL0     C 3957   9.726   3.061   9.581  0.2492 -0.4072  0.2374
  771MOL0     O 3958   9.830   3.093   9.497  0.3038  0.3674  0.2684
  771MOL0     C 3959   9.951   3.157   9.527  0.8729 -0.0391  0.5748
  771MOL0     C 3960   9.983   3.249   9.410 -0.0129  0.2417  0.1470
  771MOL0     C 3961  10.102   3.351   9.440  1.0190 -0.7180  0.5658
  771MOL0     C 3962  10.238   3.276   9.454 -0.2518 -0.2171 -0.0728
  771MOL0     C 3963  10.352   3.379   9.462  0.3171  0.1044  0.2877
  771MOL0     C 3964  10.493   3.325   9.412  0.9488  0.8228 -0.5496
  771MOL0     C 3965  10.525   3.187   9.480 -0.4864  0.1205 -0.0640
  771MOL0     C 3966  10.675   3.139   9.450  1.3618 -0.5428 -0.7555
  771MOL0     N 3967  10.697   3.119   9.308  0.1438 -0.6082  0.2206
  771MOL0     C 3968  10.645   3.025   9.222 -1.6713 -0.0487 -0.1684
  771MOL0     C 3969  10.708   3.052   9.100 -0.5973 -0.1086 -0.6222
  771MOL0     C 3970  10.664   2.987   8.972 -0.0428 -0.4966  0.3437
  771MOL0     C 3971  10.669   2.833   8.997 -0.3103  1.1768  0.6489
  771MOL0     C 3972  10.813   2.775   8.999  0.2838  0.6660  0.4539
  771MOL0     C 3973  10.873   2.766   8.862 -0.1549  0.5594  0.7333
  771MOL0     O 3974  11.010   2.727   8.862 -0.1628  0.0189 -0.5278
  771MOL0     C 3975  11.075   2.701   8.747  1.3910  0.1588 -0.2113
  771MOL0     C 3976  11.019   2.695   8.614  0.3554  0.5660  0.2275
  771MOL0     C 3977  11.095   2.644   8.502 -0.3779  0.3227  0.5052
  771MOL0     C 3978  11.021   2.620   8.370 -1.0076  0.1349  0.2209
  771MOL0     C 3979  11.224   2.606   8.510 -0.1726  0.5985 -0.2755
  771MOL0     C 3980  11.306   2.541   8.400  0.5242 -0.2065  0.6688
  771MOL0     O 3981  11.314   2.615   8.284 -0.6164  0.2660  0.1950
  771MOL0     C 3982  11.334   2.560   8.159  0.6412 -0.6567 -0.1420
  771MOL0     C 3983  11.363   2.429   8.133 -0.2403  0.1921 -0.2194
  771MOL0     C 3984  11.392   2.383   8.002 -0.5576 -1.2657  0.2608
  771MOL0     C 3985  11.401   2.476   7.902 -0.5267 -0.3983  0.4113
  771MOL0     O 3986  11.406   2.431   7.767  0.2050  0.3405 -0.6740
  771MOL0     C 3987  11.507   2.490   7.691  0.2999 -0.1100  0.0343
  771MOL0     C 3988  11.583   2.379   7.615 -0.4009 -0.0795 -0.8664
  771MOL0     C 3989  11.642   2.264   7.685  0.5362  0.1869  0.0707
  771MOL0     C 3990  11.733   2.187   7.590 -0.1266  1.0710 -0.2457
  771MOL0     C 3991  11.795   2.078   7.674 -0.4257  0.1069  0.1649
  771MOL0     C 3992  11.909   2.016   7.604 -0.7138 -0.3443 -0.3339
  771MOL0     C 3993  11.978   1.906   7.686 -0.3500 -0.2342  0.8157
  771MOL0     C 3994  12.090   1.843   7.599 -0.2425  0.2399  0.7761
  771MOL0    Cl 3995  12.192   1.737   7.694 -0.0544 -0.0773  0.1819
  771MOL0     C 3996  11.376   2.616   7.929 -0.6245  1.1471 -0.4065
  771MOL0     C 3997  11.337   2.656   8.053 -0.6258 -1.0039 -0.8065
  771MOL0     O 3998  11.369   2.435   8.423 -0.1912  0.5087  0.2711
  771MOL0     C 3999  11.280   2.614   8.640 -0.0464 -0.3716  0.2140
  771MOL0     C 4000  11.212   2.657   8.759  0.7902 -0.5224 -0.6947
  771MOL0     N 4001  10.802   3.150   9.127  0.5545 -0.1598 -0.6293
  771MOL0     N 4002  10.797   3.188   9.248 -0.4254 -0.3630  0.3094
  771MOL0     C 4003   9.597   3.062   9.527  0.2995 -0.2011  0.4972
  771MOL0     C 4004   9.491   3.016   9.608  0.7044 -1.2206 -0.4938
  771MOL0     C 4005   9.227   2.777   9.862  0.1410  1.2869  0.2950
  771MOL0     C 4006   9.198   2.849   9.973 -0.1279  0.1652 -1.1169
  771MOL0     C 4007   9.082   2.834  10.047  0.7774  0.3240  0.2659
  771MOL0     C 4008   8.991   2.738  10.019  0.3053 -0.1735 -0.1726
  771MOL0     O 4009   8.904   2.702  10.118  0.7627  0.3088 -0.3246
  771MOL0     C 4010   8.766   2.725  10.088  0.4764  0.1937  0.4562
  771MOL0     C 4011   8.681   2.722  10.216 -0.3902  0.7053 -0.3126
  771MOL0     C 4012   8.538   2.756  10.191 -0.2787 -0.1950 -0.3879
  771MOL0     C 4013   8.454   2.743  10.319 -0.5606  0.5850  0.1548
  771MOL0     C 4014   8.321   2.789  10.289 -1.0299  0.5564 -0.1414
  771MOL0     C 4015   8.215   2.843  10.271  0.2602 -0.2035  1.0404
  771MOL0     C 4016   9.013   2.663   9.897 -0.5874  0.7839  0.7542
  771MOL0     C 4017   9.130   2.677   9.818 -0.8532 -0.3257 -0.5338
  771MOL0     H 4018   9.642   2.952   9.903 -2.0744  1.9648  0.9022
  771MOL0     H 4019   9.855   3.014   9.753 -1.4025 -2.3016  2.4990
  771MOL0     H 4020   9.945   3.221   9.616  1.8473 -1.1677  1.4864
  771MOL0     H 4021  10.038   3.090   9.527  0.2811 -0.9254 -2.1773
  771MOL0     H 4022  10.018   3.185   9.328  0.6520  3.1651 -1.9830
  771MOL0     H 4023   9.893   3.297   9.371  0.0303 -0.8846 -1.4163
  771MOL0     H 4024  10.113   3.408   9.348  2.2922 -0.6983  0.7113
  771MOL0     H 4025  10.082   3.430   9.513 -0.0995  0.0777 -0.5547
  771MOL0     H 4026  10.239   3.217   9.546  0.2790  1.3616  0.9672
  771MOL0     H 4027  10.251   3.204   9.373  1.3111  1.3429 -1.2697
  771MOL0     H 4028  10.341   3.471   9.404  5.2715  2.5717  2.6009
  771MOL0     H 4029  10.363   3.418   9.564  0.7248  2.6960 -0.6749
  771MOL0     H 4030  10.494   3.311   9.303  0.3601  0.9911 -0.5802
  771MOL0     H 4031  10.568   3.400   9.437  1.0703  0.6496 -0.3879
  771MOL0     H 4032  10.508   3.204   9.587  0.3506  2.7431 -0.2828
  771MOL0     H 4033  10.461   3.118   9.424  2.0885 -2.0739 -0.5522
  771MOL0     H 4034  10.691   3.040   9.494  5.2812  0.0873 -0.4147
  771MOL0     H 4035  10.737   3.209   9.507  1.7403 -2.6422  1.6691
  771MOL0     H 4036  10.573   2.946   9.242  0.3541 -1.5928  1.5753
  771MOL0     H 4037  10.561   3.010   8.945 -0.1722  0.8913  1.8838
  771MOL0     H 4038  10.732   3.016   8.891  0.0835  0.8789  0.9166
  771MOL0     H 4039  10.603   2.792   8.920 -1.0982  0.6112  1.6048
  771MOL0     H 4040  10.624   2.806   9.093 -2.5129 -1.6561 -0.9993
  771MOL0     H 4041  10.810   2.671   9.031 -0.5254  0.5266 -0.0380
  771MOL0     H 4042  10.883   2.836   9.056 -0.0075  1.3371  0.1100
  771MOL0     H 4043  10.858   2.855   8.800  1.1523 -1.5525 -2.9336
  771MOL0     H 4044  10.825   2.694   8.795  2.7913 -0.7369 -0.1717
  771MOL0     H 4045  10.915   2.719   8.592  1.0556  1.2928 -2.7313
  771MOL0     H 4046  10.912   2.614   8.376 -1.0524  0.1823 -0.4460
  771MOL0     H 4047  11.043   2.703   8.302  0.4041 -0.5438 -0.2001
  771MOL0     H 4048  11.046   2.537   8.303 -1.4608 -0.4994  0.8246
  771MOL0     H 4049  11.364   2.352   8.209 -2.0824  0.3920  0.0390
  771MOL0     H 4050  11.413   2.277   8.002 -1.2274 -1.4083  0.7573
  771MOL0     H 4051  11.464   2.556   7.615  2.5537  0.0161 -1.2197
  771MOL0     H 4052  11.575   2.548   7.755 -0.6006  1.6438 -0.5190
  771MOL0     H 4053  11.514   2.346   7.537  0.4175 -0.4276 -1.4547
  771MOL0     H 4054  11.660   2.425   7.552  0.8188 -0.8358  0.0279
  771MOL0     H 4055  11.565   2.203   7.734  0.4615 -0.8030 -1.2193
  771MOL0     H 4056  11.701   2.305   7.768 -0.7341 -0.7356  1.5002
  771MOL0     H 4057  11.683   2.150   7.500 -0.5470  1.6656 -0.2599
  771MOL0     H 4058  11.809   2.256   7.554 -1.0414  2.1011 -0.2504
  771MOL0     H 4059  11.721   2.001   7.699 -0.6827 -0.0661 -1.0759
  771MOL0     H 4060  11.830   2.125   7.767 -0.6088  1.4267 -0.4123
  771MOL0     H 4061  11.877   1.976   7.507  0.2454 -0.4183 -0.6315
  771MOL0     H 4062  11.975   2.099   7.576 -2.3080  0.3261 -2.3476
  771MOL0     H 4063  11.912   1.821   7.704 -0.6657 -0.5482 -1.4813
  771MOL0     H 4064  12.017   1.938   7.782 -0.0526  0.6202  0.4185
  771MOL0     H 4065  12.155   1.928   7.579 -2.5031  2.9959  4.0308
  771MOL0     H 4066  12.043   1.806   7.507 -0.4679  0.3997  0.8278
  771MOL0     H 4067  11.367   2.682   7.843 -0.6787  0.4500 -0.9481
  771MOL0     H 4068  11.304   2.758   8.067 -0.2719 -1.0025  0.0226
  771MOL0     H 4069  11.380   2.579   8.661 -0.6170 -2.8352 -0.7984
  771MOL0     H 4070  11.260   2.638   8.854 -3.0721 -0.8027  1.4247
  771MOL0     H 4071   9.582   3.106   9.429 -0.3257 -1.6511 -0.0756
  771MOL0     H 4072   9.386   3.033   9.585  0.2779 -2.8243  0.1479
  771MOL0     H 4073   9.272   2.926   9.995  0.5608 -0.8218  0.1869
  771MOL0     H 4074   9.058   2.906  10.125 -2.5362  0.8815 -1.1097
  771MOL0     H 4075   8.755   2.822  10.039 -1.4685  0.1664  0.7561
  771MOL0     H 4076   8.722   2.656  10.016  1.7071  2.0100 -2.1882
  771MOL0     H 4077   8.725   2.796  10.284 -0.8440  1.5067 -0.8766
  771MOL0     H 4078   8.702   2.623  10.258  0.7509  2.0012  2.4510
  771MOL0     H 4079   8.499   2.696  10.108  0.3306  1.0287 -1.6056
  771MOL0     H 4080   8.547   2.859  10.154  2.1877  0.7205  2.3743
  771MOL0     H 4081   8.493   2.807  10.398  1.2079 -0.3105  0.0702
  771MOL0     H 4082   8.468   2.642  10.360 -1.4715  0.0994 -0.6818
  771MOL0     H 4083   8.122   2.887  10.244  0.5742  1.4962  2.5148
  771MOL0     H 4084   8.950   2.581   9.863  2.2097 -1.3088  0.2732
  771MOL0     H 4085   9.141   2.620   9.726 -1.8055 -0.3657 -0.6337
  772MOL0     O 4086   4.960  10.364   7.320 -0.1972  0.0688 -0.0147
  772MOL0     C 4087   4.899  10.370   7.217  0.1121 -0.2525  0.0979
  772MOL0     O 4088   4.815  10.274   7.162  0.1509 -0.1700  0.1356
  772MOL0     C 4089   4.787  10.168   7.241 -0.2032 -0.0903 -0.2877
  772MOL0     C 4090   4.879  10.065   7.249 -0.1568  0.7645 -0.4135
  772MOL0     C 4091   4.855   9.955   7.340  0.5034 -0.3816 -1.2119
  772MOL0     C 4092   4.756   9.966   7.442  1.1906  0.5406 -0.3459
  772MOL0     O 4093   4.731   9.862   7.530 -0.4759  0.3538 -0.6057
  772MOL0     C 4094   4.729   9.894   7.666 -0.0340 -0.1776 -0.0462
  772MOL0     C 4095   4.730   9.770   7.756 -0.0820 -0.4480  0.6484
  772MOL0     C 4096   4.577   9.718   7.785  0.1348  0.2645  0.6286
  772MOL0     C 4097   4.490   9.692   7.665  0.4226  1.6537  0.5650
  772MOL0     C 4098   4.556   9.577   7.586  0.4514  0.0632 -0.1456
  772MOL0     C 4099   4.528   9.442   7.652  0.8195  1.3475  0.1440
  772MOL0     C 4100   4.590   9.340   7.560 -1.0246  0.8962 -0.1296
  772MOL0     C 4101   4.542   9.198   7.573  0.1716 -0.0634  0.1858
  772MOL0     N 4102   4.571   9.142   7.697  0.1836  0.0050 -0.0014
  772MOL0     C 4103   4.471   9.118   7.774 -0.1921  0.4337 -0.7608
  772MOL0     C 4104   4.530   9.099   7.893 -0.3281 -0.1362 -0.4693
  772MOL0     C 4105   4.468   9.083   8.026 -1.1718 -0.0794 -0.0954
  772MOL0     C 4106   4.501   9.201   8.113  0.6151 -0.6031  0.0585
  772MOL0     C 4107   4.415   9.322   8.077 -0.8524  0.0494 -0.6903
  772MOL0     C 4108   4.295   9.335   8.169  0.6554  0.1221  0.9395
  772MOL0     O 4109   4.193   9.239   8.124 -0.4314 -0.6653  0.2776
  772MOL0     C 4110   4.103   9.203   8.215  1.0199 -0.4203  0.3620
  772MOL0     C 4111   4.052   9.301   8.299  0.1016  0.0904 -0.8230
  772MOL0     C 4112   3.935   9.286   8.381  0.3082 -0.1474  0.6980
  772MOL0     C 4113   3.899   9.399   8.469 -0.0832  0.5984  0.7109
  772MOL0     C 4114   3.869   9.160   8.379 -0.0543 -0.3415 -0.1098
  772MOL0     C 4115   3.763   9.110   8.462  1.6017 -0.9813  0.2033
  772MOL0     O 4116   3.661   9.045   8.392 -0.5299 -0.8177  0.6430
  772MOL0     C 4117   3.534   9.024   8.437 -0.7459 -0.8628  0.7558
  772MOL0     C 4118   3.475   9.068   8.559  0.3798  0.1498  0.1635
  772MOL0     C 4119   3.352   9.020   8.605  0.7104  0.4228 -0.7747
  772MOL0     C 4120   3.283   8.925   8.530 -0.8132  0.6780  0.1704
  772MOL0     O 4121   3.157   8.874   8.562 -0.7741  0.1735  0.1857
  772MOL0     C 4122   3.082   8.927   8.671 -0.5964 -0.1125  0.0688
  772MOL0     C 4123   2.938   8.886   8.635 -0.3361  0.0056 -0.2841
  772MOL0     C 4124   2.880   8.980   8.526  1.1852  0.5269 -0.0415
  772MOL0     C 4125   2.737   8.945   8.488  0.5743  1.0923 -0.0741
  772MOL0     C 4126   2.679   9.048   8.393  1.0127 -0.6751  0.2786
  772MOL0     C 4127   2.642   9.189   8.433 -0.9722  0.6819  0.6344
  772MOL0     C 4128   2.539   9.190   8.546 -0.8075 -0.9646  0.4274
  772MOL0     C 4129   2.501   9.337   8.575  0.0614  1.0615 -0.4755
  772MOL0    Cl 4130   2.426   9.360   8.735 -0.3679  0.4332  0.7574
  772MOL0     C 4131   3.343   8.871   8.423 -0.1852 -0.6012 -0.6608
  772MOL0     C 4132   3.463   8.922   8.369 -0.1035  0.3370  0.1414
  772MOL0     O 4133   3.760   9.152   8.582  0.5619  0.2173 -0.2098
  772MOL0     C 4134   3.922   9.067   8.281 -0.2120  0.1728 -0.8173
  772MOL0     C 4135   4.039   9.081   8.204 -0.6691  0.3506  0.2373
  772MOL0     N 4136   4.671   9.089   7.875  0.4968 -0.3997  0.5840
  772MOL0     N 4137   4.694   9.127   7.752  0.3015 -1.2101  0.5082
  772MOL0     C 4138   4.668  10.075   7.432  0.4408  0.2698  0.3581
  772MOL0     C 4139   4.680  10.171   7.332  0.5842  0.5523  0.0518
  772MOL0     C 4140   4.917  10.498   7.150 -0.1232  0.5811  0.0220
  772MOL0     C 4141   4.846  10.537   7.042 -0.1502  0.0064 -0.2060
  772MOL0     C 4142   4.871  10.647   6.960  0.2030 -0.4879  0.4849
  772MOL0     C 4143   4.981  10.719   6.999 -1.0873 -1.6786 -0.9183
  772MOL0     O 4144   5.019  10.836   6.936  0.3373 -0.0205  0.3029
  772MOL0     C 4145   4.953  10.887   6.820 -0.1916 -0.0347  0.1650
  772MOL0     C 4146   5.007  11.022   6.802 -0.8151  0.3353  0.8919
  772MOL0     C 4147   4.954  11.094   6.665  0.1328  1.0269 -0.1344
  772MOL0     C 4148   4.997  11.243   6.643  0.0513 -0.0057  0.3232
  772MOL0     C 4149   5.101  11.269   6.547  1.1618  0.2699 -0.2098
  772MOL0     C 4150   5.185  11.309   6.471  0.1128 -0.1428  0.2926
  772MOL0     C 4151   5.064  10.683   7.106 -0.4539 -0.0970 -0.1578
  772MOL0     C 4152   5.027  10.580   7.186  0.3407  0.7847 -0.6664
  772MOL0     H 4153   4.970  10.064   7.190 -0.3918  0.0002 -0.7786
  772MOL0     H 4154   4.916   9.865   7.344 -0.9949 -1.3739  0.3808
  772MOL0     H 4155   4.823   9.947   7.685 -0.8019  1.2872 -0.1319
  772MOL0     H 4156   4.639   9.952   7.687  0.7516  0.6396  1.2196
  772MOL0     H 4157   4.786   9.693   7.703  1.9875  1.1552  0.4209
  772MOL0     H 4158   4.770   9.795   7.855 -2.7361  4.1992  0.8373
  772MOL0     H 4159   4.591   9.629   7.847 -0.1145  1.8487  3.0916
  772MOL0     H 4160   4.531   9.797   7.845 -2.3931 -0.6308 -0.0078
  772MOL0     H 4161   4.388   9.666   7.695 -0.2012  1.1058 -1.8028
  772MOL0     H 4162   4.478   9.783   7.606 -2.9152  3.0102  3.0224
  772MOL0     H 4163   4.519   9.572   7.483  0.1917 -0.7733 -0.0203
  772MOL0     H 4164   4.663   9.588   7.566  0.0541  0.7025 -2.1616
  772MOL0     H 4165   4.563   9.429   7.755 -2.2294  1.2332  1.2545
  772MOL0     H 4166   4.419   9.430   7.656  1.1106 -2.0176  0.7700
  772MOL0     H 4167   4.584   9.359   7.452  2.4906  0.8689 -0.4513
  772MOL0     H 4168   4.698   9.342   7.577 -1.0707  2.4401  0.1262
  772MOL0     H 4169   4.560   9.132   7.488 -3.6613 -2.5739  1.0541
  772MOL0     H 4170   4.433   9.193   7.566  0.2927 -2.9194 -0.7196
  772MOL0     H 4171   4.364   9.123   7.755  0.0158  2.0280 -1.7355
  772MOL0     H 4172   4.360   9.063   8.024 -0.9849 -1.3281  0.6614
  772MOL0     H 4173   4.518   9.004   8.083 -0.9966 -0.2013 -0.4157
  772MOL0     H 4174   4.603   9.234   8.093  0.2733  0.3664 -0.1878
  772MOL0     H 4175   4.484   9.174   8.218 -1.8178 -0.2232 -0.1676
  772MOL0     H 4176   4.399   9.328   7.969  0.0633  2.7229 -0.7494
  772MOL0     H 4177   4.475   9.412   8.091 -0.2836 -0.4130 -0.1108
  772MOL0     H 4178   4.256   9.436   8.160 -0.1297 -0.2323  0.2831
  772MOL0     H 4179   4.327   9.307   8.270  1.2459 -2.6815  0.0836
  772MOL0     H 4180   4.100   9.398   8.302  0.1589  0.0537 -0.5192
  772MOL0     H 4181   3.897   9.494   8.414 -1.6053 -0.4049 -1.0515
  772MOL0     H 4182   3.798   9.397   8.511 -1.2647  2.9134 -1.7248
  772MOL0     H 4183   3.976   9.409   8.547 -0.3041 -1.1139  1.1773
  772MOL0     H 4184   3.525   9.141   8.621 -1.0525 -0.2382  1.8809
  772MOL0     H 4185   3.308   9.043   8.702  4.0816  2.0345  0.5435
  772MOL0     H 4186   3.116   8.889   8.767 -2.3542 -1.7182  0.1240
  772MOL0     H 4187   3.085   9.037   8.672 -0.1115 -0.0799 -1.7633
  772MOL0     H 4188   2.934   8.781   8.605  1.1931 -0.0379 -0.3957
  772MOL0     H 4189   2.878   8.896   8.726 -0.0413 -2.2312  0.2149
  772MOL0     H 4190   2.945   8.967   8.440  1.6968  2.0419  0.0987
  772MOL0     H 4191   2.893   9.084   8.557  3.0467 -0.5326  3.3092
  772MOL0     H 4192   2.738   8.843   8.450  0.3101  0.2150  2.1334
  772MOL0     H 4193   2.669   8.943   8.574  1.1107 -3.2982  0.4744
  772MOL0     H 4194   2.583   9.004   8.364  1.1300 -1.1136  0.5628
  772MOL0     H 4195   2.752   9.052   8.312  2.1213  1.4510  1.3020
  772MOL0     H 4196   2.731   9.243   8.466  0.6977  0.5457 -3.1335
  772MOL0     H 4197   2.606   9.243   8.345  1.9133  0.7514 -0.6187
  772MOL0     H 4198   2.574   9.144   8.639 -0.9445 -0.1055  0.9188
  772MOL0     H 4199   2.456   9.122   8.520 -0.0872 -1.3538 -0.9624
  772MOL0     H 4200   2.430   9.373   8.501  2.7183  0.9073 -3.3070
  772MOL0     H 4201   2.590   9.401   8.571  1.8391 -1.1965  0.0312
  772MOL0     H 4202   3.302   8.785   8.372  0.5220 -0.3519 -1.6985
  772MOL0     H 4203   3.507   8.892   8.274 -2.0955  0.1816 -0.7715
  772MOL0     H 4204   3.886   8.965   8.272  3.0640 -1.0632 -1.6100
  772MOL0     H 4205   4.087   9.002   8.147  0.2011  0.4563  0.7892
  772MOL0     H 4206   4.598  10.086   7.514 -0.4487  1.3049 -0.5098
  772MOL0     H 4207   4.617  10.257   7.314 -0.4516  0.1978  1.7808
  772MOL0     H 4208   4.757  10.484   7.010 -1.3714  1.6633  0.2981
  772MOL0     H 4209   4.802  10.666   6.878 -0.1570 -1.2916  0.5912
  772MOL0     H 4210   4.964  10.832   6.726  0.4328 -1.0906  0.8440
  772MOL0     H 4211   4.850  10.899   6.854  0.4876 -2.2263  3.4351
  772MOL0     H 4212   5.116  11.006   6.799 -0.7216  0.6556  1.9151
  772MOL0     H 4213   4.996  11.081   6.894 -3.2277  1.7210 -0.1884
  772MOL0     H 4214   4.846  11.093   6.678  0.3067 -0.7929  1.7622
  772MOL0     H 4215   4.978  11.036   6.575  0.9840  2.2353 -0.7233
  772MOL0     H 4216   5.037  11.273   6.740 -0.4911  0.1379  0.5029
  772MOL0     H 4217   4.906  11.297   6.618  0.1302 -0.1870 -0.4065
  772MOL0     H 4218   5.266  11.335   6.406 -1.8818  2.3320 -1.3833
  772MOL0     H 4219   5.154  10.734   7.141  0.0847 -0.5846 -0.7990
  772MOL0     H 4220   5.092  10.559   7.271 -0.6570  0.6346  0.0703
  773MOL0     O 4221   8.793   1.388   7.360  0.6776 -0.6374  0.2766
  773MOL0     C 4222   8.743   1.427   7.464  0.0705 -0.3454 -0.8674
  773MOL0     O 4223   8.804   1.497   7.562 -0.0540  0.2504 -0.6141
  773MOL0     C 4224   8.914   1.563   7.516 -0.6318  0.5775 -0.8624
  773MOL0     C 4225   9.037   1.523   7.567  0.3607  0.3542 -0.9007
  773MOL0     C 4226   9.155   1.586   7.526 -0.4592  0.2636 -0.3495
  773MOL0     C 4227   9.142   1.692   7.434 -1.4266  0.5244  0.4953
  773MOL0     O 4228   9.263   1.727   7.388  0.1524  0.4041 -0.4594
  773MOL0     C 4229   9.274   1.764   7.250  0.3513 -0.2571 -0.2867
  773MOL0     C 4230   9.416   1.801   7.215 -0.6197  0.4265 -0.0041
  773MOL0     C 4231   9.460   1.921   7.294  0.3116 -1.1292 -0.6076
  773MOL0     C 4232   9.602   1.952   7.280  0.5187  0.4259 -0.1947
  773MOL0     C 4233   9.657   2.062   7.373 -0.5870 -0.2670 -0.9271
  773MOL0     C 4234   9.610   2.059   7.517 -0.6367  0.0491  1.6070
  773MOL0     C 4235   9.659   1.938   7.593  0.8101  0.1918  0.3917
  773MOL0     C 4236   9.648   1.949   7.740 -0.0524 -0.5911 -1.0446
  773MOL0     N 4237   9.515   1.952   7.797  0.3089 -0.0264  0.7915
  773MOL0     C 4238   9.432   1.844   7.795  0.9455 -0.5800 -0.2054
  773MOL0     C 4239   9.315   1.901   7.830  0.1362  0.8271  0.3811
  773MOL0     C 4240   9.192   1.828   7.813 -0.1220  0.1249 -0.7749
  773MOL0     C 4241   9.185   1.698   7.902  0.4558  0.3106 -0.2068
  773MOL0     C 4242   9.152   1.714   8.049  0.1992  0.1962  0.8764
  773MOL0     C 4243   9.009   1.759   8.081  0.1842  1.0320  0.0051
  773MOL0     O 4244   9.001   1.737   8.220  0.3634  0.1055  0.3738
  773MOL0     C 4245   8.878   1.718   8.275  0.6187  0.5157  0.5579
  773MOL0     C 4246   8.865   1.653   8.399 -0.4677 -0.4768 -0.2645
  773MOL0     C 4247   8.742   1.621   8.466 -0.5974  0.7084 -0.4526
  773MOL0     C 4248   8.750   1.576   8.606  0.7459  0.8320 -0.3868
  773MOL0     C 4249   8.627   1.659   8.407  0.0151 -0.5689 -0.3566
  773MOL0     C 4250   8.493   1.615   8.447  0.6860 -0.4258 -0.0974
  773MOL0     O 4251   8.399   1.688   8.390  0.1454 -0.2425  0.0930
  773MOL0     C 4252   8.261   1.672   8.398 -1.8024  0.7596  0.3662
  773MOL0     C 4253   8.198   1.589   8.487  0.2072 -0.3749  0.6191
  773MOL0     C 4254   8.062   1.558   8.470  0.3199 -0.6632 -0.1308
  773MOL0     C 4255   7.996   1.615   8.364 -0.5422  0.3797  0.9442
  773MOL0     O 4256   7.863   1.600   8.346 -0.1527  0.2909  0.3439
  773MOL0     C 4257   7.786   1.616   8.470  0.1415 -0.7403 -0.7108
  773MOL0     C 4258   7.641   1.660   8.433  0.5849 -0.4404 -0.5879
  773MOL0     C 4259   7.562   1.561   8.354  0.0148 -0.1466  0.0768
  773MOL0     C 4260   7.414   1.592   8.336 -0.7300 -0.6678 -0.3257
  773MOL0     C 4261   7.322   1.606   8.458 -0.8135  0.2607 -0.2566
  773MOL0     C 4262   7.304   1.470   8.522 -0.4839 -0.4698 -0.8250
  773MOL0     C 4263   7.224   1.373   8.430 -0.2324 -0.7527 -0.3130
  773MOL0     C 4264   7.149   1.267   8.502  0.0869  0.2945 -0.6608
  773MOL0    Cl 4265   7.255   1.191   8.623 -0.0810 -0.1687  0.1696
  773MOL0     C 4266   8.053   1.712   8.278 -0.4522  0.9103 -0.0122
  773MOL0     C 4267   8.189   1.731   8.293  0.6418 -1.1877  0.4395
  773MOL0     O 4268   8.478   1.527   8.522 -0.1943  0.2924  0.6818
  773MOL0     C 4269   8.639   1.718   8.278 -0.3072 -0.1233  0.8718
  773MOL0     C 4270   8.758   1.750   8.206  0.4239  0.3793  0.7843
  773MOL0     N 4271   9.330   2.035   7.846  0.0329 -0.4985 -0.3429
  773MOL0     N 4272   9.449   2.064   7.841 -0.1565 -0.3011  0.0842
  773MOL0     C 4273   9.024   1.709   7.356 -0.5511 -0.4989 -0.6299
  773MOL0     C 4274   8.910   1.646   7.405  0.3007  0.0724  0.3206
  773MOL0     C 4275   8.606   1.387   7.499  0.9733  0.9954 -0.1128
  773MOL0     C 4276   8.531   1.449   7.605 -0.1310 -0.1329 -0.1997
  773MOL0     C 4277   8.407   1.401   7.637 -0.1908  0.1192  1.0234
  773MOL0     C 4278   8.347   1.298   7.569  0.6052  1.3128  0.4096
  773MOL0     O 4279   8.228   1.231   7.602  0.0649 -0.2276  0.1957
  773MOL0     C 4280   8.143   1.288   7.690 -0.1372  0.0092 -0.3816
  773MOL0     C 4281   8.019   1.201   7.696  0.3964  0.4350  0.1275
  773MOL0     C 4282   7.948   1.199   7.547  0.2807  0.2963 -0.2784
  773MOL0     C 4283   7.851   1.079   7.548  0.1686 -0.0147 -1.0001
  773MOL0     C 4284   7.793   1.069   7.419  0.1006  1.3123  0.0233
  773MOL0     C 4285   7.753   1.067   7.301 -0.3503  0.7874  0.0491
  773MOL0     C 4286   8.418   1.230   7.473 -0.3068 -0.1663 -0.3823
  773MOL0     C 4287   8.546   1.272   7.435  0.3013  0.6372 -0.6121
  773MOL0     H 4288   9.040   1.446   7.644 -1.1312  1.3885  0.2683
  773MOL0     H 4289   9.253   1.545   7.546 -0.4578  0.0702 -0.7567
  773MOL0     H 4290   9.248   1.684   7.180  3.4531 -2.3773  0.7694
  773MOL0     H 4291   9.213   1.850   7.221  0.0786 -0.0833  0.7511
  773MOL0     H 4292   9.487   1.721   7.241 -1.2179  0.7506  2.8627
  773MOL0     H 4293   9.425   1.823   7.108  2.5688 -1.9095 -0.4077
  773MOL0     H 4294   9.398   2.003   7.257  0.4036 -0.8385 -0.1192
  773MOL0     H 4295   9.440   1.908   7.401  1.6745 -2.4063 -0.4718
  773MOL0     H 4296   9.664   1.865   7.302 -1.4472 -1.1009 -0.4503
  773MOL0     H 4297   9.618   1.965   7.172 -1.9273  2.2040 -0.4300
  773MOL0     H 4298   9.765   2.045   7.375  0.2203  3.7130 -1.9649
  773MOL0     H 4299   9.642   2.164   7.338  1.7410  1.0031  1.3698
  773MOL0     H 4300   9.647   2.141   7.579 -0.2420 -2.0490  4.3172
  773MOL0     H 4301   9.501   2.070   7.510 -1.1098 -4.0450 -0.6712
  773MOL0     H 4302   9.594   1.861   7.552  0.5139  1.3436 -1.4255
  773MOL0     H 4303   9.761   1.910   7.565  0.2284 -0.0479 -1.6891
  773MOL0     H 4304   9.704   2.033   7.781 -1.1558 -1.1709  1.8736
  773MOL0     H 4305   9.698   1.856   7.768 -1.0281 -1.3113 -1.6106
  773MOL0     H 4306   9.454   1.741   7.769  0.7700 -0.7478  0.2959
  773MOL0     H 4307   9.109   1.894   7.837 -0.6991 -0.4030 -1.2891
  773MOL0     H 4308   9.171   1.798   7.710 -0.5041  0.0886 -0.6855
  773MOL0     H 4309   9.276   1.638   7.889  0.2563  0.2806 -1.5842
  773MOL0     H 4310   9.104   1.643   7.854 -2.1911  2.8817  1.0162
  773MOL0     H 4311   9.227   1.773   8.103  0.2194 -0.2181  1.3081
  773MOL0     H 4312   9.165   1.612   8.088  2.3802 -0.0736 -0.3983
  773MOL0     H 4313   8.940   1.695   8.025  2.9278 -0.0278 -2.4038
  773MOL0     H 4314   8.988   1.863   8.057  3.0200  1.7509  0.3523
  773MOL0     H 4315   8.955   1.642   8.458 -2.4191  0.1837  3.1142
  773MOL0     H 4316   8.719   1.661   8.669  0.9365 -0.3264  1.3331
  773MOL0     H 4317   8.685   1.492   8.630  0.9168  0.8052 -0.0095
  773MOL0     H 4318   8.854   1.553   8.630  0.5898  0.0724 -0.4295
  773MOL0     H 4319   8.253   1.564   8.577 -1.1719  1.6598  2.1380
  773MOL0     H 4320   8.011   1.503   8.548  1.2953 -0.2108  0.8393
  773MOL0     H 4321   7.793   1.529   8.536 -0.5471  0.5708  1.1473
  773MOL0     H 4322   7.826   1.705   8.519  1.5732 -1.5387 -0.3544
  773MOL0     H 4323   7.595   1.689   8.528  2.7526  3.6020 -0.5534
  773MOL0     H 4324   7.659   1.755   8.381  1.0743 -0.0006  0.3564
  773MOL0     H 4325   7.573   1.465   8.407  0.9106  1.3498  2.7888
  773MOL0     H 4326   7.588   1.562   8.248  0.2959 -1.0985  0.1296
  773MOL0     H 4327   7.411   1.691   8.288 -2.5765 -0.8087 -0.5745
  773MOL0     H 4328   7.374   1.519   8.266 -0.5915 -2.1210  1.0588
  773MOL0     H 4329   7.224   1.643   8.428 -0.3998  0.1580 -1.8125
  773MOL0     H 4330   7.359   1.682   8.527 -2.3312  0.6973  0.1127
  773MOL0     H 4331   7.402   1.426   8.542  1.4838  2.7912 -2.5027
  773MOL0     H 4332   7.249   1.477   8.616  0.6644  0.1168 -0.1918
  773MOL0     H 4333   7.300   1.326   8.367 -0.2888  0.1951 -1.1226
  773MOL0     H 4334   7.154   1.425   8.364 -0.0311  0.1443  0.1578
  773MOL0     H 4335   7.121   1.186   8.435  1.3989 -0.7924  0.0595
  773MOL0     H 4336   7.058   1.308   8.547 -2.1049 -1.1401 -3.4941
  773MOL0     H 4337   7.995   1.761   8.200  2.0473  2.3135 -1.0964
  773MOL0     H 4338   8.238   1.782   8.210  0.2451 -1.1965  0.1935
  773MOL0     H 4339   8.556   1.744   8.213 -0.0146 -0.1834  0.4704
  773MOL0     H 4340   8.758   1.796   8.108  0.5397  1.5527  1.3243
  773MOL0     H 4341   9.016   1.773   7.268 -0.1095  1.0921  0.4438
  773MOL0     H 4342   8.819   1.653   7.348  0.5669 -2.5034 -0.5164
  773MOL0     H 4343   8.580   1.531   7.655 -1.3214 -0.7691  2.1494
  773MOL0     H 4344   8.347   1.448   7.714  0.8589  0.6271  1.5491
  773MOL0     H 4345   8.195   1.277   7.786  1.3361 -3.9041 -1.4368
  773MOL0     H 4346   8.115   1.391   7.667 -2.1917 -0.2311  0.8410
  773MOL0     H 4347   7.947   1.233   7.772 -0.1724 -1.1620  0.2994
  773MOL0     H 4348   8.063   1.106   7.726  3.7062  1.7187 -0.3078
  773MOL0     H 4349   8.027   1.182   7.474  3.5512 -0.1289  3.0542
  773MOL0     H 4350   7.892   1.291   7.526  0.0162  0.2714  0.2819
  773MOL0     H 4351   7.777   1.091   7.627  3.3318  2.8175  1.8694
  773MOL0     H 4352   7.920   0.997   7.567  0.4687  0.7863  1.7366
  773MOL0     H 4353   7.718   1.057   7.200 -1.8851 -0.3288  0.6652
  773MOL0     H 4354   8.380   1.139   7.427 -1.8711 -0.4797  1.3995
  773MOL0     H 4355   8.591   1.223   7.349 -0.5186  1.2445 -1.4134
  774MOL0     O 4356   7.943   5.852  11.244  0.1103 -0.6276 -0.2719
  774MOL0     C 4357   7.840   5.914  11.240  0.1109  1.1527 -0.2412
  774MOL0     O 4358   7.829   6.040  11.201  0.5083 -0.0387  0.4800
  774MOL0     C 4359   7.944   6.116  11.223 -0.1717  0.0052 -0.0722
  774MOL0     C 4360   7.952   6.204  11.334  0.0729 -0.3058  0.2627
  774MOL0     C 4361   8.057   6.297  11.344 -0.4217  0.1148 -0.0202
  774MOL0     C 4362   8.162   6.292  11.248 -0.2811 -1.0152 -0.6170
  774MOL0     O 4363   8.274   6.374  11.278 -0.5033  0.1525 -0.5078
  774MOL0     C 4364   8.405   6.335  11.246  0.3888 -0.7279 -0.4700
  774MOL0     C 4365   8.524   6.444  11.266 -0.0375 -0.4441 -0.0662
  774MOL0     C 4366   8.654   6.391  11.202  0.4811 -0.4396  0.2670
  774MOL0     C 4367   8.770   6.486  11.181 -0.5118 -0.1895 -0.4625
  774MOL0     C 4368   8.900   6.407  11.154  0.6029 -0.1744  0.3364
  774MOL0     C 4369   9.023   6.491  11.118  0.9508  0.3436 -0.6933
  774MOL0     C 4370   9.034   6.610  11.203 -0.0325 -1.1600  0.1235
  774MOL0     C 4371   9.065   6.598  11.362  0.8623 -0.8273  0.3455
  774MOL0     N 4372   9.175   6.511  11.386 -0.4186 -0.7593 -0.8965
  774MOL0     C 4373   9.300   6.532  11.339 -0.9315 -1.0611 -0.1241
  774MOL0     C 4374   9.368   6.418  11.376 -0.6179  0.1423 -0.7394
  774MOL0     C 4375   9.508   6.385  11.331 -0.0292  0.9689 -0.1120
  774MOL0     C 4376   9.513   6.328  11.190 -0.7235  0.2531 -0.7427
  774MOL0     C 4377   9.497   6.448  11.088  0.4482  0.0557  0.6724
  774MOL0     C 4378   9.620   6.540  11.062  0.0433 -1.1880 -0.0536
  774MOL0     O 4379   9.598   6.648  10.977  0.4205  0.0412  0.8264
  774MOL0     C 4380   9.493   6.728  11.007  0.4817  0.2454  0.1987
  774MOL0     C 4381   9.499   6.812  11.117  0.1377  0.3911  0.5886
  774MOL0     C 4382   9.387   6.883  11.163 -0.5654  0.8861  0.4150
  774MOL0     C 4383   9.411   6.960  11.295  0.0045 -0.3014  0.0351
  774MOL0     C 4384   9.263   6.871  11.091 -0.3061  0.1124  0.4676
  774MOL0     C 4385   9.147   6.952  11.118 -0.6931  0.1725 -0.1800
  774MOL0     O 4386   9.176   7.073  11.173 -0.1673  0.1106 -0.7351
  774MOL0     C 4387   9.072   7.155  11.211 -0.4263  0.4938 -0.6240
  774MOL0     C 4388   9.087   7.213  11.333  1.1141 -0.1547  0.3182
  774MOL0     C 4389   8.990   7.306  11.383 -0.0079 -0.5455  0.0371
  774MOL0     C 4390   8.884   7.337  11.307  0.2854  0.2419  0.1236
  774MOL0     O 4391   8.789   7.418  11.358 -0.3253 -0.9902  0.6879
  774MOL0     C 4392   8.654   7.370  11.332  0.2576 -0.1102  0.2147
  774MOL0     C 4393   8.574   7.407  11.453  0.9125  0.7358 -0.2450
  774MOL0     C 4394   8.425   7.398  11.417  0.5623  0.6658 -0.0050
  774MOL0     C 4395   8.345   7.480  11.520  0.8956 -0.0492 -0.6004
  774MOL0     C 4396   8.192   7.486  11.478  0.9093 -0.2779  0.3751
  774MOL0     C 4397   8.102   7.561  11.584  0.1263  0.5890 -0.6284
  774MOL0     C 4398   8.120   7.714  11.589  0.0655 -0.0216 -0.6286
  774MOL0     C 4399   8.220   7.743  11.701  0.3186 -0.4711  0.1586
  774MOL0    Cl 4400   8.236   7.924  11.707 -0.2611  0.3307  0.2659
  774MOL0     C 4401   8.880   7.290  11.174 -0.8323  0.3293 -0.4455
  774MOL0     C 4402   8.965   7.198  11.126  0.7378  0.0881  0.7326
  774MOL0     O 4403   9.037   6.914  11.085 -0.2916  0.4663 -0.4115
  774MOL0     C 4404   9.258   6.781  10.974 -0.3821 -0.9267  0.6881
  774MOL0     C 4405   9.375   6.717  10.942 -0.8904  0.3230 -0.6236
  774MOL0     N 4406   9.273   6.325  11.424 -0.8460 -1.0282 -0.1464
  774MOL0     N 4407   9.163   6.388  11.436  0.0612 -0.4576  0.0705
  774MOL0     C 4408   8.150   6.204  11.141 -0.5270 -0.2198  0.1923
  774MOL0     C 4409   8.043   6.117  11.128  0.4170 -0.4538  0.0359
  774MOL0     C 4410   7.724   5.848  11.309 -0.0696  0.2467 -0.0568
  774MOL0     C 4411   7.599   5.906  11.316 -1.1491 -0.1544 -0.3760
  774MOL0     C 4412   7.497   5.836  11.384  0.2332 -0.3815  0.1859
  774MOL0     C 4413   7.507   5.709  11.439 -0.9209 -0.7547  0.1792
  774MOL0     O 4414   7.404   5.668  11.515 -0.5835 -0.0074 -0.1337
  774MOL0     C 4415   7.362   5.538  11.477 -0.2171 -0.3191  0.5391
  774MOL0     C 4416   7.226   5.514  11.530 -0.0883  0.0190  0.4661
  774MOL0     C 4417   7.175   5.380  11.487 -0.4760  0.4211  0.1620
  774MOL0     C 4418   7.028   5.369  11.510 -0.4453 -0.4098  0.3058
  774MOL0     C 4419   6.981   5.237  11.472  0.3909 -0.0807  0.0527
  774MOL0     C 4420   6.941   5.128  11.446  0.6815 -0.1192  0.6536
  774MOL0     C 4421   7.628   5.646  11.416 -0.7157 -0.3616  0.4757
  774MOL0     C 4422   7.733   5.709  11.344 -0.0626 -1.4248  0.6283
  774MOL0     H 4423   7.873   6.200  11.408 -1.0287 -1.3344 -0.9146
  774MOL0     H 4424   8.073   6.366  11.426  2.5399  2.0715 -2.0280
  774MOL0     H 4425   8.424   6.251  11.314 -1.4733 -0.2325  0.7232
  774MOL0     H 4426   8.409   6.310  11.139  0.4505  0.3130 -0.7192
  774MOL0     H 4427   8.488   6.536  11.220 -0.0393 -1.0675 -1.3767
  774MOL0     H 4428   8.537   6.462  11.373  2.5135 -2.3101  0.0456
  774MOL0     H 4429   8.683   6.297  11.251 -2.1425 -1.6286 -0.3138
  774MOL0     H 4430   8.616   6.355  11.106 -0.8025 -2.3279  1.4030
  774MOL0     H 4431   8.731   6.549  11.101 -2.0677 -0.2672  0.1875
  774MOL0     H 4432   8.791   6.551  11.266  4.2237 -1.8808 -0.0660
  774MOL0     H 4433   8.937   6.356  11.243  0.5976  1.1056  1.0935
  774MOL0     H 4434   8.869   6.339  11.074  0.1299 -0.0998  0.4543
  774MOL0     H 4435   9.115   6.431  11.118  0.0169 -1.1653 -2.1203
  774MOL0     H 4436   8.991   6.527  11.020 -0.4805  0.4742 -0.1939
  774MOL0     H 4437   9.113   6.679  11.172 -3.3819  4.1387  2.0255
  774MOL0     H 4438   8.941   6.668  11.204  0.3699 -0.5060  0.8043
  774MOL0     H 4439   8.973   6.561  11.408 -0.9642 -0.3348 -2.5969
  774MOL0     H 4440   9.091   6.698  11.395  0.6789 -0.3671 -0.8573
  774MOL0     H 4441   9.333   6.622  11.289  0.4787 -0.3914  1.8656
  774MOL0     H 4442   9.576   6.469  11.350 -0.3663  1.0882  0.5752
  774MOL0     H 4443   9.535   6.307  11.402 -1.9710 -1.4082 -1.8231
  774MOL0     H 4444   9.426   6.262  11.180 -1.6052  1.0645  1.2052
  774MOL0     H 4445   9.605   6.276  11.161 -0.1502 -0.0024  1.3736
  774MOL0     H 4446   9.415   6.513  11.119 -1.8642 -3.4000  2.4323
  774MOL0     H 4447   9.479   6.396  10.994 -4.1763 -0.0761  1.4256
  774MOL0     H 4448   9.704   6.491  11.011 -0.0954 -1.3872 -0.0924
  774MOL0     H 4449   9.657   6.573  11.160 -1.2669  0.5372 -0.0861
  774MOL0     H 4450   9.596   6.823  11.165  1.3528  1.8647 -1.9697
  774MOL0     H 4451   9.432   7.066  11.275  0.3767 -0.4212 -0.2078
  774MOL0     H 4452   9.328   6.963  11.367 -2.5334 -2.0909 -2.6040
  774MOL0     H 4453   9.506   6.918  11.330 -0.0715 -1.0781 -0.6763
  774MOL0     H 4454   9.175   7.193  11.394  0.4503  1.7695  2.0177
  774MOL0     H 4455   9.004   7.348  11.482  1.9237 -4.6257  1.7296
  774MOL0     H 4456   8.610   7.421  11.246  0.3196 -0.8347 -0.2619
  774MOL0     H 4457   8.650   7.261  11.319  1.2013 -0.3347  1.5721
  774MOL0     H 4458   8.592   7.350  11.544 -1.5812  4.5938  2.9800
  774MOL0     H 4459   8.581   7.513  11.477 -2.3376  0.6344  1.7196
  774MOL0     H 4460   8.399   7.292  11.425 -3.6598  1.6013  0.7288
  774MOL0     H 4461   8.391   7.437  11.321 -0.8406 -0.8831 -0.1756
  774MOL0     H 4462   8.358   7.431  11.617  0.2557 -1.2136 -1.0754
  774MOL0     H 4463   8.387   7.581  11.523  3.1846 -0.9571  0.3043
  774MOL0     H 4464   8.166   7.380  11.480 -0.6837 -0.0194 -2.3333
  774MOL0     H 4465   8.175   7.527  11.378 -2.7206 -0.8269  0.6579
  774MOL0     H 4466   7.998   7.539  11.558  0.8260 -0.4304 -2.8229
  774MOL0     H 4467   8.123   7.530  11.686 -0.3497  1.2551 -0.3189
  774MOL0     H 4468   8.022   7.760  11.605 -0.7007  0.5406 -5.3522
  774MOL0     H 4469   8.150   7.754  11.492  0.0149  1.3436 -0.1055
  774MOL0     H 4470   8.319   7.695  11.693  0.6868  0.4189 -0.8059
  774MOL0     H 4471   8.181   7.715  11.799 -0.6687 -0.3868 -0.2029
  774MOL0     H 4472   8.803   7.321  11.104  0.1384  0.0428 -1.6880
  774MOL0     H 4473   8.951   7.167  11.023  0.4565 -1.3241  1.1728
  774MOL0     H 4474   9.163   6.764  10.925 -0.0573  1.4244 -0.9370
  774MOL0     H 4475   9.387   6.648  10.859  2.0440  0.0467 -0.0699
  774MOL0     H 4476   8.225   6.203  11.062  0.1907  2.4524  0.7243
  774MOL0     H 4477   8.038   6.060  11.036  2.8651  1.8713 -1.6801
  774MOL0     H 4478   7.575   6.001  11.268 -1.3634 -0.4792 -0.9210
  774MOL0     H 4479   7.401   5.882  11.402  1.2404  0.7250  3.5270
  774MOL0     H 4480   7.358   5.544  11.368 -0.7448 -1.0005  0.5200
  774MOL0     H 4481   7.427   5.452  11.498 -1.7008 -2.3741 -2.4412
  774MOL0     H 4482   7.160   5.592  11.491 -0.3589 -1.8615 -3.3098
  774MOL0     H 4483   7.233   5.517  11.639  0.4176 -0.1745  0.4422
  774MOL0     H 4484   7.223   5.305  11.551  0.3195  0.0455 -0.8464
  774MOL0     H 4485   7.194   5.365  11.380 -1.5838 -1.2800  0.1656
  774MOL0     H 4486   6.974   5.450  11.461  1.3529  0.2085 -0.7642
  774MOL0     H 4487   7.007   5.373  11.618 -1.2508  0.8547  0.1225
  774MOL0     H 4488   6.927   5.023  11.428  1.3700 -0.9152  3.9781
  774MOL0     H 4489   7.645   5.547  11.458 -0.3723 -0.1866  0.7470
  774MOL0     H 4490   7.830   5.668  11.318  1.7068  3.0061 -0.5208
  775MOL0     O 4491   9.876   4.307   9.566 -1.3063 -0.1620  0.5915
  775MOL0     C 4492   9.930   4.327   9.462  0.7762  0.1861  1.5218
  775MOL0     O 4493  10.050   4.269   9.426  0.2512 -0.3599  0.2970
  775MOL0     C 4494  10.121   4.194   9.520  0.3068  0.0256 -0.3470
  775MOL0     C 4495  10.125   4.057   9.516  1.4120 -0.5812  0.1357
  775MOL0     C 4496  10.192   3.985   9.615 -0.2899 -0.2037  0.9386
  775MOL0     C 4497  10.269   4.050   9.710 -0.5799 -0.5183  0.4073
  775MOL0     O 4498  10.347   3.963   9.787  0.0590  0.5851  0.5731
  775MOL0     C 4499  10.431   4.010   9.892 -0.3726  0.4169  0.0672
  775MOL0     C 4500  10.497   3.894   9.969  0.4763  0.2424  0.4728
  775MOL0     C 4501  10.581   3.804   9.876 -0.3579 -0.2420 -0.9622
  775MOL0     C 4502  10.591   3.674   9.953 -0.0233  0.1957  0.7476
  775MOL0     C 4503  10.664   3.571   9.866  0.3289 -1.0558  0.7003
  775MOL0     C 4504  10.685   3.432   9.939  0.1634  0.6663  0.5569
  775MOL0     C 4505  10.743   3.315   9.858 -0.0034  0.4534 -0.2725
  775MOL0     C 4506  10.898   3.312   9.828 -0.1184 -0.4216 -0.2013
  775MOL0     N 4507  10.924   3.191   9.747  0.3836 -0.0397  0.1176
  775MOL0     C 4508  11.039   3.159   9.685 -0.0833 -0.2342  0.0123
  775MOL0     C 4509  11.028   3.039   9.651  0.0848  0.7522 -0.5777
  775MOL0     C 4510  11.136   2.967   9.574 -0.0301  0.2997  0.1464
  775MOL0     C 4511  11.129   3.026   9.433  0.2345  1.2343 -0.5896
  775MOL0     C 4512  11.248   2.961   9.351  0.0197 -0.1990  0.1825
  775MOL0     C 4513  11.219   2.822   9.300 -0.1537  0.2856 -0.2060
  775MOL0     O 4514  11.226   2.733   9.415 -0.5128 -0.0147 -0.0858
  775MOL0     C 4515  11.281   2.607   9.412 -0.5578  0.6001 -0.4397
  775MOL0     C 4516  11.333   2.536   9.297  1.0843 -0.5591  0.2358
  775MOL0     C 4517  11.394   2.414   9.308  0.0100  0.5423  0.9679
  775MOL0     C 4518  11.453   2.349   9.185  0.1819  0.5767 -0.2558
  775MOL0     C 4519  11.390   2.347   9.438  0.3590  0.2175  0.3534
  775MOL0     C 4520  11.449   2.210   9.475 -0.3039  0.1241  0.4660
  775MOL0     O 4521  11.376   2.141   9.565  0.4098  0.2384 -0.3912
  775MOL0     C 4522  11.438   2.030   9.625  0.1780  0.5371 -0.5214
  775MOL0     C 4523  11.479   1.919   9.552  0.8739 -0.2204 -0.2477
  775MOL0     C 4524  11.530   1.808   9.618 -0.6274 -0.4046 -0.4276
  775MOL0     C 4525  11.550   1.803   9.760  0.1831 -0.8493 -0.0276
  775MOL0     O 4526  11.594   1.695   9.825 -0.6570 -0.3396 -0.4489
  775MOL0     C 4527  11.628   1.577   9.754  0.4589 -0.0760 -0.0277
  775MOL0     C 4528  11.681   1.491   9.858 -0.8763 -0.1661  0.0529
  775MOL0     C 4529  11.734   1.357   9.811  0.4429  0.6848 -0.2479
  775MOL0     C 4530  11.880   1.357   9.787 -0.6339  0.1798  0.0026
  775MOL0     C 4531  11.953   1.220   9.756 -0.5260  0.7423 -0.6399
  775MOL0     C 4532  12.104   1.219   9.754  0.2238 -0.6675  0.7599
  775MOL0     C 4533  12.159   1.081   9.703 -0.0581 -1.0705 -0.5992
  775MOL0     C 4534  12.096   0.964   9.762 -0.3498  0.5118  0.2327
  775MOL0    Cl 4535  12.088   0.967   9.940  0.2073 -0.5378  0.3024
  775MOL0     C 4536  11.522   1.923   9.823 -0.6803 -0.3226  0.5317
  775MOL0     C 4537  11.459   2.041   9.762 -0.6417  0.0266 -0.1378
  775MOL0     O 4538  11.564   2.177   9.433 -0.1086 -0.7034  0.2201
  775MOL0     C 4539  11.320   2.408   9.543 -0.4235 -0.6975 -0.2623
  775MOL0     C 4540  11.272   2.536   9.529 -0.4085  0.2145 -0.0846
  775MOL0     N 4541  10.911   2.981   9.699 -0.1653  0.0494 -0.6002
  775MOL0     N 4542  10.855   3.076   9.767  0.0489 -0.1644  0.3798
  775MOL0     C 4543  10.261   4.194   9.721 -0.5773  0.3195 -0.8276
  775MOL0     C 4544  10.184   4.261   9.626 -0.4361 -0.3572  0.5157
  775MOL0     C 4545   9.862   4.422   9.376  0.5474  0.1591  0.4351
  775MOL0     C 4546   9.903   4.438   9.239  0.8449 -0.5550 -0.2742
  775MOL0     C 4547   9.837   4.529   9.159 -0.0584  0.5361  0.3471
  775MOL0     C 4548   9.739   4.613   9.203 -0.1084 -0.6532 -0.4371
  775MOL0     O 4549   9.686   4.712   9.128  0.8374  0.1940  0.0811
  775MOL0     C 4550   9.636   4.831   9.188  0.7186 -0.0200  1.2116
  775MOL0     C 4551   9.515   4.878   9.110 -0.8289 -0.4196  0.8840
  775MOL0     C 4552   9.557   4.942   8.970 -0.6667  0.3930 -0.3511
  775MOL0     C 4553   9.584   5.091   8.962  0.7300  0.0390  0.4225
  775MOL0     C 4554   9.595   5.142   8.825 -0.1431 -0.0776 -0.3179
  775MOL0     C 4555   9.612   5.181   8.710  0.0887  1.0914  0.2731
  775MOL0     C 4556   9.698   4.596   9.335 -0.0692  0.5323  0.5328
  775MOL0     C 4557   9.751   4.498   9.417 -0.0588  0.6899 -0.2028
  775MOL0     H 4558  10.072   3.999   9.441 -1.3436  0.8734  0.8180
  775MOL0     H 4559  10.191   3.876   9.614  0.0767 -0.2108 -0.2521
  775MOL0     H 4560  10.501   4.083   9.852 -4.1085  3.2496 -1.9427
  775MOL0     H 4561  10.374   4.075   9.959 -0.6821  0.6520 -0.4165
  775MOL0     H 4562  10.563   3.929  10.049  3.3473 -2.5929 -0.4542
  775MOL0     H 4563  10.412   3.842  10.015  1.0146  0.5634  1.9042
  775MOL0     H 4564  10.530   3.780   9.783 -0.1968  2.1836 -1.7434
  775MOL0     H 4565  10.682   3.841   9.856 -0.3702  0.6754  0.4722
  775MOL0     H 4566  10.651   3.682  10.044  1.6191 -0.4451 -0.2487
  775MOL0     H 4567  10.492   3.628   9.963  1.0455 -2.1660  1.0536
  775MOL0     H 4568  10.608   3.553   9.774 -0.1119 -0.6030  0.8771
  775MOL0     H 4569  10.763   3.617   9.855 -0.3728  0.1292 -1.1044
  775MOL0     H 4570  10.749   3.443  10.027  2.2804 -0.1748 -0.8223
  775MOL0     H 4571  10.588   3.394   9.974 -1.1677  3.1192 -0.2238
  775MOL0     H 4572  10.727   3.229   9.924  0.8387  1.1882  0.9232
  775MOL0     H 4573  10.682   3.299   9.769  1.6152 -0.3223 -1.2694
  775MOL0     H 4574  10.966   3.305   9.914 -1.1050 -0.6127  0.5838
  775MOL0     H 4575  10.928   3.404   9.778 -1.0349  1.2214  2.0559
  775MOL0     H 4576  11.114   3.234   9.663  0.0218 -0.6996 -1.3270
  775MOL0     H 4577  11.239   2.976   9.611  1.0677  0.8307 -2.8264
  775MOL0     H 4578  11.116   2.860   9.570 -1.7664  0.4847  2.2108
  775MOL0     H 4579  11.129   3.135   9.436 -3.4656  1.3348  0.5075
  775MOL0     H 4580  11.033   2.997   9.390  0.3732 -3.3300  1.5231
  775MOL0     H 4581  11.337   2.953   9.414  0.6786 -1.4400 -0.8567
  775MOL0     H 4582  11.279   3.032   9.273 -0.3638  2.1033  2.0226
  775MOL0     H 4583  11.290   2.801   9.219 -0.9632  0.2662 -0.9221
  775MOL0     H 4584  11.116   2.804   9.269 -0.5998 -1.0210  1.8566
  775MOL0     H 4585  11.338   2.588   9.202 -0.1464  0.6310  0.7879
  775MOL0     H 4586  11.388   2.359   9.098  0.8769 -0.8008 -0.9692
  775MOL0     H 4587  11.549   2.398   9.163 -1.7443  3.8702 -2.0768
  775MOL0     H 4588  11.459   2.240   9.193 -2.3953  0.4618  0.7398
  775MOL0     H 4589  11.455   1.912   9.447  0.8408 -0.2520 -0.2379
  775MOL0     H 4590  11.551   1.720   9.558  0.2997  0.2244 -1.0679
  775MOL0     H 4591  11.541   1.533   9.703  0.6136 -0.8428  0.3576
  775MOL0     H 4592  11.701   1.609   9.679 -0.9574 -0.4958 -1.6788
  775MOL0     H 4593  11.752   1.546   9.921 -2.1423 -0.5639  1.8706
  775MOL0     H 4594  11.599   1.458   9.922 -0.7266 -1.3604 -0.3596
  775MOL0     H 4595  11.685   1.336   9.715  1.0027 -1.7160 -0.0786
  775MOL0     H 4596  11.708   1.284   9.888  0.0376  2.4882  1.4049
  775MOL0     H 4597  11.903   1.422   9.702  1.0725 -0.4699 -0.0799
  775MOL0     H 4598  11.916   1.395   9.883 -0.0581  0.8776 -0.4802
  775MOL0     H 4599  11.919   1.205   9.654 -0.8866 -4.5867 -0.0082
  775MOL0     H 4600  11.917   1.137   9.817 -0.3539 -0.2694 -1.8918
  775MOL0     H 4601  12.143   1.280   9.671 -0.2101 -3.1841 -1.4532
  775MOL0     H 4602  12.140   1.258   9.849 -5.3670  0.8332  2.6047
  775MOL0     H 4603  12.268   1.088   9.713  0.1702  0.3901 -3.1993
  775MOL0     H 4604  12.141   1.079   9.595  1.7150  1.6030 -1.0511
  775MOL0     H 4605  12.145   0.870   9.733 -2.4872 -2.1920  4.2954
  775MOL0     H 4606  11.992   0.948   9.732  0.4979 -0.9560 -2.2484
  775MOL0     H 4607  11.547   1.925   9.929 -1.7933  3.1458  0.8493
  775MOL0     H 4608  11.428   2.132   9.811  1.2933  1.0682 -0.7417
  775MOL0     H 4609  11.312   2.355   9.637 -3.2163  2.2400  1.3597
  775MOL0     H 4610  11.213   2.574   9.612 -1.0013  1.2911 -0.9775
  775MOL0     H 4611  10.317   4.255   9.792 -0.3015  0.4987 -1.1938
  775MOL0     H 4612  10.178   4.370   9.625 -0.6954 -0.3743 -0.5787
  775MOL0     H 4613   9.992   4.388   9.201 -0.2862 -0.7059 -2.9700
  775MOL0     H 4614   9.869   4.551   9.058 -1.2771 -3.4349 -1.1005
  775MOL0     H 4615   9.604   4.813   9.291  2.9356  1.5020  2.2446
  775MOL0     H 4616   9.716   4.906   9.187 -1.1028  2.2580 -3.7423
  775MOL0     H 4617   9.473   4.954   9.176 -2.9928 -0.5023 -0.3116
  775MOL0     H 4618   9.436   4.806   9.088 -3.9949  3.1512 -0.5395
  775MOL0     H 4619   9.482   4.915   8.896  0.1311  0.1513 -1.0872
  775MOL0     H 4620   9.648   4.888   8.941 -0.2737  1.0285 -0.3433
  775MOL0     H 4621   9.682   5.116   9.005  0.4211  3.8371 -0.6698
  775MOL0     H 4622   9.506   5.137   9.023 -0.1603 -0.8605 -0.0074
  775MOL0     H 4623   9.636   5.187   8.606 -2.3398 -3.8001 -0.8670
  775MOL0     H 4624   9.614   4.641   9.387  1.0016 -1.5953  4.4915
  775MOL0     H 4625   9.703   4.485   9.514 -2.0550 -0.1382 -1.2328
  776MOL0     O 4626   4.071   4.478   6.917  0.3870  1.0870 -0.4200
  776MOL0     C 4627   3.975   4.421   6.970 -0.5519  0.6806  0.2131
  776MOL0     O 4628   3.978   4.293   7.011 -0.0138 -0.0048  0.0290
  776MOL0     C 4629   4.084   4.208   7.021 -0.2206 -0.2464 -0.5573
  776MOL0     C 4630   4.207   4.257   7.059 -0.4452  0.2008  0.0380
  776MOL0     C 4631   4.317   4.170   7.049  1.0610  0.9412 -0.0728
  776MOL0     C 4632   4.304   4.038   7.014  0.2007 -0.5181  0.1851
  776MOL0     O 4633   4.421   3.973   6.996 -0.2257  0.5751 -0.4822
  776MOL0     C 4634   4.422   3.828   6.991 -0.2213 -0.8724 -0.7385
  776MOL0     C 4635   4.572   3.781   7.004  0.4329  0.1948 -0.3029
  776MOL0     C 4636   4.667   3.827   6.890  0.4537  1.3470 -0.2295
  776MOL0     C 4637   4.794   3.737   6.897  0.4688  0.0048  0.7713
  776MOL0     C 4638   4.888   3.789   6.787 -0.9059  0.0396 -0.2299
  776MOL0     C 4639   5.005   3.697   6.766 -0.0933  0.5673  0.2462
  776MOL0     C 4640   5.102   3.752   6.662 -0.5361 -0.3294 -0.0932
  776MOL0     C 4641   5.216   3.660   6.631 -0.0630 -0.1123 -0.4613
  776MOL0     N 4642   5.316   3.715   6.532  0.5300  0.1348 -1.4901
  776MOL0     C 4643   5.387   3.827   6.543  0.3622 -0.7356  0.1026
  776MOL0     C 4644   5.468   3.830   6.426 -0.5194 -0.7137  0.1957
  776MOL0     C 4645   5.579   3.929   6.388 -0.4989 -0.0195  0.2456
  776MOL0     C 4646   5.533   4.037   6.276  0.4319  0.7651  0.0220
  776MOL0     C 4647   5.513   3.980   6.129 -0.4632  0.3137 -0.2492
  776MOL0     C 4648   5.609   3.875   6.078  1.1768  0.5551  0.2846
  776MOL0     O 4649   5.736   3.917   6.027  0.1392 -0.3582 -0.1277
  776MOL0     C 4650   5.749   3.965   5.897 -0.1056 -0.0458 -1.3478
  776MOL0     C 4651   5.875   3.977   5.848 -0.3272  0.2133  0.3222
  776MOL0     C 4652   5.904   4.030   5.720  0.2871  0.2178  0.6497
  776MOL0     C 4653   6.051   4.040   5.673 -0.5863 -0.4494 -0.2443
  776MOL0     C 4654   5.796   4.073   5.635  1.0057  0.1520  0.4098
  776MOL0     C 4655   5.825   4.114   5.495 -0.0251  0.3764  0.7523
  776MOL0     O 4656   5.930   4.191   5.465 -0.4428 -0.9400 -0.9011
  776MOL0     C 4657   5.930   4.256   5.349  0.1824  0.0237 -0.7805
  776MOL0     C 4658   5.820   4.329   5.302  1.1304  0.2610 -0.9378
  776MOL0     C 4659   5.841   4.393   5.175 -0.4792 -0.0242 -1.8075
  776MOL0     C 4660   5.961   4.398   5.111 -1.1740 -0.3613  0.1906
  776MOL0     O 4661   5.981   4.444   4.983 -0.5006  0.8521  0.5335
  776MOL0     C 4662   5.866   4.492   4.914 -0.2719  0.1317  0.7549
  776MOL0     C 4663   5.921   4.531   4.781 -0.6294 -0.3150  0.6918
  776MOL0     C 4664   5.964   4.410   4.704 -0.8753 -0.0223  1.3232
  776MOL0     C 4665   5.982   4.464   4.549  0.3619  0.9223  0.1847
  776MOL0     C 4666   6.011   4.344   4.463  0.0060  0.2979 -0.1996
  776MOL0     C 4667   5.903   4.236   4.446  0.7872  0.4762 -0.2796
  776MOL0     C 4668   5.772   4.301   4.385 -0.7938  0.8639  0.2805
  776MOL0     C 4669   5.698   4.193   4.297  0.2817 -0.1235 -0.4191
  776MOL0    Cl 4670   5.655   4.058   4.408 -0.3028 -0.2767 -0.2904
  776MOL0     C 4671   6.066   4.336   5.166  0.4851 -0.0193 -0.0970
  776MOL0     C 4672   6.056   4.265   5.284 -0.5075  0.1331 -1.2540
  776MOL0     O 4673   5.740   4.068   5.416 -0.5682 -0.1574 -0.1298
  776MOL0     C 4674   5.665   4.071   5.688 -0.3908 -0.6523  0.1102
  776MOL0     C 4675   5.647   4.012   5.817  0.5567 -0.1828  0.1914
  776MOL0     N 4676   5.439   3.718   6.347 -0.0383  0.5945  0.7826
  776MOL0     N 4677   5.343   3.651   6.407 -0.4586 -0.0405 -0.1993
  776MOL0     C 4678   4.173   3.992   7.000 -0.5073 -0.2265  0.1492
  776MOL0     C 4679   4.063   4.076   7.014 -0.2265  0.7126  0.5322
  776MOL0     C 4680   3.865   4.511   7.001  0.3283 -0.2963 -0.3519
  776MOL0     C 4681   3.861   4.649   6.980  0.5101 -0.0002  0.8653
  776MOL0     C 4682   3.741   4.726   7.003 -0.2834  0.1057  0.2515
  776MOL0     C 4683   3.629   4.664   7.053 -0.4708 -0.0666 -0.2545
  776MOL0     O 4684   3.515   4.733   7.076  0.1822 -0.3814  0.0010
  776MOL0     C 4685   3.492   4.876   7.064 -0.4388  0.6787 -0.0500
  776MOL0     C 4686   3.350   4.908   7.112 -0.8462 -0.3301  0.5095
  776MOL0     C 4687   3.327   4.875   7.256 -0.8315  0.5435  0.2735
  776MOL0     C 4688   3.181   4.905   7.290 -0.2443  1.0831 -0.8025
  776MOL0     C 4689   3.153   5.048   7.281 -0.2282 -0.1759 -0.4236
  776MOL0     C 4690   3.137   5.169   7.273  0.8246  1.2712 -0.4298
  776MOL0     C 4691   3.628   4.526   7.074  0.7920 -1.4897  0.4158
  776MOL0     C 4692   3.748   4.452   7.044 -0.3904 -0.2980  0.0484
  776MOL0     H 4693   4.222   4.364   7.073 -2.2635  0.1175  3.9892
  776MOL0     H 4694   4.418   4.209   7.049  2.1378 -1.6286  1.8864
  776MOL0     H 4695   4.354   3.778   7.061 -0.2722 -0.9762 -0.8594
  776MOL0     H 4696   4.380   3.816   6.890  0.4532 -0.0025 -1.1343
  776MOL0     H 4697   4.602   3.804   7.107  0.8152 -3.8357  0.6750
  776MOL0     H 4698   4.568   3.671   7.006  0.6761  0.1477 -1.5872
  776MOL0     H 4699   4.616   3.824   6.793 -1.6433  0.8046  0.8287
  776MOL0     H 4700   4.706   3.925   6.920 -0.9327  1.6138  0.7544
  776MOL0     H 4701   4.839   3.751   6.995 -0.6010  2.1261  1.0106
  776MOL0     H 4702   4.756   3.636   6.876 -0.8331  1.0146 -2.3159
  776MOL0     H 4703   4.823   3.798   6.700 -2.3497 -1.2725  0.6694
  776MOL0     H 4704   4.922   3.891   6.810 -0.4893 -0.3635  1.0008
  776MOL0     H 4705   5.066   3.663   6.851  2.5596 -2.5207 -2.6075
  776MOL0     H 4706   4.961   3.603   6.733  0.8735 -1.2064  3.4872
  776MOL0     H 4707   5.041   3.779   6.576  0.1533  1.5415 -0.0387
  776MOL0     H 4708   5.143   3.845   6.704 -0.8567 -0.9060  1.5951
  776MOL0     H 4709   5.178   3.562   6.602  3.0314 -1.3738 -0.6437
  776MOL0     H 4710   5.263   3.634   6.727 -1.3804 -0.8660  0.0086
  776MOL0     H 4711   5.369   3.905   6.616 -3.3454 -2.3251  1.1184
  776MOL0     H 4712   5.610   3.979   6.481  1.8839 -0.9341  0.0355
  776MOL0     H 4713   5.672   3.877   6.362 -0.0461  1.6371 -1.6434
  776MOL0     H 4714   5.606   4.118   6.282  1.9955 -0.4931 -0.9435
  776MOL0     H 4715   5.436   4.076   6.308  0.3698  0.4145  0.2749
  776MOL0     H 4716   5.520   4.070   6.067  3.6876  3.1292  3.6446
  776MOL0     H 4717   5.413   3.941   6.144 -0.5740  1.4526  2.6632
  776MOL0     H 4718   5.545   3.822   6.007  0.2770  0.7535  0.9316
  776MOL0     H 4719   5.623   3.798   6.155  0.7856  1.1799  0.9898
  776MOL0     H 4720   5.960   3.953   5.910 -1.5985 -0.1705  2.0055
  776MOL0     H 4721   6.053   4.002   5.570 -0.6592 -2.9792  0.6232
  776MOL0     H 4722   6.096   4.140   5.673  0.8284 -0.9392  3.5809
  776MOL0     H 4723   6.122   3.981   5.731  0.1218  0.9154  0.3191
  776MOL0     H 4724   5.726   4.334   5.356 -0.3683 -0.4183 -3.2873
  776MOL0     H 4725   5.746   4.435   5.141 -1.8680 -3.0779 -2.0148
  776MOL0     H 4726   5.798   4.406   4.914  1.0387 -1.0155 -1.8497
  776MOL0     H 4727   5.832   4.582   4.966  0.3031 -0.2146  1.7732
  776MOL0     H 4728   5.854   4.589   4.717  2.2232  2.4362 -0.0391
  776MOL0     H 4729   6.003   4.599   4.803  2.1167 -2.9128 -0.6289
  776MOL0     H 4730   5.895   4.325   4.710 -0.1415 -0.9987 -1.8148
  776MOL0     H 4731   6.064   4.378   4.735 -0.4582  0.1461  0.1948
  776MOL0     H 4732   5.890   4.516   4.520 -2.9709 -2.9472  2.6040
  776MOL0     H 4733   6.070   4.528   4.545  2.3542 -1.6802 -2.4583
  776MOL0     H 4734   6.095   4.296   4.513  0.0792  2.8554  2.3463
  776MOL0     H 4735   6.053   4.373   4.366 -0.3366  2.4300  0.2431
  776MOL0     H 4736   5.947   4.163   4.378 -2.8125 -2.7852  0.5521
  776MOL0     H 4737   5.867   4.200   4.542 -0.9720  2.9294  0.0905
  776MOL0     H 4738   5.800   4.377   4.312 -0.9595  1.6968  1.0654
  776MOL0     H 4739   5.711   4.334   4.470 -0.3562 -1.1923  1.4739
  776MOL0     H 4740   5.753   4.150   4.212  0.9954  0.6726 -0.3711
  776MOL0     H 4741   5.611   4.240   4.251  0.2288  0.3952  0.1957
  776MOL0     H 4742   6.160   4.330   5.112  0.2085 -2.8000 -0.4457
  776MOL0     H 4743   6.141   4.207   5.317 -1.5196 -0.3124  0.7128
  776MOL0     H 4744   5.573   4.094   5.635 -1.9801 -3.7528  1.2716
  776MOL0     H 4745   5.548   3.994   5.859  1.5690 -0.1413  2.8008
  776MOL0     H 4746   4.166   3.891   6.960 -0.4785  0.3096 -1.2735
  776MOL0     H 4747   3.963   4.035   7.005  0.5594 -0.7800 -3.4104
  776MOL0     H 4748   3.959   4.690   6.957 -0.2781  1.0312 -0.8579
  776MOL0     H 4749   3.741   4.834   6.995  3.8703  0.1651 -0.7733
  776MOL0     H 4750   3.561   4.931   7.128 -1.0409 -0.4167  1.6102
  776MOL0     H 4751   3.492   4.907   6.959  0.1896  1.3725  0.1479
  776MOL0     H 4752   3.269   4.872   7.048 -1.1976  0.6399  0.3998
  776MOL0     H 4753   3.346   5.016   7.093  0.6847 -0.8402 -3.8282
  776MOL0     H 4754   3.399   4.928   7.319 -0.2359 -1.1437  1.0903
  776MOL0     H 4755   3.348   4.770   7.278  2.0092  1.4384  2.4050
  776MOL0     H 4756   3.151   4.882   7.392 -1.3005 -2.4766 -1.7848
  776MOL0     H 4757   3.123   4.848   7.217 -0.4530  1.3109 -0.8172
  776MOL0     H 4758   3.116   5.265   7.232  0.7241  1.0234 -0.9710
  776MOL0     H 4759   3.537   4.477   7.109 -1.1284  1.4647 -0.0565
  776MOL0     H 4760   3.741   4.345   7.060 -3.2311 -0.2109 -0.1192
  777MOL0     O 4761   2.809   5.900   3.467  0.2590 -0.2104 -0.5540
  777MOL0     C 4762   2.772   5.913   3.585  0.7154 -0.1864 -0.3029
  777MOL0     O 4763   2.651   5.877   3.631 -0.1840  0.3914  0.0703
  777MOL0     C 4764   2.556   5.810   3.554  0.4591  0.8556 -0.0231
  777MOL0     C 4765   2.522   5.850   3.417 -0.0090 -0.0814 -0.3602
  777MOL0     C 4766   2.435   5.769   3.343  0.1610 -0.2966 -0.6493
  777MOL0     C 4767   2.374   5.656   3.389 -0.3126  0.2218  0.0183
  777MOL0     O 4768   2.285   5.597   3.306  0.0999  0.1429  0.1442
  777MOL0     C 4769   2.223   5.473   3.318  0.3783  0.0693 -0.4153
  777MOL0     C 4770   2.318   5.352   3.292 -0.5191 -0.3375  0.1298
  777MOL0     C 4771   2.384   5.353   3.160  0.4359 -0.2112 -0.7657
  777MOL0     C 4772   2.286   5.275   3.059 -0.5743 -0.1286 -0.2322
  777MOL0     C 4773   2.316   5.321   2.911 -0.0774 -0.0853  0.1181
  777MOL0     C 4774   2.232   5.443   2.859 -0.0354  0.3538  0.4088
  777MOL0     C 4775   2.277   5.485   2.714 -0.1637 -0.4547 -0.0807
  777MOL0     C 4776   2.231   5.624   2.665 -0.7146 -0.2340  0.5174
  777MOL0     N 4777   2.094   5.614   2.621  0.5160 -0.6269 -0.9226
  777MOL0     C 4778   1.989   5.636   2.708 -0.5434 -0.3036  0.0821
  777MOL0     C 4779   1.885   5.578   2.644 -0.2034  0.9256  0.1397
  777MOL0     C 4780   1.745   5.566   2.700  0.0643 -1.1226 -0.0478
  777MOL0     C 4781   1.679   5.709   2.666 -0.1654 -0.7469 -0.3024
  777MOL0     C 4782   1.703   5.762   2.527  0.3919  0.3915  0.1722
  777MOL0     C 4783   1.627   5.888   2.509  0.0601 -0.0986 -0.6228
  777MOL0     O 4784   1.488   5.890   2.549  0.4783  0.2708  0.7568
  777MOL0     C 4785   1.398   5.811   2.480 -0.3553  0.6296 -0.6939
  777MOL0     C 4786   1.281   5.777   2.543  0.4948 -0.4497  0.1470
  777MOL0     C 4787   1.197   5.679   2.501  0.2560 -0.4358  0.2338
  777MOL0     C 4788   1.081   5.647   2.583 -0.9322  0.0166  0.4341
  777MOL0     C 4789   1.211   5.633   2.362  0.8512 -0.2376 -0.8688
  777MOL0     C 4790   1.122   5.545   2.284 -0.4596 -0.6235 -0.0400
  777MOL0     O 4791   1.153   5.526   2.152 -0.3235  0.5708 -0.4966
  777MOL0     C 4792   1.062   5.461   2.069 -0.1732  0.2934 -0.4001
  777MOL0     C 4793   1.020   5.517   1.949 -0.4998  0.6593 -1.3666
  777MOL0     C 4794   0.960   5.448   1.853 -0.0579 -0.0076  0.1450
  777MOL0     C 4795   0.931   5.304   1.870 -1.0526 -0.6104 -0.2049
  777MOL0     O 4796   0.863   5.215   1.783 -0.4638  0.3334 -0.2585
  777MOL0     C 4797   0.847   5.263   1.652  0.0808 -0.1403  0.2908
  777MOL0     C 4798   0.766   5.155   1.559  0.1793  0.3897  0.2888
  777MOL0     C 4799   0.843   5.037   1.506 -0.1718  0.3885  0.4240
  777MOL0     C 4800   0.856   4.917   1.602 -0.1021  0.4694 -0.1143
  777MOL0     C 4801   0.951   4.809   1.542  0.5231 -0.2587 -0.8179
  777MOL0     C 4802   0.929   4.674   1.628 -0.3840  0.5358  0.8161
  777MOL0     C 4803   1.009   4.555   1.569 -0.0519  0.2650 -0.2446
  777MOL0     C 4804   0.978   4.422   1.637  0.3213 -0.2361 -0.2230
  777MOL0    Cl 4805   0.973   4.443   1.814  0.1498  0.2247 -0.1013
  777MOL0     C 4806   0.967   5.247   1.996 -0.1324  0.2773  0.2274
  777MOL0     C 4807   1.030   5.325   2.088  0.3739  0.7615 -0.7329
  777MOL0     O 4808   1.018   5.508   2.339  0.4145 -0.0270  0.9498
  777MOL0     C 4809   1.335   5.664   2.298  0.1790  0.5224 -0.7921
  777MOL0     C 4810   1.427   5.756   2.351  0.2091 -0.5227  0.5180
  777MOL0     N 4811   1.925   5.516   2.528  0.0628 -0.5376 -0.8682
  777MOL0     N 4812   2.041   5.544   2.513 -0.2999 -0.3029  0.7460
  777MOL0     C 4813   2.409   5.612   3.519  0.5544  0.2934 -0.4753
  777MOL0     C 4814   2.496   5.686   3.600 -0.5663 -0.5847  0.1476
  777MOL0     C 4815   2.860   5.974   3.681  0.8235 -0.9013  0.0704
  777MOL0     C 4816   2.808   6.039   3.795  0.1220 -0.1636 -0.0129
  777MOL0     C 4817   2.886   6.109   3.875 -0.1503 -0.5125  0.1596
  777MOL0     C 4818   3.020   6.133   3.845  0.8456 -0.8711  0.0442
  777MOL0     O 4819   3.085   6.214   3.935 -0.6228  0.4647  0.4496
  777MOL0     C 4820   3.208   6.287   3.896 -1.2083 -0.4556 -0.3927
  777MOL0     C 4821   3.190   6.434   3.949 -0.4249  0.3639  0.8386
  777MOL0     C 4822   3.060   6.501   3.877 -0.0609  0.2128  0.1557
  777MOL0     C 4823   3.058   6.554   3.736  0.4097 -0.8737  0.0557
  777MOL0     C 4824   3.043   6.440   3.638  0.0084  0.0661  0.5037
  777MOL0     C 4825   3.043   6.343   3.568 -0.6369 -0.1821 -0.2636
  777MOL0     C 4826   3.084   6.064   3.736  0.5213  0.3238 -0.4014
  777MOL0     C 4827   3.000   5.987   3.647  0.2902  0.1763  0.3970
  777MOL0     H 4828   2.570   5.937   3.375  0.3429 -1.3629 -2.7947
  777MOL0     H 4829   2.390   5.816   3.256  0.5017  1.4303  0.0529
  777MOL0     H 4830   2.160   5.469   3.408 -1.7522  2.1986 -1.6751
  777MOL0     H 4831   2.146   5.463   3.241  0.2153 -2.2412 -0.0133
  777MOL0     H 4832   2.395   5.351   3.369  0.8306 -3.2854 -1.0914
  777MOL0     H 4833   2.255   5.263   3.297 -1.4663  0.3484  0.6946
  777MOL0     H 4834   2.384   5.458   3.130  0.3420  0.3314  1.0078
  777MOL0     H 4835   2.486   5.315   3.153 -0.7013 -3.3873 -1.5994
  777MOL0     H 4836   2.312   5.169   3.071 -1.4278 -0.2402  0.8424
  777MOL0     H 4837   2.180   5.295   3.078 -0.6124  1.4371 -1.7903
  777MOL0     H 4838   2.420   5.354   2.907  0.1633 -0.3030  2.6573
  777MOL0     H 4839   2.290   5.236   2.848  0.0248  1.1439 -1.6540
  777MOL0     H 4840   2.127   5.413   2.862 -0.5347  2.0123  2.8056
  777MOL0     H 4841   2.246   5.529   2.924 -5.6468  2.3510 -0.4791
  777MOL0     H 4842   2.385   5.480   2.730 -0.4526  0.4685  2.7536
  777MOL0     H 4843   2.250   5.414   2.635 -2.0203 -0.7558  0.7591
  777MOL0     H 4844   2.288   5.662   2.580 -1.0205 -1.5186 -0.2847
  777MOL0     H 4845   2.246   5.685   2.754  3.2133  0.9250 -0.7244
  777MOL0     H 4846   1.990   5.690   2.803  0.8769 -4.1499  2.4936
  777MOL0     H 4847   1.689   5.481   2.660 -1.8804  0.6376 -1.2974
  777MOL0     H 4848   1.744   5.559   2.809 -1.2203 -0.1847  0.0333
  777MOL0     H 4849   1.722   5.778   2.739 -2.0069 -0.8905  0.9793
  777MOL0     H 4850   1.572   5.699   2.688 -0.4437 -2.8825 -2.2984
  777MOL0     H 4851   1.676   5.685   2.455 -2.1001  0.5296  0.8783
  777MOL0     H 4852   1.808   5.788   2.512  1.0867 -2.1960 -0.0098
  777MOL0     H 4853   1.646   5.925   2.407  3.5905 -0.4540 -0.2328
  777MOL0     H 4854   1.673   5.957   2.579 -0.5545  1.0953 -1.3653
  777MOL0     H 4855   1.250   5.809   2.642 -1.0409 -1.4388  0.0126
  777MOL0     H 4856   0.984   5.665   2.536 -1.2519  0.6346  1.3191
  777MOL0     H 4857   1.088   5.539   2.601  0.4347 -0.1234 -0.6877
  777MOL0     H 4858   1.087   5.701   2.678  0.2947 -0.6630  0.7673
  777MOL0     H 4859   1.038   5.622   1.929 -1.6129  1.1651  0.0393
  777MOL0     H 4860   0.941   5.489   1.754  0.8177 -0.1102 -0.0679
  777MOL0     H 4861   0.778   5.348   1.659  3.4810  2.8036  1.0469
  777MOL0     H 4862   0.942   5.297   1.610 -0.0106 -0.5250 -0.2493
  777MOL0     H 4863   0.681   5.116   1.615  0.4610 -1.2712 -0.3713
  777MOL0     H 4864   0.743   5.212   1.468  3.2641  0.3295 -0.6501
  777MOL0     H 4865   0.936   5.067   1.458 -0.2950 -2.3550 -1.7954
  777MOL0     H 4866   0.781   5.005   1.422 -0.8450  2.6966 -0.0192
  777MOL0     H 4867   0.898   4.955   1.696 -1.4977  1.7727  0.0483
  777MOL0     H 4868   0.762   4.870   1.632  0.4527 -0.2233  0.5689
  777MOL0     H 4869   1.051   4.840   1.572  0.4160  1.6666 -2.2660
  777MOL0     H 4870   0.933   4.781   1.438  2.7458  3.0155 -2.2530
  777MOL0     H 4871   0.971   4.690   1.727 -1.3203  1.6273  1.0470
  777MOL0     H 4872   0.822   4.653   1.636 -0.1500 -1.8430 -0.8421
  777MOL0     H 4873   1.115   4.579   1.582 -0.1574  0.2621  0.6762
  777MOL0     H 4874   0.982   4.539   1.464 -4.1770 -1.4056  0.8678
  777MOL0     H 4875   1.050   4.343   1.613 -1.6663 -2.3003  0.2155
  777MOL0     H 4876   0.873   4.398   1.614 -1.2804  2.9380  2.7884
  777MOL0     H 4877   0.944   5.142   2.013 -0.8833  0.0547 -1.9214
  777MOL0     H 4878   1.064   5.271   2.176 -2.0650 -1.9044 -1.2770
  777MOL0     H 4879   1.351   5.609   2.206 -2.5699 -1.2019 -0.3514
  777MOL0     H 4880   1.527   5.770   2.309  0.2823  1.8908  1.3350
  777MOL0     H 4881   2.365   5.525   3.567  2.1789  0.5969  1.7574
  777MOL0     H 4882   2.522   5.670   3.704 -1.9075  3.2421  1.2318
  777MOL0     H 4883   2.709   6.021   3.836 -0.5358  2.8803 -0.0457
  777MOL0     H 4884   2.844   6.142   3.969 -0.0310 -3.8096  1.5227
  777MOL0     H 4885   3.295   6.238   3.942  0.2813  0.8812 -1.6395
  777MOL0     H 4886   3.231   6.277   3.790 -4.1617 -0.5200 -1.1112
  777MOL0     H 4887   3.285   6.486   3.935  0.9891 -1.9731  1.1465
  777MOL0     H 4888   3.176   6.441   4.057  2.0857 -0.1642  1.2588
  777MOL0     H 4889   3.031   6.576   3.952 -0.2004  1.0528 -0.7164
  777MOL0     H 4890   2.976   6.431   3.871  0.5086 -0.3773 -1.4225
  777MOL0     H 4891   3.153   6.607   3.721 -0.9187  2.0229  1.0433
  777MOL0     H 4892   2.970   6.618   3.719  0.6965 -0.5647 -0.2807
  777MOL0     H 4893   3.040   6.263   3.497 -2.1014 -0.2504 -0.1622
  777MOL0     H 4894   3.189   6.079   3.715  1.0012  4.7481  3.4743
  777MOL0     H 4895   3.024   5.949   3.548 -0.7711  0.5328 -0.0180
  778MOL0     O 4896   7.404   6.565   2.103  0.5071 -0.4879  0.6238
  778MOL0     C 4897   7.386   6.561   1.982 -0.2121 -0.3726  0.4235
  778MOL0     O 4898   7.274   6.536   1.917  0.4689 -0.1435 -0.3731
  778MOL0     C 4899   7.161   6.556   1.991 -0.5407  0.8793  0.5223
  778MOL0     C 4900   7.134   6.683   2.048 -0.0466  0.3408 -1.0425
  778MOL0     C 4901   7.013   6.703   2.119  0.2404 -0.1825 -0.0757
  778MOL0     C 4902   6.911   6.608   2.124  0.1814 -0.0450 -0.6151
  778MOL0     O 4903   6.785   6.632   2.181 -0.3065 -0.2049  0.4504
  778MOL0     C 4904   6.683   6.524   2.194 -0.7165  0.0300 -0.2298
  778MOL0     C 4905   6.571   6.603   2.268 -0.1023 -0.3151 -0.0139
  778MOL0     C 4906   6.454   6.508   2.278  0.3307  0.3109 -0.6080
  778MOL0     C 4907   6.343   6.569   2.350  1.0498  0.0360 -0.0883
  778MOL0     C 4908   6.201   6.505   2.329 -0.2162 -0.8535 -0.0643
  778MOL0     C 4909   6.130   6.531   2.188 -0.4895 -0.5233  0.2948
  778MOL0     C 4910   5.997   6.468   2.175 -0.1996  0.4447  0.0721
  778MOL0     C 4911   5.874   6.515   2.263 -0.4249 -0.3249 -0.2553
  778MOL0     N 4912   5.745   6.448   2.239  0.1362 -0.8614 -0.0164
  778MOL0     C 4913   5.630   6.506   2.197  0.4571 -0.1417  0.6843
  778MOL0     C 4914   5.539   6.411   2.181 -0.4650 -0.3224  0.0963
  778MOL0     C 4915   5.395   6.432   2.154 -1.6803  0.4053  0.5879
  778MOL0     C 4916   5.364   6.435   1.999  0.4963  1.0574  1.0030
  778MOL0     C 4917   5.218   6.474   1.972 -0.7977 -0.3990 -0.6534
  778MOL0     C 4918   5.104   6.402   2.038 -0.2135 -0.2164 -0.1554
  778MOL0     O 4919   5.085   6.271   1.990  0.1075 -0.1972  0.4374
  778MOL0     C 4920   4.973   6.209   2.037  0.3093 -0.5051  1.0221
  778MOL0     C 4921   4.974   6.095   2.112  0.5923  0.2189  0.2312
  778MOL0     C 4922   4.861   6.017   2.129  0.4289 -0.9895 -0.4782
  778MOL0     C 4923   4.889   5.885   2.211  0.2696 -0.0284  0.6276
  778MOL0     C 4924   4.732   6.065   2.079  0.0330  0.2665  0.1539
  778MOL0     C 4925   4.605   5.978   2.090  0.1438  0.2724  0.0480
  778MOL0     O 4926   4.493   6.014   2.017 -0.0268  0.1832 -0.4908
  778MOL0     C 4927   4.387   5.919   2.004 -0.5437 -0.3651  0.8347
  778MOL0     C 4928   4.311   5.878   2.113 -0.0983 -0.3052  0.1217
  778MOL0     C 4929   4.211   5.782   2.087  0.1519  0.6255 -0.0688
  778MOL0     C 4930   4.182   5.728   1.964  0.4280 -0.5433 -0.2447
  778MOL0     O 4931   4.071   5.663   1.936 -0.0516  0.6481  0.2136
  778MOL0     C 4932   4.056   5.604   1.804  0.3035 -0.4706 -0.1590
  778MOL0     C 4933   4.147   5.490   1.768 -0.4649  0.4539 -0.4225
  778MOL0     C 4934   4.117   5.346   1.796  0.2807  0.5911 -0.4710
  778MOL0     C 4935   4.028   5.314   1.917 -0.1343  0.3160  0.3726
  778MOL0     C 4936   3.992   5.172   1.903 -0.5181 -0.8051  0.7093
  778MOL0     C 4937   4.090   5.071   1.933 -0.8982 -0.3213  0.0931
  778MOL0     C 4938   4.029   4.930   1.936  0.9927  0.6507 -0.1664
  778MOL0     C 4939   4.134   4.822   1.969 -0.0527 -0.0732 -0.2569
  778MOL0    Cl 4940   4.259   4.825   1.839  0.3048  0.0833 -0.1419
  778MOL0     C 4941   4.276   5.766   1.858 -0.0142 -0.1763  0.6092
  778MOL0     C 4942   4.374   5.858   1.880 -0.4779 -0.6323 -0.1891
  778MOL0     O 4943   4.613   5.877   2.157 -0.3686  0.0555  0.2408
  778MOL0     C 4944   4.727   6.187   2.011  0.7634  0.2397  0.2842
  778MOL0     C 4945   4.847   6.256   1.990 -0.5513 -0.7245  0.2076
  778MOL0     N 4946   5.599   6.291   2.221  0.5927  0.5323  0.0927
  778MOL0     N 4947   5.723   6.309   2.249 -0.0585 -0.1200 -0.1919
  778MOL0     C 4948   6.943   6.486   2.068  0.2194 -0.4734 -0.2867
  778MOL0     C 4949   7.064   6.455   2.001 -0.4152 -0.8999  0.2773
  778MOL0     C 4950   7.508   6.577   1.895  0.3773 -0.4600 -0.5337
  778MOL0     C 4951   7.616   6.645   1.953 -0.4247 -0.5062 -0.4676
  778MOL0     C 4952   7.717   6.680   1.878 -0.8215  0.0896 -0.2243
  778MOL0     C 4953   7.723   6.640   1.742 -0.0111  0.8217  0.6708
  778MOL0     O 4954   7.839   6.663   1.666 -0.4898  0.0132  0.1035
  778MOL0     C 4955   7.827   6.722   1.536 -0.5864 -0.3145 -0.8793
  778MOL0     C 4956   7.958   6.782   1.492  0.2017 -0.4390 -0.1528
  778MOL0     C 4957   8.067   6.681   1.466 -0.2276  0.2709  0.4900
  778MOL0     C 4958   8.029   6.597   1.342 -0.9503  0.2073 -0.8692
  778MOL0     C 4959   8.147   6.537   1.274  0.2853 -0.7079 -0.4580
  778MOL0     C 4960   8.245   6.500   1.214  0.4530  0.8029  0.1575
  778MOL0     C 4961   7.622   6.567   1.683  0.5664 -0.0591  0.2441
  778MOL0     C 4962   7.504   6.548   1.760  0.9646 -0.0597 -0.2637
  778MOL0     H 4963   7.218   6.752   2.054  0.2416 -0.0452 -0.4166
  778MOL0     H 4964   6.996   6.799   2.167 -1.2779 -1.1047  1.3306
  778MOL0     H 4965   6.652   6.492   2.094  1.2405 -0.3825 -0.7430
  778MOL0     H 4966   6.723   6.440   2.252 -2.5984 -2.4100 -2.2294
  778MOL0     H 4967   6.599   6.644   2.365 -1.7519 -1.8602  1.1732
  778MOL0     H 4968   6.553   6.693   2.209  0.0659  0.2378  0.7648
  778MOL0     H 4969   6.416   6.499   2.176 -1.3439 -0.0170  0.0134
  778MOL0     H 4970   6.480   6.411   2.321 -1.4108  0.3955  0.7642
  778MOL0     H 4971   6.361   6.558   2.458 -1.6838 -3.2598  0.1930
  778MOL0     H 4972   6.330   6.674   2.321  3.1778  0.5146  0.4922
  778MOL0     H 4973   6.218   6.399   2.349 -0.9943 -0.7880  0.9995
  778MOL0     H 4974   6.130   6.547   2.401 -2.5697 -0.8147 -2.2561
  778MOL0     H 4975   6.116   6.638   2.172  2.5605 -0.3305 -2.0392
  778MOL0     H 4976   6.197   6.510   2.103  0.9454  1.5837  0.8428
  778MOL0     H 4977   5.969   6.461   2.070 -0.1238  4.8050 -0.3833
  778MOL0     H 4978   6.011   6.365   2.211 -1.4481  0.2122 -0.0613
  778MOL0     H 4979   5.855   6.622   2.257  1.0979  0.0740  1.2310
  778MOL0     H 4980   5.897   6.501   2.369  1.9997  0.6018 -0.5948
  778MOL0     H 4981   5.619   6.613   2.181  0.0599  0.0362  2.0048
  778MOL0     H 4982   5.332   6.354   2.198 -0.2358 -1.1356  0.0361
  778MOL0     H 4983   5.372   6.530   2.198 -0.3035  0.0328  2.2204
  778MOL0     H 4984   5.389   6.340   1.951 -1.8325  0.4533  0.8995
  778MOL0     H 4985   5.427   6.507   1.945 -0.0379 -0.6715 -2.1916
  778MOL0     H 4986   5.195   6.473   1.865 -0.0852 -1.3583 -0.8082
  778MOL0     H 4987   5.217   6.577   2.011  1.0469 -0.6398  0.1460
  778MOL0     H 4988   5.014   6.465   2.038 -0.0329  0.1260  2.1264
  778MOL0     H 4989   5.131   6.408   2.144 -4.0617 -2.0841  1.1168
  778MOL0     H 4990   5.068   6.059   2.154  0.4311 -0.5993 -0.0982
  778MOL0     H 4991   4.995   5.876   2.233  0.2928 -1.4960  0.0288
  778MOL0     H 4992   4.835   5.892   2.306  0.8188  1.0008  0.8712
  778MOL0     H 4993   4.854   5.790   2.168 -1.2012  0.5727  0.4200
  778MOL0     H 4994   4.331   5.909   2.215  0.9856  0.3290 -0.2696
  778MOL0     H 4995   4.161   5.749   2.177  2.9243 -0.1836  1.2489
  778MOL0     H 4996   3.955   5.572   1.776  0.1318  1.1086 -1.4780
  778MOL0     H 4997   4.054   5.692   1.740  0.5197  2.2975  3.3256
  778MOL0     H 4998   4.162   5.502   1.660 -1.0142 -0.9647 -0.6680
  778MOL0     H 4999   4.241   5.500   1.824 -1.6232 -1.7997  2.1158
  778MOL0     H 5000   4.207   5.288   1.812  1.7425  3.2461  1.7870
  778MOL0     H 5001   4.061   5.307   1.710 -0.9798 -2.0622  1.4169
  778MOL0     H 5002   4.072   5.349   2.011  0.1596  2.3930 -0.5054
  778MOL0     H 5003   3.932   5.366   1.908 -1.5043 -2.0974 -0.0333
  778MOL0     H 5004   3.953   5.142   1.805 -2.2205 -0.7673  1.3468
  778MOL0     H 5005   3.909   5.151   1.972 -1.0593 -1.9354 -0.2358
  778MOL0     H 5006   4.172   5.069   1.861 -1.5555 -2.6448 -0.7027
  778MOL0     H 5007   4.127   5.094   2.033  0.1450 -1.3307 -0.0338
  778MOL0     H 5008   3.994   4.908   1.834 -0.6494 -2.1748  0.8880
  778MOL0     H 5009   3.946   4.929   2.006  2.0750  2.2043  1.2182
  778MOL0     H 5010   4.098   4.721   1.990  0.9558 -0.5074 -0.5039
  778MOL0     H 5011   4.173   4.856   2.065 -1.3282 -0.7392  0.5074
  778MOL0     H 5012   4.282   5.738   1.753 -0.3252  1.2170  0.1991
  778MOL0     H 5013   4.431   5.880   1.790 -1.8787  0.7724 -0.7891
  778MOL0     H 5014   4.641   6.210   1.949  0.7962 -2.2266 -0.8108
  778MOL0     H 5015   4.846   6.345   1.927  0.0396  2.1507  3.9116
  778MOL0     H 5016   6.860   6.418   2.051 -1.9338  2.3593 -2.1542
  778MOL0     H 5017   7.068   6.358   1.952  0.1167 -0.1784 -1.2008
  778MOL0     H 5018   7.615   6.671   2.058 -0.3962 -3.0290  0.2310
  778MOL0     H 5019   7.804   6.731   1.917  0.6101 -1.7051 -0.9144
  778MOL0     H 5020   7.795   6.645   1.465  1.0749 -2.7278  0.8131
  778MOL0     H 5021   7.752   6.801   1.546  1.9538  2.3527 -1.6100
  778MOL0     H 5022   7.996   6.856   1.563  2.2258  0.0781 -1.6663
  778MOL0     H 5023   7.946   6.846   1.404 -2.1767  0.8746  1.0418
  778MOL0     H 5024   8.083   6.618   1.555 -1.5779 -0.0690  0.5108
  778MOL0     H 5025   8.164   6.730   1.454  0.0513  0.6144  3.3004
  778MOL0     H 5026   7.962   6.655   1.278 -2.7310 -0.4654  0.3269
  778MOL0     H 5027   7.962   6.521   1.384  0.2131  1.0592  2.8912
  778MOL0     H 5028   8.337   6.475   1.166 -1.7395 -1.9199 -3.0442
  778MOL0     H 5029   7.629   6.543   1.577  2.7076  4.5614 -0.9294
  778MOL0     H 5030   7.409   6.509   1.726  0.9658 -0.9830  0.7231
  779MOL0     O 5031   6.489   4.959   8.774  0.4017  0.5105  0.2428
  779MOL0     C 5032   6.477   4.976   8.895 -0.1320 -0.1981 -0.0686
  779MOL0     O 5033   6.385   4.917   8.976  0.2727 -0.1459 -1.5496
  779MOL0     C 5034   6.300   4.820   8.932  0.7211  0.3136 -0.3288
  779MOL0     C 5035   6.350   4.709   8.860  0.6877 -0.1013 -0.0616
  779MOL0     C 5036   6.261   4.606   8.825  0.6640 -0.1131  0.4747
  779MOL0     C 5037   6.125   4.602   8.858  0.0806  0.2101  0.7090
  779MOL0     O 5038   6.064   4.483   8.817 -0.4887  0.4671  0.1580
  779MOL0     C 5039   5.956   4.428   8.887  0.7682 -0.1506 -0.3538
  779MOL0     C 5040   5.845   4.416   8.788 -0.1634  0.1217  0.6439
  779MOL0     C 5041   5.738   4.317   8.817 -0.5151 -0.5198  0.2126
  779MOL0     C 5042   5.644   4.373   8.921  0.3473  0.5570  0.2349
  779MOL0     C 5043   5.501   4.342   8.882 -0.3372  0.4228 -0.3624
  779MOL0     C 5044   5.441   4.198   8.883  0.2179 -0.1088  0.0428
  779MOL0     C 5045   5.294   4.204   8.907 -0.0465  0.1663  0.5726
  779MOL0     C 5046   5.216   4.081   8.874  0.5710  0.5757  0.4111
  779MOL0     N 5047   5.220   3.990   8.990 -0.3645  0.9432 -0.2982
  779MOL0     C 5048   5.328   3.909   9.015  0.4077  0.0687  0.8705
  779MOL0     C 5049   5.269   3.814   9.098 -0.3777 -0.4635 -0.1232
  779MOL0     C 5050   5.346   3.694   9.145 -0.6748 -0.2415  0.0785
  779MOL0     C 5051   5.415   3.724   9.282 -0.9945 -0.1186  0.0870
  779MOL0     C 5052   5.567   3.689   9.285  0.1136 -0.3701 -0.7104
  779MOL0     C 5053   5.630   3.688   9.428  0.4455 -0.1960 -0.2947
  779MOL0     O 5054   5.619   3.813   9.493 -0.8340 -0.5829  0.3127
  779MOL0     C 5055   5.744   3.881   9.491 -0.7668  1.0488 -0.7859
  779MOL0     C 5056   5.759   3.971   9.399 -0.6717 -0.6536  0.2714
  779MOL0     C 5057   5.879   4.041   9.372 -0.6499 -0.3128 -0.2525
  779MOL0     C 5058   5.862   4.124   9.250 -0.6122 -0.8692  0.2149
  779MOL0     C 5059   5.987   4.026   9.457 -0.1489  0.2438  0.3755
  779MOL0     C 5060   6.116   4.094   9.429  0.0727 -0.8290  0.1616
  779MOL0     O 5061   6.120   4.221   9.377 -0.2740 -0.2218 -0.5172
  779MOL0     C 5062   6.223   4.274   9.296 -0.2233  0.2954 -0.0765
  779MOL0     C 5063   6.358   4.248   9.319  0.7905 -0.0319  0.3247
  779MOL0     C 5064   6.462   4.318   9.256  1.2181 -0.0340  0.6216
  779MOL0     C 5065   6.425   4.399   9.154 -0.6262 -0.0369 -0.4693
  779MOL0     O 5066   6.527   4.442   9.079  0.1337 -0.3764 -0.5279
  779MOL0     C 5067   6.567   4.570   9.131  1.7314 -1.0377 -0.1474
  779MOL0     C 5068   6.665   4.640   9.041  0.6484  0.2997 -0.1332
  779MOL0     C 5069   6.743   4.736   9.121 -0.7344 -1.2023  0.1776
  779MOL0     C 5070   6.869   4.792   9.053  0.5309 -0.5056  0.3097
  779MOL0     C 5071   6.947   4.893   9.139 -0.0989  0.2491  1.4171
  779MOL0     C 5072   7.084   4.930   9.079 -0.2144  0.5273 -0.2440
  779MOL0     C 5073   7.150   5.034   9.171 -0.1446  0.2897  0.5521
  779MOL0     C 5074   7.238   5.138   9.104 -0.8088  0.4520 -0.1605
  779MOL0    Cl 5075   7.142   5.251   9.001 -0.1957  0.3006  0.2846
  779MOL0     C 5076   6.292   4.420   9.118  0.6539 -0.1848 -0.1513
  779MOL0     C 5077   6.189   4.359   9.186  0.2595  0.7681 -0.9892
  779MOL0     O 5078   6.213   4.018   9.454  0.0835  0.3563 -0.2042
  779MOL0     C 5079   5.969   3.922   9.563 -0.3883 -0.8334  0.1631
  779MOL0     C 5080   5.858   3.846   9.573  0.7906  0.2183 -0.0922
  779MOL0     N 5081   5.131   3.848   9.116 -0.7168  0.5452  0.6357
  779MOL0     N 5082   5.108   3.958   9.057  0.1440  0.0322  0.2128
  779MOL0     C 5083   6.077   4.717   8.932  0.3967 -0.4679 -0.8308
  779MOL0     C 5084   6.165   4.816   8.971 -0.4115 -0.2254  0.1451
  779MOL0     C 5085   6.577   5.056   8.961 -0.2285  1.0303  0.1689
  779MOL0     C 5086   6.700   5.079   8.906 -0.6643  0.0959  0.0129
  779MOL0     C 5087   6.798   5.154   8.964 -0.4918 -0.3276 -0.0688
  779MOL0     C 5088   6.778   5.215   9.096  0.0106  0.1694  0.3233
  779MOL0     O 5089   6.879   5.297   9.144  0.1870 -0.4487 -0.0695
  779MOL0     C 5090   6.845   5.366   9.270 -0.2603 -0.6308  0.4541
  779MOL0     C 5091   6.987   5.399   9.329  0.5028 -0.1421  0.0054
  779MOL0     C 5092   7.007   5.355   9.474 -0.1740  0.5505 -0.4857
  779MOL0     C 5093   6.950   5.457   9.579 -0.3638 -0.1088 -0.4312
  779MOL0     C 5094   7.045   5.568   9.581 -0.0418  0.0317  0.0681
  779MOL0     C 5095   7.127   5.658   9.576 -0.0870 -0.3568  0.3217
  779MOL0     C 5096   6.653   5.184   9.151  0.1345 -0.2806 -0.1644
  779MOL0     C 5097   6.553   5.112   9.088 -0.4929 -0.0625  0.0241
  779MOL0     H 5098   6.455   4.700   8.831  0.1658 -2.1302 -1.5672
  779MOL0     H 5099   6.313   4.520   8.784 -2.0028 -0.2282 -3.1083
  779MOL0     H 5100   5.980   4.336   8.941 -1.2708  0.4221  1.6598
  779MOL0     H 5101   5.925   4.489   8.972  1.5975  1.0121 -0.8534
  779MOL0     H 5102   5.808   4.518   8.778  0.4933  0.1455 -2.1542
  779MOL0     H 5103   5.891   4.394   8.691 -0.0174 -2.8376  1.2911
  779MOL0     H 5104   5.694   4.282   8.723 -1.5078  4.6112 -1.5446
  779MOL0     H 5105   5.783   4.232   8.867 -1.8251 -1.7243 -0.5709
  779MOL0     H 5106   5.666   4.325   9.017 -0.1050 -0.9053 -0.3659
  779MOL0     H 5107   5.656   4.481   8.927  0.2582  0.7203 -1.9376
  779MOL0     H 5108   5.442   4.403   8.952  0.6734 -0.2511  1.1183
  779MOL0     H 5109   5.488   4.386   8.782  1.1087  1.6613 -0.0450
  779MOL0     H 5110   5.473   4.138   8.797 -1.4793 -1.4989  0.3238
  779MOL0     H 5111   5.475   4.153   8.976 -1.2283 -0.4006  0.4603
  779MOL0     H 5112   5.265   4.232   9.009 -0.9603 -2.0949  0.9860
  779MOL0     H 5113   5.248   4.285   8.849  0.0665  0.1651  0.4798
  779MOL0     H 5114   5.250   4.029   8.784  0.1026  0.5563  0.2418
  779MOL0     H 5115   5.112   4.114   8.864  0.3809  0.0085  0.4555
  779MOL0     H 5116   5.431   3.918   8.980 -0.1861 -2.3880 -1.8675
  779MOL0     H 5117   5.276   3.612   9.162 -1.3862  0.3163 -0.0735
  779MOL0     H 5118   5.418   3.673   9.066 -0.4128  2.2209 -0.4196
  779MOL0     H 5119   5.353   3.681   9.361 -1.0584 -0.8631 -0.3623
  779MOL0     H 5120   5.411   3.831   9.306 -1.5435 -0.0437 -0.3459
  779MOL0     H 5121   5.625   3.758   9.223 -3.2993 -0.1728 -4.1463
  779MOL0     H 5122   5.582   3.592   9.236 -3.4561 -2.5751  2.0670
  779MOL0     H 5123   5.732   3.649   9.424  1.0655  1.0490  1.7886
  779MOL0     H 5124   5.579   3.615   9.492  0.6503 -0.5296 -0.5028
  779MOL0     H 5125   5.676   3.985   9.331 -1.1706 -0.7037  0.8623
  779MOL0     H 5126   5.890   4.228   9.271  4.3061 -1.8056 -0.4838
  779MOL0     H 5127   5.921   4.096   9.162 -3.1059  0.8772 -2.1474
  779MOL0     H 5128   5.757   4.125   9.220 -0.8923  1.7904  0.9772
  779MOL0     H 5129   6.383   4.192   9.409 -0.3708  4.2355  3.5925
  779MOL0     H 5130   6.566   4.296   9.278  0.9022  0.4609  2.8633
  779MOL0     H 5131   6.484   4.640   9.142  2.3464  0.3817 -3.4872
  779MOL0     H 5132   6.601   4.553   9.234 -3.2209  0.7876  2.1571
  779MOL0     H 5133   6.720   4.556   8.998 -0.9475 -0.6817 -0.3039
  779MOL0     H 5134   6.623   4.692   8.954  1.2366 -2.1797 -2.0242
  779MOL0     H 5135   6.779   4.690   9.213 -1.1930  0.2654  1.1222
  779MOL0     H 5136   6.673   4.813   9.156 -1.4634 -2.2415  1.0707
  779MOL0     H 5137   6.933   4.709   9.022  1.2933  0.5984 -1.1591
  779MOL0     H 5138   6.849   4.842   8.958  3.5853  0.9598  0.3051
  779MOL0     H 5139   6.954   4.839   9.234  2.0490 -1.0287  0.6075
  779MOL0     H 5140   6.891   4.985   9.156 -2.4114 -1.0900  1.4202
  779MOL0     H 5141   7.141   4.836   9.072  0.0200  0.7602 -2.1888
  779MOL0     H 5142   7.073   4.966   8.976  1.8535 -2.8994 -1.8656
  779MOL0     H 5143   7.211   4.975   9.240 -1.4390 -1.1183  0.5239
  779MOL0     H 5144   7.071   5.081   9.230 -0.8778 -0.9039  0.5330
  779MOL0     H 5145   7.319   5.101   9.040 -1.1722 -1.6109  0.5063
  779MOL0     H 5146   7.284   5.190   9.188  0.3875 -1.4924  0.4493
  779MOL0     H 5147   6.261   4.469   9.026 -2.2638  1.4048  1.5113
  779MOL0     H 5148   6.087   4.383   9.159  0.1652 -0.0729 -1.3873
  779MOL0     H 5149   6.045   3.914   9.640 -1.7914  1.4484  1.9163
  779MOL0     H 5150   5.832   3.783   9.657 -1.4343 -1.2959 -1.8233
  779MOL0     H 5151   5.971   4.731   8.951  0.5945 -0.5535  0.4173
  779MOL0     H 5152   6.131   4.896   9.035  1.2278  3.1350 -2.8632
  779MOL0     H 5153   6.725   5.028   8.814 -0.0954  3.5715 -1.9004
  779MOL0     H 5154   6.888   5.165   8.904 -0.3662  0.4913  0.2599
  779MOL0     H 5155   6.791   5.459   9.247  1.6388  0.1592 -1.0872
  779MOL0     H 5156   6.785   5.306   9.340 -3.0192  1.1821 -0.1873
  779MOL0     H 5157   7.000   5.507   9.331 -2.0313  0.2104  1.7575
  779MOL0     H 5158   7.064   5.360   9.261  0.8129 -0.9068  0.7723
  779MOL0     H 5159   7.116   5.342   9.479 -0.3772 -0.9077  1.1382
  779MOL0     H 5160   6.958   5.257   9.479 -0.3842  0.6587 -0.4282
  779MOL0     H 5161   6.942   5.417   9.680  1.0906  0.3459 -0.1190
  779MOL0     H 5162   6.848   5.488   9.551 -0.5499 -2.7026 -3.0920
  779MOL0     H 5163   7.196   5.739   9.586  0.2918 -0.6597  0.2130
  779MOL0     H 5164   6.613   5.236   9.238  0.6492 -1.9142  1.0814
  779MOL0     H 5165   6.455   5.107   9.134 -1.1893  0.4703 -1.3574
  780MOL0     O 5166   3.245   3.010   1.058  0.5160  0.1042  0.6076
  780MOL0     C 5167   3.284   3.020   0.941 -0.3225  0.7169 -0.1848
  780MOL0     O 5168   3.203   2.993   0.831  0.3175 -0.9689 -0.8931
  780MOL0     C 5169   3.071   2.961   0.844  0.5034  0.6912 -0.4257
  780MOL0     C 5170   3.020   2.865   0.748 -0.6759  0.0355 -0.0021
  780MOL0     C 5171   2.885   2.827   0.765  0.5067 -1.0976 -0.5320
  780MOL0     C 5172   2.796   2.886   0.858 -0.1774 -0.4423  0.2530
  780MOL0     O 5173   2.661   2.841   0.851 -0.7102 -0.1956 -0.1867
  780MOL0     C 5174   2.543   2.914   0.890  0.7353  0.5135 -0.1330
  780MOL0     C 5175   2.427   2.861   0.799  0.8020 -0.5484 -0.1037
  780MOL0     C 5176   2.276   2.877   0.865 -0.1457 -0.4426 -0.6513
  780MOL0     C 5177   2.242   3.026   0.891  0.2970  0.1821  0.5242
  780MOL0     C 5178   2.106   3.053   0.957 -0.2489  0.2433  0.9019
  780MOL0     C 5179   2.087   3.207   0.968  0.1761  0.2502  0.3090
  780MOL0     C 5180   2.096   3.253   1.116  0.4304 -0.0554  0.5899
  780MOL0     C 5181   1.995   3.210   1.210  0.1989 -0.0064  0.2706
  780MOL0     N 5182   1.860   3.222   1.163  0.4034  1.3643  0.6298
  780MOL0     C 5183   1.788   3.115   1.100 -0.1448 -0.4038 -0.2926
  780MOL0     C 5184   1.674   3.179   1.048 -0.5894  0.4886  0.3982
  780MOL0     C 5185   1.555   3.121   0.975 -0.3883 -0.1019  0.3769
  780MOL0     C 5186   1.420   3.112   1.056 -0.2640 -0.1723 -0.7843
  780MOL0     C 5187   1.319   3.059   0.961 -0.5634  0.3503 -0.4094
  780MOL0     C 5188   1.182   3.059   1.019 -0.2133  0.6997 -0.6481
  780MOL0     O 5189   1.156   2.985   1.145 -0.4419 -0.5630 -0.4584
  780MOL0     C 5190   1.032   2.974   1.190 -1.2369 -0.2474  1.3196
  780MOL0     C 5191   1.015   2.920   1.315  0.2233  0.3640 -0.2510
  780MOL0     C 5192   0.891   2.915   1.379  0.0414 -0.4296 -0.6438
  780MOL0     C 5193   0.881   2.862   1.519 -1.4429  0.2110 -0.1490
  780MOL0     C 5194   0.779   2.964   1.301  0.2407 -1.3685  0.4819
  780MOL0     C 5195   0.642   2.950   1.348  0.8801  0.2314 -0.8238
  780MOL0     O 5196   0.556   3.066   1.328  0.5622 -0.6170  0.4934
  780MOL0     C 5197   0.419   3.068   1.344  0.1157  0.5971 -0.9698
  780MOL0     C 5198   0.374   3.056   1.478 -0.2127  0.2004 -1.2069
  780MOL0     C 5199   0.238   3.068   1.508 -0.3028 -0.6003 -0.3080
  780MOL0     C 5200   0.156   3.098   1.402 -0.0110  0.0018  0.6950
  780MOL0     O 5201   0.026   3.102   1.438 -0.0610 -0.6057 -0.4613
  780MOL0     C 5202  -0.074   3.154   1.354 -0.9593 -0.9458  0.5128
  780MOL0     C 5203  -0.217   3.138   1.419  0.5077  0.3921  0.5095
  780MOL0     C 5204  -0.335   3.185   1.322  0.1262 -0.7893 -0.2306
  780MOL0     C 5205  -0.444   3.253   1.397 -0.0289 -0.5888  0.3973
  780MOL0     C 5206  -0.552   3.304   1.306 -0.2523 -0.3107  0.7431
  780MOL0     C 5207  -0.671   3.355   1.385  1.0352 -0.1432  0.1310
  780MOL0     C 5208  -0.772   3.386   1.271  1.0044 -0.1907 -0.5045
  780MOL0     C 5209  -0.896   3.451   1.307 -0.7220  0.9434  0.1190
  780MOL0    Cl 5210  -0.994   3.382   1.441  0.4453 -0.1291  0.3111
  780MOL0     C 5211   0.204   3.126   1.272 -0.2458 -0.9572  0.2219
  780MOL0     C 5212   0.338   3.106   1.244  0.6850  0.3472  0.6620
  780MOL0     O 5213   0.596   2.843   1.402 -0.4865 -0.9915  0.1669
  780MOL0     C 5214   0.795   2.998   1.168 -0.2081 -0.1572 -0.7939
  780MOL0     C 5215   0.921   3.015   1.114  0.0294  0.3966  0.3285
  780MOL0     N 5216   1.678   3.306   1.086  0.2200 -0.8617  0.0630
  780MOL0     N 5217   1.785   3.332   1.148 -0.2568 -0.1998 -0.3008
  780MOL0     C 5218   2.843   2.989   0.940 -0.2533 -0.8666  0.4084
  780MOL0     C 5219   2.977   3.033   0.927 -0.3018  0.4664  0.3190
  780MOL0     C 5220   3.428   3.068   0.921  1.2892 -1.0697  0.7770
  780MOL0     C 5221   3.501   3.101   1.037 -0.2975  0.0136 -0.4503
  780MOL0     C 5222   3.627   3.150   1.005  0.3166  0.2579 -0.5596
  780MOL0     C 5223   3.683   3.175   0.885  0.3063  0.1848 -0.0660
  780MOL0     O 5224   3.814   3.224   0.855 -0.1409  0.5014 -1.0664
  780MOL0     C 5225   3.890   3.296   0.961  0.0150 -1.0165  0.2774
  780MOL0     C 5226   4.021   3.357   0.891  0.7024  0.0758  0.4022
  780MOL0     C 5227   3.979   3.435   0.759  0.9219 -0.0799  0.0951
  780MOL0     C 5228   4.105   3.480   0.686  0.0770  0.6077  0.3132
  780MOL0     C 5229   4.179   3.397   0.588 -0.0911 -0.2744 -0.1393
  780MOL0     C 5230   4.258   3.338   0.516  0.0443 -0.0209  0.3142
  780MOL0     C 5231   3.606   3.161   0.767  0.3041 -0.0532  0.0786
  780MOL0     C 5232   3.473   3.105   0.790 -0.6101  0.5563 -0.4882
  780MOL0     H 5233   3.080   2.822   0.669  0.2727  0.6239  0.3893
  780MOL0     H 5234   2.836   2.757   0.698 -0.0396 -0.5403 -0.7217
  780MOL0     H 5235   2.523   2.885   0.993  2.1809 -0.6344 -0.1370
  780MOL0     H 5236   2.558   3.018   0.861 -1.3151 -0.0677 -4.0423
  780MOL0     H 5237   2.423   2.901   0.697 -0.2984 -0.1220  0.0901
  780MOL0     H 5238   2.449   2.754   0.791 -2.3572 -1.2822 -0.3055
  780MOL0     H 5239   2.200   2.837   0.797 -1.4788 -0.7012  0.9319
  780MOL0     H 5240   2.270   2.816   0.956  0.9720  2.1582  1.2689
  780MOL0     H 5241   2.314   3.060   0.965 -0.8842 -1.1739  2.3976
  780MOL0     H 5242   2.252   3.074   0.793 -3.2920 -4.2081 -2.4419
  780MOL0     H 5243   2.018   3.011   0.907 -0.1662  3.2019 -2.1373
  780MOL0     H 5244   2.098   3.014   1.059  2.3087 -0.6678  0.8143
  780MOL0     H 5245   2.166   3.262   0.915  0.0883 -0.4769 -0.6015
  780MOL0     H 5246   1.995   3.231   0.914  1.6190  2.5434 -1.3344
  780MOL0     H 5247   2.194   3.229   1.158  0.1656  2.3638  2.8868
  780MOL0     H 5248   2.073   3.359   1.102 -4.6592 -1.0107 -0.3517
  780MOL0     H 5249   2.013   3.260   1.306  1.2121  0.9308 -0.3766
  780MOL0     H 5250   2.017   3.106   1.233 -0.9018 -0.1598  0.7058
  780MOL0     H 5251   1.810   3.010   1.083  3.3698 -0.0764  1.3818
  780MOL0     H 5252   1.547   3.173   0.878 -0.1809  1.1021  0.9817
  780MOL0     H 5253   1.580   3.021   0.939 -0.4971  0.2668 -0.7928
  780MOL0     H 5254   1.395   3.208   1.103  0.8208  0.6964 -1.9132
  780MOL0     H 5255   1.444   3.046   1.140  0.6315  0.4795 -0.5033
  780MOL0     H 5256   1.344   2.957   0.932  1.0166 -0.4519  3.1765
  780MOL0     H 5257   1.318   3.133   0.881  0.0109  0.4992 -0.2889
  780MOL0     H 5258   1.114   3.019   0.943 -0.5823 -0.7033  0.3779
  780MOL0     H 5259   1.152   3.162   1.036 -2.2648  0.0668 -0.1349
  780MOL0     H 5260   1.103   2.886   1.368 -0.4817 -3.2533 -1.1270
  780MOL0     H 5261   0.822   2.929   1.582  0.6062  1.8902  0.0904
  780MOL0     H 5262   0.844   2.759   1.517 -0.2008 -0.3701  2.5080
  780MOL0     H 5263   0.977   2.846   1.569 -2.1877  1.9785  1.9501
  780MOL0     H 5264   0.447   3.021   1.550 -1.6811 -1.6349 -0.5223
  780MOL0     H 5265   0.192   3.065   1.606 -0.4306 -0.5397 -0.3666
  780MOL0     H 5266  -0.054   3.260   1.340 -1.3114 -0.6378  2.1685
  780MOL0     H 5267  -0.087   3.100   1.259  1.5882  0.0548 -0.5065
  780MOL0     H 5268  -0.230   3.030   1.435  1.3473  0.0072 -1.1498
  780MOL0     H 5269  -0.217   3.179   1.520  1.5332  0.4429  0.4957
  780MOL0     H 5270  -0.380   3.102   1.267  1.6027 -0.9424 -1.2795
  780MOL0     H 5271  -0.297   3.254   1.246  1.0366 -2.4482 -1.3785
  780MOL0     H 5272  -0.482   3.183   1.471  0.3201 -0.7630  0.4113
  780MOL0     H 5273  -0.402   3.346   1.437  3.1330 -1.3447 -0.8905
  780MOL0     H 5274  -0.576   3.220   1.241  1.1762 -1.7135  1.9482
  780MOL0     H 5275  -0.503   3.378   1.242  3.1721 -1.5599  1.6952
  780MOL0     H 5276  -0.706   3.277   1.453 -0.9590  0.4023 -0.1959
  780MOL0     H 5277  -0.655   3.441   1.451 -1.7791 -0.7845  1.8277
  780MOL0     H 5278  -0.801   3.293   1.221  1.3992 -1.2779  1.1969
  780MOL0     H 5279  -0.719   3.446   1.196  1.9317  0.9152  0.9872
  780MOL0     H 5280  -0.954   3.444   1.215 -1.6894  0.1231  0.7750
  780MOL0     H 5281  -0.880   3.555   1.336  5.0113 -0.0152  1.4938
  780MOL0     H 5282   0.149   3.154   1.183  1.7229 -0.5413 -0.9135
  780MOL0     H 5283   0.363   3.123   1.140 -1.5294  1.8102  0.2902
  780MOL0     H 5284   0.699   3.021   1.123 -0.5477 -0.2210 -0.1155
  780MOL0     H 5285   0.931   3.066   1.019 -3.1350  0.0917 -0.2780
  780MOL0     H 5286   2.784   3.043   1.014 -0.5413 -1.8666  0.9213
  780MOL0     H 5287   3.017   3.110   0.992  4.0398 -2.9128  2.1121
  780MOL0     H 5288   3.459   3.079   1.134 -2.6178  1.3776 -1.0699
  780MOL0     H 5289   3.695   3.175   1.085  0.6718  1.0896 -1.1124
  780MOL0     H 5290   3.825   3.380   0.990 -2.2792 -3.2911  2.1574
  780MOL0     H 5291   3.906   3.234   1.050  1.7131 -0.9041  0.0809
  780MOL0     H 5292   4.103   3.286   0.877  2.4581  1.9501  0.7576
  780MOL0     H 5293   4.059   3.433   0.960 -0.6765  2.9646 -1.8101
  780MOL0     H 5294   3.931   3.528   0.790  2.1497  0.1490  1.4188
  780MOL0     H 5295   3.912   3.385   0.688  0.7914 -1.0793  0.8875
  780MOL0     H 5296   4.182   3.493   0.763 -0.3549 -0.0536  0.8725
  780MOL0     H 5297   4.088   3.578   0.642  1.4250  1.3837  1.4229
  780MOL0     H 5298   4.334   3.295   0.454 -1.0396 -2.0192  0.3001
  780MOL0     H 5299   3.644   3.197   0.672 -2.0671 -2.6417 -2.0526
  780MOL0     H 5300   3.420   3.085   0.697  0.7301  0.9932 -1.3825
  781MOL0     O 5301   2.460   8.236   8.169  0.2726 -0.0350  0.3489
  781MOL0     C 5302   2.370   8.295   8.235  0.4942 -0.2562  0.4026
  781MOL0     O 5303   2.341   8.275   8.367 -0.7643  0.1746  0.7003
  781MOL0     C 5304   2.426   8.200   8.440 -0.1331 -0.4829 -0.6615
  781MOL0     C 5305   2.480   8.077   8.404  0.5358 -0.0080  0.3699
  781MOL0     C 5306   2.563   8.012   8.486 -0.0357  0.6138 -0.0074
  781MOL0     C 5307   2.598   8.069   8.612 -0.3344 -0.1916 -0.0683
  781MOL0     O 5308   2.686   7.999   8.685  1.0946  0.5058  0.3506
  781MOL0     C 5309   2.771   8.075   8.770 -0.4109 -0.2888 -0.8313
  781MOL0     C 5310   2.854   7.980   8.847 -1.5160 -0.4183  0.6565
  781MOL0     C 5311   2.958   8.033   8.952 -0.4005 -1.0324 -0.8164
  781MOL0     C 5312   3.013   7.912   9.025 -0.1858  0.9176  1.1262
  781MOL0     C 5313   3.092   7.966   9.148 -0.5442 -0.5636  1.3129
  781MOL0     C 5314   3.003   8.020   9.257  0.5862 -0.1694 -0.4786
  781MOL0     C 5315   3.071   7.998   9.395  1.0916  0.7065  0.2592
  781MOL0     C 5316   3.186   8.096   9.440  0.4877  0.6126 -0.5113
  781MOL0     N 5317   3.215   8.079   9.590  0.1506 -0.3615  0.0702
  781MOL0     C 5318   3.264   7.968   9.654 -0.3240  0.2103 -0.6309
  781MOL0     C 5319   3.268   8.000   9.780  0.8780  0.1697  0.3024
  781MOL0     C 5320   3.321   7.902   9.878 -0.8487  0.2692 -0.7200
  781MOL0     C 5321   3.474   7.869   9.849 -0.6982  0.0603 -0.5654
  781MOL0     C 5322   3.558   7.996   9.839 -0.1052 -0.1362  0.6262
  781MOL0     C 5323   3.553   8.071   9.966 -0.5341  0.0105 -0.4234
  781MOL0     O 5324   3.687   8.099  10.010  0.2004  0.4561  0.3271
  781MOL0     C 5325   3.726   8.225   9.997 -0.5916  0.0875  0.4764
  781MOL0     C 5326   3.681   8.319  10.088  0.2991  0.0671 -0.9352
  781MOL0     C 5327   3.729   8.457  10.074 -0.0414  0.8940 -0.2985
  781MOL0     C 5328   3.676   8.556  10.177  0.1750  0.3712 -0.3515
  781MOL0     C 5329   3.827   8.488   9.973  0.3168  0.9177 -0.3831
  781MOL0     C 5330   3.898   8.619   9.964 -0.6641  0.2002  0.4030
  781MOL0     O 5331   4.029   8.620   9.943  0.0444  0.1466  0.6870
  781MOL0     C 5332   4.095   8.739   9.925 -0.1418 -0.0115 -0.7150
  781MOL0     C 5333   4.109   8.793   9.804  0.1738  0.0383 -0.1324
  781MOL0     C 5334   4.169   8.917   9.794  0.3276 -0.3295  0.4239
  781MOL0     C 5335   4.213   8.987   9.901 -0.5784 -0.0376  0.2176
  781MOL0     O 5336   4.276   9.104   9.885  0.2044 -0.2010  0.1075
  781MOL0     C 5337   4.353   9.162   9.993 -0.5224 -0.8380  0.0287
  781MOL0     C 5338   4.377   9.309   9.964 -0.2893  0.5143 -0.4450
  781MOL0     C 5339   4.499   9.341   9.871  0.0877 -0.2479 -0.2862
  781MOL0     C 5340   4.525   9.489   9.876 -0.2100 -0.2535  0.0149
  781MOL0     C 5341   4.647   9.527   9.793  0.0809 -0.6002 -0.7283
  781MOL0     C 5342   4.705   9.665   9.828 -0.2977  0.2142  0.1506
  781MOL0     C 5343   4.788   9.651   9.963  0.0435 -0.6554 -0.3883
  781MOL0     C 5344   4.861   9.788   9.993 -0.0608  0.3601 -0.7981
  781MOL0    Cl 5345   4.737   9.915  10.020  0.2267 -0.2303  0.2955
  781MOL0     C 5346   4.183   8.934  10.031  0.4582  0.5416 -0.4273
  781MOL0     C 5347   4.126   8.809  10.046 -0.4395 -0.4802  0.5883
  781MOL0     O 5348   3.829   8.723   9.963  0.2907 -0.2787 -0.0968
  781MOL0     C 5349   3.868   8.385   9.886  0.4463 -0.5258 -0.2261
  781MOL0     C 5350   3.817   8.257   9.896  0.1208 -0.6149  0.0026
  781MOL0     N 5351   3.237   8.134   9.805 -0.2330  0.2782 -0.0556
  781MOL0     N 5352   3.194   8.173   9.684  0.4692  0.1503 -0.2507
  781MOL0     C 5353   2.546   8.188   8.658  0.7839  0.6142 -0.3277
  781MOL0     C 5354   2.468   8.258   8.569  0.1369 -0.0462 -0.1426
  781MOL0     C 5355   2.285   8.390   8.159 -0.4013 -0.1800  0.2928
  781MOL0     C 5356   2.307   8.409   8.023 -1.4184  0.0477  0.3532
  781MOL0     C 5357   2.223   8.483   7.942 -0.2037 -0.1484  0.4718
  781MOL0     C 5358   2.104   8.540   7.995  0.0317  1.1558  0.2510
  781MOL0     O 5359   2.023   8.614   7.918  0.4030 -0.5498 -0.8976
  781MOL0     C 5360   2.088   8.701   7.824 -0.2607 -0.2873 -0.4439
  781MOL0     C 5361   2.054   8.667   7.674 -0.3657  0.6848 -0.0774
  781MOL0     C 5362   1.907   8.701   7.623  0.2274  0.0676  0.4299
  781MOL0     C 5363   1.869   8.627   7.490  0.4024  0.8021  0.3957
  781MOL0     C 5364   1.966   8.651   7.387 -0.5227  0.0457 -0.5545
  781MOL0     C 5365   2.047   8.691   7.304  0.2568  0.2584  0.5004
  781MOL0     C 5366   2.079   8.526   8.128  0.5483  0.9103 -0.5125
  781MOL0     C 5367   2.162   8.446   8.208 -0.6580 -0.1535  0.2035
  781MOL0     H 5368   2.464   8.025   8.310  0.1173  0.4277  0.1939
  781MOL0     H 5369   2.615   7.919   8.467  1.3072  1.5325 -0.9819
  781MOL0     H 5370   2.827   8.133   8.695  0.0802 -1.8394 -1.7030
  781MOL0     H 5371   2.714   8.122   8.851  3.1206 -0.4845  1.9813
  781MOL0     H 5372   2.790   7.905   8.893 -0.4736 -0.6716  1.7377
  781MOL0     H 5373   2.910   7.925   8.771 -0.7096  0.7331  0.3760
  781MOL0     H 5374   3.037   8.087   8.900 -1.1212  0.1758 -0.7090
  781MOL0     H 5375   2.902   8.097   9.022 -1.5616 -2.8522 -0.0001
  781MOL0     H 5376   2.939   7.836   9.051 -0.4804 -0.0436 -2.0767
  781MOL0     H 5377   3.076   7.858   8.953  0.7586  0.2611  2.4011
  781MOL0     H 5378   3.157   7.883   9.178 -0.8912 -1.2957  0.1129
  781MOL0     H 5379   3.163   8.047   9.126  0.1112 -1.3801  0.3426
  781MOL0     H 5380   2.977   8.125   9.242  0.6085  0.2407  1.9414
  781MOL0     H 5381   2.910   7.963   9.264  0.0110  0.4935 -2.2646
  781MOL0     H 5382   2.999   8.003   9.477 -0.1745  1.2069 -0.8519
  781MOL0     H 5383   3.108   7.895   9.389 -1.0615 -0.0869 -0.3927
  781MOL0     H 5384   3.154   8.198   9.416 -1.3530  0.1290 -0.2106
  781MOL0     H 5385   3.270   8.064   9.377  2.8320  0.7568  2.3152
  781MOL0     H 5386   3.295   7.880   9.598 -1.7518  0.7486 -2.3869
  781MOL0     H 5387   3.323   7.937   9.982 -1.4218 -0.0382 -0.6022
  781MOL0     H 5388   3.266   7.807   9.869  0.3926 -0.4658 -0.7782
  781MOL0     H 5389   3.483   7.810   9.757 -2.9328 -1.2189 -0.0367
  781MOL0     H 5390   3.511   7.809   9.932 -1.7741 -0.5365 -0.4933
  781MOL0     H 5391   3.535   8.068   9.760  0.1547 -0.8626 -0.1272
  781MOL0     H 5392   3.655   7.956   9.805  0.6111  2.8503 -1.2181
  781MOL0     H 5393   3.507   8.005  10.040 -1.6934  0.1602 -0.9822
  781MOL0     H 5394   3.491   8.161   9.969  1.0802  1.2593 -2.0275
  781MOL0     H 5395   3.616   8.283  10.167  1.9797  1.2193  1.0707
  781MOL0     H 5396   3.658   8.509  10.274 -0.4597  2.8540  0.8271
  781MOL0     H 5397   3.754   8.630  10.202 -0.9085  0.9969  1.3467
  781MOL0     H 5398   3.593   8.617  10.139  2.9242  4.4661 -0.4991
  781MOL0     H 5399   4.084   8.723   9.725  0.7234  0.8142 -1.0131
  781MOL0     H 5400   4.185   8.952   9.692  3.2449 -3.2002 -0.2646
  781MOL0     H 5401   4.309   9.162  10.093  2.8855 -5.9298  1.9169
  781MOL0     H 5402   4.440   9.096  10.003  1.1365  1.4187  1.4860
  781MOL0     H 5403   4.288   9.359   9.926 -0.8517 -0.3095 -0.2214
  781MOL0     H 5404   4.389   9.354  10.063 -1.2959  0.8068 -0.4507
  781MOL0     H 5405   4.464   9.315   9.771 -1.7786 -2.1884  0.7741
  781MOL0     H 5406   4.592   9.291   9.898  0.3518 -0.6937 -1.9643
  781MOL0     H 5407   4.449   9.560   9.842  1.7185  2.9773  1.9263
  781MOL0     H 5408   4.544   9.519   9.979  0.7326 -1.8897  0.3497
  781MOL0     H 5409   4.617   9.544   9.689 -1.2375  3.3516  0.1213
  781MOL0     H 5410   4.729   9.455   9.801  1.7230  1.2606  0.0194
  781MOL0     H 5411   4.771   9.712   9.755  0.0182  1.4837  1.2042
  781MOL0     H 5412   4.617   9.728   9.841  0.8619  1.7937  0.7034
  781MOL0     H 5413   4.856   9.568   9.943 -1.8839 -2.2089 -0.8415
  781MOL0     H 5414   4.743   9.620  10.058  1.2520 -0.4960  0.2589
  781MOL0     H 5415   4.927   9.821   9.912  1.3971  1.6811  0.8473
  781MOL0     H 5416   4.920   9.782  10.085  0.9432 -2.8284 -1.5303
  781MOL0     H 5417   4.203   8.991  10.122  1.8058 -0.2847 -0.1722
  781MOL0     H 5418   4.104   8.772  10.146 -2.6073 -0.9342 -0.0160
  781MOL0     H 5419   3.926   8.409   9.798 -2.4471 -0.3790 -2.2602
  781MOL0     H 5420   3.850   8.180   9.827 -2.8549 -3.8421  1.8298
  781MOL0     H 5421   2.550   8.229   8.758  0.1844 -0.4699  0.1719
  781MOL0     H 5422   2.438   8.360   8.592 -0.1520  0.1730 -1.4038
  781MOL0     H 5423   2.390   8.353   7.982 -1.7971 -0.2835  0.0305
  781MOL0     H 5424   2.226   8.486   7.833 -3.7866  2.8581  0.2280
  781MOL0     H 5425   2.059   8.806   7.836 -0.4189 -0.1630 -1.7878
  781MOL0     H 5426   2.197   8.707   7.834  0.1919 -4.0196 -1.6958
  781MOL0     H 5427   2.078   8.562   7.655  0.5529  0.9183 -0.2478
  781MOL0     H 5428   2.121   8.738   7.624 -0.1434  3.1818  3.4383
  781MOL0     H 5429   1.898   8.810   7.610  3.4493  0.8012  2.9633
  781MOL0     H 5430   1.836   8.675   7.702 -1.4252 -0.0339 -1.0513
  781MOL0     H 5431   1.776   8.668   7.450 -1.0717 -2.2400  0.4090
  781MOL0     H 5432   1.860   8.520   7.513  2.0716  0.8673  1.6134
  781MOL0     H 5433   2.103   8.728   7.221  1.3835  1.0248  1.5695
  781MOL0     H 5434   1.990   8.568   8.173 -0.0090 -0.0342 -0.7228
  781MOL0     H 5435   2.139   8.420   8.311  0.9621 -1.1340  0.3521
  782MOL0     O 5436   3.873   0.066   5.153  0.5171 -0.9789 -0.2753
  782MOL0     C 5437   3.939  -0.023   5.200 -0.5864  0.5646  0.4872
  782MOL0     O 5438   3.948  -0.049   5.333 -0.1415 -0.1712  0.8655
  782MOL0     C 5439   3.899   0.035   5.426 -0.2350 -1.0642  0.0167
  782MOL0     C 5440   3.868  -0.029   5.545  0.1753  0.1638 -0.3064
  782MOL0     C 5441   3.833   0.044   5.656 -0.0553  0.1857  0.6587
  782MOL0     C 5442   3.818   0.184   5.661 -0.6483 -0.0017  0.4737
  782MOL0     O 5443   3.756   0.259   5.755 -1.3984 -0.2938 -0.2475
  782MOL0     C 5444   3.682   0.189   5.853 -0.2593  0.3915 -0.1825
  782MOL0     C 5445   3.540   0.172   5.807 -0.3012 -0.3660  0.1414
  782MOL0     C 5446   3.454   0.297   5.780  0.4557  0.1258 -0.1378
  782MOL0     C 5447   3.310   0.252   5.748  0.4564  0.2709 -0.8681
  782MOL0     C 5448   3.229   0.191   5.875 -0.2366 -0.7920  0.5283
  782MOL0     C 5449   3.083   0.195   5.843 -0.1343  0.7251 -0.1871
  782MOL0     C 5450   2.988   0.138   5.946 -0.4838 -0.0027 -0.1307
  782MOL0     C 5451   2.865   0.063   5.887  1.0707 -0.3859  0.4291
  782MOL0     N 5452   2.782   0.160   5.807 -0.4285  0.1678  0.5452
  782MOL0     C 5453   2.712   0.262   5.862 -0.0463 -0.5455 -0.3082
  782MOL0     C 5454   2.684   0.342   5.758  0.0388 -0.2619  0.9717
  782MOL0     C 5455   2.617   0.471   5.770  1.0987 -0.0910  0.0127
  782MOL0     C 5456   2.460   0.467   5.802  0.2449 -0.1752  0.9972
  782MOL0     C 5457   2.374   0.480   5.676  0.1474 -0.2101 -0.0666
  782MOL0     C 5458   2.316   0.356   5.632 -0.5780  0.4538  0.2846
  782MOL0     O 5459   2.228   0.293   5.719  0.0645  0.0061 -1.0469
  782MOL0     C 5460   2.253   0.169   5.783 -0.6345 -0.1086  0.1176
  782MOL0     C 5461   2.375   0.102   5.787 -0.4244  0.9855  0.3832
  782MOL0     C 5462   2.385  -0.020   5.859  0.5268 -0.4572 -0.5647
  782MOL0     C 5463   2.521  -0.078   5.873 -0.4087 -0.9907 -0.6389
  782MOL0     C 5464   2.276  -0.068   5.928 -0.9333  0.1601  0.3913
  782MOL0     C 5465   2.285  -0.181   6.024 -0.1262  0.9666 -0.0900
  782MOL0     O 5466   2.207  -0.176   6.135  0.6915  0.9785  0.3207
  782MOL0     C 5467   2.174  -0.302   6.195 -0.3457  0.1577 -0.4777
  782MOL0     C 5468   2.261  -0.362   6.290  0.0693 -0.0977  0.2345
  782MOL0     C 5469   2.224  -0.485   6.348 -0.6246 -0.0408  0.1293
  782MOL0     C 5470   2.097  -0.543   6.316 -0.5715 -0.4068 -0.0038
  782MOL0     O 5471   2.044  -0.653   6.378 -0.2961 -0.6012  0.9684
  782MOL0     C 5472   2.134  -0.714   6.471 -1.3459 -0.1414  0.7243
  782MOL0     C 5473   2.078  -0.846   6.523  0.5305  0.7975 -0.6069
  782MOL0     C 5474   2.163  -0.898   6.649  0.8091 -0.4740  0.1818
  782MOL0     C 5475   2.094  -1.009   6.727  0.2948  0.5826 -0.4070
  782MOL0     C 5476   2.194  -1.070   6.831 -0.0046 -0.0372  0.9138
  782MOL0     C 5477   2.218  -0.992   6.963  1.1404  1.0004  0.2091
  782MOL0     C 5478   2.085  -0.991   7.057  0.6467 -0.1253 -0.2178
  782MOL0     C 5479   2.095  -0.937   7.191  0.1786  0.8495 -0.3252
  782MOL0    Cl 5480   2.166  -1.073   7.286  0.4593  0.0116 -0.1798
  782MOL0     C 5481   2.008  -0.488   6.217  0.1511  0.3243  0.1498
  782MOL0     C 5482   2.055  -0.363   6.158 -0.1589  0.8283 -0.6185
  782MOL0     O 5483   2.341  -0.283   5.985 -0.7314  0.1354 -0.2541
  782MOL0     C 5484   2.150  -0.003   5.919  0.2108 -0.0508  0.1157
  782MOL0     C 5485   2.137   0.119   5.846 -0.0088  0.3939 -0.3838
  782MOL0     N 5486   2.731   0.281   5.644 -0.7197 -0.1376  0.5295
  782MOL0     N 5487   2.792   0.176   5.667  0.3727  0.5804 -0.7806
  782MOL0     C 5488   3.856   0.249   5.541  0.2272  0.8164  0.2881
  782MOL0     C 5489   3.888   0.174   5.424  0.1869 -1.2635 -0.0033
  782MOL0     C 5490   4.016  -0.118   5.115 -0.7595  0.1274  0.8088
  782MOL0     C 5491   4.033  -0.101   4.972  0.4868  0.5413 -0.8748
  782MOL0     C 5492   4.123  -0.179   4.898 -0.6130 -0.5907  0.6118
  782MOL0     C 5493   4.198  -0.278   4.956  0.6874  0.3622  0.8434
  782MOL0     O 5494   4.280  -0.366   4.894 -0.3972  0.3669  0.5495
  782MOL0     C 5495   4.260  -0.375   4.753  0.4377  0.0372  0.5567
  782MOL0     C 5496   4.121  -0.435   4.711 -0.1407 -0.1563  0.5954
  782MOL0     C 5497   4.110  -0.471   4.567  0.1169 -0.7779 -0.0645
  782MOL0     C 5498   4.185  -0.375   4.478  0.8157 -0.1884 -0.8167
  782MOL0     C 5499   4.135  -0.240   4.499 -0.1384 -0.9889  0.2151
  782MOL0     C 5500   4.107  -0.118   4.523 -0.3140  0.2272  0.8456
  782MOL0     C 5501   4.175  -0.302   5.091 -0.2636 -0.9548  0.2891
  782MOL0     C 5502   4.091  -0.224   5.168 -0.6694 -0.9500 -0.7402
  782MOL0     H 5503   3.870  -0.136   5.527  3.0306  0.6950 -4.6004
  782MOL0     H 5504   3.807  -0.021   5.739  1.1055 -5.7994 -3.0642
  782MOL0     H 5505   3.733   0.099   5.889 -0.5996  1.3004  2.9146
  782MOL0     H 5506   3.674   0.262   5.935 -4.2837  1.6187 -1.4474
  782MOL0     H 5507   3.542   0.097   5.727  1.7251 -1.2293  0.9418
  782MOL0     H 5508   3.499   0.114   5.891 -1.7433 -2.6687 -2.0026
  782MOL0     H 5509   3.460   0.367   5.864  2.0448  2.1471 -1.8213
  782MOL0     H 5510   3.491   0.353   5.694 -1.5061  0.3423 -0.8806
  782MOL0     H 5511   3.255   0.337   5.708  0.1795 -0.7977 -2.8681
  782MOL0     H 5512   3.323   0.172   5.675  1.7881 -0.1065 -0.2577
  782MOL0     H 5513   3.285   0.098   5.891  4.1000  1.4392 -0.1748
  782MOL0     H 5514   3.253   0.246   5.967 -1.4969 -1.2551  1.1590
  782MOL0     H 5515   3.045   0.295   5.818 -1.9817  0.2001  0.4002
  782MOL0     H 5516   3.071   0.138   5.750  0.5668 -0.5109  0.4636
  782MOL0     H 5517   3.045   0.063   6.001 -1.8403 -2.7980 -2.2930
  782MOL0     H 5518   2.941   0.209   6.015 -2.0459  0.6465 -1.7940
  782MOL0     H 5519   2.793   0.018   5.956  1.1174 -0.1751  0.6169
  782MOL0     H 5520   2.893  -0.018   5.819 -0.0342 -0.8795  0.5405
  782MOL0     H 5521   2.702   0.287   5.967  1.5352 -2.0335  0.2422
  782MOL0     H 5522   2.683   0.536   5.830  0.2877  0.7611  0.0032
  782MOL0     H 5523   2.619   0.509   5.668 -2.5977 -1.6220 -0.7814
  782MOL0     H 5524   2.439   0.553   5.867  2.3202 -0.1659  1.7348
  782MOL0     H 5525   2.428   0.379   5.858  3.3557 -1.9355  0.2234
  782MOL0     H 5526   2.424   0.535   5.596  0.5360  0.0917  0.3797
  782MOL0     H 5527   2.289   0.545   5.698  0.1402  0.6912 -2.4903
  782MOL0     H 5528   2.403   0.294   5.610  0.2750  0.4079  3.3262
  782MOL0     H 5529   2.268   0.380   5.537  0.0942  1.4895  0.1902
  782MOL0     H 5530   2.466   0.136   5.738 -0.9014  1.7079 -0.0200
  782MOL0     H 5531   2.560  -0.062   5.973 -0.8932 -0.4245 -0.5357
  782MOL0     H 5532   2.516  -0.186   5.856  2.0228 -1.0718 -1.2181
  782MOL0     H 5533   2.587  -0.031   5.799  0.7823  0.6706  1.3794
  782MOL0     H 5534   2.350  -0.310   6.323  0.1254 -0.7764  1.2008
  782MOL0     H 5535   2.304  -0.511   6.417 -1.5135  2.9979  2.4984
  782MOL0     H 5536   2.227  -0.736   6.417 -0.0484 -5.1617  4.3321
  782MOL0     H 5537   2.157  -0.639   6.547  0.4307  1.1706 -1.0254
  782MOL0     H 5538   1.977  -0.826   6.560 -0.8353 -3.3719 -1.5479
  782MOL0     H 5539   2.064  -0.926   6.450 -3.6937  0.0622  0.7608
  782MOL0     H 5540   2.172  -0.813   6.717 -0.5600  0.1036 -0.3273
  782MOL0     H 5541   2.262  -0.930   6.616  0.9697  0.5368 -0.3447
  782MOL0     H 5542   2.002  -0.968   6.768 -0.4508  0.3570 -1.8195
  782MOL0     H 5543   2.061  -1.095   6.669  1.4547 -2.7382  3.3639
  782MOL0     H 5544   2.289  -1.090   6.781 -0.9515 -2.3699 -0.1213
  782MOL0     H 5545   2.157  -1.169   6.860 -0.2701 -0.7513 -1.5843
  782MOL0     H 5546   2.298  -1.043   7.017 -0.8637 -1.3467  1.1640
  782MOL0     H 5547   2.256  -0.893   6.937  2.5095  0.3251 -0.4369
  782MOL0     H 5548   2.040  -1.090   7.063 -1.9622  0.9839 -0.0932
  782MOL0     H 5549   2.015  -0.925   7.005  1.3706  0.4718 -0.4519
  782MOL0     H 5550   1.992  -0.922   7.227  0.7030  1.6902  0.8817
  782MOL0     H 5551   2.157  -0.849   7.205  2.9338 -1.0524  0.2124
  782MOL0     H 5552   1.913  -0.532   6.188  0.4032  1.0841 -1.9878
  782MOL0     H 5553   2.010  -0.319   6.070 -2.1592  3.2023  1.4403
  782MOL0     H 5554   2.068  -0.032   5.984  0.7966 -1.9737  0.0515
  782MOL0     H 5555   2.046   0.177   5.851 -2.3107 -2.9790  0.1717
  782MOL0     H 5556   3.862   0.357   5.554  1.6435  0.7722  0.1753
  782MOL0     H 5557   3.918   0.220   5.331  1.8632 -3.5917 -0.7177
  782MOL0     H 5558   3.981  -0.017   4.928 -0.6193 -0.4027 -1.4095
  782MOL0     H 5559   4.126  -0.141   4.797 -0.1098 -2.3641 -0.0800
  782MOL0     H 5560   4.284  -0.276   4.714 -1.3298  0.0717 -0.5253
  782MOL0     H 5561   4.333  -0.446   4.714 -0.6340 -0.3476 -0.8427
  782MOL0     H 5562   4.038  -0.371   4.745  1.8859  3.7986 -1.2399
  782MOL0     H 5563   4.101  -0.532   4.757  0.3113 -1.5612 -1.9739
  782MOL0     H 5564   4.005  -0.493   4.544  0.0261 -0.5906  0.1643
  782MOL0     H 5565   4.169  -0.562   4.551  0.8122 -0.5412  1.0288
  782MOL0     H 5566   4.171  -0.400   4.372 -0.4781  0.5354 -0.8340
  782MOL0     H 5567   4.294  -0.373   4.485  1.1722  1.7586 -4.5979
  782MOL0     H 5568   4.080  -0.019   4.553 -0.8395 -0.1205  1.5447
  782MOL0     H 5569   4.227  -0.382   5.142 -0.5867 -1.2303  0.1817
  782MOL0     H 5570   4.078  -0.240   5.274 -0.7108 -2.6067 -0.9763
  783MOL0     O 5571   0.660   2.916  10.139 -0.1263  0.3173  0.1600
  783MOL0     C 5572   0.622   2.954  10.028 -0.0021 -0.3639  0.4670
  783MOL0     O 5573   0.692   3.033   9.946  0.1519  0.5869  0.8513
  783MOL0     C 5574   0.827   3.063   9.975 -0.1322 -0.0280  0.2401
  783MOL0     C 5575   0.928   2.985   9.914 -0.1570 -0.3708 -0.2501
  783MOL0     C 5576   1.068   3.004   9.956 -0.2659 -0.7428  0.3326
  783MOL0     C 5577   1.104   3.112  10.037  0.6187  0.1308 -0.3927
  783MOL0     O 5578   1.229   3.139  10.091 -0.1558 -0.6491  0.4603
  783MOL0     C 5579   1.304   3.031  10.132 -0.9395  0.1147  0.4493
  783MOL0     C 5580   1.409   2.986  10.024 -0.7937  0.3160  0.0585
  783MOL0     C 5581   1.470   2.847  10.044  0.7211 -0.1550 -0.3789
  783MOL0     C 5582   1.365   2.733  10.036  0.0427 -0.5128  0.3838
  783MOL0     C 5583   1.435   2.590  10.039  0.0489 -0.1332 -0.0698
  783MOL0     C 5584   1.518   2.570  10.157 -0.2641  0.1284  1.2269
  783MOL0     C 5585   1.571   2.421  10.157 -0.0146 -0.4360 -0.0600
  783MOL0     C 5586   1.666   2.387  10.272  0.0881 -0.1349 -0.9059
  783MOL0     N 5587   1.725   2.255  10.248 -0.1004  0.1701  0.4740
  783MOL0     C 5588   1.669   2.134  10.225 -0.1368 -0.3743 -0.6467
  783MOL0     C 5589   1.763   2.049  10.178 -0.3509  0.0258  0.3821
  783MOL0     C 5590   1.709   1.925  10.123  0.6651 -0.5670  0.2417
  783MOL0     C 5591   1.704   1.941   9.974  0.1394 -0.4664  0.6392
  783MOL0     C 5592   1.692   1.808   9.898 -0.0515  0.8590  0.3744
  783MOL0     C 5593   1.816   1.714   9.894 -1.4653 -0.5097 -1.0967
  783MOL0     O 5594   1.809   1.608   9.995  0.7135  0.5362  0.7855
  783MOL0     C 5595   1.718   1.502   9.971  0.2340  0.1013  0.0676
  783MOL0     C 5596   1.656   1.475   9.851  0.7611 -0.3997  0.0033
  783MOL0     C 5597   1.560   1.375   9.820 -0.6177 -0.6109 -0.9843
  783MOL0     C 5598   1.513   1.363   9.669  0.7011 -0.6556  0.0962
  783MOL0     C 5599   1.506   1.302   9.921  0.1640  0.2064 -0.4857
  783MOL0     C 5600   1.403   1.196   9.903  0.2347  0.9048 -0.4630
  783MOL0     O 5601   1.324   1.163  10.013 -0.6217  0.0507  0.0859
  783MOL0     C 5602   1.255   1.047   9.997  0.5399  0.6862  0.0522
  783MOL0     C 5603   1.114   1.038   9.963  0.0258 -0.2065  0.3942
  783MOL0     C 5604   1.050   0.917   9.949 -0.1741  0.3952 -0.0282
  783MOL0     C 5605   1.114   0.803   9.980 -0.0112  0.6419  0.3369
  783MOL0     O 5606   1.052   0.678   9.965 -0.2361 -0.3447 -0.0095
  783MOL0     C 5607   1.067   0.568  10.051  0.2819  0.4937  0.6270
  783MOL0     C 5608   0.989   0.576  10.184  0.0019  0.3832 -0.1408
  783MOL0     C 5609   0.849   0.608  10.150 -0.7695  0.6598  0.1707
  783MOL0     C 5610   0.766   0.643  10.273 -0.1771 -0.1548 -0.2888
  783MOL0     C 5611   0.695   0.774  10.250 -0.0861  0.0172 -0.2104
  783MOL0     C 5612   0.617   0.827  10.364  1.4803  0.0361 -0.0832
  783MOL0     C 5613   0.539   0.710  10.439 -0.5470 -0.6198  0.9663
  783MOL0     C 5614   0.445   0.775  10.542  0.1617 -0.3476 -0.1117
  783MOL0    Cl 5615   0.527   0.896  10.643 -0.1592  0.1493  0.2937
  783MOL0     C 5616   1.250   0.800  10.018  0.0332  1.0126  0.1866
  783MOL0     C 5617   1.319   0.923  10.028 -0.2235 -0.4820  0.3370
  783MOL0     O 5618   1.407   1.125   9.803 -0.1381  0.7685  0.5284
  783MOL0     C 5619   1.570   1.329  10.054 -0.0409 -0.2885  0.0106
  783MOL0     C 5620   1.672   1.422  10.074  0.3231 -0.0119  0.2201
  783MOL0     N 5621   1.878   2.131  10.164  0.5824  0.2723 -0.2487
  783MOL0     N 5622   1.861   2.243  10.216 -0.0139  0.0850  0.8012
  783MOL0     C 5623   1.005   3.201  10.075 -0.6193 -0.1698 -0.7072
  783MOL0     C 5624   0.865   3.175  10.051 -0.3668 -0.8039 -0.5833
  783MOL0     C 5625   0.486   2.924   9.990 -0.3011 -0.9839 -0.0421
  783MOL0     C 5626   0.425   2.964   9.871  0.8284 -1.3504  1.2291
  783MOL0     C 5627   0.281   2.952   9.861 -0.5717 -0.2013  0.4826
  783MOL0     C 5628   0.208   2.875   9.957  0.0781  0.5749  0.0555
  783MOL0     O 5629   0.070   2.841   9.948 -0.4733  0.1190  0.4137
  783MOL0     C 5630  -0.021   2.933   9.883  0.1278 -0.3809 -0.2448
  783MOL0     C 5631  -0.168   2.900   9.920 -0.7955 -0.4677 -0.7636
  783MOL0     C 5632  -0.194   2.746   9.899  0.0213  0.2969  1.3371
  783MOL0     C 5633  -0.334   2.714   9.840  0.0792  0.4206  0.2774
  783MOL0     C 5634  -0.450   2.727   9.940 -0.6250  0.2988  0.2431
  783MOL0     C 5635  -0.546   2.729  10.023 -0.5284  0.0521  0.5042
  783MOL0     C 5636   0.279   2.817  10.059 -0.5525 -0.1461  0.6827
  783MOL0     C 5637   0.414   2.842  10.080  0.4006 -0.2139 -0.5672
  783MOL0     H 5638   0.924   2.905   9.841  1.2246 -0.7808  0.0995
  783MOL0     H 5639   1.146   2.937   9.920 -0.1969  0.6148 -2.3026
  783MOL0     H 5640   1.357   3.060  10.223  3.0968  1.3300 -1.9963
  783MOL0     H 5641   1.236   2.951  10.163 -0.3279 -1.0041 -0.9655
  783MOL0     H 5642   1.368   3.001   9.924  0.4112  0.3590 -0.4456
  783MOL0     H 5643   1.492   3.057  10.027 -1.6400  1.2924  1.4042
  783MOL0     H 5644   1.556   2.830   9.979  1.0377  1.6352 -0.4778
  783MOL0     H 5645   1.508   2.835  10.146 -0.1924  1.3211  0.1642
  783MOL0     H 5646   1.287   2.735  10.112 -1.3856 -0.2004 -1.0521
  783MOL0     H 5647   1.309   2.750   9.944  1.6266  1.3936 -0.3023
  783MOL0     H 5648   1.364   2.509  10.020  0.4679 -0.0282 -2.3696
  783MOL0     H 5649   1.506   2.588   9.956  1.2684  0.2784  0.9321
  783MOL0     H 5650   1.611   2.625  10.140 -0.7489  1.1970  1.8999
  783MOL0     H 5651   1.473   2.607  10.250  1.5860  1.4208  1.6701
  783MOL0     H 5652   1.489   2.355  10.130 -1.6646  2.1815 -1.8127
  783MOL0     H 5653   1.633   2.416  10.067  0.4950  0.6899  0.2062
  783MOL0     H 5654   1.615   2.371  10.367  1.4578 -2.9777 -0.5480
  783MOL0     H 5655   1.746   2.460  10.289 -0.6203  0.5318 -0.3667
  783MOL0     H 5656   1.563   2.117  10.240 -0.3539  2.6179  2.7623
  783MOL0     H 5657   1.778   1.845  10.152  1.3340 -0.3890 -0.7960
  783MOL0     H 5658   1.609   1.902  10.160  1.1460  1.3908  3.0837
  783MOL0     H 5659   1.799   1.981   9.938 -2.3585  1.5336 -4.9478
  783MOL0     H 5660   1.626   2.013   9.945  0.8355  0.5587  1.2324
  783MOL0     H 5661   1.660   1.825   9.794 -2.6213 -2.2607  0.5205
  783MOL0     H 5662   1.610   1.755   9.946  0.3097  0.4514  0.5470
  783MOL0     H 5663   1.906   1.772   9.917 -2.0959  0.5358 -1.1991
  783MOL0     H 5664   1.836   1.674   9.794  1.3138 -1.0586 -0.4050
  783MOL0     H 5665   1.708   1.514   9.764  1.1848 -0.9681 -0.0052
  783MOL0     H 5666   1.524   1.460   9.619 -0.8902  1.3548  3.2964
  783MOL0     H 5667   1.575   1.288   9.619  0.1780 -0.5242 -0.7660
  783MOL0     H 5668   1.413   1.321   9.664 -0.4410  1.6875  1.6410
  783MOL0     H 5669   1.055   1.129   9.962  1.1030  0.5030 -0.0973
  783MOL0     H 5670   0.953   0.892   9.908 -0.6415  0.3178  1.1024
  783MOL0     H 5671   1.018   0.483  10.003  0.8016  0.7533 -0.3790
  783MOL0     H 5672   1.172   0.537  10.051  0.0480 -0.5490  3.2984
  783MOL0     H 5673   0.996   0.483  10.242  0.7909 -0.2074 -1.1476
  783MOL0     H 5674   1.025   0.663  10.238 -2.3742  1.7393 -0.5796
  783MOL0     H 5675   0.805   0.525  10.094  1.2227 -1.1389  1.0868
  783MOL0     H 5676   0.846   0.689  10.077  0.4383  0.4570 -0.1323
  783MOL0     H 5677   0.710   0.556  10.309 -1.9140  0.1617 -2.0174
  783MOL0     H 5678   0.835   0.677  10.351  0.0955 -2.0994  0.3947
  783MOL0     H 5679   0.631   0.756  10.163  0.3370 -0.9588 -0.3330
  783MOL0     H 5680   0.769   0.850  10.220 -1.2252  1.8272  1.3529
  783MOL0     H 5681   0.691   0.878  10.425 -0.9364  4.1606 -0.2455
  783MOL0     H 5682   0.546   0.905  10.333 -0.4938 -1.6340 -0.0194
  783MOL0     H 5683   0.606   0.641  10.491  1.0052  0.0921 -0.0194
  783MOL0     H 5684   0.484   0.644  10.372 -0.9025 -0.2534  0.8886
  783MOL0     H 5685   0.411   0.696  10.610 -2.1226  0.7148  0.0976
  783MOL0     H 5686   0.360   0.821  10.490  1.4005  1.6491 -0.4398
  783MOL0     H 5687   1.298   0.703  10.031  1.3163  1.4094 -1.3125
  783MOL0     H 5688   1.418   0.930  10.071 -1.0427  1.7264  2.0405
  783MOL0     H 5689   1.526   1.278  10.139 -2.2610  0.9073 -0.3474
  783MOL0     H 5690   1.710   1.438  10.174 -4.0821 -1.2111  2.3454
  783MOL0     H 5691   1.027   3.294  10.125 -1.6477  0.6986 -1.8010
  783MOL0     H 5692   0.794   3.248  10.088  0.6939 -0.2093  0.3334
  783MOL0     H 5693   0.468   3.002   9.779 -1.2220  2.0889  1.5143
  783MOL0     H 5694   0.229   2.977   9.769 -0.3897 -0.3483  0.3384
  783MOL0     H 5695   0.014   3.031   9.915  1.6019 -0.4258 -1.5833
  783MOL0     H 5696  -0.013   2.914   9.775 -1.9417 -3.8106  0.0496
  783MOL0     H 5697  -0.249   2.956   9.872 -2.7641 -1.0041  1.7497
  783MOL0     H 5698  -0.172   2.922  10.027  2.9778 -0.3517 -0.5355
  783MOL0     H 5699  -0.182   2.688   9.991 -0.3285 -0.2704  1.0296
  783MOL0     H 5700  -0.119   2.713   9.826  0.0917  0.5189  1.3074
  783MOL0     H 5701  -0.339   2.610   9.806  0.3496 -0.0798  1.6933
  783MOL0     H 5702  -0.348   2.776   9.751  1.1831  0.5481  0.1797
  783MOL0     H 5703  -0.615   2.722  10.104  0.1900 -1.7409  1.0198
  783MOL0     H 5704   0.249   2.747  10.137  0.3824 -1.6395 -0.2500
  783MOL0     H 5705   0.450   2.804  10.175 -3.4350  2.1374  2.1571
  784MOL0     O 5706   1.488   8.453  10.769 -0.9484 -0.1392  0.2309
  784MOL0     C 5707   1.600   8.439  10.704  0.4925  0.4699  0.0431
  784MOL0     O 5708   1.633   8.506  10.584  0.0338 -0.5350  0.1107
  784MOL0     C 5709   1.538   8.602  10.535 -0.6245  0.5244  0.3112
  784MOL0     C 5710   1.587   8.731  10.500  0.3330 -0.4135 -0.8921
  784MOL0     C 5711   1.497   8.831  10.468  0.0218  0.1179  0.6024
  784MOL0     C 5712   1.361   8.800  10.437 -0.8196  0.3351 -0.1436
  784MOL0     O 5713   1.272   8.892  10.391  0.3392  0.0383 -0.3671
  784MOL0     C 5714   1.294   9.032  10.374  0.2768 -0.1408  0.7986
  784MOL0     C 5715   1.174   9.109  10.325 -0.3646  0.8847 -0.6902
  784MOL0     C 5716   1.195   9.261  10.319 -0.5399  0.5067  0.3387
  784MOL0     C 5717   1.304   9.303  10.215 -0.4906  0.4564  0.0990
  784MOL0     C 5718   1.330   9.450  10.227  0.5499  0.5954  0.3941
  784MOL0     C 5719   1.407   9.519  10.109  0.1994  1.3909 -0.2500
  784MOL0     C 5720   1.528   9.440  10.046  0.4540 -0.3575  0.0314
  784MOL0     C 5721   1.651   9.431  10.150  0.8580  0.9328 -0.5936
  784MOL0     N 5722   1.772   9.368  10.089  0.3542  0.3653 -0.4115
  784MOL0     C 5723   1.873   9.446  10.026  0.0042  0.1873 -0.4929
  784MOL0     C 5724   1.951   9.357   9.954  0.5012 -0.6551  0.2259
  784MOL0     C 5725   2.071   9.387   9.867 -0.0939  0.1785  0.4554
  784MOL0     C 5726   2.039   9.487   9.757 -0.0544 -1.1422 -0.4519
  784MOL0     C 5727   2.146   9.505   9.655 -0.4737 -0.0536  0.4626
  784MOL0     C 5728   2.285   9.526   9.718 -0.5275  0.4490 -0.6893
  784MOL0     O 5729   2.287   9.626   9.827 -0.1024 -0.3564 -0.3832
  784MOL0     C 5730   2.358   9.739   9.825  0.2553 -0.1044  0.1162
  784MOL0     C 5731   2.412   9.797   9.704  0.2116  0.2719  0.5338
  784MOL0     C 5732   2.485   9.911   9.702  0.7842 -0.4520  0.5805
  784MOL0     C 5733   2.498   9.976   9.570 -0.2807 -1.0141 -0.3988
  784MOL0     C 5734   2.515   9.978   9.825 -0.5212  0.7311  0.5086
  784MOL0     C 5735   2.599  10.098   9.839  0.6289 -0.3659 -0.1857
  784MOL0     O 5736   2.606  10.178   9.736 -0.0725 -0.6524  0.0242
  784MOL0     C 5737   2.644  10.310   9.752 -0.6256 -0.0644  0.3916
  784MOL0     C 5738   2.573  10.409   9.815  0.2270 -0.6867 -0.7012
  784MOL0     C 5739   2.641  10.526   9.853 -0.4836 -0.1404  0.7099
  784MOL0     C 5740   2.765  10.560   9.795  1.0200 -0.5947 -0.2372
  784MOL0     O 5741   2.819  10.679   9.827 -0.8430  0.0473 -1.1237
  784MOL0     C 5742   2.927  10.732   9.751  0.9628 -0.0627 -0.5539
  784MOL0     C 5743   3.062  10.686   9.766 -0.4245  1.2695  0.0578
  784MOL0     C 5744   3.140  10.714   9.635  0.2550 -0.3657 -0.7485
  784MOL0     C 5745   3.287  10.722   9.658 -0.2045  0.1452 -0.5810
  784MOL0     C 5746   3.376  10.713   9.530 -0.2128 -0.7854 -0.0062
  784MOL0     C 5747   3.521  10.750   9.555 -0.0778  0.2199  0.0052
  784MOL0     C 5748   3.529  10.904   9.580 -0.0064  0.2486  0.3712
  784MOL0     C 5749   3.672  10.957   9.579 -0.1595  0.0831  0.4624
  784MOL0    Cl 5750   3.781  10.852   9.682 -0.0522 -0.0114 -0.7022
  784MOL0     C 5751   2.827  10.463   9.722 -0.3145 -0.7559 -0.1633
  784MOL0     C 5752   2.763  10.339   9.697 -0.4157  0.5106  0.6773
  784MOL0     O 5753   2.658  10.108   9.943 -0.5459 -0.0446  0.2946
  784MOL0     C 5754   2.469   9.918   9.942  0.4099  0.4773  0.1020
  784MOL0     C 5755   2.383   9.807   9.938  0.5329  0.4044 -0.2508
  784MOL0     N 5756   1.883   9.234   9.960 -0.7753  0.8700  0.2417
  784MOL0     N 5757   1.784   9.239  10.042  0.0118 -0.5495 -0.6001
  784MOL0     C 5758   1.324   8.664  10.444 -0.3861 -0.2113  0.1474
  784MOL0     C 5759   1.408   8.565  10.486 -0.8919 -0.4293 -0.5988
  784MOL0     C 5760   1.710   8.378  10.776  0.3907  0.4007  0.2850
  784MOL0     C 5761   1.671   8.286  10.877 -0.1765  0.7665 -0.6047
  784MOL0     C 5762   1.766   8.212  10.940  0.7853  0.3292  0.3713
  784MOL0     C 5763   1.900   8.253  10.930  0.1186  0.1236 -0.2120
  784MOL0     O 5764   1.989   8.190  11.012  0.3195 -0.1260 -0.1152
  784MOL0     C 5765   2.133   8.203  10.999  0.4734  0.2790  0.3927
  784MOL0     C 5766   2.223   8.146  11.115  0.5338 -0.2369 -0.5123
  784MOL0     C 5767   2.183   7.995  11.126  0.5781  0.2143 -0.0436
  784MOL0     C 5768   2.271   7.926  11.228 -0.2759  0.6550  0.7949
  784MOL0     C 5769   2.403   7.899  11.169 -0.0454  0.3741  0.3818
  784MOL0     C 5770   2.505   7.879  11.106 -0.7268 -0.5592 -0.3169
  784MOL0     C 5771   1.932   8.357  10.848 -0.1811 -0.0493 -0.6549
  784MOL0     C 5772   1.844   8.416  10.765  0.5493 -0.4665 -0.0258
  784MOL0     H 5773   1.689   8.758  10.526 -0.6962  2.4094  0.5273
  784MOL0     H 5774   1.529   8.935  10.466 -2.2447  0.9084  1.7261
  784MOL0     H 5775   1.325   9.077  10.469 -2.8781  1.1341  1.3471
  784MOL0     H 5776   1.368   9.046  10.295 -1.8337  1.0287 -1.0936
  784MOL0     H 5777   1.155   9.061  10.228  2.1235 -0.9421 -0.3769
  784MOL0     H 5778   1.087   9.097  10.391  0.0153  1.3493 -0.0910
  784MOL0     H 5779   1.098   9.304  10.293  0.0362  1.9189  0.4292
  784MOL0     H 5780   1.213   9.314  10.413 -0.8139  0.1741  0.5847
  784MOL0     H 5781   1.398   9.254  10.244  0.6671  1.2814 -2.0333
  784MOL0     H 5782   1.284   9.269  10.114 -0.7813 -1.6687  0.8212
  784MOL0     H 5783   1.235   9.501  10.242 -0.8319 -1.2862 -1.4006
  784MOL0     H 5784   1.391   9.461  10.318  0.3027 -2.6075  1.0700
  784MOL0     H 5785   1.339   9.546  10.027 -0.1842  0.1647 -0.3481
  784MOL0     H 5786   1.441   9.616  10.148 -1.4707  2.1803 -0.6438
  784MOL0     H 5787   1.499   9.344  10.003  1.7532  0.2495 -2.3598
  784MOL0     H 5788   1.562   9.503   9.963  0.0927  1.9246  1.5082
  784MOL0     H 5789   1.621   9.384  10.244 -3.6253  1.6345 -1.4363
  784MOL0     H 5790   1.671   9.534  10.179 -2.0921  1.3484  0.2036
  784MOL0     H 5791   1.910   9.548  10.027  0.5731  0.0288  2.4858
  784MOL0     H 5792   2.152   9.421   9.933 -0.2196  1.1336  0.1252
  784MOL0     H 5793   2.087   9.291   9.817 -0.4182  0.0735  0.5513
  784MOL0     H 5794   2.019   9.583   9.806  2.1958 -1.2291  0.8158
  784MOL0     H 5795   1.947   9.460   9.705 -0.6893  1.9963 -1.1616
  784MOL0     H 5796   2.129   9.589   9.586  0.6999 -3.0295 -3.8401
  784MOL0     H 5797   2.158   9.416   9.592  3.1026  0.8911 -0.4298
  784MOL0     H 5798   2.358   9.540   9.638 -1.0863 -0.5831 -1.3972
  784MOL0     H 5799   2.317   9.437   9.772  0.8905  2.3268  1.7528
  784MOL0     H 5800   2.371   9.762   9.610  0.8263  3.3103 -1.0033
  784MOL0     H 5801   2.452   9.921   9.487 -2.4368 -0.5211  0.3804
  784MOL0     H 5802   2.437  10.067   9.569  1.1395 -0.0205 -1.8685
  784MOL0     H 5803   2.595  10.010   9.532  0.7148 -2.6365  0.5793
  784MOL0     H 5804   2.488  10.384   9.876  0.5878  0.5456  0.3438
  784MOL0     H 5805   2.594  10.601   9.915  1.1012 -0.3636  2.2640
  784MOL0     H 5806   2.907  10.737   9.644 -3.7812  0.7340  0.1494
  784MOL0     H 5807   2.910  10.837   9.774 -0.7666 -0.7036  1.5241
  784MOL0     H 5808   3.105  10.754   9.840 -4.1359 -0.0402  3.8339
  784MOL0     H 5809   3.072  10.581   9.796 -0.8089  0.4425 -2.4346
  784MOL0     H 5810   3.094  10.803   9.592 -0.0482 -0.3727 -0.4456
  784MOL0     H 5811   3.124  10.636   9.561  1.0852  0.1201 -1.4524
  784MOL0     H 5812   3.302  10.809   9.723  2.1537  0.5693 -1.5713
  784MOL0     H 5813   3.309  10.633   9.717 -0.6116  0.6183  0.2995
  784MOL0     H 5814   3.326  10.766   9.448 -3.6091 -1.4273  1.4683
  784MOL0     H 5815   3.360  10.608   9.506 -0.9635  0.0130 -3.5729
  784MOL0     H 5816   3.556  10.704   9.648 -1.9128  0.4219  0.8390
  784MOL0     H 5817   3.587  10.723   9.472  2.1763  0.1493  1.7064
  784MOL0     H 5818   3.480  10.924   9.675 -2.9091 -1.2134 -0.6887
  784MOL0     H 5819   3.472  10.961   9.505  2.1333 -0.0127 -1.5667
  784MOL0     H 5820   3.671  11.056   9.626  0.6728  1.8949 -3.0236
  784MOL0     H 5821   3.716  10.967   9.480  0.0689  0.3176  0.5846
  784MOL0     H 5822   2.929  10.475   9.686 -1.5140 -1.7633 -4.3976
  784MOL0     H 5823   2.814  10.276   9.624 -0.4704 -0.4279  1.4294
  784MOL0     H 5824   2.494   9.958  10.040 -0.6009 -1.5072  1.2357
  784MOL0     H 5825   2.347   9.776  10.036 -1.3024  1.4527 -0.5316
  784MOL0     H 5826   1.222   8.643  10.412 -0.3302  2.3004 -1.9705
  784MOL0     H 5827   1.372   8.463  10.483 -0.9928 -0.4032 -3.6359
  784MOL0     H 5828   1.566   8.259  10.883  0.4404 -1.7718  0.0517
  784MOL0     H 5829   1.741   8.124  10.999 -3.3795  1.2374  0.2621
  784MOL0     H 5830   2.158   8.155  10.904 -1.2923 -3.1394  1.4681
  784MOL0     H 5831   2.149   8.311  10.994 -1.1516  0.5589  0.5126
  784MOL0     H 5832   2.213   8.201  11.208  1.6181  1.2794 -1.2442
  784MOL0     H 5833   2.330   8.154  11.092  0.7654  2.8641  1.1020
  784MOL0     H 5834   2.195   7.945  11.029 -0.0602 -2.0378  0.9751
  784MOL0     H 5835   2.079   7.980  11.156  0.4836 -2.1284 -1.3218
  784MOL0     H 5836   2.231   7.827  11.252  1.5689 -0.3472 -0.0877
  784MOL0     H 5837   2.282   7.983  11.320 -0.7540 -0.3136  1.4671
  784MOL0     H 5838   2.590   7.867  11.042 -0.6518  0.3654 -0.4054
  784MOL0     H 5839   2.032   8.399  10.847 -0.5893  1.1021  1.1095
  784MOL0     H 5840   1.871   8.489  10.690 -0.9287 -1.9898 -2.1866
  785MOL0     O 5841   4.360  11.230   0.270 -0.3344 -0.1758  0.5122
  785MOL0     C 5842   4.244  11.221   0.308 -0.1625 -0.2047 -0.7028
  785MOL0     O 5843   4.133  11.273   0.240 -0.0850  0.3619 -1.2019
  785MOL0     C 5844   4.160  11.362   0.143  0.4808  0.1990 -0.4178
  785MOL0     C 5845   4.207  11.321   0.014  1.0612  0.0607  0.0151
  785MOL0     C 5846   4.234  11.424  -0.078  0.1100  0.0826  0.1795
  785MOL0     C 5847   4.221  11.562  -0.053 -0.7050 -1.3067  0.1370
  785MOL0     O 5848   4.243  11.659  -0.154  0.0240 -0.2809  0.8452
  785MOL0     C 5849   4.252  11.794  -0.134 -0.5174  0.2635 -0.4548
  785MOL0     C 5850   4.117  11.851  -0.144  0.1992 -0.9985  0.9923
  785MOL0     C 5851   4.069  11.856  -0.290 -0.3733  0.8163 -0.2350
  785MOL0     C 5852   3.954  11.959  -0.302 -0.1723  0.1696  0.2636
  785MOL0     C 5853   3.815  11.933  -0.232  0.2982  0.6840  0.2308
  785MOL0     C 5854   3.769  12.042  -0.154  0.0621 -0.3917  0.0870
  785MOL0     C 5855   3.695  12.149  -0.239  0.3992  0.2557 -0.2873
  785MOL0     C 5856   3.598  12.216  -0.136 -0.2070 -0.5495  0.2093
  785MOL0     N 5857   3.532  12.326  -0.207 -0.0716 -0.2174 -0.4536
  785MOL0     C 5858   3.424  12.317  -0.292 -0.4429 -0.8090  0.0855
  785MOL0     C 5859   3.399  12.446  -0.327 -0.3830 -0.5513 -0.2898
  785MOL0     C 5860   3.311  12.497  -0.424  0.0551 -0.8656 -0.1841
  785MOL0     C 5861   3.165  12.435  -0.433 -0.2924 -0.9095  0.5138
  785MOL0     C 5862   3.150  12.322  -0.530 -0.4677  0.4576 -0.2518
  785MOL0     C 5863   3.011  12.257  -0.520 -0.1195 -0.5904 -0.0436
  785MOL0     O 5864   2.896  12.339  -0.550  0.0233 -0.2231 -0.4946
  785MOL0     C 5865   2.772  12.280  -0.547 -0.8368  0.3380  0.4549
  785MOL0     C 5866   2.680  12.311  -0.654 -1.2831 -0.0248 -0.9478
  785MOL0     C 5867   2.563  12.235  -0.668  0.2097 -0.3207 -1.0436
  785MOL0     C 5868   2.468  12.281  -0.781 -0.6898 -0.3980 -1.3301
  785MOL0     C 5869   2.530  12.130  -0.585  0.4199 -0.2181  0.7205
  785MOL0     C 5870   2.410  12.045  -0.603 -0.2753 -0.3161  0.8105
  785MOL0     O 5871   2.403  11.982  -0.729  0.1334 -1.6342 -0.0597
  785MOL0     C 5872   2.278  11.935  -0.770 -0.0368  0.2189  0.2195
  785MOL0     C 5873   2.216  11.822  -0.719  1.0487  0.2368  0.2448
  785MOL0     C 5874   2.102  11.768  -0.784  0.1232 -0.1208 -0.0586
  785MOL0     C 5875   2.047  11.841  -0.896 -0.4473  0.3443  0.0604
  785MOL0     O 5876   1.940  11.784  -0.956 -0.2895 -0.3105 -0.1637
  785MOL0     C 5877   1.822  11.860  -0.920 -0.2722  0.2638 -0.1824
  785MOL0     C 5878   1.774  11.825  -0.775 -0.3671  0.6404  0.3634
  785MOL0     C 5879   1.639  11.887  -0.757 -0.0845  0.8392  0.3758
  785MOL0     C 5880   1.519  11.797  -0.811  0.2991  0.9575  0.7463
  785MOL0     C 5881   1.384  11.846  -0.778 -0.0804 -0.6402  0.4959
  785MOL0     C 5882   1.276  11.761  -0.843  0.0644 -0.4646 -0.9197
  785MOL0     C 5883   1.141  11.834  -0.814  0.2132 -0.0755  0.9777
  785MOL0     C 5884   1.033  11.772  -0.899  0.0763  0.0191 -0.6170
  785MOL0    Cl 5885   0.877  11.863  -0.881 -0.4506 -0.3597  0.0090
  785MOL0     C 5886   2.117  11.949  -0.952 -0.0289 -0.5098  0.0520
  785MOL0     C 5887   2.235  12.003  -0.887  0.0279  1.1463 -0.3812
  785MOL0     O 5888   2.340  12.009  -0.507  0.4552  0.3194 -0.2418
  785MOL0     C 5889   2.620  12.099  -0.490  0.9381  0.2295 -0.1091
  785MOL0     C 5890   2.740  12.165  -0.475 -0.5666 -0.4035 -0.0325
  785MOL0     N 5891   3.502  12.532  -0.281  0.2604  0.0106 -0.3183
  785MOL0     N 5892   3.580  12.458  -0.211 -0.5066  0.7667 -0.6689
  785MOL0     C 5893   4.170  11.604   0.072  0.5435  0.1669  0.4990
  785MOL0     C 5894   4.149  11.494   0.164 -0.6145 -0.2609  0.4813
  785MOL0     C 5895   4.218  11.137   0.429  0.1808  0.0410  0.2707
  785MOL0     C 5896   4.322  11.053   0.471  0.7678  0.8603 -0.4236
  785MOL0     C 5897   4.299  10.973   0.587  0.4591  1.0168  0.0903
  785MOL0     C 5898   4.178  10.969   0.657  1.0650  0.6178  0.2701
  785MOL0     O 5899   4.144  10.887   0.755  0.0583 -0.6056  0.1287
  785MOL0     C 5900   4.222  10.867   0.878  0.1587 -0.2157  0.1736
  785MOL0     C 5901   4.217  10.723   0.915  0.1639  0.2424 -0.4811
  785MOL0     C 5902   4.086  10.671   0.981  0.9576  0.6424 -0.0952
  785MOL0     C 5903   4.077  10.514   0.999  0.7531  0.0592 -0.3220
  785MOL0     C 5904   4.128  10.483   1.127 -0.1812  0.1815 -0.4485
  785MOL0     C 5905   4.158  10.440   1.240  0.6573 -0.6030  0.9733
  785MOL0     C 5906   4.075  11.045   0.605 -0.7870  0.7157 -1.0936
  785MOL0     C 5907   4.096  11.126   0.494  0.4512 -0.0650 -0.2993
  785MOL0     H 5908   4.184  11.216  -0.002 -0.1637  0.6801 -2.9658
  785MOL0     H 5909   4.247  11.393  -0.181 -2.6702 -1.1711  0.1332
  785MOL0     H 5910   4.299  11.818  -0.038  1.3275  0.3987 -1.3409
  785MOL0     H 5911   4.323  11.839  -0.204  2.6509  0.2251  2.4774
  785MOL0     H 5912   4.053  11.788  -0.082  1.8602 -1.5226  2.2672
  785MOL0     H 5913   4.122  11.955  -0.109  0.5249 -1.2842  1.8186
  785MOL0     H 5914   4.154  11.887  -0.352  0.3831  1.0628  0.8959
  785MOL0     H 5915   4.036  11.756  -0.322  2.2961  0.3864 -2.0307
  785MOL0     H 5916   3.993  12.061  -0.290  0.8786  0.1906 -2.5324
  785MOL0     H 5917   3.932  11.954  -0.409  1.4076  0.3534 -0.0972
  785MOL0     H 5918   3.745  11.894  -0.306 -0.6254 -0.6797  1.7525
  785MOL0     H 5919   3.829  11.848  -0.165 -0.2660 -0.8556 -1.5119
  785MOL0     H 5920   3.696  12.001  -0.084 -0.2278  2.4083  1.5734
  785MOL0     H 5921   3.848  12.081  -0.090 -1.9635  0.5193  2.1625
  785MOL0     H 5922   3.775  12.212  -0.279 -0.4268  1.2468 -0.4323
  785MOL0     H 5923   3.650  12.125  -0.336  2.6906 -1.3756 -1.0169
  785MOL0     H 5924   3.654  12.269  -0.059 -0.7319  2.1110 -1.1434
  785MOL0     H 5925   3.520  12.148  -0.100  1.6316 -1.5272  2.6734
  785MOL0     H 5926   3.364  12.232  -0.323 -4.0005  1.6292 -0.3120
  785MOL0     H 5927   3.298  12.604  -0.404 -1.6777 -1.3238  1.4642
  785MOL0     H 5928   3.357  12.491  -0.523  2.2641  2.5003  0.4889
  785MOL0     H 5929   3.090  12.512  -0.448 -0.8155 -1.9430 -3.2735
  785MOL0     H 5930   3.145  12.393  -0.334  2.9650 -0.8682  1.3130
  785MOL0     H 5931   3.222  12.246  -0.500 -2.3058 -0.4663  2.1227
  785MOL0     H 5932   3.168  12.344  -0.636 -2.4991  0.7018 -0.5901
  785MOL0     H 5933   3.004  12.223  -0.416 -0.6240 -2.3628 -0.6095
  785MOL0     H 5934   3.002  12.167  -0.581 -0.0119  0.2343 -1.2969
  785MOL0     H 5935   2.703  12.394  -0.720 -0.1210 -1.0195 -1.8356
  785MOL0     H 5936   2.496  12.234  -0.876  0.6020 -0.8583 -0.7350
  785MOL0     H 5937   2.368  12.248  -0.753 -0.4869  0.2164  0.2007
  785MOL0     H 5938   2.454  12.390  -0.787  0.5777 -0.2170 -1.3392
  785MOL0     H 5939   2.244  11.779  -0.624  0.8335  0.5788  0.4685
  785MOL0     H 5940   2.053  11.685  -0.733  3.3057  0.5265  4.7551
  785MOL0     H 5941   1.838  11.968  -0.927  0.6167  0.1160 -0.5523
  785MOL0     H 5942   1.748  11.839  -0.997 -1.1606  0.8056  0.5046
  785MOL0     H 5943   1.783  11.718  -0.756  0.9016  0.5460 -0.6180
  785MOL0     H 5944   1.846  11.868  -0.705  0.2876 -0.1523  0.1850
  785MOL0     H 5945   1.635  11.989  -0.797  0.0643  0.3767 -0.8864
  785MOL0     H 5946   1.636  11.887  -0.648 -2.7159  1.9077  0.3708
  785MOL0     H 5947   1.529  11.784  -0.920 -0.6679  1.0664  0.6354
  785MOL0     H 5948   1.520  11.696  -0.772 -0.4732  0.1440 -1.1872
  785MOL0     H 5949   1.375  11.950  -0.812  2.7598 -0.1474  1.0237
  785MOL0     H 5950   1.371  11.846  -0.670 -3.0623  0.3278  0.2327
  785MOL0     H 5951   1.293  11.750  -0.951 -0.7009 -0.7839 -1.0189
  785MOL0     H 5952   1.277  11.670  -0.782  2.2568  0.3354  0.3254
  785MOL0     H 5953   1.144  11.940  -0.839  0.0763 -0.5050 -0.9738
  785MOL0     H 5954   1.124  11.812  -0.708 -2.9512 -1.6040  0.2547
  785MOL0     H 5955   1.016  11.670  -0.862 -2.2308 -0.2025 -2.0775
  785MOL0     H 5956   1.063  11.778  -1.004 -1.1294  2.9345 -0.8894
  785MOL0     H 5957   2.081  11.993  -1.045 -0.6205 -0.4590  0.3040
  785MOL0     H 5958   2.295  12.089  -0.916  1.3697  0.7266  0.9909
  785MOL0     H 5959   2.599  12.012  -0.428  2.1523  1.0666  1.5434
  785MOL0     H 5960   2.812  12.119  -0.407 -0.0705 -2.1131 -1.6460
  785MOL0     H 5961   4.156  11.711   0.083  0.4088  0.5176 -2.4696
  785MOL0     H 5962   4.118  11.523   0.265 -0.0603 -0.8784  0.8355
  785MOL0     H 5963   4.410  11.047   0.407  1.1103  0.1433  0.1030
  785MOL0     H 5964   4.381  10.914   0.626  0.0361 -1.8644 -2.9320
  785MOL0     H 5965   4.323  10.905   0.862 -0.4222  0.0568 -4.1469
  785MOL0     H 5966   4.179  10.931   0.956 -1.0096 -2.9254  1.9027
  785MOL0     H 5967   4.306  10.692   0.970 -1.2994 -0.8986  1.3985
  785MOL0     H 5968   4.228  10.677   0.816 -0.0528 -1.1549  0.1112
  785MOL0     H 5969   3.997  10.698   0.923  1.0742  0.8126 -0.1919
  785MOL0     H 5970   4.071  10.717   1.079  1.3686 -0.5287  0.5408
  785MOL0     H 5971   4.129  10.458   0.921 -2.3851 -2.1528 -1.0203
  785MOL0     H 5972   3.975  10.473   0.996  0.4781  0.5861  0.9651
  785MOL0     H 5973   4.182  10.401   1.337  0.6413 -1.1976  0.7457
  785MOL0     H 5974   3.976  11.060   0.646 -1.2361 -1.6723 -1.1411
  785MOL0     H 5975   4.008  11.184   0.466 -0.5664 -2.2589 -2.0457
  786MOL0     O 5976   1.162   5.767   0.443  0.4665  0.4627  0.0880
  786MOL0     C 5977   1.107   5.665   0.403  0.2115  0.6415 -0.6741
  786MOL0     O 5978   1.173   5.556   0.353 -0.3523 -0.6861 -0.3806
  786MOL0     C 5979   1.308   5.564   0.335 -0.2445  0.4912 -0.1178
  786MOL0     C 5980   1.413   5.630   0.406  0.1010  0.2906 -0.0030
  786MOL0     C 5981   1.543   5.628   0.351 -0.0300 -0.3387 -0.2551
  786MOL0     C 5982   1.575   5.559   0.236 -0.3373  0.3176  0.3854
  786MOL0     O 5983   1.698   5.543   0.179  0.9031  0.4905 -0.2483
  786MOL0     C 5984   1.800   5.635   0.214 -0.3347  0.1090 -0.7698
  786MOL0     C 5985   1.934   5.617   0.147  0.1816 -0.2611  0.9835
  786MOL0     C 5986   2.028   5.505   0.171  0.2674  0.4256  0.3987
  786MOL0     C 5987   1.971   5.374   0.108 -0.0864 -0.3066 -0.2188
  786MOL0     C 5988   2.044   5.256   0.164 -0.0500  1.0668 -0.4967
  786MOL0     C 5989   1.978   5.137   0.094 -0.7204  0.4827 -1.2809
  786MOL0     C 5990   2.033   5.007   0.152  0.3201  0.5519 -0.5818
  786MOL0     C 5991   1.988   4.957   0.289  0.4745 -1.1312  0.2955
  786MOL0     N 5992   2.052   4.829   0.299 -0.0985  0.1330  0.1072
  786MOL0     C 5993   2.187   4.810   0.305 -0.5986  0.7615  0.3521
  786MOL0     C 5994   2.207   4.674   0.328 -0.4587  0.6525  0.5163
  786MOL0     C 5995   2.331   4.586   0.314  0.3467 -0.0093 -0.4625
  786MOL0     C 5996   2.379   4.572   0.461 -0.7779 -0.2597  0.4270
  786MOL0     C 5997   2.294   4.471   0.538  0.8910 -0.3664 -0.0425
  786MOL0     C 5998   2.303   4.325   0.493 -0.1173 -0.3850  0.1947
  786MOL0     O 5999   2.375   4.253   0.595  0.3669 -0.1177  0.2262
  786MOL0     C 6000   2.304   4.194   0.698 -0.2513 -0.1492 -1.0325
  786MOL0     C 6001   2.380   4.153   0.806 -0.5460 -0.8784  0.1638
  786MOL0     C 6002   2.318   4.119   0.927 -0.0308 -0.1087  0.2571
  786MOL0     C 6003   2.405   4.084   1.041  0.4707  0.4143 -0.7399
  786MOL0     C 6004   2.180   4.129   0.945 -0.4729 -0.5497 -0.0761
  786MOL0     C 6005   2.110   4.097   1.066  0.4523  0.4197 -0.6539
  786MOL0     O 6006   2.165   4.141   1.190  0.1840  0.2975  0.3885
  786MOL0     C 6007   2.115   4.102   1.311  0.3873  0.2427 -0.4789
  786MOL0     C 6008   1.994   4.161   1.346  0.4816  0.4688 -1.1778
  786MOL0     C 6009   1.945   4.142   1.478  1.3910  0.4002  0.6592
  786MOL0     C 6010   2.006   4.053   1.565 -0.4319  0.1317  0.4100
  786MOL0     O 6011   1.940   4.025   1.684 -0.2473  0.0838 -0.1919
  786MOL0     C 6012   1.866   3.905   1.665 -0.0088  0.2143 -0.8248
  786MOL0     C 6013   1.712   3.939   1.661 -0.0930  0.4251  0.0480
  786MOL0     C 6014   1.683   4.039   1.771 -0.0072  0.3435  1.1005
  786MOL0     C 6015   1.537   4.060   1.801  0.1894 -0.4842  0.3043
  786MOL0     C 6016   1.463   3.927   1.845 -0.6395 -0.3176 -0.5477
  786MOL0     C 6017   1.397   3.860   1.716 -0.1460  0.6329 -0.3832
  786MOL0     C 6018   1.260   3.925   1.691 -0.3342  0.6815  0.4910
  786MOL0     C 6019   1.241   3.963   1.545 -0.4322 -0.3768  0.3187
  786MOL0    Cl 6020   1.297   3.838   1.423  0.1501  0.2277  0.0871
  786MOL0     C 6021   2.137   4.013   1.527  0.3996  0.1936  0.3531
  786MOL0     C 6022   2.182   4.031   1.401 -0.3377 -0.3625 -0.2941
  786MOL0     O 6023   1.994   4.065   1.051  0.0224  0.2033  0.7594
  786MOL0     C 6024   2.105   4.189   0.840 -0.0232  0.4372  0.3458
  786MOL0     C 6025   2.167   4.222   0.717  0.1455  0.3507  0.7410
  786MOL0     N 6026   2.077   4.623   0.343  0.2872 -0.1510 -0.6690
  786MOL0     N 6027   1.988   4.721   0.332 -0.5939  0.5824 -0.0616
  786MOL0     C 6028   1.480   5.466   0.188 -0.1880  0.2251 -0.0064
  786MOL0     C 6029   1.349   5.476   0.236 -0.3288  0.6327  0.8641
  786MOL0     C 6030   0.966   5.669   0.412  0.6824 -0.1030  0.1664
  786MOL0     C 6031   0.895   5.538   0.417 -0.4228  0.6841  1.0314
  786MOL0     C 6032   0.758   5.529   0.411  0.2557  0.9999  0.1137
  786MOL0     C 6033   0.674   5.644   0.401  0.9884 -0.4754  0.0911
  786MOL0     O 6034   0.543   5.609   0.415 -0.3622 -0.1120 -0.0450
  786MOL0     C 6035   0.453   5.716   0.451 -0.2727 -0.2030 -0.1522
  786MOL0     C 6036   0.402   5.781   0.323 -0.5890 -0.3729 -0.1070
  786MOL0     C 6037   0.382   5.685   0.197  0.7038 -0.7426 -0.3225
  786MOL0     C 6038   0.312   5.756   0.080 -0.2730 -0.0546  0.1441
  786MOL0     C 6039   0.284   5.655  -0.027 -0.4155 -0.0197 -0.2797
  786MOL0     C 6040   0.260   5.564  -0.106  0.2134 -1.0044 -0.3593
  786MOL0     C 6041   0.736   5.766   0.404  0.2279 -0.9962 -0.4169
  786MOL0     C 6042   0.877   5.784   0.401 -0.6203  0.4100 -0.3320
  786MOL0     H 6043   1.390   5.686   0.496 -0.4840 -0.1811  0.1509
  786MOL0     H 6044   1.625   5.675   0.404 -0.1411 -2.9630  2.5601
  786MOL0     H 6045   1.763   5.738   0.215  0.2430  0.3190 -0.4409
  786MOL0     H 6046   1.812   5.628   0.323 -1.4903  0.9081 -0.5665
  786MOL0     H 6047   1.915   5.603   0.040 -1.2706 -2.9757  1.5050
  786MOL0     H 6048   1.989   5.711   0.160 -1.7037  0.8330  1.3677
  786MOL0     H 6049   2.131   5.521   0.135 -0.9861  1.8909 -2.9953
  786MOL0     H 6050   2.033   5.497   0.280  0.3526 -2.2069  0.2614
  786MOL0     H 6051   1.863   5.359   0.119 -0.7518  1.0107 -3.4963
  786MOL0     H 6052   1.982   5.375  -0.001  1.9272 -1.0097 -0.0548
  786MOL0     H 6053   2.153   5.260   0.162  0.0863 -1.0509  0.0858
  786MOL0     H 6054   2.035   5.255   0.273  0.1763  1.6745 -0.4700
  786MOL0     H 6055   1.868   5.135   0.090 -0.8468 -2.7765  0.2500
  786MOL0     H 6056   2.016   5.133  -0.009  4.6354 -2.9881  0.4502
  786MOL0     H 6057   2.016   4.932   0.074  1.8036  0.9692 -1.3631
  786MOL0     H 6058   2.141   5.014   0.136  0.1932 -1.1611 -2.6817
  786MOL0     H 6059   1.880   4.948   0.304  0.5856 -1.4823  0.9163
  786MOL0     H 6060   2.043   5.010   0.368  2.4716  1.2383 -2.4477
  786MOL0     H 6061   2.267   4.881   0.286 -1.3591  1.7641  0.8339
  786MOL0     H 6062   2.305   4.486   0.278 -0.0342 -0.5895  1.3169
  786MOL0     H 6063   2.396   4.645   0.250  0.8224 -0.2902 -0.2423
  786MOL0     H 6064   2.370   4.672   0.504  1.0490 -0.1054  0.5218
  786MOL0     H 6065   2.485   4.549   0.463 -1.1711 -2.2220  2.2035
  786MOL0     H 6066   2.188   4.496   0.526  0.8383 -0.9345 -0.8596
  786MOL0     H 6067   2.308   4.476   0.646 -0.9362  2.4058  0.1686
  786MOL0     H 6068   2.361   4.313   0.401  0.9114  0.8540  0.6449
  786MOL0     H 6069   2.207   4.278   0.468 -0.4041 -1.0406  2.3611
  786MOL0     H 6070   2.488   4.146   0.794 -0.2107  3.4803 -0.9734
  786MOL0     H 6071   2.375   3.990   1.088 -4.1188  2.3118  0.7303
  786MOL0     H 6072   2.508   4.081   1.004  0.5513  1.4282 -0.6153
  786MOL0     H 6073   2.400   4.162   1.118 -0.1745  0.2597 -0.6168
  786MOL0     H 6074   1.949   4.238   1.285  1.2916  0.7583 -1.4153
  786MOL0     H 6075   1.850   4.185   1.508  0.3058 -1.6246  0.3149
  786MOL0     H 6076   1.888   3.853   1.571  2.0090 -0.7611  0.1321
  786MOL0     H 6077   1.881   3.834   1.747  1.0455 -0.9155 -1.9462
  786MOL0     H 6078   1.668   3.981   1.569 -0.1697 -1.8568 -1.0217
  786MOL0     H 6079   1.668   3.840   1.675  0.6512 -0.0710 -0.9466
  786MOL0     H 6080   1.706   4.141   1.739 -1.3010  0.4380  0.3894
  786MOL0     H 6081   1.731   4.022   1.868 -0.6332  0.9606  1.5319
  786MOL0     H 6082   1.529   4.127   1.887 -0.4937 -1.6763  1.2033
  786MOL0     H 6083   1.487   4.100   1.713 -0.0566  1.7345  1.3828
  786MOL0     H 6084   1.396   3.925   1.931  2.0661  1.9490  1.8370
  786MOL0     H 6085   1.543   3.860   1.878 -2.2156 -0.6074  3.1732
  786MOL0     H 6086   1.465   3.865   1.631 -2.4699 -1.3961 -2.5385
  786MOL0     H 6087   1.387   3.755   1.747  1.1847  1.4795  3.4242
  786MOL0     H 6088   1.248   4.015   1.752 -0.5262 -1.0392  3.1621
  786MOL0     H 6089   1.188   3.844   1.705  0.3837 -0.4847 -1.9180
  786MOL0     H 6090   1.300   4.055   1.536  0.8236 -1.0794  1.0695
  786MOL0     H 6091   1.135   3.982   1.527 -0.0609 -0.4621 -2.2942
  786MOL0     H 6092   2.207   3.958   1.590 -2.4179 -3.3109  0.7284
  786MOL0     H 6093   2.273   3.986   1.362 -1.4547 -0.7030 -2.6961
  786MOL0     H 6094   1.997   4.196   0.848 -0.0174  1.4206 -0.2618
  786MOL0     H 6095   2.104   4.269   0.642  1.0655  1.7381  0.8005
  786MOL0     H 6096   1.493   5.401   0.102 -0.3440 -3.0365  2.2367
  786MOL0     H 6097   1.261   5.431   0.194 -0.7405 -1.4118  3.6551
  786MOL0     H 6098   0.956   5.448   0.422 -1.1757 -0.0872 -1.9243
  786MOL0     H 6099   0.714   5.432   0.434  3.9002 -0.9738 -0.4638
  786MOL0     H 6100   0.367   5.680   0.508 -0.1163 -1.6097 -0.7685
  786MOL0     H 6101   0.502   5.793   0.511  3.3345 -1.1991 -1.5454
  786MOL0     H 6102   0.481   5.848   0.286 -0.6377  1.2437  2.5252
  786MOL0     H 6103   0.310   5.831   0.352  0.2035  0.9599  0.1654
  786MOL0     H 6104   0.314   5.609   0.237  1.6461 -1.4950 -0.1430
  786MOL0     H 6105   0.472   5.635   0.161  0.8123 -1.1577  0.5094
  786MOL0     H 6106   0.377   5.837   0.046  0.2286 -0.1618  0.8261
  786MOL0     H 6107   0.212   5.790   0.111  0.2985  0.6299  1.3080
  786MOL0     H 6108   0.270   5.482  -0.174  3.2756 -1.2877  0.2766
  786MOL0     H 6109   0.675   5.855   0.415  2.6821  0.4960  3.1776
  786MOL0     H 6110   0.935   5.875   0.395 -0.0158  0.1056  0.6396
  787MOL0     O 6111   3.339   7.919   3.009  0.0681  0.0559 -0.1095
  787MOL0     C 6112   3.379   8.032   3.039  0.5293 -0.5852  0.4237
  787MOL0     O 6113   3.314   8.118   3.127  0.7693 -0.4663  0.4887
  787MOL0     C 6114   3.188   8.138   3.089 -0.0391 -0.6954 -0.2730
  787MOL0     C 6115   3.134   8.160   2.955 -0.0972 -0.6828  0.1144
  787MOL0     C 6116   2.993   8.161   2.940 -0.0511 -0.0835  0.4810
  787MOL0     C 6117   2.906   8.164   3.055 -0.4193 -0.1530 -0.2078
  787MOL0     O 6118   2.770   8.147   3.068  0.1679  0.0185  0.4613
  787MOL0     C 6119   2.699   8.156   2.940 -0.0297 -0.0272  0.1102
  787MOL0     C 6120   2.558   8.096   2.964 -0.4436 -0.0414 -0.4050
  787MOL0     C 6121   2.450   8.102   2.852 -0.0992  0.4483 -0.9728
  787MOL0     C 6122   2.500   8.042   2.723  0.1301  0.2220  0.0538
  787MOL0     C 6123   2.515   8.152   2.611 -0.4831 -0.2792  0.3337
  787MOL0     C 6124   2.379   8.219   2.569  0.6575  0.5791 -0.8766
  787MOL0     C 6125   2.406   8.351   2.498  0.2579 -0.2158  1.7917
  787MOL0     C 6126   2.282   8.441   2.469 -0.5009 -0.5478  0.3795
  787MOL0     N 6127   2.181   8.369   2.381 -0.6807  0.0008  0.8143
  787MOL0     C 6128   2.067   8.301   2.422 -0.1853 -0.0869  0.4729
  787MOL0     C 6129   2.006   8.257   2.311  1.0746  0.0917  0.4383
  787MOL0     C 6130   1.889   8.162   2.299  0.4548  0.1423 -0.4484
  787MOL0     C 6131   1.902   8.044   2.208 -0.5827 -0.0829  0.7029
  787MOL0     C 6132   1.776   7.986   2.147  0.8651 -0.8954  0.1174
  787MOL0     C 6133   1.684   7.930   2.252  0.1636  0.6161  0.0923
  787MOL0     O 6134   1.558   7.883   2.201  0.1250 -0.2147  0.2908
  787MOL0     C 6135   1.551   7.756   2.150  0.0003  0.9003  0.2630
  787MOL0     C 6136   1.422   7.709   2.135 -0.0364 -0.1758 -0.3074
  787MOL0     C 6137   1.390   7.584   2.081  0.2672  0.2990 -0.3203
  787MOL0     C 6138   1.236   7.561   2.065  0.0147  0.0946 -0.2495
  787MOL0     C 6139   1.494   7.499   2.042  0.0015 -0.0553 -0.1317
  787MOL0     C 6140   1.466   7.380   1.976 -0.6730  0.3177  0.6154
  787MOL0     O 6141   1.363   7.295   2.025  0.5057 -0.4566  0.4333
  787MOL0     C 6142   1.341   7.171   1.971  0.2741 -0.3197 -0.6644
  787MOL0     C 6143   1.439   7.074   1.963 -0.8171  0.5050  0.0916
  787MOL0     C 6144   1.418   6.939   1.927 -0.8870 -0.1234 -0.6490
  787MOL0     C 6145   1.298   6.901   1.873 -0.2878  0.9253  0.6757
  787MOL0     O 6146   1.268   6.773   1.840 -0.0079  0.0337  0.6116
  787MOL0     C 6147   1.369   6.680   1.813 -0.2618  1.2926  0.4770
  787MOL0     C 6148   1.295   6.541   1.775 -0.6584 -0.3404  0.6500
  787MOL0     C 6149   1.229   6.536   1.635 -0.2182 -0.0471 -0.1997
  787MOL0     C 6150   1.219   6.388   1.591 -0.6440 -1.0434  0.6365
  787MOL0     C 6151   1.107   6.367   1.492  1.1892  0.2832  0.8472
  787MOL0     C 6152   0.972   6.416   1.561  0.4251  0.0037 -0.7097
  787MOL0     C 6153   0.858   6.361   1.479 -0.8183 -0.2330  0.8962
  787MOL0     C 6154   0.719   6.402   1.521  0.5347  0.7944  0.5528
  787MOL0    Cl 6155   0.715   6.566   1.563  0.4318  0.3264 -0.2878
  787MOL0     C 6156   1.192   6.995   1.880 -0.0739 -0.1742 -0.2604
  787MOL0     C 6157   1.210   7.128   1.936  0.3157  0.0953 -0.3924
  787MOL0     O 6158   1.547   7.348   1.882  0.5959 -0.2463 -0.2729
  787MOL0     C 6159   1.624   7.546   2.056 -0.6555 -0.0318 -1.0739
  787MOL0     C 6160   1.646   7.674   2.100 -0.4498 -0.1093 -0.0296
  787MOL0     N 6161   2.090   8.303   2.207 -0.1442  0.0686 -0.5110
  787MOL0     N 6162   2.190   8.370   2.249  0.9667  0.1684  0.2458
  787MOL0     C 6163   2.966   8.163   3.183  0.6862  0.3217 -0.6373
  787MOL0     C 6164   3.101   8.141   3.195 -0.3934  0.0600  0.1084
  787MOL0     C 6165   3.513   8.057   2.994  0.0664 -0.1280  0.9864
  787MOL0     C 6166   3.568   8.001   2.881 -0.4905 -0.3118  0.4656
  787MOL0     C 6167   3.687   8.030   2.822  0.0471  0.0632  0.7386
  787MOL0     C 6168   3.775   8.127   2.877 -0.2071  0.4822 -0.1042
  787MOL0     O 6169   3.905   8.135   2.818 -0.4048  0.3648 -0.1084
  787MOL0     C 6170   4.012   8.194   2.895  0.4584  0.2195 -0.2076
  787MOL0     C 6171   4.113   8.256   2.803  0.8340  0.2237  0.2266
  787MOL0     C 6172   4.061   8.363   2.712  0.4596 -0.3167  0.3077
  787MOL0     C 6173   4.168   8.441   2.638 -0.1405 -0.4156 -0.1451
  787MOL0     C 6174   4.274   8.353   2.586 -0.1001  0.5474  1.2142
  787MOL0     C 6175   4.374   8.291   2.548 -0.1761  0.0229  0.3992
  787MOL0     C 6176   3.717   8.199   2.980  0.0438 -0.4909 -0.3541
  787MOL0     C 6177   3.588   8.173   3.037 -0.2761  0.9346  0.2252
  787MOL0     H 6178   3.206   8.178   2.876  0.5901 -0.0579  0.8714
  787MOL0     H 6179   2.953   8.152   2.840  1.5499 -4.8452  0.0557
  787MOL0     H 6180   2.701   8.261   2.908 -0.8030  0.3182  1.1415
  787MOL0     H 6181   2.736   8.092   2.860  0.7986 -1.5517  1.6329
  787MOL0     H 6182   2.578   7.989   2.980 -2.5958 -0.2154  1.7012
  787MOL0     H 6183   2.516   8.142   3.054 -0.8862 -0.1771 -0.5365
  787MOL0     H 6184   2.361   8.052   2.891 -0.8050  1.1283 -1.6867
  787MOL0     H 6185   2.426   8.207   2.835  0.2054  0.4957 -1.1257
  787MOL0     H 6186   2.593   7.986   2.731  0.6300  0.8531 -1.1117
  787MOL0     H 6187   2.421   7.972   2.694 -2.4430  3.0240 -0.2786
  787MOL0     H 6188   2.595   8.214   2.652  0.6053 -2.9680  2.5836
  787MOL0     H 6189   2.546   8.115   2.513 -2.0654 -2.6262  0.6350
  787MOL0     H 6190   2.309   8.163   2.506 -1.5266  0.3683  1.5639
  787MOL0     H 6191   2.326   8.256   2.657  0.2779  0.6290 -1.1241
  787MOL0     H 6192   2.474   8.414   2.557  0.8374 -0.0791  1.0008
  787MOL0     H 6193   2.457   8.334   2.403 -1.9588 -1.7107  0.7835
  787MOL0     H 6194   2.318   8.537   2.432  2.5291 -0.5494  2.9057
  787MOL0     H 6195   2.236   8.455   2.568  0.9329 -0.2544  1.0205
  787MOL0     H 6196   2.030   8.294   2.523 -0.7302  2.4371  0.5262
  787MOL0     H 6197   1.855   8.136   2.400 -0.2443  0.2920 -0.6358
  787MOL0     H 6198   1.809   8.223   2.255 -2.3762 -0.1251  3.7474
  787MOL0     H 6199   1.959   7.969   2.263  1.8982  0.7527 -0.5872
  787MOL0     H 6200   1.968   8.072   2.126 -1.2096  1.1435  0.5863
  787MOL0     H 6201   1.805   7.900   2.086  1.3985 -2.0216  1.8463
  787MOL0     H 6202   1.740   8.062   2.078  1.9389  1.4954  1.9987
  787MOL0     H 6203   1.655   8.012   2.319 -0.0749  1.1031 -0.5906
  787MOL0     H 6204   1.739   7.858   2.313  1.6410  0.1695 -1.6818
  787MOL0     H 6205   1.334   7.767   2.162 -1.3113 -1.4278 -1.5784
  787MOL0     H 6206   1.212   7.484   1.991  1.2896 -0.3540 -0.2116
  787MOL0     H 6207   1.197   7.536   2.164 -0.3993  1.1135 -0.1348
  787MOL0     H 6208   1.186   7.655   2.037 -0.2204 -0.3442 -1.3793
  787MOL0     H 6209   1.537   7.102   1.999 -1.5396  1.0235  1.7696
  787MOL0     H 6210   1.509   6.882   1.941  0.0960  1.2314 -1.3264
  787MOL0     H 6211   1.440   6.714   1.737  2.2299 -0.6274  1.8047
  787MOL0     H 6212   1.423   6.659   1.905 -0.6716 -0.1217  0.4182
  787MOL0     H 6213   1.373   6.466   1.757 -1.0751 -0.4500 -0.8501
  787MOL0     H 6214   1.228   6.510   1.855 -2.9294  1.3342 -0.4868
  787MOL0     H 6215   1.277   6.599   1.560 -1.3499  1.1357  0.0329
  787MOL0     H 6216   1.137   6.594   1.653 -0.0039 -0.8275  5.0942
  787MOL0     H 6217   1.316   6.358   1.550 -0.4550  0.2041  0.1244
  787MOL0     H 6218   1.200   6.320   1.674 -0.7361 -4.0352 -1.6946
  787MOL0     H 6219   1.095   6.261   1.467 -2.6306  0.9844 -1.2575
  787MOL0     H 6220   1.115   6.420   1.396 -0.2277  0.6509  0.8987
  787MOL0     H 6221   0.967   6.365   1.658 -0.6332  0.7196 -0.3752
  787MOL0     H 6222   0.962   6.524   1.575  0.8240 -0.0315 -0.1281
  787MOL0     H 6223   0.868   6.253   1.470 -0.8909 -0.1103 -1.3156
  787MOL0     H 6224   0.875   6.398   1.377 -0.5754 -2.1588  0.2049
  787MOL0     H 6225   0.698   6.350   1.615  2.4311  0.0296  0.6013
  787MOL0     H 6226   0.648   6.377   1.442  0.2808  0.9013  0.7469
  787MOL0     H 6227   1.095   6.962   1.844  0.7172 -2.5920 -0.3398
  787MOL0     H 6228   1.133   7.204   1.948 -1.4023 -1.7633  1.0620
  787MOL0     H 6229   1.706   7.488   2.013 -1.4315 -1.4880 -0.6401
  787MOL0     H 6230   1.750   7.705   2.097  0.1277 -2.0359 -1.6515
  787MOL0     H 6231   2.910   8.165   3.276 -0.6311 -3.1026 -1.2022
  787MOL0     H 6232   3.131   8.126   3.298 -2.2491  0.3302  0.7256
  787MOL0     H 6233   3.518   7.918   2.832 -0.4717  0.6778 -1.3545
  787MOL0     H 6234   3.703   7.966   2.736 -3.7362 -0.2757  0.1283
  787MOL0     H 6235   3.965   8.276   2.951 -0.5561  0.0132 -0.7209
  787MOL0     H 6236   4.066   8.122   2.956  1.8878  0.3151 -1.2896
  787MOL0     H 6237   4.157   8.181   2.737  1.8234  1.1279 -0.1713
  787MOL0     H 6238   4.201   8.284   2.862  0.5894 -0.6148  1.0233
  787MOL0     H 6239   3.994   8.435   2.760  0.8194 -0.4107  0.9592
  787MOL0     H 6240   3.998   8.316   2.635  2.2682 -2.0404 -0.2033
  787MOL0     H 6241   4.211   8.516   2.706 -1.4229 -1.4213  1.8662
  787MOL0     H 6242   4.124   8.498   2.556  2.3093 -0.5758 -1.6610
  787MOL0     H 6243   4.452   8.234   2.500 -3.1423 -3.5828 -0.5670
  787MOL0     H 6244   3.765   8.278   3.037 -1.4901 -0.6999  1.3030
  787MOL0     H 6245   3.554   8.231   3.123 -1.4213 -0.8303  1.0340
  788MOL0     O 6246   0.983   7.365  10.092  0.2994 -0.4240 -0.0782
  788MOL0     C 6247   0.894   7.363  10.176  0.2252  1.3087 -0.4438
  788MOL0     O 6248   0.811   7.465  10.212 -0.2914  0.6412 -0.5230
  788MOL0     C 6249   0.819   7.594  10.160  0.5313 -0.2769  0.4406
  788MOL0     C 6250   0.758   7.682  10.247  1.4811  0.1497  0.1232
  788MOL0     C 6251   0.753   7.825  10.214  0.6033  1.2319 -0.3400
  788MOL0     C 6252   0.811   7.869  10.097  0.4963  0.2014  0.2607
  788MOL0     O 6253   0.796   7.996  10.051  0.0887 -0.4452 -0.5647
  788MOL0     C 6254   0.663   8.042  10.072 -0.1655 -0.1518  0.4801
  788MOL0     C 6255   0.624   8.138   9.970 -0.0115  0.2607  0.4728
  788MOL0     C 6256   0.502   8.214  10.021  0.0436  0.5689 -0.1084
  788MOL0     C 6257   0.475   8.330   9.934  0.5023  0.7830 -0.6049
  788MOL0     C 6258   0.339   8.393   9.967  0.4644 -0.3368  0.8954
  788MOL0     C 6259   0.214   8.321   9.908  0.3248  0.0600 -0.2883
  788MOL0     C 6260   0.082   8.391   9.942 -0.7103 -0.1489  0.2345
  788MOL0     C 6261  -0.036   8.345   9.874  0.6197 -0.5377 -0.2313
  788MOL0     N 6262  -0.150   8.427   9.913 -0.2025 -0.2501  0.3094
  788MOL0     C 6263  -0.156   8.536   9.995  0.4442 -0.1113 -0.2611
  788MOL0     C 6264  -0.279   8.596   9.980 -0.0892 -0.1175  0.3926
  788MOL0     C 6265  -0.333   8.718  10.042 -0.2606 -0.4239 -0.2780
  788MOL0     C 6266  -0.316   8.836   9.946  0.5195  0.4088 -0.7855
  788MOL0     C 6267  -0.312   8.976  10.014 -0.6570 -0.0066  0.4770
  788MOL0     C 6268  -0.442   9.004  10.091 -0.2393  0.6491  0.2150
  788MOL0     O 6269  -0.457   8.923  10.212 -1.4497 -0.9012 -1.1343
  788MOL0     C 6270  -0.567   8.940  10.288  0.4523  0.3547  0.1115
  788MOL0     C 6271  -0.680   9.017  10.256  1.0480  0.4691  0.0532
  788MOL0     C 6272  -0.795   9.033  10.342 -0.1984  0.7854 -0.6411
  788MOL0     C 6273  -0.914   9.111  10.292 -0.5472  0.0263 -0.4896
  788MOL0     C 6274  -0.796   8.971  10.472 -0.5727  0.0054 -0.5739
  788MOL0     C 6275  -0.906   8.988  10.574 -0.2891 -0.7182 -0.2652
  788MOL0     O 6276  -0.999   9.082  10.536 -0.1333  0.2427  0.1418
  788MOL0     C 6277  -1.106   9.105  10.618  0.7339 -0.3103  0.2860
  788MOL0     C 6278  -1.225   9.119  10.544  0.4986 -0.4211 -0.4440
  788MOL0     C 6279  -1.349   9.157  10.601  0.4223 -0.2585 -0.2268
  788MOL0     C 6280  -1.347   9.168  10.740  0.3534 -1.3362 -0.3680
  788MOL0     O 6281  -1.455   9.219  10.800  0.4443 -0.6112  0.9037
  788MOL0     C 6282  -1.541   9.125  10.865  0.5962  1.8824  0.0542
  788MOL0     C 6283  -1.674   9.195  10.897  0.3726 -0.2577 -0.0669
  788MOL0     C 6284  -1.757   9.212  10.767  0.1263  0.7114 -0.1458
  788MOL0     C 6285  -1.845   9.327  10.749 -0.2558  0.6560  0.1259
  788MOL0     C 6286  -1.989   9.295  10.789  0.6631  0.1191  0.2338
  788MOL0     C 6287  -2.009   9.292  10.942  0.6257  0.2294  0.9265
  788MOL0     C 6288  -2.142   9.250  10.990  0.0721 -0.1152  0.2424
  788MOL0     C 6289  -2.258   9.357  10.962 -0.2571 -0.3797  0.0718
  788MOL0    Cl 6290  -2.396   9.294  11.049 -0.4746  0.0960  0.1422
  788MOL0     C 6291  -1.232   9.143  10.811 -0.1778 -0.1375  0.6698
  788MOL0     C 6292  -1.107   9.107  10.758 -0.5603 -0.0511 -0.7582
  788MOL0     O 6293  -0.901   8.924  10.685  0.3198 -0.3847 -0.2709
  788MOL0     C 6294  -0.677   8.895  10.502 -0.8401  0.3434  0.5954
  788MOL0     C 6295  -0.561   8.877  10.409 -0.2654 -0.6360 -0.2334
  788MOL0     N 6296  -0.353   8.513   9.898 -0.1448 -0.3228 -0.3957
  788MOL0     N 6297  -0.271   8.417   9.860  0.0596  0.3331 -0.4379
  788MOL0     C 6298   0.892   7.782  10.026  0.7201 -0.6027  0.5136
  788MOL0     C 6299   0.894   7.646  10.054 -0.3257  0.2394  0.5088
  788MOL0     C 6300   0.884   7.230  10.258 -0.3284 -0.8046  0.6468
  788MOL0     C 6301   0.934   7.114  10.203  0.1158 -0.7295 -0.1431
  788MOL0     C 6302   0.924   6.995  10.276  0.8085  0.1579 -0.7432
  788MOL0     C 6303   0.880   6.994  10.411  0.1626 -0.3719 -0.1207
  788MOL0     O 6304   0.873   6.884  10.500 -0.2431  0.3762  0.2683
  788MOL0     C 6305   0.924   6.760  10.462  0.4017  0.5754  0.4372
  788MOL0     C 6306   0.864   6.661  10.562  0.7699  0.8006  0.3244
  788MOL0     C 6307   0.873   6.520  10.494  0.0969  0.3861  0.1003
  788MOL0     C 6308   0.810   6.404  10.574  0.2161  1.3262 -0.3110
  788MOL0     C 6309   0.786   6.293  10.484 -0.1658 -0.2448 -0.3526
  788MOL0     C 6310   0.772   6.199  10.408  0.8177  0.0173  0.2348
  788MOL0     C 6311   0.850   7.113  10.467 -0.9254 -0.4730  0.4091
  788MOL0     C 6312   0.849   7.230  10.392 -0.2260 -0.2829 -0.1963
  788MOL0     H 6313   0.727   7.639  10.341  2.3103 -0.9169 -0.0669
  788MOL0     H 6314   0.691   7.885  10.280 -0.0817  1.3766 -1.1004
  788MOL0     H 6315   0.599   7.954  10.065 -1.2308  0.6859 -1.1036
  788MOL0     H 6316   0.646   8.089  10.169 -3.4638 -1.3855  0.6317
  788MOL0     H 6317   0.708   8.207   9.960 -1.6488  2.1679 -0.7332
  788MOL0     H 6318   0.610   8.096   9.870 -1.2399  3.1689 -0.6611
  788MOL0     H 6319   0.422   8.142  10.004  2.1855 -1.1579 -4.5482
  788MOL0     H 6320   0.524   8.269  10.113  2.5052  1.2637 -1.0244
  788MOL0     H 6321   0.559   8.399   9.950  2.8168 -1.6282 -1.4967
  788MOL0     H 6322   0.488   8.305   9.828 -0.4608  2.9995 -1.3098
  788MOL0     H 6323   0.321   8.395  10.075 -2.2029 -0.8182  0.5249
  788MOL0     H 6324   0.333   8.497   9.933 -1.0093 -0.4388  0.7719
  788MOL0     H 6325   0.228   8.311   9.800  1.2111 -0.2507 -0.1520
  788MOL0     H 6326   0.215   8.223   9.956 -3.5498 -1.5616 -2.9625
  788MOL0     H 6327   0.072   8.393  10.051 -0.1856  2.1634  0.2973
  788MOL0     H 6328   0.099   8.495   9.913 -0.0544 -0.6051 -1.1389
  788MOL0     H 6329  -0.054   8.237   9.877 -2.4017 -0.1729 -1.6875
  788MOL0     H 6330  -0.014   8.355   9.767  1.2846 -1.0412 -0.1457
  788MOL0     H 6331  -0.071   8.570  10.053  0.0022 -0.3316  0.5290
  788MOL0     H 6332  -0.440   8.709  10.060 -0.7201  1.8224 -1.4717
  788MOL0     H 6333  -0.281   8.738  10.136 -0.8572  2.1706 -0.4202
  788MOL0     H 6334  -0.387   8.857   9.866 -3.2769  0.7756  2.3721
  788MOL0     H 6335  -0.232   8.812   9.880 -1.3258 -2.2108 -2.3290
  788MOL0     H 6336  -0.303   9.055   9.939 -0.7493  1.2986  1.7953
  788MOL0     H 6337  -0.222   8.985  10.076 -1.9081  1.4332  2.1808
  788MOL0     H 6338  -0.528   8.979  10.028  0.4577  2.1866 -1.4438
  788MOL0     H 6339  -0.433   9.110  10.117 -0.3730  0.6420  0.2889
  788MOL0     H 6340  -0.676   9.072  10.163 -0.4048  2.3010  1.0081
  788MOL0     H 6341  -0.896   9.152  10.192  0.9435  0.8390  0.0888
  788MOL0     H 6342  -1.005   9.051  10.299 -0.6761  0.3597  0.8759
  788MOL0     H 6343  -0.926   9.198  10.357 -0.3019 -2.1212  2.6283
  788MOL0     H 6344  -1.223   9.113  10.435 -2.4923 -0.2685 -0.5949
  788MOL0     H 6345  -1.435   9.175  10.539 -1.3636  1.6004  2.5618
  788MOL0     H 6346  -1.559   9.038  10.800  1.5553  1.2796  0.5797
  788MOL0     H 6347  -1.498   9.074  10.952  0.6065  2.9784  0.7044
  788MOL0     H 6348  -1.738   9.140  10.966 -2.2840  0.5313 -1.7427
  788MOL0     H 6349  -1.656   9.289  10.949  0.1381 -0.8080  1.0389
  788MOL0     H 6350  -1.805   9.119  10.735  1.0112  0.1025  0.2823
  788MOL0     H 6351  -1.684   9.220  10.686  0.0669  2.7557 -0.0486
  788MOL0     H 6352  -1.805   9.413  10.803  3.0755  0.8218 -2.3332
  788MOL0     H 6353  -1.846   9.352  10.642 -0.6479  0.5286  0.0971
  788MOL0     H 6354  -2.029   9.205  10.741  1.6915  0.4341 -1.2855
  788MOL0     H 6355  -2.046   9.380  10.752 -2.8319 -1.2903  1.9013
  788MOL0     H 6356  -1.938   9.225  10.991  0.9944  1.1427  1.6791
  788MOL0     H 6357  -1.997   9.396  10.976 -2.1084  0.4294  1.4407
  788MOL0     H 6358  -2.142   9.254  11.099  0.5775 -1.0401  0.2892
  788MOL0     H 6359  -2.174   9.159  10.940  1.8468 -0.8451  0.3478
  788MOL0     H 6360  -2.281   9.366  10.856 -1.5798  2.9381  0.5098
  788MOL0     H 6361  -2.225   9.458  10.987  2.5820 -0.0704 -4.0493
  788MOL0     H 6362  -1.224   9.159  10.918 -0.4221  3.6081  0.2745
  788MOL0     H 6363  -1.013   9.113  10.811  0.6808  0.1903 -2.8743
  788MOL0     H 6364  -0.673   8.835  10.592  4.2083 -0.9000 -0.1396
  788MOL0     H 6365  -0.470   8.822  10.431  1.7023  3.5844  4.1584
  788MOL0     H 6366   0.932   7.818   9.932 -0.4797 -0.9481 -0.1578
  788MOL0     H 6367   0.946   7.578   9.988  2.0866  2.4855 -0.0821
  788MOL0     H 6368   0.958   7.128  10.098 -1.1156  0.3062 -0.3174
  788MOL0     H 6369   0.961   6.905  10.228  4.0706  1.3998 -0.8228
  788MOL0     H 6370   0.879   6.734  10.366  0.4345  2.7441 -0.2215
  788MOL0     H 6371   1.033   6.751  10.462  0.4964  1.6158  0.1653
  788MOL0     H 6372   0.761   6.689  10.586  1.2398  0.9149  2.4118
  788MOL0     H 6373   0.917   6.656  10.657  2.6267  2.2065 -0.5625
  788MOL0     H 6374   0.979   6.491  10.491 -0.3936 -1.4769 -1.9813
  788MOL0     H 6375   0.833   6.525  10.392  3.0814 -0.6451 -1.2340
  788MOL0     H 6376   0.719   6.430  10.629 -1.1045 -0.7196 -1.3614
  788MOL0     H 6377   0.873   6.382  10.660  0.0088 -1.3670 -0.7404
  788MOL0     H 6378   0.741   6.112  10.354  3.3712 -1.3846  0.8717
  788MOL0     H 6379   0.833   7.112  10.574 -1.0996 -0.6443  0.3804
  788MOL0     H 6380   0.831   7.322  10.446  1.8601 -0.2455  0.5470
  789MOL0     O 6381   5.361   1.913   5.735 -0.3421  0.1977 -0.7874
  789MOL0     C 6382   5.451   1.868   5.668 -0.2394 -0.1082 -0.1771
  789MOL0     O 6383   5.555   1.938   5.619  0.4563 -0.7154  0.4954
  789MOL0     C 6384   5.538   2.072   5.620 -0.3488  0.7895 -0.5404
  789MOL0     C 6385   5.465   2.139   5.518  0.6901 -0.1628 -0.4725
  789MOL0     C 6386   5.455   2.280   5.522 -0.4003 -1.0020 -0.2263
  789MOL0     C 6387   5.543   2.349   5.603 -0.1858 -0.2021  0.0118
  789MOL0     O 6388   5.552   2.493   5.588  0.0192  0.2263 -0.0711
  789MOL0     C 6389   5.630   2.563   5.691  0.5039 -0.5033 -0.6896
  789MOL0     C 6390   5.643   2.713   5.668 -0.5143 -0.2754 -0.0993
  789MOL0     C 6391   5.502   2.784   5.654  0.1303  0.6153  0.3974
  789MOL0     C 6392   5.458   2.849   5.786  0.2141  0.4483  0.0660
  789MOL0     C 6393   5.347   2.952   5.781  0.7473  0.5681  0.3363
  789MOL0     C 6394   5.318   3.011   5.923  0.0291  0.1569  0.6518
  789MOL0     C 6395   5.224   3.137   5.889 -0.7191  0.2268  0.6805
  789MOL0     C 6396   5.187   3.224   6.015  0.4694 -0.1642  0.4395
  789MOL0     N 6397   5.076   3.316   5.982 -0.1952  0.5254  0.7495
  789MOL0     C 6398   5.088   3.424   5.896  0.5139  0.3402  0.4432
  789MOL0     C 6399   4.957   3.457   5.867 -0.4584  0.3081  0.0311
  789MOL0     C 6400   4.908   3.560   5.754 -0.4363 -0.0906 -0.6243
  789MOL0     C 6401   4.942   3.526   5.606  0.3654  0.6048 -0.6558
  789MOL0     C 6402   4.827   3.453   5.522 -0.5634 -0.7201 -0.7609
  789MOL0     C 6403   4.798   3.321   5.598  0.5678  0.1325  0.2876
  789MOL0     O 6404   4.721   3.235   5.513  0.3278 -0.2782  0.1874
  789MOL0     C 6405   4.587   3.231   5.511 -0.6392 -0.4554 -0.4196
  789MOL0     C 6406   4.536   3.107   5.477  0.6219 -0.5841 -1.0463
  789MOL0     C 6407   4.403   3.086   5.471  0.8065 -0.0648  0.4546
  789MOL0     C 6408   4.363   2.945   5.441 -0.1583  0.0064 -0.3680
  789MOL0     C 6409   4.318   3.190   5.518 -0.0538  0.2820 -0.5063
  789MOL0     C 6410   4.164   3.181   5.530  1.0405 -0.0940 -0.0213
  789MOL0     O 6411   4.102   3.292   5.588 -1.2282 -0.0656  0.2646
  789MOL0     C 6412   3.975   3.286   5.641  0.4845  0.5389 -0.2311
  789MOL0     C 6413   3.934   3.178   5.729  0.1094  0.3485  0.8183
  789MOL0     C 6414   3.812   3.174   5.787 -0.7569  0.6371  0.2148
  789MOL0     C 6415   3.729   3.283   5.764 -0.9817  0.4602  0.1632
  789MOL0     O 6416   3.600   3.311   5.813 -0.0314 -0.6786  0.0805
  789MOL0     C 6417   3.542   3.210   5.904  0.0047  0.2958 -0.3324
  789MOL0     C 6418   3.391   3.230   5.928  0.8451 -0.2643  0.3753
  789MOL0     C 6419   3.310   3.176   5.814  0.2752  0.5563  0.3913
  789MOL0     C 6420   3.167   3.222   5.813  0.6117 -0.2314  0.2179
  789MOL0     C 6421   3.077   3.135   5.726 -0.1521 -0.7973  0.2919
  789MOL0     C 6422   3.115   3.155   5.573  0.5879  0.9460  0.7203
  789MOL0     C 6423   2.995   3.101   5.487 -0.3941 -0.1947  1.4894
  789MOL0     C 6424   3.032   3.129   5.334 -0.5998 -0.6541 -0.2626
  789MOL0    Cl 6425   3.039   3.311   5.300 -0.2173 -0.2885 -0.5229
  789MOL0     C 6426   3.770   3.394   5.693  0.2354 -0.2783 -0.2003
  789MOL0     C 6427   3.891   3.393   5.624 -0.2620 -0.3622  0.5141
  789MOL0     O 6428   4.094   3.079   5.493 -0.3230  0.5875 -0.5988
  789MOL0     C 6429   4.373   3.316   5.563  0.4893 -0.1385 -0.2836
  789MOL0     C 6430   4.509   3.337   5.550 -0.3228 -0.5807 -0.2461
  789MOL0     N 6431   4.872   3.372   5.931 -0.3588  0.3794 -0.0042
  789MOL0     N 6432   4.946   3.283   5.993  0.7180 -0.6469  0.2797
  789MOL0     C 6433   5.631   2.284   5.689  0.2825  0.5294 -0.8101
  789MOL0     C 6434   5.626   2.143   5.700  0.2538  0.3034 -0.1023
  789MOL0     C 6435   5.447   1.721   5.642  1.0192 -1.1357  0.2853
  789MOL0     C 6436   5.509   1.678   5.521 -0.1748  0.4238 -0.3659
  789MOL0     C 6437   5.495   1.532   5.492  0.3129 -0.0711 -0.8485
  789MOL0     C 6438   5.414   1.454   5.572 -0.4731 -0.1584 -0.0977
  789MOL0     O 6439   5.400   1.324   5.546 -0.3867  0.1469  0.1347
  789MOL0     C 6440   5.329   1.299   5.423 -0.8440 -0.0000 -0.9370
  789MOL0     C 6441   5.177   1.308   5.451 -0.5291  0.0218 -0.0406
  789MOL0     C 6442   5.124   1.419   5.364  0.2298 -0.6830  0.0805
  789MOL0     C 6443   4.970   1.413   5.371 -0.9838  0.1745 -0.3889
  789MOL0     C 6444   4.905   1.516   5.289 -0.5960 -0.0455  0.6858
  789MOL0     C 6445   4.875   1.614   5.230 -0.1916 -0.2323  0.1613
  789MOL0     C 6446   5.355   1.501   5.686  0.0416 -0.5135  0.7409
  789MOL0     C 6447   5.361   1.629   5.723 -0.7774 -0.2162 -0.0498
  789MOL0     H 6448   5.408   2.077   5.449  2.9942 -3.4252  0.3460
  789MOL0     H 6449   5.389   2.336   5.457 -0.0705 -1.1403 -0.6923
  789MOL0     H 6450   5.578   2.546   5.786 -0.6418  1.9112 -0.7950
  789MOL0     H 6451   5.732   2.525   5.688 -0.1738 -2.8649  2.0092
  789MOL0     H 6452   5.710   2.767   5.737  1.2298 -0.1812 -1.7925
  789MOL0     H 6453   5.701   2.730   5.577  0.5288  1.1788  0.7830
  789MOL0     H 6454   5.521   2.865   5.583 -1.2168 -0.3568 -1.1075
  789MOL0     H 6455   5.420   2.724   5.616 -0.5840  3.1829 -2.4705
  789MOL0     H 6456   5.437   2.772   5.860 -4.8313  2.2428  0.9287
  789MOL0     H 6457   5.548   2.902   5.818 -0.5741  2.0274 -0.2207
  789MOL0     H 6458   5.385   3.038   5.725  0.0510  0.3156 -0.5558
  789MOL0     H 6459   5.249   2.919   5.744 -0.6952  2.4528  2.2417
  789MOL0     H 6460   5.258   2.947   5.987 -0.6054 -0.4403 -0.5155
  789MOL0     H 6461   5.409   3.034   5.980  0.5178 -0.5354  0.1651
  789MOL0     H 6462   5.286   3.210   5.836  1.4497 -1.3608  0.8959
  789MOL0     H 6463   5.142   3.097   5.829 -1.0902  0.2631  1.1588
  789MOL0     H 6464   5.266   3.290   6.050 -2.6873  3.8864  0.7391
  789MOL0     H 6465   5.153   3.172   6.105 -0.0723 -1.2822 -0.3924
  789MOL0     H 6466   5.181   3.465   5.856 -0.3237  1.5644 -0.3141
  789MOL0     H 6467   4.802   3.577   5.775  0.6868  4.8470  2.7106
  789MOL0     H 6468   4.964   3.651   5.779  1.9687 -0.8164 -2.8913
  789MOL0     H 6469   5.034   3.467   5.615 -0.6820 -0.9818  0.2754
  789MOL0     H 6470   4.975   3.621   5.564 -2.6344  2.5411  1.0530
  789MOL0     H 6471   4.876   3.423   5.430 -0.5963 -2.6468 -0.1832
  789MOL0     H 6472   4.743   3.521   5.508  0.4827  0.8472  0.1415
  789MOL0     H 6473   4.753   3.352   5.693 -0.1587  2.3782 -0.7341
  789MOL0     H 6474   4.889   3.262   5.613 -0.1233 -1.1136 -0.2693
  789MOL0     H 6475   4.617   3.037   5.462  3.0415  1.8173  0.0848
  789MOL0     H 6476   4.310   2.900   5.525 -1.8275  0.1166 -1.3108
  789MOL0     H 6477   4.294   2.931   5.358  1.7336 -1.3124 -1.8325
  789MOL0     H 6478   4.445   2.875   5.422  0.7090  0.4114  1.6544
  789MOL0     H 6479   3.991   3.085   5.727 -0.2612  0.1386 -0.4412
  789MOL0     H 6480   3.772   3.092   5.845  0.9681 -0.8581 -0.6196
  789MOL0     H 6481   3.559   3.108   5.868  0.7068 -0.0126  0.8336
  789MOL0     H 6482   3.589   3.220   6.002 -1.1973 -1.1485  0.4285
  789MOL0     H 6483   3.368   3.184   6.025  1.4242  0.1322  0.7096
  789MOL0     H 6484   3.362   3.334   5.944 -3.3243 -1.4294  1.7851
  789MOL0     H 6485   3.316   3.067   5.822  1.9945  0.6279  0.5408
  789MOL0     H 6486   3.365   3.215   5.728 -1.7934 -2.0307 -2.3214
  789MOL0     H 6487   3.111   3.216   5.907 -2.1427 -0.0491 -1.3048
  789MOL0     H 6488   3.165   3.324   5.774 -0.8756 -0.0951  0.5967
  789MOL0     H 6489   2.978   3.178   5.738 -0.1245 -0.3483 -0.8994
  789MOL0     H 6490   3.069   3.030   5.755  0.5143 -0.4751  1.7129
  789MOL0     H 6491   3.137   3.256   5.538 -0.5269  1.4760  1.4706
  789MOL0     H 6492   3.206   3.098   5.556 -0.0678  0.2829 -0.6918
  789MOL0     H 6493   2.901   3.154   5.506  0.5071  0.9794  2.7807
  789MOL0     H 6494   2.991   2.992   5.503 -0.1922  0.2567  5.4093
  789MOL0     H 6495   2.953   3.093   5.268 -0.6941  0.7076 -0.9266
  789MOL0     H 6496   3.122   3.070   5.315 -2.4153 -3.5410 -0.6107
  789MOL0     H 6497   3.707   3.481   5.700 -2.8059 -2.2048 -1.5090
  789MOL0     H 6498   3.911   3.481   5.564  0.2185 -0.6418  0.2599
  789MOL0     H 6499   4.314   3.395   5.608  3.1941  0.5534  2.3230
  789MOL0     H 6500   4.549   3.435   5.576 -0.4250 -0.6893  0.3358
  789MOL0     H 6501   5.710   2.331   5.747 -0.5798  1.8649 -0.6783
  789MOL0     H 6502   5.673   2.087   5.781 -4.5398 -1.3732  1.8970
  789MOL0     H 6503   5.566   1.747   5.461 -1.6468  2.7876  0.8015
  789MOL0     H 6504   5.538   1.488   5.402 -0.1035 -0.2173 -0.9795
  789MOL0     H 6505   5.371   1.357   5.340  0.6159 -0.5837 -0.6305
  789MOL0     H 6506   5.357   1.200   5.385  1.2101  0.6147 -1.1644
  789MOL0     H 6507   5.168   1.317   5.560  1.4974 -2.6533  0.4490
  789MOL0     H 6508   5.122   1.218   5.423  2.1644 -1.3988 -1.2237
  789MOL0     H 6509   5.158   1.407   5.261 -0.9488  0.3601 -0.4427
  789MOL0     H 6510   5.172   1.508   5.406  1.9829 -1.6285  0.2108
  789MOL0     H 6511   4.931   1.408   5.473 -0.5061 -3.9723 -0.2438
  789MOL0     H 6512   4.947   1.315   5.329 -0.2929 -0.3232  0.3682
  789MOL0     H 6513   4.837   1.697   5.174 -0.8042 -1.0055 -0.5832
  789MOL0     H 6514   5.297   1.430   5.744 -1.3638  0.1094  0.1450
  789MOL0     H 6515   5.301   1.659   5.808 -0.4377  0.7832 -0.1538
  790MOL0     O 6516   8.577   0.120   3.385  0.2964 -0.0582 -0.2598
  790MOL0     C 6517   8.489   0.035   3.389  0.0348 -0.5451  1.7152
  790MOL0     O 6518   8.352   0.047   3.386 -0.5260 -0.2429  0.0953
  790MOL0     C 6519   8.291   0.174   3.389  0.0928  0.1925  0.0744
  790MOL0     C 6520   8.202   0.198   3.287  1.0007  0.1008  0.4016
  790MOL0     C 6521   8.141   0.316   3.264 -0.2421 -0.6265  0.0541
  790MOL0     C 6522   8.190   0.426   3.334  0.0864 -0.1329  1.0066
  790MOL0     O 6523   8.149   0.550   3.312 -0.2007 -0.6671  0.3870
  790MOL0     C 6524   8.244   0.644   3.247  0.5415  0.5108  0.4243
  790MOL0     C 6525   8.198   0.791   3.269  0.6633 -0.4141 -0.5763
  790MOL0     C 6526   8.205   0.814   3.421  0.7606  1.0754  0.1697
  790MOL0     C 6527   8.173   0.955   3.450 -0.7525 -0.4391 -0.2972
  790MOL0     C 6528   8.164   0.989   3.594  0.2942  0.2293 -0.4280
  790MOL0     C 6529   8.119   1.124   3.614  0.0559 -0.9562  1.2492
  790MOL0     C 6530   8.101   1.151   3.761 -0.1920 -0.2706 -0.5313
  790MOL0     C 6531   8.070   1.298   3.779 -0.3556 -0.3765  1.0264
  790MOL0     N 6532   8.066   1.341   3.919  0.2217  0.4894  0.6276
  790MOL0     C 6533   8.162   1.336   4.015  0.4231  0.0896  0.7005
  790MOL0     C 6534   8.105   1.408   4.118 -0.2716 -0.2955 -0.5436
  790MOL0     C 6535   8.180   1.444   4.241  0.1362  0.8158 -0.1525
  790MOL0     C 6536   8.092   1.516   4.341 -1.1629  0.2664  0.5222
  790MOL0     C 6537   8.160   1.569   4.461  0.3302  0.3162  0.0644
  790MOL0     C 6538   8.258   1.683   4.438  0.4092  0.7335  0.9621
  790MOL0     O 6539   8.323   1.716   4.561  0.4660 -0.2933  1.0284
  790MOL0     C 6540   8.434   1.802   4.559  0.7447  0.1250  0.2835
  790MOL0     C 6541   8.502   1.847   4.443  0.4328 -0.3940 -0.1561
  790MOL0     C 6542   8.611   1.936   4.457  1.0678 -0.3583  0.4272
  790MOL0     C 6543   8.671   1.981   4.325  1.0878 -0.2790 -0.0696
  790MOL0     C 6544   8.647   1.981   4.590  0.1215 -0.5446 -0.4560
  790MOL0     C 6545   8.754   2.083   4.615 -0.1851  0.4538 -0.0441
  790MOL0     O 6546   8.806   2.093   4.740 -0.7109  0.2478 -0.9603
  790MOL0     C 6547   8.907   2.186   4.763 -0.1412 -0.9460 -0.0244
  790MOL0     C 6548   8.880   2.301   4.840  0.1060  0.5388  0.6793
  790MOL0     C 6549   8.992   2.381   4.875  0.6986 -0.5229  0.7136
  790MOL0     C 6550   9.120   2.352   4.821  0.1253 -0.0488 -0.6975
  790MOL0     O 6551   9.225   2.433   4.860 -0.3346 -0.4391  0.0936
  790MOL0     C 6552   9.220   2.534   4.960  0.1736  0.0205 -0.3691
  790MOL0     C 6553   9.353   2.614   4.947  0.0871 -0.0230 -0.1200
  790MOL0     C 6554   9.361   2.719   5.063 -0.3577 -0.8573 -1.0224
  790MOL0     C 6555   9.506   2.763   5.090 -0.1554  0.2372  0.1643
  790MOL0     C 6556   9.537   2.857   5.205 -0.3367 -0.3446 -0.1410
  790MOL0     C 6557   9.497   3.002   5.173  0.0650  0.6854 -0.4171
  790MOL0     C 6558   9.533   3.105   5.274  0.8700  0.9085  0.3498
  790MOL0     C 6559   9.455   3.241   5.244  0.0604  0.4994  0.4995
  790MOL0    Cl 6560   9.295   3.217   5.316 -0.3371  0.4774 -0.3525
  790MOL0     C 6561   9.137   2.242   4.736 -0.2478 -0.0120  0.4048
  790MOL0     C 6562   9.029   2.155   4.698 -0.6618 -0.2531 -0.2390
  790MOL0     O 6563   8.797   2.146   4.516  0.7384  0.2227  0.5612
  790MOL0     C 6564   8.581   1.929   4.697 -0.2152 -0.7779 -0.2725
  790MOL0     C 6565   8.481   1.845   4.684  0.4140  0.0931 -0.2531
  790MOL0     N 6566   7.984   1.465   4.072 -0.1206  0.2768  1.0095
  790MOL0     N 6567   7.961   1.415   3.956 -0.0286  0.3531 -0.3539
  790MOL0     C 6568   8.283   0.413   3.440 -0.0830 -0.2467  0.9095
  790MOL0     C 6569   8.331   0.281   3.469  0.7356 -0.6885 -0.5065
  790MOL0     C 6570   8.537  -0.106   3.373 -0.5719 -0.2659 -1.3332
  790MOL0     C 6571   8.453  -0.212   3.338 -0.0416 -0.7377  0.0181
  790MOL0     C 6572   8.496  -0.338   3.349 -0.4210 -0.2047 -0.3853
  790MOL0     C 6573   8.628  -0.369   3.373 -0.2041  0.0884 -0.1113
  790MOL0     O 6574   8.658  -0.501   3.378 -0.6101 -0.0080 -0.2084
  790MOL0     C 6575   8.786  -0.541   3.431 -0.0247 -0.6292 -0.3907
  790MOL0     C 6576   8.889  -0.542   3.320  1.5675 -0.2604  0.2975
  790MOL0     C 6577   9.030  -0.549   3.379 -0.4082  0.2822 -0.3268
  790MOL0     C 6578   9.109  -0.669   3.326 -0.0609 -0.7896  0.1061
  790MOL0     C 6579   9.084  -0.791   3.398  1.5128  1.2165 -0.7388
  790MOL0     C 6580   9.045  -0.894   3.466  0.4579 -0.5952  0.6402
  790MOL0     C 6581   8.722  -0.264   3.407 -0.6943 -0.2880 -0.0634
  790MOL0     C 6582   8.672  -0.130   3.403 -0.0819  0.3091 -1.1184
  790MOL0     H 6583   8.172   0.126   3.211  3.8214  1.3722 -2.1564
  790MOL0     H 6584   8.064   0.333   3.189 -1.0208  1.3462  1.2383
  790MOL0     H 6585   8.345   0.619   3.280  1.6087  0.3449 -2.6146
  790MOL0     H 6586   8.246   0.629   3.138  0.2605  0.9759  0.3546
  790MOL0     H 6587   8.276   0.852   3.222  0.1618 -0.5724 -1.6600
  790MOL0     H 6588   8.096   0.810   3.233 -0.3045 -0.2334  2.0900
  790MOL0     H 6589   8.138   0.751   3.480  3.1120 -0.5552  1.2330
  790MOL0     H 6590   8.293   0.771   3.469  1.2912  1.8795 -0.0447
  790MOL0     H 6591   8.245   1.020   3.399  0.4915 -0.8940  0.8142
  790MOL0     H 6592   8.080   0.976   3.397  0.3934  1.3089 -1.7368
  790MOL0     H 6593   8.091   0.926   3.646  1.3104  1.0424  2.1999
  790MOL0     H 6594   8.254   0.966   3.652 -0.4880  1.0447  1.1968
  790MOL0     H 6595   8.194   1.188   3.566 -2.0845  0.9915  0.2713
  790MOL0     H 6596   8.021   1.142   3.568  1.3228  1.9801 -0.6617
  790MOL0     H 6597   8.013   1.108   3.810 -1.1703  4.1741  2.2595
  790MOL0     H 6598   8.183   1.116   3.824 -1.1572  1.4137  1.8249
  790MOL0     H 6599   7.980   1.323   3.722  1.7010  1.0602 -1.8268
  790MOL0     H 6600   8.151   1.355   3.734 -0.5800 -1.2506 -0.5508
  790MOL0     H 6601   8.258   1.286   4.007 -0.2780 -0.9766 -2.3280
  790MOL0     H 6602   8.213   1.346   4.278 -0.7071 -0.4858 -2.6225
  790MOL0     H 6603   8.267   1.502   4.208  0.8962  0.4994  1.1984
  790MOL0     H 6604   8.022   1.439   4.375  1.4489 -1.6201  1.9130
  790MOL0     H 6605   8.041   1.601   4.294  2.4308  1.7444 -1.0190
  790MOL0     H 6606   8.216   1.485   4.504 -2.7666 -2.4731 -0.9865
  790MOL0     H 6607   8.080   1.607   4.525 -1.4488 -0.5919 -1.5123
  790MOL0     H 6608   8.206   1.765   4.389  0.5134  0.9208  1.1632
  790MOL0     H 6609   8.330   1.648   4.363 -1.9678  3.2249 -2.8294
  790MOL0     H 6610   8.468   1.812   4.346 -1.7479  1.1545 -0.0147
  790MOL0     H 6611   8.673   1.901   4.251 -0.1270  2.1256 -2.8943
  790MOL0     H 6612   8.608   2.057   4.279 -0.3626 -1.8473 -0.7642
  790MOL0     H 6613   8.777   2.005   4.340  0.5248  3.2278 -0.7062
  790MOL0     H 6614   8.786   2.333   4.884  0.2416 -1.4670  2.6174
  790MOL0     H 6615   8.971   2.467   4.937 -0.4656 -0.6345  0.4910
  790MOL0     H 6616   9.133   2.597   4.944  0.3009 -0.1023 -1.6542
  790MOL0     H 6617   9.216   2.495   5.063  2.7786 -1.6448 -0.7829
  790MOL0     H 6618   9.432   2.539   4.938 -0.8475 -1.0092 -0.2959
  790MOL0     H 6619   9.344   2.676   4.857  1.5930  0.2688 -0.0918
  790MOL0     H 6620   9.323   2.671   5.153  1.0269 -0.4842 -0.2042
  790MOL0     H 6621   9.303   2.809   5.038  1.5596  0.8014  0.1806
  790MOL0     H 6622   9.551   2.669   5.123  1.2229  0.3416 -1.3097
  790MOL0     H 6623   9.559   2.799   5.001 -0.3030 -0.3457 -0.1615
  790MOL0     H 6624   9.645   2.862   5.220 -0.3385 -0.6356 -0.0216
  790MOL0     H 6625   9.478   2.826   5.292  0.9443  1.5795  1.5041
  790MOL0     H 6626   9.551   3.037   5.085  2.5972  2.1582  1.5842
  790MOL0     H 6627   9.389   3.007   5.157  0.0541  0.0783 -0.5575
  790MOL0     H 6628   9.642   3.117   5.269  1.3770 -2.3911  1.2031
  790MOL0     H 6629   9.490   3.079   5.371 -2.9586  2.8536 -0.6155
  790MOL0     H 6630   9.448   3.269   5.138 -0.8141  2.4114  1.0156
  790MOL0     H 6631   9.503   3.328   5.289 -0.0449  1.1553 -0.6162
  790MOL0     H 6632   9.238   2.223   4.701  0.5909 -4.0061  4.1337
  790MOL0     H 6633   9.040   2.065   4.638 -4.1021 -2.2800  1.8010
  790MOL0     H 6634   8.605   1.956   4.800 -1.0445  0.3067 -0.3441
  790MOL0     H 6635   8.427   1.826   4.776 -0.0820  2.3448 -0.0047
  790MOL0     H 6636   8.315   0.488   3.511  3.1743 -2.0902  1.6150
  790MOL0     H 6637   8.403   0.282   3.551  1.1836  2.8790 -0.7857
  790MOL0     H 6638   8.346  -0.199   3.330 -0.0652 -1.4665 -1.2188
  790MOL0     H 6639   8.426  -0.420   3.331  0.7839 -1.6272  1.1157
  790MOL0     H 6640   8.811  -0.470   3.511 -0.3007 -0.4365 -0.4725
  790MOL0     H 6641   8.767  -0.642   3.469 -3.4111  0.2851  0.6672
  790MOL0     H 6642   8.867  -0.459   3.253  1.6908 -0.3187  0.1846
  790MOL0     H 6643   8.867  -0.635   3.268  5.3565 -0.0987 -1.9984
  790MOL0     H 6644   9.031  -0.549   3.488  2.0244 -3.3701 -0.1774
  790MOL0     H 6645   9.087  -0.455   3.368  0.1968  0.4719  3.2970
  790MOL0     H 6646   9.217  -0.654   3.338 -0.1941 -0.3555  0.8167
  790MOL0     H 6647   9.088  -0.683   3.219 -0.9000  0.2229  0.1311
  790MOL0     H 6648   9.005  -0.970   3.530 -0.8379  0.4695  1.1414
  790MOL0     H 6649   8.827  -0.282   3.423  0.1143  2.2120 -1.9061
  790MOL0     H 6650   8.743  -0.056   3.438  1.1419 -1.2483 -0.1748
  791MOL0     O 6651  10.841   2.481   1.498  0.0890 -0.7814 -0.1462
  791MOL0     C 6652  10.883   2.464   1.383 -0.2497  0.4701 -1.5607
  791MOL0     O 6653  10.807   2.471   1.269  0.2414 -0.3955  0.6188
  791MOL0     C 6654  10.676   2.502   1.278  0.6497 -0.2542 -0.3275
  791MOL0     C 6655  10.616   2.589   1.182  0.4364  1.3299  0.4160
  791MOL0     C 6656  10.484   2.630   1.201 -0.4958 -0.3861  0.4249
  791MOL0     C 6657  10.399   2.574   1.300  0.3098  0.0149  0.4136
  791MOL0     O 6658  10.271   2.610   1.312 -0.0374 -0.4979 -0.0510
  791MOL0     C 6659  10.199   2.618   1.193  0.1892 -0.6382  0.4126
  791MOL0     C 6660  10.153   2.480   1.160 -0.0545 -0.2334  0.0860
  791MOL0     C 6661  10.072   2.406   1.263 -0.3517  0.2413 -0.2727
  791MOL0     C 6662  10.017   2.276   1.196  0.3913  0.2453  0.5683
  791MOL0     C 6663   9.889   2.220   1.261  0.2229 -0.0858  0.7855
  791MOL0     C 6664   9.824   2.100   1.196  0.6620  0.7492 -0.1250
  791MOL0     C 6665   9.696   2.061   1.281 -0.4567 -0.3301 -0.3655
  791MOL0     C 6666   9.657   1.920   1.270 -0.7970  0.1465  0.0796
  791MOL0     N 6667   9.527   1.898   1.205 -0.7661 -0.1688  0.2648
  791MOL0     C 6668   9.498   1.939   1.081  0.2336  0.1837 -0.0954
  791MOL0     C 6669   9.369   1.918   1.052  0.7176 -0.0247  0.8793
  791MOL0     C 6670   9.276   1.942   0.926  0.5494 -0.0684 -0.6292
  791MOL0     C 6671   9.185   2.079   0.949 -0.2751  0.2997  0.0109
  791MOL0     C 6672   9.286   2.202   0.955  0.2329  1.1559  0.1566
  791MOL0     C 6673   9.209   2.336   0.933  0.0104 -0.0715 -1.1063
  791MOL0     O 6674   9.299   2.446   0.951  0.5074  0.5614  0.5857
  791MOL0     C 6675   9.249   2.552   0.877  1.1597 -0.2191 -0.3146
  791MOL0     C 6676   9.344   2.644   0.822 -0.3034  0.0795 -0.5356
  791MOL0     C 6677   9.317   2.761   0.771  0.5725 -0.5358 -0.3358
  791MOL0     C 6678   9.443   2.852   0.769 -0.3026 -0.0178 -0.0835
  791MOL0     C 6679   9.183   2.802   0.759 -0.2010  0.8810 -0.2251
  791MOL0     C 6680   9.145   2.931   0.715  1.1910 -0.5671  0.0849
  791MOL0     O 6681   9.044   2.995   0.790  0.0421  0.5844 -0.4807
  791MOL0     C 6682   8.983   3.116   0.766  0.7298 -0.5926 -0.3109
  791MOL0     C 6683   8.896   3.167   0.869 -0.3408  0.4590 -0.0646
  791MOL0     C 6684   8.823   3.287   0.849 -0.9405 -0.1141 -0.8337
  791MOL0     C 6685   8.842   3.360   0.735 -1.0731 -0.6981  0.2457
  791MOL0     O 6686   8.780   3.478   0.723  0.3322  1.1569 -0.4351
  791MOL0     C 6687   8.721   3.509   0.590  0.3849  0.7297  0.0919
  791MOL0     C 6688   8.572   3.547   0.611 -0.1746 -0.1763  0.1400
  791MOL0     C 6689   8.499   3.609   0.493  0.8662  0.0543  1.1270
  791MOL0     C 6690   8.380   3.698   0.528  0.1241 -0.4130  0.3971
  791MOL0     C 6691   8.327   3.775   0.409  0.5835 -0.1586 -0.2906
  791MOL0     C 6692   8.285   3.685   0.297 -0.0622  0.7842 -0.4776
  791MOL0     C 6693   8.158   3.593   0.324 -0.7101  0.3462  0.4079
  791MOL0     C 6694   8.118   3.494   0.209  0.2155  1.2838 -0.0422
  791MOL0    Cl 6695   8.269   3.396   0.180 -0.0539  0.4522  0.1430
  791MOL0     C 6696   8.942   3.322   0.642  0.4364 -0.4560 -0.1254
  791MOL0     C 6697   9.005   3.200   0.653 -0.3633  0.0882 -0.2452
  791MOL0     O 6698   9.206   2.984   0.624  0.1617 -0.6370 -0.1066
  791MOL0     C 6699   9.080   2.714   0.791  0.1900  0.1837  0.0301
  791MOL0     C 6700   9.115   2.594   0.847  0.5071  0.6523 -0.2380
  791MOL0     N 6701   9.320   1.870   1.177 -0.0439 -0.9824  0.1801
  791MOL0     N 6702   9.414   1.857   1.264  0.1489  0.4350 -0.2982
  791MOL0     C 6703  10.454   2.479   1.380 -0.9599  0.0024 -0.2635
  791MOL0     C 6704  10.590   2.443   1.372  0.2566 -0.3024  0.7479
  791MOL0     C 6705  11.029   2.434   1.364 -1.2791 -0.2354 -0.6383
  791MOL0     C 6706  11.113   2.413   1.476  0.4315 -0.3813 -0.1974
  791MOL0     C 6707  11.250   2.418   1.457  0.2525 -0.4723 -0.4225
  791MOL0     C 6708  11.310   2.421   1.333  0.3119  0.5668 -0.2897
  791MOL0     O 6709  11.442   2.419   1.319 -0.0795  0.0466 -0.1227
  791MOL0     C 6710  11.518   2.321   1.398  0.3784  0.4737  0.9431
  791MOL0     C 6711  11.573   2.210   1.303  0.8575  2.1381 -0.5057
  791MOL0     C 6712  11.460   2.150   1.217 -0.4134 -0.4494  0.1577
  791MOL0     C 6713  11.488   2.020   1.129  0.2998  0.0114 -0.3519
  791MOL0     C 6714  11.568   2.064   1.021  1.0226 -0.0207 -0.2362
  791MOL0     C 6715  11.644   2.110   0.936  0.7534  0.7534 -0.3339
  791MOL0     C 6716  11.228   2.428   1.222 -0.6023  0.0271  0.4059
  791MOL0     C 6717  11.093   2.446   1.241  0.5164 -0.6398 -0.6056
  791MOL0     H 6718  10.681   2.632   1.106 -1.2839 -2.4593 -3.7065
  791MOL0     H 6719  10.446   2.712   1.140 -0.2994 -2.0370 -2.0456
  791MOL0     H 6720  10.114   2.683   1.213  0.3878 -0.7738  1.8552
  791MOL0     H 6721  10.258   2.653   1.108 -1.1795 -0.0719 -0.3163
  791MOL0     H 6722  10.084   2.501   1.078  1.3119  1.0977 -0.7915
  791MOL0     H 6723  10.242   2.426   1.127  0.3664  0.1625  0.5573
  791MOL0     H 6724  10.128   2.378   1.353  1.2752 -2.5738 -1.9852
  791MOL0     H 6725   9.990   2.472   1.291 -0.5066  0.2542 -0.7511
  791MOL0     H 6726  10.000   2.288   1.089  0.4305 -1.0302  0.4104
  791MOL0     H 6727  10.094   2.199   1.195  0.5555  0.4148 -0.3532
  791MOL0     H 6728   9.906   2.210   1.368 -1.5280  3.4183  1.5427
  791MOL0     H 6729   9.814   2.300   1.251  0.3803  0.0433  0.6229
  791MOL0     H 6730   9.792   2.120   1.094 -2.0923  1.2477  0.7490
  791MOL0     H 6731   9.894   2.018   1.179  0.3431  0.1849  1.1286
  791MOL0     H 6732   9.723   2.077   1.385  2.3796 -2.5429 -0.6511
  791MOL0     H 6733   9.614   2.131   1.257  1.1238  1.2140 -1.5330
  791MOL0     H 6734   9.663   1.882   1.373  1.0596  0.8831  0.2850
  791MOL0     H 6735   9.731   1.870   1.207 -0.5564  2.4887 -1.6052
  791MOL0     H 6736   9.569   1.986   1.014  1.3001  0.8098  1.4236
  791MOL0     H 6737   9.348   1.944   0.843  0.4698 -4.1528 -0.9566
  791MOL0     H 6738   9.212   1.854   0.921  0.1274  0.2289 -0.5390
  791MOL0     H 6739   9.118   2.074   1.034 -0.1526  0.3006  0.1074
  791MOL0     H 6740   9.121   2.087   0.861 -2.0266 -1.8226  0.9983
  791MOL0     H 6741   9.361   2.187   0.877 -0.0413  0.9411 -0.0696
  791MOL0     H 6742   9.338   2.211   1.050  0.4170 -2.3161  0.4989
  791MOL0     H 6743   9.129   2.349   1.007 -0.2064  2.0986 -1.6368
  791MOL0     H 6744   9.164   2.345   0.834  0.6088 -0.2406 -1.3920
  791MOL0     H 6745   9.446   2.614   0.845 -0.5208 -0.6193 -0.4508
  791MOL0     H 6746   9.532   2.804   0.812 -0.8089  0.7560  1.9398
  791MOL0     H 6747   9.468   2.894   0.671 -0.9940 -0.3640 -0.4195
  791MOL0     H 6748   9.429   2.938   0.835  0.0155  0.0191 -0.0619
  791MOL0     H 6749   8.878   3.098   0.951 -0.3919  1.2999  0.6470
  791MOL0     H 6750   8.750   3.327   0.919 -0.0223  1.6344 -0.8025
  791MOL0     H 6751   8.771   3.596   0.547  1.6356  1.1690  2.2887
  791MOL0     H 6752   8.726   3.425   0.520 -0.4171  0.2797  0.5539
  791MOL0     H 6753   8.509   3.466   0.648  1.3668 -0.8497  1.4212
  791MOL0     H 6754   8.572   3.619   0.693  0.7573 -1.7423  1.5819
  791MOL0     H 6755   8.470   3.521   0.434 -0.6591 -0.5374  2.6646
  791MOL0     H 6756   8.561   3.678   0.435 -2.2738  0.0905 -2.7048
  791MOL0     H 6757   8.297   3.636   0.562  0.5717 -2.0161 -1.2282
  791MOL0     H 6758   8.415   3.762   0.609  4.5842  0.1446 -1.6401
  791MOL0     H 6759   8.413   3.826   0.363  1.9102 -0.3131  1.8944
  791MOL0     H 6760   8.254   3.849   0.440  3.2992  1.7699  2.0008
  791MOL0     H 6761   8.254   3.746   0.212 -0.0780  3.1496  1.1013
  791MOL0     H 6762   8.372   3.624   0.273 -2.0010 -2.2525 -0.2448
  791MOL0     H 6763   8.066   3.649   0.343  0.2497  1.8020  1.0047
  791MOL0     H 6764   8.179   3.544   0.420 -3.3474  0.2606  1.0206
  791MOL0     H 6765   8.079   3.543   0.119 -0.1710  2.7495  0.8993
  791MOL0     H 6766   8.037   3.426   0.239  0.3572  2.3132  2.9127
  791MOL0     H 6767   8.943   3.391   0.558  0.2801 -0.7435 -0.3646
  791MOL0     H 6768   9.073   3.166   0.574  1.1705  0.4499  0.8735
  791MOL0     H 6769   8.977   2.747   0.788  0.1685  0.0942 -0.3835
  791MOL0     H 6770   9.037   2.531   0.889  2.5643 -0.8603  1.4694
  791MOL0     H 6771  10.384   2.428   1.446  0.1810 -2.4429 -0.8222
  791MOL0     H 6772  10.631   2.367   1.438 -0.2097  0.7893  2.3398
  791MOL0     H 6773  11.061   2.404   1.571 -1.5439  1.9012 -0.9675
  791MOL0     H 6774  11.314   2.393   1.542 -1.5126 -0.0645  1.0937
  791MOL0     H 6775  11.599   2.375   1.449  0.1489  0.9721  0.7864
  791MOL0     H 6776  11.472   2.274   1.485 -0.5416 -1.9736 -0.7463
  791MOL0     H 6777  11.606   2.121   1.357  0.4010  0.1350 -3.2932
  791MOL0     H 6778  11.657   2.238   1.239  0.8473  1.3668 -0.8812
  791MOL0     H 6779  11.421   2.228   1.151  0.8217 -0.6596 -0.8652
  791MOL0     H 6780  11.382   2.125   1.289 -0.9225 -0.1213 -0.2743
  791MOL0     H 6781  11.395   1.983   1.084  0.3210  0.4327 -0.7525
  791MOL0     H 6782  11.534   1.946   1.195 -0.9565  2.3315  3.4181
  791MOL0     H 6783  11.716   2.143   0.864  1.5770 -1.0252 -0.3823
  791MOL0     H 6784  11.273   2.432   1.123  1.6988 -0.3764  1.3756
  791MOL0     H 6785  11.029   2.475   1.159  0.9889  0.6830 -0.5362
  792MOL0     O 6786   5.641   9.014   5.698 -0.7527  0.0547 -0.1185
  792MOL0     C 6787   5.590   8.990   5.591 -0.2638  0.6165 -0.6191
  792MOL0     O 6788   5.457   8.958   5.566  0.5392  0.3314 -0.7924
  792MOL0     C 6789   5.362   8.936   5.661 -0.0897  0.4836  0.0901
  792MOL0     C 6790   5.259   8.859   5.612 -0.7601 -0.0553 -0.8687
  792MOL0     C 6791   5.164   8.829   5.715  0.4781  1.3696  0.9970
  792MOL0     C 6792   5.167   8.857   5.851 -1.1988 -0.7414 -1.2918
  792MOL0     O 6793   5.080   8.815   5.954 -0.3181 -0.5101 -0.3429
  792MOL0     C 6794   4.943   8.862   5.939 -0.1822 -0.3676  0.3513
  792MOL0     C 6795   4.922   9.008   5.921  0.2560 -0.5312 -0.0287
  792MOL0     C 6796   4.773   9.043   5.923  0.2078  0.1785  0.4700
  792MOL0     C 6797   4.726   9.046   5.779  1.2121 -0.1641  0.3597
  792MOL0     C 6798   4.577   9.060   5.759  0.6484  0.0707 -0.3148
  792MOL0     C 6799   4.550   9.107   5.623 -0.8980 -0.2481 -0.1129
  792MOL0     C 6800   4.405   9.116   5.588 -0.4036 -0.0208  0.5765
  792MOL0     C 6801   4.368   9.033   5.462 -0.4923  0.3177  0.2488
  792MOL0     N 6802   4.275   9.108   5.381 -0.5580 -0.7091  0.0456
  792MOL0     C 6803   4.318   9.195   5.280  0.9646  0.1423  0.2371
  792MOL0     C 6804   4.189   9.243   5.241  0.5140  0.8367  0.3743
  792MOL0     C 6805   4.170   9.328   5.123 -0.4100  0.1145 -0.2540
  792MOL0     C 6806   4.150   9.468   5.167  0.5149 -1.0657 -0.2263
  792MOL0     C 6807   4.077   9.550   5.051  0.4735  0.8276 -0.5007
  792MOL0     C 6808   4.054   9.691   5.112  0.3238  0.4787 -0.8367
  792MOL0     O 6809   4.117   9.791   5.027  0.4066  0.3229 -0.1889
  792MOL0     C 6810   4.038   9.861   4.943  0.1246  0.3644 -0.5506
  792MOL0     C 6811   3.931   9.811   4.865 -0.8065  0.3463  0.2690
  792MOL0     C 6812   3.858   9.901   4.776 -0.7492  0.7036 -0.7122
  792MOL0     C 6813   3.761   9.847   4.671 -1.3469  0.8490 -0.8341
  792MOL0     C 6814   3.884  10.045   4.781  0.0368  0.0624  0.1978
  792MOL0     C 6815   3.809  10.140   4.696 -0.2682  0.0837 -1.1253
  792MOL0     O 6816   3.880  10.239   4.637  0.0688 -0.4302  0.6110
  792MOL0     C 6817   3.820  10.352   4.583  0.2312 -0.1728 -0.4148
  792MOL0     C 6818   3.703  10.343   4.503 -0.2299  0.0231  0.4185
  792MOL0     C 6819   3.641  10.465   4.463 -0.4351 -0.6206 -0.8514
  792MOL0     C 6820   3.685  10.596   4.496 -0.6497  0.4754 -0.3510
  792MOL0     O 6821   3.631  10.701   4.427 -0.6784  0.0379  0.5087
  792MOL0     C 6822   3.697  10.831   4.447 -0.2245  0.9529  0.4908
  792MOL0     C 6823   3.671  10.913   4.582  0.2057 -0.0214  0.7748
  792MOL0     C 6824   3.715  11.053   4.582  0.1047 -1.3974  0.7984
  792MOL0     C 6825   3.687  11.112   4.714  0.1181  0.2015  0.3530
  792MOL0     C 6826   3.773  11.239   4.760  0.6181  0.5096  0.1459
  792MOL0     C 6827   3.722  11.372   4.715  0.3791  0.5196 -0.0083
  792MOL0     C 6828   3.796  11.494   4.772 -0.2045 -0.9270  0.5248
  792MOL0     C 6829   3.730  11.634   4.726  0.1728  1.0306 -0.7313
  792MOL0    Cl 6830   3.738  11.647   4.556  0.1514  0.9615  0.2296
  792MOL0     C 6831   3.802  10.595   4.577  0.2696  0.0611 -0.4355
  792MOL0     C 6832   3.855  10.478   4.623  0.3081  0.3103 -0.6594
  792MOL0     O 6833   3.687  10.137   4.695  0.3695  0.3617  0.1312
  792MOL0     C 6834   3.987  10.093   4.861 -0.6650  0.3204 -0.0597
  792MOL0     C 6835   4.061  10.005   4.942 -0.3691  0.9148 -0.1547
  792MOL0     N 6836   4.087   9.189   5.322 -0.4418 -0.0703  1.0820
  792MOL0     N 6837   4.146   9.118   5.412  1.1441 -0.2185  0.1432
  792MOL0     C 6838   5.267   8.940   5.887 -0.4598  0.1912 -0.5042
  792MOL0     C 6839   5.363   8.975   5.798  0.3033 -0.1258 -0.4630
  792MOL0     C 6840   5.674   8.983   5.473 -0.2961 -0.0115  0.0243
  792MOL0     C 6841   5.811   9.014   5.477  0.5217  0.1346  0.3342
  792MOL0     C 6842   5.894   8.991   5.364 -0.1522 -1.3131 -0.8247
  792MOL0     C 6843   5.849   8.930   5.250  1.5156  0.5874 -0.4919
  792MOL0     O 6844   5.947   8.902   5.158  0.1969 -0.0216 -0.3357
  792MOL0     C 6845   5.916   8.835   5.040  0.4451  0.0654  0.1304
  792MOL0     C 6846   6.022   8.840   4.932 -0.0343 -0.5131 -0.0268
  792MOL0     C 6847   6.157   8.760   4.966  0.5668 -0.6170  0.5022
  792MOL0     C 6848   6.242   8.722   4.847 -0.0872  0.0375 -1.0382
  792MOL0     C 6849   6.329   8.611   4.891 -0.6903  0.3284 -0.1802
  792MOL0     C 6850   6.411   8.530   4.930  0.0487  0.2792 -0.0420
  792MOL0     C 6851   5.715   8.897   5.242  0.6107  0.4943 -0.3136
  792MOL0     C 6852   5.632   8.925   5.352 -0.1168  0.3471  0.3579
  792MOL0     H 6853   5.253   8.833   5.506  3.1661  1.7396 -1.6993
  792MOL0     H 6854   5.084   8.761   5.686 -0.7186  3.1759 -0.1373
  792MOL0     H 6855   4.899   8.810   5.854 -0.6019  2.5706 -1.3657
  792MOL0     H 6856   4.879   8.839   6.025 -0.8839  0.1154 -0.0273
  792MOL0     H 6857   4.970   9.064   6.002 -0.0679 -0.1488 -0.0938
  792MOL0     H 6858   4.962   9.048   5.827  0.8859 -0.9124  0.0749
  792MOL0     H 6859   4.710   8.973   5.978  1.0478  0.9686  2.5354
  792MOL0     H 6860   4.761   9.144   5.964 -2.9630  1.1350 -2.3111
  792MOL0     H 6861   4.767   9.137   5.735 -2.8531  1.2551 -0.8968
  792MOL0     H 6862   4.769   8.969   5.713 -2.4082  0.6642 -3.3939
  792MOL0     H 6863   4.522   8.967   5.775 -1.1080  1.2767  1.0914
  792MOL0     H 6864   4.535   9.133   5.830  1.2118 -0.2689  0.3801
  792MOL0     H 6865   4.590   9.208   5.610  0.7431 -0.5896  1.7676
  792MOL0     H 6866   4.594   9.033   5.556 -3.4020 -0.8828 -1.1585
  792MOL0     H 6867   4.357   9.064   5.672  1.4189  1.0785  2.3886
  792MOL0     H 6868   4.370   9.220   5.583 -0.0382  0.0402 -1.9110
  792MOL0     H 6869   4.307   8.945   5.482  2.3423 -3.1424 -4.3122
  792MOL0     H 6870   4.453   8.991   5.407 -0.0011 -0.3521  1.4925
  792MOL0     H 6871   4.420   9.207   5.246  0.2915  1.4310 -1.3997
  792MOL0     H 6872   4.257   9.326   5.056 -1.2661 -1.3849 -1.3617
  792MOL0     H 6873   4.082   9.289   5.071 -1.9117  0.3847  1.9752
  792MOL0     H 6874   4.236   9.520   5.210 -1.0100  0.2536  1.3951
  792MOL0     H 6875   4.084   9.468   5.255  1.7881  3.1710  1.0110
  792MOL0     H 6876   3.980   9.504   5.030  0.7758  0.1775 -0.5297
  792MOL0     H 6877   4.142   9.562   4.964  0.9962  0.1293 -0.2234
  792MOL0     H 6878   4.104   9.715   5.206  2.8501  1.5264 -2.3422
  792MOL0     H 6879   3.949   9.710   5.135  0.9730  1.8325  1.2809
  792MOL0     H 6880   3.902   9.710   4.840  2.1546 -0.1489 -1.6303
  792MOL0     H 6881   3.749   9.903   4.578 -0.3901  0.7600 -1.0213
  792MOL0     H 6882   3.787   9.746   4.637 -0.4945  0.2837  1.3118
  792MOL0     H 6883   3.665   9.847   4.722 -0.6613  2.5379  0.5615
  792MOL0     H 6884   3.658  10.252   4.465  0.5707 -0.3356  0.3001
  792MOL0     H 6885   3.561  10.460   4.390  0.1240 -2.3609 -1.4114
  792MOL0     H 6886   3.805  10.822   4.429 -0.4222  1.7516 -1.3200
  792MOL0     H 6887   3.649  10.885   4.364  1.2219 -1.9726 -2.5037
  792MOL0     H 6888   3.562  10.916   4.590  0.2603  3.2864  1.7336
  792MOL0     H 6889   3.714  10.856   4.665  0.5162 -0.3758  0.3756
  792MOL0     H 6890   3.674  11.114   4.501  1.1517 -1.7619 -0.0255
  792MOL0     H 6891   3.823  11.061   4.562  0.0135  3.0379  0.9491
  792MOL0     H 6892   3.585  11.150   4.716  0.0352  0.4884 -3.2181
  792MOL0     H 6893   3.703  11.038   4.793  2.2747 -0.1875 -0.3799
  792MOL0     H 6894   3.875  11.224   4.724  0.7301 -1.4457  1.1538
  792MOL0     H 6895   3.760  11.236   4.868  0.5494  0.6519  0.1425
  792MOL0     H 6896   3.719  11.380   4.606 -0.2278  1.3586  0.0610
  792MOL0     H 6897   3.616  11.381   4.741 -0.1779  2.2843 -2.4420
  792MOL0     H 6898   3.903  11.495   4.752  0.1730  1.1742  2.2838
  792MOL0     H 6899   3.798  11.499   4.881  2.8970  1.1346  0.4989
  792MOL0     H 6900   3.782  11.716   4.776 -0.1825 -0.6282  2.6617
  792MOL0     H 6901   3.623  11.635   4.745 -0.0188  0.1446 -1.6494
  792MOL0     H 6902   3.849  10.687   4.611  3.1559 -0.8845 -1.6145
  792MOL0     H 6903   3.933  10.498   4.696  1.2370  4.0113 -2.4244
  792MOL0     H 6904   4.003  10.200   4.865  0.3657  0.1397  2.3706
  792MOL0     H 6905   4.141  10.042   5.006  0.4717 -1.4909  0.2879
  792MOL0     H 6906   5.277   8.965   5.993  2.7447  1.2744 -0.9496
  792MOL0     H 6907   5.447   9.038   5.828 -1.3694  1.1717  1.8461
  792MOL0     H 6908   5.866   9.044   5.566 -0.7075  0.8132  0.8967
  792MOL0     H 6909   6.000   9.014   5.362  0.1700 -2.6137  0.2162
  792MOL0     H 6910   5.912   8.729   5.067 -3.8915  0.0682  0.0840
  792MOL0     H 6911   5.816   8.865   5.008  0.9082  1.9221  0.3323
  792MOL0     H 6912   6.054   8.943   4.910  3.0949 -1.8927 -2.9589
  792MOL0     H 6913   5.996   8.799   4.834  0.8253  3.1689 -2.0143
  792MOL0     H 6914   6.140   8.662   5.012  0.3612 -0.7810  0.0855
  792MOL0     H 6915   6.221   8.814   5.036  2.2399 -2.8323  0.7992
  792MOL0     H 6916   6.291   8.811   4.808  0.0869 -1.0857 -3.6440
  792MOL0     H 6917   6.183   8.686   4.762 -1.6965 -0.1445  0.1115
  792MOL0     H 6918   6.464   8.441   4.954  2.2291  1.8426  1.2294
  792MOL0     H 6919   5.679   8.846   5.153  3.4362 -0.6801 -0.9019
  792MOL0     H 6920   5.528   8.902   5.332  0.1740  0.3902 -1.3664
  793MOL0     O 6921   0.415   6.117   2.546  0.3330 -0.0237  0.5679
  793MOL0     C 6922   0.388   6.012   2.588  0.5713  0.4616 -0.5223
  793MOL0     O 6923   0.262   5.955   2.582  0.8159  0.0538  0.2179
  793MOL0     C 6924   0.175   6.012   2.493 -0.8029 -1.0661  0.2271
  793MOL0     C 6925   0.213   6.048   2.362 -0.4754 -0.2981  0.1695
  793MOL0     C 6926   0.115   6.096   2.270 -0.1921 -0.1981 -0.0336
  793MOL0     C 6927  -0.022   6.102   2.314 -0.0727  0.4608  0.9651
  793MOL0     O 6928  -0.106   6.155   2.230 -0.1531 -0.7505 -0.2682
  793MOL0     C 6929  -0.190   6.264   2.281  1.0742 -0.3759 -0.5665
  793MOL0     C 6930  -0.106   6.367   2.347 -1.2598 -0.2482  0.6545
  793MOL0     C 6931  -0.185   6.497   2.369  0.3450 -0.3429 -0.4091
  793MOL0     C 6932  -0.253   6.493   2.500 -0.2018 -0.2392 -0.5435
  793MOL0     C 6933  -0.305   6.637   2.509  0.6077 -0.9390 -0.7298
  793MOL0     C 6934  -0.399   6.647   2.631 -0.4355 -0.4306  0.2924
  793MOL0     C 6935  -0.471   6.787   2.621  0.3947  0.7672 -0.4242
  793MOL0     C 6936  -0.599   6.802   2.704 -0.4545  0.2882  0.8018
  793MOL0     N 6937  -0.715   6.737   2.642  0.6023  0.1970  0.2091
  793MOL0     C 6938  -0.827   6.801   2.593 -0.3552  0.3426  0.2811
  793MOL0     C 6939  -0.904   6.704   2.543  0.2376  0.3937 -0.5508
  793MOL0     C 6940  -1.030   6.728   2.462  0.2280 -0.1864 -0.3795
  793MOL0     C 6941  -1.152   6.697   2.548 -0.5175  0.0887  0.1923
  793MOL0     C 6942  -1.277   6.758   2.490  0.4836 -0.1239 -0.1304
  793MOL0     C 6943  -1.391   6.795   2.582  0.5998 -0.3234  0.0618
  793MOL0     O 6944  -1.503   6.831   2.496  0.8635  0.4710 -0.3808
  793MOL0     C 6945  -1.634   6.838   2.548 -0.4340 -0.3959  0.0250
  793MOL0     C 6946  -1.734   6.886   2.469 -0.4329  0.3160  0.6759
  793MOL0     C 6947  -1.867   6.900   2.503  0.6098 -0.1866 -0.3486
  793MOL0     C 6948  -1.964   6.931   2.391  0.2376 -0.3659 -0.2169
  793MOL0     C 6949  -1.899   6.850   2.634 -0.2543 -0.6202  0.2383
  793MOL0     C 6950  -2.041   6.851   2.677  0.1719  0.4549 -0.1421
  793MOL0     O 6951  -2.061   6.791   2.791  0.0627 -0.4449 -0.0880
  793MOL0     C 6952  -2.186   6.747   2.843  0.4807 -0.9116  1.3260
  793MOL0     C 6953  -2.284   6.681   2.765 -0.5501 -0.8998 -0.3853
  793MOL0     C 6954  -2.403   6.639   2.827  0.0510 -0.0768 -0.6955
  793MOL0     C 6955  -2.426   6.661   2.969 -0.4580  0.4986  0.1348
  793MOL0     O 6956  -2.536   6.623   3.041 -0.4560 -0.3009  0.9276
  793MOL0     C 6957  -2.660   6.633   2.984  0.5511 -0.4027 -0.4080
  793MOL0     C 6958  -2.720   6.779   3.009 -0.4894  0.6017  0.0809
  793MOL0     C 6959  -2.778   6.788   3.143  0.0193  0.0695 -0.3058
  793MOL0     C 6960  -2.819   6.934   3.155  0.1697  0.8790 -0.5257
  793MOL0     C 6961  -2.903   6.958   3.284 -0.1758 -0.6798 -0.3965
  793MOL0     C 6962  -3.042   6.910   3.260 -0.5906  0.7101 -0.4065
  793MOL0     C 6963  -3.116   6.902   3.390  1.0943 -0.8179 -0.6552
  793MOL0     C 6964  -3.134   7.039   3.466  1.1750 -0.2111  1.0403
  793MOL0    Cl 6965  -3.202   7.022   3.628 -0.0501  0.4448  0.6847
  793MOL0     C 6966  -2.327   6.731   3.040 -0.5980 -0.1872  0.6318
  793MOL0     C 6967  -2.208   6.768   2.975 -0.3647 -0.4547  0.7189
  793MOL0     O 6968  -2.130   6.909   2.613  0.2896 -0.0982 -0.1176
  793MOL0     C 6969  -1.792   6.823   2.734  0.0612  0.1564  0.1268
  793MOL0     C 6970  -1.659   6.823   2.686  0.3636  0.7910  0.5560
  793MOL0     N 6971  -0.856   6.576   2.592 -0.5185 -0.1313  0.9271
  793MOL0     N 6972  -0.734   6.598   2.639 -0.3040 -0.5308  0.1695
  793MOL0     C 6973  -0.056   6.065   2.442 -0.1127  0.4023  0.3640
  793MOL0     C 6974   0.036   6.014   2.528 -0.6262 -0.3142 -0.2749
  793MOL0     C 6975   0.494   5.932   2.657  0.2977 -0.1327  0.7063
  793MOL0     C 6976   0.463   5.815   2.728 -0.9311  0.1193  0.5244
  793MOL0     C 6977   0.572   5.739   2.782  1.1909  0.5734  0.3895
  793MOL0     C 6978   0.700   5.780   2.782 -0.4619  0.1430 -0.1597
  793MOL0     O 6979   0.813   5.715   2.830 -0.3673 -0.4708  0.3373
  793MOL0     C 6980   0.799   5.662   2.971  0.0938 -0.4094  1.3769
  793MOL0     C 6981   0.921   5.624   3.037 -0.3143  1.1506  0.2181
  793MOL0     C 6982   0.972   5.504   2.959  0.4535 -0.2290 -0.4666
  793MOL0     C 6983   0.876   5.386   2.945 -0.5984  0.5369 -0.4991
  793MOL0     C 6984   0.809   5.353   3.078 -0.3935 -0.8610 -1.2896
  793MOL0     C 6985   0.765   5.323   3.188 -0.9691 -0.0862 -0.8791
  793MOL0     C 6986   0.724   5.896   2.717 -0.5469  0.0152  0.1086
  793MOL0     C 6987   0.627   5.979   2.660 -0.7240  0.5790  0.7055
  793MOL0     H 6988   0.317   6.046   2.330 -0.3125 -1.7452  0.7087
  793MOL0     H 6989   0.134   6.144   2.175 -3.2147  0.2765 -0.5069
  793MOL0     H 6990  -0.243   6.310   2.197 -1.1889  1.4173  1.6814
  793MOL0     H 6991  -0.271   6.230   2.346  0.5503 -0.7517 -1.4150
  793MOL0     H 6992  -0.058   6.334   2.440  0.7972 -1.9986 -0.9140
  793MOL0     H 6993  -0.026   6.380   2.274 -1.7096 -1.1253 -0.0105
  793MOL0     H 6994  -0.114   6.578   2.346 -0.5473  0.1647 -1.4535
  793MOL0     H 6995  -0.269   6.508   2.299  0.3323  3.9585 -0.0002
  793MOL0     H 6996  -0.337   6.423   2.497 -1.0606  0.7520 -0.0046
  793MOL0     H 6997  -0.176   6.463   2.572  0.2737 -0.0887 -0.9807
  793MOL0     H 6998  -0.226   6.710   2.527 -1.3533  0.7902  1.4896
  793MOL0     H 6999  -0.349   6.675   2.417  0.0566 -0.1265 -0.1458
  793MOL0     H 7000  -0.468   6.562   2.634 -2.6511  1.2786  1.4078
  793MOL0     H 7001  -0.336   6.645   2.721 -0.9890 -1.0730  0.6746
  793MOL0     H 7002  -0.393   6.855   2.659  0.4647 -0.5563  1.9584
  793MOL0     H 7003  -0.493   6.813   2.517 -0.9958  0.0895 -0.3106
  793MOL0     H 7004  -0.625   6.908   2.701  0.0965  0.4242  0.7433
  793MOL0     H 7005  -0.578   6.775   2.808  3.4497 -1.0779 -0.1925
  793MOL0     H 7006  -0.837   6.908   2.583  0.2947  0.2777 -1.3847
  793MOL0     H 7007  -1.040   6.828   2.419  0.8352 -0.6183 -1.5996
  793MOL0     H 7008  -1.024   6.662   2.375 -0.3304 -1.4182  0.4843
  793MOL0     H 7009  -1.128   6.747   2.642  1.8817 -0.3309 -0.1306
  793MOL0     H 7010  -1.175   6.592   2.568 -1.7871 -0.0413 -1.6481
  793MOL0     H 7011  -1.328   6.687   2.423  0.5981 -2.4677  2.1151
  793MOL0     H 7012  -1.247   6.846   2.433  0.7862 -0.5199 -0.5932
  793MOL0     H 7013  -1.361   6.866   2.660  3.9718 -0.4447 -0.9823
  793MOL0     H 7014  -1.399   6.701   2.638  0.4582  0.0219  0.6259
  793MOL0     H 7015  -1.693   6.897   2.369  0.5328  0.3587  1.0646
  793MOL0     H 7016  -2.030   6.847   2.368  1.7235 -1.5408 -0.3977
  793MOL0     H 7017  -2.033   7.013   2.414  0.4335 -1.0558  3.3438
  793MOL0     H 7018  -1.915   6.955   2.296  0.8558  2.7289  0.7702
  793MOL0     H 7019  -2.247   6.654   2.667  1.7080 -1.4823  0.5508
  793MOL0     H 7020  -2.475   6.580   2.772  2.6631 -3.6242 -0.6191
  793MOL0     H 7021  -2.673   6.602   2.880 -3.7041  1.3765 -0.5939
  793MOL0     H 7022  -2.712   6.557   3.042  0.4475 -0.1311 -0.1400
  793MOL0     H 7023  -2.639   6.849   2.984 -0.8350  0.9150 -0.1707
  793MOL0     H 7024  -2.791   6.795   2.928  0.9970  0.0325 -1.4046
  793MOL0     H 7025  -2.706   6.785   3.225  1.5944 -0.2642 -1.6519
  793MOL0     H 7026  -2.865   6.725   3.166 -1.6847  1.7355 -1.7608
  793MOL0     H 7027  -2.740   7.010   3.157  0.7059  0.3651 -1.4377
  793MOL0     H 7028  -2.890   6.953   3.074 -0.3655 -0.6854 -0.4531
  793MOL0     H 7029  -2.905   7.065   3.306 -0.8450 -0.8135  0.2322
  793MOL0     H 7030  -2.849   6.910   3.366  2.4695 -0.4095 -1.8718
  793MOL0     H 7031  -3.086   6.983   3.190 -2.7277  0.0775  0.1918
  793MOL0     H 7032  -3.054   6.820   3.199 -0.5053  1.4641 -1.5725
  793MOL0     H 7033  -3.077   6.830   3.462  1.6899  0.6195  0.5303
  793MOL0     H 7034  -3.217   6.869   3.363  0.8068  0.0363 -0.6501
  793MOL0     H 7035  -3.197   7.113   3.415  0.1659  0.6537  3.3789
  793MOL0     H 7036  -3.037   7.084   3.488  3.0329 -1.9974 -2.5693
  793MOL0     H 7037  -2.344   6.761   3.143 -0.1676  1.7710  0.1870
  793MOL0     H 7038  -2.135   6.838   3.015 -3.1155  1.0194  3.5585
  793MOL0     H 7039  -1.822   6.802   2.836 -2.2562  2.6233  0.0773
  793MOL0     H 7040  -1.584   6.783   2.754  0.7640  2.5013  1.1545
  793MOL0     H 7041  -0.159   6.078   2.475  0.1802  0.4617  1.2729
  793MOL0     H 7042  -0.002   5.991   2.628 -1.1795 -1.4262 -0.7180
  793MOL0     H 7043   0.360   5.780   2.731 -1.2878  1.1613  1.4878
  793MOL0     H 7044   0.552   5.646   2.836  1.1689  0.3828  0.0559
  793MOL0     H 7045   0.753   5.740   3.032  0.4380 -0.9772  2.3780
  793MOL0     H 7046   0.723   5.584   2.970 -0.5126  0.0131 -2.6999
  793MOL0     H 7047   0.900   5.592   3.140  1.3339  0.8292  0.4943
  793MOL0     H 7048   0.986   5.712   3.043 -2.6650  2.9006  2.8593
  793MOL0     H 7049   1.061   5.467   3.011 -0.5691 -0.5619  1.0985
  793MOL0     H 7050   0.998   5.548   2.862  1.3617 -1.0191 -0.5929
  793MOL0     H 7051   0.930   5.299   2.907  2.5695  0.8070  2.8157
  793MOL0     H 7052   0.806   5.412   2.865  1.8883 -0.4161 -3.1878
  793MOL0     H 7053   0.738   5.287   3.286  0.5643 -1.0801 -0.7950
  793MOL0     H 7054   0.826   5.935   2.709 -0.3890 -0.1978  1.0259
  793MOL0     H 7055   0.653   6.068   2.605  0.6339 -0.9922 -1.3452
  794MOL0     O 7056   3.677   0.018   6.134 -0.3607  0.0389 -0.9672
  794MOL0     C 7057   3.584   0.094   6.171 -0.3996 -0.3110 -0.4255
  794MOL0     O 7058   3.602   0.218   6.220 -0.3940 -0.0542 -0.3007
  794MOL0     C 7059   3.721   0.289   6.210 -0.1740 -1.1316  0.0811
  794MOL0     C 7060   3.848   0.241   6.235  0.6474 -0.2075  0.7030
  794MOL0     C 7061   3.956   0.326   6.208  0.2717 -0.5513 -0.1683
  794MOL0     C 7062   3.944   0.461   6.175  0.9400  0.2179 -0.0267
  794MOL0     O 7063   4.060   0.526   6.165 -0.4343  0.2511  0.1188
  794MOL0     C 7064   4.061   0.656   6.107  0.0781 -0.3579  0.3446
  794MOL0     C 7065   4.204   0.706   6.073  0.7049  0.4754 -0.0907
  794MOL0     C 7066   4.224   0.848   6.109  0.2503 -0.6737  0.0115
  794MOL0     C 7067   4.151   0.940   6.001 -0.4165 -0.1205  0.6824
  794MOL0     C 7068   4.166   1.099   6.021  0.1482  0.1199 -0.5684
  794MOL0     C 7069   4.062   1.172   5.931 -0.1054 -1.1269 -0.1086
  794MOL0     C 7070   4.064   1.324   5.927 -0.3624  0.7183 -0.5424
  794MOL0     C 7071   4.003   1.382   5.799 -0.2691 -0.1018  0.3849
  794MOL0     N 7072   3.857   1.384   5.796  0.2036 -0.6785  0.7911
  794MOL0     C 7073   3.765   1.429   5.891  0.3369  0.0729 -0.5769
  794MOL0     C 7074   3.656   1.457   5.820  0.7109  0.2409 -0.1263
  794MOL0     C 7075   3.511   1.466   5.876  0.7767 -0.3430  0.0676
  794MOL0     C 7076   3.461   1.325   5.905  1.0553 -0.2863 -0.0117
  794MOL0     C 7077   3.328   1.341   5.965 -0.4542  0.2051  0.7361
  794MOL0     C 7078   3.325   1.315   6.115 -0.5301 -0.3544 -0.6576
  794MOL0     O 7079   3.380   1.425   6.188 -0.0475  0.5761  0.0565
  794MOL0     C 7080   3.347   1.423   6.317 -0.6869  0.7166  0.9075
  794MOL0     C 7081   3.312   1.318   6.396  0.9768 -0.4042  0.1279
  794MOL0     C 7082   3.269   1.333   6.528 -0.0701 -0.0623  0.3694
  794MOL0     C 7083   3.214   1.211   6.598 -0.7449 -0.4332  0.6906
  794MOL0     C 7084   3.249   1.469   6.584 -0.4678 -0.0614 -0.3810
  794MOL0     C 7085   3.191   1.499   6.718  0.7234  0.0772 -0.2245
  794MOL0     O 7086   3.167   1.400   6.810 -0.4485 -0.5449  0.1185
  794MOL0     C 7087   3.110   1.429   6.929  1.1800 -0.1699 -0.0567
  794MOL0     C 7088   3.154   1.524   7.025 -0.6621  0.3237 -0.2366
  794MOL0     C 7089   3.111   1.527   7.157  0.2389  0.9409 -1.0085
  794MOL0     C 7090   3.002   1.450   7.197  0.2834  0.8858  0.4689
  794MOL0     O 7091   2.942   1.445   7.320 -0.5700  0.1855  0.0608
  794MOL0     C 7092   2.873   1.559   7.366  0.7932 -0.6403  1.0120
  794MOL0     C 7093   2.960   1.670   7.422 -0.1684  0.4999 -0.0068
  794MOL0     C 7094   3.033   1.623   7.545 -0.2549  0.0456 -0.9733
  794MOL0     C 7095   3.099   1.737   7.619  0.1193  0.1144 -0.3884
  794MOL0     C 7096   3.010   1.816   7.707  0.7723  0.5999  0.6234
  794MOL0     C 7097   3.066   1.908   7.811  0.5481  0.2248  0.9442
  794MOL0     C 7098   3.135   1.834   7.927 -0.0025 -0.3881  0.3795
  794MOL0     C 7099   3.117   1.917   8.062  0.2478  0.7147  1.7066
  794MOL0    Cl 7100   3.162   2.092   8.049  0.1318  0.1296 -0.2378
  794MOL0     C 7101   2.965   1.345   7.105 -0.6819 -0.4844  0.3948
  794MOL0     C 7102   3.013   1.346   6.973 -0.5113  0.4938  0.1043
  794MOL0     O 7103   3.175   1.621   6.741  0.3451  0.6774  0.5742
  794MOL0     C 7104   3.299   1.577   6.502 -0.0896 -0.1791 -0.1288
  794MOL0     C 7105   3.346   1.548   6.375  0.4517  0.6885 -0.7479
  794MOL0     N 7106   3.681   1.426   5.681 -0.5713 -0.3639  0.1270
  794MOL0     N 7107   3.797   1.370   5.676  0.8860 -0.2970  0.9534
  794MOL0     C 7108   3.810   0.509   6.152 -0.1930 -0.6111  0.2180
  794MOL0     C 7109   3.707   0.422   6.163 -0.1855  0.1578  1.2937
  794MOL0     C 7110   3.451   0.031   6.179  0.4819 -0.0441  1.1644
  794MOL0     C 7111   3.433  -0.104   6.159 -0.2633 -0.0382 -0.3746
  794MOL0     C 7112   3.302  -0.159   6.175  0.0737 -0.2217  0.0380
  794MOL0     C 7113   3.191  -0.080   6.198 -0.4696 -0.2324  0.1260
  794MOL0     O 7114   3.069  -0.144   6.203 -0.6580  0.0143 -0.0587
  794MOL0     C 7115   2.966  -0.071   6.272  0.5452  0.9548  0.8452
  794MOL0     C 7116   2.851  -0.165   6.322 -0.1684  0.2693 -0.4046
  794MOL0     C 7117   2.880  -0.282   6.423 -0.7937 -0.3217 -0.3595
  794MOL0     C 7118   2.946  -0.399   6.348 -0.1314 -0.4689  0.2195
  794MOL0     C 7119   3.030  -0.470   6.443 -0.4599 -0.2944 -0.0215
  794MOL0     C 7120   3.104  -0.536   6.517 -0.3466  0.4295 -0.0515
  794MOL0     C 7121   3.215   0.055   6.206 -0.6709  0.4801  0.5861
  794MOL0     C 7122   3.343   0.115   6.203  0.3583 -0.1958 -0.8157
  794MOL0     H 7123   3.866   0.139   6.270  4.9971  0.6032  1.4089
  794MOL0     H 7124   4.055   0.283   6.209  0.3587 -0.4019  1.7698
  794MOL0     H 7125   4.001   0.657   6.016  1.1918  1.3934 -0.4411
  794MOL0     H 7126   4.017   0.730   6.174 -2.7791 -0.6900 -1.0048
  794MOL0     H 7127   4.280   0.655   6.133 -1.0380  2.7610  4.6507
  794MOL0     H 7128   4.223   0.691   5.967 -1.1923 -0.6183 -0.3271
  794MOL0     H 7129   4.188   0.884   6.206  1.8066  0.3186  0.2454
  794MOL0     H 7130   4.326   0.886   6.122 -0.8601  1.7272  3.0046
  794MOL0     H 7131   4.197   0.911   5.906  2.3586 -2.6721  2.6263
  794MOL0     H 7132   4.044   0.918   6.000 -0.6285  0.7512  1.7348
  794MOL0     H 7133   4.138   1.118   6.125 -1.4966 -1.8575 -0.5922
  794MOL0     H 7134   4.263   1.146   6.001 -0.1437  1.4741  0.9739
  794MOL0     H 7135   4.056   1.133   5.829 -4.1658  2.8732 -1.7196
  794MOL0     H 7136   3.962   1.155   5.971  0.7678 -2.5032  1.6624
  794MOL0     H 7137   4.023   1.361   6.022  0.9778  0.1784  0.2663
  794MOL0     H 7138   4.161   1.369   5.948  0.1601  0.4390 -2.2151
  794MOL0     H 7139   4.045   1.324   5.716 -0.5983  1.8282 -1.1990
  794MOL0     H 7140   4.035   1.485   5.783  2.2571 -0.9624 -0.5217
  794MOL0     H 7141   3.781   1.424   5.999 -0.9211 -1.4727 -0.4291
  794MOL0     H 7142   3.505   1.532   5.963 -1.2271 -0.1126 -0.1952
  794MOL0     H 7143   3.453   1.507   5.793  1.4572 -2.1095 -1.3301
  794MOL0     H 7144   3.520   1.261   5.971 -0.2319 -1.8483 -0.3398
  794MOL0     H 7145   3.466   1.276   5.807  1.7575  1.6142 -1.0012
  794MOL0     H 7146   3.251   1.279   5.917  1.2598 -0.6495 -1.0591
  794MOL0     H 7147   3.293   1.443   5.946 -3.1840 -0.3715  2.1464
  794MOL0     H 7148   3.369   1.216   6.131 -1.3133 -0.9609 -2.0489
  794MOL0     H 7149   3.220   1.301   6.141  0.0252 -2.5217  0.7021
  794MOL0     H 7150   3.330   1.222   6.347  2.3167  1.4310 -3.3209
  794MOL0     H 7151   3.271   1.203   6.691  1.3677  1.0058 -0.3977
  794MOL0     H 7152   3.107   1.228   6.617 -0.6055 -1.0940  2.1870
  794MOL0     H 7153   3.222   1.117   6.544 -0.4488 -0.3879  0.6540
  794MOL0     H 7154   3.244   1.577   6.995  0.9605 -1.8177  0.5788
  794MOL0     H 7155   3.161   1.597   7.223 -0.4320  0.1681  0.3658
  794MOL0     H 7156   2.822   1.599   7.277  2.0480  2.1190  1.4392
  794MOL0     H 7157   2.788   1.537   7.432  0.2812  0.8583  0.8982
  794MOL0     H 7158   3.036   1.706   7.352  0.3670 -1.1961 -0.3476
  794MOL0     H 7159   2.896   1.754   7.451  0.2106  0.6714  0.3365
  794MOL0     H 7160   3.113   1.554   7.518  1.3715  1.4902 -0.0347
  794MOL0     H 7161   2.962   1.556   7.597  0.7341  1.1266  1.9853
  794MOL0     H 7162   3.171   1.701   7.692  0.3436  2.4603  0.6459
  794MOL0     H 7163   3.149   1.811   7.556  2.3325  0.7325  1.9254
  794MOL0     H 7164   2.949   1.750   7.769  0.2836  0.6786  0.2327
  794MOL0     H 7165   2.948   1.881   7.644  0.1616 -1.6587 -1.2422
  794MOL0     H 7166   3.133   1.988   7.777 -1.1952  1.3232 -0.0396
  794MOL0     H 7167   2.978   1.961   7.848 -0.2277  0.8786 -1.6163
  794MOL0     H 7168   3.241   1.814   7.907  0.8741 -2.7593  5.7213
  794MOL0     H 7169   3.076   1.742   7.935 -0.4682 -0.0279  1.1484
  794MOL0     H 7170   3.184   1.871   8.135  0.1106 -2.2682  0.1185
  794MOL0     H 7171   3.016   1.908   8.102 -1.1256  0.0998 -1.6020
  794MOL0     H 7172   2.893   1.267   7.125 -0.0933 -0.5339  2.6979
  794MOL0     H 7173   2.985   1.268   6.903  2.2308 -2.2202  1.7333
  794MOL0     H 7174   3.302   1.680   6.534  3.5964  0.2690 -1.4589
  794MOL0     H 7175   3.374   1.628   6.307 -0.4150 -1.1205 -3.4356
  794MOL0     H 7176   3.800   0.610   6.116  0.9531 -0.0056  1.4941
  794MOL0     H 7177   3.609   0.463   6.140 -0.7617 -0.4447  2.6250
  794MOL0     H 7178   3.508  -0.180   6.137 -1.8096 -1.6416 -0.3205
  794MOL0     H 7179   3.287  -0.266   6.164 -0.6752 -0.3464  1.8741
  794MOL0     H 7180   3.002  -0.017   6.360 -0.2864  3.3762 -0.2001
  794MOL0     H 7181   2.926  -0.004   6.194  0.3704 -0.9575 -0.7970
  794MOL0     H 7182   2.790  -0.203   6.239 -0.9018  1.4426 -0.4378
  794MOL0     H 7183   2.783  -0.093   6.369  2.3409  1.4948  1.5588
  794MOL0     H 7184   2.792  -0.309   6.483 -1.4985 -0.8358 -1.5943
  794MOL0     H 7185   2.953  -0.254   6.500 -0.8880 -2.7053  0.6969
  794MOL0     H 7186   2.996  -0.368   6.256  0.0749 -0.5916  0.2908
  794MOL0     H 7187   2.858  -0.460   6.327 -0.8131  0.2576  0.9013
  794MOL0     H 7188   3.181  -0.590   6.569  0.1746 -2.0817 -3.1214
  794MOL0     H 7189   3.131   0.124   6.213 -1.4455 -0.3393 -0.2645
  794MOL0     H 7190   3.353   0.221   6.219 -2.1032 -0.0789  0.5745
  795MOL0     O 7191   9.952   9.269   2.580 -0.2161 -0.2170  0.3810
  795MOL0     C 7192   9.984   9.162   2.629  0.0204 -0.9798 -0.0637
  795MOL0     O 7193   9.934   9.102   2.748  0.2783 -0.4244 -0.0856
  795MOL0     C 7194   9.842   9.182   2.812 -0.1909  0.4824  0.6880
  795MOL0     C 7195   9.712   9.212   2.754  0.9082 -0.2351  0.3797
  795MOL0     C 7196   9.638   9.302   2.831  0.7014  0.1828 -0.2061
  795MOL0     C 7197   9.686   9.374   2.942  0.4767  0.5904  0.1730
  795MOL0     O 7198   9.599   9.466   2.989 -0.4751 -0.2240 -1.1583
  795MOL0     C 7199   9.656   9.571   3.069  1.2317  0.1471 -0.1560
  795MOL0     C 7200   9.655   9.543   3.216  0.1702 -1.0840 -0.0764
  795MOL0     C 7201   9.722   9.657   3.295  0.7797 -0.5531 -0.3302
  795MOL0     C 7202   9.708   9.624   3.442 -0.0101  0.0179  0.1735
  795MOL0     C 7203   9.798   9.714   3.519 -0.2703 -0.3899 -0.1703
  795MOL0     C 7204   9.782   9.685   3.668  1.0682  0.5075 -0.8658
  795MOL0     C 7205   9.868   9.791   3.744 -0.2383  0.3176  0.2756
  795MOL0     C 7206   9.882   9.789   3.900  0.4949  0.2913  0.1082
  795MOL0     N 7207  10.012   9.861   3.938  0.1868  0.9275 -0.1384
  795MOL0     C 7208  10.123   9.798   3.988  0.2352  0.7472  0.6394
  795MOL0     C 7209  10.212   9.889   4.018 -0.2580 -0.4685  0.4254
  795MOL0     C 7210  10.344   9.854   4.081 -0.0108 -0.6974  0.0031
  795MOL0     C 7211  10.460   9.900   3.997 -0.6888  0.0320  0.5490
  795MOL0     C 7212  10.495   9.816   3.872 -1.0111 -0.1883 -0.0952
  795MOL0     C 7213  10.624   9.858   3.819 -0.1114 -0.6869  0.0774
  795MOL0     O 7214  10.743   9.831   3.894 -0.2393  0.0689 -0.0408
  795MOL0     C 7215  10.797   9.698   3.892 -0.0025 -0.2047 -0.7364
  795MOL0     C 7216  10.888   9.662   3.990 -0.0642  0.1800 -0.2377
  795MOL0     C 7217  10.933   9.527   4.002 -0.3646 -0.9108 -0.0945
  795MOL0     C 7218  11.041   9.488   4.108  0.6903  0.0022  1.0706
  795MOL0     C 7219  10.890   9.427   3.920  0.6441  0.3158  0.5503
  795MOL0     C 7220  10.930   9.278   3.927  0.7106 -1.0178 -0.5753
  795MOL0     O 7221  10.827   9.180   3.913 -0.6248 -0.1005 -0.7909
  795MOL0     C 7222  10.874   9.048   3.923  0.2295  0.6598  0.1065
  795MOL0     C 7223  10.958   8.979   3.837  0.3927 -0.4348  0.4175
  795MOL0     C 7224  10.988   8.844   3.863 -0.6711  0.7724  0.0296
  795MOL0     C 7225  10.927   8.771   3.967  0.0834  0.8478 -0.1441
  795MOL0     O 7226  10.955   8.635   3.986  0.0445 -0.1206 -0.0263
  795MOL0     C 7227  10.907   8.548   3.879 -0.6454 -0.0919  0.3374
  795MOL0     C 7228  11.035   8.490   3.812  0.1338 -0.7436 -0.2182
  795MOL0     C 7229  11.099   8.381   3.908  0.8772  0.1499  0.4341
  795MOL0     C 7230  11.226   8.313   3.847  0.3573 -0.1965 -0.0155
  795MOL0     C 7231  11.327   8.247   3.938 -0.1904  0.1860 -1.4048
  795MOL0     C 7232  11.444   8.180   3.856 -0.9232  0.3308  0.3024
  795MOL0     C 7233  11.499   8.057   3.941  0.2077  0.0578 -0.5349
  795MOL0     C 7234  11.631   7.991   3.871 -0.1701  0.5698  0.9514
  795MOL0    Cl 7235  11.610   7.944   3.709  0.5038  0.2290  0.3091
  795MOL0     C 7236  10.847   8.844   4.053 -0.2443 -0.6280 -0.1509
  795MOL0     C 7237  10.816   8.983   4.036  0.2388 -0.6012 -0.3186
  795MOL0     O 7238  11.048   9.249   3.942  0.2382  0.1529 -0.1234
  795MOL0     C 7239  10.801   9.469   3.812  0.3643 -0.8900 -0.2388
  795MOL0     C 7240  10.761   9.605   3.795  0.0168  0.0205  0.6760
  795MOL0     N 7241  10.153  10.014   4.001  0.0252  0.4518 -0.2207
  795MOL0     N 7242  10.037   9.991   3.963  0.4219 -0.1852 -0.7472
  795MOL0     C 7243   9.811   9.343   2.996 -0.3993  0.0037 -0.0742
  795MOL0     C 7244   9.883   9.244   2.931  0.6171 -0.3676 -0.2437
  795MOL0     C 7245  10.060   9.075   2.541  0.3437 -0.4418  0.4048
  795MOL0     C 7246  10.119   8.955   2.589  0.0350  0.6072  0.8823
  795MOL0     C 7247  10.184   8.863   2.506  0.8799 -0.4704 -0.6220
  795MOL0     C 7248  10.213   8.894   2.373 -0.2788 -1.2545 -0.0504
  795MOL0     O 7249  10.276   8.817   2.280 -0.5333  0.2359  0.7793
  795MOL0     C 7250  10.361   8.709   2.328  1.1672 -0.7128  0.3500
  795MOL0     C 7251  10.465   8.646   2.222  0.0525 -0.3326 -0.0959
  795MOL0     C 7252  10.546   8.746   2.140  1.0763 -0.3021  0.2271
  795MOL0     C 7253  10.652   8.685   2.042  0.9655  1.3223 -0.5712
  795MOL0     C 7254  10.739   8.780   1.983 -0.2104 -0.4142  0.4644
  795MOL0     C 7255  10.817   8.867   1.951 -0.4438 -0.7904 -0.6488
  795MOL0     C 7256  10.161   9.014   2.323 -0.7363 -0.6807  0.3978
  795MOL0     C 7257  10.092   9.100   2.409  0.4776  0.0321 -0.4592
  795MOL0     H 7258   9.667   9.167   2.665  0.3668  1.6299 -0.3548
  795MOL0     H 7259   9.541   9.341   2.801  0.0426 -0.2512  1.2773
  795MOL0     H 7260   9.756   9.591   3.030  0.8228 -0.9073 -1.8662
  795MOL0     H 7261   9.596   9.660   3.045  1.3864  0.0371 -0.9545
  795MOL0     H 7262   9.552   9.521   3.246  0.6060 -0.0537  2.4345
  795MOL0     H 7263   9.715   9.453   3.232  0.5725 -1.0583 -1.3012
  795MOL0     H 7264   9.828   9.669   3.270  0.2635  2.0714 -1.6543
  795MOL0     H 7265   9.679   9.754   3.266 -3.6845 -2.0868  0.3603
  795MOL0     H 7266   9.605   9.637   3.475 -0.8986 -0.8951 -1.9973
  795MOL0     H 7267   9.729   9.518   3.461  0.5431 -0.1712 -1.3165
  795MOL0     H 7268   9.902   9.690   3.496  0.0582 -1.3629  2.0378
  795MOL0     H 7269   9.771   9.817   3.493  0.9302  0.1142  0.4934
  795MOL0     H 7270   9.680   9.690   3.707  2.2023  0.5329  2.4203
  795MOL0     H 7271   9.823   9.586   3.688 -3.8021 -1.4164  1.2361
  795MOL0     H 7272   9.972   9.789   3.710  0.3221 -3.8057  1.6405
  795MOL0     H 7273   9.813   9.881   3.718 -1.2952 -0.4357 -0.1576
  795MOL0     H 7274   9.881   9.691   3.950 -0.9065 -0.1967 -0.8172
  795MOL0     H 7275   9.797   9.849   3.934 -1.0680 -0.8267 -1.5769
  795MOL0     H 7276  10.136   9.691   3.995 -0.5833 -0.0920 -5.3483
  795MOL0     H 7277  10.352   9.905   4.177  1.2930 -0.6374 -0.1188
  795MOL0     H 7278  10.353   9.747   4.106  5.2332 -0.8054 -1.1963
  795MOL0     H 7279  10.548   9.893   4.060 -2.5339  0.7651  3.3744
  795MOL0     H 7280  10.456  10.003   3.959  1.9141  0.3774  1.0459
  795MOL0     H 7281  10.416   9.826   3.797 -3.1330 -1.2641  1.8805
  795MOL0     H 7282  10.505   9.711   3.901  0.0561 -0.2141 -0.5221
  795MOL0     H 7283  10.612   9.967   3.812  0.7798 -0.6324 -0.6999
  795MOL0     H 7284  10.643   9.825   3.717 -0.2080 -3.4612  0.8790
  795MOL0     H 7285  10.916   9.738   4.063  0.2236 -0.6605  0.5393
  795MOL0     H 7286  11.141   9.498   4.066  0.2922 -1.8361 -0.4459
  795MOL0     H 7287  11.019   9.552   4.194 -0.7334 -0.3438  0.9890
  795MOL0     H 7288  11.022   9.387   4.145 -0.4513  0.5110  1.9595
  795MOL0     H 7289  11.011   9.030   3.757  2.7312 -2.1655  0.7416
  795MOL0     H 7290  11.067   8.791   3.809 -1.8166  1.1475 -2.1337
  795MOL0     H 7291  10.850   8.466   3.924 -2.6475  0.3254 -1.3002
  795MOL0     H 7292  10.846   8.605   3.809  1.7401  2.2687  0.0146
  795MOL0     H 7293  11.001   8.440   3.721 -2.3884 -2.7248  1.6363
  795MOL0     H 7294  11.103   8.570   3.782 -1.1919  1.5952  2.4660
  795MOL0     H 7295  11.024   8.301   3.912 -0.6512  1.3054 -2.1611
  795MOL0     H 7296  11.112   8.418   4.010  1.4812 -1.1574  0.8589
  795MOL0     H 7297  11.191   8.241   3.772  0.9261 -2.1555  1.5246
  795MOL0     H 7298  11.277   8.391   3.789  0.3554 -0.3835 -0.2685
  795MOL0     H 7299  11.274   8.167   3.990 -0.7010  2.2969  1.5223
  795MOL0     H 7300  11.362   8.320   4.011 -0.1464 -0.3555 -0.8811
  795MOL0     H 7301  11.407   8.155   3.757  1.7261 -1.2151 -0.3990
  795MOL0     H 7302  11.524   8.253   3.836 -0.9440  1.0732  2.6164
  795MOL0     H 7303  11.417   7.987   3.961 -0.1327  0.9276  1.4234
  795MOL0     H 7304  11.546   8.092   4.034  0.4105 -1.1181 -0.1728
  795MOL0     H 7305  11.677   7.913   3.932  3.2115  0.8633 -0.9826
  795MOL0     H 7306  11.703   8.073   3.863  0.0146  0.3527  0.3192
  795MOL0     H 7307  10.795   8.789   4.131 -0.8739 -3.4492 -2.3995
  795MOL0     H 7308  10.755   9.040   4.106  0.9870 -0.3364  0.1248
  795MOL0     H 7309  10.757   9.402   3.739 -0.0837  2.2511 -3.0750
  795MOL0     H 7310  10.699   9.615   3.706 -1.3649  0.4184  1.6369
  795MOL0     H 7311   9.855   9.381   3.087  0.7801  0.2743 -0.7421
  795MOL0     H 7312   9.979   9.209   2.968  1.2899  0.3510 -1.2394
  795MOL0     H 7313  10.101   8.922   2.690 -4.9982  1.1029  0.4243
  795MOL0     H 7314  10.236   8.773   2.538  1.8022 -0.0796 -0.9797
  795MOL0     H 7315  10.414   8.747   2.416  0.3290  0.6730  0.2708
  795MOL0     H 7316  10.291   8.633   2.364 -2.7653  2.4155 -0.0376
  795MOL0     H 7317  10.403   8.585   2.156  0.9308 -2.1310  0.6687
  795MOL0     H 7318  10.522   8.579   2.287 -1.3562  0.8772  2.5865
  795MOL0     H 7319  10.596   8.811   2.213 -1.4110  0.2877  1.5084
  795MOL0     H 7320  10.472   8.807   2.088 -0.4375 -0.5024  2.0342
  795MOL0     H 7321  10.595   8.630   1.967 -1.2759  2.7389  0.0066
  795MOL0     H 7322  10.722   8.612   2.083  0.7051  2.3237  1.8093
  795MOL0     H 7323  10.899   8.933   1.930  1.2123 -2.0565  1.3863
  795MOL0     H 7324  10.168   9.050   2.221 -0.4594 -0.0049  0.6420
  795MOL0     H 7325  10.050   9.189   2.363 -2.3829 -1.0390 -0.1579
  796MOL0     O 7326   3.509   2.229   9.091  0.6771 -0.7673  0.3314
  796MOL0     C 7327   3.512   2.272   8.974  0.1688  0.0134 -0.4183
  796MOL0     O 7328   3.406   2.295   8.889  0.3141  0.4241 -0.1676
  796MOL0     C 7329   3.284   2.236   8.909  0.1472 -0.3518 -0.6064
  796MOL0     C 7330   3.217   2.174   8.800 -0.0719  1.3541  0.0559
  796MOL0     C 7331   3.096   2.108   8.807  0.0294 -0.5788 -0.1677
  796MOL0     C 7332   3.033   2.098   8.929 -0.3745  0.3339 -0.2289
  796MOL0     O 7333   2.912   2.037   8.930 -0.2044 -0.0998  0.0367
  796MOL0     C 7334   2.802   2.084   9.016  0.2285  0.6134  0.3794
  796MOL0     C 7335   2.673   2.016   8.973  0.2333  0.2345  0.3478
  796MOL0     C 7336   2.548   2.073   9.059 -0.0533 -0.0967  0.3701
  796MOL0     C 7337   2.452   1.959   9.095  0.4489  0.1654  0.2644
  796MOL0     C 7338   2.332   2.021   9.181  0.4174 -0.8697 -0.2460
  796MOL0     C 7339   2.241   1.897   9.211 -0.5457  1.3668 -0.1152
  796MOL0     C 7340   2.108   1.946   9.258  1.4832  0.0251 -0.5417
  796MOL0     C 7341   2.029   1.819   9.304 -0.2095 -0.1582  0.4178
  796MOL0     N 7342   1.904   1.852   9.380 -0.8663  0.4876  0.5168
  796MOL0     C 7343   1.785   1.910   9.342 -0.9639 -1.0000 -0.1462
  796MOL0     C 7344   1.698   1.902   9.432  0.8705  1.9652  0.4484
  796MOL0     C 7345   1.547   1.927   9.413 -0.6800 -1.0836  0.4870
  796MOL0     C 7346   1.462   1.791   9.428 -0.3244  0.5857 -0.1978
  796MOL0     C 7347   1.310   1.814   9.446  0.0828  0.2131 -0.3723
  796MOL0     C 7348   1.257   1.844   9.591  0.1363  0.1572  0.1050
  796MOL0     O 7349   1.262   1.982   9.625 -0.4405  0.3754  0.0024
  796MOL0     C 7350   1.215   2.009   9.751 -0.6397 -0.2599 -0.5866
  796MOL0     C 7351   1.082   1.992   9.797  0.6730  0.1468 -0.1402
  796MOL0     C 7352   1.040   2.023   9.934 -0.0761  0.1675  0.6889
  796MOL0     C 7353   0.896   2.011   9.961 -0.1832  0.1476 -0.6279
  796MOL0     C 7354   1.142   2.055  10.031 -0.2207 -0.6340 -0.6611
  796MOL0     C 7355   1.110   2.099  10.170  0.0626  0.8023 -0.4973
  796MOL0     O 7356   1.218   2.111  10.260  0.0049 -0.2913  0.6963
  796MOL0     C 7357   1.200   2.174  10.371  0.5532  0.0491 -0.8209
  796MOL0     C 7358   1.182   2.095  10.490  0.3393  0.5163  0.0289
  796MOL0     C 7359   1.169   2.159  10.616 -0.4320 -0.7236 -1.0038
  796MOL0     C 7360   1.201   2.302  10.623  0.1349 -0.0308 -0.4445
  796MOL0     O 7361   1.182   2.359  10.748 -0.7378  0.3883 -0.4829
  796MOL0     C 7362   1.229   2.498  10.765 -0.0575 -0.0098  0.8786
  796MOL0     C 7363   1.240   2.529  10.911  0.7428 -0.0276 -0.0452
  796MOL0     C 7364   1.307   2.669  10.928  0.0779  0.6618 -0.3576
  796MOL0     C 7365   1.312   2.700  11.079 -0.6110  0.5512 -0.0732
  796MOL0     C 7366   1.403   2.821  11.114  0.5590 -0.3148  0.4518
  796MOL0     C 7367   1.553   2.786  11.106  0.8888 -0.6675  0.6237
  796MOL0     C 7368   1.631   2.913  11.162  0.1373  0.0276 -0.1171
  796MOL0     C 7369   1.772   2.893  11.201 -0.0096 -0.4401  0.1990
  796MOL0    Cl 7370   1.878   2.832  11.064  0.1779  0.0093 -0.2223
  796MOL0     C 7371   1.224   2.379  10.505 -0.3792 -0.6774 -0.5617
  796MOL0     C 7372   1.227   2.315  10.384  0.7022 -0.3274  0.4154
  796MOL0     O 7373   1.000   2.150  10.188  0.6496 -0.0002  0.3068
  796MOL0     C 7374   1.272   2.063   9.984  0.2822  0.4369  0.5312
  796MOL0     C 7375   1.310   2.035   9.853 -0.5842 -0.9403  0.2033
  796MOL0     N 7376   1.754   1.839   9.539 -0.4160 -0.7793 -0.2507
  796MOL0     N 7377   1.876   1.808   9.510 -0.2470  0.9284 -0.4568
  796MOL0     C 7378   3.086   2.168   9.037  0.3668 -0.2405 -0.1972
  796MOL0     C 7379   3.206   2.237   9.035 -0.1424 -0.8707  1.2985
  796MOL0     C 7380   3.650   2.309   8.933  0.0648  0.4414  0.8597
  796MOL0     C 7381   3.679   2.319   8.795  0.7373  0.1974  0.0241
  796MOL0     C 7382   3.804   2.370   8.758 -0.0588  0.1686  0.6151
  796MOL0     C 7383   3.905   2.398   8.844  0.5809  0.4726 -0.4253
  796MOL0     O 7384   4.027   2.437   8.813  0.8883  0.4513  0.6507
  796MOL0     C 7385   4.065   2.566   8.830  0.7773  0.2123 -0.0987
  796MOL0     C 7386   4.219   2.561   8.848  0.0816  0.3121  1.3384
  796MOL0     C 7387   4.292   2.514   8.721  0.9545 -0.1315 -0.1420
  796MOL0     C 7388   4.445   2.521   8.736 -0.0433  0.3778  1.1364
  796MOL0     C 7389   4.513   2.469   8.857  0.7269  0.1958 -0.6330
  796MOL0     C 7390   4.577   2.420   8.951  0.6491  0.6057  0.1934
  796MOL0     C 7391   3.869   2.398   8.987 -1.0586  0.7974  0.2178
  796MOL0     C 7392   3.740   2.356   9.028 -0.6748  0.1136  0.4018
  796MOL0     H 7393   3.266   2.171   8.703 -1.1519  2.0890 -0.5366
  796MOL0     H 7394   3.057   2.071   8.713  0.3587  1.4428 -1.1521
  796MOL0     H 7395   2.826   2.045   9.115 -1.7942 -3.0179 -0.3476
  796MOL0     H 7396   2.803   2.192   9.001  1.7649  0.6808  0.8398
  796MOL0     H 7397   2.661   2.033   8.865 -2.9629 -1.1505  0.3747
  796MOL0     H 7398   2.682   1.910   8.995 -0.4056  0.5295  2.1572
  796MOL0     H 7399   2.596   2.124   9.144  1.2361 -1.1558  0.3175
  796MOL0     H 7400   2.499   2.146   8.995  0.0512 -1.4492 -1.3243
  796MOL0     H 7401   2.415   1.909   9.006  1.1743  1.0493 -0.5638
  796MOL0     H 7402   2.510   1.900   9.166 -0.1272  1.6965  2.0779
  796MOL0     H 7403   2.375   2.068   9.271  0.5994 -0.1838 -0.6837
  796MOL0     H 7404   2.277   2.097   9.125  1.2297 -0.3353 -0.3291
  796MOL0     H 7405   2.231   1.844   9.116 -0.8078 -0.1306  0.7171
  796MOL0     H 7406   2.283   1.836   9.291 -1.1921 -0.2184 -0.9494
  796MOL0     H 7407   2.120   2.006   9.349 -1.4616 -2.0129  1.3478
  796MOL0     H 7408   2.062   2.009   9.182  2.0413  2.4075  0.9648
  796MOL0     H 7409   2.091   1.759   9.371  2.2884  1.3094 -0.4636
  796MOL0     H 7410   2.007   1.761   9.213  0.8170 -0.0241  0.0665
  796MOL0     H 7411   1.769   1.961   9.247 -0.7182 -2.9961 -1.3286
  796MOL0     H 7412   1.509   1.992   9.492  0.0532 -0.4564  0.3427
  796MOL0     H 7413   1.525   1.979   9.320 -2.6315 -0.7075  1.1256
  796MOL0     H 7414   1.489   1.723   9.510 -5.4741 -1.2632  0.3654
  796MOL0     H 7415   1.477   1.737   9.333 -1.9225 -2.4969  1.1507
  796MOL0     H 7416   1.270   1.716   9.417 -0.5072 -0.4089  2.2863
  796MOL0     H 7417   1.282   1.898   9.382 -1.0453 -0.3091 -0.5943
  796MOL0     H 7418   1.303   1.790   9.675 -3.7458 -2.6834  0.7040
  796MOL0     H 7419   1.153   1.811   9.584 -0.3872  2.1031 -3.0401
  796MOL0     H 7420   1.004   1.971   9.725 -0.6235  1.1433  0.9260
  796MOL0     H 7421   0.870   1.999  10.066  2.1990 -3.6132 -0.3087
  796MOL0     H 7422   0.845   2.100   9.921 -2.3326 -0.7357  0.0536
  796MOL0     H 7423   0.851   1.934   9.898  0.0556 -0.2114 -0.3616
  796MOL0     H 7424   1.159   1.989  10.492  0.2543  0.5131  2.5882
  796MOL0     H 7425   1.139   2.108  10.707 -0.2452 -0.9248 -1.0550
  796MOL0     H 7426   1.325   2.514  10.716 -1.7602 -2.5453 -3.8870
  796MOL0     H 7427   1.162   2.568  10.715  1.6289  1.7129  0.9268
  796MOL0     H 7428   1.139   2.538  10.951  1.1423  1.6101  0.6831
  796MOL0     H 7429   1.293   2.450  10.966 -1.7613 -0.8482  1.3471
  796MOL0     H 7430   1.246   2.748  10.883  0.7313 -1.1197 -4.8469
  796MOL0     H 7431   1.407   2.682  10.885  1.4663  1.6757  2.8545
  796MOL0     H 7432   1.209   2.727  11.105 -0.5373  1.3476 -0.5620
  796MOL0     H 7433   1.330   2.603  11.127 -0.6442 -0.7511 -2.5115
  796MOL0     H 7434   1.371   2.841  11.216  0.6391 -0.1775  0.4484
  796MOL0     H 7435   1.373   2.908  11.055 -0.8018 -1.0967 -0.0804
  796MOL0     H 7436   1.571   2.709  11.181  2.5379 -1.1717 -0.2348
  796MOL0     H 7437   1.593   2.767  11.006 -1.9311  0.9631 -0.9466
  796MOL0     H 7438   1.577   2.952  11.248 -1.3087 -0.8708 -0.5766
  796MOL0     H 7439   1.637   2.986  11.081 -3.2858  1.1883  0.5164
  796MOL0     H 7440   1.760   2.814  11.276 -2.9569  0.0172  0.3300
  796MOL0     H 7441   1.805   2.986  11.249 -1.6287  0.0777  0.3458
  796MOL0     H 7442   1.243   2.485  10.508 -0.1855 -0.7168  1.7981
  796MOL0     H 7443   1.255   2.359  10.289  0.9630 -3.5987 -1.1377
  796MOL0     H 7444   1.348   2.100  10.052  1.0842  2.1753 -1.2048
  796MOL0     H 7445   1.415   2.043   9.827 -0.2523 -4.4281  0.0289
  796MOL0     H 7446   3.038   2.161   9.134  2.3536  2.8440  1.1611
  796MOL0     H 7447   3.256   2.281   9.121  3.3083 -1.4474 -0.2278
  796MOL0     H 7448   3.602   2.291   8.724 -1.0406 -1.5656  2.4355
  796MOL0     H 7449   3.827   2.381   8.652 -1.1948  1.8418  0.4975
  796MOL0     H 7450   4.027   2.616   8.741 -2.3131  0.3940  1.1893
  796MOL0     H 7451   4.017   2.625   8.909  2.3954  1.3430  0.0872
  796MOL0     H 7452   4.242   2.486   8.925  2.1864 -1.3755 -0.7923
  796MOL0     H 7453   4.271   2.654   8.873  2.6880 -0.0755 -1.9342
  796MOL0     H 7454   4.259   2.563   8.629 -0.5122 -0.6950  0.0489
  796MOL0     H 7455   4.268   2.407   8.711  0.7020 -0.2253  1.2470
  796MOL0     H 7456   4.472   2.627   8.743 -4.1656  1.6197  0.9584
  796MOL0     H 7457   4.497   2.485   8.646 -0.1153 -0.7726  1.5420
  796MOL0     H 7458   4.614   2.373   9.040  0.0529  0.0012  0.1319
  796MOL0     H 7459   3.940   2.421   9.066 -2.5260  0.8597  1.5776
  796MOL0     H 7460   3.728   2.358   9.136  1.2578 -0.0166  0.6586
  797MOL0     O 7461  11.198   8.863  11.152  0.2277 -0.9662  0.0076
  797MOL0     C 7462  11.089   8.824  11.188 -0.7692 -0.4193 -1.0438
  797MOL0     O 7463  11.065   8.705  11.257  0.6054  0.0147  0.2270
  797MOL0     C 7464  11.169   8.624  11.278  0.1332 -0.5327 -0.1252
  797MOL0     C 7465  11.218   8.617  11.403 -0.0535  0.2539  0.0290
  797MOL0     C 7466  11.315   8.532  11.441 -0.0307 -0.1535 -0.0044
  797MOL0     C 7467  11.379   8.459  11.337 -0.6777  0.5016  0.1919
  797MOL0     O 7468  11.480   8.366  11.360  0.7504 -0.1670  0.0010
  797MOL0     C 7469  11.585   8.394  11.453 -0.5136 -0.4427 -0.0968
  797MOL0     C 7470  11.698   8.301  11.423  0.0487  0.2085  0.3128
  797MOL0     C 7471  11.802   8.281  11.533  0.7247  0.1740 -0.6995
  797MOL0     C 7472  11.885   8.161  11.492  0.6972  0.3820 -0.5297
  797MOL0     C 7473  11.993   8.138  11.595  0.0227 -0.9427  0.9083
  797MOL0     C 7474  12.083   8.020  11.573  0.2085  0.3058  0.1428
  797MOL0     C 7475  12.211   8.023  11.667  0.0918 -0.1159  0.5989
  797MOL0     C 7476  12.165   7.998  11.811  0.2347  0.3569 -0.3760
  797MOL0     N 7477  12.288   7.979  11.892 -0.9212  0.0550 -0.5005
  797MOL0     C 7478  12.412   8.035  11.867  0.9035 -0.1402  0.3924
  797MOL0     C 7479  12.502   7.965  11.941  0.2777  0.2207 -0.3571
  797MOL0     C 7480  12.656   7.974  11.941  0.2050 -0.5038  0.0846
  797MOL0     C 7481  12.704   8.079  12.044  0.1160 -0.2377  0.5117
  797MOL0     C 7482  12.856   8.090  12.026 -0.5940  0.0689  0.3406
  797MOL0     C 7483  12.930   8.180  12.135 -0.7049 -0.8951  0.8992
  797MOL0     O 7484  12.856   8.292  12.185  0.0182 -0.4478  0.2527
  797MOL0     C 7485  12.834   8.397  12.096  0.6402 -0.3007 -0.4794
  797MOL0     C 7486  12.727   8.484  12.135  0.3522 -0.0647 -0.3150
  797MOL0     C 7487  12.675   8.583  12.053 -0.7229  0.3579 -0.2426
  797MOL0     C 7488  12.544   8.650  12.096  0.1251 -0.2820 -0.0641
  797MOL0     C 7489  12.745   8.610  11.932  0.0195  0.1437 -0.7348
  797MOL0     C 7490  12.713   8.719  11.838 -0.2189  0.3675  0.6451
  797MOL0     O 7491  12.781   8.719  11.721 -0.4751  0.4840 -0.5360
  797MOL0     C 7492  12.757   8.814  11.627  0.0901  0.2147  0.3244
  797MOL0     C 7493  12.841   8.924  11.627 -0.0145  0.0689  0.8468
  797MOL0     C 7494  12.838   9.028  11.523 -0.9881  1.1495  0.1255
  797MOL0     C 7495  12.740   9.021  11.423  0.8800  0.4985  0.2641
  797MOL0     O 7496  12.736   9.127  11.340  0.0668  0.6361  0.1605
  797MOL0     C 7497  12.676   9.111  11.212  1.1254 -0.0945  0.2362
  797MOL0     C 7498  12.537   9.172  11.201  0.0435  1.3508  0.1794
  797MOL0     C 7499  12.464   9.179  11.067  0.1318  0.2818  1.4347
  797MOL0     C 7500  12.337   9.277  11.083  0.4654  0.6275  0.0436
  797MOL0     C 7501  12.252   9.281  10.959  0.5420 -0.5952  1.0390
  797MOL0     C 7502  12.210   9.161  10.886  0.2863  0.0204 -0.5374
  797MOL0     C 7503  12.100   9.180  10.783  0.7518  0.2163 -0.0356
  797MOL0     C 7504  12.094   9.061  10.691 -0.2623  0.6972 -0.0371
  797MOL0    Cl 7505  12.239   9.068  10.578 -0.4210 -0.2038  0.0627
  797MOL0     C 7506  12.651   8.916  11.428 -0.0288  0.1088 -0.2371
  797MOL0     C 7507  12.668   8.813  11.520 -0.1378  1.3859 -0.2950
  797MOL0     O 7508  12.621   8.799  11.860 -1.0661 -0.2379 -0.0233
  797MOL0     C 7509  12.855   8.531  11.901 -0.2575 -0.8297  0.5377
  797MOL0     C 7510  12.898   8.423  11.978 -0.1416 -0.0370  0.2874
  797MOL0     N 7511  12.438   7.865  12.002  1.1144  0.7435  0.1760
  797MOL0     N 7512  12.311   7.866  11.972 -0.2098 -0.2014  0.2259
  797MOL0     C 7513  11.346   8.482  11.204  0.4678  0.0197 -0.2808
  797MOL0     C 7514  11.236   8.564  11.174  0.8377 -0.2603 -0.2818
  797MOL0     C 7515  10.977   8.910  11.165  0.5051 -1.0940  0.4226
  797MOL0     C 7516  10.986   9.016  11.065  0.4045  0.5093 -0.6485
  797MOL0     C 7517  10.873   9.095  11.044  0.1983 -0.4949  0.2378
  797MOL0     C 7518  10.757   9.082  11.126  0.0643 -0.3726 -0.9193
  797MOL0     O 7519  10.636   9.154  11.112 -1.2719 -0.6217  0.0976
  797MOL0     C 7520  10.635   9.275  11.034 -0.1646 -0.3628  0.5523
  797MOL0     C 7521  10.622   9.389  11.149 -0.2654  0.0847 -0.0039
  797MOL0     C 7522  10.590   9.519  11.087 -0.3149 -0.0106 -0.3026
  797MOL0     C 7523  10.696   9.571  10.990  0.9983 -0.2799  0.0330
  797MOL0     C 7524  10.646   9.697  10.920 -0.5649 -0.1505  0.9983
  797MOL0     C 7525  10.600   9.789  10.846 -0.5983  0.0602  0.4503
  797MOL0     C 7526  10.751   8.978  11.219 -0.1130  0.0949  0.2051
  797MOL0     C 7527  10.858   8.888  11.237 -0.2398 -1.2599 -0.5635
  797MOL0     H 7528  11.165   8.654  11.491  0.7414  1.3954  0.0503
  797MOL0     H 7529  11.348   8.520  11.544 -1.3336  0.4462  0.5049
  797MOL0     H 7530  11.616   8.499  11.442  3.0095 -1.2831  0.6638
  797MOL0     H 7531  11.564   8.384  11.560 -0.5621  1.0280  0.0585
  797MOL0     H 7532  11.656   8.201  11.406  1.7838 -0.5250  0.1270
  797MOL0     H 7533  11.766   8.324  11.341  1.4592 -0.4254  1.2696
  797MOL0     H 7534  11.868   8.367  11.544 -0.0348  0.5478  1.5057
  797MOL0     H 7535  11.754   8.259  11.629  2.8495 -2.2981 -0.0811
  797MOL0     H 7536  11.819   8.074  11.485 -0.1016  0.8002  1.2414
  797MOL0     H 7537  11.939   8.174  11.398  1.9896  1.4405  0.3141
  797MOL0     H 7538  12.043   8.231  11.626 -0.2746 -0.3004 -0.4561
  797MOL0     H 7539  11.937   8.123  11.688 -0.1587  2.6808  1.5497
  797MOL0     H 7540  12.034   7.926  11.601 -0.6247  0.6293 -0.1932
  797MOL0     H 7541  12.112   8.022  11.467  1.7413 -0.0484  0.5210
  797MOL0     H 7542  12.285   7.951  11.631  1.4747  0.5483  1.9664
  797MOL0     H 7543  12.260   8.120  11.656 -0.9967  0.4193  0.3023
  797MOL0     H 7544  12.115   7.901  11.817  3.2754 -1.3360 -0.1592
  797MOL0     H 7545  12.097   8.076  11.847 -1.3634 -1.2989  0.3390
  797MOL0     H 7546  12.434   8.119  11.801 -0.7532  0.5730  0.6895
  797MOL0     H 7547  12.695   7.875  11.967 -2.5967 -1.3309  1.6347
  797MOL0     H 7548  12.700   7.997  11.844  1.0967 -1.6772  0.1970
  797MOL0     H 7549  12.677   8.042  12.144  0.3383 -0.9484  0.3164
  797MOL0     H 7550  12.649   8.172  12.028  2.7879  1.6116  1.4228
  797MOL0     H 7551  12.868   8.134  11.927 -0.2756  1.5934  1.0265
  797MOL0     H 7552  12.905   7.992  12.025  2.1501  1.3080  1.6853
  797MOL0     H 7553  13.025   8.222  12.100  0.7008 -2.3169  2.7491
  797MOL0     H 7554  12.958   8.124  12.225 -3.1158 -1.5258  1.3347
  797MOL0     H 7555  12.687   8.471  12.236  2.9090 -1.1461  0.6304
  797MOL0     H 7556  12.514   8.607  12.192  1.1005  1.8348  1.2663
  797MOL0     H 7557  12.561   8.758  12.097  0.9122 -0.4070  0.6044
  797MOL0     H 7558  12.470   8.635  12.017 -0.9655  2.7491  0.2434
  797MOL0     H 7559  12.909   8.906  11.710  1.3722 -3.3213 -0.8514
  797MOL0     H 7560  12.913   9.105  11.539  2.0870 -1.9723  2.3969
  797MOL0     H 7561  12.730   9.163  11.133 -0.6416  2.2841  0.4960
  797MOL0     H 7562  12.661   9.006  11.184  1.5745  0.7828 -3.9291
  797MOL0     H 7563  12.471   9.113  11.266 -0.5160  1.9627  0.1891
  797MOL0     H 7564  12.536   9.279  11.226 -2.0352  1.4569 -0.1822
  797MOL0     H 7565  12.418   9.084  11.039 -3.4147  2.6706 -1.9442
  797MOL0     H 7566  12.527   9.219  10.987  0.3358 -0.9605  0.9555
  797MOL0     H 7567  12.269   9.235  11.157 -0.0849 -0.2687 -0.9501
  797MOL0     H 7568  12.378   9.376  11.103  0.2494  0.9667 -1.1201
  797MOL0     H 7569  12.311   9.339  10.887 -2.5409 -1.5870 -2.7007
  797MOL0     H 7570  12.170   9.352  10.975 -0.4033 -1.3318 -0.3354
  797MOL0     H 7571  12.295   9.117  10.833  1.9452  1.0028  1.1809
  797MOL0     H 7572  12.172   9.083  10.953 -1.8995  2.4986  1.3146
  797MOL0     H 7573  12.123   9.273  10.730 -1.0037  0.9571  0.4265
  797MOL0     H 7574  12.004   9.204  10.829  1.1784  1.1773  0.3949
  797MOL0     H 7575  12.010   9.061  10.620  0.9606 -0.3468 -1.5588
  797MOL0     H 7576  12.092   8.967  10.746 -2.0798 -0.6414 -2.2026
  797MOL0     H 7577  12.564   8.905  11.364 -1.6003  2.6527  1.2542
  797MOL0     H 7578  12.601   8.730  11.498  4.7426 -2.8761 -1.1289
  797MOL0     H 7579  12.915   8.555  11.814 -1.3600 -2.8434 -0.8733
  797MOL0     H 7580  12.971   8.357  11.932 -1.5726  0.3187 -2.7377
  797MOL0     H 7581  11.396   8.424  11.127 -0.3377 -0.0675 -0.7481
  797MOL0     H 7582  11.208   8.589  11.072  1.7254  3.1047  0.1800
  797MOL0     H 7583  11.081   9.046  11.023 -1.0194  0.1186 -4.5733
  797MOL0     H 7584  10.880   9.176  10.972  0.0072 -1.3415 -0.7455
  797MOL0     H 7585  10.727   9.288  10.978  0.6409 -3.0910  1.0640
  797MOL0     H 7586  10.550   9.273  10.966  1.9988 -0.0961 -2.3275
  797MOL0     H 7587  10.715   9.388  11.206 -0.5789 -1.0653  0.5289
  797MOL0     H 7588  10.561   9.372  11.239 -0.5124  2.8513  0.4298
  797MOL0     H 7589  10.580   9.597  11.163  2.7794  0.9562 -0.7488
  797MOL0     H 7590  10.492   9.504  11.041 -0.4337 -1.8494  0.5004
  797MOL0     H 7591  10.716   9.499  10.910 -0.1071  1.6146 -2.0771
  797MOL0     H 7592  10.786   9.599  11.045  1.6629 -1.8227 -0.2081
  797MOL0     H 7593  10.564   9.861  10.776  4.1725  0.7344 -1.6704
  797MOL0     H 7594  10.655   8.955  11.264 -0.7865 -0.3409 -1.3777
  797MOL0     H 7595  10.841   8.816  11.317 -1.8724  1.2304  1.4769
  798MOL0     O 7596   1.578   1.237   0.212  0.2338  0.4282  0.3166
  798MOL0     C 7597   1.475   1.188   0.157  0.6826 -0.8290 -0.0200
  798MOL0     O 7598   1.465   1.079   0.070  0.1254 -0.5945 -0.3310
  798MOL0     C 7599   1.579   1.005   0.062  0.1510  0.2528  0.3275
  798MOL0     C 7600   1.680   1.043  -0.033 -0.3352  0.1953 -0.6412
  798MOL0     C 7601   1.794   0.960  -0.049 -0.6182 -0.2112  0.0291
  798MOL0     C 7602   1.808   0.835   0.021 -0.2726 -0.2809 -0.0607
  798MOL0     O 7603   1.933   0.773   0.027 -0.0893  0.4176  0.9543
  798MOL0     C 7604   1.964   0.669   0.132 -0.7061  0.4340  0.5954
  798MOL0     C 7605   1.891   0.547   0.083 -0.0828  0.2589 -0.1206
  798MOL0     C 7606   1.941   0.424   0.160  0.2596 -0.0840 -0.6540
  798MOL0     C 7607   2.080   0.391   0.115 -1.3801 -1.0438  1.1324
  798MOL0     C 7608   2.150   0.270   0.180  0.0781 -0.0234 -0.6877
  798MOL0     C 7609   2.077   0.140   0.185  0.2383  1.0060  0.5971
  798MOL0     C 7610   2.153   0.031   0.260 -0.1266  0.1987 -0.3440
  798MOL0     C 7611   2.071  -0.091   0.309 -0.2921  0.5643 -0.1004
  798MOL0     N 7612   2.042  -0.202   0.224 -0.9369 -0.1215  0.3269
  798MOL0     C 7613   1.985  -0.319   0.249 -0.3551 -0.7209  0.3335
  798MOL0     C 7614   2.009  -0.382   0.133  0.2991  0.0592 -0.0270
  798MOL0     C 7615   1.986  -0.530   0.128  0.4451 -0.8310 -0.1015
  798MOL0     C 7616   2.079  -0.618   0.212 -0.5306 -0.2171 -0.1697
  798MOL0     C 7617   2.234  -0.607   0.162  1.0261  0.4317 -0.1380
  798MOL0     C 7618   2.264  -0.623   0.020 -0.2392 -0.2079  1.3287
  798MOL0     O 7619   2.408  -0.622  -0.005 -0.0071 -0.0170  0.5754
  798MOL0     C 7620   2.474  -0.497  -0.007 -0.0318 -0.0205  0.0396
  798MOL0     C 7621   2.425  -0.379  -0.052 -0.5986 -0.5355  0.1581
  798MOL0     C 7622   2.493  -0.261  -0.075  0.6154  0.3583  0.0424
  798MOL0     C 7623   2.417  -0.132  -0.109 -0.2908 -0.7679 -0.1785
  798MOL0     C 7624   2.625  -0.262  -0.051  0.1463  0.1170 -0.5592
  798MOL0     C 7625   2.705  -0.141  -0.058  0.4856 -0.0442  1.6215
  798MOL0     O 7626   2.705  -0.065  -0.169  0.2408  0.6716 -0.1292
  798MOL0     C 7627   2.822   0.012  -0.198  1.6962 -0.4995 -0.8333
  798MOL0     C 7628   2.843   0.113  -0.108 -1.1167 -0.7146 -0.0560
  798MOL0     C 7629   2.944   0.204  -0.121  0.2886 -0.2172 -0.8398
  798MOL0     C 7630   3.036   0.188  -0.226  0.6054 -0.3212  0.0409
  798MOL0     O 7631   3.142   0.282  -0.236 -1.5901 -0.0076  0.5534
  798MOL0     C 7632   3.268   0.242  -0.304 -0.3551 -0.3632  0.1847
  798MOL0     C 7633   3.397   0.317  -0.261 -0.7575  0.9399 -0.0404
  798MOL0     C 7634   3.528   0.237  -0.288  0.4564 -1.1263 -0.9437
  798MOL0     C 7635   3.544   0.226  -0.442  0.6003  0.0952 -0.2713
  798MOL0     C 7636   3.660   0.138  -0.463 -0.8135  0.1795  0.5709
  798MOL0     C 7637   3.687   0.131  -0.609  0.6452 -0.1797  0.1262
  798MOL0     C 7638   3.712   0.260  -0.692  0.6488  0.6859  0.9499
  798MOL0     C 7639   3.822   0.348  -0.641 -0.0768  0.6680 -0.6109
  798MOL0    Cl 7640   3.983   0.283  -0.625 -0.1098 -0.3169 -0.0641
  798MOL0     C 7641   3.014   0.082  -0.314 -0.1121  0.1896  0.2405
  798MOL0     C 7642   2.900  -0.007  -0.301 -0.7921 -0.5690  0.5642
  798MOL0     O 7643   2.784  -0.131   0.040 -0.9960 -0.1819 -0.6634
  798MOL0     C 7644   2.679  -0.386  -0.003  0.4682 -0.3075 -0.8721
  798MOL0     C 7645   2.604  -0.499   0.019 -0.5944  0.8378  0.0696
  798MOL0     N 7646   2.060  -0.305   0.031 -0.0864  0.6110 -0.0241
  798MOL0     N 7647   2.083  -0.190   0.089  0.0980  0.5891 -0.6576
  798MOL0     C 7648   1.708   0.811   0.117 -0.2778 -0.4701  0.9148
  798MOL0     C 7649   1.592   0.887   0.137 -0.1881  0.2454 -0.7597
  798MOL0     C 7650   1.349   1.252   0.199 -0.5610 -0.6547  0.4141
  798MOL0     C 7651   1.258   1.259   0.092 -0.2341 -0.0123 -0.6316
  798MOL0     C 7652   1.139   1.332   0.114 -0.5408  0.3881 -0.2587
  798MOL0     C 7653   1.131   1.413   0.237  0.0824 -0.0460 -0.3601
  798MOL0     O 7654   1.015   1.484   0.276  0.6381 -0.9780  0.1928
  798MOL0     C 7655   0.900   1.467   0.196  0.3737 -0.3244 -0.4669
  798MOL0     C 7656   0.792   1.559   0.260  0.8354  0.2385  0.3828
  798MOL0     C 7657   0.663   1.551   0.174  0.2648 -0.1921  0.0312
  798MOL0     C 7658   0.653   1.659   0.069  0.3094 -0.0020  0.0638
  798MOL0     C 7659   0.515   1.667   0.013 -0.5280  0.6438 -0.6991
  798MOL0     C 7660   0.404   1.687  -0.021  0.0798 -0.0636  0.0043
  798MOL0     C 7661   1.226   1.405   0.338  0.4468  0.6286  0.0632
  798MOL0     C 7662   1.346   1.338   0.307  0.2936  0.0222 -0.2631
  798MOL0     H 7663   1.672   1.136  -0.089 -1.2938  0.8534  0.5332
  798MOL0     H 7664   1.869   0.991  -0.120 -1.0516 -1.4771 -1.0217
  798MOL0     H 7665   2.068   0.644   0.152 -1.3373 -2.0617  1.0126
  798MOL0     H 7666   1.928   0.699   0.231  0.6102  5.2173 -0.1075
  798MOL0     H 7667   1.787   0.555   0.117  0.5652  1.1948  1.7786
  798MOL0     H 7668   1.896   0.539  -0.026 -1.9992  1.1483 -0.3198
  798MOL0     H 7669   1.939   0.451   0.266  1.9712 -0.2758 -0.5540
  798MOL0     H 7670   1.873   0.339   0.148 -0.0802  0.0563  0.2564
  798MOL0     H 7671   2.084   0.362   0.009 -0.0174  4.2750 -0.5579
  798MOL0     H 7672   2.150   0.474   0.116 -2.0564 -0.3010 -1.7136
  798MOL0     H 7673   2.246   0.257   0.129  1.4151  2.6960  0.8805
  798MOL0     H 7674   2.161   0.307   0.282 -0.0648  1.0136 -1.0359
  798MOL0     H 7675   1.985   0.153   0.244 -0.7199 -0.0401 -0.5982
  798MOL0     H 7676   2.042   0.109   0.085 -0.9563 -0.4096  1.4049
  798MOL0     H 7677   2.240  -0.007   0.206 -0.2221 -1.3582  0.5201
  798MOL0     H 7678   2.188   0.080   0.351 -1.8879  2.6111 -0.8750
  798MOL0     H 7679   1.975  -0.044   0.334 -1.3824 -2.3263  1.5734
  798MOL0     H 7680   2.118  -0.134   0.397 -1.0779 -0.8436 -0.3409
  798MOL0     H 7681   1.936  -0.343   0.343 -0.5476 -0.4419  0.3058
  798MOL0     H 7682   1.883  -0.537   0.162  0.9546  1.0438  2.0627
  798MOL0     H 7683   2.002  -0.568   0.027 -0.1959  0.5410 -0.7412
  798MOL0     H 7684   2.046  -0.722   0.217 -0.3409 -0.4681 -2.7688
  798MOL0     H 7685   2.075  -0.588   0.317 -1.1640  0.3761 -0.3582
  798MOL0     H 7686   2.295  -0.684   0.209 -0.5538  0.0302  1.3674
  798MOL0     H 7687   2.274  -0.510   0.192  2.1683  0.3241 -1.2182
  798MOL0     H 7688   2.210  -0.551  -0.042  1.2630 -1.5060 -1.6832
  798MOL0     H 7689   2.240  -0.726  -0.008  0.1584 -0.6660  2.5990
  798MOL0     H 7690   2.324  -0.381  -0.094 -0.4764 -0.5328 -0.1367
  798MOL0     H 7691   2.407  -0.070  -0.019  0.1888 -1.5092  0.3933
  798MOL0     H 7692   2.449  -0.078  -0.198  1.2591  1.2367  1.4977
  798MOL0     H 7693   2.313  -0.150  -0.139 -1.1753  1.6841  1.1074
  798MOL0     H 7694   2.777   0.119  -0.022 -1.4260  0.7218 -0.3593
  798MOL0     H 7695   2.959   0.284  -0.049 -0.2787  1.8031 -2.8733
  798MOL0     H 7696   3.288   0.134  -0.303 -0.3983 -0.6265 -4.3814
  798MOL0     H 7697   3.246   0.265  -0.409 -6.1112 -3.1537  0.3348
  798MOL0     H 7698   3.413   0.415  -0.307  3.1782  0.6446  0.3701
  798MOL0     H 7699   3.393   0.344  -0.155  1.3473 -1.6855  0.8342
  798MOL0     H 7700   3.523   0.141  -0.236 -1.4496 -1.6020 -1.9060
  798MOL0     H 7701   3.602   0.297  -0.235 -2.7930  1.3415  1.2160
  798MOL0     H 7702   3.458   0.179  -0.491  0.3671 -1.5882  1.6153
  798MOL0     H 7703   3.559   0.327  -0.480  0.6118 -0.3485 -1.4731
  798MOL0     H 7704   3.650   0.039  -0.419  2.8065 -1.5595 -1.9957
  798MOL0     H 7705   3.732   0.202  -0.411 -2.4598  2.9247 -0.3109
  798MOL0     H 7706   3.780   0.074  -0.616  2.6276  2.9871 -4.6533
  798MOL0     H 7707   3.600   0.080  -0.651 -1.3040  1.3069  2.1179
  798MOL0     H 7708   3.625   0.324  -0.710  0.8367  0.8442  0.5734
  798MOL0     H 7709   3.728   0.222  -0.794 -0.7390  2.1050  0.1582
  798MOL0     H 7710   3.791   0.392  -0.546 -2.6128 -2.5302  0.2248
  798MOL0     H 7711   3.826   0.421  -0.723  2.1063  2.7684  1.2239
  798MOL0     H 7712   3.083   0.068  -0.396  1.3191  1.0808  1.2550
  798MOL0     H 7713   2.878  -0.095  -0.360  0.5466 -1.2875  1.0864
  798MOL0     H 7714   2.785  -0.392   0.022  0.3255  1.2619  0.2756
  798MOL0     H 7715   2.664  -0.588   0.035 -0.2494  0.8060 -1.2681
  798MOL0     H 7716   1.719   0.725   0.183  2.3181  0.8104  2.3010
  798MOL0     H 7717   1.512   0.852   0.201 -1.2307 -3.9978 -3.9286
  798MOL0     H 7718   1.275   1.207  -0.002 -0.0091 -0.6535 -0.2440
  798MOL0     H 7719   1.065   1.330   0.035  1.1097 -0.0736 -1.8430
  798MOL0     H 7720   0.915   1.488   0.090 -1.7950  0.3454 -0.6844
  798MOL0     H 7721   0.860   1.366   0.209 -2.2032  0.8879  2.4078
  798MOL0     H 7722   0.830   1.660   0.278  0.3305  0.0824  2.7159
  798MOL0     H 7723   0.772   1.524   0.362 -1.2390  0.9436  0.2577
  798MOL0     H 7724   0.580   1.568   0.244 -0.3109 -0.3173 -0.6086
  798MOL0     H 7725   0.656   1.452   0.129  0.9261  0.7565 -2.3056
  798MOL0     H 7726   0.722   1.633  -0.013  1.9116  2.2023  0.6263
  798MOL0     H 7727   0.684   1.762   0.089 -0.6238  0.4781 -0.8579
  798MOL0     H 7728   0.302   1.714  -0.040 -0.9742 -2.1944  2.0380
  798MOL0     H 7729   1.208   1.451   0.434 -3.3221 -4.3004  2.1506
  798MOL0     H 7730   1.433   1.328   0.371 -0.1695 -1.3818  0.1856
  799MOL0     O 7731   6.324   1.311   2.116  0.0044  0.0530 -0.1112
  799MOL0     C 7732   6.273   1.418   2.076 -1.2631  0.1164  0.9967
  799MOL0     O 7733   6.340   1.540   2.057 -0.2788  0.5929  0.0774
  799MOL0     C 7734   6.479   1.529   2.057 -0.3033 -0.6395  0.3069
  799MOL0     C 7735   6.566   1.537   2.167 -0.0177 -0.3308  0.0749
  799MOL0     C 7736   6.704   1.512   2.164 -0.8897 -0.3789 -0.2316
  799MOL0     C 7737   6.761   1.474   2.047  0.5575 -0.4447  1.2372
  799MOL0     O 7738   6.893   1.454   2.047 -1.0884  0.3881  0.4336
  799MOL0     C 7739   6.963   1.388   1.932  0.4147  0.7222 -0.9186
  799MOL0     C 7740   7.108   1.424   1.940 -1.2145 -0.1227  0.0930
  799MOL0     C 7741   7.191   1.370   1.833  0.5944  0.2519  0.9988
  799MOL0     C 7742   7.196   1.462   1.711 -0.6919  0.4089 -0.2109
  799MOL0     C 7743   7.313   1.420   1.625 -0.2881  0.4000  0.9036
  799MOL0     C 7744   7.294   1.488   1.488 -0.5950  0.3871 -0.5006
  799MOL0     C 7745   7.395   1.427   1.386 -0.0613 -0.0493  0.9868
  799MOL0     C 7746   7.534   1.489   1.371  0.9722  0.1863  0.2430
  799MOL0     N 7747   7.528   1.615   1.309 -0.3139 -0.1071 -0.8038
  799MOL0     C 7748   7.556   1.644   1.174 -0.5117 -0.4658 -0.2002
  799MOL0     C 7749   7.547   1.779   1.170 -0.2518 -0.6806 -0.6391
  799MOL0     C 7750   7.570   1.865   1.043 -0.1245  0.0795  0.2477
  799MOL0     C 7751   7.515   1.797   0.919  0.3958  0.2472  0.4401
  799MOL0     C 7752   7.436   1.879   0.817 -1.1717 -0.3589  0.0134
  799MOL0     C 7753   7.516   1.977   0.727 -0.2779  0.0147  0.0753
  799MOL0     O 7754   7.581   2.065   0.814  0.6081 -0.5011 -0.2715
  799MOL0     C 7755   7.658   2.162   0.741  0.4004 -0.0712 -1.2438
  799MOL0     C 7756   7.751   2.216   0.819 -0.1774  0.1956 -0.5063
  799MOL0     C 7757   7.822   2.336   0.783 -0.4823 -0.4946  0.2048
  799MOL0     C 7758   7.936   2.386   0.872  0.5110  0.1399  0.7253
  799MOL0     C 7759   7.786   2.397   0.659 -0.3574  0.1885 -0.0250
  799MOL0     C 7760   7.862   2.519   0.593 -0.0371  0.3669  0.6829
  799MOL0     O 7761   7.968   2.571   0.659 -0.3924 -0.2192 -0.2863
  799MOL0     C 7762   7.997   2.710   0.649  0.3623  0.0524  0.8984
  799MOL0     C 7763   8.040   2.792   0.758  0.0455  0.9694 -0.3071
  799MOL0     C 7764   8.103   2.919   0.729  0.5399  0.2811 -0.2258
  799MOL0     C 7765   8.115   2.966   0.601 -0.0225  0.5821 -1.0846
  799MOL0     O 7766   8.177   3.089   0.593 -0.0552  0.8496 -0.3176
  799MOL0     C 7767   8.271   3.094   0.472 -0.9280  0.9946 -1.4706
  799MOL0     C 7768   8.389   3.184   0.486  1.1017  0.7967 -0.2516
  799MOL0     C 7769   8.460   3.146   0.622 -0.0358  1.0682  0.5373
  799MOL0     C 7770   8.544   3.013   0.595 -0.2660  0.2248  0.1006
  799MOL0     C 7771   8.631   2.986   0.721  0.6505 -0.0587 -0.2318
  799MOL0     C 7772   8.541   2.953   0.845 -0.2168  0.1168  0.5592
  799MOL0     C 7773   8.608   2.833   0.923  0.3206 -0.6754  0.5220
  799MOL0     C 7774   8.583   2.699   0.861 -0.1072  0.0572  0.2099
  799MOL0    Cl 7775   8.406   2.632   0.876  0.4908  0.0906  0.0285
  799MOL0     C 7776   8.061   2.898   0.496  0.9762  0.2271  0.4297
  799MOL0     C 7777   8.019   2.764   0.519  0.8032 -0.5195  0.3198
  799MOL0     O 7778   7.812   2.562   0.491 -1.2008 -0.0421  0.1973
  799MOL0     C 7779   7.688   2.331   0.582  0.3331  0.5169  0.0617
  799MOL0     C 7780   7.625   2.212   0.622  0.4154  0.2311  0.1587
  799MOL0     N 7781   7.503   1.815   1.300  0.1168  0.4453  0.2685
  799MOL0     N 7782   7.502   1.719   1.378 -0.2447 -0.5969  0.5263
  799MOL0     C 7783   6.674   1.473   1.926 -0.8054 -0.5478 -0.4883
  799MOL0     C 7784   6.537   1.495   1.931  0.0147 -0.2034 -0.1003
  799MOL0     C 7785   6.121   1.428   2.090 -1.3797  0.5482  0.6652
  799MOL0     C 7786   6.053   1.542   2.027 -1.1069  0.1955 -0.5047
  799MOL0     C 7787   5.917   1.559   2.058  0.9863 -0.0434  0.1113
  799MOL0     C 7788   5.852   1.471   2.154 -1.3394 -0.1632  1.3861
  799MOL0     O 7789   5.730   1.513   2.194  0.3915  0.1029 -0.3213
  799MOL0     C 7790   5.701   1.523   2.335  0.0562  0.1843  0.0771
  799MOL0     C 7791   5.553   1.516   2.355  0.1085 -0.6585  0.6525
  799MOL0     C 7792   5.490   1.381   2.302  0.6696  0.4298  0.3409
  799MOL0     C 7793   5.347   1.369   2.337  0.0970  0.4140 -0.1251
  799MOL0     C 7794   5.339   1.319   2.478  0.3978 -0.5488  0.7190
  799MOL0     C 7795   5.345   1.285   2.596 -0.6600  0.3308  0.7274
  799MOL0     C 7796   5.910   1.363   2.200  0.5962  0.6252  0.2699
  799MOL0     C 7797   6.045   1.339   2.173 -0.5501 -0.1548  0.2746
  799MOL0     H 7798   6.511   1.559   2.258  1.8826 -0.2213  1.2415
  799MOL0     H 7799   6.761   1.519   2.255 -3.1641  1.5467  1.1672
  799MOL0     H 7800   6.938   1.281   1.929 -1.8548  1.2259 -1.4165
  799MOL0     H 7801   6.922   1.427   1.839 -1.9027  1.0036  0.1437
  799MOL0     H 7802   7.121   1.533   1.935  1.0248 -0.4019 -1.2213
  799MOL0     H 7803   7.142   1.391   2.039 -0.0289  0.8066  0.0216
  799MOL0     H 7804   7.290   1.344   1.873  0.1953 -3.2226  0.1015
  799MOL0     H 7805   7.149   1.276   1.795 -1.4963  1.4857  0.0784
  799MOL0     H 7806   7.095   1.460   1.669 -0.9053  0.1210  0.2959
  799MOL0     H 7807   7.222   1.559   1.754  5.2254 -0.4950 -0.9134
  799MOL0     H 7808   7.403   1.455   1.676 -0.2955  1.7380  0.0214
  799MOL0     H 7809   7.321   1.312   1.609  4.2736  0.7032 -0.0456
  799MOL0     H 7810   7.197   1.468   1.441 -0.4527 -0.0375 -0.6262
  799MOL0     H 7811   7.315   1.595   1.498  2.3270 -0.1009 -0.3353
  799MOL0     H 7812   7.412   1.320   1.407  1.7325 -0.6697 -2.7664
  799MOL0     H 7813   7.353   1.413   1.287  0.1982  0.0883  0.8550
  799MOL0     H 7814   7.594   1.412   1.323 -1.1408 -1.6771  0.4480
  799MOL0     H 7815   7.568   1.509   1.473 -1.5267  0.3802  1.1208
  799MOL0     H 7816   7.592   1.579   1.096  0.0003  0.7921 -1.0456
  799MOL0     H 7817   7.512   1.958   1.054 -1.9198 -0.5525 -2.7882
  799MOL0     H 7818   7.677   1.887   1.033 -0.1631 -0.1375 -0.6643
  799MOL0     H 7819   7.448   1.715   0.946  0.9577  0.3373  2.2807
  799MOL0     H 7820   7.602   1.754   0.867  2.9006  2.3847  2.5408
  799MOL0     H 7821   7.364   1.937   0.877 -0.7784  0.1684 -0.0250
  799MOL0     H 7822   7.373   1.822   0.748  0.7263 -0.8332 -1.3937
  799MOL0     H 7823   7.441   2.019   0.659 -0.5566  1.0867  1.0161
  799MOL0     H 7824   7.599   1.937   0.667  1.6123  2.4605  0.8642
  799MOL0     H 7825   7.769   2.162   0.912  0.1257 -2.0314 -1.7951
  799MOL0     H 7826   7.909   2.479   0.922 -0.2973  1.4404 -1.9380
  799MOL0     H 7827   7.963   2.320   0.955 -1.1633 -0.3956  0.8740
  799MOL0     H 7828   8.021   2.399   0.804 -0.3632 -0.6822 -0.5776
  799MOL0     H 7829   8.031   2.761   0.861  4.5456  2.9523  0.9290
  799MOL0     H 7830   8.128   2.976   0.818  0.4019 -1.2161  0.8233
  799MOL0     H 7831   8.303   2.991   0.449 -1.6297  0.5999 -0.7187
  799MOL0     H 7832   8.213   3.140   0.392 -1.5368  1.6643 -0.6534
  799MOL0     H 7833   8.455   3.171   0.400 -1.9214 -3.1587 -2.3058
  799MOL0     H 7834   8.361   3.290   0.488 -1.0192  0.2978 -1.1149
  799MOL0     H 7835   8.392   3.125   0.704  2.2979  1.8282  2.8002
  799MOL0     H 7836   8.532   3.219   0.661  1.2627 -1.2413  2.8093
  799MOL0     H 7837   8.486   2.923   0.573 -2.2244  1.9743 -2.3900
  799MOL0     H 7838   8.616   3.023   0.513  0.8951 -0.4956  1.0010
  799MOL0     H 7839   8.694   3.075   0.726  1.9340 -0.7926 -2.0871
  799MOL0     H 7840   8.692   2.900   0.693  2.4166  1.4954 -1.4224
  799MOL0     H 7841   8.544   3.043   0.908 -0.7321  0.2461  0.3979
  799MOL0     H 7842   8.436   2.939   0.821 -0.4558  1.8569  0.4330
  799MOL0     H 7843   8.575   2.838   1.027 -2.2701 -2.8469 -0.0784
  799MOL0     H 7844   8.716   2.849   0.921  0.7988 -3.3234  0.5568
  799MOL0     H 7845   8.644   2.626   0.915  2.7488  0.8612 -1.6641
  799MOL0     H 7846   8.628   2.689   0.761 -2.5357 -2.2672 -0.7905
  799MOL0     H 7847   8.056   2.927   0.392  2.0834  2.6128  0.9795
  799MOL0     H 7848   8.002   2.707   0.428  3.0579  4.1350 -3.5296
  799MOL0     H 7849   7.668   2.381   0.487 -1.2482  2.7449  1.4660
  799MOL0     H 7850   7.541   2.179   0.561  1.0975 -0.2444 -0.5502
  799MOL0     H 7851   6.709   1.442   1.828 -1.0011  1.6471 -1.3171
  799MOL0     H 7852   6.481   1.483   1.839 -0.4871  2.0172 -0.1497
  799MOL0     H 7853   6.105   1.602   1.953  1.0934 -1.0086 -0.0203
  799MOL0     H 7854   5.857   1.642   2.021 -0.6603 -1.4200 -0.4579
  799MOL0     H 7855   5.763   1.453   2.392 -1.1127 -0.6402  0.3649
  799MOL0     H 7856   5.740   1.620   2.365  0.8150 -0.4215  1.1000
  799MOL0     H 7857   5.501   1.599   2.306  1.1200  0.9763  2.2593
  799MOL0     H 7858   5.528   1.517   2.461  0.6778 -0.6227  0.7893
  799MOL0     H 7859   5.547   1.293   2.332 -0.4767 -0.3772  0.2462
  799MOL0     H 7860   5.500   1.380   2.193  0.2974  0.6498  0.3012
  799MOL0     H 7861   5.293   1.306   2.266  2.4490  0.2575 -1.8846
  799MOL0     H 7862   5.294   1.464   2.330 -1.2081  0.1621  3.8506
  799MOL0     H 7863   5.339   1.235   2.690  1.0920 -0.7495  0.3159
  799MOL0     H 7864   5.859   1.298   2.270  0.5500 -0.5613 -0.8249
  799MOL0     H 7865   6.089   1.251   2.220  0.9014  1.0196  1.2025
  800MOL0     O 7866  10.365   5.800   5.742  0.5476  0.3848  0.2552
  800MOL0     C 7867  10.464   5.740   5.785  0.4717 -1.1173  0.0698
  800MOL0     O 7868  10.467   5.640   5.875  0.6823  0.1135 -0.3494
  800MOL0     C 7869  10.337   5.607   5.914  0.2345 -0.2007  0.7658
  800MOL0     C 7870  10.295   5.612   6.049 -0.3155 -0.0778 -0.6072
  800MOL0     C 7871  10.165   5.569   6.092  0.4146  0.6720 -0.4533
  800MOL0     C 7872  10.083   5.499   6.000 -0.5560  0.1212 -0.4893
  800MOL0     O 7873   9.963   5.437   6.028 -0.3661  0.4834 -1.0032
  800MOL0     C 7874   9.922   5.413   6.168  0.1307  0.5486  0.2394
  800MOL0     C 7875   9.775   5.387   6.178  0.4950  0.8047  0.7761
  800MOL0     C 7876   9.729   5.275   6.086 -0.2632 -0.6997  0.0932
  800MOL0     C 7877   9.578   5.247   6.115 -0.1515 -0.6558  0.0475
  800MOL0     C 7878   9.539   5.144   6.008 -0.2210 -0.1301 -0.8385
  800MOL0     C 7879   9.576   4.999   6.040  0.3164 -1.1761  0.7256
  800MOL0     C 7880   9.490   4.921   6.133  0.0802 -0.5754  0.5288
  800MOL0     C 7881   9.348   4.907   6.084  0.4138 -0.0233  0.0764
  800MOL0     N 7882   9.275   4.793   6.151 -0.3485  1.6209 -0.7246
  800MOL0     C 7883   9.155   4.745   6.100 -0.3040 -0.3763 -0.1349
  800MOL0     C 7884   9.128   4.633   6.186 -0.1503  0.4564 -0.0980
  800MOL0     C 7885   9.006   4.539   6.185 -0.0256  0.2603  0.4797
  800MOL0     C 7886   9.044   4.410   6.106  0.1296 -0.0660 -0.2055
  800MOL0     C 7887   9.055   4.290   6.197  0.0459 -0.0728  0.7472
  800MOL0     C 7888   9.203   4.271   6.240 -0.0742 -0.3994  0.0052
  800MOL0     O 7889   9.199   4.144   6.313 -0.1978 -1.1257 -0.1297
  800MOL0     C 7890   9.200   4.146   6.451 -0.1924 -0.0118 -0.9654
  800MOL0     C 7891   9.211   4.025   6.508  0.4099  0.5498 -0.3696
  800MOL0     C 7892   9.245   4.002   6.636 -0.0488  1.1604 -1.2733
  800MOL0     C 7893   9.269   3.857   6.681 -0.3438  0.0763  0.4074
  800MOL0     C 7894   9.254   4.109   6.722 -0.9148  0.2693  0.1404
  800MOL0     C 7895   9.318   4.099   6.862  0.4629 -0.2117 -0.5210
  800MOL0     O 7896   9.327   4.218   6.937 -0.2735 -0.3678 -0.1228
  800MOL0     C 7897   9.357   4.201   7.061  0.5032  0.0962 -0.3272
  800MOL0     C 7898   9.258   4.257   7.145  0.2734 -0.5575  0.2491
  800MOL0     C 7899   9.285   4.257   7.284  0.0829  1.1338 -0.4884
  800MOL0     C 7900   9.390   4.190   7.345  0.2564 -0.6278 -0.3046
  800MOL0     O 7901   9.408   4.171   7.480  0.4697  0.5286 -0.0979
  800MOL0     C 7902   9.372   4.285   7.557  0.4572  0.0039  0.2956
  800MOL0     C 7903   9.400   4.253   7.707  0.4725 -0.8243 -0.6237
  800MOL0     C 7904   9.548   4.197   7.720 -0.3068 -0.2863 -0.1422
  800MOL0     C 7905   9.596   4.174   7.859  0.9359  0.1312  0.8498
  800MOL0     C 7906   9.621   4.304   7.930 -0.6056 -0.6816 -0.6824
  800MOL0     C 7907   9.624   4.287   8.076 -0.8423 -0.4832 -0.1241
  800MOL0     C 7908   9.625   4.417   8.160  0.3261 -0.6055  0.4033
  800MOL0     C 7909   9.652   4.394   8.303  0.1341 -0.4519 -0.4575
  800MOL0    Cl 7910   9.510   4.314   8.374 -0.1757  0.1225  0.0806
  800MOL0     C 7911   9.485   4.134   7.259  0.6625 -0.1474  0.8269
  800MOL0     C 7912   9.470   4.136   7.119  0.6353 -0.2852  0.2405
  800MOL0     O 7913   9.359   3.992   6.902 -0.1372  0.4094  0.2697
  800MOL0     C 7914   9.225   4.240   6.672 -0.2059  0.5746 -0.1519
  800MOL0     C 7915   9.205   4.257   6.540  0.0024 -0.5234  0.9489
  800MOL0     N 7916   9.241   4.612   6.260  0.7785 -0.0204  0.0742
  800MOL0     N 7917   9.320   4.706   6.241 -0.9268  0.6196 -0.0699
  800MOL0     C 7918  10.125   5.483   5.865  0.1394  0.5149 -0.3425
  800MOL0     C 7919  10.246   5.542   5.823  0.5241 -0.5016 -0.3430
  800MOL0     C 7920  10.593   5.761   5.724 -0.8234  0.3292  0.3208
  800MOL0     C 7921  10.706   5.698   5.776  1.5024  0.1581  0.0901
  800MOL0     C 7922  10.828   5.701   5.721 -0.9009  0.2998 -0.1541
  800MOL0     C 7923  10.847   5.770   5.601 -1.1171 -0.1422 -0.5840
  800MOL0     O 7924  10.973   5.780   5.543  0.3763 -0.1541 -0.7108
  800MOL0     C 7925  11.073   5.687   5.592 -0.6340  0.6162  1.2214
  800MOL0     C 7926  11.202   5.702   5.504 -0.8384 -0.0186 -0.0408
  800MOL0     C 7927  11.197   5.619   5.377 -0.0263 -0.2270 -0.3513
  800MOL0     C 7928  11.325   5.623   5.291 -0.0111 -0.7342  0.4879
  800MOL0     C 7929  11.366   5.755   5.247  0.1259  0.3403  0.8924
  800MOL0     C 7930  11.416   5.853   5.208 -0.9260  0.0395 -0.1900
  800MOL0     C 7931  10.743   5.848   5.552 -0.0743 -0.3935  0.3384
  800MOL0     C 7932  10.612   5.839   5.609  0.3395 -0.8341 -0.0869
  800MOL0     H 7933  10.370   5.651   6.117 -0.9351  0.8316 -0.4366
  800MOL0     H 7934  10.136   5.585   6.195  1.5938  0.1258 -0.0124
  800MOL0     H 7935   9.970   5.322   6.206 -0.0826  0.3291 -0.0122
  800MOL0     H 7936   9.948   5.480   6.251 -0.6470 -1.3187  2.0864
  800MOL0     H 7937   9.766   5.353   6.281 -0.2590 -2.9129 -0.3485
  800MOL0     H 7938   9.709   5.473   6.164 -0.6832 -0.5357 -3.6180
  800MOL0     H 7939   9.760   5.299   5.984  2.6904  3.4223  1.6773
  800MOL0     H 7940   9.776   5.181   6.114 -1.3426 -1.1366  0.4688
  800MOL0     H 7941   9.566   5.206   6.216 -1.0842 -2.5178 -0.7641
  800MOL0     H 7942   9.518   5.338   6.107 -3.7741 -2.6960  1.4729
  800MOL0     H 7943   9.436   5.156   5.975 -0.7413 -1.2491  0.2986
  800MOL0     H 7944   9.609   5.150   5.924  0.9801 -1.1087  0.0581
  800MOL0     H 7945   9.575   4.940   5.948 -1.8757  0.0576 -0.1172
  800MOL0     H 7946   9.682   5.007   6.064  0.6157  1.3039 -1.0305
  800MOL0     H 7947   9.540   4.825   6.149  1.1333 -0.4805 -1.8303
  800MOL0     H 7948   9.503   4.974   6.228  2.8917  2.3444 -1.2928
  800MOL0     H 7949   9.345   4.894   5.975  1.7046 -1.1739  0.1543
  800MOL0     H 7950   9.299   5.003   6.099 -2.0858 -1.2458  0.2626
  800MOL0     H 7951   9.102   4.799   6.022  0.1011  1.8160  1.0189
  800MOL0     H 7952   8.983   4.514   6.289  1.4515 -4.1845 -0.0789
  800MOL0     H 7953   8.930   4.606   6.144 -1.0375 -0.1845  1.5730
  800MOL0     H 7954   9.142   4.421   6.060  0.0651 -0.9822 -0.5800
  800MOL0     H 7955   8.967   4.396   6.029 -0.6853  0.7630  0.4292
  800MOL0     H 7956   9.032   4.196   6.146  2.9459 -1.1511  1.2462
  800MOL0     H 7957   8.990   4.301   6.285 -1.7425 -2.3920 -0.1681
  800MOL0     H 7958   9.252   4.356   6.289  1.8198  0.7456 -3.4689
  800MOL0     H 7959   9.263   4.261   6.149  0.7229 -1.4555  0.6355
  800MOL0     H 7960   9.212   3.945   6.434 -3.6350  0.2128 -0.2515
  800MOL0     H 7961   9.216   3.823   6.770 -0.8386  1.0186  0.4880
  800MOL0     H 7962   9.245   3.789   6.599  0.8731 -0.9033  0.8233
  800MOL0     H 7963   9.377   3.839   6.685 -0.0450  1.8192  3.4963
  800MOL0     H 7964   9.171   4.314   7.116  0.5116  0.4508  1.4180
  800MOL0     H 7965   9.212   4.309   7.345 -2.2586  0.0491 -2.2190
  800MOL0     H 7966   9.432   4.372   7.529 -1.1575  0.6293 -1.4244
  800MOL0     H 7967   9.267   4.315   7.546  0.1800 -0.9476  0.2960
  800MOL0     H 7968   9.388   4.342   7.768  4.1198  1.6215 -3.0956
  800MOL0     H 7969   9.334   4.170   7.735 -0.9889 -0.0265 -1.5565
  800MOL0     H 7970   9.608   4.272   7.668  0.4427 -0.4613  0.4517
  800MOL0     H 7971   9.550   4.101   7.670 -3.3242 -1.6062  1.9858
  800MOL0     H 7972   9.524   4.113   7.915  0.6451 -0.6866 -0.3648
  800MOL0     H 7973   9.687   4.115   7.844  1.4238  0.2813  3.0187
  800MOL0     H 7974   9.532   4.366   7.915 -2.2211 -1.7948  3.0732
  800MOL0     H 7975   9.700   4.367   7.889 -1.6478  1.0414 -0.1264
  800MOL0     H 7976   9.541   4.226   8.112 -0.9001 -1.0301 -1.1396
  800MOL0     H 7977   9.715   4.230   8.097  0.3282 -0.4707 -4.3052
  800MOL0     H 7978   9.536   4.475   8.135  0.6737  0.5282  1.6852
  800MOL0     H 7979   9.717   4.466   8.125  0.3461 -1.3008 -0.5502
  800MOL0     H 7980   9.659   4.486   8.363 -1.4061  0.2137 -1.2438
  800MOL0     H 7981   9.743   4.338   8.327  0.1588 -1.2141 -2.2233
  800MOL0     H 7982   9.582   4.102   7.296  1.5846 -0.0716 -1.3357
  800MOL0     H 7983   9.551   4.123   7.048 -0.2401  0.8646 -1.0256
  800MOL0     H 7984   9.226   4.328   6.736  0.5437  1.2588 -1.0876
  800MOL0     H 7985   9.188   4.355   6.496 -0.5582 -0.8667  0.3760
  800MOL0     H 7986  10.070   5.415   5.802  1.0096 -1.9923  1.4391
  800MOL0     H 7987  10.271   5.526   5.719 -4.1043 -0.4130 -1.6948
  800MOL0     H 7988  10.694   5.640   5.867 -3.6660 -0.0762 -0.4436
  800MOL0     H 7989  10.903   5.638   5.768 -0.2319 -3.0390 -5.0189
  800MOL0     H 7990  11.094   5.720   5.694 -2.2428  1.5758  1.2695
  800MOL0     H 7991  11.031   5.587   5.588  0.6013  0.0944  0.7187
  800MOL0     H 7992  11.291   5.672   5.559 -0.3614  0.5022 -0.5217
  800MOL0     H 7993  11.217   5.807   5.475 -1.3179  0.0321 -0.1280
  800MOL0     H 7994  11.114   5.656   5.316 -2.2290 -3.4432  0.4053
  800MOL0     H 7995  11.175   5.514   5.400  2.3102 -0.3246  1.8560
  800MOL0     H 7996  11.299   5.562   5.204 -0.8230 -1.3326  1.1377
  800MOL0     H 7997  11.414   5.581   5.338 -1.0263 -2.7046  0.7820
  800MOL0     H 7998  11.463   5.945   5.180  0.7725 -0.6368  0.2930
  800MOL0     H 7999  10.760   5.909   5.463 -0.2853 -2.0361 -0.8818
  800MOL0     H 8000  10.531   5.896   5.564  1.5128  2.4714  1.6739
  801MOL0     O 8001   8.794   5.920   3.703  0.1115  0.9321  0.7536
  801MOL0     C 8002   8.718   5.833   3.655 -0.2093 -0.3081 -0.2406
  801MOL0     O 8003   8.761   5.713   3.598 -0.1075  0.0905 -0.0694
  801MOL0     C 8004   8.893   5.687   3.559  0.3495  0.1344  0.4751
  801MOL0     C 8005   8.924   5.553   3.540 -0.4211  0.1598  0.9752
  801MOL0     C 8006   9.051   5.518   3.491  0.4050 -0.2033 -0.3119
  801MOL0     C 8007   9.140   5.618   3.464 -1.0724  0.2509  0.5528
  801MOL0     O 8008   9.255   5.575   3.408 -0.7690  0.9641 -0.2254
  801MOL0     C 8009   9.274   5.596   3.273 -0.0716  0.1164 -0.0455
  801MOL0     C 8010   9.396   5.523   3.224  0.4793 -0.2546  0.6504
  801MOL0     C 8011   9.534   5.574   3.279 -0.2566 -0.2994 -0.3911
  801MOL0     C 8012   9.652   5.508   3.198 -1.1166  0.5614 -0.7220
  801MOL0     C 8013   9.788   5.574   3.240  1.5425  0.8428 -0.5677
  801MOL0     C 8014   9.808   5.716   3.187  0.0914 -0.2664  0.0268
  801MOL0     C 8015   9.941   5.782   3.218  0.4687 -0.2960  0.1086
  801MOL0     C 8016   9.938   5.931   3.183  0.1389  0.4701  0.1321
  801MOL0     N 8017   9.985   5.975   3.041 -0.0721  0.7275 -0.3122
  801MOL0     C 8018  10.108   5.931   2.993  0.1485 -1.1670 -0.4234
  801MOL0     C 8019  10.115   5.990   2.871 -1.0408 -0.5362  0.1477
  801MOL0     C 8020  10.251   6.001   2.798  0.6939  0.2967  0.3553
  801MOL0     C 8021  10.302   6.150   2.832  0.5671  0.4797  0.9009
  801MOL0     C 8022  10.228   6.258   2.754  0.8290  0.0419  0.4824
  801MOL0     C 8023  10.264   6.398   2.797 -0.7932  0.4598  0.4253
  801MOL0     O 8024  10.233   6.428   2.935 -0.8316  0.5124 -0.4499
  801MOL0     C 8025  10.105   6.422   2.977  0.1165 -0.2308 -0.0009
  801MOL0     C 8026  10.095   6.367   3.104 -0.6087 -0.0200 -0.5906
  801MOL0     C 8027   9.979   6.382   3.180 -0.0265 -0.2459  0.0232
  801MOL0     C 8028   9.994   6.305   3.303  0.3508 -0.1256 -0.7680
  801MOL0     C 8029   9.858   6.442   3.118 -0.1289 -0.5144  0.2663
  801MOL0     C 8030   9.736   6.476   3.188 -0.3047 -0.1427  1.0991
  801MOL0     O 8031   9.630   6.527   3.108  0.3740  0.1289  0.0389
  801MOL0     C 8032   9.520   6.575   3.176 -0.5616  1.2050  0.5972
  801MOL0     C 8033   9.514   6.687   3.256 -0.7341  0.4485 -0.7261
  801MOL0     C 8034   9.401   6.716   3.333  0.6130  0.4398  0.8313
  801MOL0     C 8035   9.284   6.638   3.309  0.3262 -0.8610  0.0494
  801MOL0     O 8036   9.174   6.671   3.391 -0.7041 -0.6277  0.3591
  801MOL0     C 8037   9.060   6.581   3.411 -0.3816 -0.3438  0.6312
  801MOL0     C 8038   8.980   6.619   3.529 -0.4016  0.6849 -0.5782
  801MOL0     C 8039   8.937   6.767   3.528 -0.3678 -0.1555  0.6736
  801MOL0     C 8040   8.892   6.813   3.664  0.2703  0.0313 -0.5190
  801MOL0     C 8041   8.767   6.744   3.709  0.9078 -0.1782 -0.8362
  801MOL0     C 8042   8.686   6.847   3.794 -0.6549 -0.1914 -0.1299
  801MOL0     C 8043   8.542   6.813   3.812 -0.3171  0.0674 -0.2057
  801MOL0     C 8044   8.476   6.912   3.913  0.2699  0.3371 -0.6024
  801MOL0    Cl 8045   8.301   6.855   3.943  0.1368  0.1034 -0.2705
  801MOL0     C 8046   9.283   6.530   3.223 -0.3176  0.7096  0.1855
  801MOL0     C 8047   9.400   6.500   3.154 -0.3728  0.1134  0.0227
  801MOL0     O 8048   9.740   6.482   3.310 -0.7112 -0.8935 -0.1289
  801MOL0     C 8049   9.866   6.462   2.981 -0.0114  0.1907 -1.3523
  801MOL0     C 8050   9.987   6.456   2.911  0.1434  0.5611 -0.5227
  801MOL0     N 8051   9.990   6.048   2.841  0.6372  0.3265 -0.1991
  801MOL0     N 8052   9.915   6.043   2.948 -0.4608 -0.7990 -0.3726
  801MOL0     C 8053   9.112   5.754   3.478  1.0702 -0.6021 -0.7831
  801MOL0     C 8054   8.990   5.787   3.530 -0.8650  0.2904 -0.3430
  801MOL0     C 8055   8.576   5.859   3.671 -0.7005 -0.2497 -0.0044
  801MOL0     C 8056   8.526   5.980   3.668  0.0451 -0.6890 -1.0688
  801MOL0     C 8057   8.384   5.999   3.677 -1.0889  0.6296 -0.0180
  801MOL0     C 8058   8.297   5.887   3.700  0.3429  0.1789  0.4677
  801MOL0     O 8059   8.159   5.907   3.692 -0.7288 -0.0647 -1.0087
  801MOL0     C 8060   8.070   5.800   3.728  0.4832  0.0147  0.8617
  801MOL0     C 8061   8.003   5.737   3.606 -0.4858  0.6559  0.1810
  801MOL0     C 8062   8.090   5.629   3.533 -0.2754 -0.4163 -0.3092
  801MOL0     C 8063   8.018   5.547   3.435 -0.3933  0.7190  0.1219
  801MOL0     C 8064   7.938   5.441   3.497 -0.5949  0.2079 -0.4403
  801MOL0     C 8065   7.879   5.361   3.568 -0.0031 -0.2542 -0.9066
  801MOL0     C 8066   8.357   5.763   3.724  0.1118  0.3277 -0.5279
  801MOL0     C 8067   8.493   5.752   3.707 -1.3472  0.1973 -0.2738
  801MOL0     H 8068   8.848   5.477   3.549 -0.3490  0.1014  1.0887
  801MOL0     H 8069   9.078   5.417   3.462  0.2033  0.6041 -3.6738
  801MOL0     H 8070   9.183   5.568   3.219 -0.4801  1.4934 -0.1152
  801MOL0     H 8071   9.285   5.704   3.260  1.7886  0.3148  2.3650
  801MOL0     H 8072   9.375   5.420   3.256  0.6924 -1.5739 -3.0389
  801MOL0     H 8073   9.406   5.528   3.116  0.7042 -0.7458  0.6438
  801MOL0     H 8074   9.532   5.683   3.268  0.2833 -0.1501  0.8036
  801MOL0     H 8075   9.539   5.550   3.386 -2.9148  1.5809  0.2604
  801MOL0     H 8076   9.661   5.404   3.231 -0.4945  0.3061 -1.6534
  801MOL0     H 8077   9.633   5.521   3.091  0.3250 -0.7266 -1.1701
  801MOL0     H 8078   9.797   5.584   3.348  4.5333  1.3723 -0.7737
  801MOL0     H 8079   9.875   5.512   3.215  1.4203  0.7724 -0.8306
  801MOL0     H 8080   9.783   5.727   3.081  1.6827  1.7842 -0.2205
  801MOL0     H 8081   9.723   5.768   3.232 -0.9600 -1.2688 -0.7323
  801MOL0     H 8082   9.952   5.771   3.327  0.4212 -3.9277 -0.1283
  801MOL0     H 8083  10.024   5.724   3.178  0.0298 -1.7841  1.2462
  801MOL0     H 8084  10.012   5.981   3.246  0.0736  1.3593 -0.4752
  801MOL0     H 8085   9.833   5.958   3.200 -0.2656 -1.2510  0.5364
  801MOL0     H 8086  10.194   5.881   3.035 -1.0981 -2.3374  0.8644
  801MOL0     H 8087  10.333   5.935   2.828 -0.4830 -2.5131 -2.1312
  801MOL0     H 8088  10.240   5.976   2.692 -1.6386 -2.5911  1.1424
  801MOL0     H 8089  10.404   6.153   2.794  1.3473 -3.3624  2.2411
  801MOL0     H 8090  10.299   6.161   2.940  3.7821  0.5670  1.0672
  801MOL0     H 8091  10.120   6.255   2.770  0.5352  1.7687 -0.7720
  801MOL0     H 8092  10.245   6.248   2.646 -0.5276  1.7867  0.0606
  801MOL0     H 8093  10.202   6.471   2.743 -1.7059  1.1757  2.3292
  801MOL0     H 8094  10.372   6.408   2.782 -0.8036  2.9117  1.5388
  801MOL0     H 8095  10.188   6.336   3.149  1.3446  2.5830 -2.4913
  801MOL0     H 8096   9.898   6.270   3.342  0.1760  1.5881  0.4396
  801MOL0     H 8097  10.065   6.222   3.287  3.2454  2.0516 -0.1210
  801MOL0     H 8098  10.034   6.354   3.392  2.6707 -0.4111 -1.5841
  801MOL0     H 8099   9.601   6.750   3.274  1.0306 -1.3086 -2.5661
  801MOL0     H 8100   9.391   6.799   3.402 -2.5814  0.0330  1.0087
  801MOL0     H 8101   9.006   6.570   3.316  0.0138  0.4227  0.3062
  801MOL0     H 8102   9.089   6.475   3.415 -1.2877 -0.7478 -1.6886
  801MOL0     H 8103   8.899   6.549   3.551  2.3954 -2.4710  0.3560
  801MOL0     H 8104   9.046   6.606   3.616  2.5175  0.5658 -2.6770
  801MOL0     H 8105   8.852   6.787   3.462 -0.2044 -1.5461  0.0208
  801MOL0     H 8106   9.026   6.825   3.499 -0.3247 -0.5915 -0.0968
  801MOL0     H 8107   8.961   6.789   3.745  1.1273  0.1987 -1.1873
  801MOL0     H 8108   8.881   6.922   3.666 -1.1258 -0.0933 -0.1597
  801MOL0     H 8109   8.779   6.644   3.752 -0.9715  0.2286  0.7832
  801MOL0     H 8110   8.698   6.731   3.626 -1.3086  1.9449  0.5288
  801MOL0     H 8111   8.729   6.861   3.894  0.2040  3.1676 -0.8496
  801MOL0     H 8112   8.688   6.950   3.755 -0.2945 -0.1066  0.1128
  801MOL0     H 8113   8.540   6.718   3.866  1.0211  0.4755  0.5965
  801MOL0     H 8114   8.496   6.803   3.713  1.5897 -3.6782 -0.8874
  801MOL0     H 8115   8.477   7.014   3.875  0.2200  0.6184  0.1229
  801MOL0     H 8116   8.519   6.914   4.014  1.5532  1.7136 -1.1385
  801MOL0     H 8117   9.191   6.478   3.198  0.7169 -0.0542 -2.3791
  801MOL0     H 8118   9.404   6.421   3.080 -1.4151 -0.3430  0.4292
  801MOL0     H 8119   9.785   6.495   2.917 -0.7462 -2.3694 -1.8724
  801MOL0     H 8120   9.984   6.502   2.813  1.8197 -0.2007 -0.9653
  801MOL0     H 8121   9.171   5.832   3.431 -1.3733  1.7228 -0.2453
  801MOL0     H 8122   8.961   5.891   3.542  1.6532  1.3038 -2.1403
  801MOL0     H 8123   8.597   6.060   3.647  6.1607 -5.5549 -1.7742
  801MOL0     H 8124   8.342   6.099   3.673 -3.5775 -0.3958 -2.7296
  801MOL0     H 8125   8.104   5.721   3.796 -2.8600 -3.1534 -0.7863
  801MOL0     H 8126   7.982   5.839   3.781  0.0234  0.9904 -0.5685
  801MOL0     H 8127   7.967   5.814   3.537 -3.9791 -1.5380 -0.7372
  801MOL0     H 8128   7.910   5.694   3.644 -1.3819  3.1604  1.0320
  801MOL0     H 8129   8.127   5.563   3.612 -3.2981 -2.2888 -0.3108
  801MOL0     H 8130   8.169   5.680   3.476  1.0868  0.9088  2.5456
  801MOL0     H 8131   8.092   5.491   3.378 -0.7097  0.0247  0.3833
  801MOL0     H 8132   7.948   5.610   3.377 -0.8091  1.0675  0.9860
  801MOL0     H 8133   7.828   5.291   3.632 -0.0426  1.3409  0.8994
  801MOL0     H 8134   8.299   5.680   3.763 -1.0584  1.9317  1.3223
  801MOL0     H 8135   8.545   5.657   3.714  2.1580  2.0607  1.5758
  802MOL0     O 8136   2.217   7.747   2.581  0.6667 -1.2903 -0.1428
  802MOL0     C 8137   2.174   7.839   2.508  0.7928 -0.0230 -0.7690
  802MOL0     O 8138   2.083   7.928   2.553 -0.1297 -0.3686 -0.5130
  802MOL0     C 8139   2.038   7.939   2.683  0.3106  0.2459  0.2598
  802MOL0     C 8140   2.099   7.905   2.800  0.2135  0.4315  0.6072
  802MOL0     C 8141   2.037   7.926   2.929 -0.5122  0.2986  0.4891
  802MOL0     C 8142   1.909   7.991   2.935  0.6732 -0.1449 -0.2856
  802MOL0     O 8143   1.848   8.028   3.048  0.5258 -1.4661  0.0781
  802MOL0     C 8144   1.910   7.997   3.168 -0.3594 -0.3021 -0.0224
  802MOL0     C 8145   2.028   8.096   3.221 -0.3147  0.9506  0.3283
  802MOL0     C 8146   2.002   8.242   3.178  0.3975 -0.6280 -0.1211
  802MOL0     C 8147   1.880   8.301   3.258 -0.1582  0.3090  0.3147
  802MOL0     C 8148   1.867   8.453   3.243  0.1083 -0.3815  0.2086
  802MOL0     C 8149   1.728   8.492   3.295  0.7421  0.2119  0.3900
  802MOL0     C 8150   1.686   8.633   3.273 -0.9038 -0.0743  0.3498
  802MOL0     C 8151   1.772   8.736   3.345 -0.0653 -0.0137 -0.3637
  802MOL0     N 8152   1.737   8.881   3.300 -0.3992  0.4900  0.4362
  802MOL0     C 8153   1.618   8.955   3.299 -1.3608 -0.3076 -0.9088
  802MOL0     C 8154   1.639   9.061   3.214 -0.0050  0.6650 -0.6151
  802MOL0     C 8155   1.540   9.176   3.180  0.0757 -0.6487 -0.0365
  802MOL0     C 8156   1.398   9.130   3.158 -0.3320 -0.0347 -0.3058
  802MOL0     C 8157   1.359   9.111   3.016  0.3015 -0.0721 -0.6461
  802MOL0     C 8158   1.225   9.038   3.010 -0.1880  0.2661 -0.2725
  802MOL0     O 8159   1.112   9.100   3.075 -0.5559 -0.0171 -0.6835
  802MOL0     C 8160   1.006   9.147   3.001 -0.3651 -0.5016  0.1373
  802MOL0     C 8161   1.019   9.230   2.885 -0.7234  0.6274 -0.2636
  802MOL0     C 8162   0.913   9.266   2.798 -0.0418 -1.5672 -0.2323
  802MOL0     C 8163   0.959   9.312   2.665  0.1415 -0.3734 -0.3946
  802MOL0     C 8164   0.778   9.223   2.824 -0.4291 -0.2717  0.0681
  802MOL0     C 8165   0.659   9.252   2.747 -0.0179  0.3488  0.2359
  802MOL0     O 8166   0.560   9.156   2.743 -0.4452  0.5792 -0.4650
  802MOL0     C 8167   0.451   9.187   2.671  0.7579 -0.2127  0.4573
  802MOL0     C 8168   0.342   9.265   2.728  0.6423  0.5096  0.2502
  802MOL0     C 8169   0.238   9.315   2.651 -0.2296 -0.4440 -0.0489
  802MOL0     C 8170   0.236   9.295   2.511  0.0904 -0.3170 -0.0645
  802MOL0     O 8171   0.130   9.355   2.444 -0.3184 -0.2918  0.0200
  802MOL0     C 8172   0.144   9.365   2.302 -0.4598  0.5284 -0.2101
  802MOL0     C 8173   0.041   9.468   2.241  0.1677  0.2580  0.2292
  802MOL0     C 8174  -0.092   9.452   2.301  0.8560 -0.3621 -0.9913
  802MOL0     C 8175  -0.161   9.311   2.296  0.4485  0.0832 -0.2110
  802MOL0     C 8176  -0.162   9.228   2.170  1.0917 -0.0314 -0.3045
  802MOL0     C 8177  -0.261   9.278   2.069  0.1449 -1.2278 -0.7216
  802MOL0     C 8178  -0.272   9.197   1.940 -0.1817 -0.4023 -0.3542
  802MOL0     C 8179  -0.356   9.270   1.840 -0.2566 -0.1244  0.7990
  802MOL0    Cl 8180  -0.425   9.151   1.719  0.0312  0.0397  0.0441
  802MOL0     C 8181   0.335   9.213   2.453 -0.1958  0.0751 -0.8388
  802MOL0     C 8182   0.445   9.160   2.533 -0.3635 -0.3491  0.5598
  802MOL0     O 8183   0.663   9.353   2.670  0.0182 -0.6031 -0.7425
  802MOL0     C 8184   0.763   9.141   2.947 -1.0418  0.0214  0.7933
  802MOL0     C 8185   0.876   9.110   3.028  0.7847  0.9330 -0.7475
  802MOL0     N 8186   1.779   9.056   3.170  0.4428  0.8514  0.2910
  802MOL0     N 8187   1.833   8.942   3.224  0.2084 -0.5505  0.1627
  802MOL0     C 8188   1.842   8.022   2.804  0.3956  0.8214  0.2091
  802MOL0     C 8189   1.906   7.993   2.685  0.3398 -0.4416  0.8153
  802MOL0     C 8190   2.227   7.856   2.373 -1.1186 -1.2881  0.1906
  802MOL0     C 8191   2.208   7.971   2.295  0.2557 -0.3292  0.5919
  802MOL0     C 8192   2.260   7.973   2.168 -0.3341  0.0547 -0.6697
  802MOL0     C 8193   2.353   7.873   2.127 -0.2255 -0.3645  0.9773
  802MOL0     O 8194   2.407   7.879   2.001  0.3434 -0.4940 -0.2851
  802MOL0     C 8195   2.317   7.884   1.889 -0.4180 -0.5165 -0.4788
  802MOL0     C 8196   2.361   7.789   1.775 -0.0412  0.6908 -0.4534
  802MOL0     C 8197   2.360   7.641   1.809  0.4508 -0.1186  0.1103
  802MOL0     C 8198   2.406   7.549   1.693  0.1242  0.2388  0.7713
  802MOL0     C 8199   2.343   7.556   1.555 -0.7977 -0.2782  0.0741
  802MOL0     C 8200   2.303   7.539   1.437 -1.5784 -0.7577 -0.5555
  802MOL0     C 8201   2.366   7.758   2.201 -0.3346 -0.9051 -0.3183
  802MOL0     C 8202   2.299   7.750   2.323  0.0285 -0.2539  0.0275
  802MOL0     H 8203   2.193   7.851   2.795 -0.2661 -0.7444  2.9200
  802MOL0     H 8204   2.088   7.890   3.018 -0.5619 -0.0890  0.3640
  802MOL0     H 8205   1.825   8.008   3.236 -0.1265 -1.6542  0.5165
  802MOL0     H 8206   1.940   7.892   3.177 -2.2753 -0.9724 -1.0444
  802MOL0     H 8207   2.028   8.097   3.330 -0.9299  1.6437  0.3289
  802MOL0     H 8208   2.125   8.061   3.185 -1.1512 -1.3680  0.1434
  802MOL0     H 8209   2.101   8.288   3.188  0.6603 -1.4636  1.5360
  802MOL0     H 8210   1.974   8.238   3.072  1.4348 -0.9217 -0.3995
  802MOL0     H 8211   1.785   8.268   3.215  0.2262  0.3356 -0.5747
  802MOL0     H 8212   1.890   8.285   3.365 -1.1130  1.2654  0.5653
  802MOL0     H 8213   1.951   8.489   3.302  1.3304 -1.4441 -0.8210
  802MOL0     H 8214   1.879   8.499   3.144 -1.4217 -1.6865 -0.6405
  802MOL0     H 8215   1.649   8.438   3.242 -0.6585 -0.5859  3.1425
  802MOL0     H 8216   1.725   8.466   3.401  0.9259 -1.4101  0.0199
  802MOL0     H 8217   1.697   8.651   3.165 -1.8257  1.3956  0.4843
  802MOL0     H 8218   1.588   8.662   3.311  0.1805  2.5086  1.3488
  802MOL0     H 8219   1.878   8.713   3.337  0.5234  1.4691  2.0705
  802MOL0     H 8220   1.741   8.728   3.450 -2.2108  0.1827 -0.9281
  802MOL0     H 8221   1.526   8.919   3.344 -1.7659  0.9112 -0.7107
  802MOL0     H 8222   1.544   9.246   3.265 -0.0497  0.6480 -1.0697
  802MOL0     H 8223   1.552   9.230   3.086 -1.4056 -0.2379 -0.0197
  802MOL0     H 8224   1.339   9.211   3.202  2.0491  1.5898  0.0670
  802MOL0     H 8225   1.365   9.053   3.229  1.7613 -0.0602  0.7086
  802MOL0     H 8226   1.437   9.058   2.960  1.6744 -0.6457  1.7044
  802MOL0     H 8227   1.360   9.206   2.963  1.7430 -0.9081 -2.2343
  802MOL0     H 8228   1.239   8.938   3.051  0.5424 -0.7291 -2.7338
  802MOL0     H 8229   1.193   9.020   2.907  1.0385 -0.0408 -0.6094
  802MOL0     H 8230   1.123   9.252   2.865 -0.0860 -2.1417 -0.3449
  802MOL0     H 8231   0.973   9.420   2.669 -0.7384 -0.2652  3.3720
  802MOL0     H 8232   1.049   9.259   2.634 -1.2165 -2.6655 -0.6751
  802MOL0     H 8233   0.885   9.280   2.590 -0.7335 -4.2810  1.8386
  802MOL0     H 8234   0.335   9.280   2.835 -3.3043 -0.2067  0.2704
  802MOL0     H 8235   0.156   9.375   2.690 -0.1912 -1.2457  1.3190
  802MOL0     H 8236   0.247   9.387   2.271 -1.3043 -0.5676 -4.4224
  802MOL0     H 8237   0.119   9.267   2.261 -0.3283 -1.1945  3.4280
  802MOL0     H 8238   0.077   9.571   2.254 -1.1719  0.6761  0.7979
  802MOL0     H 8239   0.036   9.445   2.135 -0.0243 -1.1692  0.5215
  802MOL0     H 8240  -0.158   9.521   2.248 -0.1126  0.6992  1.4701
  802MOL0     H 8241  -0.077   9.479   2.406 -3.1593 -0.5977 -0.1906
  802MOL0     H 8242  -0.112   9.252   2.373 -0.8967 -0.1144  0.5284
  802MOL0     H 8243  -0.260   9.323   2.341  1.1024  0.9762  1.0639
  802MOL0     H 8244  -0.175   9.123   2.196 -0.8855  0.4600  0.9110
  802MOL0     H 8245  -0.065   9.239   2.121  0.8820 -0.3031 -0.7868
  802MOL0     H 8246  -0.358   9.279   2.119  1.1619  0.9544  1.3765
  802MOL0     H 8247  -0.250   9.385   2.050 -2.0185 -0.5349  1.4268
  802MOL0     H 8248  -0.323   9.103   1.960 -3.5387  0.6319 -3.1516
  802MOL0     H 8249  -0.176   9.184   1.890 -0.7605  0.9633 -1.9063
  802MOL0     H 8250  -0.286   9.332   1.783 -2.4277 -0.8657 -2.9549
  802MOL0     H 8251  -0.440   9.330   1.875 -1.6652  0.5247 -3.2067
  802MOL0     H 8252   0.342   9.193   2.347  0.4347 -2.2435 -0.4129
  802MOL0     H 8253   0.524   9.105   2.483 -0.5112 -0.6025  0.6040
  802MOL0     H 8254   0.668   9.103   2.983 -2.0563 -0.8306 -2.4322
  802MOL0     H 8255   0.855   9.041   3.109  1.5919 -0.3055 -1.5488
  802MOL0     H 8256   1.742   8.063   2.811 -0.1879 -0.6281  0.7723
  802MOL0     H 8257   1.839   8.033   2.609 -0.1101 -0.5297  1.1600
  802MOL0     H 8258   2.147   8.051   2.336  2.7665  0.9503  2.0637
  802MOL0     H 8259   2.244   8.067   2.116 -2.0486 -0.4235 -1.0425
  802MOL0     H 8260   2.215   7.851   1.910 -0.6616 -2.2056 -3.6921
  802MOL0     H 8261   2.305   7.988   1.859  2.6500 -0.1235 -0.6598
  802MOL0     H 8262   2.462   7.815   1.741 -0.5048 -0.3134 -2.8135
  802MOL0     H 8263   2.295   7.788   1.688 -0.5036 -3.3006 -0.2624
  802MOL0     H 8264   2.261   7.597   1.828  1.3810 -2.1276  0.5339
  802MOL0     H 8265   2.430   7.624   1.891 -0.7703 -0.9983  1.0198
  802MOL0     H 8266   2.401   7.443   1.718  0.0664 -0.3339 -1.5247
  802MOL0     H 8267   2.508   7.574   1.664 -0.1913  1.4633  0.6435
  802MOL0     H 8268   2.248   7.537   1.345 -0.3448 -0.9859 -1.3098
  802MOL0     H 8269   2.407   7.675   2.144  0.7572  0.5735 -1.7481
  802MOL0     H 8270   2.308   7.657   2.379 -2.4859  0.9415  2.6238
  803MOL0     O 8271   8.077   8.282   2.148  0.0823  0.5375  0.0103
  803MOL0     C 8272   8.087   8.199   2.241 -0.0846 -0.4323  0.1369
  803MOL0     O 8273   8.007   8.201   2.348 -0.2270  0.4224 -0.3712
  803MOL0     C 8274   7.901   8.297   2.354 -0.5445  0.4972  0.2953
  803MOL0     C 8275   7.786   8.244   2.408 -0.2518 -0.3354 -0.2439
  803MOL0     C 8276   7.672   8.322   2.411 -0.5585 -0.3089  1.0752
  803MOL0     C 8277   7.678   8.453   2.351 -0.1916 -0.1201 -0.5822
  803MOL0     O 8278   7.567   8.535   2.360 -0.4088  0.9182  0.6717
  803MOL0     C 8279   7.581   8.681   2.372  0.1646  0.4953  0.0905
  803MOL0     C 8280   7.452   8.748   2.341 -0.2965 -0.3015 -0.9741
  803MOL0     C 8281   7.385   8.797   2.473 -0.1823  0.0544 -0.5426
  803MOL0     C 8282   7.239   8.848   2.455  0.4396  0.6461 -0.0217
  803MOL0     C 8283   7.156   8.874   2.589  0.9562  0.0689  0.2759
  803MOL0     C 8284   7.029   8.966   2.563  0.2961 -0.3187 -0.1246
  803MOL0     C 8285   6.901   8.943   2.633 -0.2790  0.5184 -0.2855
  803MOL0     C 8286   6.928   8.943   2.787 -0.1040 -0.2320  0.8008
  803MOL0     N 8287   6.973   9.078   2.830  0.3547  0.4988  0.2235
  803MOL0     C 8288   6.931   9.201   2.789  0.9681 -0.1540 -0.0761
  803MOL0     C 8289   6.929   9.278   2.898  0.7857 -1.0941  0.6887
  803MOL0     C 8290   6.846   9.414   2.910 -0.7341 -0.4935 -0.5120
  803MOL0     C 8291   6.929   9.534   2.843  0.1957 -0.4727  0.8665
  803MOL0     C 8292   6.852   9.674   2.861 -0.0291 -0.6883  0.0807
  803MOL0     C 8293   6.958   9.788   2.860  0.2653 -0.6389  0.0782
  803MOL0     O 8294   7.001   9.772   2.726  0.4927  0.2798  0.2829
  803MOL0     C 8295   7.121   9.819   2.684  0.2631 -1.0413 -0.6647
  803MOL0     C 8296   7.199   9.913   2.756  0.5947  0.0080  0.3911
  803MOL0     C 8297   7.310   9.980   2.693 -0.8924  0.2866 -0.5748
  803MOL0     C 8298   7.378  10.084   2.769 -0.3095 -0.3532  0.5494
  803MOL0     C 8299   7.351   9.941   2.563  0.2928 -0.1499  0.5722
  803MOL0     C 8300   7.460  10.010   2.501 -0.4364 -0.2869  0.4015
  803MOL0     O 8301   7.570   9.947   2.461 -0.1491  0.2380 -0.4907
  803MOL0     C 8302   7.688  10.009   2.447  0.8597  0.3851 -0.1965
  803MOL0     C 8303   7.719  10.068   2.319  0.4654  0.7330 -0.7605
  803MOL0     C 8304   7.844  10.132   2.305 -0.0419 -0.0026  0.2503
  803MOL0     C 8305   7.941  10.132   2.410  0.8296  0.0312  0.2703
  803MOL0     O 8306   8.066  10.193   2.399 -0.7637 -0.2548  0.0162
  803MOL0     C 8307   8.090  10.309   2.313 -0.7943 -0.3015  0.1156
  803MOL0     C 8308   8.153  10.278   2.183  0.3536 -0.4690  0.4404
  803MOL0     C 8309   8.211  10.400   2.106 -0.3472 -0.5694 -0.0301
  803MOL0     C 8310   8.338  10.468   2.176 -0.0826 -0.4460 -0.2086
  803MOL0     C 8311   8.362  10.600   2.098  0.0665  0.3766 -0.1519
  803MOL0     C 8312   8.510  10.641   2.090 -0.1215  0.8805 -0.7359
  803MOL0     C 8313   8.534  10.760   1.998  0.1036  0.3025 -0.1862
  803MOL0     C 8314   8.676  10.780   1.957  0.7447 -0.1853 -0.4637
  803MOL0    Cl 8315   8.692  10.952   1.908  0.2445 -0.0292  0.0790
  803MOL0     C 8316   7.905  10.079   2.535  0.4036  1.0609 -0.0274
  803MOL0     C 8317   7.777  10.019   2.549  0.2665 -0.3070 -0.0472
  803MOL0     O 8318   7.436  10.130   2.470  0.1227  0.2908  0.3936
  803MOL0     C 8319   7.258   9.858   2.495  0.0062  0.5776  0.3814
  803MOL0     C 8320   7.151   9.782   2.555  0.5083 -0.3871 -0.1373
  803MOL0     N 8321   6.999   9.210   2.995  0.1123 -0.0462  0.3499
  803MOL0     N 8322   7.023   9.093   2.951  0.6365  0.7866  0.2871
  803MOL0     C 8323   7.800   8.507   2.304 -0.5183 -0.8136 -0.0271
  803MOL0     C 8324   7.917   8.434   2.316  0.8125 -0.5337  0.4086
  803MOL0     C 8325   8.186   8.088   2.241 -0.1134 -0.1689 -0.4804
  803MOL0     C 8326   8.325   8.119   2.219 -0.0156 -0.7814 -0.4540
  803MOL0     C 8327   8.429   8.025   2.212 -0.2991  0.3987  0.7902
  803MOL0     C 8328   8.397   7.890   2.240  0.4919  0.1934 -1.2703
  803MOL0     O 8329   8.483   7.782   2.251 -0.1206 -0.2834  0.5450
  803MOL0     C 8330   8.622   7.798   2.213 -0.2487 -0.5626  0.4683
  803MOL0     C 8331   8.711   7.854   2.321 -0.0467  0.4352  0.1204
  803MOL0     C 8332   8.695   7.780   2.452  0.0063  0.7551  0.4156
  803MOL0     C 8333   8.766   7.642   2.440  0.4243  0.4129 -0.6655
  803MOL0     C 8334   8.910   7.645   2.408  0.6370  0.5069  1.1405
  803MOL0     C 8335   9.029   7.661   2.397  0.5313 -0.1984  1.5736
  803MOL0     C 8336   8.264   7.859   2.272  0.6343  0.1345  0.6492
  803MOL0     C 8337   8.154   7.955   2.263 -0.6577  0.1068 -0.5812
  803MOL0     H 8338   7.781   8.137   2.427 -2.2969  0.1280  2.2501
  803MOL0     H 8339   7.576   8.278   2.438 -0.4495 -0.8580  0.5887
  803MOL0     H 8340   7.624   8.711   2.468  1.1972 -2.0927  0.5248
  803MOL0     H 8341   7.650   8.729   2.302  0.1865  0.3613  0.0192
  803MOL0     H 8342   7.461   8.834   2.274  3.3485 -1.3127 -1.9885
  803MOL0     H 8343   7.386   8.679   2.287 -2.2040  0.7846 -0.1198
  803MOL0     H 8344   7.389   8.721   2.551  1.3516 -1.4807 -2.0233
  803MOL0     H 8345   7.452   8.875   2.512 -1.6035 -0.1400  2.5500
  803MOL0     H 8346   7.239   8.943   2.401  1.6041  0.4471 -0.3948
  803MOL0     H 8347   7.169   8.783   2.400  0.0303  0.5371  0.6203
  803MOL0     H 8348   7.122   8.776   2.625  0.4808 -0.4375 -1.4425
  803MOL0     H 8349   7.223   8.920   2.662 -0.2098  1.4884  0.4966
  803MOL0     H 8350   7.074   9.061   2.594  0.1972 -1.0354  2.4490
  803MOL0     H 8351   6.997   8.956   2.459  0.9303 -1.2185 -0.2463
  803MOL0     H 8352   6.822   9.017   2.616 -1.7160 -1.0418 -0.6693
  803MOL0     H 8353   6.857   8.849   2.602 -1.3806  0.7575  0.4716
  803MOL0     H 8354   6.995   8.864   2.822  3.3488  2.3942  0.6300
  803MOL0     H 8355   6.830   8.936   2.835 -0.3648  3.8871  1.2473
  803MOL0     H 8356   6.865   9.232   2.709 -1.8398 -2.4220  1.1860
  803MOL0     H 8357   6.742   9.403   2.878 -1.1766 -0.7005  0.9385
  803MOL0     H 8358   6.843   9.442   3.016  1.2095 -0.7880 -0.3370
  803MOL0     H 8359   6.939   9.502   2.739 -1.3670 -0.9168  0.8198
  803MOL0     H 8360   7.025   9.524   2.895  0.4014 -0.1420  0.5498
  803MOL0     H 8361   6.794   9.683   2.953 -0.1490 -1.3598  0.0726
  803MOL0     H 8362   6.779   9.692   2.781  0.0675 -1.6050 -0.2270
  803MOL0     H 8363   7.043   9.749   2.917  0.9924 -2.6394 -2.1888
  803MOL0     H 8364   6.929   9.890   2.885  1.1207  0.4035 -2.8435
  803MOL0     H 8365   7.174   9.933   2.860  1.5402 -2.1758  1.0827
  803MOL0     H 8366   7.342  10.185   2.748  0.9033 -0.0155 -0.0098
  803MOL0     H 8367   7.338  10.074   2.871 -1.4403 -1.3515  0.0264
  803MOL0     H 8368   7.487  10.076   2.769 -0.2873 -0.2205 -1.0485
  803MOL0     H 8369   7.657  10.054   2.231  0.7953 -0.0581 -0.8747
  803MOL0     H 8370   7.860  10.171   2.205  0.0740 -0.0811  0.2375
  803MOL0     H 8371   8.002  10.368   2.287  0.5281  1.6300 -0.1779
  803MOL0     H 8372   8.142  10.383   2.375 -0.4305  0.4665 -1.0726
  803MOL0     H 8373   8.235  10.206   2.193  1.2966  0.2314 -1.7018
  803MOL0     H 8374   8.077  10.224   2.126  1.8221 -0.9562 -1.1459
  803MOL0     H 8375   8.140  10.481   2.088  0.8761  0.3768 -0.7841
  803MOL0     H 8376   8.249  10.354   2.014  1.8526  1.1717 -0.0716
  803MOL0     H 8377   8.309  10.492   2.278  0.1079 -1.3288  0.0681
  803MOL0     H 8378   8.427  10.405   2.182  0.0631 -0.1569  0.8352
  803MOL0     H 8379   8.304  10.675   2.153  1.7185  1.2962  0.4087
  803MOL0     H 8380   8.322  10.598   1.996  3.0355  2.6012 -1.5027
  803MOL0     H 8381   8.548  10.659   2.191  0.4068  0.0066 -0.7655
  803MOL0     H 8382   8.567  10.555   2.055  2.6369  1.6911  1.4248
  803MOL0     H 8383   8.499  10.841   2.062 -2.8210 -1.4798  0.6736
  803MOL0     H 8384   8.479  10.757   1.904 -2.2698  0.0735  1.1435
  803MOL0     H 8385   8.720  10.712   1.883  1.8154  0.5150 -0.4834
  803MOL0     H 8386   8.748  10.767   2.038 -0.5955 -1.7609  0.5455
  803MOL0     H 8387   7.959  10.085   2.629 -2.4449  0.7009  1.7236
  803MOL0     H 8388   7.733   9.991   2.644 -1.9916  3.8328  0.3611
  803MOL0     H 8389   7.270   9.830   2.390  0.6564 -2.4695  1.1593
  803MOL0     H 8390   7.085   9.717   2.499  2.2122 -2.1784 -0.1778
  803MOL0     H 8391   7.811   8.602   2.253  0.2489 -1.1198 -0.4465
  803MOL0     H 8392   8.008   8.479   2.280 -0.2136  0.9228 -0.4606
  803MOL0     H 8393   8.362   8.218   2.192  1.9895 -1.9139 -2.1901
  803MOL0     H 8394   8.528   8.058   2.184 -0.1218  0.9275  1.9565
  803MOL0     H 8395   8.668   7.703   2.184  2.7828  0.5322  1.2929
  803MOL0     H 8396   8.628   7.850   2.117 -1.6806 -3.7485 -1.5113
  803MOL0     H 8397   8.681   7.957   2.344 -0.9305 -0.3136  2.6804
  803MOL0     H 8398   8.809   7.860   2.273 -1.1819  1.9750 -2.2060
  803MOL0     H 8399   8.590   7.759   2.474  0.2911 -0.9307  0.3474
  803MOL0     H 8400   8.754   7.846   2.516  2.7540  1.6540 -2.7646
  803MOL0     H 8401   8.715   7.578   2.368 -0.0000  1.3018 -1.1846
  803MOL0     H 8402   8.754   7.587   2.534  0.5031  1.9340  0.2839
  803MOL0     H 8403   9.119   7.714   2.375 -0.9313  1.8175  0.0139
  803MOL0     H 8404   8.227   7.759   2.292  0.8643 -0.0578  0.1439
  803MOL0     H 8405   8.055   7.914   2.283  0.6984 -2.7226  0.9199
  804MOL0     O 8406   8.074   4.981   1.826  1.0835  0.8285  0.0588
  804MOL0     C 8407   8.121   5.014   1.721  0.2535  0.6697  0.0689
  804MOL0     O 8408   8.071   5.098   1.625 -0.7596 -0.5643  0.3455
  804MOL0     C 8409   7.947   5.155   1.621 -0.7009 -0.2876 -0.3685
  804MOL0     C 8410   7.890   5.201   1.497  0.6662 -1.5173 -0.0334
  804MOL0     C 8411   7.758   5.236   1.488  0.0958  0.3484  0.2127
  804MOL0     C 8412   7.677   5.246   1.601  0.5387 -0.5731 -0.2721
  804MOL0     O 8413   7.540   5.264   1.575 -0.2875 -0.3088 -0.4140
  804MOL0     C 8414   7.459   5.304   1.683  0.7604  0.6139  0.2872
  804MOL0     C 8415   7.504   5.431   1.760  0.8997 -0.2210  0.5294
  804MOL0     C 8416   7.386   5.489   1.848 -0.7298  0.6724 -0.9920
  804MOL0     C 8417   7.272   5.558   1.766 -0.4899 -1.4725 -0.8888
  804MOL0     C 8418   7.207   5.676   1.847 -0.2745  0.2225  0.8253
  804MOL0     C 8419   7.075   5.708   1.775 -0.7668  1.3197  0.4259
  804MOL0     C 8420   6.997   5.821   1.831 -0.1494 -0.2796 -0.1141
  804MOL0     C 8421   6.853   5.848   1.783  0.5358  0.0050 -0.2723
  804MOL0     N 8422   6.790   5.964   1.850  0.4467  0.1297  0.4325
  804MOL0     C 8423   6.717   5.966   1.972 -1.2735  0.3344 -0.5463
  804MOL0     C 8424   6.689   6.094   2.001 -0.1377 -0.4785  0.6922
  804MOL0     C 8425   6.598   6.146   2.104 -0.4836  0.2295  0.3554
  804MOL0     C 8426   6.469   6.198   2.030 -0.0914 -0.3916  0.7724
  804MOL0     C 8427   6.342   6.145   2.094  0.1608 -0.1785  0.4096
  804MOL0     C 8428   6.302   6.002   2.070  0.1146 -0.2398 -0.2349
  804MOL0     O 8429   6.300   5.981   1.928 -0.5061 -1.0504  0.3963
  804MOL0     C 8430   6.181   5.942   1.876 -0.8523 -0.0877 -0.5934
  804MOL0     C 8431   6.081   6.023   1.833  0.9477  0.3714 -0.5564
  804MOL0     C 8432   5.950   5.975   1.799 -0.3044  0.4071  0.5313
  804MOL0     C 8433   5.837   6.071   1.747 -0.2004 -0.7476 -0.2051
  804MOL0     C 8434   5.924   5.834   1.819  0.4299  0.4852  0.1569
  804MOL0     C 8435   5.795   5.774   1.776  0.6287  0.7974 -0.2850
  804MOL0     O 8436   5.784   5.640   1.797 -0.0617  0.3865 -0.6503
  804MOL0     C 8437   5.696   5.560   1.733  0.2740  0.2367  0.5046
  804MOL0     C 8438   5.719   5.501   1.608  0.6798 -0.3056 -0.2209
  804MOL0     C 8439   5.629   5.402   1.569  0.6615 -0.0133 -0.0562
  804MOL0     C 8440   5.510   5.372   1.634  0.2743 -0.4596  0.3230
  804MOL0     O 8441   5.430   5.273   1.580  0.1648  0.5591 -0.9093
  804MOL0     C 8442   5.345   5.199   1.668  0.4212 -0.6453 -0.2671
  804MOL0     C 8443   5.204   5.249   1.652  0.7347 -0.3895 -0.0749
  804MOL0     C 8444   5.092   5.186   1.736 -0.2326  0.5817  0.0195
  804MOL0     C 8445   5.073   5.238   1.884 -0.3263  0.7594 -0.7404
  804MOL0     C 8446   4.940   5.173   1.939 -0.7107 -0.0127  0.1986
  804MOL0     C 8447   4.928   5.206   2.093  0.3414  0.2076 -0.9185
  804MOL0     C 8448   4.881   5.352   2.118 -0.4045  0.5116  0.7965
  804MOL0     C 8449   4.874   5.378   2.266  0.2505 -0.1952  0.3830
  804MOL0    Cl 8450   4.814   5.551   2.289 -0.1138 -0.1778 -0.2697
  804MOL0     C 8451   5.485   5.442   1.744 -0.0135  0.6135  0.1572
  804MOL0     C 8452   5.578   5.531   1.798  0.4587 -0.8844  0.3493
  804MOL0     O 8453   5.710   5.830   1.711 -0.7269  0.3486 -0.0426
  804MOL0     C 8454   6.024   5.760   1.871 -0.1574 -0.5533 -0.0013
  804MOL0     C 8455   6.150   5.808   1.900  0.3938 -1.2244 -0.1721
  804MOL0     N 8456   6.746   6.170   1.906 -0.9428  0.7086 -0.6395
  804MOL0     N 8457   6.809   6.093   1.816  0.3372 -0.4291  0.2239
  804MOL0     C 8458   7.729   5.194   1.724 -0.1767  0.4518  0.0730
  804MOL0     C 8459   7.860   5.150   1.736  0.2789 -0.0888  0.0084
  804MOL0     C 8460   8.253   4.958   1.700 -0.8410 -0.2603 -0.9016
  804MOL0     C 8461   8.315   4.990   1.585 -0.5114  0.0386  0.2920
  804MOL0     C 8462   8.439   4.936   1.557  0.5549 -0.4115  0.8199
  804MOL0     C 8463   8.518   4.864   1.644 -0.9496 -0.1659  0.5968
  804MOL0     O 8464   8.647   4.831   1.623 -0.1285  0.0096  0.5239
  804MOL0     C 8465   8.705   4.849   1.494  0.3167 -0.3448  0.1029
  804MOL0     C 8466   8.855   4.815   1.499  0.4228  0.9055 -0.9565
  804MOL0     C 8467   8.878   4.661   1.501 -0.6382  0.1176  0.5248
  804MOL0     C 8468   8.854   4.610   1.644 -0.4015 -0.0329 -0.2213
  804MOL0     C 8469   8.969   4.644   1.720  0.0720  0.0829  0.7834
  804MOL0     C 8470   9.062   4.658   1.791 -0.5141 -0.1916 -0.0472
  804MOL0     C 8471   8.467   4.844   1.776  0.2359  0.9797 -0.0442
  804MOL0     C 8472   8.339   4.886   1.799 -0.1408 -0.3748 -0.4573
  804MOL0     H 8473   7.958   5.208   1.413 -1.3830  1.4165 -1.6536
  804MOL0     H 8474   7.707   5.270   1.398  0.0352 -0.6263 -0.1315
  804MOL0     H 8475   7.354   5.318   1.655 -0.2243 -3.5027  1.1998
  804MOL0     H 8476   7.454   5.225   1.759 -3.6514  1.1460  0.8115
  804MOL0     H 8477   7.589   5.405   1.824  0.9745 -0.2749  0.4098
  804MOL0     H 8478   7.541   5.509   1.693 -1.2467  1.8126  1.5807
  804MOL0     H 8479   7.350   5.401   1.903 -4.3136  3.3902  1.5337
  804MOL0     H 8480   7.411   5.561   1.926  0.4329 -1.4624  0.7470
  804MOL0     H 8481   7.301   5.598   1.669  0.6235  0.8045  0.3097
  804MOL0     H 8482   7.196   5.480   1.754 -1.8214  0.0924 -3.9240
  804MOL0     H 8483   7.176   5.645   1.947  1.4933  1.1150  1.6965
  804MOL0     H 8484   7.276   5.760   1.840 -0.6354  0.3775 -3.5142
  804MOL0     H 8485   7.097   5.717   1.668  1.4710 -0.4323  0.6521
  804MOL0     H 8486   7.006   5.624   1.770  0.2411  0.4663  0.4216
  804MOL0     H 8487   6.990   5.804   1.939  1.9366  3.0867  0.6937
  804MOL0     H 8488   7.056   5.911   1.811  0.2659  0.0917  2.4391
  804MOL0     H 8489   6.791   5.757   1.786 -0.8690  0.8435 -2.0919
  804MOL0     H 8490   6.865   5.878   1.679 -2.3176  0.9414 -0.4358
  804MOL0     H 8491   6.676   5.880   2.023 -2.0520  1.1547  0.2664
  804MOL0     H 8492   6.567   6.073   2.180 -0.9263  0.7185  0.6531
  804MOL0     H 8493   6.644   6.224   2.165  1.0992 -0.8342  0.5676
  804MOL0     H 8494   6.470   6.179   1.923  0.6890  2.4832  0.1890
  804MOL0     H 8495   6.469   6.307   2.038 -2.2911 -0.2599 -0.3440
  804MOL0     H 8496   6.268   6.216   2.057  0.9568  0.7366  0.5546
  804MOL0     H 8497   6.340   6.155   2.203 -2.8434 -0.2261  0.4488
  804MOL0     H 8498   6.205   5.978   2.113 -2.0447  1.1527 -3.9110
  804MOL0     H 8499   6.380   5.934   2.108  1.8747  1.6696 -0.2219
  804MOL0     H 8500   6.106   6.124   1.803  0.7883 -0.4506 -3.8043
  804MOL0     H 8501   5.810   6.047   1.644 -0.9001  0.8109 -0.3952
  804MOL0     H 8502   5.747   6.067   1.810 -0.6589  0.7264 -0.7350
  804MOL0     H 8503   5.869   6.172   1.774 -3.1349  0.5122 -1.0571
  804MOL0     H 8504   5.810   5.527   1.556  0.4622  2.0480  0.4938
  804MOL0     H 8505   5.653   5.350   1.477  2.8138  0.9910 -0.1263
  804MOL0     H 8506   5.350   5.090   1.655  1.8106 -0.7464  0.8393
  804MOL0     H 8507   5.375   5.211   1.773  2.7850 -2.3954 -0.6524
  804MOL0     H 8508   5.209   5.358   1.662  0.1857 -0.3018 -0.6714
  804MOL0     H 8509   5.183   5.226   1.547 -1.8242  1.2156 -0.0034
  804MOL0     H 8510   5.111   5.079   1.739 -0.2494  0.4839 -2.0428
  804MOL0     H 8511   4.998   5.205   1.682  0.3869  0.2632 -1.2061
  804MOL0     H 8512   5.156   5.198   1.943  1.7284 -0.2658 -4.0462
  804MOL0     H 8513   5.068   5.346   1.903 -1.5338  0.0574  4.8074
  804MOL0     H 8514   4.951   5.064   1.928 -3.1314 -0.1767 -1.3584
  804MOL0     H 8515   4.855   5.203   1.877 -0.4544  0.6042  0.1376
  804MOL0     H 8516   4.856   5.136   2.137  0.1979  1.2466  0.5721
  804MOL0     H 8517   5.028   5.193   2.135 -1.2270 -0.4250  3.0045
  804MOL0     H 8518   4.787   5.368   2.065 -1.7841  0.0954  2.9685
  804MOL0     H 8519   4.957   5.420   2.078  2.6164 -1.5460  2.5961
  804MOL0     H 8520   4.964   5.363   2.326  0.6363 -2.8893 -0.7168
  804MOL0     H 8521   4.807   5.302   2.307  1.1998 -0.2319  1.9194
  804MOL0     H 8522   5.394   5.426   1.801 -1.4599 -2.0099 -2.6048
  804MOL0     H 8523   5.556   5.582   1.891 -0.9969  0.6707 -0.7853
  804MOL0     H 8524   6.009   5.658   1.906  1.5302 -0.8900 -0.1913
  804MOL0     H 8525   6.218   5.741   1.951 -0.2540  0.0764  2.6083
  804MOL0     H 8526   7.666   5.170   1.808  0.3232 -1.8068 -0.1237
  804MOL0     H 8527   7.893   5.108   1.830  0.1480 -4.3954 -1.6215
  804MOL0     H 8528   8.267   5.042   1.503  3.6357  0.7532 -1.9445
  804MOL0     H 8529   8.472   4.966   1.458 -0.8938  1.2896  0.7918
  804MOL0     H 8530   8.656   4.796   1.412 -1.7429  2.9893 -1.0402
  804MOL0     H 8531   8.698   4.953   1.459 -1.0640 -0.5966 -0.4181
  804MOL0     H 8532   8.902   4.861   1.587 -2.0439  0.2844  0.8163
  804MOL0     H 8533   8.892   4.848   1.402 -1.7513  0.7421 -1.9007
  804MOL0     H 8534   8.975   4.626   1.465 -1.2690 -2.9021  1.4729
  804MOL0     H 8535   8.803   4.623   1.431 -0.5856  3.8091 -1.8100
  804MOL0     H 8536   8.853   4.500   1.640  0.1895 -0.1626  1.8715
  804MOL0     H 8537   8.760   4.637   1.694  0.1540  1.9167 -0.1643
  804MOL0     H 8538   9.145   4.664   1.858 -0.6145  0.9974 -0.0000
  804MOL0     H 8539   8.516   4.786   1.854 -1.0309  1.5339  1.1991
  804MOL0     H 8540   8.283   4.852   1.885 -0.0521 -1.0736 -0.6714
  805MOL0     O 8541   8.034   6.925   2.663 -0.2257 -0.4343  0.5059
  805MOL0     C 8542   8.155   6.918   2.688 -0.0504 -0.0653 -1.1693
  805MOL0     O 8543   8.210   6.879   2.808  0.2034 -0.4348 -0.1759
  805MOL0     C 8544   8.141   6.875   2.921 -0.7779  0.6008  0.3701
  805MOL0     C 8545   8.177   6.784   3.015  0.7304 -0.1371 -1.0118
  805MOL0     C 8546   8.112   6.773   3.137  0.3123  0.8170  0.4440
  805MOL0     C 8547   8.009   6.856   3.165  0.0390 -0.3273  0.9313
  805MOL0     O 8548   7.952   6.854   3.286 -0.3025 -0.7304 -0.6755
  805MOL0     C 8549   7.918   6.985   3.335  1.0212 -1.6905 -0.1474
  805MOL0     C 8550   7.912   6.995   3.488  0.5531  0.5811  0.4599
  805MOL0     C 8551   7.777   6.981   3.550  0.4472  0.3206 -0.2108
  805MOL0     C 8552   7.803   6.993   3.696  0.2763  0.2257  0.6534
  805MOL0     C 8553   7.679   7.016   3.771 -0.1345 -0.5761  1.0055
  805MOL0     C 8554   7.695   6.994   3.916 -0.1148 -0.4727 -0.2688
  805MOL0     C 8555   7.664   6.851   3.948  1.1369  0.5733  0.1872
  805MOL0     C 8556   7.614   6.848   4.098  0.7305  0.3529  0.3448
  805MOL0     N 8557   7.557   6.719   4.130  0.5682 -0.3173  0.2192
  805MOL0     C 8558   7.420   6.686   4.150 -0.1452 -0.1864 -0.0565
  805MOL0     C 8559   7.415   6.548   4.145  0.1268 -0.1851 -0.1556
  805MOL0     C 8560   7.289   6.473   4.168 -0.3308 -0.1164  0.9741
  805MOL0     C 8561   7.294   6.390   4.300 -0.2665 -0.3635 -1.0302
  805MOL0     C 8562   7.155   6.320   4.339 -0.2423 -0.5822  0.0418
  805MOL0     C 8563   7.076   6.427   4.413  0.0980  0.1179 -0.0392
  805MOL0     O 8564   7.027   6.543   4.342 -0.8678 -0.6599  0.6007
  805MOL0     C 8565   6.916   6.533   4.259  0.1140  0.4575  0.0174
  805MOL0     C 8566   6.890   6.650   4.192  0.1894 -0.2852 -0.0906
  805MOL0     C 8567   6.782   6.658   4.113 -0.1099 -0.5941  0.5728
  805MOL0     C 8568   6.774   6.780   4.024  0.0859  0.2952 -0.1414
  805MOL0     C 8569   6.692   6.551   4.096  0.5080 -0.3394 -0.1472
  805MOL0     C 8570   6.568   6.556   4.009  0.0466 -0.5028  0.5113
  805MOL0     O 8571   6.516   6.673   3.955  0.2453  0.6205  0.3852
  805MOL0     C 8572   6.399   6.653   3.880 -0.6050 -0.3040 -0.7126
  805MOL0     C 8573   6.276   6.626   3.933  0.4942  0.2673  0.9063
  805MOL0     C 8574   6.159   6.603   3.851  0.7639 -1.0659  1.7000
  805MOL0     C 8575   6.170   6.605   3.713 -0.4839 -0.0099  1.0569
  805MOL0     O 8576   6.068   6.576   3.626 -0.2534  0.1197  0.4918
  805MOL0     C 8577   5.948   6.514   3.678 -0.2890  0.3398 -0.4810
  805MOL0     C 8578   5.836   6.482   3.581 -0.4818  0.3945 -0.1764
  805MOL0     C 8579   5.709   6.452   3.662  1.0181 -0.2858  0.8547
  805MOL0     C 8580   5.591   6.402   3.579 -0.6088 -0.3811 -0.1889
  805MOL0     C 8581   5.456   6.419   3.652  0.0377 -0.1250  0.6431
  805MOL0     C 8582   5.456   6.354   3.783  0.1334  0.3716 -0.3990
  805MOL0     C 8583   5.316   6.333   3.831  0.2470  0.1051 -0.3886
  805MOL0     C 8584   5.326   6.265   3.966  0.2188  0.0368  0.2846
  805MOL0    Cl 8585   5.171   6.180   4.000 -0.1929 -0.3945  0.1748
  805MOL0     C 8586   6.289   6.634   3.658  0.6003  0.7333  0.4972
  805MOL0     C 8587   6.403   6.640   3.737 -0.1068  0.9464  0.2107
  805MOL0     O 8588   6.504   6.449   3.998 -0.3300  0.4177 -0.8329
  805MOL0     C 8589   6.718   6.430   4.164  0.3520 -0.2139 -0.5252
  805MOL0     C 8590   6.836   6.419   4.237 -0.4124 -0.4288  0.0276
  805MOL0     N 8591   7.546   6.503   4.120  0.1168 -0.1350  0.0315
  805MOL0     N 8592   7.621   6.601   4.118  0.1480 -0.3532  0.1855
  805MOL0     C 8593   7.961   6.942   3.062 -0.9656 -0.7478 -0.7321
  805MOL0     C 8594   8.024   6.950   2.942 -0.5766 -0.7610  0.3663
  805MOL0     C 8595   8.252   6.910   2.574 -0.2980 -0.1246 -0.1946
  805MOL0     C 8596   8.208   6.924   2.442 -0.6686  0.0725 -0.1717
  805MOL0     C 8597   8.282   6.899   2.334  0.6007  0.1092  0.4097
  805MOL0     C 8598   8.417   6.851   2.343  0.3560 -0.0383 -0.0108
  805MOL0     O 8599   8.498   6.814   2.244  0.4972  1.2162  0.4517
  805MOL0     C 8600   8.449   6.727   2.140  1.4500 -0.0321 -0.7976
  805MOL0     C 8601   8.451   6.585   2.186 -0.2480 -0.8874  0.4299
  805MOL0     C 8602   8.597   6.536   2.187 -0.4700 -0.3567 -0.1520
  805MOL0     C 8603   8.670   6.530   2.055 -1.2627  0.5881 -0.8453
  805MOL0     C 8604   8.611   6.453   1.954 -0.1928  0.4691 -0.1626
  805MOL0     C 8605   8.574   6.393   1.852 -0.8114 -0.0186  0.7723
  805MOL0     C 8606   8.472   6.851   2.472  0.1600  0.1111  0.6393
  805MOL0     C 8607   8.388   6.879   2.584 -0.3584  0.6029 -0.1829
  805MOL0     H 8608   8.264   6.727   2.985  2.5106  1.7632  0.3154
  805MOL0     H 8609   8.153   6.706   3.211 -1.1577  0.2973  0.8183
  805MOL0     H 8610   8.002   7.048   3.306  1.6292 -3.7388 -3.4545
  805MOL0     H 8611   7.830   7.028   3.286  0.8236 -0.4720  1.2279
  805MOL0     H 8612   7.975   6.911   3.518  0.8639  0.1978 -1.1633
  805MOL0     H 8613   7.952   7.090   3.524  0.1344  1.2020 -0.6416
  805MOL0     H 8614   7.720   7.062   3.502 -0.5830 -0.4222 -0.2905
  805MOL0     H 8615   7.735   6.883   3.523 -0.6884  0.3730  1.2538
  805MOL0     H 8616   7.852   6.898   3.718  0.5145  0.0633 -0.4862
  805MOL0     H 8617   7.879   7.066   3.724  0.0926  0.4926  0.4565
  805MOL0     H 8618   7.647   7.119   3.751  0.1049 -0.6043  0.4469
  805MOL0     H 8619   7.597   6.955   3.731 -1.2130 -0.2358  2.6223
  805MOL0     H 8620   7.800   7.020   3.935 -0.2182 -0.0625 -0.2551
  805MOL0     H 8621   7.622   7.057   3.968 -0.0309  0.3444 -1.1084
  805MOL0     H 8622   7.586   6.810   3.884 -2.0512  0.7201  3.6087
  805MOL0     H 8623   7.750   6.784   3.936  0.7543 -0.0941  1.0499
  805MOL0     H 8624   7.534   6.916   4.128 -0.5856 -1.6572  1.6728
  805MOL0     H 8625   7.697   6.847   4.170  1.2786 -0.5457 -0.2873
  805MOL0     H 8626   7.329   6.744   4.161 -0.6280 -0.8157 -0.6363
  805MOL0     H 8627   7.212   6.550   4.171  0.2839  0.4954  1.4631
  805MOL0     H 8628   7.268   6.404   4.086 -4.4456 -1.4261  2.8624
  805MOL0     H 8629   7.320   6.454   4.384 -1.3658 -1.9596  0.6033
  805MOL0     H 8630   7.370   6.311   4.293 -0.9801 -1.1372 -0.2794
  805MOL0     H 8631   7.182   6.236   4.403  2.1334  0.7375  0.9150
  805MOL0     H 8632   7.105   6.290   4.247  0.6096 -1.1536 -0.2484
  805MOL0     H 8633   7.138   6.483   4.483  0.0670  1.3830 -0.9756
  805MOL0     H 8634   6.995   6.388   4.476  0.5741  3.3364  2.8371
  805MOL0     H 8635   6.960   6.734   4.201  1.4969 -1.1810 -1.5004
  805MOL0     H 8636   6.860   6.848   4.032  0.1669 -0.0377  2.9663
  805MOL0     H 8637   6.768   6.747   3.920  0.0978  0.1434 -0.0946
  805MOL0     H 8638   6.677   6.827   4.037 -0.6239  0.4838 -4.5823
  805MOL0     H 8639   6.254   6.614   4.039 -0.1105  3.7181  1.3013
  805MOL0     H 8640   6.065   6.595   3.904  0.1630 -1.6871  0.5812
  805MOL0     H 8641   5.976   6.428   3.739  0.6221 -0.0836 -1.4792
  805MOL0     H 8642   5.915   6.600   3.738  2.5509  2.6596 -1.9417
  805MOL0     H 8643   5.832   6.569   3.515 -1.0242 -0.8359 -1.8456
  805MOL0     H 8644   5.867   6.403   3.512  3.8072  3.2468 -1.9222
  805MOL0     H 8645   5.684   6.550   3.703  0.6100 -0.7844  1.8402
  805MOL0     H 8646   5.735   6.394   3.751  1.8693 -0.6287  0.3989
  805MOL0     H 8647   5.583   6.448   3.481 -0.9693 -0.2363 -0.0905
  805MOL0     H 8648   5.606   6.296   3.557  2.6183 -0.0071 -0.2845
  805MOL0     H 8649   5.368   6.386   3.596 -0.7716  0.0992  1.7611
  805MOL0     H 8650   5.433   6.526   3.654 -0.6796 -0.2591 -0.0235
  805MOL0     H 8651   5.505   6.257   3.770  0.3754  0.0284  2.3411
  805MOL0     H 8652   5.507   6.410   3.863  1.3741 -2.7876  1.2337
  805MOL0     H 8653   5.261   6.266   3.764  1.1684 -0.2617 -0.7947
  805MOL0     H 8654   5.261   6.428   3.831  1.8982  1.1561 -2.4440
  805MOL0     H 8655   5.355   6.344   4.037  0.9646  1.6929 -1.7531
  805MOL0     H 8656   5.401   6.187   3.956 -0.7723 -0.7239 -1.6033
  805MOL0     H 8657   6.297   6.621   3.550 -1.5948 -0.8609  0.4694
  805MOL0     H 8658   6.501   6.667   3.701 -0.1201 -0.8188 -1.3064
  805MOL0     H 8659   6.670   6.333   4.158  3.8532 -2.1927  0.4296
  805MOL0     H 8660   6.862   6.336   4.300  0.0793  0.6410  1.2805
  805MOL0     H 8661   7.876   7.006   3.082 -0.3407 -0.7062  2.3052
  805MOL0     H 8662   7.987   7.016   2.864  3.5834 -1.4846 -2.4955
  805MOL0     H 8663   8.104   6.952   2.429 -0.1972  2.4430  0.6465
  805MOL0     H 8664   8.246   6.909   2.233  1.7722 -0.9070 -0.1392
  805MOL0     H 8665   8.350   6.760   2.109  2.8016  2.3386 -2.9844
  805MOL0     H 8666   8.499   6.733   2.043 -2.5910 -0.3212 -3.1027
  805MOL0     H 8667   8.407   6.516   2.114 -1.0922  0.2734 -0.1981
  805MOL0     H 8668   8.407   6.580   2.286 -1.1328  1.3301  0.1945
  805MOL0     H 8669   8.601   6.436   2.231  1.5089 -1.8743 -3.4294
  805MOL0     H 8670   8.659   6.602   2.248 -1.7157  1.8222 -1.1141
  805MOL0     H 8671   8.767   6.483   2.074 -1.5589  0.9316  2.0208
  805MOL0     H 8672   8.688   6.633   2.021 -2.3774  0.3856 -2.1107
  805MOL0     H 8673   8.555   6.335   1.764  1.2296  3.3732 -2.1837
  805MOL0     H 8674   8.570   6.813   2.500 -0.4652  0.2032  3.1043
  805MOL0     H 8675   8.428   6.851   2.681 -0.1311  1.6256  0.0329
  806MOL0     O 8676   9.758   3.959   9.094 -0.3416  0.0746 -0.5365
  806MOL0     C 8677   9.719   3.992   9.206 -0.3245 -0.9114  0.1255
  806MOL0     O 8678   9.645   4.102   9.232  0.2415  0.8284 -0.5087
  806MOL0     C 8679   9.582   4.177   9.137  1.2390  0.6187 -0.0612
  806MOL0     C 8680   9.565   4.134   9.007  0.3823 -0.8487  0.2395
  806MOL0     C 8681   9.519   4.219   8.911 -0.1477 -0.9389  0.3452
  806MOL0     C 8682   9.491   4.359   8.936  0.4194  0.5825 -1.0464
  806MOL0     O 8683   9.450   4.427   8.829  0.6905 -0.0583 -0.5454
  806MOL0     C 8684   9.400   4.553   8.868  0.0158 -0.5324 -0.0402
  806MOL0     C 8685   9.355   4.616   8.736  0.4578 -0.2424  1.0757
  806MOL0     C 8686   9.470   4.658   8.631  0.5326  0.0802 -0.1784
  806MOL0     C 8687   9.408   4.747   8.531  0.1759  0.2620  0.5577
  806MOL0     C 8688   9.516   4.808   8.433 -0.0016  0.1124 -0.4532
  806MOL0     C 8689   9.482   4.794   8.281  0.2867  0.4872 -0.6398
  806MOL0     C 8690   9.575   4.888   8.199 -0.3264 -0.3486 -0.2244
  806MOL0     C 8691   9.513   5.035   8.200 -0.6621 -0.5663 -1.1663
  806MOL0     N 8692   9.616   5.119   8.134  0.7209 -0.6256  0.6337
  806MOL0     C 8693   9.672   5.098   8.008  0.5972  0.3165  0.5604
  806MOL0     C 8694   9.758   5.203   7.979  0.3953  0.9354 -0.1352
  806MOL0     C 8695   9.836   5.231   7.853 -1.1654 -0.1081 -0.4087
  806MOL0     C 8696   9.788   5.353   7.783  0.0909 -0.1185 -0.1780
  806MOL0     C 8697   9.665   5.334   7.700 -0.1846  0.2607  0.0928
  806MOL0     C 8698   9.700   5.320   7.553  1.4951 -0.8616 -1.3107
  806MOL0     O 8699   9.665   5.430   7.474 -0.4437  0.4819  0.1249
  806MOL0     C 8700   9.717   5.437   7.352  0.3328  0.3970  0.0286
  806MOL0     C 8701   9.630   5.472   7.252 -0.1508  0.7810  1.2580
  806MOL0     C 8702   9.656   5.474   7.110 -0.2966  0.4418  0.0477
  806MOL0     C 8703   9.534   5.477   7.025  0.3038 -0.2394  0.1152
  806MOL0     C 8704   9.790   5.440   7.067 -0.1041 -0.3221 -0.4627
  806MOL0     C 8705   9.827   5.421   6.929 -0.1200  0.0787 -0.5872
  806MOL0     O 8706   9.952   5.366   6.903 -0.5435 -0.4393  0.9451
  806MOL0     C 8707   9.990   5.334   6.778  0.5766  0.5067 -0.4795
  806MOL0     C 8708   9.963   5.205   6.723 -0.0354 -0.5640 -0.0341
  806MOL0     C 8709  10.002   5.184   6.588  0.4857  0.8849 -0.0024
  806MOL0     C 8710  10.076   5.278   6.519  0.3386  0.0666 -0.5249
  806MOL0     O 8711  10.116   5.232   6.400 -0.2798 -0.0885  0.0572
  806MOL0     C 8712  10.225   5.295   6.348 -0.5703  0.0680 -0.1544
  806MOL0     C 8713  10.262   5.229   6.214 -0.7463  0.7216 -0.2666
  806MOL0     C 8714  10.404   5.206   6.187  0.2076 -0.0315 -0.6051
  806MOL0     C 8715  10.491   5.328   6.170 -0.3379 -0.6464  0.9194
  806MOL0     C 8716  10.640   5.293   6.131 -1.2111 -0.1626 -0.0830
  806MOL0     C 8717  10.647   5.296   5.974 -0.2652  0.2575  0.1148
  806MOL0     C 8718  10.787   5.337   5.918 -0.2045  0.1569 -0.3697
  806MOL0     C 8719  10.799   5.314   5.771 -0.7686  0.6908  0.7779
  806MOL0    Cl 8720  10.941   5.382   5.711  0.1278  0.2814  0.0791
  806MOL0     C 8721  10.090   5.411   6.565  0.5992 -0.6725  0.0664
  806MOL0     C 8722  10.045   5.430   6.699 -0.3730 -0.7153 -0.3915
  806MOL0     O 8723   9.757   5.453   6.837  0.6815 -0.1222 -0.0270
  806MOL0     C 8724   9.886   5.425   7.174 -0.4418 -0.1707 -0.1254
  806MOL0     C 8725   9.849   5.420   7.305  0.1669 -0.0243 -1.0393
  806MOL0     N 8726   9.761   5.282   8.092 -0.4026 -0.1160  0.3599
  806MOL0     N 8727   9.681   5.230   8.180  0.2331 -0.9152  0.0529
  806MOL0     C 8728   9.496   4.394   9.076  0.5108  0.3303 -0.0482
  806MOL0     C 8729   9.556   4.311   9.171  0.0721 -0.0771 -0.2281
  806MOL0     C 8730   9.762   3.917   9.324  0.1050  0.0003 -0.0714
  806MOL0     C 8731   9.814   3.784   9.313 -0.0944  0.1063  0.4404
  806MOL0     C 8732   9.863   3.707   9.421  0.2936 -0.2304 -0.2090
  806MOL0     C 8733   9.865   3.759   9.548  0.3962 -0.3168 -0.1723
  806MOL0     O 8734   9.900   3.674   9.652  0.4016  0.0178 -0.3427
  806MOL0     C 8735   9.950   3.734   9.775  0.6846  0.8284 -0.1449
  806MOL0     C 8736  10.008   3.632   9.854 -0.7812  0.6091 -0.4616
  806MOL0     C 8737  10.125   3.560   9.797 -0.6039  1.5078  0.0382
  806MOL0     C 8738  10.187   3.463   9.896 -0.5761 -1.2273  0.1372
  806MOL0     C 8739  10.101   3.356   9.954  0.8821 -0.0611 -0.0114
  806MOL0     C 8740  10.032   3.263   9.995 -0.8725  0.3622  0.0110
  806MOL0     C 8741   9.802   3.890   9.565 -0.5727  0.1687  0.0095
  806MOL0     C 8742   9.752   3.970   9.457  0.5100 -0.2076 -0.1723
  806MOL0     H 8743   9.583   4.031   8.977 -0.6736 -1.3690  1.2926
  806MOL0     H 8744   9.507   4.182   8.810 -2.9557  0.4509  0.0717
  806MOL0     H 8745   9.316   4.549   8.938 -2.9658 -1.7449 -3.3929
  806MOL0     H 8746   9.481   4.617   8.907  2.3267 -1.9397 -2.2013
  806MOL0     H 8747   9.298   4.534   8.693  3.2061 -1.9612  0.4576
  806MOL0     H 8748   9.292   4.701   8.764 -0.1575 -0.4992  0.5103
  806MOL0     H 8749   9.550   4.705   8.689 -0.7512 -0.8294  2.5283
  806MOL0     H 8750   9.503   4.574   8.569 -1.3081 -0.4180 -0.5244
  806MOL0     H 8751   9.344   4.679   8.474  1.3532  0.3902 -0.9974
  806MOL0     H 8752   9.358   4.830   8.581  2.1785  1.9807 -0.1375
  806MOL0     H 8753   9.521   4.916   8.450 -1.5189  1.4362 -6.1270
  806MOL0     H 8754   9.618   4.775   8.452  0.3749  0.0064 -2.4543
  806MOL0     H 8755   9.508   4.690   8.258 -1.4100 -0.8123  2.6288
  806MOL0     H 8756   9.377   4.819   8.261 -0.3801 -2.9873 -2.2158
  806MOL0     H 8757   9.680   4.875   8.227 -0.5211 -0.7235  0.3512
  806MOL0     H 8758   9.561   4.856   8.095  2.8998  2.7809 -1.8472
  806MOL0     H 8759   9.503   5.063   8.306 -0.6391 -1.7288 -0.8428
  806MOL0     H 8760   9.413   5.041   8.156 -0.7759 -0.1098 -0.8517
  806MOL0     H 8761   9.643   5.022   7.936 -1.3787  2.2875 -0.8386
  806MOL0     H 8762   9.941   5.245   7.880 -1.5506 -1.0010  1.7664
  806MOL0     H 8763   9.836   5.145   7.785  0.9934 -0.8523  0.4408
  806MOL0     H 8764   9.868   5.402   7.726 -1.8030  0.2771 -2.6750
  806MOL0     H 8765   9.765   5.418   7.868 -1.6516 -1.2184  0.2430
  806MOL0     H 8766   9.591   5.413   7.711 -0.0323  0.3191  0.7003
  806MOL0     H 8767   9.615   5.241   7.729 -1.5520  1.6175  2.3807
  806MOL0     H 8768   9.651   5.235   7.505  2.1504 -1.0726 -1.6212
  806MOL0     H 8769   9.807   5.302   7.536  1.5711 -1.0285 -0.6551
  806MOL0     H 8770   9.532   5.503   7.288 -1.2356  0.0452 -0.8721
  806MOL0     H 8771   9.486   5.380   7.015 -0.9438  0.4785 -1.3015
  806MOL0     H 8772   9.476   5.564   7.058  2.3866  0.1848  3.0961
  806MOL0     H 8773   9.562   5.517   6.927  1.9661  3.4694  1.9093
  806MOL0     H 8774   9.921   5.129   6.788 -1.1326  2.0028  2.4466
  806MOL0     H 8775   9.971   5.085   6.557 -0.3086  0.6503  1.4389
  806MOL0     H 8776  10.198   5.399   6.328 -0.8980  0.7527  3.2670
  806MOL0     H 8777  10.315   5.286   6.411  1.0167  1.3110 -2.1176
  806MOL0     H 8778  10.209   5.133   6.208  2.0794 -0.8837 -1.8531
  806MOL0     H 8779  10.232   5.288   6.127 -2.5662  0.6036  0.2429
  806MOL0     H 8780  10.414   5.137   6.103  0.1392  1.2298 -1.6900
  806MOL0     H 8781  10.439   5.152   6.275 -1.2856 -2.3099 -1.3432
  806MOL0     H 8782  10.442   5.391   6.095  0.2969 -0.2563  0.8205
  806MOL0     H 8783  10.488   5.376   6.268  1.2564  0.4415  0.4633
  806MOL0     H 8784  10.663   5.188   6.153 -1.4652 -0.8650 -2.8511
  806MOL0     H 8785  10.710   5.365   6.175  2.0550 -1.8965 -2.0452
  806MOL0     H 8786  10.618   5.195   5.941  2.3226 -0.0111 -1.6609
  806MOL0     H 8787  10.579   5.372   5.934  2.8037  2.0372 -2.2173
  806MOL0     H 8788  10.871   5.296   5.974 -0.6610 -0.0008  0.2094
  806MOL0     H 8789  10.799   5.445   5.934  1.6173  0.1378 -1.3636
  806MOL0     H 8790  10.717   5.355   5.710  0.4656 -1.5408 -2.6639
  806MOL0     H 8791  10.791   5.206   5.755  1.2925  0.0771  3.3050
  806MOL0     H 8792  10.136   5.500   6.524 -0.1219  0.9716  2.5761
  806MOL0     H 8793  10.043   5.533   6.733 -1.5116 -0.8827  0.0821
  806MOL0     H 8794   9.991   5.406   7.154 -0.4181  0.5561 -0.7056
  806MOL0     H 8795   9.929   5.409   7.378 -0.6013  2.3895  0.2628
  806MOL0     H 8796   9.479   4.497   9.107  0.7010 -0.1719  1.8307
  806MOL0     H 8797   9.559   4.342   9.275 -0.6386  1.3613 -0.6112
  806MOL0     H 8798   9.830   3.740   9.215 -1.9185  1.1032 -0.3474
  806MOL0     H 8799   9.894   3.603   9.420 -3.0235 -1.3872  1.2618
  806MOL0     H 8800  10.027   3.807   9.749  1.4621 -0.1080 -0.5359
  806MOL0     H 8801   9.874   3.790   9.831  1.0116  0.8046  0.3210
  806MOL0     H 8802   9.930   3.563   9.888 -0.6100  0.9589  0.6887
  806MOL0     H 8803  10.053   3.684   9.940 -0.5159  1.4976 -1.1258
  806MOL0     H 8804  10.197   3.632   9.757 -0.8145  2.2230  0.9327
  806MOL0     H 8805  10.089   3.492   9.719  1.8688 -1.7406  1.4731
  806MOL0     H 8806  10.246   3.511   9.976 -0.2253 -2.5851  0.7212
  806MOL0     H 8807  10.264   3.407   9.843 -0.7246 -1.4263  0.1324
  806MOL0     H 8808   9.964   3.183  10.015  0.5134 -1.6685 -2.6234
  806MOL0     H 8809   9.801   3.933   9.665  1.0231  2.0877 -0.7263
  806MOL0     H 8810   9.711   4.070   9.466 -0.0098 -0.2877 -1.5235
  807MOL0     O 8811   9.449   9.721   9.595 -0.4252 -1.1445  0.0935
  807MOL0     C 8812   9.520   9.776   9.679 -0.7424  0.0489  0.9710
  807MOL0     O 8813   9.641   9.838   9.660 -0.6678  0.3526 -0.2704
  807MOL0     C 8814   9.686   9.841   9.538 -0.4772  0.3758  0.1296
  807MOL0     C 8815   9.813   9.785   9.523  0.8748 -0.6218 -0.4037
  807MOL0     C 8816   9.861   9.768   9.389  0.3550 -0.8790 -0.0341
  807MOL0     C 8817   9.792   9.819   9.277  0.8136  0.1107 -0.5601
  807MOL0     O 8818   9.851   9.797   9.156  0.2648 -0.2328  0.7791
  807MOL0     C 8819   9.804   9.848   9.031  0.4532  0.4229 -0.6759
  807MOL0     C 8820   9.746   9.724   8.951  0.2745 -0.2122  0.1656
  807MOL0     C 8821   9.858   9.630   8.916 -0.5460 -0.5841  0.0609
  807MOL0     C 8822   9.808   9.519   8.816  0.6507  0.2821 -0.1908
  807MOL0     C 8823   9.821   9.563   8.674  0.7985  0.3222  0.0046
  807MOL0     C 8824   9.848   9.441   8.591  0.4097  0.7748  1.2576
  807MOL0     C 8825   9.724   9.353   8.584  0.2982 -0.1872  0.2787
  807MOL0     C 8826   9.739   9.223   8.494  0.1542 -0.1819  0.0313
  807MOL0     N 8827   9.714   9.249   8.349 -0.5688 -0.1495  0.4743
  807MOL0     C 8828   9.785   9.180   8.250 -0.5276  0.0332  0.2443
  807MOL0     C 8829   9.713   9.201   8.134 -0.2896  0.6441  0.0451
  807MOL0     C 8830   9.743   9.152   7.990 -0.2631  0.7387  0.5936
  807MOL0     C 8831   9.857   9.230   7.928 -0.2349  0.5986 -0.3688
  807MOL0     C 8832   9.808   9.363   7.877  0.7122 -0.0287 -0.3090
  807MOL0     C 8833   9.921   9.457   7.858 -0.0047 -0.6494 -0.3037
  807MOL0     O 8834   9.978   9.451   7.727  0.0016 -0.0400 -0.0494
  807MOL0     C 8835  10.089   9.526   7.695 -0.2107 -0.0169 -0.4009
  807MOL0     C 8836  10.152   9.622   7.779  0.2291 -0.4620 -0.6896
  807MOL0     C 8837  10.253   9.703   7.726  0.1481  0.9086  0.7644
  807MOL0     C 8838  10.307   9.796   7.835 -0.7089  0.6894  1.1954
  807MOL0     C 8839  10.288   9.686   7.593  1.5387 -0.4979 -0.0110
  807MOL0     C 8840  10.384   9.770   7.533 -0.4048  0.1705  0.2728
  807MOL0     O 8841  10.380   9.897   7.565  0.1707 -0.2167 -0.3170
  807MOL0     C 8842  10.468   9.989   7.516  0.2979  0.3423  0.0062
  807MOL0     C 8843  10.481  10.006   7.376  0.0554 -0.5488  0.2662
  807MOL0     C 8844  10.588  10.088   7.323 -0.6133 -0.9954  0.5463
  807MOL0     C 8845  10.656  10.170   7.417  0.0216 -0.2780 -0.3876
  807MOL0     O 8846  10.739  10.265   7.362  0.4765 -0.2938 -0.1032
  807MOL0     C 8847  10.876  10.216   7.356  0.6104  0.0178  0.9596
  807MOL0     C 8848  10.967  10.323   7.290  0.3115  0.4688 -0.0783
  807MOL0     C 8849  11.065  10.282   7.175  0.1526 -0.2092  0.1617
  807MOL0     C 8850  11.114  10.407   7.095  0.3163 -0.9808 -0.0384
  807MOL0     C 8851  11.201  10.378   6.975 -0.7130 -0.4607  0.2846
  807MOL0     C 8852  11.239  10.495   6.890  1.0265  0.6619 -0.0033
  807MOL0     C 8853  11.338  10.457   6.796 -0.1779 -0.3440 -0.1810
  807MOL0     C 8854  11.370  10.580   6.703 -0.5362 -0.9194  0.3108
  807MOL0    Cl 8855  11.446  10.516   6.557  0.1859 -0.2905  0.0365
  807MOL0     C 8856  10.647  10.151   7.560  1.3159 -1.3210  0.2710
  807MOL0     C 8857  10.553  10.064   7.598  1.4014  0.0338 -0.3426
  807MOL0     O 8858  10.456   9.719   7.442  0.3368 -0.1271  0.0021
  807MOL0     C 8859  10.219   9.595   7.503 -0.5189  0.5507  0.2700
  807MOL0     C 8860  10.119   9.518   7.567 -0.1782 -0.7737  1.0132
  807MOL0     N 8861   9.601   9.279   8.172 -0.8289 -0.9264 -0.0028
  807MOL0     N 8862   9.603   9.312   8.299 -0.1294 -0.0721  1.2786
  807MOL0     C 8863   9.675   9.891   9.301 -0.0028  1.1623  1.0840
  807MOL0     C 8864   9.623   9.898   9.434  0.5692  0.2052 -0.8188
  807MOL0     C 8865   9.454   9.784   9.814  0.3872 -0.4148 -0.2260
  807MOL0     C 8866   9.509   9.873   9.905  0.3116  0.8092 -0.5328
  807MOL0     C 8867   9.459   9.890  10.031  0.7380  0.3913 -0.8154
  807MOL0     C 8868   9.343   9.824  10.073  0.3242 -1.4698  0.5406
  807MOL0     O 8869   9.281   9.828  10.193  0.1677 -0.7975  0.7847
  807MOL0     C 8870   9.361   9.871  10.312  0.4511 -0.4559  0.8260
  807MOL0     C 8871   9.453   9.755  10.350  0.1122  0.3218 -0.2926
  807MOL0     C 8872   9.387   9.619  10.383 -0.4357 -0.1240  0.0371
  807MOL0     C 8873   9.443   9.563  10.511 -0.0238  0.0728  0.0560
  807MOL0     C 8874   9.420   9.646  10.633  0.3418  0.1692 -0.3497
  807MOL0     C 8875   9.409   9.735  10.718  0.4813  0.3732 -0.3321
  807MOL0     C 8876   9.291   9.733   9.985  0.4463  0.1437 -0.7522
  807MOL0     C 8877   9.341   9.714   9.855  0.1387 -0.2243 -0.8460
  807MOL0     H 8878   9.852   9.739   9.614 -4.9859 -1.0506  2.3246
  807MOL0     H 8879   9.955   9.715   9.380  0.6391 -1.0291  2.7622
  807MOL0     H 8880   9.726   9.923   9.049 -0.5389  0.0644 -3.0054
  807MOL0     H 8881   9.887   9.901   8.982  0.1857  2.8087  1.2706
  807MOL0     H 8882   9.663   9.680   9.007  0.5111  1.9034  2.3733
  807MOL0     H 8883   9.703   9.763   8.858  1.6237  1.6832  0.2669
  807MOL0     H 8884   9.946   9.676   8.870 -0.9471 -0.3113 -0.4441
  807MOL0     H 8885   9.878   9.593   9.017 -1.7988  0.4646  0.7367
  807MOL0     H 8886   9.864   9.429   8.841 -1.7809 -0.2976  4.1701
  807MOL0     H 8887   9.711   9.488   8.855  0.3164  1.2857 -0.1864
  807MOL0     H 8888   9.738   9.623   8.637 -0.0218 -1.1212 -0.5881
  807MOL0     H 8889   9.904   9.633   8.665 -0.2128  2.0088  2.5576
  807MOL0     H 8890   9.878   9.484   8.496 -3.4810 -0.5560 -0.7817
  807MOL0     H 8891   9.931   9.385   8.635  0.7643  0.2338 -0.0617
  807MOL0     H 8892   9.711   9.307   8.682 -3.9503  1.6079  0.7903
  807MOL0     H 8893   9.627   9.403   8.569  0.3343  0.8027  2.8315
  807MOL0     H 8894   9.671   9.146   8.531 -1.8760  2.5615  2.4648
  807MOL0     H 8895   9.840   9.187   8.515  0.4990  0.0048 -1.2121
  807MOL0     H 8896   9.858   9.103   8.272 -3.5491 -2.3423  3.0517
  807MOL0     H 8897   9.770   9.046   7.991  0.6182  0.8719  3.9782
  807MOL0     H 8898   9.657   9.159   7.923  0.0779 -1.6305 -0.1856
  807MOL0     H 8899   9.913   9.177   7.850 -2.5984  0.4889 -2.0996
  807MOL0     H 8900   9.934   9.253   8.002 -1.6179  3.9892  0.1913
  807MOL0     H 8901   9.726   9.404   7.938  1.1091  0.6754 -0.2345
  807MOL0     H 8902   9.763   9.324   7.786  1.4814 -4.3332  0.9437
  807MOL0     H 8903   9.994   9.457   7.939 -0.4287 -0.3765  0.0792
  807MOL0     H 8904   9.892   9.560   7.879  0.1201 -0.6632 -0.0661
  807MOL0     H 8905  10.119   9.640   7.881  0.4352 -0.5357 -0.6086
  807MOL0     H 8906  10.246   9.887   7.840 -1.3910  0.2564  0.8584
  807MOL0     H 8907  10.302   9.748   7.933 -3.2980 -3.5794 -0.7669
  807MOL0     H 8908  10.410   9.819   7.805 -0.8640 -2.2018 -2.2135
  807MOL0     H 8909  10.414   9.947   7.315  1.0116 -2.3481  0.8831
  807MOL0     H 8910  10.601  10.094   7.216 -1.5948 -2.9277  0.2854
  807MOL0     H 8911  10.906  10.185   7.457 -3.9241 -0.2877  2.4088
  807MOL0     H 8912  10.877  10.125   7.295  0.7753 -1.3316  2.8922
  807MOL0     H 8913  10.904  10.400   7.244  1.8306 -0.2707 -3.7022
  807MOL0     H 8914  11.026  10.366   7.372  0.8863 -1.5016  0.5802
  807MOL0     H 8915  11.006  10.211   7.115 -3.4172  1.2417  1.7001
  807MOL0     H 8916  11.149  10.226   7.218  0.9449  0.2808 -0.7249
  807MOL0     H 8917  11.036  10.475   7.060 -2.1235 -2.0784  2.8380
  807MOL0     H 8918  11.173  10.473   7.159 -3.1294  1.2860  1.1205
  807MOL0     H 8919  11.160  10.299   6.911 -1.1363  0.6962 -0.9177
  807MOL0     H 8920  11.290  10.330   7.017 -1.7175 -0.6900  2.2490
  807MOL0     H 8921  11.150  10.532   6.838 -0.8136 -0.0324  2.4362
  807MOL0     H 8922  11.277  10.580   6.948 -1.7792  1.8046  0.3092
  807MOL0     H 8923  11.297  10.377   6.733  1.2890 -0.1636 -1.4047
  807MOL0     H 8924  11.431  10.421   6.841  0.7217  2.0886  0.0309
  807MOL0     H 8925  11.442  10.650   6.747 -0.4441 -0.0379 -1.1785
  807MOL0     H 8926  11.276  10.628   6.674 -0.2265  0.9772  2.2308
  807MOL0     H 8927  10.713  10.201   7.630  0.8327 -1.7112  1.0207
  807MOL0     H 8928  10.534  10.044   7.703  0.9695  2.4098  0.0836
  807MOL0     H 8929  10.243   9.589   7.397 -0.6310  0.6021  0.2417
  807MOL0     H 8930  10.062   9.450   7.505  4.2604 -4.0614  0.0541
  807MOL0     H 8931   9.622   9.941   9.221 -1.2528  2.1154  2.4533
  807MOL0     H 8932   9.536   9.957   9.461  1.4247  0.8955  0.4984
  807MOL0     H 8933   9.599   9.926   9.879  0.0804  0.9781 -1.0085
  807MOL0     H 8934   9.520   9.953  10.096  3.7918 -1.0617 -2.0651
  807MOL0     H 8935   9.414   9.963  10.288 -2.0591  0.2799 -2.6340
  807MOL0     H 8936   9.285   9.888  10.388  0.8233 -2.0062  1.5930
  807MOL0     H 8937   9.513   9.788  10.435 -1.3067 -0.4695  1.0736
  807MOL0     H 8938   9.531   9.738  10.275  0.3932  0.3644 -0.0125
  807MOL0     H 8939   9.401   9.539  10.310  0.5680  1.4441 -1.5781
  807MOL0     H 8940   9.279   9.637  10.385 -0.6646 -1.2977 -0.5034
  807MOL0     H 8941   9.550   9.546  10.495 -0.2920 -0.7505 -1.0555
  807MOL0     H 8942   9.390   9.467  10.522  1.2156 -0.5246  0.9947
  807MOL0     H 8943   9.383   9.818  10.780  0.1156  0.5357 -0.7051
  807MOL0     H 8944   9.196   9.685  10.005 -0.5181  1.7642 -1.2446
  807MOL0     H 8945   9.292   9.649   9.783  2.0588 -0.7225 -1.7714
  808MOL0     O 8946   1.120   0.903   3.363 -0.3892  0.0667  0.6173
  808MOL0     C 8947   1.167   0.920   3.252 -0.0513 -0.6649 -0.4002
  808MOL0     O 8948   1.096   0.920   3.141 -0.1382  0.0409  0.0776
  808MOL0     C 8949   0.973   0.858   3.142  0.6444 -0.0418  0.6335
  808MOL0     C 8950   0.861   0.909   3.064  0.2224 -0.6442 -0.5328
  808MOL0     C 8951   0.736   0.853   3.049  0.2664  0.7138 -0.2815
  808MOL0     C 8952   0.722   0.726   3.112  0.5636  0.1733 -0.0131
  808MOL0     O 8953   0.593   0.678   3.125  0.8760 -0.1782  0.1266
  808MOL0     C 8954   0.496   0.719   3.023 -0.3735  0.5039 -0.3336
  808MOL0     C 8955   0.351   0.656   3.044  0.0495 -0.3797 -0.2884
  808MOL0     C 8956   0.288   0.618   2.908 -0.0156  0.3874  0.7684
  808MOL0     C 8957   0.144   0.574   2.934 -0.2441  0.6087  0.2216
  808MOL0     C 8958   0.069   0.544   2.803 -0.3445  0.2153  0.0563
  808MOL0     C 8959  -0.061   0.478   2.823  0.4781  0.7844 -0.8928
  808MOL0     C 8960  -0.160   0.546   2.920  0.3067  0.1856  0.2043
  808MOL0     C 8961  -0.204   0.690   2.886  0.0212  0.6804 -0.0739
  808MOL0     N 8962  -0.300   0.690   2.780 -0.7035 -0.1664  0.4117
  808MOL0     C 8963  -0.261   0.709   2.654  0.5903  0.6842 -0.9353
  808MOL0     C 8964  -0.373   0.688   2.582 -0.1183  0.3830  0.2625
  808MOL0     C 8965  -0.387   0.702   2.435 -0.2709  0.4140 -0.1446
  808MOL0     C 8966  -0.253   0.698   2.360  0.2888  0.1917 -0.4317
  808MOL0     C 8967  -0.177   0.563   2.369 -0.0671  0.7410 -0.5210
  808MOL0     C 8968  -0.091   0.555   2.239 -0.2751  0.5469  0.2674
  808MOL0     O 8969  -0.033   0.418   2.218  0.7560  0.0247  0.0688
  808MOL0     C 8970   0.052   0.399   2.107  0.8911  0.1416  0.1394
  808MOL0     C 8971   0.114   0.278   2.090 -0.2175 -0.3156  0.2726
  808MOL0     C 8972   0.189   0.243   1.979 -0.2076  0.4667 -0.3305
  808MOL0     C 8973   0.244   0.105   1.988  0.0125  0.1113  0.9198
  808MOL0     C 8974   0.203   0.328   1.867 -0.1679  0.0048  0.5390
  808MOL0     C 8975   0.285   0.293   1.754 -0.3377 -1.6761  0.5336
  808MOL0     O 8976   0.369   0.392   1.706  0.5154 -0.0065  0.0656
  808MOL0     C 8977   0.449   0.373   1.596  0.1425 -0.8439  0.4732
  808MOL0     C 8978   0.410   0.289   1.486  0.1566 -0.1378  0.1345
  808MOL0     C 8979   0.493   0.271   1.379  0.2704 -0.5375 -0.3654
  808MOL0     C 8980   0.620   0.319   1.377 -0.1299 -0.1608  0.2725
  808MOL0     O 8981   0.714   0.277   1.279 -0.0241  0.3944 -0.2994
  808MOL0     C 8982   0.678   0.214   1.161  0.0506 -0.7159  0.5128
  808MOL0     C 8983   0.791   0.244   1.051 -0.6376 -0.5260  0.4958
  808MOL0     C 8984   0.785   0.392   1.021 -0.8447 -0.4021 -0.0564
  808MOL0     C 8985   0.877   0.454   0.916 -0.5005 -0.1688  0.3497
  808MOL0     C 8986   0.857   0.605   0.920  0.6245  0.5357  0.8529
  808MOL0     C 8987   0.945   0.687   0.822 -0.1072 -0.6634  0.0840
  808MOL0     C 8988   0.933   0.652   0.669  0.1057 -0.5127 -0.3151
  808MOL0     C 8989   0.985   0.758   0.579 -0.0310 -0.1845 -0.4771
  808MOL0    Cl 8990   0.868   0.897   0.576 -0.2443  0.2747 -0.3534
  808MOL0     C 8991   0.669   0.400   1.482 -0.3332 -0.1219 -0.5116
  808MOL0     C 8992   0.582   0.428   1.592  0.6742 -0.5153  0.4647
  808MOL0     O 8993   0.288   0.179   1.712  0.2298 -0.0926  0.2106
  808MOL0     C 8994   0.154   0.456   1.892 -0.4696  0.0428 -0.2001
  808MOL0     C 8995   0.077   0.488   2.009  0.1074  0.1605 -0.1728
  808MOL0     N 8996  -0.483   0.669   2.673 -0.4847  0.2761  1.0196
  808MOL0     N 8997  -0.433   0.682   2.784  0.4419  0.4261  0.1867
  808MOL0     C 8998   0.827   0.672   3.189  0.2845  0.3829 -0.7622
  808MOL0     C 8999   0.955   0.728   3.201 -0.0724 -0.0359  0.0514
  808MOL0     C 9000   1.314   0.959   3.253  0.0766  0.7998 -0.5087
  808MOL0     C 9001   1.374   1.002   3.136  0.5525  0.1287  0.1361
  808MOL0     C 9002   1.509   1.021   3.128 -0.1964  0.0091  0.0585
  808MOL0     C 9003   1.591   1.000   3.239 -0.4744 -0.6672 -0.0336
  808MOL0     O 9004   1.727   1.015   3.209  0.5356 -0.2082  0.1217
  808MOL0     C 9005   1.821   0.952   3.294  0.4457 -0.8164  0.0983
  808MOL0     C 9006   1.959   0.967   3.229 -0.8913 -0.3397 -0.0862
  808MOL0     C 9007   1.999   0.852   3.132 -0.3016 -0.3235  0.4436
  808MOL0     C 9008   2.035   0.720   3.214  0.2476  0.2763 -0.2147
  808MOL0     C 9009   2.091   0.607   3.136 -0.5716  0.1803 -0.4430
  808MOL0     C 9010   2.143   0.516   3.075  1.1244 -0.3472  0.4110
  808MOL0     C 9011   1.535   0.963   3.356  0.3057  0.1159  0.2489
  808MOL0     C 9012   1.393   0.942   3.366 -1.5111  0.2213 -0.4997
  808MOL0     H 9013   0.880   1.005   3.019 -0.6052 -0.7482 -1.1313
  808MOL0     H 9014   0.664   0.912   2.993 -0.2752 -1.5056 -2.1329
  808MOL0     H 9015   0.486   0.828   3.024  0.1840  0.5528  0.1688
  808MOL0     H 9016   0.531   0.689   2.924 -0.1905  1.3006 -0.5168
  808MOL0     H 9017   0.344   0.567   3.106 -1.6069  1.8026  2.9443
  808MOL0     H 9018   0.287   0.734   3.087 -0.4733 -0.1380 -1.4622
  808MOL0     H 9019   0.299   0.711   2.852  2.9739 -0.8646 -0.9814
  808MOL0     H 9020   0.338   0.537   2.855 -2.7296 -0.3383 -0.8447
  808MOL0     H 9021   0.157   0.486   2.997  1.5376  0.6596 -0.0233
  808MOL0     H 9022   0.095   0.652   2.992 -0.5839  0.5991 -0.0489
  808MOL0     H 9023   0.056   0.640   2.752  0.0090  1.1453  1.6436
  808MOL0     H 9024   0.119   0.472   2.737 -1.2897  1.4751 -2.1403
  808MOL0     H 9025  -0.112   0.465   2.728 -0.0355 -1.0579 -0.4077
  808MOL0     H 9026  -0.046   0.377   2.862  0.1038  0.8551 -0.5617
  808MOL0     H 9027  -0.255   0.494   2.933 -0.0395  1.1520  1.7162
  808MOL0     H 9028  -0.126   0.542   3.023  1.1557  0.1870 -0.0701
  808MOL0     H 9029  -0.113   0.751   2.879  0.7420  0.1961  3.1457
  808MOL0     H 9030  -0.248   0.727   2.979  0.1513 -0.3350  0.4072
  808MOL0     H 9031  -0.163   0.742   2.622  1.9155  1.3381  3.2400
  808MOL0     H 9032  -0.457   0.626   2.399  0.3414  0.3168 -1.1569
  808MOL0     H 9033  -0.443   0.794   2.422 -3.7687 -1.2922  1.4886
  808MOL0     H 9034  -0.193   0.779   2.404  0.1754 -0.8742  1.8261
  808MOL0     H 9035  -0.270   0.730   2.257 -0.9826  2.7889  0.4795
  808MOL0     H 9036  -0.251   0.483   2.374 -2.2500  2.6323 -1.1496
  808MOL0     H 9037  -0.101   0.556   2.448 -0.1533  1.3876 -0.3770
  808MOL0     H 9038   0.003   0.611   2.242  1.4228 -2.1138  1.2999
  808MOL0     H 9039  -0.162   0.577   2.159 -4.2392 -2.5985  2.5214
  808MOL0     H 9040   0.094   0.206   2.168  1.6131 -2.5426 -1.1810
  808MOL0     H 9041   0.284   0.084   2.088 -2.0696 -1.8875  1.3975
  808MOL0     H 9042   0.164   0.032   1.975  1.0650 -1.4656  2.6905
  808MOL0     H 9043   0.328   0.088   1.920  0.0090  1.6993  0.4747
  808MOL0     H 9044   0.312   0.244   1.482 -1.2980  2.2181  4.0502
  808MOL0     H 9045   0.454   0.201   1.306  0.6412 -1.6674  0.4763
  808MOL0     H 9046   0.672   0.106   1.178 -0.5488 -0.3940  2.6190
  808MOL0     H 9047   0.580   0.243   1.120 -1.3758 -3.0566  2.0037
  808MOL0     H 9048   0.886   0.218   1.100 -0.9440 -1.6442  0.5343
  808MOL0     H 9049   0.766   0.198   0.955  2.3075 -1.5734  0.1141
  808MOL0     H 9050   0.821   0.440   1.113  3.4878 -2.6011 -0.3352
  808MOL0     H 9051   0.685   0.431   1.004  0.2583  2.3707 -0.6827
  808MOL0     H 9052   0.984   0.435   0.926 -0.4857 -0.3459 -0.1496
  808MOL0     H 9053   0.852   0.409   0.820 -1.0244 -1.5132  1.0779
  808MOL0     H 9054   0.878   0.644   1.020  3.9588 -0.0781  0.4988
  808MOL0     H 9055   0.750   0.624   0.905  0.7761  0.7749  0.0284
  808MOL0     H 9056   0.912   0.792   0.828  0.1850 -0.3026 -3.0372
  808MOL0     H 9057   1.046   0.673   0.861  0.0295  0.8191  0.3487
  808MOL0     H 9058   0.830   0.625   0.645 -0.1855  1.6785 -1.7650
  808MOL0     H 9059   0.994   0.563   0.647 -0.5168 -0.7070 -1.3038
  808MOL0     H 9060   0.994   0.727   0.474 -1.6192  1.8566 -1.3184
  808MOL0     H 9061   1.083   0.788   0.616  1.3595 -1.8425 -2.5709
  808MOL0     H 9062   0.767   0.447   1.484 -0.9140  1.1216  0.5714
  808MOL0     H 9063   0.610   0.490   1.677 -1.5278 -1.6904  2.1305
  808MOL0     H 9064   0.168   0.541   1.825 -3.1195  2.3556  1.8915
  808MOL0     H 9065   0.034   0.587   2.018  1.6164  0.8242  0.1112
  808MOL0     H 9066   0.802   0.582   3.246  1.5526  1.0695  0.9587
  808MOL0     H 9067   1.026   0.678   3.266  1.8632  0.9906 -1.1966
  808MOL0     H 9068   1.317   1.010   3.043  2.1922 -2.3795 -1.2008
  808MOL0     H 9069   1.571   1.030   3.040  3.9221 -0.8971  2.5612
  808MOL0     H 9070   1.832   1.002   3.390 -0.2491 -0.0574 -0.2073
  808MOL0     H 9071   1.789   0.848   3.307 -1.7582  0.1126  3.3291
  808MOL0     H 9072   2.027   0.947   3.313 -0.4594  0.0347 -0.3453
  808MOL0     H 9073   1.974   1.068   3.191 -1.6305 -0.7446 -1.5144
  808MOL0     H 9074   2.095   0.875   3.084 -0.0310 -2.1275  0.0791
  808MOL0     H 9075   1.915   0.836   3.064  0.0886  4.5118 -1.6093
  808MOL0     H 9076   1.939   0.672   3.234 -0.2650 -0.5954 -3.9515
  808MOL0     H 9077   2.092   0.747   3.303 -3.5966  0.9475  2.3022
  808MOL0     H 9078   2.179   0.446   3.002 -2.4762 -1.8270 -0.1391
  808MOL0     H 9079   1.584   0.957   3.453 -2.2242  0.9264  1.6703
  808MOL0     H 9080   1.354   0.922   3.465  2.2988 -1.0538  0.9352
  809MOL0     O 9081  11.024  10.009   3.400 -0.0534 -1.0325 -0.4512
  809MOL0     C 9082  11.131   9.956   3.381 -1.0441 -0.4474 -0.1106
  809MOL0     O 9083  11.208   9.966   3.271  0.6283  0.5625 -0.3277
  809MOL0     C 9084  11.146  10.018   3.155  0.3430  0.7099 -0.4379
  809MOL0     C 9085  11.212  10.120   3.096 -0.4010  0.0272 -0.8692
  809MOL0     C 9086  11.160  10.177   2.972 -0.1232 -0.2942 -0.1528
  809MOL0     C 9087  11.028  10.126   2.925  0.0719 -0.6443  0.4414
  809MOL0     O 9088  10.972  10.177   2.809 -0.6686 -0.4617 -0.1234
  809MOL0     C 9089  10.982  10.324   2.800  0.4069 -0.5649  0.6292
  809MOL0     C 9090  10.866  10.369   2.706 -0.3748 -0.1532 -0.5654
  809MOL0     C 9091  10.823  10.518   2.723  0.4535  0.2870  0.4482
  809MOL0     C 9092  10.706  10.559   2.636 -0.1552  0.3604 -0.2937
  809MOL0     C 9093  10.645  10.703   2.652 -0.8760 -0.1009 -0.9192
  809MOL0     C 9094  10.575  10.715   2.790 -0.7735 -0.7744 -0.1427
  809MOL0     C 9095  10.465  10.604   2.796  0.1769  0.1527 -0.8714
  809MOL0     C 9096  10.377  10.631   2.925 -0.2692 -0.6418  0.0214
  809MOL0     N 9097  10.258  10.543   2.919 -0.3783 -0.2458  0.4983
  809MOL0     C 9098  10.142  10.580   2.861 -0.1308 -0.3868 -0.1817
  809MOL0     C 9099  10.064  10.473   2.854  0.2892  1.0397  0.9954
  809MOL0     C 9100   9.927  10.475   2.799  0.3637 -0.9024 -0.3073
  809MOL0     C 9101   9.849  10.613   2.824 -0.1084  0.1730 -0.2569
  809MOL0     C 9102   9.700  10.595   2.801 -0.4186 -0.1725 -0.2036
  809MOL0     C 9103   9.612  10.727   2.802 -0.6445 -0.1238  0.2760
  809MOL0     O 9104   9.613  10.782   2.939  0.7508 -0.1517  0.3523
  809MOL0     C 9105   9.534  10.892   2.954 -0.4710 -0.0849  0.0550
  809MOL0     C 9106   9.399  10.881   2.936 -0.3578 -0.0756 -0.4230
  809MOL0     C 9107   9.314  10.987   2.957  0.4693  0.3312  0.4307
  809MOL0     C 9108   9.164  10.962   2.931 -0.3513  0.5320  0.1170
  809MOL0     C 9109   9.368  11.107   3.018  0.4015 -0.6347 -0.2616
  809MOL0     C 9110   9.284  11.224   3.053 -0.1252 -0.3280  0.1942
  809MOL0     O 9111   9.331  11.313   3.141 -0.2455 -0.4360  0.7469
  809MOL0     C 9112   9.229  11.374   3.222 -0.2283 -0.1103  0.7138
  809MOL0     C 9113   9.248  11.516   3.217  0.9535  0.3377  0.1410
  809MOL0     C 9114   9.136  11.596   3.251 -0.3795  0.2484  0.4525
  809MOL0     C 9115   9.020  11.545   3.302 -0.2144 -0.0130 -0.1800
  809MOL0     O 9116   8.917  11.611   3.352  0.0315  0.7373 -0.4059
  809MOL0     C 9117   8.928  11.749   3.367 -0.1381 -0.8041 -0.9113
  809MOL0     C 9118   8.798  11.816   3.423 -0.9605 -0.2416 -0.6363
  809MOL0     C 9119   8.783  11.787   3.582 -0.4850  1.1376  0.6348
  809MOL0     C 9120   8.670  11.875   3.632  0.7074  0.1834  0.0503
  809MOL0     C 9121   8.639  11.858   3.779 -0.0203 -0.5523 -0.0493
  809MOL0     C 9122   8.506  11.925   3.830  1.0965 -0.0653  0.3523
  809MOL0     C 9123   8.490  12.070   3.775  0.3285 -0.1903 -1.0897
  809MOL0     C 9124   8.356  12.136   3.808 -0.9750  0.0995 -0.6913
  809MOL0    Cl 9125   8.219  12.064   3.719 -0.2507 -0.0343 -0.4014
  809MOL0     C 9126   9.004  11.404   3.295 -0.6142 -0.1542  0.1957
  809MOL0     C 9127   9.109  11.326   3.262 -0.4665  0.5274  0.5772
  809MOL0     O 9128   9.179  11.233   2.988 -0.0787 -0.3882 -0.5266
  809MOL0     C 9129   9.508  11.112   3.039 -0.5949  0.6617 -0.4144
  809MOL0     C 9130   9.585  11.010   2.997  0.1957 -0.2244  0.5540
  809MOL0     N 9131  10.128  10.364   2.900  0.1180 -0.2369 -0.1975
  809MOL0     N 9132  10.248  10.408   2.936 -0.6549 -0.7039 -0.7594
  809MOL0     C 9133  10.968  10.013   2.987 -0.3088  0.1474 -0.3757
  809MOL0     C 9134  11.029   9.963   3.105  0.9249 -0.4235  0.0878
  809MOL0     C 9135  11.175   9.867   3.493  1.2412  0.6458  0.6432
  809MOL0     C 9136  11.294   9.798   3.470 -0.1285  0.1552  0.2735
  809MOL0     C 9137  11.343   9.700   3.552 -0.0702 -0.3041 -0.2704
  809MOL0     C 9138  11.285   9.683   3.678 -0.5646 -0.2108  0.1596
  809MOL0     O 9139  11.334   9.599   3.780  0.2516  0.0323  0.1087
  809MOL0     C 9140  11.464   9.545   3.774  0.5415  0.6564  0.1792
  809MOL0     C 9141  11.500   9.486   3.911  0.6939  0.6992 -1.1179
  809MOL0     C 9142  11.614   9.388   3.892  0.4003 -0.1225 -0.3474
  809MOL0     C 9143  11.692   9.351   4.023 -0.0734 -0.5275 -0.4449
  809MOL0     C 9144  11.766   9.468   4.052 -0.5674  0.1720 -1.0592
  809MOL0     C 9145  11.816   9.576   4.084 -0.3845 -0.5070  0.0388
  809MOL0     C 9146  11.169   9.756   3.701 -0.7236  0.0837  1.0329
  809MOL0     C 9147  11.110   9.845   3.613 -0.4207  0.8524  0.1470
  809MOL0     H 9148  11.307  10.158   3.133 -0.6540  2.3939 -2.3849
  809MOL0     H 9149  11.224  10.237   2.908  1.0262 -1.0201  0.2890
  809MOL0     H 9150  10.954  10.365   2.897  0.0924  1.2277 -0.1752
  809MOL0     H 9151  11.079  10.356   2.761 -0.8337  1.8497 -0.7160
  809MOL0     H 9152  10.890  10.350   2.601  2.0894 -1.1286  0.1173
  809MOL0     H 9153  10.780  10.308   2.733 -1.3755  2.5378  3.1047
  809MOL0     H 9154  10.797  10.543   2.826  0.0738 -1.8274  0.9166
  809MOL0     H 9155  10.915  10.572   2.698  2.4084 -1.8831  2.3763
  809MOL0     H 9156  10.741  10.550   2.532  1.8467 -0.9167  0.4317
  809MOL0     H 9157  10.620  10.491   2.639 -0.6308  0.8815 -1.4714
  809MOL0     H 9158  10.726  10.775   2.641 -0.6681 -0.4852 -2.0373
  809MOL0     H 9159  10.572  10.729   2.575  0.6740 -0.3777 -2.5550
  809MOL0     H 9160  10.650  10.720   2.871 -0.1068  0.2665 -0.7971
  809MOL0     H 9161  10.525  10.812   2.787 -0.1999 -0.4828 -2.7765
  809MOL0     H 9162  10.407  10.593   2.704  0.7308  2.6423 -1.5940
  809MOL0     H 9163  10.516  10.509   2.814 -1.8575 -0.4786  2.4084
  809MOL0     H 9164  10.338  10.733   2.922 -1.7823 -1.2249 -1.7746
  809MOL0     H 9165  10.445  10.608   3.007  0.3234  2.5060  0.5466
  809MOL0     H 9166  10.113  10.680   2.830  2.0034  0.6540  0.9347
  809MOL0     H 9167   9.926  10.443   2.695  0.6117 -0.0509 -0.5824
  809MOL0     H 9168   9.886  10.388   2.850  2.8917 -1.3869  1.1056
  809MOL0     H 9169   9.877  10.703   2.768 -6.2394  2.8756  0.1638
  809MOL0     H 9170   9.866  10.645   2.927 -0.6254  0.7812 -0.3558
  809MOL0     H 9171   9.665  10.525   2.877  1.1577 -0.3247  0.4284
  809MOL0     H 9172   9.683  10.547   2.704  2.3578 -0.5462 -0.6086
  809MOL0     H 9173   9.508  10.699   2.781 -0.4142 -0.6577 -0.1750
  809MOL0     H 9174   9.652  10.803   2.735  1.8601 -1.3648  0.2571
  809MOL0     H 9175   9.356  10.785   2.908 -2.7282  0.0260  2.4145
  809MOL0     H 9176   9.122  11.014   2.844 -0.4469  0.1748 -0.0549
  809MOL0     H 9177   9.151  10.856   2.906  0.5973  0.6985 -1.1699
  809MOL0     H 9178   9.116  10.992   3.024  2.0575  3.2959  0.6083
  809MOL0     H 9179   9.340  11.563   3.186  1.4863  0.7837  2.2572
  809MOL0     H 9180   9.149  11.704   3.239 -0.1281  0.3570  1.6334
  809MOL0     H 9181   9.018  11.780   3.421 -0.0512 -0.2555 -1.3498
  809MOL0     H 9182   8.943  11.789   3.266 -0.3154 -0.5310 -0.8307
  809MOL0     H 9183   8.787  11.921   3.398  2.0514  0.4722  0.6490
  809MOL0     H 9184   8.722  11.757   3.372  1.1167 -1.5516 -2.3930
  809MOL0     H 9185   8.871  11.819   3.639 -0.3756  1.5028  0.2641
  809MOL0     H 9186   8.755  11.685   3.611 -1.1442  1.6494  1.8738
  809MOL0     H 9187   8.692  11.981   3.621 -1.4555  0.7194  0.4079
  809MOL0     H 9188   8.579  11.844   3.578  1.2549 -0.6224 -0.4361
  809MOL0     H 9189   8.719  11.921   3.819 -1.2972  0.5941  0.7584
  809MOL0     H 9190   8.662  11.761   3.825  2.1788  0.3387  0.8744
  809MOL0     H 9191   8.418  11.865   3.805  2.9154 -2.2440 -1.2268
  809MOL0     H 9192   8.513  11.926   3.940  3.3342 -0.4552  0.2589
  809MOL0     H 9193   8.502  12.052   3.668  3.8007 -2.5355 -0.4576
  809MOL0     H 9194   8.564  12.138   3.818 -1.1903 -0.5563  2.5304
  809MOL0     H 9195   8.367  12.238   3.770  1.6681  0.2073  0.1531
  809MOL0     H 9196   8.339  12.139   3.916  0.1222  5.0307 -0.4297
  809MOL0     H 9197   8.923  11.350   3.342  0.0232 -3.0162 -1.6952
  809MOL0     H 9198   9.092  11.219   3.255  0.7620  0.3387  0.3845
  809MOL0     H 9199   9.549  11.203   3.080  1.1915 -0.4687  0.4324
  809MOL0     H 9200   9.692  11.009   3.017 -0.3068  3.0729  4.8170
  809MOL0     H 9201  10.884   9.961   2.943 -1.6785  0.5595  1.5849
  809MOL0     H 9202  10.996   9.870   3.149 -1.5441  0.7455  0.9110
  809MOL0     H 9203  11.355   9.825   3.384  1.3369  0.3986  1.3439
  809MOL0     H 9204  11.427   9.638   3.522 -0.5209 -0.7518 -0.6324
  809MOL0     H 9205  11.455   9.463   3.702  1.0264  1.2989 -0.6228
  809MOL0     H 9206  11.535   9.622   3.745  1.3228  0.1845  0.7913
  809MOL0     H 9207  11.414   9.428   3.946 -0.6552  3.3926  0.2615
  809MOL0     H 9208  11.521   9.558   3.991 -2.6487  1.0636 -0.4467
  809MOL0     H 9209  11.683   9.424   3.815  2.7422  0.0191  1.6962
  809MOL0     H 9210  11.559   9.297   3.864 -1.1699  0.3620  1.0085
  809MOL0     H 9211  11.751   9.262   4.002  0.9197 -0.1708  0.7668
  809MOL0     H 9212  11.623   9.336   4.107  1.7372  0.1799  1.2388
  809MOL0     H 9213  11.868   9.667   4.106 -0.3640 -0.2277 -1.1233
  809MOL0     H 9214  11.129   9.734   3.799 -0.9929 -1.3223  0.6302
  809MOL0     H 9215  11.015   9.895   3.629  0.1092  1.8938  0.1125
  810MOL0     O 9216  10.513   3.055   7.820  0.0324  0.2245 -0.8451
  810MOL0     C 9217  10.492   3.129   7.724 -0.3834 -1.1479  0.1640
  810MOL0     O 9218  10.383   3.134   7.644 -0.9946 -1.0249 -1.0090
  810MOL0     C 9219  10.292   3.058   7.695 -0.4451  0.4908  0.4266
  810MOL0     C 9220  10.192   3.113   7.779  0.9493 -0.5567  1.0877
  810MOL0     C 9221  10.080   3.035   7.812 -0.5159  0.9793 -0.5936
  810MOL0     C 9222  10.068   2.898   7.762  0.0845 -0.8769 -0.2907
  810MOL0     O 9223   9.957   2.813   7.774  0.4215  0.1491  0.1958
  810MOL0     C 9224   9.877   2.839   7.890 -0.0407 -0.1819 -0.4077
  810MOL0     C 9225   9.945   2.814   8.029  0.1931  0.2858 -0.2744
  810MOL0     C 9226   9.992   2.664   8.041 -0.4485  0.3173 -0.6595
  810MOL0     C 9227  10.090   2.652   8.159  0.0920  0.2085 -0.2554
  810MOL0     C 9228  10.222   2.574   8.146 -0.0531 -0.4742  0.1829
  810MOL0     C 9229  10.289   2.585   8.009 -0.8563 -0.1372  0.4192
  810MOL0     C 9230  10.322   2.731   7.975  0.1490  0.7536  0.1308
  810MOL0     C 9231  10.413   2.804   8.067 -0.3796  0.3670  0.2726
  810MOL0     N 9232  10.526   2.709   8.082  0.0386 -0.3579 -0.3261
  810MOL0     C 9233  10.635   2.701   7.997  1.2884  0.6239  0.4074
  810MOL0     C 9234  10.735   2.639   8.071  0.6467  1.3628 -0.9564
  810MOL0     C 9235  10.859   2.570   8.012  0.4908 -1.0026  0.6717
  810MOL0     C 9236  10.896   2.437   8.077 -1.0522  0.0617  0.1003
  810MOL0     C 9237  10.784   2.338   8.047 -0.1752  1.1483  0.9733
  810MOL0     C 9238  10.772   2.215   8.139  0.2916  0.9813 -0.6964
  810MOL0     O 9239  10.649   2.153   8.117 -0.2019 -0.8859  0.3666
  810MOL0     C 9240  10.535   2.194   8.184  0.2157  0.1355  0.1804
  810MOL0     C 9241  10.447   2.088   8.218  0.5348 -0.5153 -0.3380
  810MOL0     C 9242  10.340   2.118   8.306 -0.2138  0.6954  0.6436
  810MOL0     C 9243  10.264   1.996   8.348 -0.4187 -0.5216 -0.5713
  810MOL0     C 9244  10.307   2.250   8.353  0.4238  0.0507  0.4208
  810MOL0     C 9245  10.185   2.300   8.429 -0.2811 -0.1054 -0.5667
  810MOL0     O 9246  10.185   2.442   8.465  0.2556  0.2081  0.3302
  810MOL0     C 9247  10.083   2.501   8.537  0.6697 -0.2491 -0.7381
  810MOL0     C 9248  10.002   2.437   8.634 -0.0127  0.6074  0.3039
  810MOL0     C 9249   9.899   2.496   8.703 -0.2113 -0.2015  0.1593
  810MOL0     C 9250   9.878   2.630   8.682  0.3855 -0.2780 -0.5467
  810MOL0     O 9251   9.789   2.706   8.751 -0.1995  0.1516 -0.1211
  810MOL0     C 9252   9.646   2.678   8.742 -0.3446 -0.4298  0.3780
  810MOL0     C 9253   9.570   2.803   8.805  0.3387  0.8389 -0.6119
  810MOL0     C 9254   9.418   2.791   8.802  0.8601 -0.1092  0.1843
  810MOL0     C 9255   9.333   2.910   8.859  0.0516  0.2927  0.2989
  810MOL0     C 9256   9.186   2.876   8.839  0.0328 -0.3521  0.1179
  810MOL0     C 9257   9.090   2.989   8.883  0.0400 -0.8253  0.6524
  810MOL0     C 9258   8.938   2.963   8.865  0.9613 -0.4962 -0.6756
  810MOL0     C 9259   8.902   2.915   8.732  0.0188 -0.1341 -0.6990
  810MOL0    Cl 9260   8.957   3.040   8.604 -0.3416 -0.2120  0.3308
  810MOL0     C 9261   9.962   2.708   8.595 -0.2892  0.8737 -0.9601
  810MOL0     C 9262  10.062   2.640   8.519  0.3495 -0.3059  0.1934
  810MOL0     O 9263  10.102   2.220   8.470 -0.1996 -0.2508 -0.2696
  810MOL0     C 9264  10.398   2.348   8.309 -0.2217 -0.8425 -0.7531
  810MOL0     C 9265  10.512   2.322   8.229 -0.8502 -0.6969 -0.7502
  810MOL0     N 9266  10.687   2.629   8.203  0.0781  0.8461  0.9269
  810MOL0     N 9267  10.566   2.663   8.204 -0.3527  0.0989  0.1884
  810MOL0     C 9268  10.167   2.844   7.683 -0.5240  0.1536 -1.0027
  810MOL0     C 9269  10.280   2.922   7.665  0.9588 -0.6343  0.2300
  810MOL0     C 9270  10.592   3.226   7.687  0.1683 -1.7592  0.2381
  810MOL0     C 9271  10.726   3.216   7.720 -0.2832  1.0969 -0.1703
  810MOL0     C 9272  10.823   3.297   7.662 -0.0488 -0.2129 -0.4707
  810MOL0     C 9273  10.787   3.400   7.575  0.0712  0.1485 -0.6117
  810MOL0     O 9274  10.890   3.482   7.528  1.0407  0.1497 -0.4197
  810MOL0     C 9275  10.850   3.598   7.449 -0.0321  0.0083 -0.2531
  810MOL0     C 9276  10.965   3.705   7.437 -0.0763  0.0030 -0.2101
  810MOL0     C 9277  10.946   3.795   7.304  0.0848  0.9298  0.1435
  810MOL0     C 9278  10.820   3.881   7.310  0.4923  0.2570  0.2055
  810MOL0     C 9279  10.787   3.968   7.199  0.0783  0.0706  0.8369
  810MOL0     C 9280  10.783   4.054   7.123  0.1286 -1.3922 -0.3941
  810MOL0     C 9281  10.650   3.419   7.547  0.0907 -0.4052 -0.1418
  810MOL0     C 9282  10.556   3.336   7.602  0.4297 -0.1441 -0.1355
  810MOL0     H 9283  10.199   3.212   7.823  0.4227 -1.0244  2.2749
  810MOL0     H 9284  10.009   3.073   7.885 -1.7159 -0.7939 -0.7744
  810MOL0     H 9285   9.841   2.942   7.896 -0.3176 -0.3020  0.0651
  810MOL0     H 9286   9.782   2.785   7.890 -0.7582  0.9939 -1.9032
  810MOL0     H 9287  10.032   2.879   8.042 -0.6997  2.4801 -3.8453
  810MOL0     H 9288   9.871   2.834   8.108  1.7651  0.0642  1.3249
  810MOL0     H 9289   9.907   2.596   8.056  1.1292 -1.5457  0.2823
  810MOL0     H 9290  10.044   2.640   7.948 -2.1683  4.0816 -2.8479
  810MOL0     H 9291  10.119   2.756   8.175 -2.2687  1.1976 -1.7980
  810MOL0     H 9292  10.033   2.612   8.243  1.2866 -0.7008  0.1577
  810MOL0     H 9293  10.296   2.607   8.219 -0.0450 -0.0822 -0.0047
  810MOL0     H 9294  10.197   2.470   8.171  5.4434 -2.0835  0.2293
  810MOL0     H 9295  10.380   2.526   8.023 -0.6303  0.5386  2.1290
  810MOL0     H 9296  10.226   2.530   7.939  0.0736 -1.1136  0.3167
  810MOL0     H 9297  10.360   2.719   7.873 -0.1753  0.1585  0.0719
  810MOL0     H 9298  10.236   2.797   7.965  1.1439  1.7725 -2.4350
  810MOL0     H 9299  10.381   2.827   8.169 -0.2591  1.6426  0.0394
  810MOL0     H 9300  10.444   2.895   8.015 -1.2700  1.6692  1.9127
  810MOL0     H 9301  10.624   2.716   7.890 -3.3690 -3.4597 -0.0519
  810MOL0     H 9302  10.854   2.552   7.905  1.0303 -0.8201  0.6159
  810MOL0     H 9303  10.935   2.647   8.027 -0.3748 -0.0989  0.5584
  810MOL0     H 9304  10.895   2.458   8.185  0.5364  0.1887  0.1179
  810MOL0     H 9305  10.995   2.398   8.050  0.0557  1.9841  1.1163
  810MOL0     H 9306  10.821   2.289   7.956  0.6180 -1.7166  2.7066
  810MOL0     H 9307  10.686   2.381   8.024  0.0390 -0.0114 -2.9246
  810MOL0     H 9308  10.781   2.244   8.245  0.5104 -0.0616 -0.4224
  810MOL0     H 9309  10.850   2.147   8.105  0.5566  2.3856 -3.0803
  810MOL0     H 9310  10.451   1.989   8.175  1.7552 -0.5462 -0.1839
  810MOL0     H 9311  10.194   1.970   8.269 -0.0124  2.1982 -1.9348
  810MOL0     H 9312  10.335   1.914   8.363 -0.3501 -0.5582 -1.0985
  810MOL0     H 9313  10.209   2.007   8.442  0.6526 -2.7666  0.3886
  810MOL0     H 9314  10.034   2.340   8.673  1.2384  0.9374  0.1591
  810MOL0     H 9315   9.843   2.424   8.761  0.8422 -2.1147 -1.0822
  810MOL0     H 9316   9.615   2.656   8.640  2.2770 -0.2002 -0.5600
  810MOL0     H 9317   9.630   2.585   8.798  1.0852 -0.9107  0.0443
  810MOL0     H 9318   9.605   2.805   8.909  0.9748  0.0579 -0.8132
  810MOL0     H 9319   9.613   2.889   8.753  2.9847  1.7589  2.7303
  810MOL0     H 9320   9.397   2.704   8.865 -2.2844 -1.7229 -2.7774
  810MOL0     H 9321   9.380   2.767   8.703 -0.0991  2.1573 -0.0754
  810MOL0     H 9322   9.362   2.938   8.961 -0.0381  0.3223  0.3163
  810MOL0     H 9323   9.360   2.993   8.795 -1.8738  1.3419  0.7677
  810MOL0     H 9324   9.171   2.786   8.899 -1.4939  1.2526  2.2867
  810MOL0     H 9325   9.169   2.860   8.732 -1.0237  0.8856  0.0822
  810MOL0     H 9326   9.112   3.008   8.988 -1.0419  1.9312  0.4560
  810MOL0     H 9327   9.108   3.083   8.831  0.1750 -1.6723 -0.9010
  810MOL0     H 9328   8.884   3.057   8.880 -0.0572 -1.4508  2.2445
  810MOL0     H 9329   8.919   2.884   8.937 -1.6122 -0.5932 -1.3698
  810MOL0     H 9330   8.794   2.899   8.727 -0.2087  0.8714  0.5008
  810MOL0     H 9331   8.950   2.819   8.714 -0.0635 -0.1838 -0.6572
  810MOL0     H 9332   9.949   2.815   8.584 -2.4642  0.5948 -1.5795
  810MOL0     H 9333  10.125   2.694   8.448 -1.0910  0.5575 -0.4674
  810MOL0     H 9334  10.391   2.448   8.349  3.0542 -0.1867 -1.5648
  810MOL0     H 9335  10.588   2.399   8.224 -2.3294  0.9205  0.4503
  810MOL0     H 9336  10.168   2.750   7.630  2.3405 -0.7061  0.3818
  810MOL0     H 9337  10.355   2.889   7.593 -1.0834 -0.6542 -2.0300
  810MOL0     H 9338  10.766   3.138   7.785 -3.6383 -1.6715 -1.1217
  810MOL0     H 9339  10.928   3.269   7.673  0.4504  1.6846  0.1215
  810MOL0     H 9340  10.836   3.564   7.346 -2.5463 -0.4218  0.1719
  810MOL0     H 9341  10.753   3.634   7.484  0.1422 -0.7596  1.0700
  810MOL0     H 9342  11.059   3.651   7.451  0.2170  1.3143  4.4437
  810MOL0     H 9343  10.958   3.771   7.524  0.9069  0.9369 -0.8114
  810MOL0     H 9344  10.941   3.728   7.218  2.3569  2.5822 -1.3972
  810MOL0     H 9345  11.038   3.852   7.292  0.4797  0.3468  0.3712
  810MOL0     H 9346  10.838   3.933   7.405 -0.0891  1.2434 -0.2016
  810MOL0     H 9347  10.740   3.807   7.326 -0.9168  2.1285  2.5383
  810MOL0     H 9348  10.784   4.144   7.066  1.2034 -0.0228  1.6479
  810MOL0     H 9349  10.603   3.488   7.479  0.1409 -1.5588 -1.3967
  810MOL0     H 9350  10.448   3.337   7.588  0.3329 -4.6485 -1.5248
  811MOL0     O 9351   3.577   6.493   5.813  0.5521 -0.5994 -0.3517
  811MOL0     C 9352   3.475   6.561   5.797 -0.7110  0.0606 -0.2631
  811MOL0     O 9353   3.340   6.522   5.809  0.2320 -0.1859  0.4024
  811MOL0     C 9354   3.299   6.414   5.888  0.3934  0.2056 -0.9629
  811MOL0     C 9355   3.187   6.351   5.852  1.1851  0.7766 -0.5592
  811MOL0     C 9356   3.136   6.238   5.917  0.0106  0.5375  0.7436
  811MOL0     C 9357   3.200   6.190   6.029  0.1375  0.4163 -0.2404
  811MOL0     O 9358   3.143   6.076   6.085 -0.0203  0.1048  0.1704
  811MOL0     C 9359   3.139   6.075   6.227  0.2676  0.0866  0.0371
  811MOL0     C 9360   3.050   5.951   6.276 -0.5364  0.0725  0.0269
  811MOL0     C 9361   2.904   5.985   6.293  0.0471 -0.6074 -0.3035
  811MOL0     C 9362   2.841   6.024   6.151 -0.3898  0.2465 -0.4111
  811MOL0     C 9363   2.841   5.914   6.047  0.0903  0.5704  0.9548
  811MOL0     C 9364   2.753   5.962   5.928 -0.9928 -0.0861 -0.0383
  811MOL0     C 9365   2.734   5.854   5.827  0.2864 -0.3315 -1.0322
  811MOL0     C 9366   2.668   5.728   5.885  0.3255 -0.1371 -0.2981
  811MOL0     N 9367   2.633   5.630   5.784 -0.6785  0.9823 -0.1852
  811MOL0     C 9368   2.627   5.643   5.643 -0.4372  1.1282  0.0627
  811MOL0     C 9369   2.543   5.543   5.599 -0.6546  0.4105 -0.3258
  811MOL0     C 9370   2.529   5.520   5.455  0.9445  0.0407  0.3361
  811MOL0     C 9371   2.384   5.550   5.405 -0.2860 -1.0755 -0.2900
  811MOL0     C 9372   2.391   5.608   5.264 -0.0234 -0.4693  0.2569
  811MOL0     C 9373   2.261   5.594   5.192 -0.1898  0.5940  0.4253
  811MOL0     O 9374   2.276   5.646   5.060 -0.0222 -0.1829  1.3030
  811MOL0     C 9375   2.154   5.663   5.000  0.5936 -0.2952 -0.1239
  811MOL0     C 9376   2.154   5.738   4.880 -0.1760  0.5776  0.8697
  811MOL0     C 9377   2.045   5.734   4.797 -1.3849 -0.1888  0.8817
  811MOL0     C 9378   2.072   5.802   4.663 -0.4410  0.4034 -0.4412
  811MOL0     C 9379   1.918   5.671   4.837  0.1475 -0.4747  0.1745
  811MOL0     C 9380   1.798   5.671   4.755  0.2102  0.6654 -0.4285
  811MOL0     O 9381   1.716   5.562   4.760 -0.9773 -0.6891  0.1790
  811MOL0     C 9382   1.688   5.482   4.650 -0.0078  0.1735 -0.5780
  811MOL0     C 9383   1.591   5.380   4.661  0.1755 -1.4348 -0.4109
  811MOL0     C 9384   1.557   5.298   4.556 -0.4438 -0.3561 -0.0423
  811MOL0     C 9385   1.623   5.309   4.435 -0.2554  0.3590  0.2590
  811MOL0     O 9386   1.576   5.234   4.327  0.0205 -1.0323  0.5903
  811MOL0     C 9387   1.625   5.247   4.195 -0.2104 -0.3541 -0.5116
  811MOL0     C 9388   1.529   5.186   4.095 -0.3232  0.9032 -0.4054
  811MOL0     C 9389   1.570   5.212   3.951  0.4391  0.7274 -0.1111
  811MOL0     C 9390   1.449   5.198   3.858 -0.5884  0.0217 -0.4913
  811MOL0     C 9391   1.501   5.204   3.713  0.1267  0.0412 -0.2454
  811MOL0     C 9392   1.390   5.186   3.607  0.4843 -0.1116  0.8610
  811MOL0     C 9393   1.329   5.326   3.560 -0.3203  0.7960 -0.3463
  811MOL0     C 9394   1.237   5.295   3.444 -0.5045 -0.5190 -0.2260
  811MOL0    Cl 9395   1.326   5.267   3.288 -0.0686  0.1464 -0.0627
  811MOL0     C 9396   1.735   5.396   4.425 -0.3420  0.9152 -1.0449
  811MOL0     C 9397   1.759   5.489   4.525 -0.6337  0.0541 -0.9474
  811MOL0     O 9398   1.785   5.764   4.676  0.6949  0.1887  0.5231
  811MOL0     C 9399   1.919   5.605   4.961  0.0172 -0.3485  1.3618
  811MOL0     C 9400   2.030   5.599   5.042  0.1453  0.0417  0.2584
  811MOL0     N 9401   2.490   5.472   5.707  0.8031  0.1036  0.7551
  811MOL0     N 9402   2.550   5.521   5.804  0.0854  0.3881  0.4562
  811MOL0     C 9403   3.317   6.262   6.078 -0.5145 -0.2463 -0.0227
  811MOL0     C 9404   3.370   6.377   6.009 -0.4924 -0.0346  0.2119
  811MOL0     C 9405   3.498   6.696   5.747 -0.4795 -0.1579 -0.3158
  811MOL0     C 9406   3.626   6.759   5.748 -1.0624 -0.7298  0.4674
  811MOL0     C 9407   3.643   6.894   5.710 -0.1004 -0.3335 -0.1811
  811MOL0     C 9408   3.539   6.976   5.668 -0.1814  0.8277  1.3978
  811MOL0     O 9409   3.570   7.097   5.601 -0.1200 -0.3540 -0.3511
  811MOL0     C 9410   3.491   7.148   5.488 -0.4447 -0.2102 -0.3773
  811MOL0     C 9411   3.598   7.189   5.389  0.4204  1.5889 -0.1521
  811MOL0     C 9412   3.647   7.058   5.326  0.0130  0.2300 -0.7118
  811MOL0     C 9413   3.756   7.086   5.221  0.1237 -0.0207  0.0914
  811MOL0     C 9414   3.775   6.950   5.157  0.1895 -0.2054  0.1867
  811MOL0     C 9415   3.761   6.836   5.111  0.5005  0.1482 -0.4618
  811MOL0     C 9416   3.413   6.916   5.667 -0.1571 -0.6970 -0.5870
  811MOL0     C 9417   3.393   6.787   5.713 -0.0164 -0.0005 -0.1573
  811MOL0     H 9418   3.135   6.376   5.760 -2.9138  1.3557  1.6421
  811MOL0     H 9419   3.050   6.184   5.879  0.8112  1.1460 -2.2383
  811MOL0     H 9420   3.229   6.077   6.289  0.6283  0.5583 -0.4919
  811MOL0     H 9421   3.088   6.166   6.260 -0.5676 -0.2554 -0.2737
  811MOL0     H 9422   3.071   5.876   6.199 -3.0211 -0.3118 -0.3564
  811MOL0     H 9423   3.081   5.912   6.373 -1.4457  0.7298  0.6009
  811MOL0     H 9424   2.850   5.898   6.332 -3.0553  0.3026 -2.1758
  811MOL0     H 9425   2.896   6.075   6.353  0.5334 -0.1821 -0.8678
  811MOL0     H 9426   2.735   6.040   6.174  0.0917 -1.0503  3.3683
  811MOL0     H 9427   2.882   6.116   6.109  1.2440 -0.0343  0.5030
  811MOL0     H 9428   2.940   5.885   6.011  1.3238  3.3221  1.8133
  811MOL0     H 9429   2.793   5.830   6.098 -1.6865 -0.5705 -2.3053
  811MOL0     H 9430   2.654   5.994   5.961 -0.9351  0.1280 -0.0694
  811MOL0     H 9431   2.799   6.053   5.887 -0.4919 -0.4912 -0.4001
  811MOL0     H 9432   2.665   5.894   5.753  2.2624 -0.0241 -2.7987
  811MOL0     H 9433   2.836   5.839   5.789  0.8259  1.6486 -0.4616
  811MOL0     H 9434   2.578   5.766   5.935  1.9826  0.9992  2.0547
  811MOL0     H 9435   2.726   5.686   5.967 -0.3500 -0.4260  0.0414
  811MOL0     H 9436   2.681   5.705   5.574 -0.3681 -1.4091 -2.3408
  811MOL0     H 9437   2.598   5.579   5.393  1.6842 -2.8244 -1.7898
  811MOL0     H 9438   2.549   5.415   5.434  1.1609  0.2474 -0.5325
  811MOL0     H 9439   2.339   5.624   5.472  0.8582 -0.6344  0.0019
  811MOL0     H 9440   2.331   5.454   5.407  0.1968 -1.3442 -0.3252
  811MOL0     H 9441   2.465   5.555   5.203  0.7550 -2.6311  2.8809
  811MOL0     H 9442   2.416   5.714   5.273 -0.0289 -0.4225 -0.2523
  811MOL0     H 9443   2.182   5.646   5.245 -2.2262 -0.4438 -1.4382
  811MOL0     H 9444   2.230   5.489   5.187  3.1695 -0.5239  0.1603
  811MOL0     H 9445   2.239   5.791   4.837 -0.2879 -1.2790 -1.8594
  811MOL0     H 9446   2.030   5.737   4.586  0.0254  0.1425 -0.4868
  811MOL0     H 9447   2.028   5.902   4.655 -2.0283 -0.4346 -3.4674
  811MOL0     H 9448   2.176   5.818   4.632  0.3074  3.3541  2.8855
  811MOL0     H 9449   1.539   5.380   4.756 -0.3215  0.5775 -0.6273
  811MOL0     H 9450   1.478   5.224   4.558 -2.1213  1.3401 -0.2435
  811MOL0     H 9451   1.627   5.352   4.165 -1.2172 -0.9371 -2.8638
  811MOL0     H 9452   1.718   5.191   4.192  0.4754  0.6233  1.4591
  811MOL0     H 9453   1.515   5.079   4.115 -1.8862  1.3635  1.1889
  811MOL0     H 9454   1.435   5.241   4.105 -0.1733  1.5806 -2.2571
  811MOL0     H 9455   1.643   5.136   3.922  0.1886 -0.2085  1.5438
  811MOL0     H 9456   1.610   5.314   3.954  0.1858  0.8247 -0.0007
  811MOL0     H 9457   1.405   5.099   3.875 -1.2236  0.5511  1.2080
  811MOL0     H 9458   1.374   5.275   3.876 -1.1678 -0.2977 -1.4654
  811MOL0     H 9459   1.564   5.115   3.703  2.8840  1.9602 -1.5395
  811MOL0     H 9460   1.558   5.296   3.693  2.9195 -1.4600  0.1864
  811MOL0     H 9461   1.422   5.128   3.520  0.3809  0.4812  0.4158
  811MOL0     H 9462   1.299   5.146   3.652  0.4687  1.3730  2.2524
  811MOL0     H 9463   1.409   5.395   3.532  0.6490  0.9289  2.4191
  811MOL0     H 9464   1.273   5.371   3.643  3.4865  0.7093  2.5403
  811MOL0     H 9465   1.175   5.384   3.427  2.0983  1.5540  0.5431
  811MOL0     H 9466   1.162   5.221   3.475 -0.8086 -0.5266 -0.9418
  811MOL0     H 9467   1.795   5.396   4.335  1.1305 -1.5988 -0.1672
  811MOL0     H 9468   1.839   5.560   4.507  1.7151 -1.8507  1.1646
  811MOL0     H 9469   1.833   5.550   4.998 -0.5005 -0.1853  0.4439
  811MOL0     H 9470   2.010   5.535   5.128 -4.3119  0.7003 -0.0530
  811MOL0     H 9471   3.365   6.241   6.173  0.9821  1.6712 -0.3034
  811MOL0     H 9472   3.458   6.421   6.054 -0.0850 -0.9621  0.3418
  811MOL0     H 9473   3.709   6.697   5.780  1.7843  1.6685 -1.6959
  811MOL0     H 9474   3.745   6.927   5.695  1.3593 -3.9896  0.7595
  811MOL0     H 9475   3.431   7.067   5.445 -0.0374  0.3725 -2.1364
  811MOL0     H 9476   3.430   7.232   5.521  2.9638  0.9344  3.9835
  811MOL0     H 9477   3.677   7.251   5.432  2.0706  0.8804 -2.0125
  811MOL0     H 9478   3.552   7.243   5.306  1.3683 -2.2788 -3.4939
  811MOL0     H 9479   3.562   7.008   5.279  3.8220 -2.4517 -5.5402
  811MOL0     H 9480   3.695   7.005   5.409  0.0297 -0.9093 -1.4313
  811MOL0     H 9481   3.851   7.118   5.265  0.3461 -0.8380  0.2170
  811MOL0     H 9482   3.718   7.161   5.151 -0.1675 -0.5392 -0.3181
  811MOL0     H 9483   3.740   6.738   5.073  3.8375 -0.7654 -0.3024
  811MOL0     H 9484   3.332   6.968   5.617 -0.7443  0.8318  1.8188
  811MOL0     H 9485   3.291   6.751   5.708 -0.0826  0.1052  0.3618
  812MOL0     O 9486   0.168   3.918   3.119  1.1954  0.2691 -0.3039
  812MOL0     C 9487   0.265   3.979   3.081  0.5601  0.7804 -0.7372
  812MOL0     O 9488   0.262   4.093   3.026  0.1332  0.4497  0.1222
  812MOL0     C 9489   0.143   4.163   3.035 -0.2069  0.1142  1.3333
  812MOL0     C 9490   0.092   4.221   2.910  0.7997 -0.6522  0.1272
  812MOL0     C 9491  -0.008   4.310   2.920 -1.1502 -0.4000  0.4200
  812MOL0     C 9492  -0.062   4.350   3.043 -0.6537  0.9754  0.1241
  812MOL0     O 9493  -0.155   4.450   3.055 -0.0233 -0.0784 -0.3715
  812MOL0     C 9494  -0.207   4.511   2.939  0.2345 -0.4407  0.1331
  812MOL0     C 9495  -0.304   4.637   2.968 -0.4690  0.0129 -0.8265
  812MOL0     C 9496  -0.418   4.588   3.063 -0.2371 -0.6205  0.1285
  812MOL0     C 9497  -0.543   4.673   3.044  0.1357 -0.6217 -0.4532
  812MOL0     C 9498  -0.656   4.639   3.128  1.1372 -0.5390  0.5227
  812MOL0     C 9499  -0.777   4.734   3.103 -0.4864 -0.1553 -0.8617
  812MOL0     C 9500  -0.883   4.734   3.215  0.8640  0.6144  0.1896
  812MOL0     C 9501  -0.983   4.616   3.191  0.8629 -0.2038  0.0363
  812MOL0     N 9502  -1.101   4.635   3.278 -0.5328 -0.1607  0.1075
  812MOL0     C 9503  -1.093   4.628   3.416 -0.2689 -0.5039 -0.0351
  812MOL0     C 9504  -1.219   4.643   3.452 -0.3625  0.0486 -0.4889
  812MOL0     C 9505  -1.255   4.638   3.599  0.3557  0.0554 -0.2028
  812MOL0     C 9506  -1.211   4.760   3.677 -0.0867 -0.1773 -0.4565
  812MOL0     C 9507  -1.301   4.883   3.670  0.7240 -0.2958 -0.3387
  812MOL0     C 9508  -1.388   4.926   3.792  1.4311  0.3435  1.2161
  812MOL0     O 9509  -1.457   5.052   3.761 -0.5385 -0.6877  0.1300
  812MOL0     C 9510  -1.527   5.108   3.870 -0.4466  0.2826  1.5009
  812MOL0     C 9511  -1.575   5.033   3.980 -0.9371  0.0377 -0.1808
  812MOL0     C 9512  -1.647   5.100   4.090  0.0040  0.1840  0.3184
  812MOL0     C 9513  -1.695   5.009   4.204 -0.7003  0.6233 -0.0272
  812MOL0     C 9514  -1.675   5.237   4.078  0.7076  0.1614 -0.2515
  812MOL0     C 9515  -1.773   5.310   4.171 -0.1142 -0.5912  0.1224
  812MOL0     O 9516  -1.816   5.436   4.125 -0.1720  0.0793  0.4395
  812MOL0     C 9517  -1.899   5.511   4.204 -0.2603  0.2489 -0.8948
  812MOL0     C 9518  -2.027   5.555   4.164  0.4194  0.4788 -0.1942
  812MOL0     C 9519  -2.096   5.641   4.246  0.4403 -0.1763 -0.2476
  812MOL0     C 9520  -2.045   5.694   4.367  0.0618  0.3662 -0.0985
  812MOL0     O 9521  -2.124   5.770   4.443 -0.3555 -0.0845 -0.4982
  812MOL0     C 9522  -2.075   5.860   4.549 -0.2427 -0.3541 -0.3430
  812MOL0     C 9523  -2.201   5.890   4.639 -0.2717 -0.3955  0.7336
  812MOL0     C 9524  -2.249   5.763   4.716 -0.6521  0.7503  0.7160
  812MOL0     C 9525  -2.332   5.809   4.834  0.6170  0.0766 -0.5277
  812MOL0     C 9526  -2.346   5.688   4.928  0.3264  0.1658 -0.1884
  812MOL0     C 9527  -2.444   5.725   5.034  0.5993 -1.0369  1.0747
  812MOL0     C 9528  -2.487   5.612   5.120 -0.0677 -1.3016 -0.2333
  812MOL0     C 9529  -2.569   5.507   5.043 -0.3247  0.3868 -0.1097
  812MOL0    Cl 9530  -2.631   5.363   5.137 -0.2194 -0.0827  0.4026
  812MOL0     C 9531  -1.920   5.637   4.410  0.5014  1.2641  0.7391
  812MOL0     C 9532  -1.842   5.560   4.326  0.6968 -0.0030  0.4735
  812MOL0     O 9533  -1.814   5.259   4.275 -0.0704  0.0947  0.1978
  812MOL0     C 9534  -1.627   5.308   3.960  0.5806  0.6850 -0.3534
  812MOL0     C 9535  -1.566   5.244   3.849 -0.6048 -0.3180  0.1960
  812MOL0     N 9536  -1.305   4.678   3.349  0.5497  0.1089  0.1041
  812MOL0     N 9537  -1.226   4.673   3.242  0.1140  1.3625 -0.6752
  812MOL0     C 9538  -0.013   4.301   3.158  0.1381  0.3031 -0.6804
  812MOL0     C 9539   0.094   4.207   3.155 -0.3104 -0.1928  0.3420
  812MOL0     C 9540   0.388   3.896   3.058  0.2082 -0.3688 -0.3067
  812MOL0     C 9541   0.379   3.760   3.070 -0.0771  0.4402 -0.2598
  812MOL0     C 9542   0.492   3.681   3.059 -1.1514 -0.3679 -0.3642
  812MOL0     C 9543   0.613   3.735   3.041 -0.8477 -0.1202  0.1097
  812MOL0     O 9544   0.728   3.669   3.015  0.5776  0.1772 -1.1177
  812MOL0     C 9545   0.823   3.694   3.117  0.1732  1.1520  0.0822
  812MOL0     C 9546   0.948   3.599   3.111 -0.2276 -0.5890 -0.5613
  812MOL0     C 9547   0.918   3.451   3.101 -0.4276 -0.9861  0.3876
  812MOL0     C 9548   1.052   3.385   3.085 -0.5565  1.4290 -0.1112
  812MOL0     C 9549   1.046   3.240   3.114  0.0359  0.0826 -0.2970
  812MOL0     C 9550   1.031   3.121   3.125 -0.8197  0.4918 -0.2907
  812MOL0     C 9551   0.625   3.880   3.032 -0.0626  0.2950 -0.2304
  812MOL0     C 9552   0.511   3.958   3.041  0.3441 -0.3396 -0.3805
  812MOL0     H 9553   0.123   4.191   2.810 -0.0661  1.1457 -0.7234
  812MOL0     H 9554  -0.053   4.352   2.831  3.6256  1.1366 -1.5541
  812MOL0     H 9555  -0.129   4.552   2.874  0.0975  1.3536  1.0311
  812MOL0     H 9556  -0.257   4.431   2.883  0.2873 -1.2776  1.2464
  812MOL0     H 9557  -0.248   4.715   3.020 -0.0631  0.0049 -1.2417
  812MOL0     H 9558  -0.344   4.676   2.874 -0.6743 -1.7313 -1.4903
  812MOL0     H 9559  -0.443   4.488   3.027  0.5735 -1.6031  2.1423
  812MOL0     H 9560  -0.382   4.588   3.166 -0.9979  0.8001  0.4176
  812MOL0     H 9561  -0.521   4.777   3.066 -3.0889  0.0509  0.1103
  812MOL0     H 9562  -0.567   4.667   2.937  2.3542 -1.6311 -0.9477
  812MOL0     H 9563  -0.685   4.536   3.106 -2.1641 -0.4580  3.4629
  812MOL0     H 9564  -0.636   4.628   3.235 -0.1855  2.9595  1.2859
  812MOL0     H 9565  -0.752   4.840   3.094 -3.3880  0.6247 -0.8085
  812MOL0     H 9566  -0.818   4.699   3.008  0.9912 -2.7515 -0.6392
  812MOL0     H 9567  -0.834   4.717   3.311  0.1634 -1.4682  0.2320
  812MOL0     H 9568  -0.931   4.832   3.217  3.0761  1.7588  1.3080
  812MOL0     H 9569  -0.932   4.520   3.190 -0.4241 -1.0651 -4.6918
  812MOL0     H 9570  -1.020   4.615   3.088 -1.6024 -0.0925  0.8425
  812MOL0     H 9571  -1.009   4.604   3.480 -0.1636  0.0281  0.0288
  812MOL0     H 9572  -1.363   4.624   3.608 -0.4801  3.4928 -2.9483
  812MOL0     H 9573  -1.199   4.563   3.656  1.2891  2.4599  2.3335
  812MOL0     H 9574  -1.112   4.787   3.640  0.5655 -0.2259  1.1965
  812MOL0     H 9575  -1.207   4.742   3.785 -2.2060 -0.1745 -0.3284
  812MOL0     H 9576  -1.371   4.872   3.587  0.4563 -1.9125  0.0809
  812MOL0     H 9577  -1.240   4.969   3.638  0.7271 -1.7261 -4.9921
  812MOL0     H 9578  -1.340   4.942   3.889 -1.5090  0.3423  2.8018
  812MOL0     H 9579  -1.467   4.852   3.809 -1.2480  3.0867  1.6154
  812MOL0     H 9580  -1.547   4.928   3.984  1.9734  0.5818 -2.4456
  812MOL0     H 9581  -1.631   5.023   4.292 -2.2719  0.7544  1.1442
  812MOL0     H 9582  -1.802   5.011   4.224 -0.8509 -1.1327 -0.5082
  812MOL0     H 9583  -1.677   4.904   4.179 -2.8572  0.3458 -0.5815
  812MOL0     H 9584  -2.064   5.528   4.066  1.6581 -0.4199 -0.4339
  812MOL0     H 9585  -2.202   5.662   4.234 -0.4262 -2.8828  1.7914
  812MOL0     H 9586  -2.001   5.813   4.614  2.5636 -0.1358 -3.0977
  812MOL0     H 9587  -2.032   5.955   4.514  0.3204 -0.0715  1.0466
  812MOL0     H 9588  -2.156   5.952   4.717  1.4047  3.2488 -2.7671
  812MOL0     H 9589  -2.268   5.940   4.569  2.2881  1.6723 -0.4300
  812MOL0     H 9590  -2.167   5.700   4.752  1.7822  3.4825  0.3181
  812MOL0     H 9591  -2.314   5.695   4.659  1.2152 -0.6166  0.1052
  812MOL0     H 9592  -2.286   5.892   4.888  0.4470  0.3318 -0.7757
  812MOL0     H 9593  -2.432   5.840   4.801  0.3619 -0.7486 -0.5670
  812MOL0     H 9594  -2.251   5.659   4.975  0.6017  1.6742  0.2379
  812MOL0     H 9595  -2.379   5.605   4.866  1.2963  0.8388 -1.6781
  812MOL0     H 9596  -2.409   5.809   5.096 -1.6901  2.7980 -2.2796
  812MOL0     H 9597  -2.538   5.758   4.987 -0.8303 -2.2910  2.9320
  812MOL0     H 9598  -2.554   5.660   5.192  0.3975  1.4971 -1.5395
  812MOL0     H 9599  -2.398   5.560   5.156 -0.7052 -0.6772  2.4407
  812MOL0     H 9600  -2.502   5.450   4.977  0.0103  0.1349  0.4419
  812MOL0     H 9601  -2.641   5.556   4.977 -0.9143 -0.3251 -0.0068
  812MOL0     H 9602  -1.884   5.667   4.508  1.4106 -0.1789  0.8609
  812MOL0     H 9603  -1.747   5.526   4.364  2.9149  0.4139 -4.0142
  812MOL0     H 9604  -1.642   5.415   3.949  2.2260  1.0372  0.5084
  812MOL0     H 9605  -1.538   5.288   3.754  1.2706  3.1636  2.2033
  812MOL0     H 9606  -0.054   4.328   3.255  0.9312 -2.6595  0.5891
  812MOL0     H 9607   0.142   4.169   3.245  1.2750  0.9920  0.0439
  812MOL0     H 9608   0.276   3.726   3.082 -1.3481  3.8344 -0.3454
  812MOL0     H 9609   0.490   3.572   3.065 -2.4925 -0.2809  2.1938
  812MOL0     H 9610   0.865   3.795   3.113  1.8918  0.6918  3.4347
  812MOL0     H 9611   0.786   3.687   3.219  2.1764  5.0706  1.2792
  812MOL0     H 9612   0.999   3.627   3.204 -2.4977  3.6993 -0.3765
  812MOL0     H 9613   1.016   3.626   3.029 -0.6747  3.1336  0.1178
  812MOL0     H 9614   0.855   3.426   3.015 -0.7152 -2.3198  0.9514
  812MOL0     H 9615   0.880   3.412   3.195  3.9356 -2.7960  1.6766
  812MOL0     H 9616   1.127   3.421   3.156 -0.9863 -0.1335  1.1683
  812MOL0     H 9617   1.089   3.407   2.984 -0.0944  2.6470  0.3036
  812MOL0     H 9618   1.006   3.017   3.112  1.9895 -0.1282 -1.5623
  812MOL0     H 9619   0.723   3.925   3.022  1.0458 -1.9471 -0.1721
  812MOL0     H 9620   0.522   4.065   3.026  0.3682 -0.2614  0.1986
  813MOL0     O 9621   2.075   1.284   4.226 -0.1498  0.1122 -0.1170
  813MOL0     C 9622   2.024   1.344   4.123 -0.5174 -0.3971 -0.3587
  813MOL0     O 9623   1.905   1.319   4.053 -0.3156 -0.2207 -0.3896
  813MOL0     C 9624   1.822   1.210   4.085  0.2800  0.0212  0.9629
  813MOL0     C 9625   1.683   1.231   4.048 -0.1020  0.1341  0.1973
  813MOL0     C 9626   1.586   1.132   4.080  0.2558  0.2140  0.6707
  813MOL0     C 9627   1.628   1.013   4.146  0.5452  0.4780 -0.4147
  813MOL0     O 9628   1.535   0.917   4.171  0.2821  0.1663 -0.4368
  813MOL0     C 9629   1.584   0.816   4.252  1.9777 -0.8102 -0.4121
  813MOL0     C 9630   1.457   0.760   4.324 -0.3814 -0.1532 -0.1484
  813MOL0     C 9631   1.350   0.699   4.234 -0.2177  0.3130  0.4411
  813MOL0     C 9632   1.224   0.645   4.313  0.3963 -0.3171  0.0809
  813MOL0     C 9633   1.121   0.591   4.218  0.9015  0.3000  0.2832
  813MOL0     C 9634   0.988   0.581   4.284 -0.6790  0.9833  0.0099
  813MOL0     C 9635   0.879   0.540   4.177 -0.6483 -0.5409 -0.0493
  813MOL0     C 9636   0.868   0.395   4.131 -0.1787 -0.8836  0.7388
  813MOL0     N 9637   0.798   0.387   4.002  0.1811  0.4836 -0.1384
  813MOL0     C 9638   0.673   0.452   3.978  0.3631  0.9234 -0.0142
  813MOL0     C 9639   0.640   0.406   3.857  1.2742 -0.4820 -0.4114
  813MOL0     C 9640   0.516   0.426   3.780  1.1564 -0.1895  0.7637
  813MOL0     C 9641   0.421   0.541   3.833  0.3856  0.4349 -0.6318
  813MOL0     C 9642   0.313   0.565   3.728  0.9023 -1.1014 -0.3941
  813MOL0     C 9643   0.205   0.659   3.787  0.3148  0.1717  0.2285
  813MOL0     O 9644   0.111   0.601   3.885 -1.2981  0.3215  0.6339
  813MOL0     C 9645  -0.024   0.627   3.859 -0.2757  0.1330 -0.3935
  813MOL0     C 9646  -0.102   0.686   3.948 -1.0719  0.7059 -0.2464
  813MOL0     C 9647  -0.233   0.709   3.921 -0.1320  0.0616  0.1954
  813MOL0     C 9648  -0.314   0.777   4.031 -0.1562  1.1252 -1.0684
  813MOL0     C 9649  -0.293   0.676   3.803  0.8430 -0.5209  0.2192
  813MOL0     C 9650  -0.437   0.699   3.768  0.5144  0.9136 -0.9118
  813MOL0     O 9651  -0.461   0.780   3.665 -0.3323  0.2583  0.4215
  813MOL0     C 9652  -0.587   0.826   3.663  0.4371 -0.3707  1.0331
  813MOL0     C 9653  -0.678   0.750   3.592  0.5246 -0.7086 -0.5909
  813MOL0     C 9654  -0.817   0.787   3.591 -0.4930 -0.6087 -0.1542
  813MOL0     C 9655  -0.858   0.906   3.660 -0.1782  0.9504 -1.2706
  813MOL0     O 9656  -0.991   0.943   3.663  0.0402  0.4837  0.0783
  813MOL0     C 9657  -1.026   1.017   3.550  0.3488  0.0604 -0.1757
  813MOL0     C 9658  -1.171   1.067   3.560  0.6365 -0.0454  0.6156
  813MOL0     C 9659  -1.187   1.167   3.455  0.4719 -0.1136  0.1871
  813MOL0     C 9660  -1.336   1.179   3.404 -0.9613  0.5305  0.1108
  813MOL0     C 9661  -1.434   1.214   3.519 -0.4288 -0.1201  0.8153
  813MOL0     C 9662  -1.570   1.252   3.461 -0.2262  0.0705  0.0911
  813MOL0     C 9663  -1.647   1.129   3.411  0.2289  0.0884 -0.0684
  813MOL0     C 9664  -1.799   1.156   3.413 -0.2146 -0.1965 -0.0085
  813MOL0    Cl 9665  -1.836   1.289   3.293  0.5844 -0.4577 -0.1036
  813MOL0     C 9666  -0.759   0.984   3.737 -0.0675  0.8042  0.2021
  813MOL0     C 9667  -0.621   0.942   3.736  0.3644  0.0687  0.1794
  813MOL0     O 9668  -0.523   0.626   3.833 -0.9596  0.4526  0.8050
  813MOL0     C 9669  -0.214   0.605   3.711  0.0190 -0.2129  0.1814
  813MOL0     C 9670  -0.081   0.581   3.739 -0.9344 -0.2512  0.3350
  813MOL0     N 9671   0.734   0.320   3.817  0.0270  0.8076 -0.1105
  813MOL0     N 9672   0.822   0.303   3.905 -0.4014 -0.5897  0.5725
  813MOL0     C 9673   1.766   0.997   4.179  0.0312 -0.4604  0.4831
  813MOL0     C 9674   1.865   1.095   4.147  0.2447  0.8680 -0.2685
  813MOL0     C 9675   2.096   1.463   4.078  0.8399  0.7370  0.4080
  813MOL0     C 9676   2.072   1.520   3.947 -0.2952 -0.2452  0.7469
  813MOL0     C 9677   2.137   1.637   3.912  0.6418 -0.2865 -0.2368
  813MOL0     C 9678   2.226   1.699   4.003 -0.1044  0.9021  0.8117
  813MOL0     O 9679   2.287   1.817   3.981  1.2904 -0.3951  0.1595
  813MOL0     C 9680   2.230   1.915   3.891  0.2065 -0.2635 -0.2142
  813MOL0     C 9681   2.291   2.060   3.902  0.1378 -0.4814 -0.7583
  813MOL0     C 9682   2.438   2.047   3.883  0.2967 -0.1718  0.1726
  813MOL0     C 9683   2.511   2.183   3.882 -0.2203 -0.2349 -0.0462
  813MOL0     C 9684   2.656   2.170   3.898  0.1863  0.4911 -0.5625
  813MOL0     C 9685   2.772   2.160   3.927 -1.1402  0.0797  0.9751
  813MOL0     C 9686   2.244   1.642   4.123 -1.0375  0.5671 -0.2241
  813MOL0     C 9687   2.187   1.525   4.161  0.4960  0.6344  0.5100
  813MOL0     H 9688   1.654   1.325   4.002  0.8054  1.0634  1.4352
  813MOL0     H 9689   1.485   1.137   4.042  0.4335  2.7287  0.3339
  813MOL0     H 9690   1.633   0.741   4.188  1.0729 -3.4458  1.8194
  813MOL0     H 9691   1.638   0.857   4.337 -0.5612 -1.1055  1.4488
  813MOL0     H 9692   1.485   0.684   4.398  0.5541  0.8996  0.6250
  813MOL0     H 9693   1.415   0.834   4.394 -1.0123 -0.4469 -0.2116
  813MOL0     H 9694   1.305   0.770   4.165 -0.9560  0.4960  1.0940
  813MOL0     H 9695   1.387   0.620   4.168  1.3300  1.3994 -0.0657
  813MOL0     H 9696   1.253   0.559   4.375  2.5030 -0.7241 -1.3408
  813MOL0     H 9697   1.178   0.719   4.378 -4.1563 -3.6898  1.1468
  813MOL0     H 9698   1.118   0.666   4.138  0.2355  2.2819  2.0705
  813MOL0     H 9699   1.144   0.491   4.180 -0.9996 -0.1073  0.1241
  813MOL0     H 9700   0.997   0.502   4.360  0.3205 -0.0918 -1.1869
  813MOL0     H 9701   0.964   0.679   4.327 -0.4565  0.9058  0.3163
  813MOL0     H 9702   0.784   0.567   4.224 -1.2639 -3.4452  0.6181
  813MOL0     H 9703   0.888   0.602   4.088 -0.7510  0.8020  0.8556
  813MOL0     H 9704   0.803   0.332   4.193 -3.1394  1.5544  0.3271
  813MOL0     H 9705   0.969   0.355   4.115  0.3617  1.7031 -4.3933
  813MOL0     H 9706   0.612   0.517   4.040 -0.4109  1.4574 -1.3013
  813MOL0     H 9707   0.538   0.451   3.676  0.6254  0.7167  0.8520
  813MOL0     H 9708   0.451   0.339   3.787 -0.3245  0.8527  0.5223
  813MOL0     H 9709   0.482   0.630   3.855  0.0793  1.2820 -2.8775
  813MOL0     H 9710   0.382   0.507   3.929 -0.0964  1.0959 -0.5833
  813MOL0     H 9711   0.254   0.479   3.698 -3.0417  0.7130  1.4099
  813MOL0     H 9712   0.354   0.630   3.649  0.3247  1.1799  1.0717
  813MOL0     H 9713   0.147   0.699   3.703 -0.5903  0.2694  0.8779
  813MOL0     H 9714   0.254   0.750   3.824 -0.9589  1.8735 -2.0084
  813MOL0     H 9715  -0.062   0.732   4.038 -0.8982 -0.1560  0.1239
  813MOL0     H 9716  -0.300   0.732   4.130 -1.3622  0.8503 -1.0032
  813MOL0     H 9717  -0.277   0.879   4.042  2.7280 -0.0897  2.0922
  813MOL0     H 9718  -0.419   0.775   4.002 -0.6353  0.4699  0.5781
  813MOL0     H 9719  -0.625   0.670   3.542  0.8131  0.6810 -2.6082
  813MOL0     H 9720  -0.884   0.716   3.545 -0.4552 -0.8448  0.1511
  813MOL0     H 9721  -0.962   1.105   3.562 -2.4287  2.3771 -0.9784
  813MOL0     H 9722  -1.008   0.970   3.453 -1.5789 -3.3895  0.9996
  813MOL0     H 9723  -1.238   0.982   3.548  1.6965 -0.7905 -0.1858
  813MOL0     H 9724  -1.193   1.114   3.657 -3.7865  4.1218 -1.9477
  813MOL0     H 9725  -1.123   1.145   3.369  1.7747  0.8777  0.8645
  813MOL0     H 9726  -1.147   1.258   3.500  1.2297  0.1904 -1.0400
  813MOL0     H 9727  -1.336   1.254   3.325 -1.5865  2.0560  1.5018
  813MOL0     H 9728  -1.363   1.079   3.369 -1.1014  0.1418  1.2751
  813MOL0     H 9729  -1.403   1.300   3.579  0.8591 -0.7186  1.0336
  813MOL0     H 9730  -1.446   1.123   3.578 -4.0488  1.2434  2.4899
  813MOL0     H 9731  -1.632   1.299   3.538 -0.9787  2.3997 -1.7887
  813MOL0     H 9732  -1.550   1.324   3.381  1.6767 -0.3241  0.1681
  813MOL0     H 9733  -1.637   1.042   3.476 -1.3451  0.0179  0.1064
  813MOL0     H 9734  -1.624   1.097   3.309  0.9127 -0.8382  0.3617
  813MOL0     H 9735  -1.831   1.189   3.513 -0.8782 -2.3984  0.5879
  813MOL0     H 9736  -1.853   1.061   3.403 -0.4466 -0.2252  1.2581
  813MOL0     H 9737  -0.794   1.072   3.789 -3.8900 -1.4833  1.9091
  813MOL0     H 9738  -0.556   0.996   3.804 -2.9284  1.8835  2.1626
  813MOL0     H 9739  -0.275   0.569   3.629 -1.0601 -1.6911  1.5596
  813MOL0     H 9740  -0.019   0.533   3.664 -0.1646  1.3883 -0.1203
  813MOL0     H 9741   1.818   0.917   4.232  0.3607 -1.8329 -1.7627
  813MOL0     H 9742   1.968   1.072   4.173  0.7970  0.5371 -2.5307
  813MOL0     H 9743   2.005   1.481   3.871  0.8949 -1.0165  0.0721
  813MOL0     H 9744   2.100   1.693   3.827 -1.2754 -0.2016  0.6069
  813MOL0     H 9745   2.250   1.882   3.788 -1.3929  0.9872 -0.9782
  813MOL0     H 9746   2.122   1.906   3.903 -0.0229 -0.6442 -2.2315
  813MOL0     H 9747   2.266   2.099   4.002 -0.4704 -0.8824 -0.7473
  813MOL0     H 9748   2.249   2.126   3.826  0.8873 -1.6407 -2.2358
  813MOL0     H 9749   2.458   1.998   3.787  1.1342  0.6715 -0.0920
  813MOL0     H 9750   2.488   1.980   3.954 -0.1871  0.3659  1.0354
  813MOL0     H 9751   2.480   2.249   3.963  2.1812 -0.5723  1.2389
  813MOL0     H 9752   2.478   2.232   3.790 -1.3521  1.6919  1.3331
  813MOL0     H 9753   2.874   2.140   3.950 -1.3748 -1.7627  0.5489
  813MOL0     H 9754   2.303   1.687   4.203  1.7303 -0.0631 -1.7719
  813MOL0     H 9755   2.207   1.491   4.262 -1.0800  0.3992  0.7600
  814MOL0     O 9756   9.676   3.171   2.786  0.0744  0.5046  0.2241
  814MOL0     C 9757   9.574   3.198   2.856  0.3794  0.2688  0.5256
  814MOL0     O 9758   9.578   3.231   2.981 -0.2758  0.2052  0.4159
  814MOL0     C 9759   9.666   3.167   3.065 -1.0991  0.5591  0.3450
  814MOL0     C 9760   9.726   3.244   3.166  0.8604 -0.8368 -0.4912
  814MOL0     C 9761   9.831   3.192   3.243  0.2020 -0.1288  0.0679
  814MOL0     C 9762   9.878   3.064   3.221 -1.3009 -0.2418 -0.1534
  814MOL0     O 9763   9.970   2.993   3.299  0.0477  0.3415 -0.5795
  814MOL0     C 9764  10.074   3.060   3.366 -0.3417  0.3409 -0.3481
  814MOL0     C 9765  10.184   2.971   3.379  0.0050  1.0955  0.3435
  814MOL0     C 9766  10.319   3.047   3.402 -0.4168  0.2394 -0.8846
  814MOL0     C 9767  10.352   3.036   3.553 -0.4776 -0.7612 -0.9590
  814MOL0     C 9768  10.487   3.103   3.603  0.3806  1.0726 -0.0442
  814MOL0     C 9769  10.508   3.048   3.747  0.2524  0.0046 -0.3279
  814MOL0     C 9770  10.654   3.080   3.794 -1.6944  0.3950  0.1048
  814MOL0     C 9771  10.712   2.981   3.907  1.2005  0.0255  0.1445
  814MOL0     N 9772  10.622   2.918   4.005 -0.5978  0.7224  0.0004
  814MOL0     C 9773  10.632   2.793   4.064  0.1276  1.1837  0.2949
  814MOL0     C 9774  10.514   2.774   4.135 -0.3791  0.1318  0.5040
  814MOL0     C 9775  10.480   2.649   4.211 -0.9816 -0.3502  0.0010
  814MOL0     C 9776  10.450   2.693   4.362 -0.6884  0.5141 -0.3180
  814MOL0     C 9777  10.572   2.754   4.437  0.3995  0.4262 -0.2287
  814MOL0     C 9778  10.541   2.815   4.578  0.4460  0.3531  0.0751
  814MOL0     O 9779  10.541   2.706   4.666 -0.0849 -0.5958 -0.5053
  814MOL0     C 9780  10.489   2.733   4.793  0.6405 -0.2945 -0.0933
  814MOL0     C 9781  10.435   2.628   4.866  0.0762 -0.4425  0.3203
  814MOL0     C 9782  10.394   2.645   5.004 -0.5890 -0.5071 -1.0965
  814MOL0     C 9783  10.328   2.528   5.082 -0.6708  0.0215  0.0590
  814MOL0     C 9784  10.415   2.771   5.067  0.0402 -0.7519 -0.3697
  814MOL0     C 9785  10.411   2.790   5.209 -0.0175  0.0666  0.4095
  814MOL0     O 9786  10.418   2.923   5.240 -0.0387  0.8545  0.1564
  814MOL0     C 9787  10.446   2.972   5.365 -0.2883 -0.0537 -1.4850
  814MOL0     C 9788  10.514   3.088   5.369 -0.2225  0.3868  0.2071
  814MOL0     C 9789  10.553   3.137   5.489 -0.3740 -0.2026 -0.8670
  814MOL0     C 9790  10.528   3.079   5.618 -0.2075  0.2997 -0.0564
  814MOL0     O 9791  10.566   3.137   5.739  0.3674  0.5143 -0.4020
  814MOL0     C 9792  10.567   3.282   5.756 -0.7055  0.3472  0.7411
  814MOL0     C 9793  10.434   3.358   5.730  0.4741  1.0448  0.6617
  814MOL0     C 9794  10.442   3.494   5.789  0.4144 -0.3566  0.3521
  814MOL0     C 9795  10.304   3.564   5.779  0.0894  0.6142 -0.2058
  814MOL0     C 9796  10.296   3.713   5.825 -0.3749  0.5170  0.6019
  814MOL0     C 9797  10.401   3.806   5.748 -0.8192 -0.2974  0.1059
  814MOL0     C 9798  10.354   3.955   5.779 -0.2138 -0.1434  0.0909
  814MOL0     C 9799  10.398   3.981   5.928  0.0519  0.0255  0.0594
  814MOL0    Cl 9800  10.577   3.974   5.950  0.2654  0.1432 -0.1383
  814MOL0     C 9801  10.465   2.958   5.614  0.5296  0.1377  0.8592
  814MOL0     C 9802  10.422   2.902   5.494 -1.1927 -0.0306  0.1396
  814MOL0     O 9803  10.420   2.695   5.288  0.4937 -0.3896  0.2110
  814MOL0     C 9804  10.473   2.876   4.986 -0.0312  1.0981 -0.0572
  814MOL0     C 9805  10.507   2.861   4.855  0.1191 -0.1991  1.1163
  814MOL0     N 9806  10.428   2.881   4.110  0.5371  0.1130 -0.0380
  814MOL0     N 9807  10.492   2.961   4.036  0.2209  0.2556  0.5547
  814MOL0     C 9808   9.829   2.988   3.110  0.9875 -0.1200  0.2215
  814MOL0     C 9809   9.728   3.049   3.034 -0.7975  0.7843 -0.2925
  814MOL0     C 9810   9.451   3.217   2.778  0.4782 -0.2084 -0.3029
  814MOL0     C 9811   9.352   3.299   2.833 -0.0472  0.2458  0.9535
  814MOL0     C 9812   9.226   3.313   2.767 -0.1385  0.1630 -0.2710
  814MOL0     C 9813   9.201   3.244   2.647  0.3427  0.0888  1.1994
  814MOL0     O 9814   9.089   3.247   2.573 -0.2904 -0.2559  0.4830
  814MOL0     C 9815   8.980   3.338   2.618 -0.3025 -0.0789 -0.8445
  814MOL0     C 9816   8.861   3.340   2.529 -0.4092  0.8289 -0.6432
  814MOL0     C 9817   8.756   3.433   2.592 -0.6565  1.0048 -1.1031
  814MOL0     C 9818   8.648   3.468   2.489  1.1889 -0.4405  0.1105
  814MOL0     C 9819   8.575   3.591   2.534 -0.4821 -0.1385 -0.8089
  814MOL0     C 9820   8.505   3.683   2.578 -0.4503  0.7556  0.1185
  814MOL0     C 9821   9.293   3.164   2.588 -0.4653 -0.0823 -0.5292
  814MOL0     C 9822   9.427   3.160   2.648  0.8408 -0.1502  0.9717
  814MOL0     H 9823   9.689   3.344   3.188  0.6010 -0.4502 -2.4964
  814MOL0     H 9824   9.865   3.258   3.322  1.8226  0.9033 -1.4268
  814MOL0     H 9825  10.096   3.153   3.312  2.9105 -0.5895 -0.8026
  814MOL0     H 9826  10.040   3.083   3.467 -1.2365 -2.2291  0.0165
  814MOL0     H 9827  10.171   2.904   3.464  1.6040  4.2170  3.3159
  814MOL0     H 9828  10.196   2.906   3.293  2.4849  0.5045  1.0466
  814MOL0     H 9829  10.408   3.004   3.355  1.3690  0.8688  1.7462
  814MOL0     H 9830  10.307   3.149   3.364 -2.7995  0.2374 -0.3272
  814MOL0     H 9831  10.292   3.102   3.617 -1.0563 -2.2738  0.1022
  814MOL0     H 9832  10.336   2.937   3.596 -2.8632  0.5168  1.4425
  814MOL0     H 9833  10.566   3.078   3.532 -0.2804  1.1260 -0.8184
  814MOL0     H 9834  10.472   3.212   3.603  0.7102  1.1632 -2.2823
  814MOL0     H 9835  10.441   3.093   3.821 -1.4469  0.2881 -1.9959
  814MOL0     H 9836  10.497   2.940   3.757  1.5513 -0.4200 -2.6866
  814MOL0     H 9837  10.726   3.075   3.712 -1.7033 -1.7946  0.1678
  814MOL0     H 9838  10.661   3.181   3.834  2.6023  0.3916 -0.1235
  814MOL0     H 9839  10.796   3.029   3.958  0.4153  0.3314  1.1697
  814MOL0     H 9840  10.766   2.898   3.860  0.8230 -1.7138  2.6343
  814MOL0     H 9841  10.711   2.720   4.049 -0.2068  1.2864 -2.4988
  814MOL0     H 9842  10.389   2.604   4.170 -1.5162  0.1585  0.5933
  814MOL0     H 9843  10.564   2.579   4.212  0.2302  1.0527 -1.0322
  814MOL0     H 9844  10.414   2.607   4.420 -5.1873  2.3946  0.0807
  814MOL0     H 9845  10.367   2.764   4.371 -2.5934 -1.8675  3.2342
  814MOL0     H 9846  10.613   2.831   4.371 -0.7941  1.1159 -0.1850
  814MOL0     H 9847  10.658   2.688   4.454 -0.2216  0.2709  3.1246
  814MOL0     H 9848  10.445   2.865   4.584  0.5039  0.3106  1.8419
  814MOL0     H 9849  10.615   2.889   4.610  0.4200  0.3163  0.2226
  814MOL0     H 9850  10.412   2.534   4.817  0.3560 -0.1856 -0.3071
  814MOL0     H 9851  10.262   2.567   5.160 -1.1342 -0.9151  0.1473
  814MOL0     H 9852  10.274   2.450   5.027 -0.0730 -0.3646  0.0084
  814MOL0     H 9853  10.410   2.484   5.140  1.9576  2.9473 -1.1398
  814MOL0     H 9854  10.526   3.149   5.281 -2.4511 -0.5975 -0.8601
  814MOL0     H 9855  10.592   3.237   5.497  0.2399 -0.4420 -0.8131
  814MOL0     H 9856  10.608   3.309   5.854 -0.5360 -2.0984  1.4159
  814MOL0     H 9857  10.637   3.316   5.679  1.4872 -3.6632  0.6807
  814MOL0     H 9858  10.399   3.360   5.626  1.7907  1.8388  0.2081
  814MOL0     H 9859  10.356   3.306   5.785 -1.5108  0.4175 -2.5260
  814MOL0     H 9860  10.513   3.548   5.725  0.9519 -0.7097  0.6363
  814MOL0     H 9861  10.486   3.494   5.889 -1.1080  1.6950  1.0732
  814MOL0     H 9862  10.272   3.552   5.675 -0.3422 -0.3407  0.0202
  814MOL0     H 9863  10.232   3.515   5.845  0.7265 -0.2800 -0.1618
  814MOL0     H 9864  10.300   3.730   5.933 -0.6545 -3.1033  1.3217
  814MOL0     H 9865  10.194   3.741   5.798 -0.8747 -2.7843 -1.5520
  814MOL0     H 9866  10.507   3.786   5.763 -0.6131  1.3479  1.1136
  814MOL0     H 9867  10.380   3.792   5.641 -0.4331  1.0581 -0.1614
  814MOL0     H 9868  10.248   3.968   5.757 -0.2347 -0.8237 -0.2408
  814MOL0     H 9869  10.398   4.025   5.707 -1.3203  0.1756 -0.2968
  814MOL0     H 9870  10.335   3.919   5.993  1.6659 -1.9533 -0.1676
  814MOL0     H 9871  10.374   4.085   5.955  0.1921  0.1408 -0.2543
  814MOL0     H 9872  10.453   2.900   5.705 -0.0208 -0.7590  0.2266
  814MOL0     H 9873  10.383   2.801   5.498  1.3132 -1.0789 -0.0983
  814MOL0     H 9874  10.499   2.976   5.021 -2.3879  1.4435  0.8831
  814MOL0     H 9875  10.555   2.947   4.810  0.9321 -0.6843  1.0530
  814MOL0     H 9876   9.875   2.892   3.090  1.4013  0.4237 -1.6095
  814MOL0     H 9877   9.688   2.999   2.946  0.4829 -0.1523 -0.3747
  814MOL0     H 9878   9.373   3.342   2.930  1.1080 -0.9526  1.2624
  814MOL0     H 9879   9.149   3.373   2.814 -1.5144 -2.2880  0.8270
  814MOL0     H 9880   8.955   3.328   2.724  2.7044  3.0121  0.3331
  814MOL0     H 9881   9.022   3.439   2.612  0.5235 -0.4632 -1.7242
  814MOL0     H 9882   8.826   3.239   2.509 -0.6356  0.6213  0.6811
  814MOL0     H 9883   8.895   3.374   2.431 -0.1901  1.0812 -0.4818
  814MOL0     H 9884   8.814   3.523   2.616  2.8183 -2.0414  3.6731
  814MOL0     H 9885   8.712   3.392   2.683 -3.1945 -0.1041 -2.7075
  814MOL0     H 9886   8.576   3.386   2.478 -0.4421  0.8361  0.8444
  814MOL0     H 9887   8.689   3.495   2.391  1.2695 -2.1478 -0.3676
  814MOL0     H 9888   8.459   3.772   2.617  0.7614  0.6513  1.9537
  814MOL0     H 9889   9.266   3.133   2.488 -0.8607 -3.6554  0.5304
  814MOL0     H 9890   9.508   3.107   2.598  1.1826  0.2056  1.1419
  815MOL0     O 9891   4.145   2.198   2.917  0.1404  0.6669  0.2566
  815MOL0     C 9892   4.250   2.140   2.876 -0.1247 -0.0496 -0.4871
  815MOL0     O 9893   4.271   2.120   2.743 -0.0729  0.5444 -1.0123
  815MOL0     C 9894   4.168   2.163   2.657  0.3202  0.5244 -0.5662
  815MOL0     C 9895   4.029   2.125   2.657  0.4260  0.7401 -1.0214
  815MOL0     C 9896   3.931   2.184   2.569 -0.7899 -0.1523  0.2225
  815MOL0     C 9897   3.986   2.280   2.473 -1.5778  0.2307 -0.2260
  815MOL0     O 9898   3.904   2.324   2.376  0.7151 -0.0989  0.6728
  815MOL0     C 9899   3.873   2.223   2.267 -0.0265 -0.3180 -0.3585
  815MOL0     C 9900   3.781   2.296   2.162  0.6773 -0.0635  0.4011
  815MOL0     C 9901   3.639   2.328   2.206 -0.1784 -0.5525  0.0622
  815MOL0     C 9902   3.527   2.312   2.116  0.6013  0.4699 -0.6709
  815MOL0     C 9903   3.404   2.336   2.189  0.4547 -0.4355  0.9834
  815MOL0     C 9904   3.288   2.339   2.091 -0.2433 -0.0659  0.2485
  815MOL0     C 9905   3.150   2.325   2.166 -0.9014 -0.0109  0.0869
  815MOL0     C 9906   3.037   2.298   2.076 -0.4075  0.1225 -0.7749
  815MOL0     N 9907   2.920   2.256   2.158 -0.7640 -0.5187  0.1390
  815MOL0     C 9908   2.906   2.149   2.248 -0.4343 -0.1980 -0.6150
  815MOL0     C 9909   2.774   2.145   2.279 -0.1874  0.5405 -0.7635
  815MOL0     C 9910   2.720   2.053   2.380 -0.1882 -0.1016 -0.1103
  815MOL0     C 9911   2.678   1.918   2.319  0.5919  0.8303 -0.1940
  815MOL0     C 9912   2.532   1.925   2.250 -0.5972 -0.0026  0.2264
  815MOL0     C 9913   2.417   1.988   2.338 -0.0598 -0.1395 -0.0928
  815MOL0     O 9914   2.403   1.909   2.455 -0.0917 -0.7374 -0.1896
  815MOL0     C 9915   2.292   1.928   2.527  0.1114  0.4559 -0.2377
  815MOL0     C 9916   2.199   2.035   2.515  1.1825  0.1243 -0.3877
  815MOL0     C 9917   2.072   2.041   2.579  0.0137 -0.3982 -0.2605
  815MOL0     C 9918   1.982   2.155   2.539 -0.7349  0.1579  0.2924
  815MOL0     C 9919   2.044   1.941   2.678  0.6646 -0.2420  0.2811
  815MOL0     C 9920   1.916   1.928   2.748  0.0122  0.0680  0.1288
  815MOL0     O 9921   1.903   1.835   2.846 -0.9100  0.2760 -1.1810
  815MOL0     C 9922   1.784   1.798   2.905  0.4691 -0.3320 -0.1496
  815MOL0     C 9923   1.653   1.812   2.860  0.6662 -0.0538  0.5381
  815MOL0     C 9924   1.540   1.791   2.948 -0.1062 -0.4748  0.2854
  815MOL0     C 9925   1.570   1.740   3.076  0.0675 -1.0837  0.1930
  815MOL0     O 9926   1.460   1.710   3.156  0.6964 -0.5733  0.4065
  815MOL0     C 9927   1.483   1.682   3.293 -0.7002  1.2609  0.4441
  815MOL0     C 9928   1.353   1.632   3.365 -0.8000  0.4566  0.8363
  815MOL0     C 9929   1.287   1.523   3.281  0.6410  0.8155 -0.6946
  815MOL0     C 9930   1.166   1.471   3.376  0.5843 -0.3017  0.6678
  815MOL0     C 9931   1.082   1.361   3.311 -0.6723 -0.1954  1.7305
  815MOL0     C 9932   0.951   1.320   3.388 -0.6968 -0.6928 -0.3490
  815MOL0     C 9933   0.903   1.176   3.336  0.4226 -0.3306 -0.4744
  815MOL0     C 9934   0.776   1.125   3.408 -0.6773 -1.0311 -0.0094
  815MOL0    Cl 9935   0.635   1.240   3.359 -0.4552 -0.1269 -0.1370
  815MOL0     C 9936   1.701   1.728   3.117 -0.8325  0.5216 -0.5790
  815MOL0     C 9937   1.805   1.758   3.036  0.8232  0.0126  0.7899
  815MOL0     O 9938   1.822   2.005   2.721 -1.1032  0.3629 -0.2952
  815MOL0     C 9939   2.146   1.842   2.704 -0.2943 -0.3144  0.0971
  815MOL0     C 9940   2.265   1.839   2.633  1.0147 -0.0807  0.0471
  815MOL0     N 9941   2.709   2.262   2.228  0.1348  0.4657  0.0101
  815MOL0     N 9942   2.796   2.326   2.157 -0.3483  0.0863 -0.2292
  815MOL0     C 9943   4.116   2.319   2.471  0.3418 -0.4223  0.4635
  815MOL0     C 9944   4.207   2.260   2.557 -0.3785 -0.5760 -0.8606
  815MOL0     C 9945   4.330   2.071   2.980 -0.1881  0.0556  0.7762
  815MOL0     C 9946   4.303   2.071   3.113  0.2703 -0.9775 -0.4532
  815MOL0     C 9947   4.378   2.005   3.209  0.1722  0.3842  0.3875
  815MOL0     C 9948   4.494   1.940   3.172  0.1899 -0.1749 -0.4238
  815MOL0     O 9949   4.546   1.858   3.264  0.0671 -0.0834 -1.2183
  815MOL0     C 9950   4.595   1.915   3.384 -0.0439  0.2075  0.4976
  815MOL0     C 9951   4.552   1.842   3.511  1.0323 -0.3927  0.5617
  815MOL0     C 9952   4.615   1.706   3.528  0.0166 -0.4006  0.0189
  815MOL0     C 9953   4.596   1.672   3.673  0.5713  0.3914 -0.0391
  815MOL0     C 9954   4.642   1.528   3.681  0.6628 -0.1733 -0.7196
  815MOL0     C 9955   4.665   1.410   3.679 -0.1494 -0.2889 -0.3702
  815MOL0     C 9956   4.521   1.931   3.036 -1.4103 -1.4401 -0.8280
  815MOL0     C 9957   4.456   2.008   2.944 -0.0725  0.0773 -0.2354
  815MOL0     H 9958   4.004   2.052   2.733  2.0979  0.4460 -0.7167
  815MOL0     H 9959   3.823   2.174   2.563 -1.4524  3.0596  3.2962
  815MOL0     H 9960   3.965   2.194   2.215 -0.3421 -1.7097 -0.1794
  815MOL0     H 9961   3.825   2.135   2.311 -1.4672 -0.2582 -1.7172
  815MOL0     H 9962   3.833   2.383   2.122  1.0291 -0.2374  0.4821
  815MOL0     H 9963   3.772   2.226   2.078  0.4943 -1.2504  1.3948
  815MOL0     H 9964   3.629   2.265   2.295 -2.9386 -0.5932 -0.1982
  815MOL0     H 9965   3.637   2.432   2.240 -1.5860 -0.4106 -0.4238
  815MOL0     H 9966   3.539   2.380   2.032  1.4670  1.5593  0.2993
  815MOL0     H 9967   3.515   2.214   2.069  1.9933  1.4918 -3.3561
  815MOL0     H 9968   3.384   2.249   2.252 -0.0021 -2.1413 -1.3991
  815MOL0     H 9969   3.416   2.433   2.238 -1.7752  0.6499 -0.4494
  815MOL0     H 9970   3.298   2.436   2.040 -2.2944  0.8742  1.5021
  815MOL0     H 9971   3.297   2.254   2.023  2.6500  0.6484 -0.4237
  815MOL0     H 9972   3.158   2.240   2.234  0.2207 -0.6293 -0.7797
  815MOL0     H 9973   3.137   2.418   2.223 -2.1050  0.4928 -0.9491
  815MOL0     H 9974   3.072   2.212   2.019  1.7511  1.3165 -1.3673
  815MOL0     H 9975   3.027   2.388   2.013  0.9816  0.3119 -0.7521
  815MOL0     H 9976   2.977   2.070   2.272 -1.1755 -0.4511  0.8288
  815MOL0     H 9977   2.805   2.026   2.443 -0.2433 -1.3510 -0.5340
  815MOL0     H 9978   2.643   2.109   2.434 -2.5283 -0.5540 -2.7383
  815MOL0     H 9979   2.664   1.843   2.397 -1.7046 -1.3557 -2.5057
  815MOL0     H 9980   2.757   1.896   2.247 -1.3291  0.4486 -2.2969
  815MOL0     H 9981   2.508   1.820   2.229  1.8218 -0.3888 -0.9695
  815MOL0     H 9982   2.550   1.972   2.153  2.4729 -0.6404  0.3738
  815MOL0     H 9983   2.324   1.979   2.281 -0.1086 -0.3740  0.0256
  815MOL0     H 9984   2.440   2.094   2.357  1.3218 -0.3546 -0.4463
  815MOL0     H 9985   2.219   2.119   2.449 -2.1608  0.5474 -1.0544
  815MOL0     H 9986   1.885   2.122   2.500 -0.8375  2.6791 -1.8280
  815MOL0     H 9987   1.958   2.214   2.628  2.5403 -0.0462  1.4512
  815MOL0     H 9988   2.030   2.216   2.462 -0.7271  1.7051  1.4705
  815MOL0     H 9989   1.649   1.832   2.754  1.2892 -0.8326  0.3548
  815MOL0     H 9990   1.435   1.785   2.920 -1.1048  1.8142  2.9837
  815MOL0     H 9991   1.550   1.596   3.300 -1.5164  0.7124  1.8437
  815MOL0     H 9992   1.526   1.766   3.348 -0.2781  0.6818  1.0103
  815MOL0     H 9993   1.388   1.591   3.460  1.4358  0.2010 -0.0548
  815MOL0     H 9994   1.289   1.717   3.391  0.3683  1.1176  1.6297
  815MOL0     H 9995   1.354   1.445   3.244 -0.3778 -0.5193  0.2000
  815MOL0     H 9996   1.248   1.572   3.192  0.0210 -0.6881 -1.2797
  815MOL0     H 9997   1.196   1.439   3.476  1.5421  0.5590  0.6712
  815MOL0     H 9998   1.089   1.546   3.392  1.1539  0.0753  1.7123
  815MOL0     H 9999   1.140   1.268   3.305 -0.2886 -0.1475  3.9126
  815MOL0     H10000   1.060   1.390   3.208  3.4502 -0.1713  0.6800
  815MOL0     H10001   0.984   1.306   3.491  1.4275  2.8241 -0.3589
  815MOL0     H10002   0.871   1.393   3.372 -0.6070 -1.1626 -3.7278
  815MOL0     H10003   0.979   1.098   3.332 -0.6167 -1.3713 -0.1829
  815MOL0     H10004   0.874   1.193   3.232  2.7910  1.0703 -0.9981
  815MOL0     H10005   0.790   1.117   3.516 -1.3644  1.4736  0.3273
  815MOL0     H10006   0.758   1.020   3.383 -1.6895 -0.7157 -0.6945
  815MOL0     H10007   1.730   1.678   3.209  2.0954 -0.4573 -1.9130
  815MOL0     H10008   1.906   1.764   3.074  0.5707 -2.1379  1.9332
  815MOL0     H10009   2.131   1.770   2.783 -0.5621  0.0824  0.4130
  815MOL0     H10010   2.334   1.764   2.668  1.5250  0.3543 -0.0047
  815MOL0     H10011   4.143   2.393   2.397  1.3776 -2.0630 -0.8780
  815MOL0     H10012   4.311   2.288   2.565  0.9882 -5.2683  2.1389
  815MOL0     H10013   4.213   2.124   3.143  2.5845  1.7494  2.3279
  815MOL0     H10014   4.354   2.024   3.314  0.7786 -2.4076  1.1114
  815MOL0     H10015   4.703   1.910   3.371 -0.2983  0.1852 -1.9353
  815MOL0     H10016   4.579   2.023   3.391 -2.4173 -0.1757  2.3392
  815MOL0     H10017   4.443   1.838   3.511  0.9484 -1.6001 -2.9065
  815MOL0     H10018   4.592   1.907   3.589 -3.1342  1.7102  1.2240
  815MOL0     H10019   4.722   1.716   3.505 -0.0785  1.8470  0.2612
  815MOL0     H10020   4.564   1.639   3.458 -1.5852  2.0810 -1.3392
  815MOL0     H10021   4.487   1.678   3.686 -0.2190 -0.2221 -4.5298
  815MOL0     H10022   4.655   1.733   3.742 -2.7107  2.9474  0.7928
  815MOL0     H10023   4.691   1.306   3.678  2.5168  0.2768 -2.3374
  815MOL0     H10024   4.613   1.881   3.005 -1.5294 -1.5312 -1.0375
  815MOL0     H10025   4.485   2.023   2.840 -2.2055 -0.8574 -1.0334
  816MOL0     O10026   1.840   3.194   9.176  0.4784  0.2214 -0.4782
  816MOL0     C10027   1.886   3.271   9.261  0.2939  0.5542  0.6380
  816MOL0     O10028   1.813   3.356   9.327  0.2676  0.4654  0.1852
  816MOL0     C10029   1.678   3.361   9.318 -0.1648  0.4268 -0.2946
  816MOL0     C10030   1.612   3.387   9.441  0.1675  0.1676 -0.6824
  816MOL0     C10031   1.472   3.399   9.454 -0.8582  0.0641 -0.0621
  816MOL0     C10032   1.398   3.369   9.338  0.1756 -0.1162  0.7987
  816MOL0     O10033   1.264   3.366   9.357 -0.0188 -0.1854  0.6868
  816MOL0     C10034   1.186   3.422   9.249  0.6806 -0.2728  0.1485
  816MOL0     C10035   1.029   3.398   9.289 -0.0091  0.2754  0.1450
  816MOL0     C10036   0.938   3.451   9.180 -0.5476  0.0797 -0.0387
  816MOL0     C10037   0.797   3.386   9.184 -0.2859 -0.0944  0.1465
  816MOL0     C10038   0.712   3.432   9.062 -1.1417 -0.1471 -0.9296
  816MOL0     C10039   0.564   3.435   9.099 -0.0545 -0.3583  0.5851
  816MOL0     C10040   0.511   3.296   9.116  0.0290  0.2471  0.2711
  816MOL0     C10041   0.359   3.298   9.135  0.3196 -0.5477 -0.4366
  816MOL0     N10042   0.291   3.161   9.134 -0.4068 -0.5361 -0.1641
  816MOL0     C10043   0.355   3.041   9.096 -0.9967  0.6174 -0.5022
  816MOL0     C10044   0.255   2.955   9.094  0.2996  0.3209  0.1797
  816MOL0     C10045   0.256   2.814   9.044 -0.3386 -0.1111  0.2295
  816MOL0     C10046   0.196   2.711   9.145  0.7377 -0.5001 -0.2076
  816MOL0     C10047   0.287   2.687   9.267  0.6768  0.3716 -0.8819
  816MOL0     C10048   0.256   2.776   9.393  0.2235  0.8577  0.6894
  816MOL0     O10049   0.357   2.757   9.495 -0.0796  0.1493 -0.5500
  816MOL0     C10050   0.480   2.799   9.475  0.0951  0.3281 -0.1747
  816MOL0     C10051   0.570   2.741   9.555 -0.0244 -0.1183 -0.3132
  816MOL0     C10052   0.707   2.782   9.551 -0.4672 -0.0452  0.1341
  816MOL0     C10053   0.802   2.694   9.621  0.2166  0.3418  0.1988
  816MOL0     C10054   0.753   2.898   9.480 -0.6273  0.3481  1.1165
  816MOL0     C10055   0.898   2.946   9.469  0.2821  1.2435 -0.1178
  816MOL0     O10056   0.990   2.902   9.561  0.2745 -0.4221  0.1762
  816MOL0     C10057   1.121   2.940   9.562  0.1809 -0.4411 -0.0330
  816MOL0     C10058   1.179   3.056   9.502  0.1400 -0.6427  1.1182
  816MOL0     C10059   1.305   3.077   9.511 -0.4926 -0.9214  0.2988
  816MOL0     C10060   1.398   2.999   9.577 -0.4297 -0.2382 -0.4470
  816MOL0     O10061   1.525   3.042   9.581  0.2780 -0.4203 -0.8278
  816MOL0     C10062   1.595   3.024   9.449 -0.0946 -0.0765 -0.9615
  816MOL0     C10063   1.743   2.988   9.479 -0.2621 -0.3937 -0.5550
  816MOL0     C10064   1.786   2.843   9.514 -0.0608  0.5272  0.3181
  816MOL0     C10065   1.799   2.755   9.384 -1.0007 -0.4781 -0.4456
  816MOL0     C10066   1.867   2.618   9.420  0.1571  0.6019 -0.7381
  816MOL0     C10067   1.827   2.502   9.321  0.5139 -0.1248 -0.3767
  816MOL0     C10068   1.887   2.371   9.373 -0.2025  0.3447 -0.8257
  816MOL0     C10069   1.888   2.265   9.260 -0.3343  0.2115  0.0864
  816MOL0    Cl10070   1.724   2.244   9.188 -0.3544  0.1802 -0.4711
  816MOL0     C10071   1.347   2.886   9.641  0.1850 -0.1852 -0.4646
  816MOL0     C10072   1.204   2.862   9.638  0.5197 -0.1610  0.0674
  816MOL0     O10073   0.924   3.031   9.383  0.0768  0.2046 -0.2985
  816MOL0     C10074   0.655   2.946   9.387 -0.8314  0.2828 -0.5410
  816MOL0     C10075   0.523   2.897   9.394 -0.5580 -0.8436 -0.5022
  816MOL0     N10076   0.133   3.017   9.116 -0.0964  0.3538  0.2698
  816MOL0     N10077   0.160   3.142   9.136 -0.2380 -0.1266 -0.1216
  816MOL0     C10078   1.465   3.331   9.213  0.0825 -0.9887 -0.7625
  816MOL0     C10079   1.607   3.327   9.209 -0.2908  0.5510  0.2264
  816MOL0     C10080   2.037   3.260   9.277  0.1165 -0.0619  0.4070
  816MOL0     C10081   2.109   3.352   9.352  0.3548 -0.1917  0.0194
  816MOL0     C10082   2.251   3.340   9.369 -0.4671 -0.8312 -0.7587
  816MOL0     C10083   2.328   3.247   9.315  0.3459  0.1339 -0.9437
  816MOL0     O10084   2.455   3.220   9.343 -0.2209  0.3497  0.0213
  816MOL0     C10085   2.495   3.225   9.479  0.6203  0.4827 -0.1578
  816MOL0     C10086   2.613   3.317   9.497  0.2940  0.1336  0.1451
  816MOL0     C10087   2.577   3.464   9.462  0.3169  0.1283 -0.1094
  816MOL0     C10088   2.695   3.549   9.417 -0.3397  0.3167  0.2049
  816MOL0     C10089   2.801   3.561   9.522  0.1419 -0.1785  0.5881
  816MOL0     C10090   2.883   3.573   9.611 -0.0976 -0.1534  1.0610
  816MOL0     C10091   2.251   3.147   9.250  0.0396  0.9124  0.0759
  816MOL0     C10092   2.114   3.154   9.229 -0.2388 -0.1538  0.6508
  816MOL0     H10093   1.665   3.421   9.529  0.5987  1.3760 -1.3932
  816MOL0     H10094   1.433   3.418   9.553 -0.5062 -1.1874  0.3364
  816MOL0     H10095   1.207   3.528   9.233 -0.0587 -0.3984 -1.9027
  816MOL0     H10096   1.214   3.380   9.152  1.4549  3.2742 -1.3483
  816MOL0     H10097   1.012   3.291   9.305 -1.5764  0.0620 -2.4862
  816MOL0     H10098   1.010   3.450   9.383  0.4432 -0.7247  0.8118
  816MOL0     H10099   0.919   3.559   9.186  0.0554  0.5086 -3.4848
  816MOL0     H10100   0.986   3.434   9.083 -0.0831  0.0550  0.1923
  816MOL0     H10101   0.788   3.277   9.181  0.3849 -0.1862 -3.8208
  816MOL0     H10102   0.748   3.417   9.277 -0.0572 -0.8244  0.5172
  816MOL0     H10103   0.727   3.535   9.029 -2.1569 -0.4788 -2.5288
  816MOL0     H10104   0.740   3.366   8.979  2.4733 -0.5405  0.4272
  816MOL0     H10105   0.531   3.497   9.182  0.6025 -0.5615  1.0108
  816MOL0     H10106   0.524   3.481   9.008  0.5812 -1.4878 -0.2916
  816MOL0     H10107   0.538   3.246   9.023  2.3781 -0.3728  1.2010
  816MOL0     H10108   0.570   3.245   9.193  1.0855 -2.1109 -1.9566
  816MOL0     H10109   0.306   3.358   9.061 -3.5010 -0.9148  1.7461
  816MOL0     H10110   0.339   3.340   9.233  0.7578 -2.4842  0.5427
  816MOL0     H10111   0.462   3.025   9.084 -0.3084  3.7465  0.6671
  816MOL0     H10112   0.207   2.815   8.947  2.7963  0.3693 -1.4839
  816MOL0     H10113   0.355   2.780   9.012 -1.7718 -3.8865 -0.6958
  816MOL0     H10114   0.166   2.620   9.092  2.7050 -0.3727 -1.6205
  816MOL0     H10115   0.108   2.770   9.173  0.9357 -0.1732 -0.2641
  816MOL0     H10116   0.393   2.678   9.243  0.3533 -1.2471 -1.8717
  816MOL0     H10117   0.263   2.587   9.306  0.2479 -0.2064 -2.5344
  816MOL0     H10118   0.157   2.742   9.426 -0.7170  0.0092 -2.5970
  816MOL0     H10119   0.241   2.879   9.360 -0.3968  1.0087  1.4086
  816MOL0     H10120   0.551   2.661   9.626 -1.1072  0.7033  0.3545
  816MOL0     H10121   0.805   2.721   9.727  3.7266 -1.0001  0.5853
  816MOL0     H10122   0.757   2.595   9.607  3.2470 -1.0852 -0.3815
  816MOL0     H10123   0.899   2.688   9.572  0.2462  0.6583  0.2154
  816MOL0     H10124   1.119   3.129   9.449 -2.0959 -0.1240  4.0925
  816MOL0     H10125   1.356   3.156   9.456  1.4717 -1.4260  1.2816
  816MOL0     H10126   1.558   2.940   9.389  2.0993 -1.8589  0.0103
  816MOL0     H10127   1.578   3.115   9.391 -0.9831  0.9958  0.8970
  816MOL0     H10128   1.813   3.002   9.396  0.9055 -4.2848 -0.4201
  816MOL0     H10129   1.774   3.054   9.560  1.2063 -2.0719  0.3067
  816MOL0     H10130   1.709   2.794   9.574 -2.7434  0.6251 -2.7771
  816MOL0     H10131   1.881   2.836   9.567  1.0592 -3.2347 -1.8392
  816MOL0     H10132   1.697   2.755   9.345 -1.5929  2.8237  0.7988
  816MOL0     H10133   1.857   2.805   9.307 -1.6722  1.8581  0.4778
  816MOL0     H10134   1.840   2.582   9.519  1.6965  1.1453 -0.0991
  816MOL0     H10135   1.976   2.623   9.431 -0.0125  1.1311  0.9189
  816MOL0     H10136   1.718   2.497   9.313  0.4457  0.9460 -0.2360
  816MOL0     H10137   1.875   2.526   9.225 -0.2150 -1.0218 -0.9915
  816MOL0     H10138   1.818   2.338   9.450 -2.2542  0.3222 -2.5716
  816MOL0     H10139   1.981   2.378   9.429 -1.7460 -1.5818  2.2108
  816MOL0     H10140   1.917   2.173   9.311 -1.4420  0.2342  0.7773
  816MOL0     H10141   1.964   2.282   9.183  0.4988  1.6184  1.1624
  816MOL0     H10142   1.416   2.820   9.693 -1.9324  0.2483  3.2924
  816MOL0     H10143   1.142   2.785   9.683 -2.4624  2.5309  0.9619
  816MOL0     H10144   0.672   3.024   9.314 -1.8510  1.4820  0.4539
  816MOL0     H10145   0.454   2.953   9.332 -1.9763 -0.1755  1.5379
  816MOL0     H10146   1.410   3.310   9.122 -0.5197  0.0674 -0.6530
  816MOL0     H10147   1.642   3.321   9.106 -3.2133 -0.7173 -0.8210
  816MOL0     H10148   2.058   3.445   9.374 -0.0931 -0.8090  1.7324
  816MOL0     H10149   2.301   3.429   9.408 -1.7616  0.9852 -2.9960
  816MOL0     H10150   2.407   3.248   9.540 -0.0684  0.3602 -1.0874
  816MOL0     H10151   2.522   3.124   9.513 -1.9363  0.3380  1.7276
  816MOL0     H10152   2.693   3.278   9.434 -0.3565 -2.0894  0.6161
  816MOL0     H10153   2.638   3.304   9.603 -1.2509 -3.4611  0.2234
  816MOL0     H10154   2.530   3.510   9.549 -1.8849 -1.5776 -0.3180
  816MOL0     H10155   2.510   3.461   9.375 -0.2755  2.6663  0.1665
  816MOL0     H10156   2.664   3.653   9.411  3.6924  1.8755  2.0680
  816MOL0     H10157   2.730   3.505   9.323 -2.4870  2.1301 -1.5171
  816MOL0     H10158   2.968   3.572   9.676  1.1219 -0.7148 -0.4669
  816MOL0     H10159   2.307   3.060   9.217  1.4292  0.5391  3.0394
  816MOL0     H10160   2.056   3.075   9.184 -3.2858  2.1220  0.2116
  817MOL0     O10161   2.885  10.829   1.151 -0.2851  0.5742  0.7362
  817MOL0     C10162   2.967  10.775   1.066  0.9708 -0.6346 -0.3941
  817MOL0     O10163   2.937  10.672   0.981  0.0222  0.2861  0.9933
  817MOL0     C10164   2.803  10.625   0.979  0.2932  0.5809 -0.0143
  817MOL0     C10165   2.751  10.568   1.093 -1.2748 -1.1717 -0.2188
  817MOL0     C10166   2.623  10.525   1.111 -0.7861  0.0027  0.4215
  817MOL0     C10167   2.529  10.543   1.009 -0.0775 -0.1856  0.7038
  817MOL0     O10168   2.403  10.496   0.996  0.5237  0.1095  0.2114
  817MOL0     C10169   2.303  10.600   1.007  0.3267 -0.6409 -0.4825
  817MOL0     C10170   2.221  10.594   1.134  0.1573 -0.4913 -0.1913
  817MOL0     C10171   2.234  10.464   1.206  0.2705 -0.5727  0.2146
  817MOL0     C10172   2.150  10.454   1.340 -0.3031  1.3278  0.3387
  817MOL0     C10173   2.001  10.446   1.296 -0.7465 -0.3084  0.7619
  817MOL0     C10174   1.912  10.431   1.430 -0.4019 -0.2959 -0.4653
  817MOL0     C10175   1.764  10.388   1.409 -0.0413 -0.9397 -0.0866
  817MOL0     C10176   1.690  10.413   1.534  1.1329  0.5220 -0.5457
  817MOL0     N10177   1.546  10.412   1.507  0.8244  0.0194 -0.3229
  817MOL0     C10178   1.451  10.323   1.557 -0.9704 -0.4882 -0.1797
  817MOL0     C10179   1.334  10.394   1.570  0.2015  0.3713  0.2010
  817MOL0     C10180   1.220  10.337   1.642  0.1650 -0.5422  0.0900
  817MOL0     C10181   1.137  10.242   1.556  1.1107  0.2447 -0.4874
  817MOL0     C10182   1.030  10.307   1.461  0.3672 -0.6369 -1.0378
  817MOL0     C10183   0.958  10.197   1.375 -0.2597 -0.4382 -0.2200
  817MOL0     O10184   0.850  10.264   1.311  0.3445 -0.0830  1.1258
  817MOL0     C10185   0.756  10.189   1.239 -0.3093 -0.2719  0.0570
  817MOL0     C10186   0.647  10.256   1.191  0.0627 -0.5876  0.6438
  817MOL0     C10187   0.549  10.186   1.120  0.2357  0.6604 -0.2602
  817MOL0     C10188   0.451  10.273   1.034 -0.8111 -1.1289 -0.4531
  817MOL0     C10189   0.551  10.044   1.112  0.4717  1.0064  0.5185
  817MOL0     C10190   0.436   9.961   1.064  0.1420 -0.6482 -0.6526
  817MOL0     O10191   0.456   9.852   0.997  0.0919 -0.2941  0.4754
  817MOL0     C10192   0.349   9.807   0.928  0.2556  0.2060  0.2537
  817MOL0     C10193   0.263   9.714   0.972 -0.2855  0.2289  0.1434
  817MOL0     C10194   0.151   9.667   0.899 -0.4684  0.5225  0.4859
  817MOL0     C10195   0.137   9.717   0.767  0.4336  0.4241  0.1219
  817MOL0     O10196   0.032   9.678   0.689 -1.3736  0.4345  0.9498
  817MOL0     C10197  -0.103   9.718   0.709  0.5096  0.1079  0.3991
  817MOL0     C10198  -0.197   9.593   0.711  0.9625 -0.2238 -0.7655
  817MOL0     C10199  -0.349   9.633   0.681  0.1739 -0.0894  0.5450
  817MOL0     C10200  -0.439   9.511   0.668 -0.3339  0.1202 -0.2590
  817MOL0     C10201  -0.535   9.495   0.785 -0.2420  0.3653 -0.6402
  817MOL0     C10202  -0.594   9.356   0.806  1.1552 -0.1641  0.7315
  817MOL0     C10203  -0.693   9.350   0.931 -0.4521 -0.0122  0.8735
  817MOL0     C10204  -0.732   9.203   0.962  0.2514  1.2503  0.0795
  817MOL0    Cl10205  -0.887   9.215   1.059  0.5125 -0.1891  0.1013
  817MOL0     C10206   0.225   9.811   0.716 -0.4846 -0.0728  0.7779
  817MOL0     C10207   0.328   9.859   0.798 -0.6001  0.1934 -0.5154
  817MOL0     O10208   0.324  10.006   1.097  0.6685  0.9586  0.8155
  817MOL0     C10209   0.656   9.978   1.176 -1.1916  0.1953  0.3984
  817MOL0     C10210   0.761  10.049   1.234 -0.5700  0.8020  0.3404
  817MOL0     N10211   1.368  10.524   1.545  0.2554  0.6283 -0.0579
  817MOL0     N10212   1.483  10.534   1.507 -0.1155 -0.8643  0.3320
  817MOL0     C10213   2.584  10.598   0.888  0.7526  0.4334  1.0221
  817MOL0     C10214   2.717  10.635   0.868  0.3621 -0.2682 -0.1375
  817MOL0     C10215   3.114  10.814   1.087 -0.4917  1.0671  0.7222
  817MOL0     C10216   3.217  10.746   1.014  0.1346 -0.4333  0.0356
  817MOL0     C10217   3.352  10.778   1.024 -0.7098  0.0995 -1.0440
  817MOL0     C10218   3.390  10.887   1.107  0.3109  0.8575 -0.5737
  817MOL0     O10219   3.518  10.929   1.108  0.3233  1.1270  1.2502
  817MOL0     C10220   3.554  11.021   1.004  0.6125 -0.2173 -0.8481
  817MOL0     C10221   3.698  11.075   1.021  0.0504  0.1083  0.1413
  817MOL0     C10222   3.799  10.960   1.060 -0.4015 -0.0251 -0.4050
  817MOL0     C10223   3.933  11.013   1.109  0.0094  0.5167 -0.2122
  817MOL0     C10224   3.972  11.126   1.030 -0.8492 -0.0164  0.2734
  817MOL0     C10225   3.998  11.226   0.965  0.0225  0.2159  0.5334
  817MOL0     C10226   3.288  10.950   1.180  0.0052 -0.0304 -0.3690
  817MOL0     C10227   3.152  10.914   1.171  0.7458  0.9538  0.0177
  817MOL0     H10228   2.825  10.556   1.172 -0.7546  2.6684  0.0469
  817MOL0     H10229   2.589  10.482   1.204 -2.7999 -3.8433 -1.8205
  817MOL0     H10230   2.355  10.695   0.996  2.6170 -1.5403  1.7017
  817MOL0     H10231   2.240  10.602   0.917 -1.1029 -2.3234  0.4166
  817MOL0     H10232   2.258  10.676   1.197  1.5109  0.8266 -2.5634
  817MOL0     H10233   2.117  10.623   1.115  1.5613  5.8491 -0.4658
  817MOL0     H10234   2.213  10.384   1.135  1.5891 -1.1156  0.3921
  817MOL0     H10235   2.341  10.452   1.229 -0.0440 -0.6674  1.7062
  817MOL0     H10236   2.180  10.365   1.396  0.0797  1.3340  0.1442
  817MOL0     H10237   2.158  10.543   1.403  0.0572  2.0723 -0.7332
  817MOL0     H10238   1.974  10.531   1.233 -1.8838 -1.7844 -0.8477
  817MOL0     H10239   2.005  10.355   1.235 -2.7718 -0.4071  0.7205
  817MOL0     H10240   1.959  10.356   1.493  1.2712  0.2551 -1.0096
  817MOL0     H10241   1.907  10.529   1.478  0.0103  0.3681 -1.7239
  817MOL0     H10242   1.734  10.454   1.327 -0.1876  0.4474  1.0400
  817MOL0     H10243   1.756  10.284   1.378 -3.2544 -0.5033 -1.0987
  817MOL0     H10244   1.715  10.508   1.582  0.6859 -0.8485  2.6474
  817MOL0     H10245   1.723  10.344   1.613  2.8978  2.8120  0.8218
  817MOL0     H10246   1.468  10.227   1.604 -1.9847 -0.6179 -0.0504
  817MOL0     H10247   1.257  10.276   1.725  1.5568  1.0751  0.7065
  817MOL0     H10248   1.164  10.424   1.677  0.5363 -0.1896 -0.1837
  817MOL0     H10249   1.083  10.175   1.624  3.1370  0.4631  1.4721
  817MOL0     H10250   1.207  10.181   1.498  0.0705  0.5384 -2.0997
  817MOL0     H10251   1.082  10.372   1.391 -0.6485  0.6497 -0.6425
  817MOL0     H10252   0.968  10.370   1.526  0.7654 -0.2772 -1.0065
  817MOL0     H10253   0.923  10.115   1.437  0.0092 -2.2279 -2.2990
  817MOL0     H10254   1.029  10.156   1.302 -0.0796  1.0056 -0.9069
  817MOL0     H10255   0.641  10.361   1.218  2.1897 -0.3755  0.4562
  817MOL0     H10256   0.406  10.210   0.956  1.5860 -2.6215 -0.7309
  817MOL0     H10257   0.373  10.323   1.092  1.3764  1.3054  0.5734
  817MOL0     H10258   0.502  10.361   0.994  0.1168  0.6465  4.0578
  817MOL0     H10259   0.260   9.675   1.074  1.4141 -3.6802 -1.1339
  817MOL0     H10260   0.081   9.599   0.945 -1.0286  0.5076 -0.3635
  817MOL0     H10261  -0.126   9.777   0.798 -1.9015 -1.4221  0.8998
  817MOL0     H10262  -0.118   9.776   0.617  0.3649 -1.8064 -0.8523
  817MOL0     H10263  -0.173   9.532   0.623  0.2228  3.0485 -3.4601
  817MOL0     H10264  -0.189   9.537   0.804  3.1203  0.1023 -0.7036
  817MOL0     H10265  -0.345   9.687   0.586  1.0087 -0.2298  0.4902
  817MOL0     H10266  -0.375   9.697   0.766  1.7662 -1.7935  2.4300
  817MOL0     H10267  -0.501   9.529   0.580  0.0242 -2.4858 -1.1201
  817MOL0     H10268  -0.383   9.417   0.659  1.3987  0.8388  1.9866
  817MOL0     H10269  -0.617   9.564   0.767 -0.4477  0.6264  1.1506
  817MOL0     H10270  -0.495   9.514   0.885  0.4773 -0.7140 -0.7030
  817MOL0     H10271  -0.650   9.327   0.716 -0.1384  4.3327 -0.1493
  817MOL0     H10272  -0.523   9.273   0.804 -2.6203 -3.7116 -0.4513
  817MOL0     H10273  -0.784   9.405   0.907 -0.1503  0.9449  1.8462
  817MOL0     H10274  -0.648   9.383   1.025 -0.4305 -1.4824  1.4127
  817MOL0     H10275  -0.657   9.166   1.032 -0.6791 -1.3201 -0.1996
  817MOL0     H10276  -0.741   9.140   0.874  1.9972  2.5958 -1.1361
  817MOL0     H10277   0.213   9.848   0.615  2.1597 -1.1431 -0.0077
  817MOL0     H10278   0.406   9.928   0.766  3.1254 -3.4943 -0.2390
  817MOL0     H10279   0.645   9.871   1.186 -1.4704  0.2263  0.4345
  817MOL0     H10280   0.834  10.000   1.298 -1.6973  0.5965  1.5300
  817MOL0     H10281   2.514  10.625   0.809  0.5852 -3.5917 -0.4211
  817MOL0     H10282   2.755  10.684   0.779  0.9830 -0.5844 -0.0532
  817MOL0     H10283   3.195  10.652   0.965 -0.1886  0.4866 -1.6312
  817MOL0     H10284   3.426  10.721   0.969  2.3678  2.0899  0.7376
  817MOL0     H10285   3.540  10.972   0.908  0.7163 -0.7331 -0.6035
  817MOL0     H10286   3.494  11.112   1.013 -2.1984 -1.8748 -1.7790
  817MOL0     H10287   3.702  11.150   1.100  3.7545 -0.0668  0.2984
  817MOL0     H10288   3.721  11.125   0.926  2.0528 -0.0118  0.5196
  817MOL0     H10289   3.798  10.899   0.969 -2.2914  0.8029 -0.9885
  817MOL0     H10290   3.765  10.885   1.132  0.1483  1.9015  1.9985
  817MOL0     H10291   4.009  10.934   1.107 -0.6919 -0.1513 -1.1948
  817MOL0     H10292   3.922  11.037   1.215  1.8993 -0.4442  0.2363
  817MOL0     H10293   4.024  11.322   0.925 -1.5859  1.1852  1.7153
  817MOL0     H10294   3.303  11.043   1.233 -2.9061 -0.3726  1.2576
  817MOL0     H10295   3.078  10.964   1.232  1.2685 -1.5971  2.9915
  818MOL0     O10296   4.193   2.478   3.353 -0.5045 -0.1909  0.0643
  818MOL0     C10297   4.170   2.359   3.372  0.1210 -0.3753  0.2127
  818MOL0     O10298   4.256   2.275   3.448 -0.0850  0.0554  0.4958
  818MOL0     C10299   4.353   2.328   3.535  0.1223 -0.2689 -0.0230
  818MOL0     C10300   4.467   2.256   3.544 -0.9651  0.4532  0.4320
  818MOL0     C10301   4.572   2.296   3.631  1.1657  0.9761 -0.2873
  818MOL0     C10302   4.565   2.407   3.713 -0.1137 -0.1247 -0.4544
  818MOL0     O10303   4.667   2.452   3.794 -0.4682  0.2406  0.2649
  818MOL0     C10304   4.800   2.404   3.759  0.0642 -0.6342  0.1611
  818MOL0     C10305   4.914   2.488   3.832 -0.2654 -1.5712  1.1241
  818MOL0     C10306   5.058   2.461   3.779  0.1460 -0.2115 -0.1854
  818MOL0     C10307   5.110   2.330   3.847  0.0717 -0.1111  0.5584
  818MOL0     C10308   5.266   2.322   3.827 -0.4394  0.3389 -0.4910
  818MOL0     C10309   5.360   2.437   3.870 -0.0113 -0.9668  0.5345
  818MOL0     C10310   5.509   2.416   3.856 -0.7631  0.1257  0.6926
  818MOL0     C10311   5.606   2.529   3.885  0.9800  0.7666 -0.4481
  818MOL0     N10312   5.743   2.493   3.890 -0.0471 -0.7075  0.4836
  818MOL0     C10313   5.858   2.565   3.915  0.5297 -0.9117  0.1399
  818MOL0     C10314   5.969   2.495   3.877 -0.8682 -0.3263  0.2927
  818MOL0     C10315   6.110   2.530   3.916 -0.5151 -0.2534  0.0911
  818MOL0     C10316   6.158   2.669   3.872 -0.6446 -0.0358  0.2121
  818MOL0     C10317   6.306   2.692   3.892 -0.6427 -0.7532 -0.2567
  818MOL0     C10318   6.329   2.839   3.874  0.8566 -0.4456 -0.9087
  818MOL0     O10319   6.448   2.876   3.938 -0.0612 -1.0761  0.1586
  818MOL0     C10320   6.545   2.967   3.889 -0.2266  0.0201 -1.0120
  818MOL0     C10321   6.655   2.917   3.818  0.3081 -0.3772  0.6823
  818MOL0     C10322   6.756   3.006   3.760 -1.1752  0.0804 -1.4581
  818MOL0     C10323   6.863   2.937   3.680 -0.1948 -0.1099  0.7605
  818MOL0     C10324   6.752   3.141   3.794 -0.3082  0.1104 -0.2976
  818MOL0     C10325   6.855   3.238   3.762 -0.1289  0.5123  1.0237
  818MOL0     O10326   6.922   3.221   3.642 -0.1222 -1.0071 -0.2571
  818MOL0     C10327   7.034   3.301   3.620  0.7244 -0.9944  1.2465
  818MOL0     C10328   7.030   3.400   3.518 -0.1524  0.5879  0.3846
  818MOL0     C10329   7.136   3.485   3.486 -0.2622  0.4287 -0.3178
  818MOL0     C10330   7.256   3.473   3.565 -0.4592  0.1579  0.0704
  818MOL0     O10331   7.358   3.565   3.533  0.2624 -0.6850 -0.1409
  818MOL0     C10332   7.436   3.626   3.637  0.0677  0.2311  0.6257
  818MOL0     C10333   7.530   3.735   3.580 -0.5254 -0.6048 -0.4008
  818MOL0     C10334   7.581   3.830   3.687  0.1719  0.0289  0.2457
  818MOL0     C10335   7.669   3.761   3.790  0.5191  0.1882  0.6049
  818MOL0     C10336   7.746   3.862   3.878 -0.7553  0.0496 -0.2128
  818MOL0     C10337   7.875   3.814   3.944  0.3109  0.2015  0.5994
  818MOL0     C10338   7.909   3.890   4.075 -0.4063  0.3427  0.0308
  818MOL0     C10339   8.042   3.837   4.131  0.7978 -0.4722  0.0506
  818MOL0    Cl10340   8.101   3.949   4.247 -0.1897  0.0911  0.0815
  818MOL0     C10341   7.262   3.378   3.670 -1.4395 -0.0727  0.1832
  818MOL0     C10342   7.158   3.290   3.683 -0.1208  0.2554 -0.6291
  818MOL0     O10343   6.863   3.336   3.838 -0.3809  0.2702 -0.5174
  818MOL0     C10344   6.643   3.192   3.871  0.6373  0.3056 -0.7811
  818MOL0     C10345   6.542   3.099   3.907  1.0827 -0.8399 -0.1555
  818MOL0     N10346   5.920   2.382   3.811 -1.1146 -0.8560 -0.1172
  818MOL0     N10347   5.794   2.379   3.822 -0.2971 -0.2151 -0.5656
  818MOL0     C10348   4.437   2.481   3.707 -0.4096  0.1399 -0.0576
  818MOL0     C10349   4.329   2.439   3.632  0.4054  0.2092  0.8341
  818MOL0     C10350   4.057   2.296   3.302  0.0952  0.3672 -0.5303
  818MOL0     C10351   4.012   2.367   3.187  0.2046  0.1111 -0.2467
  818MOL0     C10352   3.906   2.319   3.113  0.5402 -0.1089 -0.1025
  818MOL0     C10353   3.847   2.196   3.138  0.3339  0.3497 -0.3277
  818MOL0     O10354   3.756   2.149   3.050 -0.2618 -0.5162  0.0920
  818MOL0     C10355   3.702   2.224   2.936  0.6662  0.4242 -0.4711
  818MOL0     C10356   3.575   2.155   2.882  0.7645  0.4568 -0.8019
  818MOL0     C10357   3.503   2.070   2.995  0.4851 -0.9769  0.0352
  818MOL0     C10358   3.367   2.004   2.948 -0.0826  0.3296 -0.2200
  818MOL0     C10359   3.298   1.917   3.038 -0.2845 -0.8580 -0.4936
  818MOL0     C10360   3.247   1.858   3.134  0.1597  1.0308 -0.2754
  818MOL0     C10361   3.890   2.125   3.247  0.3687 -0.2300 -0.7096
  818MOL0     C10362   3.993   2.170   3.328 -0.8031 -0.0487 -0.4556
  818MOL0     H10363   4.475   2.167   3.482 -1.4213  1.2441 -0.7997
  818MOL0     H10364   4.656   2.227   3.633 -0.8264 -1.5809  0.1234
  818MOL0     H10365   4.817   2.300   3.788  2.6906 -0.6187 -0.9805
  818MOL0     H10366   4.818   2.416   3.651  0.7501  0.1732  0.3476
  818MOL0     H10367   4.908   2.597   3.819  1.7958 -1.5658 -0.3911
  818MOL0     H10368   4.917   2.470   3.940 -0.5500 -0.5091  1.3273
  818MOL0     H10369   5.063   2.452   3.670 -2.1043  0.8077 -0.4303
  818MOL0     H10370   5.130   2.541   3.796  0.6520 -0.8039  0.5622
  818MOL0     H10371   5.102   2.327   3.956 -3.1008 -1.9543  0.4119
  818MOL0     H10372   5.059   2.243   3.804  1.0724 -0.2566 -0.3889
  818MOL0     H10373   5.309   2.232   3.873  3.5260  2.0130 -0.4870
  818MOL0     H10374   5.266   2.306   3.718 -0.8543 -3.2547 -0.1056
  818MOL0     H10375   5.334   2.525   3.811 -0.4263 -4.0767 -4.5686
  818MOL0     H10376   5.328   2.460   3.972  2.5145  2.4161  0.7398
  818MOL0     H10377   5.542   2.333   3.919  1.0417 -0.1644 -0.5585
  818MOL0     H10378   5.521   2.382   3.753 -1.4489  0.7688  0.3963
  818MOL0     H10379   5.579   2.576   3.980  3.1869 -0.8913  1.1055
  818MOL0     H10380   5.581   2.605   3.810 -3.7711  1.4989  1.4810
  818MOL0     H10381   5.877   2.658   3.968 -0.2270  1.3454 -3.2541
  818MOL0     H10382   6.118   2.530   4.025  5.3392  0.7446 -0.0558
  818MOL0     H10383   6.180   2.453   3.883  0.7743  0.8993  0.0653
  818MOL0     H10384   6.096   2.732   3.937 -1.6224 -2.5432  1.9036
  818MOL0     H10385   6.133   2.689   3.768  2.8489  1.1451 -0.5192
  818MOL0     H10386   6.360   2.641   3.812  0.4486  0.3812 -0.2611
  818MOL0     H10387   6.335   2.657   3.992  0.4925  1.5168  0.2797
  818MOL0     H10388   6.253   2.893   3.930  0.1345 -2.7789  0.5207
  818MOL0     H10389   6.338   2.863   3.767  0.6906 -0.4016 -0.9121
  818MOL0     H10390   6.646   2.813   3.789 -3.7311  0.2770 -1.1298
  818MOL0     H10391   6.814   2.902   3.589 -1.0575  2.2247  0.2588
  818MOL0     H10392   6.944   2.999   3.641 -0.0161 -0.5488  0.4191
  818MOL0     H10393   6.901   2.856   3.743  1.5233  0.7468  0.8604
  818MOL0     H10394   6.937   3.421   3.466 -0.0324 -0.1893 -0.1597
  818MOL0     H10395   7.129   3.569   3.418 -3.0765  0.9644  0.4824
  818MOL0     H10396   7.367   3.678   3.703 -1.0783 -1.0304  0.4849
  818MOL0     H10397   7.486   3.555   3.703 -4.0292 -2.9029  0.8363
  818MOL0     H10398   7.613   3.677   3.539 -0.8744 -0.6576 -1.0561
  818MOL0     H10399   7.480   3.791   3.500 -0.5289 -1.2063 -0.8303
  818MOL0     H10400   7.508   3.896   3.733 -0.9976 -0.3190 -1.0479
  818MOL0     H10401   7.648   3.899   3.635  2.9759 -1.4033  1.7190
  818MOL0     H10402   7.613   3.704   3.865  1.2699  0.4113  1.3476
  818MOL0     H10403   7.729   3.684   3.741  0.0546  0.7973 -0.9621
  818MOL0     H10404   7.673   3.902   3.948 -1.2695  1.0396 -1.2811
  818MOL0     H10405   7.788   3.947   3.823 -0.1879  1.2499  1.9768
  818MOL0     H10406   7.864   3.709   3.973 -0.4018  0.0531 -0.1729
  818MOL0     H10407   7.958   3.819   3.873  0.3836 -2.7867  0.3440
  818MOL0     H10408   7.833   3.868   4.150 -1.4438 -3.0986 -1.7955
  818MOL0     H10409   7.904   3.997   4.051 -0.6407  0.4935  0.7429
  818MOL0     H10410   8.106   3.801   4.050 -1.3781 -2.2227 -0.9832
  818MOL0     H10411   8.018   3.755   4.199 -1.3477  0.4753  0.4983
  818MOL0     H10412   7.348   3.357   3.734 -1.8086 -0.5745  0.5183
  818MOL0     H10413   7.164   3.217   3.764 -0.2047 -0.6917 -1.4504
  818MOL0     H10414   6.629   3.293   3.909  0.9887 -0.8262  2.6365
  818MOL0     H10415   6.449   3.132   3.952  0.5756 -3.7230  1.1430
  818MOL0     H10416   4.432   2.576   3.760 -1.2594 -0.3357  0.7390
  818MOL0     H10417   4.231   2.485   3.648 -0.7677 -2.0045  0.4450
  818MOL0     H10418   4.067   2.453   3.151 -0.5604  1.2049  1.1067
  818MOL0     H10419   3.889   2.376   3.022  0.5627  3.2655  1.8122
  818MOL0     H10420   3.689   2.329   2.964 -0.5711 -0.2785  1.9113
  818MOL0     H10421   3.788   2.221   2.869  2.6666  1.5527  1.8521
  818MOL0     H10422   3.602   2.085   2.803  1.5070  2.0085 -1.9802
  818MOL0     H10423   3.506   2.232   2.845 -1.9713  0.1047  2.9832
  818MOL0     H10424   3.482   2.130   3.084 -5.2475  1.9221 -2.7630
  818MOL0     H10425   3.571   1.994   3.035  0.1919  0.1936  3.0049
  818MOL0     H10426   3.380   1.947   2.856 -3.4438 -1.0068 -0.0002
  818MOL0     H10427   3.312   2.095   2.923 -1.6312 -0.9217 -1.5980
  818MOL0     H10428   3.212   1.802   3.219  0.6750  0.0956 -0.6706
  818MOL0     H10429   3.841   2.032   3.276 -2.1672  0.6822 -1.7793
  818MOL0     H10430   4.033   2.112   3.410  3.5627 -0.7792 -2.7771
  819MOL0     O10431  10.559   4.033   1.641 -0.0986  0.4680 -0.2815
  819MOL0     C10432  10.499   4.141   1.651 -0.6337 -0.3088  0.3680
  819MOL0     O10433  10.550   4.260   1.636  0.2285  0.0676  0.9401
  819MOL0     C10434  10.686   4.279   1.649 -0.5672  0.1672  1.0264
  819MOL0     C10435  10.747   4.364   1.552 -0.3985  0.0117  0.3268
  819MOL0     C10436  10.886   4.396   1.575 -0.9797  0.1052  0.2104
  819MOL0     C10437  10.956   4.352   1.680 -0.3240  0.0308  0.3823
  819MOL0     O10438  11.090   4.378   1.683 -0.8326 -0.3051  0.9115
  819MOL0     C10439  11.168   4.285   1.762  0.5906 -1.1558 -0.1238
  819MOL0     C10440  11.311   4.314   1.725 -1.0615 -0.7276  0.7215
  819MOL0     C10441  11.366   4.456   1.764 -0.0121 -0.0491  0.4591
  819MOL0     C10442  11.484   4.442   1.856 -0.0797 -0.0284 -0.2326
  819MOL0     C10443  11.527   4.581   1.899 -0.2749 -0.6741 -0.4298
  819MOL0     C10444  11.632   4.561   2.017  1.2940  0.3553 -0.1310
  819MOL0     C10445  11.683   4.682   2.090  0.3198  1.0603 -0.6701
  819MOL0     C10446  11.579   4.768   2.157  0.5788  0.8538 -0.7017
  819MOL0     N10447  11.535   4.874   2.079 -0.1352 -0.6846 -1.0814
  819MOL0     C10448  11.623   4.975   2.034  0.5778 -0.9944 -0.0967
  819MOL0     C10449  11.543   5.059   1.968  0.4034 -0.6874 -0.3654
  819MOL0     C10450  11.591   5.179   1.900 -0.3405  0.0058  0.8374
  819MOL0     C10451  11.738   5.218   1.915 -0.3262  0.0139  0.3617
  819MOL0     C10452  11.793   5.325   1.811  0.0966 -0.0634 -1.2783
  819MOL0     C10453  11.943   5.346   1.824 -0.1689 -0.1332  0.1836
  819MOL0     O10454  12.004   5.386   1.956 -0.0994 -0.3322  0.2875
  819MOL0     C10455  12.026   5.516   1.993  0.1360 -0.7977  0.1359
  819MOL0     C10456  11.922   5.613   1.966  0.9683  0.2622  0.3404
  819MOL0     C10457  11.925   5.740   2.012 -0.3261 -0.5445 -0.2673
  819MOL0     C10458  11.825   5.833   1.946 -0.0821 -0.1811 -0.3845
  819MOL0     C10459  12.033   5.779   2.099 -0.7937 -0.1491  0.1937
  819MOL0     C10460  12.063   5.920   2.157 -0.4888  0.7357  0.1878
  819MOL0     O10461  12.188   5.949   2.212 -0.1290 -0.1677  0.9106
  819MOL0     C10462  12.206   6.059   2.293  0.6149 -0.1305  0.3029
  819MOL0     C10463  12.126   6.173   2.327  0.4732 -0.7077  0.0956
  819MOL0     C10464  12.179   6.272   2.409 -0.3473  0.5002 -0.5316
  819MOL0     C10465  12.311   6.268   2.450 -0.0389 -0.0448 -0.1099
  819MOL0     O10466  12.374   6.361   2.532  0.0579 -0.4408 -0.1584
  819MOL0     C10467  12.401   6.485   2.455  0.1192  0.0850 -0.1540
  819MOL0     C10468  12.478   6.591   2.545  0.1730  0.2196  0.8822
  819MOL0     C10469  12.614   6.539   2.589  0.5377  0.2546 -0.1517
  819MOL0     C10470  12.652   6.627   2.713 -0.0090 -0.1332 -0.4244
  819MOL0     C10471  12.800   6.610   2.767 -0.1863 -0.2192  0.7089
  819MOL0     C10472  12.898   6.643   2.655 -0.0184  0.4677  0.6094
  819MOL0     C10473  13.041   6.658   2.713 -0.0376  0.5603 -0.0722
  819MOL0     C10474  13.142   6.673   2.606 -0.0683 -0.3967  0.3627
  819MOL0    Cl10475  13.301   6.696   2.692  0.4347 -0.5571  0.1667
  819MOL0     C10476  12.390   6.158   2.420 -0.2778  0.3742  0.2411
  819MOL0     C10477  12.336   6.054   2.345  0.3779  0.3720 -0.3207
  819MOL0     O10478  11.967   5.993   2.155  0.4033  0.3909  0.4218
  819MOL0     C10479  12.137   5.687   2.133  0.5255  0.3058 -0.1957
  819MOL0     C10480  12.123   5.555   2.084 -0.2363  0.2588 -0.3778
  819MOL0     N10481  11.415   4.997   1.967  0.1464  0.4595  0.3362
  819MOL0     N10482  11.411   4.890   2.036 -0.3016  0.5552  0.2834
  819MOL0     C10483  10.886   4.284   1.775 -0.6585 -0.0807  0.0418
  819MOL0     C10484  10.763   4.234   1.757  0.3561 -0.1813 -0.5890
  819MOL0     C10485  10.352   4.122   1.680 -0.1482 -0.7532  0.6218
  819MOL0     C10486  10.275   4.227   1.727 -0.3330 -0.0712 -1.0578
  819MOL0     C10487  10.148   4.191   1.771 -0.0682 -0.5177 -0.6133
  819MOL0     C10488  10.091   4.068   1.756 -0.9475 -0.0075 -0.3529
  819MOL0     O10489   9.959   4.065   1.796  0.1828  0.4176 -0.0723
  819MOL0     C10490   9.888   3.943   1.797  0.0233 -0.5619  0.4811
  819MOL0     C10491   9.910   3.880   1.929  0.4970  0.7463  0.5019
  819MOL0     C10492   9.814   3.772   1.943 -0.0506  0.3558  0.4395
  819MOL0     C10493   9.876   3.678   2.052 -0.3728 -0.6976  0.0962
  819MOL0     C10494   9.881   3.760   2.171  0.1495  0.9619 -0.4908
  819MOL0     C10495   9.863   3.829   2.273 -0.1127 -0.2739  0.4803
  819MOL0     C10496  10.169   3.961   1.707  0.1112  0.5907 -0.4838
  819MOL0     C10497  10.295   3.990   1.670  0.6707  0.2237  0.6578
  819MOL0     H10498  10.683   4.409   1.477  1.8953  2.1609 -0.4835
  819MOL0     H10499  10.947   4.463   1.515  0.4353 -3.3523 -2.6561
  819MOL0     H10500  11.150   4.318   1.865 -1.6848  1.6661 -1.2772
  819MOL0     H10501  11.149   4.178   1.749 -0.3279 -0.7427 -2.9543
  819MOL0     H10502  11.372   4.236   1.772 -0.9212 -0.4624  0.9778
  819MOL0     H10503  11.332   4.292   1.619 -1.7216  2.8011 -0.2844
  819MOL0     H10504  11.396   4.509   1.673 -0.2848  0.3050  0.5714
  819MOL0     H10505  11.283   4.516   1.802 -1.2299 -1.0187 -0.5592
  819MOL0     H10506  11.445   4.380   1.937 -2.9557  1.7015 -0.1739
  819MOL0     H10507  11.575   4.397   1.814  0.0669 -0.7743  0.8383
  819MOL0     H10508  11.570   4.641   1.818 -1.3726 -0.7469 -1.0857
  819MOL0     H10509  11.438   4.641   1.921 -1.7517 -1.9209 -2.5736
  819MOL0     H10510  11.575   4.501   2.088  0.2344  0.0212 -1.2314
  819MOL0     H10511  11.721   4.505   1.984 -0.1335 -3.4239  1.8001
  819MOL0     H10512  11.755   4.658   2.169 -1.5067  1.4646  1.1963
  819MOL0     H10513  11.748   4.743   2.026  1.0552  2.9500  1.7584
  819MOL0     H10514  11.609   4.807   2.255 -4.1208  1.1507  0.8913
  819MOL0     H10515  11.491   4.706   2.173 -0.1460  0.7374 -4.2633
  819MOL0     H10516  11.727   4.990   2.059  0.8258 -1.2069 -1.0008
  819MOL0     H10517  11.574   5.155   1.795  3.3865 -1.1492  0.3705
  819MOL0     H10518  11.529   5.263   1.933 -0.0961  1.1493 -1.4353
  819MOL0     H10519  11.799   5.128   1.917 -0.6130 -0.1787  2.9649
  819MOL0     H10520  11.743   5.266   2.013 -2.3059  0.8798  0.0942
  819MOL0     H10521  11.742   5.418   1.838 -2.3433 -1.3630 -1.1036
  819MOL0     H10522  11.784   5.289   1.708  2.1809  0.5977 -1.7335
  819MOL0     H10523  11.969   5.427   1.755  2.8447 -1.1145  0.0104
  819MOL0     H10524  12.002   5.262   1.786  3.1037  2.2393 -0.4096
  819MOL0     H10525  11.842   5.584   1.900  1.7181 -2.1570  0.3975
  819MOL0     H10526  11.765   5.875   2.028 -0.3879 -2.7460  0.8092
  819MOL0     H10527  11.881   5.912   1.897  0.5937 -2.7460 -4.1911
  819MOL0     H10528  11.761   5.792   1.868  1.4290  0.8660 -2.2450
  819MOL0     H10529  12.029   6.189   2.281  0.7728 -1.2717 -0.7601
  819MOL0     H10530  12.119   6.360   2.429 -0.8943  0.6813 -2.7046
  819MOL0     H10531  12.466   6.466   2.369  0.5813  0.8190  0.0207
  819MOL0     H10532  12.303   6.523   2.424 -2.0623 -4.5320  0.2899
  819MOL0     H10533  12.494   6.679   2.483  1.9762 -0.5814  0.1545
  819MOL0     H10534  12.415   6.609   2.633 -1.9555 -3.1930  0.2600
  819MOL0     H10535  12.690   6.567   2.515  0.7792  0.6481  0.2372
  819MOL0     H10536  12.605   6.433   2.615  0.4216  0.7348  1.9154
  819MOL0     H10537  12.632   6.731   2.684  0.8311 -0.1018 -0.8897
  819MOL0     H10538  12.588   6.604   2.799 -0.8371  1.9856 -0.3971
  819MOL0     H10539  12.814   6.508   2.803 -1.1329 -1.3779 -1.9690
  819MOL0     H10540  12.820   6.680   2.849  0.2673  0.5369 -0.0323
  819MOL0     H10541  12.888   6.568   2.576 -0.6340  0.3308  0.8168
  819MOL0     H10542  12.868   6.741   2.618 -3.0186 -1.2862 -2.1251
  819MOL0     H10543  13.069   6.582   2.787 -1.0528  1.8131  1.6688
  819MOL0     H10544  13.052   6.749   2.773 -1.5743 -1.1457  3.0707
  819MOL0     H10545  13.116   6.767   2.556  2.5331 -0.7259 -1.8310
  819MOL0     H10546  13.141   6.584   2.543 -0.2082  0.8719 -1.4905
  819MOL0     H10547  12.485   6.152   2.472 -1.2174 -0.9701  1.8963
  819MOL0     H10548  12.390   5.961   2.326  2.8620  1.0770  2.5438
  819MOL0     H10549  12.226   5.709   2.193  0.7742 -2.9647  0.8106
  819MOL0     H10550  12.179   5.474   2.130 -0.0337  0.7682  0.2970
  819MOL0     H10551  10.922   4.268   1.876 -0.6136 -3.6981 -0.4226
  819MOL0     H10552  10.709   4.181   1.835  1.3220  0.9633  0.8987
  819MOL0     H10553  10.318   4.327   1.720  1.3531 -0.8570 -3.2603
  819MOL0     H10554  10.085   4.273   1.804 -2.4996 -3.5013  2.9447
  819MOL0     H10555   9.781   3.961   1.788 -0.1068 -2.3032 -2.3696
  819MOL0     H10556   9.910   3.878   1.712 -0.1833  2.7907 -2.3554
  819MOL0     H10557   9.899   3.955   2.008 -0.9858 -1.4599  2.5362
  819MOL0     H10558  10.012   3.841   1.925  0.0942 -0.3355  0.2145
  819MOL0     H10559   9.795   3.720   1.849 -0.4046  0.5216  0.4181
  819MOL0     H10560   9.717   3.810   1.976 -1.2136 -0.7648 -1.5069
  819MOL0     H10561   9.980   3.647   2.038 -0.3321 -0.4780 -0.1050
  819MOL0     H10562   9.817   3.586   2.057 -0.8153 -0.5268 -1.3736
  819MOL0     H10563   9.847   3.894   2.357  1.5043  2.4504 -1.1745
  819MOL0     H10564  10.116   3.866   1.701 -1.0957  1.0465  1.8379
  819MOL0     H10565  10.354   3.906   1.636  0.4480 -1.9046  4.8845
  820MOL0     O10566   9.120  10.292   7.762 -0.0902 -0.2779  0.1961
  820MOL0     C10567   9.098  10.398   7.696 -0.0094 -0.1404  0.0741
  820MOL0     O10568   8.977  10.459   7.686  0.7989  0.1533  0.3204
  820MOL0     C10569   8.860  10.408   7.741 -0.5423  0.3562 -0.2123
  820MOL0     C10570   8.847  10.361   7.876 -0.2486 -0.4599  0.0432
  820MOL0     C10571   8.713  10.322   7.912 -0.3513 -0.8185 -0.8488
  820MOL0     C10572   8.608  10.328   7.818  0.3818 -0.3532  0.7442
  820MOL0     O10573   8.479  10.294   7.862 -0.0797  0.7690 -0.6612
  820MOL0     C10574   8.466  10.206   7.977  0.1563 -1.1558  0.5333
  820MOL0     C10575   8.336  10.142   7.989  0.3666 -0.0250 -0.5764
  820MOL0     C10576   8.308  10.049   7.877 -0.4770 -0.3484 -0.6830
  820MOL0     C10577   8.212  10.104   7.764  0.1553  0.3992 -0.7286
  820MOL0     C10578   8.172   9.999   7.664 -0.4785 -0.4129 -0.9686
  820MOL0     C10579   8.141   9.863   7.726  0.3534  0.3580 -0.0292
  820MOL0     C10580   8.027   9.786   7.647 -0.6371  0.2716  0.1069
  820MOL0     C10581   7.898   9.873   7.651  0.5238  0.0744  0.5993
  820MOL0     N10582   7.787   9.792   7.660  0.4461  1.3180  0.3839
  820MOL0     C10583   7.719   9.721   7.546  0.7217 -0.1307 -0.8200
  820MOL0     C10584   7.612   9.670   7.615 -0.2095  0.7719 -0.2023
  820MOL0     C10585   7.496   9.583   7.564  0.4261  0.3000  0.7600
  820MOL0     C10586   7.523   9.514   7.426 -0.3182 -0.0837 -0.3966
  820MOL0     C10587   7.413   9.413   7.374  0.2605  0.6959 -0.2539
  820MOL0     C10588   7.390   9.282   7.460  0.5281 -0.5524 -0.2034
  820MOL0     O10589   7.261   9.225   7.443  0.4212 -0.1762 -0.5656
  820MOL0     C10590   7.158   9.278   7.512 -0.0265  0.1494 -0.3868
  820MOL0     C10591   7.045   9.203   7.486  0.2640 -0.5620 -0.5426
  820MOL0     C10592   6.930   9.231   7.563 -0.2118  0.0698 -0.0154
  820MOL0     C10593   6.806   9.154   7.528  0.5454  0.9545  0.0036
  820MOL0     C10594   6.935   9.335   7.662  0.1336 -0.4926  0.4842
  820MOL0     C10595   6.813   9.383   7.739 -1.0160 -0.6011  0.6371
  820MOL0     O10596   6.812   9.507   7.793  0.0623 -0.3764  0.5561
  820MOL0     C10597   6.708   9.564   7.860 -0.3645 -0.0250  0.3370
  820MOL0     C10598   6.729   9.585   7.994 -0.5740  0.6661 -0.1767
  820MOL0     C10599   6.627   9.624   8.078 -0.2424 -0.7389 -0.5251
  820MOL0     C10600   6.506   9.654   8.026  1.2837  0.3839 -0.2370
  820MOL0     O10601   6.410   9.722   8.100 -0.0884 -0.4933 -0.5780
  820MOL0     C10602   6.421   9.727   8.242 -0.1126 -0.0418  0.4918
  820MOL0     C10603   6.515   9.849   8.277  0.0062  0.3355 -0.0862
  820MOL0     C10604   6.448   9.989   8.264 -0.0368 -1.0563  0.1505
  820MOL0     C10605   6.528  10.108   8.335 -0.9048 -0.2602  0.4282
  820MOL0     C10606   6.542  10.105   8.483  0.3545 -0.0877  0.2848
  820MOL0     C10607   6.572  10.237   8.558 -0.2714  0.1457 -0.1840
  820MOL0     C10608   6.588  10.212   8.712 -0.4354 -0.0323  0.3867
  820MOL0     C10609   6.582  10.348   8.792 -0.2079  0.4283 -0.9606
  820MOL0    Cl10610   6.663  10.332   8.943  0.1249  0.2485 -0.1317
  820MOL0     C10611   6.480   9.633   7.896 -0.4961  1.2435 -0.0796
  820MOL0     C10612   6.579   9.580   7.810 -0.1271  0.2406  0.6001
  820MOL0     O10613   6.726   9.303   7.755 -0.2147 -0.4853  0.6523
  820MOL0     C10614   7.043   9.422   7.661 -0.1285  0.1656  0.1064
  820MOL0     C10615   7.156   9.389   7.593 -0.4485  0.6162  0.2608
  820MOL0     N10616   7.630   9.682   7.752 -0.5390 -0.0489  0.1502
  820MOL0     N10617   7.726   9.759   7.775 -0.1103 -0.5162  0.1422
  820MOL0     C10618   8.631  10.361   7.684 -0.4775 -0.6255 -0.5142
  820MOL0     C10619   8.758  10.402   7.653 -0.4649  0.0875  0.3755
  820MOL0     C10620   9.212  10.458   7.606  0.2179  0.2348 -0.5192
  820MOL0     C10621   9.191  10.573   7.519 -0.1886  0.0746 -0.6431
  820MOL0     C10622   9.295  10.634   7.442  0.3518  0.4148  0.2391
  820MOL0     C10623   9.415  10.574   7.456  0.0139  0.2714 -0.2032
  820MOL0     O10624   9.516  10.614   7.372  0.4550 -0.0792 -0.0915
  820MOL0     C10625   9.516  10.738   7.300  0.9203  0.1041  0.2360
  820MOL0     C10626   9.655  10.753   7.253 -0.6796  0.2732  0.4262
  820MOL0     C10627   9.659  10.869   7.145 -0.1488  0.0968 -0.2908
  820MOL0     C10628   9.622  11.015   7.195 -0.8068 -0.0583 -0.0765
  820MOL0     C10629   9.616  11.110   7.083 -0.5865  0.3325 -0.0820
  820MOL0     C10630   9.622  11.183   6.987  0.2426  0.0618  0.2120
  820MOL0     C10631   9.440  10.457   7.526  1.0131 -0.9039  0.2327
  820MOL0     C10632   9.334  10.396   7.595 -0.1794  0.1188  0.6277
  820MOL0     H10633   8.926  10.355   7.950  2.9543 -4.5392 -3.2434
  820MOL0     H10634   8.689  10.314   8.018  0.3190  0.5533 -0.5726
  820MOL0     H10635   8.541  10.126   7.975  0.2673 -1.0362 -0.4696
  820MOL0     H10636   8.482  10.270   8.064  0.2719  3.6576 -2.6535
  820MOL0     H10637   8.324  10.090   8.084 -0.7556  0.3614 -0.4910
  820MOL0     H10638   8.261  10.221   7.979 -0.1447 -0.7664 -5.4999
  820MOL0     H10639   8.403  10.018   7.831  0.6467  1.5274  0.2608
  820MOL0     H10640   8.274   9.957   7.925  5.2047 -1.2695  2.5153
  820MOL0     H10641   8.119  10.137   7.810  0.6269 -0.6377  1.0926
  820MOL0     H10642   8.256  10.184   7.704 -4.6382  3.2700 -0.9146
  820MOL0     H10643   8.087  10.050   7.618 -0.1175  0.7556 -0.3801
  820MOL0     H10644   8.253   9.988   7.591 -0.5789 -2.0773 -0.8743
  820MOL0     H10645   8.235   9.807   7.734  0.8020  0.8847 -1.3096
  820MOL0     H10646   8.105   9.871   7.829  0.3287  0.2164 -0.0268
  820MOL0     H10647   8.060   9.767   7.544 -1.4967 -0.6395 -0.0130
  820MOL0     H10648   8.008   9.691   7.696 -1.2741  1.9628  3.4086
  820MOL0     H10649   7.887   9.930   7.559  1.6825 -1.9648 -0.8849
  820MOL0     H10650   7.898   9.948   7.731 -0.6850  0.0341  0.6550
  820MOL0     H10651   7.738   9.724   7.439 -0.1194 -0.2664 -0.9846
  820MOL0     H10652   7.475   9.505   7.637 -2.5947  1.4489  1.3010
  820MOL0     H10653   7.409   9.650   7.562 -1.5997 -1.8014  5.1481
  820MOL0     H10654   7.618   9.460   7.438 -1.3323 -2.3770 -1.9831
  820MOL0     H10655   7.525   9.596   7.354 -2.1249  1.1228  0.8383
  820MOL0     H10656   7.445   9.370   7.278 -0.4946  0.2693 -0.3184
  820MOL0     H10657   7.317   9.466   7.368 -3.4509 -5.2083 -1.6881
  820MOL0     H10658   7.418   9.307   7.562 -1.2168  0.2616  0.1122
  820MOL0     H10659   7.460   9.209   7.418 -1.4618 -2.3089 -0.6730
  820MOL0     H10660   7.065   9.118   7.421  1.6274  0.0818 -1.0351
  820MOL0     H10661   6.714   9.207   7.506 -2.0923 -3.2543 -0.2912
  820MOL0     H10662   6.833   9.085   7.447  0.4273  0.9530 -0.0329
  820MOL0     H10663   6.780   9.088   7.611 -1.7724 -0.3031 -1.6184
  820MOL0     H10664   6.822   9.552   8.039 -0.4943  0.4675 -0.4891
  820MOL0     H10665   6.663   9.636   8.179 -0.0643  0.0124 -0.6760
  820MOL0     H10666   6.325   9.749   8.290 -0.4124  1.0861 -0.5682
  820MOL0     H10667   6.451   9.628   8.278 -0.0577 -0.3982 -0.5120
  820MOL0     H10668   6.534   9.833   8.383 -0.2737  2.5978  0.3754
  820MOL0     H10669   6.607   9.839   8.218 -1.9553 -2.3611 -2.9820
  820MOL0     H10670   6.351   9.989   8.314  0.4511 -0.4050  1.1294
  820MOL0     H10671   6.428  10.006   8.157  1.4099 -0.2115 -0.0147
  820MOL0     H10672   6.628  10.126   8.295 -0.7212  0.5328  1.2138
  820MOL0     H10673   6.467  10.197   8.319 -1.3794  0.0582  3.4484
  820MOL0     H10674   6.628  10.047   8.517 -0.6737 -0.9908  1.4128
  820MOL0     H10675   6.445  10.066   8.516 -0.2458 -0.6392 -1.9552
  820MOL0     H10676   6.654  10.295   8.516 -0.9620  2.5550  1.6023
  820MOL0     H10677   6.495  10.314   8.545  0.3239  0.2448 -4.9808
  820MOL0     H10678   6.690  10.176   8.730 -0.5954 -1.7930 -1.8639
  820MOL0     H10679   6.513  10.139   8.743 -0.5106 -1.3712 -2.6692
  820MOL0     H10680   6.473  10.360   8.804  0.3399  4.7097  2.0323
  820MOL0     H10681   6.620  10.429   8.731  1.3713 -0.3535 -1.0565
  820MOL0     H10682   6.385   9.654   7.848 -0.4639  2.4858  0.3862
  820MOL0     H10683   6.563   9.568   7.703  4.0753  1.4409 -0.3741
  820MOL0     H10684   7.038   9.505   7.731  1.8776 -0.6347  1.2611
  820MOL0     H10685   7.242   9.456   7.588  0.6107 -0.7649 -1.1015
  820MOL0     H10686   8.552  10.382   7.612 -1.4235 -0.9046  0.4083
  820MOL0     H10687   8.773  10.445   7.555 -2.3733  3.0474  1.2310
  820MOL0     H10688   9.091  10.611   7.505  0.7939  2.2602 -2.3837
  820MOL0     H10689   9.263  10.713   7.375 -2.4236 -0.2671  0.6155
  820MOL0     H10690   9.448  10.730   7.215  1.1170  1.9709 -0.1372
  820MOL0     H10691   9.477  10.822   7.357  1.5157 -1.8547  3.8646
  820MOL0     H10692   9.670  10.660   7.197 -0.1440  1.1682 -0.9630
  820MOL0     H10693   9.723  10.761   7.338  0.3892  2.3173 -0.5401
  820MOL0     H10694   9.587  10.837   7.069 -2.5299  2.3299  0.8816
  820MOL0     H10695   9.763  10.886   7.115 -0.0467  2.6840  1.2230
  820MOL0     H10696   9.699  11.041   7.268 -0.0798  1.6680 -1.3878
  820MOL0     H10697   9.528  11.014   7.251  0.2150  1.1686  1.7714
  820MOL0     H10698   9.598  11.248   6.905  2.5985  0.7074 -0.0388
  820MOL0     H10699   9.541  10.417   7.530  1.5318  0.1499 -1.1806
  820MOL0     H10700   9.357  10.307   7.652  1.5045  1.1704  1.6904
  821MOL0     O10701   9.882   0.235   7.798 -0.0194  0.2172 -0.5640
  821MOL0     C10702   9.966   0.148   7.797 -0.5966 -0.2611 -0.6999
  821MOL0     O10703   9.948   0.016   7.762  0.0283 -0.6553  0.4190
  821MOL0     C10704   9.838  -0.035   7.690 -0.0761  1.9321  0.3611
  821MOL0     C10705   9.773   0.038   7.591  0.1964  0.4076 -0.3313
  821MOL0     C10706   9.675  -0.022   7.506 -0.2893  0.0712 -0.6308
  821MOL0     C10707   9.648  -0.158   7.499  0.5326  0.1028 -0.7980
  821MOL0     O10708   9.549  -0.222   7.425  0.4378 -1.0193 -0.2753
  821MOL0     C10709   9.436  -0.142   7.380 -0.0020  0.3996  0.1184
  821MOL0     C10710   9.301  -0.203   7.417 -0.5943 -0.0058 -0.1633
  821MOL0     C10711   9.191  -0.102   7.367 -1.0624 -0.2808 -0.4328
  821MOL0     C10712   9.065  -0.171   7.335  0.0139  1.1576 -0.6415
  821MOL0     C10713   8.953  -0.073   7.290 -0.2508  0.5246 -1.2164
  821MOL0     C10714   8.833  -0.151   7.235  0.2285  0.0523  0.5085
  821MOL0     C10715   8.854  -0.224   7.104 -0.1468  0.3833  0.1342
  821MOL0     C10716   8.731  -0.213   7.010  0.7101 -0.0664  0.4982
  821MOL0     N10717   8.593  -0.267   7.047  0.2960 -0.0467 -0.1005
  821MOL0     C10718   8.576  -0.403   7.053 -0.1648 -0.6055 -0.5741
  821MOL0     C10719   8.439  -0.406   7.071 -0.1854 -0.2283  0.7313
  821MOL0     C10720   8.365  -0.541   7.099  0.4142  0.4803 -0.7596
  821MOL0     C10721   8.302  -0.593   6.975  0.4284 -0.5848  0.8783
  821MOL0     C10722   8.301  -0.745   6.964  0.5487  0.2511  0.6367
  821MOL0     C10723   8.244  -0.793   6.832 -1.2908  0.0297 -0.2455
  821MOL0     O10724   8.103  -0.782   6.848 -0.3860 -0.9952 -0.0402
  821MOL0     C10725   8.020  -0.830   6.742 -0.1512 -0.2673  0.0696
  821MOL0     C10726   7.890  -0.780   6.723 -1.0677 -1.2089  0.3751
  821MOL0     C10727   7.797  -0.834   6.644 -0.2536  0.1644 -0.7847
  821MOL0     C10728   7.657  -0.782   6.635 -0.0154 -0.8198 -0.0639
  821MOL0     C10729   7.844  -0.941   6.556  0.2043  0.1248 -0.3157
  821MOL0     C10730   7.763  -0.989   6.441 -0.2427 -0.0372  0.1899
  821MOL0     O10731   7.708  -0.901   6.359  0.1791 -0.2792 -0.1042
  821MOL0     C10732   7.606  -0.951   6.284 -0.7166 -0.4071  0.0868
  821MOL0     C10733   7.643  -0.990   6.152 -0.7520  0.3310 -0.1215
  821MOL0     C10734   7.546  -1.008   6.054 -0.3758 -0.2606 -0.3829
  821MOL0     C10735   7.410  -0.991   6.084 -0.7500 -0.1356  0.1028
  821MOL0     O10736   7.324  -1.022   5.980  0.4237  0.7688  0.1017
  821MOL0     C10737   7.190  -1.072   6.012 -0.1480 -0.1350  0.9020
  821MOL0     C10738   7.115  -1.076   5.881 -0.8112 -0.3585  0.0008
  821MOL0     C10739   6.967  -1.101   5.898 -0.2491  0.0682  0.3138
  821MOL0     C10740   6.957  -1.240   5.977  0.0601  0.0214  0.7915
  821MOL0     C10741   6.821  -1.307   5.965 -0.3406  0.2420 -0.3601
  821MOL0     C10742   6.818  -1.441   6.040  0.1449 -0.3018 -0.8192
  821MOL0     C10743   6.689  -1.521   6.021  1.0937  0.4212 -0.1429
  821MOL0     C10744   6.560  -1.454   6.059 -0.7351 -0.9157  0.6057
  821MOL0    Cl10745   6.432  -1.570   6.078  0.2937  0.6056 -0.2010
  821MOL0     C10746   7.372  -0.967   6.216 -0.6230  0.0660  0.9570
  821MOL0     C10747   7.472  -0.944   6.315 -0.1653  1.4423 -0.4847
  821MOL0     O10748   7.760  -1.114   6.422 -0.0324 -0.1801 -0.9678
  821MOL0     C10749   7.969  -0.994   6.571  1.1128  0.3797 -0.3350
  821MOL0     C10750   8.054  -0.946   6.672  0.1909 -1.1428  0.0945
  821MOL0     N10751   8.383  -0.280   7.085  0.0641  0.8314 -0.0913
  821MOL0     N10752   8.475  -0.197   7.054  0.3173  0.1810  0.3877
  821MOL0     C10753   9.715  -0.235   7.599 -0.4164  0.2727  1.2672
  821MOL0     C10754   9.807  -0.177   7.689  1.2027 -1.2281 -0.3169
  821MOL0     C10755  10.109   0.192   7.821 -0.0267  1.3315 -0.7091
  821MOL0     C10756  10.220   0.115   7.785 -0.6851  0.1077  0.3755
  821MOL0     C10757  10.353   0.149   7.812  0.3248 -0.9628  0.7907
  821MOL0     C10758  10.375   0.262   7.882  0.5103 -0.8262 -0.0597
  821MOL0     O10759  10.510   0.286   7.905 -0.0850 -0.6119 -0.0994
  821MOL0     C10760  10.557   0.422   7.927  0.2483 -0.3152  0.6902
  821MOL0     C10761  10.698   0.423   7.993 -0.3224  0.0798  0.1925
  821MOL0     C10762  10.780   0.546   7.951  0.2751  0.4090 -0.0428
  821MOL0     C10763  10.730   0.681   8.002 -0.1352  0.3501  0.5761
  821MOL0     C10764  10.617   0.716   7.921  0.2672 -0.6832 -0.0747
  821MOL0     C10765  10.524   0.737   7.852 -0.3849  1.0535  0.6920
  821MOL0     C10766  10.273   0.346   7.923  0.5801  0.2769 -0.2687
  821MOL0     C10767  10.139   0.310   7.888  0.3454 -0.5950 -0.0629
  821MOL0     H10768   9.796   0.144   7.582 -0.3820  0.4847 -0.9589
  821MOL0     H10769   9.626   0.049   7.440 -0.8269  1.3661  1.0746
  821MOL0     H10770   9.437  -0.045   7.431  0.5133  0.4705 -0.0207
  821MOL0     H10771   9.451  -0.117   7.275  1.3324  1.3407  0.5011
  821MOL0     H10772   9.290  -0.294   7.358  1.6006  1.4977 -3.2101
  821MOL0     H10773   9.282  -0.230   7.521 -0.3686 -1.8457 -0.5728
  821MOL0     H10774   9.180  -0.020   7.439  0.0690 -1.4692  1.1811
  821MOL0     H10775   9.241  -0.058   7.281  1.4847 -1.6873  0.2032
  821MOL0     H10776   9.072  -0.247   7.257 -0.4338 -1.2548  1.5321
  821MOL0     H10777   9.030  -0.224   7.424 -1.7069  1.7144 -0.9476
  821MOL0     H10778   8.918  -0.002   7.365 -1.1925  0.5914 -1.6984
  821MOL0     H10779   9.000  -0.018   7.208  1.5791 -0.3563 -0.8081
  821MOL0     H10780   8.797  -0.216   7.315 -1.2359  1.2585  0.8706
  821MOL0     H10781   8.753  -0.078   7.222 -1.1046 -1.3945  0.2730
  821MOL0     H10782   8.934  -0.173   7.050 -0.6500  0.1718 -0.8343
  821MOL0     H10783   8.881  -0.329   7.118 -0.0431  0.5313  1.1809
  821MOL0     H10784   8.776  -0.246   6.915  3.2101  1.4233  1.0533
  821MOL0     H10785   8.709  -0.107   6.991 -0.0072 -0.1308  0.9489
  821MOL0     H10786   8.651  -0.481   7.056  0.0122 -0.4137  0.2802
  821MOL0     H10787   8.444  -0.613   7.124 -0.8868 -0.4127  1.0192
  821MOL0     H10788   8.296  -0.531   7.183 -1.2533  0.9213 -2.1352
  821MOL0     H10789   8.356  -0.544   6.894  1.7501  4.5907  4.4059
  821MOL0     H10790   8.202  -0.547   6.978  1.5566  2.0039  1.0041
  821MOL0     H10791   8.253  -0.789   7.052 -2.8539  1.3499 -0.5489
  821MOL0     H10792   8.408  -0.768   6.953 -0.1819 -2.0266 -4.4688
  821MOL0     H10793   8.275  -0.897   6.814 -0.9097  0.1419 -0.2512
  821MOL0     H10794   8.293  -0.747   6.745  0.6980 -2.7461 -0.7472
  821MOL0     H10795   7.860  -0.694   6.782  1.6610  1.4740 -1.7905
  821MOL0     H10796   7.584  -0.854   6.672  1.2135 -1.5050  1.1297
  821MOL0     H10797   7.646  -0.710   6.716 -0.4991 -1.1005  0.1224
  821MOL0     H10798   7.638  -0.739   6.536 -1.4594 -2.3056 -0.4793
  821MOL0     H10799   7.748  -0.996   6.123 -0.1045  2.8851  1.3600
  821MOL0     H10800   7.574  -1.052   5.959 -0.0171  3.2526 -2.0311
  821MOL0     H10801   7.196  -1.170   6.060  2.2110 -0.5948 -0.2114
  821MOL0     H10802   7.137  -1.012   6.086  0.2621  0.2396  0.8962
  821MOL0     H10803   7.126  -0.976   5.838 -2.5265  0.9528  2.3718
  821MOL0     H10804   7.159  -1.143   5.807 -1.6087  0.4880 -1.2664
  821MOL0     H10805   6.912  -1.093   5.804  1.3672 -1.2686 -0.7899
  821MOL0     H10806   6.918  -1.030   5.966  0.2471 -0.8011  1.6335
  821MOL0     H10807   7.034  -1.305   5.936 -0.2873  1.0106 -1.5986
  821MOL0     H10808   6.986  -1.238   6.082 -0.8966 -3.1229  1.1975
  821MOL0     H10809   6.795  -1.303   5.859 -0.0711  0.4583 -0.4206
  821MOL0     H10810   6.741  -1.246   6.008 -0.3097  0.4398 -0.5847
  821MOL0     H10811   6.894  -1.511   6.005 -0.1637 -0.3862 -1.3329
  821MOL0     H10812   6.823  -1.421   6.147 -3.2032  0.0167 -0.6151
  821MOL0     H10813   6.696  -1.606   6.090  0.5910  2.1974  2.2181
  821MOL0     H10814   6.679  -1.549   5.916  0.4224  2.8770 -0.8103
  821MOL0     H10815   6.526  -1.382   5.984 -0.5041 -2.1741 -0.7494
  821MOL0     H10816   6.579  -1.408   6.156 -0.5742  0.5966 -0.1154
  821MOL0     H10817   7.266  -0.953   6.237 -1.1337  0.5800 -1.5873
  821MOL0     H10818   7.445  -0.918   6.417  1.6621 -0.2680  0.4951
  821MOL0     H10819   8.003  -1.077   6.511  1.5704 -0.4062  0.9602
  821MOL0     H10820   8.153  -0.988   6.688 -0.1257 -1.9916 -0.0934
  821MOL0     H10821   9.686  -0.339   7.608  3.0216 -0.7850  1.6667
  821MOL0     H10822   9.854  -0.246   7.759  1.2730  0.9682  1.9412
  821MOL0     H10823  10.209   0.010   7.757 -1.8337  0.1125  0.7946
  821MOL0     H10824  10.439   0.087   7.790  1.3554  0.6448  0.1500
  821MOL0     H10825  10.574   0.460   7.826  0.5248  1.5746  1.4133
  821MOL0     H10826  10.482   0.490   7.967 -1.6907 -1.3191 -1.0311
  821MOL0     H10827  10.764   0.337   7.978  0.8703  0.9319  0.4859
  821MOL0     H10828  10.665   0.431   8.097 -0.7945  1.8202 -0.0648
  821MOL0     H10829  10.816   0.543   7.848 -1.1021 -0.4063 -0.5322
  821MOL0     H10830  10.871   0.524   8.007  0.1810 -2.3146 -0.8304
  821MOL0     H10831  10.807   0.757   7.983  0.4784 -0.2146  0.7509
  821MOL0     H10832  10.704   0.681   8.108 -1.3519 -0.6253  0.3010
  821MOL0     H10833  10.457   0.758   7.772  1.3042  1.0794 -0.7742
  821MOL0     H10834  10.300   0.434   7.980  3.4741 -1.3757  1.1776
  821MOL0     H10835  10.051   0.357   7.931  0.5663  2.2952 -2.4468
  822MOL0     O10836   8.497   6.358   8.807 -0.4751 -0.4795 -0.4461
  822MOL0     C10837   8.437   6.255   8.776  0.1423 -0.9391 -0.1254
  822MOL0     O10838   8.302   6.236   8.772  0.0717 -0.2706  0.8005
  822MOL0     C10839   8.213   6.339   8.807  0.0908 -0.2647  1.2960
  822MOL0     C10840   8.180   6.368   8.936  0.1924 -0.1828  0.3462
  822MOL0     C10841   8.077   6.456   8.973 -0.1292 -0.4305 -0.2650
  822MOL0     C10842   8.003   6.519   8.876 -0.8949 -0.2318 -0.8171
  822MOL0     O10843   7.906   6.610   8.910 -0.4185 -0.2468  0.8852
  822MOL0     C10844   7.805   6.664   8.824  1.2830  0.1908 -0.5252
  822MOL0     C10845   7.845   6.807   8.784  1.3338  0.9321  0.7220
  822MOL0     C10846   7.726   6.876   8.722 -0.1705 -0.4138  0.3306
  822MOL0     C10847   7.679   6.813   8.587  0.7051  0.0200  0.2487
  822MOL0     C10848   7.788   6.781   8.483 -0.4176  0.6623 -0.8650
  822MOL0     C10849   7.734   6.756   8.343  0.6360 -0.3550 -0.1475
  822MOL0     C10850   7.832   6.674   8.257  0.6635 -0.5165 -0.3446
  822MOL0     C10851   7.831   6.522   8.296  0.2133 -0.5897 -0.2584
  822MOL0     N10852   7.936   6.457   8.229  0.0852 -0.0848 -0.7215
  822MOL0     C10853   7.908   6.392   8.111  0.4759 -0.7393  0.6891
  822MOL0     C10854   8.011   6.303   8.098 -0.1553 -0.8187 -0.4360
  822MOL0     C10855   8.007   6.194   7.995 -0.1221 -0.0564  0.3409
  822MOL0     C10856   8.016   6.056   8.060 -0.2503 -0.0673  0.0045
  822MOL0     C10857   7.899   6.039   8.160  0.3190 -1.0416  0.1328
  822MOL0     C10858   7.856   5.888   8.169  0.0103  0.0764 -0.2144
  822MOL0     O10859   7.717   5.874   8.146 -0.3199  0.0045 -0.2703
  822MOL0     C10860   7.626   5.911   8.238 -0.3774 -0.1791 -0.1610
  822MOL0     C10861   7.651   5.905   8.378  0.3646  0.2143 -0.5570
  822MOL0     C10862   7.549   5.953   8.466  0.5120 -0.6047 -0.3889
  822MOL0     C10863   7.571   5.930   8.610 -0.4949  0.5655  0.0096
  822MOL0     C10864   7.428   6.013   8.414 -0.2049  0.1060 -0.0341
  822MOL0     C10865   7.311   6.060   8.489 -0.6283 -1.3461 -0.8908
  822MOL0     O10866   7.314   6.034   8.628 -0.8616 -0.0143  0.3778
  822MOL0     C10867   7.217   6.094   8.706 -0.2374 -0.7039 -0.2998
  822MOL0     C10868   7.083   6.046   8.701  0.3385 -0.1283 -0.2460
  822MOL0     C10869   6.976   6.125   8.743 -0.1736  0.5513 -0.0865
  822MOL0     C10870   6.997   6.246   8.815  0.8789  0.1179 -0.3855
  822MOL0     O10871   6.897   6.331   8.853  0.0802 -0.4763  0.5419
  822MOL0     C10872   6.846   6.421   8.760  0.7534  0.4749  0.3586
  822MOL0     C10873   6.792   6.539   8.834  0.0830  0.4214 -0.1112
  822MOL0     C10874   6.870   6.590   8.954 -0.4214  0.5495  0.0792
  822MOL0     C10875   7.000   6.657   8.918  0.0644  0.8143 -0.4726
  822MOL0     C10876   7.107   6.676   9.023  0.0086 -0.1438  0.2361
  822MOL0     C10877   7.057   6.702   9.164 -0.9802  0.9023 -0.1045
  822MOL0     C10878   6.956   6.817   9.187 -0.1255 -0.2934 -0.8287
  822MOL0     C10879   7.033   6.948   9.231 -0.7878  0.1382 -0.4544
  822MOL0    Cl10880   6.942   7.095   9.224  0.4440  0.1993 -0.3267
  822MOL0     C10881   7.126   6.281   8.837 -0.6333 -0.2715 -0.4332
  822MOL0     C10882   7.236   6.209   8.782  0.0105 -0.1850  0.2006
  822MOL0     O10883   7.232   6.128   8.430 -0.5124  0.2553  0.3357
  822MOL0     C10884   7.413   6.018   8.275 -0.1444 -0.9056  0.0260
  822MOL0     C10885   7.510   5.969   8.197 -0.8890  1.0041  0.9974
  822MOL0     N10886   8.101   6.324   8.206  0.4909  0.3257  0.7130
  822MOL0     N10887   8.045   6.411   8.288 -0.2420  0.0418 -0.7496
  822MOL0     C10888   8.038   6.491   8.742  0.5257 -0.7287  0.6643
  822MOL0     C10889   8.136   6.398   8.709 -0.0023  0.4375 -0.3076
  822MOL0     C10890   8.527   6.139   8.762 -0.2241  0.7819  1.1474
  822MOL0     C10891   8.479   6.022   8.702 -0.5151  0.2510  0.1164
  822MOL0     C10892   8.559   5.916   8.670 -0.3014  0.0765  0.4376
  822MOL0     C10893   8.695   5.911   8.703 -0.7522  0.4101  0.0880
  822MOL0     O10894   8.769   5.792   8.674  0.6104  0.1436  1.1056
  822MOL0     C10895   8.910   5.796   8.706  0.8042  0.7976 -0.2188
  822MOL0     C10896   8.992   5.871   8.598 -0.7607 -0.0528 -0.0510
  822MOL0     C10897   9.136   5.866   8.638 -0.4432 -0.3959  0.6890
  822MOL0     C10898   9.170   5.954   8.762  0.3822 -0.4643  0.1746
  822MOL0     C10899   9.315   5.945   8.771 -0.2771  0.2766 -0.3653
  822MOL0     C10900   9.436   5.941   8.761 -0.9520 -0.4884  1.1557
  822MOL0     C10901   8.743   6.028   8.771 -0.4287  0.3234  0.2108
  822MOL0     C10902   8.662   6.136   8.799 -0.7370 -0.0073 -0.1022
  822MOL0     H10903   8.242   6.317   9.009 -2.4737  0.9964  3.6863
  822MOL0     H10904   8.055   6.474   9.078 -0.6074  0.1494 -0.4587
  822MOL0     H10905   7.783   6.610   8.732  0.8711  0.9438 -0.8765
  822MOL0     H10906   7.718   6.673   8.890  1.4704  0.5843 -0.3259
  822MOL0     H10907   7.875   6.861   8.875 -0.1382  0.2363  1.6366
  822MOL0     H10908   7.939   6.813   8.728  2.7659  1.1240  3.0059
  822MOL0     H10909   7.645   6.876   8.795 -3.0834 -2.8104 -2.5570
  822MOL0     H10910   7.751   6.979   8.698  0.6074 -1.0982 -2.1537
  822MOL0     H10911   7.631   6.719   8.615  0.4757  0.0981  0.1265
  822MOL0     H10912   7.609   6.882   8.538 -1.0488 -1.1776  0.9878
  822MOL0     H10913   7.854   6.867   8.470  0.1287 -0.1084 -3.9581
  822MOL0     H10914   7.855   6.700   8.511 -1.6724 -1.4840 -3.6442
  822MOL0     H10915   7.636   6.709   8.350  0.2292 -0.0117 -2.6503
  822MOL0     H10916   7.719   6.854   8.298  3.8452  0.9174  1.2759
  822MOL0     H10917   7.802   6.693   8.153 -1.9105  0.0858  0.4415
  822MOL0     H10918   7.930   6.722   8.266 -0.7873  2.4604  1.2504
  822MOL0     H10919   7.730   6.489   8.270  0.0889  0.5250 -1.2759
  822MOL0     H10920   7.836   6.518   8.405  1.2852  0.6887 -0.2389
  822MOL0     H10921   7.820   6.401   8.047  1.8573  1.9010 -0.9978
  822MOL0     H10922   7.915   6.207   7.937 -0.3399 -0.7853  0.5123
  822MOL0     H10923   8.094   6.209   7.930 -0.7979 -0.4102 -0.6752
  822MOL0     H10924   8.110   6.046   8.115 -2.4041 -2.3842  3.6904
  822MOL0     H10925   8.010   5.980   7.981  1.7280 -0.1133 -0.1351
  822MOL0     H10926   7.801   6.079   8.132 -0.2975 -0.7864  2.4589
  822MOL0     H10927   7.926   6.085   8.255 -0.1871  2.0171 -1.0872
  822MOL0     H10928   7.898   5.842   8.259  3.0358 -2.0010 -2.4561
  822MOL0     H10929   7.905   5.828   8.091 -0.5549 -2.4882  1.3039
  822MOL0     H10930   7.742   5.864   8.420 -0.8657  0.8673  3.0816
  822MOL0     H10931   7.672   5.897   8.635 -0.2970  0.4273 -0.9142
  822MOL0     H10932   7.557   6.024   8.665 -0.8068  0.3461  0.3010
  822MOL0     H10933   7.495   5.860   8.644 -1.2139  0.3149 -1.9866
  822MOL0     H10934   7.055   5.952   8.655 -5.6481 -0.7448  3.5025
  822MOL0     H10935   6.873   6.101   8.722  0.2811  0.2539 -2.2366
  822MOL0     H10936   6.928   6.454   8.695  1.7379  0.9681  1.7956
  822MOL0     H10937   6.766   6.383   8.697 -0.6527  1.6579  1.3556
  822MOL0     H10938   6.772   6.612   8.755  1.2603 -1.8530 -2.6625
  822MOL0     H10939   6.696   6.513   8.880 -0.1933  1.5677  0.0046
  822MOL0     H10940   6.884   6.511   9.028 -0.0175  1.2764  0.7906
  822MOL0     H10941   6.802   6.666   8.993  3.1335  2.7323  2.7395
  822MOL0     H10942   7.049   6.600   8.839  0.7500  3.5828 -2.2132
  822MOL0     H10943   6.966   6.754   8.879  1.0069  1.7923  1.0717
  822MOL0     H10944   7.175   6.754   8.988  0.8239 -1.1335 -0.4792
  822MOL0     H10945   7.160   6.580   9.028  0.9839  0.2949 -1.1016
  822MOL0     H10946   7.002   6.613   9.196 -4.1728  2.2420 -1.4169
  822MOL0     H10947   7.148   6.732   9.216  0.2133  1.2079 -2.2444
  822MOL0     H10948   6.893   6.788   9.271  0.2997 -0.0149 -0.4045
  822MOL0     H10949   6.893   6.829   9.099 -0.6981  0.9610 -0.2720
  822MOL0     H10950   7.121   6.964   9.168 -0.9157 -3.1335 -1.6568
  822MOL0     H10951   7.065   6.934   9.335 -0.3932  3.0630 -0.1143
  822MOL0     H10952   7.142   6.378   8.882  0.6535 -1.0739  0.9319
  822MOL0     H10953   7.335   6.253   8.790  1.7259 -3.5136 -1.0637
  822MOL0     H10954   7.337   6.070   8.218 -0.2013 -2.9730 -1.9624
  822MOL0     H10955   7.511   5.993   8.091  3.5114  1.7860  1.0301
  822MOL0     H10956   7.989   6.538   8.658  1.6819 -1.1695 -0.2926
  822MOL0     H10957   8.144   6.368   8.606  0.4623 -3.0765  0.6372
  822MOL0     H10958   8.377   6.014   8.667 -0.3595 -0.0100 -0.2905
  822MOL0     H10959   8.513   5.840   8.607  2.1663 -0.3473 -0.9710
  822MOL0     H10960   8.933   5.822   8.809 -0.1975  0.6269  0.0537
  822MOL0     H10961   8.942   5.692   8.697 -1.7355  0.1348 -4.5855
  822MOL0     H10962   8.949   5.971   8.583 -3.7745 -1.2013  0.3377
  822MOL0     H10963   8.985   5.818   8.503  0.9365  0.2101 -0.3619
  822MOL0     H10964   9.194   5.904   8.553 -0.0033 -0.6646  0.8627
  822MOL0     H10965   9.168   5.761   8.638 -0.8350 -0.5723 -1.6032
  822MOL0     H10966   9.118   5.926   8.853 -2.7500  0.3139 -1.2440
  822MOL0     H10967   9.133   6.055   8.743 -4.2191 -2.0254 -0.3995
  822MOL0     H10968   9.540   5.942   8.737 -1.7688  2.5999 -3.6269
  822MOL0     H10969   8.847   6.032   8.800 -0.1176  0.3760 -0.8750
  822MOL0     H10970   8.705   6.225   8.844  3.0122 -0.4869 -2.3229
  823MOL0     O10971   2.527  10.884   6.190 -0.2878 -0.4427 -0.5315
  823MOL0     C10972   2.594  10.823   6.108 -0.3778  0.1189  0.4092
  823MOL0     O10973   2.569  10.703   6.050 -0.6001 -0.1677  0.3457
  823MOL0     C10974   2.465  10.631   6.104 -0.5832 -0.2079  1.3062
  823MOL0     C10975   2.334  10.671   6.124  0.4604  0.1322  0.5448
  823MOL0     C10976   2.235  10.577   6.163 -0.1925 -0.7593  0.6657
  823MOL0     C10977   2.269  10.445   6.194  0.7534  0.6059 -0.0541
  823MOL0     O10978   2.176  10.352   6.226 -0.6480  0.0500 -0.4479
  823MOL0     C10979   2.055  10.328   6.151  0.3823  0.1446  0.1888
  823MOL0     C10980   2.018  10.181   6.165 -0.4522  0.3447  0.3102
  823MOL0     C10981   1.938  10.158   6.289  0.8413  0.0482 -0.0047
  823MOL0     C10982   1.863  10.021   6.277 -0.5740 -0.0582  0.6706
  823MOL0     C10983   1.778   9.982   6.398  0.3417  0.5004 -0.1996
  823MOL0     C10984   1.676   9.870   6.362 -0.8313  0.6867 -0.5722
  823MOL0     C10985   1.593   9.835   6.491 -0.6482 -0.9384  1.1436
  823MOL0     C10986   1.667   9.796   6.621  0.2041  0.0311 -0.7848
  823MOL0     N10987   1.577   9.759   6.727  0.4658 -0.3245 -0.8043
  823MOL0     C10988   1.546   9.631   6.773  0.0343  0.9285  0.3029
  823MOL0     C10989   1.464   9.640   6.877 -0.2323 -0.0065  0.1787
  823MOL0     C10990   1.396   9.535   6.966  0.1667  0.1400  0.4364
  823MOL0     C10991   1.424   9.389   6.925  0.0732 -0.0036  0.2661
  823MOL0     C10992   1.337   9.288   7.000 -0.0812 -0.6252 -0.3527
  823MOL0     C10993   1.414   9.158   7.040 -0.0439  0.1813 -0.1792
  823MOL0     O10994   1.317   9.065   7.097  0.3922 -0.1299 -0.7982
  823MOL0     C10995   1.290   9.050   7.230  0.5069  0.4995 -0.2502
  823MOL0     C10996   1.182   8.970   7.267 -0.2330  0.3744  0.7690
  823MOL0     C10997   1.141   8.959   7.401  0.9358 -0.1082  0.5903
  823MOL0     C10998   1.016   8.888   7.433 -0.8290 -0.0110 -0.2074
  823MOL0     C10999   1.213   9.028   7.503  0.1100  0.4383  0.3154
  823MOL0     C11000   1.202   9.018   7.650  0.0728  0.5519  0.1005
  823MOL0     O11001   1.317   9.039   7.720  0.6234  0.2133 -0.3625
  823MOL0     C11002   1.322   9.018   7.854  0.5157  0.5798 -0.2066
  823MOL0     C11003   1.274   8.910   7.924 -0.0139  0.1571 -1.0260
  823MOL0     C11004   1.295   8.903   8.062 -0.4844 -0.3376 -0.3614
  823MOL0     C11005   1.370   9.000   8.131  0.2550  0.4822  0.2253
  823MOL0     O11006   1.373   8.999   8.269 -0.0232  0.6287  0.0488
  823MOL0     C11007   1.370   9.128   8.338  0.1802 -0.2351  1.0672
  823MOL0     C11008   1.514   9.154   8.389  1.0632  0.8740 -0.4034
  823MOL0     C11009   1.552   9.046   8.500 -0.2954 -0.0869 -0.1372
  823MOL0     C11010   1.664   9.079   8.601 -0.1593 -0.5672  0.2083
  823MOL0     C11011   1.800   9.093   8.526  0.1719  0.2494 -0.4436
  823MOL0     C11012   1.901   9.132   8.629 -0.9494 -0.3759 -0.8634
  823MOL0     C11013   2.039   9.142   8.562 -1.2287  1.1325 -0.4863
  823MOL0     C11014   2.152   9.136   8.655  0.2013 -0.3705  0.2644
  823MOL0    Cl11015   2.140   9.296   8.738 -0.0090  0.0634  0.5644
  823MOL0     C11016   1.433   9.101   8.054 -0.4251  0.2161  0.1151
  823MOL0     C11017   1.404   9.114   7.915 -0.4457 -0.3042 -0.5029
  823MOL0     O11018   1.091   9.003   7.700  0.2301  0.2518  0.4608
  823MOL0     C11019   1.313   9.114   7.462  0.4745  0.5491 -0.0386
  823MOL0     C11020   1.355   9.126   7.330 -0.6779  0.4945  0.5028
  823MOL0     N11021   1.446   9.777   6.898  0.4690  0.3037  0.2510
  823MOL0     N11022   1.501   9.843   6.804 -0.1269 -0.2131 -0.1414
  823MOL0     C11023   2.397  10.405   6.169 -0.3651 -0.2934 -0.7639
  823MOL0     C11024   2.496  10.496   6.133  0.1506 -0.0179 -0.4456
  823MOL0     C11025   2.702  10.896   6.054 -0.3672 -0.1192  0.9943
  823MOL0     C11026   2.706  11.035   6.073 -0.4199 -1.6164 -0.0515
  823MOL0     C11027   2.796  11.114   6.003  0.2939  0.4696 -0.2833
  823MOL0     C11028   2.906  11.063   5.929 -0.0345  0.5378  0.4901
  823MOL0     O11029   3.005  11.156   5.892  0.0530 -0.4292  0.1838
  823MOL0     C11030   3.082  11.148   5.767 -0.1521  0.1356  0.8089
  823MOL0     C11031   3.210  11.235   5.756  1.0740  0.5641 -0.0767
  823MOL0     C11032   3.230  11.274   5.610  0.1257  0.3658  0.5414
  823MOL0     C11033   3.294  11.168   5.525 -0.9627  0.5739  0.1003
  823MOL0     C11034   3.431  11.142   5.567 -1.0494  0.1619 -0.1311
  823MOL0     C11035   3.546  11.108   5.595  1.5495  0.1021  0.1675
  823MOL0     C11036   2.894  10.927   5.906 -0.5705 -0.2624  0.3360
  823MOL0     C11037   2.788  10.844   5.948 -0.1193  0.2399  0.0038
  823MOL0     H11038   2.301  10.772   6.102 -0.4225 -0.0134  1.1690
  823MOL0     H11039   2.131  10.610   6.172 -1.0345 -2.1497 -2.6323
  823MOL0     H11040   1.974  10.398   6.176  1.6063  2.2192 -1.3653
  823MOL0     H11041   2.076  10.341   6.045  0.7244  0.4859  0.2950
  823MOL0     H11042   1.960  10.146   6.080 -0.1978  1.1552 -0.2083
  823MOL0     H11043   2.110  10.123   6.167 -0.7654 -0.2246 -0.9284
  823MOL0     H11044   2.003  10.159   6.377 -0.6064  3.0168  1.1713
  823MOL0     H11045   1.870  10.240   6.313  1.5574  0.0963  2.0952
  823MOL0     H11046   1.787  10.034   6.200 -4.5729  1.9549  4.4818
  823MOL0     H11047   1.940   9.946   6.253  0.5573  0.7215  1.7330
  823MOL0     H11048   1.849   9.955   6.477 -2.2567 -1.1515  1.7741
  823MOL0     H11049   1.719  10.066   6.437  2.1811  1.3829  0.8169
  823MOL0     H11050   1.599   9.903   6.293 -0.3859  3.3375  0.0945
  823MOL0     H11051   1.733   9.782   6.330 -1.2774  0.1863 -0.0100
  823MOL0     H11052   1.534   9.925   6.506  0.0564 -0.2450 -0.0674
  823MOL0     H11053   1.518   9.762   6.460 -1.3534  0.4917 -0.6944
  823MOL0     H11054   1.713   9.888   6.659 -0.9148  0.0392  0.6004
  823MOL0     H11055   1.750   9.726   6.614  1.3331  1.3590 -1.1226
  823MOL0     H11056   1.575   9.533   6.737 -1.0267  0.8861 -0.5015
  823MOL0     H11057   1.432   9.548   7.068  1.2580  0.7085 -0.0040
  823MOL0     H11058   1.287   9.540   6.974  0.2604 -0.5803  3.6850
  823MOL0     H11059   1.532   9.372   6.939  0.2620  1.2889  0.5533
  823MOL0     H11060   1.403   9.377   6.819  2.7832  1.1197 -0.4919
  823MOL0     H11061   1.238   9.270   6.958 -0.4991 -0.4360  0.5333
  823MOL0     H11062   1.313   9.339   7.094 -2.5472 -1.6151 -0.3876
  823MOL0     H11063   1.494   9.186   7.109 -0.3138  1.5942 -0.4145
  823MOL0     H11064   1.458   9.114   6.949 -4.2311 -2.3609 -1.2418
  823MOL0     H11065   1.135   8.917   7.185  4.8970  0.4319 -2.6588
  823MOL0     H11066   1.045   8.790   7.472  0.9586  0.6276  0.1703
  823MOL0     H11067   0.956   8.950   7.501 -1.9240 -1.6750  0.4128
  823MOL0     H11068   0.952   8.875   7.345 -2.5527 -1.3957  1.1767
  823MOL0     H11069   1.217   8.833   7.873  1.3895 -1.2564 -0.5423
  823MOL0     H11070   1.242   8.821   8.110  0.8803 -0.9917  0.0704
  823MOL0     H11071   1.343   9.214   8.274 -0.2014  0.0965  1.6635
  823MOL0     H11072   1.300   9.142   8.421 -0.2699  0.4657  0.5816
  823MOL0     H11073   1.592   9.166   8.313  1.5701  3.0154  0.3708
  823MOL0     H11074   1.519   9.253   8.436 -1.1792  2.2950 -2.8910
  823MOL0     H11075   1.588   8.956   8.449 -0.8465  0.9677 -2.5141
  823MOL0     H11076   1.463   9.016   8.556 -1.4687 -1.9245 -2.7822
  823MOL0     H11077   1.631   9.167   8.657 -5.1942 -1.2497 -1.1902
  823MOL0     H11078   1.666   9.001   8.677  0.6942 -0.1327  0.6422
  823MOL0     H11079   1.792   9.160   8.440 -1.6531 -0.2318 -0.6977
  823MOL0     H11080   1.826   8.996   8.483 -2.5019 -0.6401 -0.2568
  823MOL0     H11081   1.871   9.227   8.674  2.7760  0.3308  0.4233
  823MOL0     H11082   1.906   9.055   8.706 -1.7240 -0.7416 -1.1608
  823MOL0     H11083   2.060   9.224   8.493  2.1818  0.8188  0.0180
  823MOL0     H11084   2.054   9.056   8.495 -1.6642  0.0264  0.7967
  823MOL0     H11085   2.240   9.108   8.596  1.7837 -1.3271  2.9116
  823MOL0     H11086   2.143   9.062   8.735  1.2599 -2.3041 -1.3042
  823MOL0     H11087   1.507   9.163   8.103  0.0762 -0.1854 -0.1320
  823MOL0     H11088   1.440   9.188   7.844 -3.8825  1.5069 -0.5756
  823MOL0     H11089   1.373   9.178   7.526  1.5465  2.2769 -2.5915
  823MOL0     H11090   1.433   9.199   7.309  0.8407 -1.5676 -1.4467
  823MOL0     H11091   2.428  10.303   6.190  3.4656  0.9729  0.5032
  823MOL0     H11092   2.598  10.461   6.131 -0.8779 -3.7873  2.0673
  823MOL0     H11093   2.638  11.099   6.128  0.0669 -1.5343  0.4645
  823MOL0     H11094   2.788  11.221   6.015  0.1413  0.7380 -2.3623
  823MOL0     H11095   3.105  11.042   5.751 -1.1786  0.1352 -0.9825
  823MOL0     H11096   3.010  11.176   5.689 -0.9060  0.0167  1.4480
  823MOL0     H11097   3.299  11.184   5.794  1.2656 -1.7274 -3.1878
  823MOL0     H11098   3.195  11.328   5.812 -1.8031 -0.5063  1.1639
  823MOL0     H11099   3.288  11.366   5.601  1.9135 -0.8636 -1.7806
  823MOL0     H11100   3.135  11.291   5.559  1.0854  1.3993 -0.9601
  823MOL0     H11101   3.291  11.196   5.419  1.5002  4.1895  0.8331
  823MOL0     H11102   3.248  11.068   5.528 -1.4181  0.7935  0.6930
  823MOL0     H11103   3.639  11.075   5.636  1.9526  1.3512  0.3045
  823MOL0     H11104   2.979  10.885   5.853  2.9107  1.4534  4.0134
  823MOL0     H11105   2.772  10.742   5.914 -1.9917 -0.3021  2.2506
  824MOL0     O11106   0.956   4.243   4.447  0.0579 -0.2310 -0.3898
  824MOL0     C11107   0.923   4.178   4.352  0.4476  0.1295 -0.0100
  824MOL0     O11108   1.008   4.111   4.265 -0.6417  0.5608 -0.7783
  824MOL0     C11109   1.149   4.135   4.267  0.2323  0.5499 -0.1369
  824MOL0     C11110   1.198   4.268   4.268  0.2176 -0.2532  0.9338
  824MOL0     C11111   1.335   4.290   4.291  1.0221 -0.1443  0.2842
  824MOL0     C11112   1.420   4.179   4.324  1.0765  0.8357 -0.1625
  824MOL0     O11113   1.551   4.201   4.349 -0.4815 -0.2868 -0.5178
  824MOL0     C11114   1.584   4.312   4.434 -0.7308  0.0196 -0.4041
  824MOL0     C11115   1.730   4.285   4.493  0.4409  0.4163  0.4870
  824MOL0     C11116   1.731   4.354   4.621 -0.2097  0.0468 -0.5260
  824MOL0     C11117   1.668   4.266   4.732  0.7732 -0.2442 -0.7078
  824MOL0     C11118   1.677   4.338   4.870  0.2004  0.2573  0.4809
  824MOL0     C11119   1.616   4.256   4.986  0.1186 -0.2941 -0.8150
  824MOL0     C11120   1.664   4.333   5.115  0.9668 -0.2819  0.4521
  824MOL0     C11121   1.583   4.296   5.238 -0.4039 -0.3044 -0.7327
  824MOL0     N11122   1.448   4.363   5.234 -0.1003  0.4443  0.0453
  824MOL0     C11123   1.331   4.313   5.203  0.0037 -0.8262  0.4840
  824MOL0     C11124   1.242   4.409   5.236 -0.3977 -0.4560 -0.0097
  824MOL0     C11125   1.094   4.406   5.225 -0.1087  0.5139  0.5266
  824MOL0     C11126   1.023   4.536   5.229  0.1457 -0.3200 -0.5458
  824MOL0     C11127   1.033   4.608   5.091 -0.2970  0.6519 -0.6178
  824MOL0     C11128   0.954   4.743   5.087 -0.0485 -0.3020 -0.9125
  824MOL0     O11129   1.017   4.832   5.176  0.4663  0.4150 -0.0390
  824MOL0     C11130   0.948   4.940   5.214 -0.1908  0.2976  0.3599
  824MOL0     C11131   0.927   4.962   5.350 -0.1401  0.0844 -0.5425
  824MOL0     C11132   0.853   5.075   5.395 -0.1972 -0.3634 -0.2160
  824MOL0     C11133   0.869   5.111   5.542 -0.5766  0.9322 -0.1781
  824MOL0     C11134   0.797   5.162   5.296  0.2851  0.0663 -0.0414
  824MOL0     C11135   0.695   5.252   5.341  1.0845 -1.0306 -0.3692
  824MOL0     O11136   0.668   5.354   5.248 -0.1756  0.8011 -0.5368
  824MOL0     C11137   0.587   5.463   5.289  0.2066 -0.1699  0.4740
  824MOL0     C11138   0.626   5.596   5.266 -0.0483  0.4415 -0.5696
  824MOL0     C11139   0.545   5.707   5.291 -0.1601  0.7469  0.0043
  824MOL0     C11140   0.419   5.687   5.339 -0.3509  0.8446 -0.4169
  824MOL0     O11141   0.355   5.812   5.368 -0.4293 -0.4767 -0.3184
  824MOL0     C11142   0.260   5.796   5.467 -0.7249 -0.1316 -0.6047
  824MOL0     C11143   0.222   5.939   5.513 -0.1516 -1.3050  0.7488
  824MOL0     C11144   0.105   5.923   5.603  0.0161  0.4478 -0.5321
  824MOL0     C11145   0.116   6.040   5.708  0.7947  1.1689 -0.3227
  824MOL0     C11146  -0.013   6.021   5.793 -0.8041  0.3824 -0.6171
  824MOL0     C11147  -0.025   6.118   5.916 -1.0074  0.3612  0.0077
  824MOL0     C11148  -0.155   6.097   5.990 -0.3121  0.7459 -0.4987
  824MOL0     C11149  -0.281   6.102   5.913 -0.0731  0.7684 -0.1129
  824MOL0    Cl11150  -0.297   6.232   5.801 -0.0918 -0.0614 -0.2936
  824MOL0     C11151   0.365   5.551   5.367 -0.4648 -0.0067 -0.4621
  824MOL0     C11152   0.450   5.442   5.336  0.4318 -0.0423 -0.1945
  824MOL0     O11153   0.641   5.240   5.452 -0.0902 -0.5219  0.7130
  824MOL0     C11154   0.818   5.132   5.160  0.7160 -0.3268  0.4635
  824MOL0     C11155   0.898   5.027   5.117 -0.4433  0.4639  0.1618
  824MOL0     N11156   1.313   4.511   5.293  0.0809 -0.2850 -0.0166
  824MOL0     N11157   1.438   4.487   5.294  1.2250  0.5123  0.0952
  824MOL0     C11158   1.371   4.044   4.322  0.6787  0.0961  0.2010
  824MOL0     C11159   1.234   4.033   4.288 -0.2651  0.5162  0.2980
  824MOL0     C11160   0.771   4.166   4.334  0.5197 -0.4145 -0.1375
  824MOL0     C11161   0.710   4.092   4.230  0.4073  0.2144  0.4963
  824MOL0     C11162   0.568   4.081   4.227 -0.1167 -0.3602 -0.3385
  824MOL0     C11163   0.481   4.130   4.323  0.2902 -0.1702 -0.1129
  824MOL0     O11164   0.340   4.128   4.312 -0.8497  0.5674  0.2355
  824MOL0     C11165   0.278   4.031   4.226 -0.5001 -0.1900 -1.6255
  824MOL0     C11166   0.129   4.024   4.247  0.1104 -0.1996 -0.0212
  824MOL0     C11167   0.054   4.158   4.225 -0.3242 -0.1290 -0.0172
  824MOL0     C11168  -0.086   4.150   4.288  0.8897  0.0406 -0.3496
  824MOL0     C11169  -0.173   4.043   4.231 -0.2422 -0.4199 -0.3899
  824MOL0     C11170  -0.249   3.950   4.216 -0.8252 -0.0330  0.3384
  824MOL0     C11171   0.542   4.201   4.421  0.3745  0.0005 -0.3069
  824MOL0     C11172   0.683   4.216   4.433 -0.0524  0.9945  0.0826
  824MOL0     H11173   1.139   4.352   4.234  1.1504 -0.9868 -3.1739
  824MOL0     H11174   1.365   4.394   4.287 -1.3569  0.6015  0.5423
  824MOL0     H11175   1.584   4.404   4.376  2.5355  0.5162  0.1802
  824MOL0     H11176   1.510   4.332   4.512 -1.1978  1.3600 -1.1680
  824MOL0     H11177   1.747   4.178   4.512  0.8567  0.6660  1.5691
  824MOL0     H11178   1.806   4.318   4.422  1.0668 -0.4767  0.7196
  824MOL0     H11179   1.837   4.373   4.638  0.0174 -1.1556 -0.5355
  824MOL0     H11180   1.672   4.444   4.603 -1.0977 -0.4765 -0.2641
  824MOL0     H11181   1.562   4.250   4.712  0.7606  1.4977 -2.2808
  824MOL0     H11182   1.727   4.175   4.746 -2.6432 -2.4090  0.9934
  824MOL0     H11183   1.783   4.353   4.890  0.0407  1.4159  0.5341
  824MOL0     H11184   1.621   4.432   4.868 -2.2807 -1.1142 -1.0617
  824MOL0     H11185   1.507   4.253   4.993 -0.2189  1.9679 -3.2596
  824MOL0     H11186   1.662   4.157   4.978  2.2966  0.7766 -2.8468
  824MOL0     H11187   1.769   4.305   5.134  1.0287 -0.0901  0.3978
  824MOL0     H11188   1.667   4.442   5.105 -1.4580  0.0825  2.7535
  824MOL0     H11189   1.645   4.320   5.325  0.7689  0.8226 -1.8244
  824MOL0     H11190   1.570   4.187   5.229 -4.6310  0.0142 -0.5474
  824MOL0     H11191   1.310   4.216   5.157 -2.6647  0.8499 -2.2765
  824MOL0     H11192   1.060   4.354   5.135  1.7793  2.7735 -1.6473
  824MOL0     H11193   1.054   4.342   5.305  0.7653  1.0281  1.4049
  824MOL0     H11194   1.063   4.608   5.300 -2.1358  2.3224 -1.7445
  824MOL0     H11195   0.917   4.526   5.251 -0.0993  0.5552 -1.2811
  824MOL0     H11196   0.986   4.536   5.024  2.7527 -1.0150 -1.1836
  824MOL0     H11197   1.138   4.618   5.061  0.6414  1.4454  2.5153
  824MOL0     H11198   0.848   4.745   5.113 -0.2680  3.4347 -1.4651
  824MOL0     H11199   0.971   4.787   4.989 -1.6428  2.1488 -0.1768
  824MOL0     H11200   0.945   4.887   5.426 -1.0102  2.4581  2.2057
  824MOL0     H11201   0.789   5.055   5.592  0.9495 -2.4055 -1.1356
  824MOL0     H11202   0.964   5.078   5.585 -1.3065  0.4469  1.1131
  824MOL0     H11203   0.865   5.220   5.548  0.5028  1.5773 -5.6582
  824MOL0     H11204   0.721   5.610   5.215  0.6890  1.8338  1.0931
  824MOL0     H11205   0.580   5.807   5.268  0.8443 -0.1892 -3.0159
  824MOL0     H11206   0.171   5.744   5.430  0.1028 -1.9914 -0.1418
  824MOL0     H11207   0.291   5.747   5.560 -0.6770 -0.0834 -0.5949
  824MOL0     H11208   0.309   5.990   5.556  0.1728  1.0186 -2.3292
  824MOL0     H11209   0.194   6.001   5.427  0.1647 -0.9207  0.9202
  824MOL0     H11210   0.101   5.821   5.642 -0.2730 -0.3758 -2.5829
  824MOL0     H11211   0.005   5.927   5.559 -0.1954  3.2361 -0.0140
  824MOL0     H11212   0.211   6.018   5.759  0.4154 -1.7220 -0.6967
  824MOL0     H11213   0.111   6.138   5.659  3.0911  1.4855 -0.0476
  824MOL0     H11214  -0.010   5.917   5.828 -0.2055 -1.4766 -5.4388
  824MOL0     H11215  -0.102   6.022   5.729 -3.0673  0.1344  2.2985
  824MOL0     H11216   0.054   6.093   5.987 -0.6764  1.7837  0.1796
  824MOL0     H11217  -0.011   6.222   5.885  1.5808  0.4037  1.0540
  824MOL0     H11218  -0.164   6.174   6.067  0.9075  0.8382 -0.4153
  824MOL0     H11219  -0.147   5.999   6.039 -3.0998 -0.6904 -2.5971
  824MOL0     H11220  -0.361   6.105   5.987  0.0949 -1.7953  0.2650
  824MOL0     H11221  -0.303   6.006   5.864 -1.4760  2.3134 -2.6950
  824MOL0     H11222   0.271   5.532   5.417  1.0392 -0.5170  2.3677
  824MOL0     H11223   0.398   5.348   5.353 -0.5776  0.9541  3.0033
  824MOL0     H11224   0.763   5.182   5.081 -1.4793 -1.9568  0.8489
  824MOL0     H11225   0.917   5.021   5.010 -0.9416  1.0889  0.0282
  824MOL0     H11226   1.446   3.969   4.347  3.7815  3.3590  1.6957
  824MOL0     H11227   1.194   3.933   4.286 -2.1427  1.2089  0.7718
  824MOL0     H11228   0.760   4.037   4.151  1.0101 -0.0313  1.0421
  824MOL0     H11229   0.531   4.025   4.142 -0.2074 -0.8027 -0.0115
  824MOL0     H11230   0.293   4.037   4.118 -0.5122  0.7638 -1.5756
  824MOL0     H11231   0.317   3.931   4.249 -2.1792 -1.3780 -3.5713
  824MOL0     H11232   0.097   3.977   4.341 -1.0729  0.6798  0.0379
  824MOL0     H11233   0.099   3.964   4.161  1.1426 -0.7938  0.0093
  824MOL0     H11234   0.040   4.187   4.120 -0.2026  5.0390  1.1438
  824MOL0     H11235   0.107   4.238   4.276  0.4969 -2.3288  2.8575
  824MOL0     H11236  -0.129   4.249   4.268  0.0051 -0.5830 -1.6495
  824MOL0     H11237  -0.065   4.147   4.396 -2.2941  3.5594  0.6217
  824MOL0     H11238  -0.303   3.862   4.185  0.4502 -0.6034 -0.3348
  824MOL0     H11239   0.474   4.238   4.497  1.8651 -0.7942  1.4925
  824MOL0     H11240   0.710   4.286   4.512  2.2291  1.9218 -1.4222
  825MOL0     O11241   9.641   5.560   4.720  0.0479  0.3430 -0.2017
  825MOL0     C11242   9.746   5.509   4.675  0.0446  0.3698  0.1383
  825MOL0     O11243   9.778   5.380   4.668 -0.5973  0.0977 -0.4381
  825MOL0     C11244   9.695   5.290   4.724  0.5068  0.5351 -0.2246
  825MOL0     C11245   9.635   5.191   4.639  0.0633  0.1993  0.7308
  825MOL0     C11246   9.554   5.093   4.693  0.1932 -0.1697  0.5138
  825MOL0     C11247   9.541   5.093   4.834  0.7797 -0.7082  0.0456
  825MOL0     O11248   9.453   5.004   4.888 -0.0198  0.5901 -0.1632
  825MOL0     C11249   9.326   4.995   4.825 -0.7038  0.3077 -1.2171
  825MOL0     C11250   9.222   4.919   4.920 -0.9215  0.1232  0.3630
  825MOL0     C11251   9.101   4.884   4.840  0.2767 -0.3261 -0.5887
  825MOL0     C11252   9.003   4.799   4.921  0.0264  0.1886  0.4225
  825MOL0     C11253   8.860   4.818   4.866 -1.0109 -1.0376 -0.1798
  825MOL0     C11254   8.801   4.962   4.884  0.2296 -0.0532 -0.1866
  825MOL0     C11255   8.653   4.942   4.930  0.3115 -0.1443  0.2409
  825MOL0     C11256   8.588   5.075   4.957  0.2565  0.3708  0.1321
  825MOL0     N11257   8.447   5.067   5.015 -0.9513  0.1222  0.3843
  825MOL0     C11258   8.341   5.014   4.942  0.2755  0.7391 -1.0476
  825MOL0     C11259   8.237   5.020   5.042 -0.0860 -0.0652  1.1685
  825MOL0     C11260   8.092   4.982   5.016  0.3730  0.8358 -0.7380
  825MOL0     C11261   8.042   4.873   5.108  1.1196  0.3243 -0.0232
  825MOL0     C11262   7.886   4.870   5.115  0.3135  0.3951  0.1207
  825MOL0     C11263   7.822   4.853   4.978  0.3652  0.4625 -0.0016
  825MOL0     O11264   7.838   4.720   4.913 -0.8872 -0.0258  0.1586
  825MOL0     C11265   7.728   4.638   4.919 -0.1432 -0.3836  0.3870
  825MOL0     C11266   7.729   4.534   5.011  0.8502 -0.5611 -1.0025
  825MOL0     C11267   7.618   4.450   5.030  0.2193  0.1572  0.3135
  825MOL0     C11268   7.636   4.345   5.138 -0.5211 -0.5687 -0.1365
  825MOL0     C11269   7.510   4.464   4.953  0.4042 -0.2135 -0.3790
  825MOL0     C11270   7.392   4.380   4.963 -0.0856  0.4797  0.0920
  825MOL0     O11271   7.395   4.259   5.017  0.1164 -0.9653  0.2074
  825MOL0     C11272   7.269   4.197   5.034 -0.0026 -0.6112 -0.0990
  825MOL0     C11273   7.198   4.209   5.157  0.1204  0.2546 -0.0889
  825MOL0     C11274   7.083   4.128   5.170 -0.2631 -0.7431  0.3009
  825MOL0     C11275   7.027   4.063   5.064 -0.6517 -0.6657  0.3121
  825MOL0     O11276   6.915   3.978   5.066  0.4002  0.7969 -0.6426
  825MOL0     C11277   6.839   3.954   4.948 -0.8432  0.2264 -0.2575
  825MOL0     C11278   6.713   3.883   4.990 -0.2575 -0.6939  0.0904
  825MOL0     C11279   6.643   3.822   4.873  0.1542 -0.1753  1.2383
  825MOL0     C11280   6.500   3.764   4.911 -0.7213  0.2182 -0.2077
  825MOL0     C11281   6.432   3.689   4.795 -0.4538  0.6888 -0.0144
  825MOL0     C11282   6.287   3.660   4.826  0.2998  0.7061  0.1259
  825MOL0     C11283   6.237   3.563   4.719 -0.9068 -0.5766 -0.4479
  825MOL0     C11284   6.091   3.544   4.722 -0.3413 -0.7247 -0.0837
  825MOL0    Cl11285   6.043   3.409   4.606 -0.1682  0.3473  0.3199
  825MOL0     C11286   7.093   4.072   4.942 -0.7523  0.6098  0.3764
  825MOL0     C11287   7.224   4.124   4.935  0.4591  0.3199 -0.5672
  825MOL0     O11288   7.286   4.439   4.930  0.0178 -0.5069 -0.3122
  825MOL0     C11289   7.503   4.573   4.858  0.5141 -0.0509 -0.4070
  825MOL0     C11290   7.611   4.659   4.845 -0.1213 -0.2632 -0.1495
  825MOL0     N11291   8.294   5.066   5.162  0.3281  1.1162  0.1646
  825MOL0     N11292   8.413   5.092   5.150 -1.0465 -0.0614  0.1444
  825MOL0     C11293   9.604   5.189   4.923 -0.7100  0.1759 -0.1540
  825MOL0     C11294   9.686   5.280   4.863 -0.4719 -0.3760 -0.3953
  825MOL0     C11295   9.836   5.602   4.594  0.6531 -0.5046 -0.6816
  825MOL0     C11296   9.847   5.738   4.631  0.3422  0.3579 -0.5041
  825MOL0     C11297   9.941   5.816   4.563  0.1287 -0.1789 -0.2184
  825MOL0     C11298  10.028   5.765   4.467 -0.1022 -0.5032 -1.0356
  825MOL0     O11299  10.128   5.835   4.412 -0.2994  0.4265 -0.1654
  825MOL0     C11300  10.127   5.981   4.415  0.0105  0.1854  1.1177
  825MOL0     C11301  10.239   6.031   4.331 -0.4393  0.0800  0.5906
  825MOL0     C11302  10.272   6.177   4.359 -0.1322  0.5446 -0.0566
  825MOL0     C11303  10.359   6.190   4.479 -0.5973 -0.5000 -0.1596
  825MOL0     C11304  10.369   6.329   4.529  0.3105  0.5438  0.1530
  825MOL0     C11305  10.379   6.435   4.591 -0.2636  0.4054 -0.5514
  825MOL0     C11306  10.022   5.632   4.440  0.1605 -0.3051  0.4398
  825MOL0     C11307   9.924   5.548   4.498  0.4532  0.1686 -0.5298
  825MOL0     H11308   9.646   5.204   4.532 -0.8507  0.1296  0.6185
  825MOL0     H11309   9.522   5.005   4.637  0.3163  0.7132 -0.9977
  825MOL0     H11310   9.291   5.099   4.816 -1.6617 -0.1211 -2.6342
  825MOL0     H11311   9.328   4.932   4.736 -0.2421  0.0315 -1.0134
  825MOL0     H11312   9.275   4.832   4.960  1.7775  0.1474 -2.7195
  825MOL0     H11313   9.204   4.983   5.007 -1.3738  1.1301 -0.4516
  825MOL0     H11314   9.063   4.980   4.805 -0.9015  0.1213  1.7305
  825MOL0     H11315   9.131   4.825   4.753 -1.7184 -0.7167 -1.0499
  825MOL0     H11316   9.028   4.693   4.922 -0.2605  0.1201  0.4490
  825MOL0     H11317   9.013   4.816   5.029  0.6068 -1.5455  0.6643
  825MOL0     H11318   8.842   4.795   4.761 -4.1390 -0.4245  0.1260
  825MOL0     H11319   8.801   4.744   4.920 -1.3522 -0.8498 -0.2919
  825MOL0     H11320   8.855   5.024   4.956 -0.2929  2.6725 -1.9851
  825MOL0     H11321   8.803   5.023   4.794 -0.1662  0.8188  0.3785
  825MOL0     H11322   8.601   4.874   4.862 -1.6136  1.2779  0.1812
  825MOL0     H11323   8.647   4.885   5.024  0.8497 -2.4127 -1.0372
  825MOL0     H11324   8.586   5.129   4.863 -0.3671 -2.4900 -1.6290
  825MOL0     H11325   8.644   5.130   5.033 -0.8349  0.5475  0.8442
  825MOL0     H11326   8.338   5.001   4.834 -0.6801  1.5827 -1.1391
  825MOL0     H11327   8.036   5.075   5.031  1.2448  1.4137 -0.9851
  825MOL0     H11328   8.072   4.946   4.915 -3.3296 -0.6371  0.3497
  825MOL0     H11329   8.081   4.894   5.208 -1.4592 -2.6553  1.8123
  825MOL0     H11330   8.070   4.770   5.080  0.9084  0.5582 -1.1422
  825MOL0     H11331   7.848   4.967   5.148  1.5648  1.5006 -1.5107
  825MOL0     H11332   7.837   4.800   5.183 -0.1251  1.9575  1.4727
  825MOL0     H11333   7.857   4.929   4.909 -1.0975  0.8976 -0.3067
  825MOL0     H11334   7.715   4.876   4.985  0.3018 -0.2555  4.4281
  825MOL0     H11335   7.815   4.505   5.070  0.2365 -3.4567 -1.4169
  825MOL0     H11336   7.547   4.317   5.194 -2.4790  1.2744 -2.1098
  825MOL0     H11337   7.678   4.254   5.094 -1.3811 -1.5338  0.9688
  825MOL0     H11338   7.712   4.387   5.204 -1.2599  2.3001 -0.9745
  825MOL0     H11339   7.246   4.273   5.230 -2.6782  1.0398  1.1782
  825MOL0     H11340   7.024   4.126   5.262  1.3412 -2.2963  1.3651
  825MOL0     H11341   6.823   4.055   4.908  5.0066  1.2244 -0.9840
  825MOL0     H11342   6.882   3.880   4.880 -0.8848 -0.2520  0.2361
  825MOL0     H11343   6.747   3.812   5.066  1.3250 -0.0626  0.0020
  825MOL0     H11344   6.638   3.951   5.034 -3.6915 -2.9195 -1.8331
  825MOL0     H11345   6.706   3.737   4.844 -0.6219 -0.3547  0.0008
  825MOL0     H11346   6.636   3.886   4.785 -1.7670 -1.1728  0.5925
  825MOL0     H11347   6.509   3.689   4.990  0.8169  0.1885 -0.3799
  825MOL0     H11348   6.437   3.843   4.954  0.3936 -1.1450  4.4358
  825MOL0     H11349   6.486   3.595   4.780 -3.9467 -1.8902  2.0210
  825MOL0     H11350   6.440   3.755   4.708  0.5824 -0.3973 -0.7730
  825MOL0     H11351   6.275   3.613   4.924  0.8258  0.2392 -0.0269
  825MOL0     H11352   6.226   3.751   4.822  0.9466  1.0920 -2.0104
  825MOL0     H11353   6.297   3.474   4.741 -1.3718 -0.1842  3.0745
  825MOL0     H11354   6.263   3.605   4.622 -2.3427 -0.7018 -0.8994
  825MOL0     H11355   6.055   3.633   4.670  0.4945 -0.8499 -0.9059
  825MOL0     H11356   6.044   3.529   4.820 -3.5391 -0.0893 -1.3928
  825MOL0     H11357   7.054   4.012   4.860  1.5686 -0.8319  0.2403
  825MOL0     H11358   7.280   4.123   4.842  1.4775 -0.1749  0.0261
  825MOL0     H11359   7.416   4.589   4.795 -0.8885 -0.7840  1.2631
  825MOL0     H11360   7.617   4.734   4.767 -0.6206  0.4147  0.4592
  825MOL0     H11361   9.601   5.183   5.031  0.1399  2.7572  0.0771
  825MOL0     H11362   9.739   5.340   4.936 -1.1953  0.5919 -0.6485
  825MOL0     H11363   9.767   5.781   4.690 -1.3753 -1.7263 -1.1529
  825MOL0     H11364   9.945   5.923   4.576  4.6117  0.1837 -2.4656
  825MOL0     H11365  10.037   6.021   4.367  1.6195  0.5679 -1.7918
  825MOL0     H11366  10.145   6.023   4.514  3.4888 -1.5349  1.3541
  825MOL0     H11367  10.205   6.048   4.229  0.3196  3.3486  0.7767
  825MOL0     H11368  10.323   5.961   4.329 -1.8903 -1.7397 -1.8304
  825MOL0     H11369  10.171   6.213   4.379 -0.3241 -0.4368  0.7630
  825MOL0     H11370  10.312   6.230   4.272 -1.7443  0.0371 -1.1400
  825MOL0     H11371  10.458   6.160   4.443 -0.8402  0.9282 -2.2014
  825MOL0     H11372  10.347   6.119   4.561  2.0823 -0.0825  0.6897
  825MOL0     H11373  10.404   6.526   4.640  1.9054  0.8985 -2.4224
  825MOL0     H11374  10.087   5.592   4.363  1.5548  1.2264  0.7634
  825MOL0     H11375   9.920   5.443   4.471  0.9782 -0.0614  0.2332
  826MOL0     O11376   4.577   0.367   9.873 -0.5944 -0.2039  0.0198
  826MOL0     C11377   4.575   0.417   9.986 -0.2283 -0.7962  0.3768
  826MOL0     O11378   4.480   0.380  10.083  0.5887 -0.2958  0.6880
  826MOL0     C11379   4.388   0.296  10.036 -0.4676 -0.7749 -0.3145
  826MOL0     C11380   4.269   0.341   9.983 -0.2529 -0.5702  0.2219
  826MOL0     C11381   4.171   0.255   9.923  0.0879 -0.4286 -0.1215
  826MOL0     C11382   4.189   0.113   9.920  0.9906  0.1621 -0.1794
  826MOL0     O11383   4.107   0.021   9.866  0.1639  0.3256  0.1285
  826MOL0     C11384   4.003   0.074   9.769  0.2493  0.0478 -0.6306
  826MOL0     C11385   3.904  -0.030   9.722  0.2677 -0.8883  0.7030
  826MOL0     C11386   3.834   0.001   9.588  1.2414  0.2890 -0.9340
  826MOL0     C11387   3.742  -0.118   9.554 -0.1169 -0.3039  0.0818
  826MOL0     C11388   3.645  -0.088   9.441 -1.1660 -0.5018  0.9180
  826MOL0     C11389   3.542  -0.201   9.418 -0.8397 -0.6416  0.4546
  826MOL0     C11390   3.434  -0.155   9.332  0.2754  0.0475 -0.2968
  826MOL0     C11391   3.315  -0.262   9.339  0.3086 -0.0367  0.5821
  826MOL0     N11392   3.211  -0.224   9.250 -0.4580 -0.1311  0.8558
  826MOL0     C11393   3.227  -0.235   9.113 -0.3726  0.1215  0.0083
  826MOL0     C11394   3.107  -0.194   9.068 -0.3678 -0.0881  0.2562
  826MOL0     C11395   3.064  -0.192   8.927 -0.3162  0.6503 -0.9944
  826MOL0     C11396   3.085  -0.321   8.849 -0.0238  0.8739 -0.1564
  826MOL0     C11397   2.992  -0.441   8.887 -0.3253 -0.5704 -0.4408
  826MOL0     C11398   2.852  -0.401   8.875  1.2427  0.1566 -0.1701
  826MOL0     O11399   2.767  -0.506   8.816 -0.2553  1.1027 -0.6969
  826MOL0     C11400   2.649  -0.530   8.881 -0.7914 -0.0804  0.4502
  826MOL0     C11401   2.572  -0.435   8.944 -0.2493  0.4081  0.1701
  826MOL0     C11402   2.450  -0.471   9.003  0.2497  0.0427 -0.0845
  826MOL0     C11403   2.375  -0.356   9.040  0.9384 -1.2678  0.9937
  826MOL0     C11404   2.417  -0.607   9.025  0.5658 -0.2331  0.6352
  826MOL0     C11405   2.311  -0.647   9.117 -0.1520 -0.0998 -0.8147
  826MOL0     O11406   2.246  -0.755   9.071 -0.4055 -0.0301  0.8297
  826MOL0     C11407   2.165  -0.815   9.158  0.8874 -0.0822  0.9127
  826MOL0     C11408   2.205  -0.933   9.221 -0.0132 -0.1229  0.9427
  826MOL0     C11409   2.107  -1.001   9.299 -0.5625  0.4979  0.6618
  826MOL0     C11410   1.969  -0.968   9.299 -0.1333  1.4095 -0.7755
  826MOL0     O11411   1.880  -1.020   9.385  0.1548  0.3506  0.3169
  826MOL0     C11412   1.906  -1.137   9.469  0.6464 -0.6661 -0.3450
  826MOL0     C11413   1.780  -1.185   9.543 -0.1722 -0.3107  0.5130
  826MOL0     C11414   1.664  -1.233   9.440 -0.7996  0.3901  0.3153
  826MOL0     C11415   1.547  -1.292   9.518 -0.2470 -0.0752  0.9157
  826MOL0     C11416   1.443  -1.187   9.554 -0.6310  0.0602  0.8682
  826MOL0     C11417   1.358  -1.132   9.429 -0.4337  0.1871 -0.6048
  826MOL0     C11418   1.292  -1.240   9.334  0.3204  0.1071  0.6505
  826MOL0     C11419   1.214  -1.336   9.412 -0.3462 -1.0323 -0.2793
  826MOL0    Cl11420   1.069  -1.268   9.502 -0.2512 -0.0143  0.2674
  826MOL0     C11421   1.929  -0.854   9.230  0.1157  0.4012 -0.6953
  826MOL0     C11422   2.023  -0.783   9.160  0.5785 -0.0234 -0.0143
  826MOL0     O11423   2.296  -0.593   9.229  0.8842  0.0558 -0.0264
  826MOL0     C11424   2.502  -0.704   8.965  0.4363 -1.0707 -0.9300
  826MOL0     C11425   2.614  -0.665   8.893 -0.1901  0.4377  0.3112
  826MOL0     N11426   3.027  -0.156   9.179  1.0200  0.2412 -0.2115
  826MOL0     N11427   3.092  -0.180   9.283 -0.4951  0.3339  0.1703
  826MOL0     C11428   4.305   0.065   9.981  0.2622  0.3090 -0.9141
  826MOL0     C11429   4.397   0.152  10.045  0.3010 -0.9035  0.7928
  826MOL0     C11430   4.679   0.519  10.025  0.0222 -0.8396 -0.7730
  826MOL0     C11431   4.777   0.565   9.933 -0.9518 -0.6886  0.1768
  826MOL0     C11432   4.863   0.671   9.964 -0.0987 -0.6080 -0.1641
  826MOL0     C11433   4.844   0.734  10.091  0.0912 -0.3417 -0.7919
  826MOL0     O11434   4.930   0.837  10.118  0.3567  1.0018  0.2783
  826MOL0     C11435   4.965   0.855  10.256 -0.2026  0.2902 -0.3983
  826MOL0     C11436   5.102   0.927  10.282  0.3922 -0.0755 -0.1219
  826MOL0     C11437   5.216   0.868  10.192  0.4520 -0.4093 -0.6425
  826MOL0     C11438   5.357   0.916  10.209  0.9793  0.0558 -0.7862
  826MOL0     C11439   5.381   1.059  10.185  0.3476 -0.1985  0.0067
  826MOL0     C11440   5.420   1.174  10.178 -0.2753  0.1994 -0.0263
  826MOL0     C11441   4.746   0.685  10.182  0.8150 -0.6197  0.4392
  826MOL0     C11442   4.665   0.569  10.156 -0.5767 -0.0361 -0.1393
  826MOL0     H11443   4.263   0.449   9.974  1.2989 -0.4689  0.1518
  826MOL0     H11444   4.084   0.298   9.875  1.5449  1.4436 -1.2193
  826MOL0     H11445   3.949   0.154   9.820 -0.3399 -1.0051  0.4768
  826MOL0     H11446   4.057   0.100   9.678  1.6003  0.6598  0.3034
  826MOL0     H11447   3.962  -0.123   9.724  1.8330 -0.1530 -2.7907
  826MOL0     H11448   3.821  -0.038   9.792 -2.4447 -0.2105 -2.2288
  826MOL0     H11449   3.766   0.087   9.596  2.8840  1.4717  2.9190
  826MOL0     H11450   3.909   0.023   9.512  1.7662 -0.2320 -0.5765
  826MOL0     H11451   3.803  -0.208   9.535  1.0755  0.7295 -1.2173
  826MOL0     H11452   3.673  -0.125   9.638  0.9130  0.2381  1.0028
  826MOL0     H11453   3.597   0.009   9.459  0.0707  0.3631 -0.2584
  826MOL0     H11454   3.714  -0.077   9.357  0.1845  0.0485  2.0517
  826MOL0     H11455   3.589  -0.283   9.362 -3.4730 -0.3900 -2.3400
  826MOL0     H11456   3.502  -0.242   9.512 -0.6708 -1.0948  0.3347
  826MOL0     H11457   3.393  -0.059   9.365  2.2051 -0.0634  2.8283
  826MOL0     H11458   3.473  -0.126   9.234 -0.2427  0.0408 -0.5065
  826MOL0     H11459   3.287  -0.261   9.444 -0.6305  1.0296  0.3439
  826MOL0     H11460   3.353  -0.360   9.306  0.5209 -0.1790  1.2461
  826MOL0     H11461   3.311  -0.280   9.061  1.0116  3.1258 -0.6082
  826MOL0     H11462   2.957  -0.169   8.931 -0.9368 -1.9924 -0.7379
  826MOL0     H11463   3.127  -0.112   8.886  4.3054 -3.7139 -3.5527
  826MOL0     H11464   3.186  -0.357   8.870 -1.0244 -1.1864  1.5337
  826MOL0     H11465   3.075  -0.297   8.742  1.5789 -1.0880 -0.8201
  826MOL0     H11466   3.006  -0.470   8.991 -1.3289  1.5025  0.3212
  826MOL0     H11467   3.009  -0.527   8.821 -1.6804 -1.8803  0.8544
  826MOL0     H11468   2.849  -0.310   8.813  0.1920  0.5290  0.4118
  826MOL0     H11469   2.807  -0.366   8.968 -0.4496  0.4852 -1.0787
  826MOL0     H11470   2.599  -0.331   8.933 -0.6539  0.8597  2.7584
  826MOL0     H11471   2.406  -0.256   9.007 -0.5877 -1.0523  0.1028
  826MOL0     H11472   2.272  -0.367   9.004  0.9682 -0.1425  0.5119
  826MOL0     H11473   2.369  -0.343   9.149 -0.0380  2.5627  0.6390
  826MOL0     H11474   2.310  -0.960   9.210 -0.1100 -0.9171  1.8101
  826MOL0     H11475   2.136  -1.095   9.344 -1.1778 -0.5038 -0.9286
  826MOL0     H11476   1.955  -1.217   9.414  1.3561 -0.0102 -0.6911
  826MOL0     H11477   1.977  -1.082   9.531  0.2815  0.6307 -1.0374
  826MOL0     H11478   1.820  -1.271   9.597  2.2082  0.3029 -0.1276
  826MOL0     H11479   1.729  -1.112   9.606 -1.2351 -0.3033 -0.3358
  826MOL0     H11480   1.713  -1.305   9.373  0.9159  0.7508  1.1062
  826MOL0     H11481   1.620  -1.147   9.389 -0.1983  1.3439  1.3619
  826MOL0     H11482   1.488  -1.359   9.454 -0.1399  1.0615 -0.4256
  826MOL0     H11483   1.576  -1.344   9.610  1.0960  3.0990  2.4395
  826MOL0     H11484   1.497  -1.102   9.596 -1.8542  0.7615  1.1043
  826MOL0     H11485   1.380  -1.231   9.632 -0.7480 -3.0699 -0.8443
  826MOL0     H11486   1.283  -1.072   9.482  1.0566 -0.9731  3.1896
  826MOL0     H11487   1.407  -1.054   9.371 -2.0626  0.7764 -1.2623
  826MOL0     H11488   1.363  -1.290   9.268 -0.3270  0.8143 -0.6331
  826MOL0     H11489   1.220  -1.189   9.269  0.3256  0.5879  1.0128
  826MOL0     H11490   1.273  -1.388   9.489 -1.2131 -0.8618  0.5187
  826MOL0     H11491   1.175  -1.406   9.338  0.4465  1.0336 -2.8041
  826MOL0     H11492   1.825  -0.825   9.241 -0.1419 -0.4792 -0.7878
  826MOL0     H11493   1.989  -0.692   9.114 -0.2668 -0.5939 -0.5454
  826MOL0     H11494   2.467  -0.806   8.966  0.3945 -1.0894 -2.1164
  826MOL0     H11495   2.667  -0.739   8.834  0.6326  0.9293  0.4253
  826MOL0     H11496   4.310  -0.043   9.991 -2.1413  0.3452  1.9650
  826MOL0     H11497   4.476   0.111  10.107 -0.8344 -0.0365  2.9144
  826MOL0     H11498   4.794   0.521   9.835  1.2303 -0.9692  0.6244
  826MOL0     H11499   4.945   0.716   9.909 -0.9322  3.6498  1.6693
  826MOL0     H11500   4.885   0.915  10.300 -1.7451 -0.9575 -1.3879
  826MOL0     H11501   4.978   0.756  10.300  2.8362  1.6381  2.1257
  826MOL0     H11502   5.128   0.927  10.389  0.5276  0.9419 -0.1508
  826MOL0     H11503   5.091   1.030  10.250  0.2512 -0.7421 -2.3613
  826MOL0     H11504   5.186   0.891  10.089 -1.5286  0.7778  0.1559
  826MOL0     H11505   5.223   0.759  10.196 -2.4171 -0.6668 -0.2176
  826MOL0     H11506   5.420   0.859  10.140 -0.2746 -3.1012  0.4724
  826MOL0     H11507   5.390   0.880  10.306 -2.7589  0.9815  0.9994
  826MOL0     H11508   5.453   1.276  10.187  2.3783 -0.7613  2.9918
  826MOL0     H11509   4.722   0.735  10.275  5.1279  0.4490  1.2083
  826MOL0     H11510   4.607   0.530  10.239  2.6612  1.2604  3.0488
  827MOL0     O11511  10.704   1.350   1.641 -0.6011  0.3161 -0.1704
  827MOL0     C11512  10.733   1.293   1.530 -0.4342 -1.3233 -0.8764
  827MOL0     O11513  10.663   1.198   1.459  0.2328 -0.7667 -0.3294
  827MOL0     C11514  10.547   1.138   1.507 -0.2788  0.2422  0.0279
  827MOL0     C11515  10.444   1.192   1.586 -0.4779  0.0468  0.1371
  827MOL0     C11516  10.331   1.113   1.610  0.3382  0.4753  0.1226
  827MOL0     C11517  10.310   0.984   1.549 -0.3994 -0.7952  0.9187
  827MOL0     O11518  10.188   0.920   1.569 -0.8991 -0.7680 -0.0035
  827MOL0     C11519  10.140   0.839   1.456 -0.0912  0.0881 -0.0272
  827MOL0     C11520   9.984   0.822   1.460  0.5533  0.4650 -0.1314
  827MOL0     C11521   9.942   0.733   1.572  0.1759  0.2962  0.3812
  827MOL0     C11522   9.788   0.705   1.579 -0.4271  0.4247  0.6922
  827MOL0     C11523   9.758   0.632   1.715 -0.3658  0.7045  1.1197
  827MOL0     C11524   9.610   0.627   1.749  0.0159  0.2804  0.4073
  827MOL0     C11525   9.586   0.576   1.897  0.2658  0.3510  1.1053
  827MOL0     C11526   9.603   0.672   2.017 -0.0476 -0.2500  0.2271
  827MOL0     N11527   9.497   0.776   2.007  1.1230 -1.2565 -0.3951
  827MOL0     C11528   9.376   0.775   2.085  0.7732  0.2476 -0.8352
  827MOL0     C11529   9.307   0.876   2.031 -0.6542 -0.6065 -0.2892
  827MOL0     C11530   9.185   0.940   2.089 -0.3389  0.0163  0.3090
  827MOL0     C11531   9.169   1.092   2.060  0.2312  0.3271 -0.1049
  827MOL0     C11532   9.049   1.128   1.973  0.9009 -0.0371  0.2545
  827MOL0     C11533   8.919   1.158   2.046  0.2689 -0.5504 -0.6175
  827MOL0     O11534   8.821   1.194   1.946  0.8290 -0.0078 -0.3902
  827MOL0     C11535   8.691   1.232   1.981 -0.3274  0.2503 -0.1951
  827MOL0     C11536   8.611   1.293   1.884 -0.7925 -0.0966  0.0983
  827MOL0     C11537   8.481   1.339   1.906 -0.1552  0.3432 -0.6973
  827MOL0     C11538   8.403   1.397   1.791 -0.3359  0.2531 -0.0839
  827MOL0     C11539   8.428   1.328   2.042 -0.3857 -0.0508 -0.6662
  827MOL0     C11540   8.287   1.368   2.083 -0.9997  0.9828 -0.2054
  827MOL0     O11541   8.272   1.355   2.217  0.9419  0.2057 -0.6736
  827MOL0     C11542   8.149   1.377   2.269  0.9677  0.0180  0.4131
  827MOL0     C11543   8.103   1.293   2.366 -0.2011 -0.2731 -0.4280
  827MOL0     C11544   7.981   1.330   2.436 -0.1781  0.7987  0.7242
  827MOL0     C11545   7.918   1.447   2.408 -0.3967 -0.4217 -0.3243
  827MOL0     O11546   7.823   1.472   2.500 -0.2810  0.4835 -0.5723
  827MOL0     C11547   7.693   1.432   2.445 -0.2985 -0.7716 -0.8364
  827MOL0     C11548   7.581   1.433   2.561 -0.2136  0.2238  0.5719
  827MOL0     C11549   7.521   1.571   2.580  0.8285 -0.0183 -0.7895
  827MOL0     C11550   7.396   1.565   2.658  0.8794 -0.2589  0.5578
  827MOL0     C11551   7.366   1.701   2.733  0.4635  0.0215  0.0599
  827MOL0     C11552   7.216   1.736   2.735  0.2289 -0.3627 -0.6282
  827MOL0     C11553   7.188   1.881   2.793  1.2362 -0.0915  0.0993
  827MOL0     C11554   7.244   1.912   2.931  0.4795  0.0054  0.0473
  827MOL0    Cl11555   7.171   2.061   2.992 -0.0741 -0.0511 -0.1963
  827MOL0     C11556   7.972   1.537   2.323  0.4880  0.7131 -0.2189
  827MOL0     C11557   8.078   1.500   2.252  0.3421  0.1139 -0.8931
  827MOL0     O11558   8.201   1.381   2.003  0.8655  0.6651  0.2385
  827MOL0     C11559   8.517   1.281   2.143  0.3446 -0.2488  0.3893
  827MOL0     C11560   8.642   1.229   2.118  0.0613 -0.6939  0.0518
  827MOL0     N11561   9.375   0.938   1.932 -0.6863  0.4101  0.0440
  827MOL0     N11562   9.486   0.886   1.923 -1.0209 -0.1589 -0.4258
  827MOL0     C11563  10.404   0.934   1.458  0.4766 -0.5007  1.4529
  827MOL0     C11564  10.517   1.022   1.439 -0.3121  0.4054  0.5559
  827MOL0     C11565  10.861   1.342   1.469 -0.4586  0.2485  1.1275
  827MOL0     C11566  10.931   1.267   1.368 -0.7204 -0.8732 -0.1780
  827MOL0     C11567  11.060   1.311   1.322 -1.4697  0.2768  0.3799
  827MOL0     C11568  11.124   1.424   1.378  0.4576 -0.7912  0.2659
  827MOL0     O11569  11.248   1.454   1.312  0.2786  0.7180  0.1581
  827MOL0     C11570  11.312   1.572   1.364 -0.3665 -0.9911  0.0358
  827MOL0     C11571  11.449   1.590   1.300 -0.6337 -0.6204 -0.2727
  827MOL0     C11572  11.434   1.618   1.148  0.7025  0.0428  0.0034
  827MOL0     C11573  11.570   1.607   1.080  0.9592 -1.1264  0.3646
  827MOL0     C11574  11.667   1.713   1.128  0.0668  0.3707 -0.8965
  827MOL0     C11575  11.757   1.784   1.169  0.2471 -0.1771 -0.3663
  827MOL0     C11576  11.055   1.495   1.477 -0.1182 -0.1189  0.0635
  827MOL0     C11577  10.930   1.454   1.518  0.3196 -0.4170  1.0365
  827MOL0     H11578  10.445   1.298   1.612  0.0671 -0.2389  1.3808
  827MOL0     H11579  10.260   1.136   1.690  2.4041 -0.9526  2.5129
  827MOL0     H11580  10.169   0.885   1.361  0.4955  2.8578  1.3904
  827MOL0     H11581  10.187   0.742   1.474  1.7369  1.2933  2.0920
  827MOL0     H11582   9.949   0.926   1.469 -1.8043 -0.1542 -1.3042
  827MOL0     H11583   9.948   0.781   1.365 -0.5559  0.3490  0.3315
  827MOL0     H11584   9.996   0.638   1.579  0.9241  0.5910 -0.9913
  827MOL0     H11585   9.976   0.789   1.660 -0.0139  1.9158 -0.5383
  827MOL0     H11586   9.731   0.799   1.576 -1.6853 -0.3329  0.0497
  827MOL0     H11587   9.773   0.649   1.487 -0.8527  2.6247 -0.6499
  827MOL0     H11588   9.806   0.534   1.728  2.5179  2.0378  1.4511
  827MOL0     H11589   9.814   0.686   1.792 -0.6515 -0.3833  2.1229
  827MOL0     H11590   9.575   0.730   1.745 -2.5157 -0.5223 -0.8987
  827MOL0     H11591   9.563   0.570   1.668 -0.8413 -1.0592  1.7806
  827MOL0     H11592   9.485   0.536   1.907 -0.2041  0.7126 -1.5575
  827MOL0     H11593   9.653   0.493   1.920 -0.8027 -1.3386 -1.4275
  827MOL0     H11594   9.708   0.703   2.022 -0.3757  0.7384  2.3447
  827MOL0     H11595   9.586   0.615   2.108  1.1855 -1.2526 -0.1538
  827MOL0     H11596   9.349   0.704   2.163 -2.1569  0.8060 -1.2219
  827MOL0     H11597   9.098   0.895   2.042 -0.8590  3.4070 -2.3755
  827MOL0     H11598   9.170   0.913   2.194 -3.4450 -1.5617 -0.4298
  827MOL0     H11599   9.260   1.138   2.019  0.3024  2.6521  2.3700
  827MOL0     H11600   9.154   1.146   2.154  0.7009 -1.6152  1.1429
  827MOL0     H11601   9.023   1.048   1.903 -0.4601  0.1641  0.4992
  827MOL0     H11602   9.065   1.225   1.923 -0.5732  1.3555  2.3191
  827MOL0     H11603   8.937   1.237   2.119 -0.9834 -0.5433 -0.2845
  827MOL0     H11604   8.886   1.065   2.092  0.1930 -0.5825 -0.7359
  827MOL0     H11605   8.647   1.313   1.784 -0.3194 -2.0886 -0.1831
  827MOL0     H11606   8.369   1.500   1.800  3.2332  1.4437  1.5618
  827MOL0     H11607   8.467   1.397   1.702 -0.6451  0.8633 -0.3109
  827MOL0     H11608   8.318   1.329   1.775 -1.6144  2.0514 -1.3491
  827MOL0     H11609   8.164   1.206   2.390 -0.6253 -0.3506  0.4300
  827MOL0     H11610   7.969   1.266   2.524  1.6098  1.0125  1.1647
  827MOL0     H11611   7.669   1.502   2.364  0.5346 -2.1595 -2.3262
  827MOL0     H11612   7.689   1.331   2.404  1.0149  0.6994 -5.1227
  827MOL0     H11613   7.506   1.371   2.512  0.1708 -0.4492  0.8212
  827MOL0     H11614   7.623   1.391   2.653  1.1247  0.4105  0.0814
  827MOL0     H11615   7.508   1.632   2.490  1.5938  3.1936  1.0971
  827MOL0     H11616   7.588   1.623   2.650 -0.6482  0.5336  0.2522
  827MOL0     H11617   7.311   1.551   2.590  0.9477  0.3110  0.3483
  827MOL0     H11618   7.390   1.477   2.723 -3.6905 -1.4668 -1.0710
  827MOL0     H11619   7.409   1.787   2.681  2.5949  0.5004  2.4707
  827MOL0     H11620   7.423   1.711   2.825  0.6464  1.8122 -0.2199
  827MOL0     H11621   7.170   1.733   2.636  2.2872  2.7797 -1.8530
  827MOL0     H11622   7.167   1.664   2.801 -1.3923  2.4806  1.5220
  827MOL0     H11623   7.080   1.897   2.785  1.4076 -0.0392 -3.2519
  827MOL0     H11624   7.238   1.960   2.736  1.1259  0.1117  0.2829
  827MOL0     H11625   7.352   1.925   2.927  0.4346  2.2379  2.8090
  827MOL0     H11626   7.232   1.823   2.994  4.6421  0.7254  2.1742
  827MOL0     H11627   7.908   1.624   2.315 -0.8633 -0.0799  1.3017
  827MOL0     H11628   8.098   1.571   2.173 -2.8185  2.2392  0.0123
  827MOL0     H11629   8.486   1.280   2.247  1.6627 -1.5669  0.8038
  827MOL0     H11630   8.709   1.202   2.199 -0.0722  1.6277  0.9917
  827MOL0     H11631  10.392   0.847   1.393 -2.4970  1.5685 -1.0515
  827MOL0     H11632  10.581   0.992   1.357 -0.6740  4.0217 -1.2625
  827MOL0     H11633  10.878   1.177   1.338 -3.0628 -0.4055  2.1629
  827MOL0     H11634  11.118   1.259   1.246  0.7222  2.4490  0.4416
  827MOL0     H11635  11.244   1.648   1.324 -1.4257 -1.7412  0.3471
  827MOL0     H11636  11.321   1.575   1.473  1.3083 -3.5412  0.0563
  827MOL0     H11637  11.513   1.506   1.328  0.3077  0.3964  0.6922
  827MOL0     H11638  11.483   1.681   1.349  1.6179 -1.4072 -0.2766
  827MOL0     H11639  11.399   1.720   1.132 -2.7680 -0.5095  2.8098
  827MOL0     H11640  11.364   1.549   1.098  1.6512  0.2435 -1.6757
  827MOL0     H11641  11.558   1.611   0.971 -1.1036  2.4140  0.5610
  827MOL0     H11642  11.624   1.514   1.100 -0.4509 -1.8498  0.8871
  827MOL0     H11643  11.831   1.848   1.213  0.6804 -0.1461 -1.1201
  827MOL0     H11644  11.103   1.577   1.529  0.8574 -0.7342  0.1624
  827MOL0     H11645  10.878   1.514   1.593 -0.4978  0.6521 -0.3296
  828MOL0     O11646   7.253   1.022   1.050 -0.2148  0.5713  0.0836
  828MOL0     C11647   7.217   1.083   0.947  0.2864 -0.3232 -0.2189
  828MOL0     O11648   7.294   1.116   0.841  0.3628 -0.8840  1.1008
  828MOL0     C11649   7.428   1.075   0.824  1.0444 -1.0234 -1.0249
  828MOL0     C11650   7.487   1.109   0.702  0.1647  0.1493  0.1479
  828MOL0     C11651   7.617   1.066   0.665  0.5543 -0.6340  0.2120
  828MOL0     C11652   7.697   0.987   0.748 -0.3240  0.9695 -0.0577
  828MOL0     O11653   7.821   0.925   0.717  0.1461 -0.5497 -0.0478
  828MOL0     C11654   7.882   0.973   0.600 -0.2817  0.0307 -0.1976
  828MOL0     C11655   8.037   0.931   0.593  0.7671 -0.2615 -0.3049
  828MOL0     C11656   8.103   1.013   0.478 -0.4218  0.1947 -0.8087
  828MOL0     C11657   8.256   0.979   0.496  0.4470 -0.4161  0.0889
  828MOL0     C11658   8.335   1.034   0.369 -0.1918  0.1162  0.9166
  828MOL0     C11659   8.472   0.971   0.375 -0.2177  0.2164 -0.4966
  828MOL0     C11660   8.548   1.017   0.253  0.5251 -0.4436  0.1790
  828MOL0     C11661   8.704   0.999   0.260  0.2390 -0.5623 -0.4760
  828MOL0     N11662   8.765   0.973   0.131  0.5075 -0.2875  1.0112
  828MOL0     C11663   8.854   1.058   0.081  0.2570 -0.4920  0.4851
  828MOL0     C11664   8.872   1.018  -0.051 -1.4792  0.8668  0.3369
  828MOL0     C11665   8.956   1.106  -0.154 -0.3469  0.0733  1.0360
  828MOL0     C11666   8.885   1.232  -0.206 -0.6799 -0.1688  0.7712
  828MOL0     C11667   8.763   1.206  -0.299 -0.6574  0.2233  0.3332
  828MOL0     C11668   8.629   1.172  -0.237 -0.7651 -0.5245 -0.5625
  828MOL0     O11669   8.613   1.263  -0.129  0.8748 -0.5918 -1.6273
  828MOL0     C11670   8.493   1.255  -0.064 -0.8289 -0.9317 -1.3324
  828MOL0     C11671   8.467   1.362   0.027  0.1728  0.2853 -0.4763
  828MOL0     C11672   8.344   1.374   0.098 -1.1627 -0.2740  0.5693
  828MOL0     C11673   8.312   1.499   0.187 -0.0907  0.2489  1.0749
  828MOL0     C11674   8.247   1.282   0.070  0.1009  0.1017  1.1675
  828MOL0     C11675   8.107   1.283   0.140 -0.6982  0.4878 -0.2839
  828MOL0     O11676   8.011   1.234   0.064  0.0227  0.5660  0.1320
  828MOL0     C11677   7.887   1.228   0.120  0.3595  0.2392 -0.2584
  828MOL0     C11678   7.813   1.107   0.123  0.6726 -0.4281  0.2191
  828MOL0     C11679   7.683   1.098   0.163  0.9718 -0.0133 -1.4268
  828MOL0     C11680   7.612   1.209   0.213  0.0652 -0.4618 -0.0008
  828MOL0     O11681   7.478   1.194   0.250  0.0856  0.1781  0.2418
  828MOL0     C11682   7.402   1.303   0.293  0.0417 -0.1465 -0.9798
  828MOL0     C11683   7.280   1.241   0.371  0.5394  0.9687  0.3930
  828MOL0     C11684   7.157   1.307   0.306  1.7273  0.1187 -0.2101
  828MOL0     C11685   7.019   1.260   0.365  0.0190 -0.8836 -0.8183
  828MOL0     C11686   6.979   1.126   0.307 -0.4329  0.3862 -0.7376
  828MOL0     C11687   6.830   1.108   0.343  1.0133  0.1434 -0.3241
  828MOL0     C11688   6.802   1.034   0.481  0.1582 -0.4425  0.0159
  828MOL0     C11689   6.810   1.131   0.604  0.5829 -0.0716 -0.6280
  828MOL0    Cl11690   6.727   1.038   0.723 -0.1425 -0.1523 -0.4295
  828MOL0     C11691   7.687   1.325   0.226  0.8690  0.3572 -0.0021
  828MOL0     C11692   7.819   1.343   0.174 -0.0755  0.6420  0.8413
  828MOL0     O11693   8.094   1.295   0.264  0.2659 -0.5911  0.5446
  828MOL0     C11694   8.267   1.175  -0.017 -1.2609 -0.2704  0.0594
  828MOL0     C11695   8.391   1.158  -0.077 -0.6096 -0.1489  0.1794
  828MOL0     N11696   8.799   0.900  -0.077 -0.0060  0.5915  0.0267
  828MOL0     N11697   8.730   0.880   0.035 -0.3342 -0.4813 -0.0232
  828MOL0     C11698   7.637   0.954   0.871 -0.7543 -0.2941  0.1294
  828MOL0     C11699   7.512   0.996   0.905 -0.5505 -0.0093  0.5014
  828MOL0     C11700   7.088   1.166   0.969 -0.3993 -0.4516 -1.2911
  828MOL0     C11701   7.002   1.150   1.081  0.1954  0.3008 -0.7091
  828MOL0     C11702   6.877   1.211   1.090 -0.0751 -0.0062 -0.5629
  828MOL0     C11703   6.835   1.303   0.992 -0.7302 -0.7250  0.3245
  828MOL0     O11704   6.730   1.383   1.008  0.3749 -0.2619  0.2541
  828MOL0     C11705   6.614   1.322   1.067  0.6858  0.3507  0.5914
  828MOL0     C11706   6.509   1.429   1.067  0.2769 -0.1303 -0.9312
  828MOL0     C11707   6.458   1.473   0.928  0.1170 -0.0245 -0.0684
  828MOL0     C11708   6.341   1.572   0.938  0.3446  0.5706 -0.5922
  828MOL0     C11709   6.308   1.628   0.806 -0.2238 -0.0031  0.0845
  828MOL0     C11710   6.270   1.670   0.690  0.4076 -0.1210  0.2493
  828MOL0     C11711   6.929   1.320   0.889  0.2755  0.6448  1.2913
  828MOL0     C11712   7.052   1.257   0.875  0.1134 -0.6247 -0.0560
  828MOL0     H11713   7.420   1.164   0.637  0.9884  0.6769 -0.2714
  828MOL0     H11714   7.650   1.092   0.565  1.4683 -1.0296  0.3986
  828MOL0     H11715   7.818   0.945   0.516  1.9477  2.1336 -2.7848
  828MOL0     H11716   7.877   1.082   0.597 -4.8861  0.0127 -3.5815
  828MOL0     H11717   8.085   0.956   0.688  4.7919 -0.4989 -2.0932
  828MOL0     H11718   8.057   0.827   0.567  2.1301  0.2499 -1.4034
  828MOL0     H11719   8.074   0.975   0.380  0.3141 -0.7283 -0.6828
  828MOL0     H11720   8.078   1.119   0.485  2.1484  0.8950 -1.1534
  828MOL0     H11721   8.288   1.034   0.585 -0.1656  0.2481 -0.0897
  828MOL0     H11722   8.267   0.872   0.514 -0.3941  0.0729  5.0737
  828MOL0     H11723   8.291   1.012   0.272  2.5323 -0.6864 -0.2175
  828MOL0     H11724   8.342   1.142   0.390 -0.4667  0.2306  0.4481
  828MOL0     H11725   8.515   1.013   0.466  0.8000 -0.7139 -0.5340
  828MOL0     H11726   8.467   0.863   0.385 -2.6465  0.5160  3.3959
  828MOL0     H11727   8.512   0.950   0.174 -1.6683  2.1565 -1.1796
  828MOL0     H11728   8.527   1.122   0.231 -0.2397 -0.6485 -0.1066
  828MOL0     H11729   8.716   0.911   0.324  0.4628  2.0013  3.2738
  828MOL0     H11730   8.749   1.085   0.310  2.6950 -1.5373 -0.8599
  828MOL0     H11731   8.897   1.146   0.128  0.3808 -0.0088 -0.4997
  828MOL0     H11732   9.040   1.126  -0.086 -0.1883  0.3071  0.7701
  828MOL0     H11733   8.990   1.045  -0.238 -1.7178  0.3880  0.2213
  828MOL0     H11734   8.968   1.279  -0.260  1.1305 -4.0754 -0.2409
  828MOL0     H11735   8.862   1.290  -0.116  1.2353 -1.1010  1.9485
  828MOL0     H11736   8.784   1.126  -0.370  2.0049  0.5029  0.6958
  828MOL0     H11737   8.754   1.304  -0.348  3.0207  0.2517 -0.5991
  828MOL0     H11738   8.622   1.070  -0.199 -2.4597 -1.0903 -2.1977
  828MOL0     H11739   8.544   1.179  -0.306 -1.0713  0.8085 -0.0722
  828MOL0     H11740   8.541   1.440   0.039  2.0467 -1.4780  0.0487
  828MOL0     H11741   8.215   1.539   0.158 -0.1515 -1.4343 -1.3665
  828MOL0     H11742   8.328   1.481   0.294  2.2956  3.1050  1.3148
  828MOL0     H11743   8.385   1.579   0.173 -2.0390  1.9898  0.4097
  828MOL0     H11744   7.862   1.023   0.076 -0.0494  0.2721 -1.8995
  828MOL0     H11745   7.634   1.001   0.165 -0.5096  0.6985 -0.2792
  828MOL0     H11746   7.446   1.384   0.352 -0.7950  1.5170 -2.5249
  828MOL0     H11747   7.374   1.359   0.203 -1.6049 -0.3640 -0.6258
  828MOL0     H11748   7.275   1.132   0.367  3.3191  0.7874 -0.5404
  828MOL0     H11749   7.282   1.265   0.478 -0.7472  1.0544  0.4099
  828MOL0     H11750   7.168   1.273   0.202  0.0991 -2.5114  0.3985
  828MOL0     H11751   7.167   1.414   0.323 -1.5033  0.3376  0.9870
  828MOL0     H11752   7.027   1.261   0.474  0.1648 -1.7831 -0.8120
  828MOL0     H11753   6.952   1.341   0.334  1.3207 -0.6295 -3.1619
  828MOL0     H11754   7.042   1.045   0.346 -2.0348 -0.4603  0.2373
  828MOL0     H11755   6.990   1.126   0.199  1.6516 -1.1770 -0.5802
  828MOL0     H11756   6.768   1.198   0.339  0.6261 -0.1445 -0.9188
  828MOL0     H11757   6.801   1.052   0.254 -1.4753 -2.1581  1.7822
  828MOL0     H11758   6.864   0.944   0.487 -0.4741 -0.9228 -0.5029
  828MOL0     H11759   6.696   1.005   0.481  0.2278 -0.9451  2.4480
  828MOL0     H11760   6.768   1.226   0.569  3.2629  1.1085 -0.9081
  828MOL0     H11761   6.910   1.153   0.644  0.7633 -1.4369 -0.2781
  828MOL0     H11762   7.640   1.417   0.258 -1.4612  0.5276 -3.4315
  828MOL0     H11763   7.862   1.442   0.163  0.2152  0.6036  1.5771
  828MOL0     H11764   8.181   1.113  -0.038 -2.1448  1.5792 -2.2512
  828MOL0     H11765   8.419   1.067  -0.128 -0.5130  0.7732 -1.4802
  828MOL0     H11766   7.693   0.893   0.940 -0.8506  1.3201  1.7061
  828MOL0     H11767   7.468   0.978   1.003 -2.3425  1.5769  0.0361
  828MOL0     H11768   7.036   1.079   1.155 -0.8661 -0.3675 -0.8389
  828MOL0     H11769   6.820   1.186   1.179 -0.0399  1.5855 -0.0492
  828MOL0     H11770   6.568   1.236   1.017  0.6806 -0.3078  1.6916
  828MOL0     H11771   6.628   1.283   1.168  1.3111 -3.0347 -0.6718
  828MOL0     H11772   6.562   1.510   1.118  2.5454 -0.3767 -2.7380
  828MOL0     H11773   6.425   1.397   1.130  1.3495  1.9514  1.7787
  828MOL0     H11774   6.429   1.391   0.862  0.6292 -0.8160  0.6721
  828MOL0     H11775   6.543   1.527   0.886  1.1677  2.1529  4.2910
  828MOL0     H11776   6.361   1.650   1.011  0.7022 -1.0891  1.1705
  828MOL0     H11777   6.256   1.506   0.960  0.6190 -0.2308 -1.7951
  828MOL0     H11778   6.228   1.715   0.603  1.1744 -0.5777 -0.3725
  828MOL0     H11779   6.902   1.398   0.819  1.7595 -0.1053 -0.1896
  828MOL0     H11780   7.109   1.299   0.793 -0.4086 -0.8417 -0.5382
  829MOL0     O11781   8.939   2.038   8.574  0.6859 -0.1363  0.2588
  829MOL0     C11782   8.913   1.928   8.617  0.7234 -0.1102  0.0210
  829MOL0     O11783   8.795   1.877   8.646  0.7218  0.8666 -0.4697
  829MOL0     C11784   8.677   1.922   8.592  0.2544  0.3300  0.3131
  829MOL0     C11785   8.558   1.927   8.660 -0.4031  0.3122 -0.0359
  829MOL0     C11786   8.435   1.970   8.598  0.1870 -0.3356  0.4238
  829MOL0     C11787   8.437   2.014   8.468  0.3500  0.0740 -0.2292
  829MOL0     O11788   8.313   2.050   8.413 -0.6814 -0.3062 -0.3507
  829MOL0     C11789   8.309   2.136   8.297  0.3963 -1.0832  0.6042
  829MOL0     C11790   8.163   2.189   8.278 -0.3568  0.1707 -0.4886
  829MOL0     C11791   8.069   2.079   8.218 -0.0168 -0.2235 -0.2980
  829MOL0     C11792   7.940   2.139   8.177  0.9474 -0.1135  0.3182
  829MOL0     C11793   7.844   2.026   8.145 -0.0455  1.2349  0.2198
  829MOL0     C11794   7.699   2.065   8.106 -0.0154 -0.2637 -0.6458
  829MOL0     C11795   7.608   1.942   8.091  0.4512  0.8129 -0.1008
  829MOL0     C11796   7.464   1.985   8.095  0.3640  0.5589 -0.2017
  829MOL0     N11797   7.380   1.915   8.001  0.3154  0.0323  0.2053
  829MOL0     C11798   7.373   1.930   7.860 -0.3080 -0.5786 -0.6419
  829MOL0     C11799   7.271   1.837   7.831  0.1524  0.8864  0.2221
  829MOL0     C11800   7.209   1.810   7.693 -0.6121 -0.2787 -0.6925
  829MOL0     C11801   7.258   1.674   7.660 -1.5404  0.4358  0.9025
  829MOL0     C11802   7.410   1.635   7.634 -0.7954  0.0514  0.5365
  829MOL0     C11803   7.448   1.685   7.493 -0.5951 -0.8719  0.5041
  829MOL0     O11804   7.592   1.708   7.513 -0.0817  0.8609  0.6461
  829MOL0     C11805   7.668   1.777   7.420 -0.5187  0.5352  0.3998
  829MOL0     C11806   7.795   1.810   7.458 -0.4857 -0.9177 -0.5256
  829MOL0     C11807   7.885   1.895   7.394  0.6016 -0.3258 -0.0982
  829MOL0     C11808   8.007   1.937   7.458  0.3538  0.2292 -0.4950
  829MOL0     C11809   7.841   1.938   7.271  0.6005 -1.0084 -0.1979
  829MOL0     C11810   7.929   2.023   7.186 -0.2063 -0.2867 -0.0592
  829MOL0     O11811   8.047   1.958   7.151  0.7312 -0.1028  0.4435
  829MOL0     C11812   8.128   2.017   7.058  0.1183 -0.2969 -0.0377
  829MOL0     C11813   8.165   1.950   6.949  0.9640  0.1810 -0.0270
  829MOL0     C11814   8.252   2.003   6.852 -0.0771  0.0448 -0.4112
  829MOL0     C11815   8.312   2.129   6.871  1.4691 -0.7458  0.6789
  829MOL0     O11816   8.413   2.186   6.798  0.3874  0.8812  0.1538
  829MOL0     C11817   8.442   2.112   6.682  0.1606 -1.2340 -0.6955
  829MOL0     C11818   8.552   2.177   6.598 -0.6088  0.3601 -0.0641
  829MOL0     C11819   8.700   2.194   6.663 -0.5776 -0.6614 -0.1518
  829MOL0     C11820   8.809   2.225   6.554  0.1050  0.0292  1.3894
  829MOL0     C11821   8.846   2.103   6.478  0.0003 -0.7225 -1.2907
  829MOL0     C11822   8.962   2.128   6.382 -0.7635  0.2954 -0.8959
  829MOL0     C11823   8.925   2.229   6.275 -0.4219  0.3756  0.4807
  829MOL0     C11824   8.986   2.374   6.305  0.2612  0.0537  0.3872
  829MOL0    Cl11825   8.958   2.480   6.166 -0.0782 -0.0873 -0.3085
  829MOL0     C11826   8.289   2.194   6.990  0.4210 -0.2884 -0.5395
  829MOL0     C11827   8.187   2.143   7.075 -0.5763 -0.7962 -0.7142
  829MOL0     O11828   7.890   2.128   7.141  0.5476 -0.5879  0.7563
  829MOL0     C11829   7.713   1.906   7.217  0.2670 -1.0714  0.1726
  829MOL0     C11830   7.629   1.825   7.300 -0.0270  0.6717  0.2812
  829MOL0     N11831   7.216   1.782   7.946 -0.6990 -0.0060 -0.7999
  829MOL0     N11832   7.288   1.831   8.042 -0.2308 -0.4965 -0.6032
  829MOL0     C11833   8.556   2.008   8.394  0.0233  0.1731  0.8027
  829MOL0     C11834   8.672   1.974   8.460 -0.2892  0.2013 -0.6254
  829MOL0     C11835   9.036   1.848   8.657 -1.1953 -0.1446 -0.4784
  829MOL0     C11836   9.139   1.823   8.567 -0.5529  0.0113 -0.7038
  829MOL0     C11837   9.255   1.747   8.609 -0.0848  0.4276 -0.2565
  829MOL0     C11838   9.272   1.712   8.736  0.0657 -0.2778  0.1540
  829MOL0     O11839   9.388   1.638   8.771  0.9167 -0.3661 -0.6869
  829MOL0     C11840   9.373   1.565   8.894 -0.1415  0.4422  0.8355
  829MOL0     C11841   9.510   1.493   8.911 -0.5549  0.3799 -0.1296
  829MOL0     C11842   9.524   1.446   9.060 -0.5366 -0.0610 -0.1029
  829MOL0     C11843   9.464   1.300   9.068  0.3389 -0.7450  0.3035
  829MOL0     C11844   9.574   1.207   9.078 -0.6757 -0.3838  0.4036
  829MOL0     C11845   9.671   1.137   9.088 -0.2551  0.3523 -0.2450
  829MOL0     C11846   9.173   1.744   8.831  0.1085 -0.4841  0.3770
  829MOL0     C11847   9.052   1.808   8.789 -0.5084 -0.4008 -0.4690
  829MOL0     H11848   8.561   1.873   8.755  1.3999  0.4573  0.0313
  829MOL0     H11849   8.340   1.969   8.651  0.9396  0.6888  1.8662
  829MOL0     H11850   8.382   2.218   8.295  0.8913 -1.5074 -1.5146
  829MOL0     H11851   8.329   2.079   8.206  2.1339  1.5334 -0.7948
  829MOL0     H11852   8.113   2.219   8.370 -0.3658 -0.1773 -0.3784
  829MOL0     H11853   8.171   2.275   8.210 -0.4132 -0.7240 -1.6596
  829MOL0     H11854   8.117   2.040   8.127  0.8192  1.0524 -0.4286
  829MOL0     H11855   8.062   1.998   8.291  0.8203 -1.9106 -2.0010
  829MOL0     H11856   7.894   2.201   8.255  0.1554 -0.5774  0.2305
  829MOL0     H11857   7.938   2.205   8.090  1.4449 -0.9592 -0.3434
  829MOL0     H11858   7.876   1.962   8.062  3.4458  1.0140  1.5986
  829MOL0     H11859   7.841   1.967   8.237  1.0809  0.2705 -0.3290
  829MOL0     H11860   7.665   2.140   8.178  3.7601  0.5531  0.5344
  829MOL0     H11861   7.715   2.118   8.011 -0.9718 -1.2670 -1.3924
  829MOL0     H11862   7.615   1.896   7.992 -3.1432 -0.0845 -0.1010
  829MOL0     H11863   7.636   1.857   8.154  0.0672 -0.7606 -1.9700
  829MOL0     H11864   7.445   2.092   8.086 -0.6148  0.7199  2.5891
  829MOL0     H11865   7.434   1.962   8.198  1.9371  3.7118  1.1187
  829MOL0     H11866   7.423   1.998   7.792  1.3083  0.3324  1.3374
  829MOL0     H11867   7.101   1.824   7.692 -0.4041  1.7192 -1.4423
  829MOL0     H11868   7.256   1.877   7.619  1.4933  1.4260  1.9845
  829MOL0     H11869   7.209   1.655   7.564 -0.3726  1.4874  0.0555
  829MOL0     H11870   7.225   1.595   7.728 -0.0505 -0.1418  0.9987
  829MOL0     H11871   7.424   1.527   7.636 -2.4121 -0.5457 -4.4256
  829MOL0     H11872   7.480   1.686   7.701  0.8438  0.4956 -1.3673
  829MOL0     H11873   7.391   1.776   7.471 -0.2558 -0.4615  1.2668
  829MOL0     H11874   7.430   1.612   7.414  2.6517  1.4909 -2.7466
  829MOL0     H11875   7.821   1.766   7.554 -0.8037 -2.6300 -1.1948
  829MOL0     H11876   7.991   2.039   7.495 -0.2737  0.1967 -0.6700
  829MOL0     H11877   8.019   1.881   7.551 -0.5017  0.1601 -0.4198
  829MOL0     H11878   8.092   1.946   7.390 -0.5942  1.6250 -1.5631
  829MOL0     H11879   8.115   1.853   6.946  1.2040  0.0820 -1.7819
  829MOL0     H11880   8.267   1.949   6.759  1.2590 -0.9834  0.3584
  829MOL0     H11881   8.459   2.006   6.702 -2.7806 -1.7537 -0.5407
  829MOL0     H11882   8.351   2.111   6.622  0.1917 -1.0021 -0.7516
  829MOL0     H11883   8.566   2.112   6.511  2.4237  3.9803 -2.6250
  829MOL0     H11884   8.509   2.274   6.572 -0.8566  0.0439 -0.8703
  829MOL0     H11885   8.730   2.110   6.726  2.2440  0.2161 -0.1908
  829MOL0     H11886   8.698   2.286   6.723  1.1749  1.3203 -2.9366
  829MOL0     H11887   8.772   2.301   6.485  1.9211 -0.1178  0.1737
  829MOL0     H11888   8.904   2.264   6.591 -0.1325  2.9998 -0.7410
  829MOL0     H11889   8.754   2.078   6.423 -1.3720  2.7461 -0.8385
  829MOL0     H11890   8.866   2.017   6.542 -0.1785 -0.2488 -0.5818
  829MOL0     H11891   9.055   2.166   6.426 -1.8127  0.6901  1.0713
  829MOL0     H11892   8.994   2.032   6.340 -1.7920  0.5985 -2.4675
  829MOL0     H11893   8.817   2.235   6.262 -0.5404  0.1272  1.2899
  829MOL0     H11894   8.975   2.189   6.187  2.7623 -0.7361  2.5811
  829MOL0     H11895   9.096   2.379   6.310  0.2011  3.3180  0.5332
  829MOL0     H11896   8.953   2.413   6.401  1.6923 -1.0524  1.3828
  829MOL0     H11897   8.340   2.285   7.021  0.4468 -0.8961  1.2753
  829MOL0     H11898   8.166   2.196   7.167  0.1693 -2.7504  0.6682
  829MOL0     H11899   7.689   1.934   7.115  0.1195  0.4581  0.5961
  829MOL0     H11900   7.529   1.807   7.261  0.2086 -1.0021  0.3871
  829MOL0     H11901   8.559   2.054   8.296 -0.3212  1.7618  1.5172
  829MOL0     H11902   8.765   1.959   8.406  0.0655 -2.5300  0.5378
  829MOL0     H11903   9.132   1.854   8.463 -1.0418  0.6365 -0.4907
  829MOL0     H11904   9.326   1.723   8.530  0.1599  1.5856 -0.4051
  829MOL0     H11905   9.368   1.638   8.976  0.2621  1.1052  0.2853
  829MOL0     H11906   9.288   1.496   8.900 -1.2905  1.8257  1.3803
  829MOL0     H11907   9.591   1.559   8.880 -0.0083 -0.0383  0.3821
  829MOL0     H11908   9.517   1.406   8.845 -0.8750 -1.5228  2.2121
  829MOL0     H11909   9.484   1.516   9.134  1.4578 -1.4308  2.3842
  829MOL0     H11910   9.630   1.451   9.086 -0.7749  0.0408  0.8899
  829MOL0     H11911   9.400   1.273   8.983  0.5908  2.8400 -1.1577
  829MOL0     H11912   9.403   1.295   9.159  1.9617 -0.9399  1.4224
  829MOL0     H11913   9.753   1.069   9.095 -1.0952 -0.6510  0.0465
  829MOL0     H11914   9.184   1.728   8.938  1.1170  2.9336  0.8975
  829MOL0     H11915   8.972   1.838   8.856  1.9908  1.7229  1.7919
  830MOL0     O11916   6.694   1.549   7.224  0.4708 -0.1815 -1.0260
  830MOL0     C11917   6.697   1.510   7.343 -0.1978 -0.0830 -1.0088
  830MOL0     O11918   6.815   1.474   7.415  0.1285  0.0641  0.1245
  830MOL0     C11919   6.933   1.489   7.354 -0.9387  0.6443 -0.7602
  830MOL0     C11920   7.018   1.385   7.331 -1.3184 -0.1365  0.4500
  830MOL0     C11921   7.143   1.404   7.265  0.0839  0.0359  0.5307
  830MOL0     C11922   7.201   1.536   7.243 -0.2080  0.8616 -0.8939
  830MOL0     O11923   7.323   1.574   7.202  0.1390 -0.1113  0.7460
  830MOL0     C11924   7.412   1.463   7.180  0.2282 -0.1383  0.3960
  830MOL0     C11925   7.554   1.506   7.153 -0.5294  0.6581 -0.5099
  830MOL0     C11926   7.659   1.395   7.178 -0.8130  0.5664  0.1541
  830MOL0     C11927   7.799   1.455   7.177 -0.3103  0.3708 -0.2741
  830MOL0     C11928   7.911   1.354   7.199  0.1287  0.4650 -0.0978
  830MOL0     C11929   8.046   1.409   7.151 -0.3248 -1.0213  0.3647
  830MOL0     C11930   8.101   1.526   7.234  0.0677 -0.5278 -0.1973
  830MOL0     C11931   8.119   1.490   7.380  0.8052  0.0483 -0.3833
  830MOL0     N11932   8.198   1.589   7.457  0.2005 -0.7176 -0.9708
  830MOL0     C11933   8.317   1.646   7.421  0.5539 -0.1198  0.4991
  830MOL0     C11934   8.338   1.738   7.519  0.2065  0.9808  0.1562
  830MOL0     C11935   8.452   1.836   7.511  0.8291 -0.1459  0.0788
  830MOL0     C11936   8.410   1.978   7.482  0.3061  1.3476  0.3522
  830MOL0     C11937   8.377   2.001   7.336 -0.2590 -0.2687  0.2084
  830MOL0     C11938   8.503   2.015   7.254 -0.2070  0.1884 -0.2302
  830MOL0     O11939   8.546   1.885   7.212  0.5614 -0.5456 -0.0425
  830MOL0     C11940   8.655   1.875   7.131  0.1105  0.3294 -0.4046
  830MOL0     C11941   8.717   1.756   7.119 -0.5339  0.1191 -1.1052
  830MOL0     C11942   8.825   1.725   7.039 -0.5577  0.5973 -0.9934
  830MOL0     C11943   8.873   1.580   7.044  0.2157  0.6264 -0.3583
  830MOL0     C11944   8.873   1.823   6.960  1.3052 -0.2890  0.7293
  830MOL0     C11945   8.999   1.812   6.877  0.3272 -0.0190 -0.1802
  830MOL0     O11946   9.029   1.908   6.780 -0.2642  0.0158  0.6258
  830MOL0     C11947   9.150   1.886   6.713  0.1338 -0.2433 -0.4490
  830MOL0     C11948   9.273   1.952   6.749  0.3225 -0.1618 -0.1191
  830MOL0     C11949   9.390   1.944   6.669 -0.9922 -0.4955 -0.6405
  830MOL0     C11950   9.393   1.871   6.548 -0.3600  1.3702 -0.4519
  830MOL0     O11951   9.500   1.847   6.472  0.3078 -0.0946 -0.3966
  830MOL0     C11952   9.626   1.823   6.536 -0.2813 -0.4774 -0.0667
  830MOL0     C11953   9.728   1.753   6.448  0.4577  0.2059  0.1150
  830MOL0     C11954   9.873   1.751   6.500 -0.2957 -0.1158  0.4555
  830MOL0     C11955   9.956   1.664   6.417  0.4402  0.7146  0.4940
  830MOL0     C11956  10.102   1.681   6.456 -0.5245  0.4009 -0.3844
  830MOL0     C11957  10.148   1.812   6.389 -0.3452  0.1803 -0.2784
  830MOL0     C11958  10.304   1.822   6.372 -0.5012  0.1083  0.3051
  830MOL0     C11959  10.385   1.835   6.496  0.0067  0.4007  0.1788
  830MOL0    Cl11960  10.491   1.981   6.490 -0.1639  0.3528  0.5892
  830MOL0     C11961   9.270   1.812   6.512  0.3332  0.4515  0.4166
  830MOL0     C11962   9.148   1.823   6.586 -1.9021  0.2204 -0.0552
  830MOL0     O11963   9.072   1.722   6.904 -0.5331 -0.0397 -0.9301
  830MOL0     C11964   8.808   1.953   6.959 -0.4053  0.1706  0.0991
  830MOL0     C11965   8.702   1.978   7.050 -0.4087  0.7230  0.5023
  830MOL0     N11966   8.240   1.716   7.620 -0.5568 -0.2951 -0.3544
  830MOL0     N11967   8.150   1.631   7.578 -0.7204 -0.3095 -0.2437
  830MOL0     C11968   7.110   1.648   7.287 -0.0763  0.1564  0.0413
  830MOL0     C11969   6.984   1.620   7.339  0.6184 -0.4143  0.2269
  830MOL0     C11970   6.566   1.488   7.416 -0.2580 -0.7285  0.4071
  830MOL0     C11971   6.562   1.420   7.535  0.1637  0.3448 -0.4093
  830MOL0     C11972   6.445   1.384   7.591 -0.4689 -0.6758  0.0312
  830MOL0     C11973   6.318   1.427   7.539  0.2137  0.4769 -1.0606
  830MOL0     O11974   6.194   1.385   7.592 -1.0342  0.0542  0.6325
  830MOL0     C11975   6.190   1.363   7.730 -0.9307  0.1660  0.1798
  830MOL0     C11976   6.047   1.351   7.780 -0.0051 -0.3634  0.0095
  830MOL0     C11977   5.960   1.478   7.770 -0.3876  0.3537 -0.2028
  830MOL0     C11978   6.019   1.609   7.810  0.0919 -0.8257  0.8314
  830MOL0     C11979   6.039   1.627   7.956 -0.3528  0.2572  0.2889
  830MOL0     C11980   6.047   1.616   8.074 -0.9885 -0.7832 -0.2151
  830MOL0     C11981   6.323   1.502   7.421  0.2603 -0.3039 -0.4051
  830MOL0     C11982   6.447   1.545   7.366  0.0980  0.4499 -0.3371
  830MOL0     H11983   6.982   1.284   7.345 -0.6032 -1.0490 -3.1558
  830MOL0     H11984   7.199   1.316   7.237  3.1585  1.5616  1.5087
  830MOL0     H11985   7.412   1.393   7.264  3.1695  0.0418  0.6393
  830MOL0     H11986   7.380   1.396   7.099  3.6130 -0.5829 -0.7278
  830MOL0     H11987   7.570   1.545   7.052  3.4731  1.6052  0.3126
  830MOL0     H11988   7.566   1.593   7.219 -1.0925 -0.9596  1.8752
  830MOL0     H11989   7.657   1.358   7.281  2.6564  1.5107  0.6876
  830MOL0     H11990   7.658   1.313   7.106  1.8402 -1.1410  1.9026
  830MOL0     H11991   7.806   1.515   7.086 -1.2961  0.1513 -0.5047
  830MOL0     H11992   7.801   1.525   7.261  1.1196 -1.2465  1.1168
  830MOL0     H11993   7.901   1.318   7.302 -2.8221 -0.4097 -0.6070
  830MOL0     H11994   7.890   1.272   7.131  6.0508 -0.6756 -1.0931
  830MOL0     H11995   8.113   1.323   7.141 -3.3991 -3.3255 -2.3215
  830MOL0     H11996   8.031   1.453   7.052 -2.8860 -2.1225  0.1890
  830MOL0     H11997   8.195   1.565   7.194  1.3332 -2.1510  1.0409
  830MOL0     H11998   8.027   1.606   7.224  0.2588 -0.4378 -0.9318
  830MOL0     H11999   8.155   1.389   7.402 -1.9842 -0.7543  1.0225
  830MOL0     H12000   8.019   1.494   7.424  1.2813 -2.1558  1.0579
  830MOL0     H12001   8.372   1.643   7.328  2.3358 -5.1257  1.4189
  830MOL0     H12002   8.512   1.840   7.602  1.0971 -0.1944 -0.0946
  830MOL0     H12003   8.516   1.795   7.432 -1.8060  1.0123 -2.8595
  830MOL0     H12004   8.481   2.053   7.517  2.2053 -0.4742  0.5284
  830MOL0     H12005   8.314   1.999   7.531 -0.4301  0.9138 -0.8611
  830MOL0     H12006   8.324   2.097   7.335  3.6324  2.2416 -3.5779
  830MOL0     H12007   8.314   1.925   7.288  1.3209 -0.4679 -1.7074
  830MOL0     H12008   8.582   2.061   7.315  0.3918 -3.8715  2.4361
  830MOL0     H12009   8.473   2.081   7.172 -1.7667 -0.3799 -0.1525
  830MOL0     H12010   8.678   1.682   7.188  2.3607  0.2325  0.7898
  830MOL0     H12011   8.977   1.578   7.077  0.2352 -2.0477 -0.3881
  830MOL0     H12012   8.819   1.534   7.128 -0.4261  1.7768 -0.1220
  830MOL0     H12013   8.864   1.519   6.954 -0.8124  0.1120  0.0795
  830MOL0     H12014   9.272   2.000   6.846  1.0453  0.7065 -0.5256
  830MOL0     H12015   9.481   1.998   6.694 -0.1668 -0.9114 -2.5553
  830MOL0     H12016   9.679   1.909   6.578  0.4303 -1.1514  0.4735
  830MOL0     H12017   9.602   1.772   6.630 -0.7497 -1.2397 -0.5897
  830MOL0     H12018   9.693   1.651   6.433 -1.5980  0.7489  0.9604
  830MOL0     H12019   9.724   1.807   6.353 -3.7163 -0.9680 -0.5474
  830MOL0     H12020   9.887   1.726   6.606 -2.5002  3.2762  1.7163
  830MOL0     H12021   9.912   1.853   6.495 -0.5754 -0.0560 -0.7855
  830MOL0     H12022   9.929   1.558   6.429 -0.6453  0.6730 -1.7237
  830MOL0     H12023   9.937   1.685   6.311  0.0230 -3.4127 -0.4552
  830MOL0     H12024  10.158   1.596   6.418  0.7365  1.4583 -0.9718
  830MOL0     H12025  10.109   1.686   6.565 -0.0999  0.5015 -0.4164
  830MOL0     H12026  10.114   1.813   6.285  2.3063 -2.3625 -1.3111
  830MOL0     H12027  10.111   1.904   6.435 -1.7688 -0.5396  0.0897
  830MOL0     H12028  10.318   1.911   6.310 -2.8846  0.5545  0.3211
  830MOL0     H12029  10.340   1.738   6.310 -1.0867  0.9973 -1.2977
  830MOL0     H12030  10.446   1.746   6.515 -1.1713 -0.5396 -0.3443
  830MOL0     H12031  10.328   1.847   6.588  0.3655  1.0869  0.3220
  830MOL0     H12032   9.271   1.759   6.418 -1.3042 -0.5659  0.9319
  830MOL0     H12033   9.063   1.762   6.555 -0.5425 -1.7907 -0.0702
  830MOL0     H12034   8.844   2.026   6.886  1.5785  1.3434  2.1173
  830MOL0     H12035   8.659   2.078   7.050  1.0897  1.4011  0.3817
  830MOL0     H12036   7.139   1.752   7.273 -1.9629  0.4155 -2.8637
  830MOL0     H12037   6.922   1.701   7.374  1.9747  0.4612  0.6882
  830MOL0     H12038   6.655   1.379   7.572  1.3261  1.3507 -2.0936
  830MOL0     H12039   6.451   1.320   7.679 -1.4308  1.3628  1.6827
  830MOL0     H12040   6.226   1.264   7.760 -2.1445  0.7526  4.2484
  830MOL0     H12041   6.247   1.436   7.788 -2.4103  1.3343  0.2350
  830MOL0     H12042   6.060   1.325   7.886 -4.3363  1.8489  1.3128
  830MOL0     H12043   5.985   1.271   7.738 -0.1850 -0.5394  0.6079
  830MOL0     H12044   5.876   1.458   7.838  0.4780  2.0220  1.4423
  830MOL0     H12045   5.914   1.480   7.671  0.6263 -0.3247 -0.7007
  830MOL0     H12046   5.957   1.688   7.768  0.1151  0.2438  2.6928
  830MOL0     H12047   6.115   1.624   7.760 -0.2135  2.5920  1.0261
  830MOL0     H12048   6.050   1.622   8.181 -1.8153 -1.0266 -0.1708
  830MOL0     H12049   6.230   1.539   7.379 -1.2142 -0.7445  2.3039
  830MOL0     H12050   6.446   1.604   7.275 -0.7243  0.7760 -0.1269
  831MOL0     O12051   7.926   6.036   8.699 -0.2899  0.1073 -0.1522
  831MOL0     C12052   7.977   6.079   8.595  0.4996 -0.5035 -0.3218
  831MOL0     O12053   7.927   6.181   8.517  0.0797  0.6525  0.2525
  831MOL0     C12054   7.798   6.234   8.534 -0.0558  0.1438 -0.4950
  831MOL0     C12055   7.705   6.242   8.429 -0.6264  0.1020 -0.5232
  831MOL0     C12056   7.584   6.300   8.454  0.4423 -1.1581 -0.7403
  831MOL0     C12057   7.538   6.345   8.578  0.3344  1.0628 -1.5551
  831MOL0     O12058   7.417   6.395   8.601 -0.7223  0.3542 -0.1864
  831MOL0     C12059   7.360   6.479   8.502  0.4096  0.3867  0.5981
  831MOL0     C12060   7.247   6.568   8.562 -0.7927  0.1323 -0.2008
  831MOL0     C12061   7.304   6.695   8.631 -0.6696 -0.2384 -0.4724
  831MOL0     C12062   7.206   6.815   8.636 -0.0001 -0.6363 -0.0727
  831MOL0     C12063   7.259   6.924   8.739  0.0390 -0.5307 -0.5826
  831MOL0     C12064   7.174   7.052   8.752  0.5838  0.6863  0.5987
  831MOL0     C12065   7.173   7.118   8.613 -0.9482 -0.0037 -0.1938
  831MOL0     C12066   7.316   7.164   8.574 -0.6102  0.8681  0.6123
  831MOL0     N12067   7.397   7.255   8.669  0.7535  0.1588 -0.9068
  831MOL0     C12068   7.470   7.203   8.773  0.6073  0.7854  0.1194
  831MOL0     C12069   7.549   7.308   8.813  0.2273 -0.9584  0.1990
  831MOL0     C12070   7.636   7.315   8.941 -0.0730 -0.0883  0.0765
  831MOL0     C12071   7.778   7.369   8.905 -0.2547  0.1712 -0.4399
  831MOL0     C12072   7.881   7.337   9.014 -0.2285 -0.7312 -0.4492
  831MOL0     C12073   7.917   7.189   9.035  1.1565 -0.7974 -0.6390
  831MOL0     O12074   8.000   7.190   9.156  0.2462 -0.1000 -0.0618
  831MOL0     C12075   8.049   7.073   9.198 -0.4150 -0.0328  0.6983
  831MOL0     C12076   8.093   7.076   9.326 -0.7252  0.4273 -1.2437
  831MOL0     C12077   8.158   6.958   9.383 -0.0246  0.0391 -0.2715
  831MOL0     C12078   8.221   6.986   9.514  0.4825  0.5255 -1.1247
  831MOL0     C12079   8.146   6.827   9.315  0.2096  0.3919 -0.1343
  831MOL0     C12080   8.213   6.698   9.347  1.4706  0.0135 -0.1396
  831MOL0     O12081   8.178   6.582   9.278 -0.2540 -0.7674  0.0555
  831MOL0     C12082   8.280   6.496   9.257 -0.2290 -0.1034  0.3646
  831MOL0     C12083   8.388   6.534   9.172 -0.0958 -1.1129  0.5051
  831MOL0     C12084   8.491   6.448   9.144 -0.2141  0.5413 -0.2351
  831MOL0     C12085   8.488   6.315   9.200  0.4072 -0.2217  0.3379
  831MOL0     O12086   8.596   6.230   9.170 -0.3970  0.5333 -0.0755
  831MOL0     C12087   8.627   6.124   9.265  0.1552 -0.6028  0.7275
  831MOL0     C12088   8.740   6.042   9.193 -0.5054  0.2589  0.1501
  831MOL0     C12089   8.884   6.078   9.238  0.2387  0.0829 -0.6047
  831MOL0     C12090   8.988   6.014   9.160 -0.1526  0.0045 -0.4220
  831MOL0     C12091   9.126   6.032   9.224  0.6330  0.0095  0.1248
  831MOL0     C12092   9.236   5.947   9.157  0.2505  0.0019 -0.2013
  831MOL0     C12093   9.369   5.982   9.219 -0.6431  0.4257  0.3017
  831MOL0     C12094   9.483   5.912   9.133 -0.0100 -0.5352  0.0031
  831MOL0    Cl12095   9.472   5.732   9.150 -0.0985  0.2286  0.7727
  831MOL0     C12096   8.375   6.275   9.273 -0.4724  0.6333  0.0858
  831MOL0     C12097   8.272   6.368   9.310  0.4339  0.4717 -0.5947
  831MOL0     O12098   8.294   6.701   9.435 -0.1273  0.0665 -0.5852
  831MOL0     C12099   8.076   6.828   9.196  0.2785 -0.1049 -0.0245
  831MOL0     C12100   8.023   6.941   9.137  0.6694 -1.0491  1.1791
  831MOL0     N12101   7.529   7.411   8.719 -1.1757 -0.8429  0.3876
  831MOL0     N12102   7.440   7.381   8.639  0.9875  0.0253 -0.6926
  831MOL0     C12103   7.629   6.345   8.678 -0.5158  0.8960 -0.2130
  831MOL0     C12104   7.758   6.280   8.660 -0.5732 -1.3963 -0.4293
  831MOL0     C12105   8.084   5.996   8.545 -0.2898  0.0668 -0.1506
  831MOL0     C12106   8.168   6.063   8.459 -0.3489  0.2496  1.0361
  831MOL0     C12107   8.275   5.997   8.397  0.7002  0.4532 -0.2667
  831MOL0     C12108   8.300   5.862   8.441  0.0485  0.0059 -0.3728
  831MOL0     O12109   8.403   5.783   8.403 -0.1381  0.3393 -0.2508
  831MOL0     C12110   8.496   5.836   8.302 -0.9208  0.8919 -0.2444
  831MOL0     C12111   8.613   5.745   8.270  1.0005  0.2393 -0.0698
  831MOL0     C12112   8.698   5.720   8.399  1.0129 -0.3962  0.8282
  831MOL0     C12113   8.781   5.597   8.383 -0.1504  0.5616  1.0459
  831MOL0     C12114   8.871   5.598   8.265 -0.0544  0.0976 -0.2603
  831MOL0     C12115   8.939   5.603   8.163 -0.6233 -0.4251  0.3726
  831MOL0     C12116   8.217   5.800   8.534 -0.8574 -0.0706 -0.1789
  831MOL0     C12117   8.107   5.865   8.585  0.5612  0.4998 -0.8177
  831MOL0     H12118   7.715   6.202   8.328  1.0390 -0.3243 -0.2198
  831MOL0     H12119   7.505   6.292   8.379  1.5451  0.2145 -2.1354
  831MOL0     H12120   7.438   6.542   8.458 -0.3689 -0.2693 -1.8952
  831MOL0     H12121   7.311   6.415   8.429  1.0962  1.1514 -0.5595
  831MOL0     H12122   7.188   6.591   8.472 -2.2470  1.7515  1.0987
  831MOL0     H12123   7.190   6.507   8.633  1.2383 -1.8109 -0.1367
  831MOL0     H12124   7.319   6.670   8.736 -0.4685  1.2806 -0.1131
  831MOL0     H12125   7.406   6.718   8.598  0.5257  1.0390  3.5481
  831MOL0     H12126   7.204   6.862   8.537 -0.8704 -0.5522 -0.0224
  831MOL0     H12127   7.107   6.778   8.665 -1.1215  1.2267 -1.2755
  831MOL0     H12128   7.249   6.880   8.838  1.4036  1.6939  0.6241
  831MOL0     H12129   7.368   6.933   8.737  0.4197 -3.5573 -3.6893
  831MOL0     H12130   7.070   7.031   8.778  1.2651  0.5219  3.5949
  831MOL0     H12131   7.200   7.120   8.834 -3.4152  3.0089  0.1680
  831MOL0     H12132   7.132   7.054   8.534 -0.9789 -1.1494  0.7254
  831MOL0     H12133   7.106   7.202   8.635 -1.7532 -0.8897  0.8660
  831MOL0     H12134   7.304   7.203   8.472  1.6369 -1.8181 -0.8060
  831MOL0     H12135   7.383   7.080   8.553  0.7069  1.7242  1.2070
  831MOL0     H12136   7.477   7.101   8.807 -0.2547  1.4024  2.3307
  831MOL0     H12137   7.595   7.387   9.012 -1.7651 -0.9570  0.0386
  831MOL0     H12138   7.643   7.215   8.985  0.5170 -0.2711 -0.4176
  831MOL0     H12139   7.762   7.476   8.893 -4.5117 -0.2020  0.3669
  831MOL0     H12140   7.802   7.312   8.814 -0.9410 -0.7363 -0.0633
  831MOL0     H12141   7.843   7.377   9.108  0.6498 -1.3716  0.1914
  831MOL0     H12142   7.978   7.388   9.005 -0.7358  0.8036  1.8704
  831MOL0     H12143   7.968   7.144   8.950  1.3288 -0.2243 -0.8471
  831MOL0     H12144   7.827   7.129   9.050  1.4939 -0.9756  0.9158
  831MOL0     H12145   8.087   7.166   9.387 -0.0818 -0.5962  0.3961
  831MOL0     H12146   8.160   7.057   9.570 -0.2252  0.6573 -2.0508
  831MOL0     H12147   8.238   6.895   9.573 -0.1437  2.1801  1.8093
  831MOL0     H12148   8.320   7.034   9.512  0.3801  0.9445  1.2582
  831MOL0     H12149   8.390   6.635   9.133  2.0344 -1.5300 -0.7072
  831MOL0     H12150   8.575   6.469   9.078  1.7971 -1.2069  1.6168
  831MOL0     H12151   8.644   6.161   9.366 -3.3400 -0.7253  1.4906
  831MOL0     H12152   8.547   6.051   9.279  0.9182 -2.0426 -1.7013
  831MOL0     H12153   8.715   5.939   9.218  1.4386 -0.2826  0.0498
  831MOL0     H12154   8.729   6.046   9.084  0.6829 -1.6248 -0.0736
  831MOL0     H12155   8.884   6.057   9.345 -0.5966  2.1181 -0.1438
  831MOL0     H12156   8.902   6.185   9.222  2.2394 -0.6001 -4.0680
  831MOL0     H12157   8.966   5.908   9.150  0.7278 -0.3288  0.9865
  831MOL0     H12158   8.982   6.043   9.054  2.7125 -0.2504 -0.7324
  831MOL0     H12159   9.130   6.010   9.331  1.1428  0.0269  0.1107
  831MOL0     H12160   9.161   6.132   9.196  2.6492 -1.0531 -1.4544
  831MOL0     H12161   9.208   5.843   9.180  1.9950 -0.5427 -0.3789
  831MOL0     H12162   9.243   5.966   9.049  1.3986  5.2265  0.5157
  831MOL0     H12163   9.381   5.942   9.321 -0.1784  1.0395  0.4939
  831MOL0     H12164   9.367   6.091   9.224  4.4553  0.9276 -2.1342
  831MOL0     H12165   9.579   5.960   9.151  1.0049 -2.6885  0.6653
  831MOL0     H12166   9.456   5.936   9.030 -0.2136  1.0307  0.3925
  831MOL0     H12167   8.368   6.175   9.313 -1.2579  0.2229 -1.0193
  831MOL0     H12168   8.195   6.338   9.381  1.4589 -0.3356  0.2214
  831MOL0     H12169   8.076   6.742   9.131 -1.6123  0.4606 -0.8438
  831MOL0     H12170   7.977   6.939   9.039  4.4924  0.8055 -0.8678
  831MOL0     H12171   7.609   6.381   8.778 -1.2258 -1.7885  0.6933
  831MOL0     H12172   7.828   6.285   8.742  0.2531  0.1896 -1.1833
  831MOL0     H12173   8.137   6.165   8.439 -3.6748 -0.6725  0.8470
  831MOL0     H12174   8.329   6.048   8.319 -1.9699  2.9885 -0.6220
  831MOL0     H12175   8.435   5.858   8.215 -0.7686  0.0383 -0.5716
  831MOL0     H12176   8.534   5.936   8.325 -2.0657  1.1216  0.7557
  831MOL0     H12177   8.670   5.779   8.183 -0.2383  2.1274 -0.2130
  831MOL0     H12178   8.565   5.651   8.242 -0.0387 -0.1647  2.7943
  831MOL0     H12179   8.640   5.705   8.491 -1.2724 -0.5247 -0.5355
  831MOL0     H12180   8.767   5.803   8.412  1.4078 -0.5216 -0.3644
  831MOL0     H12181   8.718   5.507   8.384 -0.1162  0.3475 -2.6270
  831MOL0     H12182   8.848   5.600   8.469  1.0227  2.9659  0.1349
  831MOL0     H12183   9.004   5.635   8.084 -0.3250 -0.8764  0.4317
  831MOL0     H12184   8.232   5.698   8.568 -2.8341  0.5079  2.8205
  831MOL0     H12185   8.054   5.812   8.663 -0.4380 -0.1199 -1.8909
  832MOL0     O12186   3.980   8.928   6.024 -0.0693  0.0133 -0.2850
  832MOL0     C12187   3.983   8.956   5.909  0.4698 -0.0065  0.5086
  832MOL0     O12188   4.088   8.920   5.825  0.2775  0.7179 -0.5714
  832MOL0     C12189   4.203   8.875   5.887 -0.4533  0.3079  0.2858
  832MOL0     C12190   4.272   8.773   5.817  1.5842 -0.0145  0.3453
  832MOL0     C12191   4.393   8.726   5.854 -0.2383  0.7007  0.6160
  832MOL0     C12192   4.453   8.775   5.971 -0.4721 -1.1726  0.3192
  832MOL0     O12193   4.580   8.752   6.021  0.4375 -0.5361 -0.1962
  832MOL0     C12194   4.624   8.612   6.036  0.1598  0.5232 -0.7618
  832MOL0     C12195   4.711   8.587   6.158 -0.3131  0.1313 -0.3869
  832MOL0     C12196   4.639   8.623   6.288 -0.4777 -0.4639 -0.0888
  832MOL0     C12197   4.731   8.613   6.409  0.3396 -0.1785 -0.1187
  832MOL0     C12198   4.669   8.662   6.537  0.1563 -0.1731  0.9031
  832MOL0     C12199   4.540   8.586   6.570 -0.1214  0.2479 -0.0814
  832MOL0     C12200   4.500   8.617   6.719  0.0386  0.0740 -0.2979
  832MOL0     C12201   4.407   8.515   6.777  0.0163  0.8698 -0.2999
  832MOL0     N12202   4.279   8.577   6.820 -0.5688  0.2002  0.0616
  832MOL0     C12203   4.189   8.623   6.731  0.2565  0.4333  0.6818
  832MOL0     C12204   4.087   8.669   6.808 -0.2178 -0.1913  0.3559
  832MOL0     C12205   3.966   8.735   6.742 -0.1892  0.4935  0.4324
  832MOL0     C12206   3.883   8.625   6.675  0.3540  0.7365  0.1035
  832MOL0     C12207   3.774   8.687   6.587 -0.9876 -0.5666 -0.7570
  832MOL0     C12208   3.651   8.599   6.595 -0.1063 -0.0220  1.0978
  832MOL0     O12209   3.592   8.585   6.724 -0.0794  0.2412 -0.1600
  832MOL0     C12210   3.460   8.554   6.727  0.3021  1.0961  0.3426
  832MOL0     C12211   3.378   8.539   6.613  0.2209 -1.0565 -0.0371
  832MOL0     C12212   3.235   8.519   6.625 -1.9528 -0.6651 -1.3562
  832MOL0     C12213   3.161   8.524   6.495  0.6021 -0.0808 -0.3182
  832MOL0     C12214   3.181   8.520   6.755  0.6843  0.6320 -0.3807
  832MOL0     C12215   3.034   8.499   6.796 -0.0950  0.2481  1.2168
  832MOL0     O12216   2.945   8.531   6.698  0.3162 -0.0532 -1.0563
  832MOL0     C12217   2.813   8.526   6.735  0.3426 -0.1198  0.7502
  832MOL0     C12218   2.754   8.401   6.759 -0.2832  0.0057  0.0171
  832MOL0     C12219   2.619   8.397   6.788  0.5280  0.4400  0.3274
  832MOL0     C12220   2.542   8.513   6.799  0.6000 -0.7455 -0.3292
  832MOL0     O12221   2.410   8.516   6.837  0.0547 -0.3020  1.1159
  832MOL0     C12222   2.369   8.392   6.906  0.5481 -0.5532  0.2346
  832MOL0     C12223   2.245   8.403   6.990 -0.2699 -0.1044  1.5250
  832MOL0     C12224   2.235   8.298   7.095  0.9186 -1.0095  0.0695
  832MOL0     C12225   2.139   8.346   7.194  0.3690 -0.5112  0.1698
  832MOL0     C12226   2.129   8.235   7.298  0.0487  0.3759  0.3884
  832MOL0     C12227   2.050   8.287   7.420 -0.0098 -0.2001  0.5234
  832MOL0     C12228   2.035   8.170   7.527 -0.0405  0.0900  0.2464
  832MOL0     C12229   2.157   8.114   7.600  0.2248 -0.8944  0.0628
  832MOL0    Cl12230   2.244   8.238   7.707  0.1493  0.0262 -0.1313
  832MOL0     C12231   2.603   8.638   6.770  0.1466  0.1229 -0.5519
  832MOL0     C12232   2.738   8.641   6.727  0.0708  0.5445  0.0896
  832MOL0     O12233   3.012   8.476   6.909  0.0466  1.0917  0.0947
  832MOL0     C12234   3.266   8.535   6.872 -0.7248  0.0683  0.8837
  832MOL0     C12235   3.406   8.549   6.854 -0.4075 -0.4340 -0.3668
  832MOL0     N12236   4.118   8.656   6.942 -1.1533  0.2167 -0.0577
  832MOL0     N12237   4.236   8.593   6.945  0.7490 -0.6384 -0.5613
  832MOL0     C12238   4.395   8.877   6.048 -0.9265 -0.3399  0.1957
  832MOL0     C12239   4.275   8.930   6.002  0.6698 -0.7293  0.3057
  832MOL0     C12240   3.868   9.027   5.851 -0.2744 -0.4808  0.2584
  832MOL0     C12241   3.872   9.076   5.712  0.2569  0.0394 -0.8551
  832MOL0     C12242   3.762   9.157   5.672  0.0868 -0.1142 -0.1555
  832MOL0     C12243   3.653   9.183   5.750 -0.0893  0.2695 -0.6719
  832MOL0     O12244   3.541   9.263   5.723 -0.2418  0.0810  1.0982
  832MOL0     C12245   3.530   9.338   5.597 -0.3621  0.0297  0.5164
  832MOL0     C12246   3.503   9.272   5.467  0.8036  0.2124  1.0371
  832MOL0     C12247   3.372   9.205   5.464 -0.5951  0.3007 -0.5518
  832MOL0     C12248   3.333   9.156   5.322  0.2100  0.4514  0.8133
  832MOL0     C12249   3.209   9.080   5.342 -0.1701 -1.1307 -1.5386
  832MOL0     C12250   3.108   9.011   5.362  0.4913 -0.0984  0.0354
  832MOL0     C12251   3.655   9.132   5.878  0.4540 -0.0514  0.6704
  832MOL0     C12252   3.761   9.052   5.927 -0.3007  0.0640  0.5761
  832MOL0     H12253   4.231   8.741   5.722 -1.1975 -0.0622  1.4897
  832MOL0     H12254   4.452   8.671   5.781 -0.6630  0.8562  0.1489
  832MOL0     H12255   4.537   8.545   6.044  1.0955 -0.6129  0.4943
  832MOL0     H12256   4.692   8.592   5.953  0.9263 -0.5970  0.0977
  832MOL0     H12257   4.735   8.481   6.158 -1.3420 -0.1388 -2.3030
  832MOL0     H12258   4.803   8.644   6.145 -0.0574  0.5284  2.3658
  832MOL0     H12259   4.616   8.730   6.290  0.1476 -0.3300  1.3636
  832MOL0     H12260   4.550   8.560   6.286 -0.3318 -0.7560 -3.1190
  832MOL0     H12261   4.747   8.505   6.414  0.1410 -0.1850  0.3686
  832MOL0     H12262   4.826   8.661   6.383 -1.3226  2.3870 -1.8448
  832MOL0     H12263   4.750   8.645   6.609  1.4131  2.2784  0.1812
  832MOL0     H12264   4.650   8.769   6.530  3.6072  0.4678 -1.4713
  832MOL0     H12265   4.462   8.612   6.498  0.9653  1.6368 -0.8194
  832MOL0     H12266   4.558   8.478   6.567  1.5656  0.4093  1.8182
  832MOL0     H12267   4.591   8.630   6.779 -2.0442  2.5120  2.6773
  832MOL0     H12268   4.465   8.720   6.712  5.0957  2.0040 -2.5159
  832MOL0     H12269   4.465   8.472   6.859  0.9226 -1.3772 -2.0049
  832MOL0     H12270   4.376   8.445   6.699 -2.5422 -1.0124  2.2140
  832MOL0     H12271   4.210   8.628   6.624 -0.3368  1.9797  0.6200
  832MOL0     H12272   3.901   8.774   6.821  0.5354 -2.7450  2.8257
  832MOL0     H12273   3.997   8.818   6.677  0.4764  3.3992  4.0534
  832MOL0     H12274   3.830   8.564   6.748  1.8027 -1.8768 -0.8982
  832MOL0     H12275   3.954   8.565   6.616  0.2439  0.4819  0.2300
  832MOL0     H12276   3.799   8.701   6.482  1.0911  0.6209 -0.1464
  832MOL0     H12277   3.769   8.793   6.613  0.0155 -0.2289 -1.8633
  832MOL0     H12278   3.671   8.502   6.549 -0.1372  0.0390  0.9557
  832MOL0     H12279   3.584   8.656   6.530  1.5030  1.1766  0.4290
  832MOL0     H12280   3.424   8.547   6.515  0.9856 -2.3424  0.2001
  832MOL0     H12281   3.052   8.535   6.502  0.8726  1.6805  2.8955
  832MOL0     H12282   3.199   8.617   6.453  3.5665  0.5360  3.1953
  832MOL0     H12283   3.193   8.429   6.451  3.2298 -0.0582  1.3558
  832MOL0     H12284   2.819   8.314   6.755  2.3739  1.7821  1.2690
  832MOL0     H12285   2.570   8.300   6.791 -1.2993  1.0782 -3.5222
  832MOL0     H12286   2.337   8.328   6.823 -3.5089  1.7937 -0.3086
  832MOL0     H12287   2.452   8.350   6.963 -0.5311  0.9376  3.0923
  832MOL0     H12288   2.244   8.506   7.028 -0.9089  0.6107 -0.3578
  832MOL0     H12289   2.158   8.393   6.925  1.6976 -0.8839 -1.1720
  832MOL0     H12290   2.335   8.292   7.139  1.4316 -1.7271 -1.1387
  832MOL0     H12291   2.214   8.203   7.047 -0.1812 -0.5964 -0.2876
  832MOL0     H12292   2.177   8.437   7.242 -0.6338  0.2776 -0.5139
  832MOL0     H12293   2.040   8.369   7.157 -0.0180  0.3685  1.6661
  832MOL0     H12294   2.228   8.195   7.323 -1.3821 -3.5049  0.5427
  832MOL0     H12295   2.079   8.154   7.244 -0.2656  1.4962 -1.0542
  832MOL0     H12296   2.110   8.363   7.471 -2.9686 -0.3355  4.7849
  832MOL0     H12297   1.952   8.329   7.394  1.0376  1.2635 -1.3016
  832MOL0     H12298   1.990   8.091   7.467  1.5851 -1.7512  1.3081
  832MOL0     H12299   1.969   8.198   7.609 -2.3694 -2.4873 -0.6001
  832MOL0     H12300   2.229   8.077   7.527  0.2257 -1.2824  0.2525
  832MOL0     H12301   2.114   8.026   7.650  1.2346 -0.3016  2.0649
  832MOL0     H12302   2.550   8.731   6.781 -2.1206 -1.2761  1.3508
  832MOL0     H12303   2.796   8.729   6.701  1.1810  0.2843  1.5066
  832MOL0     H12304   3.223   8.527   6.971 -0.0594  0.9978  1.2634
  832MOL0     H12305   3.462   8.555   6.947 -0.4617  2.7545 -0.4211
  832MOL0     H12306   4.431   8.899   6.148 -1.4054 -1.9148  0.7340
  832MOL0     H12307   4.237   9.020   6.049 -2.8629 -1.2745 -1.1706
  832MOL0     H12308   3.949   9.054   5.639 -1.9225  0.1392 -3.3116
  832MOL0     H12309   3.767   9.195   5.570  1.6092 -2.9024 -1.2374
  832MOL0     H12310   3.456   9.418   5.611 -0.7531 -0.6730  2.8725
  832MOL0     H12311   3.620   9.400   5.588 -0.0779 -0.6689 -2.2943
  832MOL0     H12312   3.586   9.203   5.450 -1.6459 -2.0747 -3.1918
  832MOL0     H12313   3.500   9.347   5.387  0.2204 -1.3439 -0.4503
  832MOL0     H12314   3.303   9.283   5.496  3.0478  2.9909  1.5002
  832MOL0     H12315   3.373   9.126   5.539  1.6359  1.8420  1.2075
  832MOL0     H12316   3.412   9.098   5.273 -0.7440 -0.7145  0.6128
  832MOL0     H12317   3.311   9.241   5.257 -0.7489  0.1192  0.6838
  832MOL0     H12318   3.012   8.963   5.364 -0.1344  0.9946 -1.7329
  832MOL0     H12319   3.562   9.138   5.932  0.8326 -3.7656  2.0839
  832MOL0     H12320   3.748   8.989   6.015  0.4000 -0.1335  0.5461
  833MOL0     O12321   7.787   4.905   3.026 -0.3696 -0.1480 -0.1130
  833MOL0     C12322   7.710   4.848   2.942 -1.0298 -0.3243  0.1866
  833MOL0     O12323   7.589   4.785   2.960  0.3827 -0.0806 -0.0147
  833MOL0     C12324   7.557   4.776   3.092 -0.3189 -0.3202  0.4454
  833MOL0     C12325   7.611   4.673   3.168 -0.5321 -0.5303  1.0093
  833MOL0     C12326   7.568   4.669   3.306 -0.0724  0.2229 -0.3334
  833MOL0     C12327   7.460   4.739   3.358 -0.1414  0.1510 -0.1236
  833MOL0     O12328   7.417   4.720   3.491  0.0490 -0.2703  0.2149
  833MOL0     C12329   7.286   4.736   3.533  1.1720 -0.4379  0.4647
  833MOL0     C12330   7.246   4.639   3.639 -0.1210  0.0607  1.0902
  833MOL0     C12331   7.317   4.504   3.646  0.6734 -0.2785 -0.1230
  833MOL0     C12332   7.271   4.392   3.738 -0.5698  0.2621  0.6269
  833MOL0     C12333   7.123   4.351   3.746  0.2999 -0.4323  0.0686
  833MOL0     C12334   7.116   4.237   3.836  0.3054  0.6101  0.3305
  833MOL0     C12335   6.981   4.153   3.827  0.7477  0.7926 -0.6301
  833MOL0     C12336   6.846   4.227   3.868 -0.5620  0.7033  0.5053
  833MOL0     N12337   6.861   4.308   3.986 -0.1962 -0.6792  0.1986
  833MOL0     C12338   6.878   4.444   3.992  0.3540 -0.0516  0.3831
  833MOL0     C12339   6.906   4.470   4.122  0.3107 -0.0903 -0.2348
  833MOL0     C12340   6.928   4.607   4.176 -0.1588  0.0882 -0.5786
  833MOL0     C12341   7.074   4.619   4.233 -0.5738 -0.3339 -0.6815
  833MOL0     C12342   7.181   4.601   4.121 -0.5696  0.2396  0.4121
  833MOL0     C12343   7.328   4.609   4.170  0.6887 -0.2324  0.3873
  833MOL0     O12344   7.414   4.609   4.050 -0.0445 -0.7263  0.2953
  833MOL0     C12345   7.541   4.645   4.067 -0.0081 -0.5768 -0.1586
  833MOL0     C12346   7.613   4.640   3.953 -0.3308  0.4444  0.1549
  833MOL0     C12347   7.750   4.663   3.957  0.5601  0.0317 -0.1359
  833MOL0     C12348   7.833   4.659   3.831  0.9974 -0.1658 -1.1325
  833MOL0     C12349   7.810   4.706   4.079  1.4461 -0.1761 -0.5445
  833MOL0     C12350   7.955   4.753   4.097  0.8017 -0.3005  0.1060
  833MOL0     O12351   8.038   4.734   3.997  0.2574  0.8783 -0.2246
  833MOL0     C12352   8.157   4.802   3.978  0.0087 -0.0075  0.4470
  833MOL0     C12353   8.222   4.787   3.853 -0.6197  0.8665  0.2573
  833MOL0     C12354   8.343   4.842   3.816  1.0478 -0.3996 -0.2868
  833MOL0     C12355   8.414   4.924   3.910 -0.0481  0.9476 -0.4143
  833MOL0     O12356   8.541   4.959   3.886 -0.4789 -0.4264  0.4872
  833MOL0     C12357   8.593   5.005   3.760 -0.0161 -1.1169 -0.7162
  833MOL0     C12358   8.652   4.893   3.682 -0.2789 -0.2546 -0.0936
  833MOL0     C12359   8.770   4.823   3.765 -0.3074 -1.2864  1.2589
  833MOL0     C12360   8.857   4.738   3.671 -0.4305  0.3113 -0.0333
  833MOL0     C12361   9.004   4.717   3.723  0.5918  0.0772  0.3309
  833MOL0     C12362   9.091   4.665   3.599  1.4821 -0.5201  0.4759
  833MOL0     C12363   9.239   4.656   3.645 -0.2349 -0.0922  0.5046
  833MOL0     C12364   9.312   4.574   3.535  0.4074 -1.0521 -0.2361
  833MOL0    Cl12365   9.467   4.559   3.573 -0.1396  0.1817  0.0854
  833MOL0     C12366   8.354   4.945   4.040 -0.3865  0.5132 -0.0189
  833MOL0     C12367   8.238   4.878   4.074  0.7192  0.2516 -0.5709
  833MOL0     O12368   7.987   4.791   4.208  0.7918  0.1890 -0.0277
  833MOL0     C12369   7.724   4.713   4.195 -0.9428  0.4881  0.3854
  833MOL0     C12370   7.600   4.687   4.184  0.4135  0.2381 -0.4652
  833MOL0     N12371   6.895   4.349   4.198  0.4824 -0.6163  0.4462
  833MOL0     N12372   6.874   4.255   4.112  0.4688 -0.5253  0.0527
  833MOL0     C12373   7.402   4.831   3.262  0.3710 -0.0359 -0.3655
  833MOL0     C12374   7.444   4.839   3.133 -0.5311 -0.0245 -0.3206
  833MOL0     C12375   7.766   4.848   2.804  0.0974 -0.4875 -0.1234
  833MOL0     C12376   7.681   4.817   2.692 -0.0111 -0.3272  0.1710
  833MOL0     C12377   7.740   4.796   2.563 -0.3297  0.7433  0.0374
  833MOL0     C12378   7.880   4.809   2.548 -0.2993 -0.0791 -0.3560
  833MOL0     O12379   7.931   4.763   2.433  0.3169 -1.2228 -0.5142
  833MOL0     C12380   8.074   4.770   2.419 -0.6966 -0.0262 -0.0816
  833MOL0     C12381   8.126   4.702   2.298 -0.3213 -0.6799 -0.2483
  833MOL0     C12382   8.055   4.710   2.166 -0.2105  0.1337 -0.5882
  833MOL0     C12383   8.139   4.639   2.065  0.5351  0.0691  0.3788
  833MOL0     C12384   8.115   4.494   2.062 -0.1245 -0.1250 -0.6124
  833MOL0     C12385   8.100   4.380   2.045  0.4208 -0.7597  0.0527
  833MOL0     C12386   7.957   4.853   2.661 -0.1587 -0.4610  0.9217
  833MOL0     C12387   7.903   4.872   2.786 -0.1169 -0.0545 -0.6776
  833MOL0     H12388   7.686   4.603   3.132 -2.7747 -1.7392 -1.7156
  833MOL0     H12389   7.614   4.585   3.357 -1.5240 -1.0111 -1.0206
  833MOL0     H12390   7.251   4.833   3.570 -0.1987 -0.7502  0.0581
  833MOL0     H12391   7.229   4.722   3.441  1.0173  1.3225  0.2409
  833MOL0     H12392   7.262   4.686   3.737  1.5771 -0.7954  1.2591
  833MOL0     H12393   7.139   4.621   3.629  0.6180 -3.7795 -2.7013
  833MOL0     H12394   7.329   4.466   3.544  2.3345  2.3793 -1.0371
  833MOL0     H12395   7.417   4.519   3.688 -0.9520 -3.4644  6.0712
  833MOL0     H12396   7.328   4.301   3.719 -0.8525  0.1965  0.0947
  833MOL0     H12397   7.290   4.416   3.843  0.3662  0.1800  0.4869
  833MOL0     H12398   7.057   4.431   3.781  0.4881  0.4229 -1.4348
  833MOL0     H12399   7.083   4.339   3.644 -2.2083  3.8637  0.3175
  833MOL0     H12400   7.194   4.164   3.809 -2.2142 -1.1312 -3.0954
  833MOL0     H12401   7.138   4.273   3.936 -3.4256  1.2946  1.0588
  833MOL0     H12402   6.985   4.114   3.725  3.1862 -1.6027  0.2742
  833MOL0     H12403   7.000   4.068   3.893 -0.4278  0.4315 -0.7298
  833MOL0     H12404   6.769   4.153   3.891 -2.5412  1.8966 -1.8002
  833MOL0     H12405   6.805   4.286   3.785  0.3987  0.3150 -0.2651
  833MOL0     H12406   6.885   4.499   3.898  1.9070 -0.3255  0.3067
  833MOL0     H12407   6.889   4.685   4.110 -1.1116 -1.0876 -1.4625
  833MOL0     H12408   6.861   4.616   4.263  1.8127  0.7149  0.9457
  833MOL0     H12409   7.092   4.546   4.313  0.0203 -0.5100 -0.9690
  833MOL0     H12410   7.078   4.719   4.278 -2.5941  0.3199 -1.8288
  833MOL0     H12411   7.163   4.677   4.044 -0.7134 -1.0288 -0.8655
  833MOL0     H12412   7.170   4.505   4.069  3.3694  0.0067 -0.2295
  833MOL0     H12413   7.361   4.528   4.236  1.9453  0.7417  1.0095
  833MOL0     H12414   7.350   4.698   4.230 -2.4644  0.9764 -0.0800
  833MOL0     H12415   7.564   4.626   3.857  0.7887  0.3269 -0.4116
  833MOL0     H12416   7.765   4.629   3.750  2.7619 -1.6260 -2.1490
  833MOL0     H12417   7.871   4.760   3.817  1.0107 -0.3733 -2.9195
  833MOL0     H12418   7.904   4.576   3.833 -3.1674 -4.1102  0.7839
  833MOL0     H12419   8.171   4.716   3.789 -0.9053 -1.7787  3.1655
  833MOL0     H12420   8.367   4.819   3.712 -2.7255 -1.5486 -1.0853
  833MOL0     H12421   8.508   5.053   3.712 -1.8123 -0.4830  2.7401
  833MOL0     H12422   8.664   5.085   3.781 -1.2592 -0.3278  0.6252
  833MOL0     H12423   8.580   4.818   3.648 -0.6485  0.5188 -1.0774
  833MOL0     H12424   8.685   4.940   3.589 -1.2774  1.3450  0.3175
  833MOL0     H12425   8.723   4.752   3.833 -0.0808 -2.2664  0.4194
  833MOL0     H12426   8.827   4.899   3.819  1.4113  0.2543 -2.3761
  833MOL0     H12427   8.820   4.639   3.643 -4.8291  1.6873  0.2177
  833MOL0     H12428   8.873   4.792   3.578  2.6530  1.1640  0.8540
  833MOL0     H12429   9.003   4.643   3.803  0.7220 -0.8054 -0.4711
  833MOL0     H12430   9.048   4.811   3.760 -0.7111  0.4316  1.0344
  833MOL0     H12431   9.054   4.570   3.558 -0.6401  0.6259 -0.4012
  833MOL0     H12432   9.078   4.727   3.510 -1.6472 -1.8878 -0.1509
  833MOL0     H12433   9.245   4.602   3.740  1.5210 -3.2137 -1.2008
  833MOL0     H12434   9.284   4.755   3.653 -2.4344  0.9142  1.3702
  833MOL0     H12435   9.315   4.624   3.438 -1.9694 -0.5532 -0.1306
  833MOL0     H12436   9.268   4.476   3.514  2.3136 -2.2277  0.9746
  833MOL0     H12437   8.390   5.023   4.107 -0.3852  1.3137 -0.9399
  833MOL0     H12438   8.196   4.884   4.174 -2.0299 -2.1067 -1.4662
  833MOL0     H12439   7.748   4.749   4.295 -3.5853  0.9566  0.9137
  833MOL0     H12440   7.548   4.709   4.277  0.4691  1.6860 -0.7532
  833MOL0     H12441   7.335   4.905   3.303  3.2633  2.0061  1.0783
  833MOL0     H12442   7.400   4.904   3.058  0.9140  0.6568 -0.6053
  833MOL0     H12443   7.573   4.807   2.696 -0.3184  0.4860 -3.2554
  833MOL0     H12444   7.677   4.787   2.475  0.3457 -1.1496 -0.2965
  833MOL0     H12445   8.104   4.875   2.412 -0.3379 -0.1882 -1.1407
  833MOL0     H12446   8.126   4.732   2.507 -0.8465 -2.5289 -0.9833
  833MOL0     H12447   8.122   4.596   2.325  0.1772 -0.6245  0.0507
  833MOL0     H12448   8.233   4.724   2.301  0.0227 -2.3073  0.9240
  833MOL0     H12449   8.042   4.817   2.146 -0.9571  0.8482  3.0043
  833MOL0     H12450   7.960   4.656   2.167  0.7739 -1.7301 -1.9556
  833MOL0     H12451   8.243   4.660   2.091 -0.1782  1.1057  2.6526
  833MOL0     H12452   8.115   4.675   1.965  0.2239 -2.8897 -0.7056
  833MOL0     H12453   8.083   4.274   2.048 -2.3106 -0.3695  2.8648
  833MOL0     H12454   8.065   4.851   2.658 -0.1827 -1.3672 -1.3386
  833MOL0     H12455   7.976   4.895   2.863 -0.4186 -0.6026 -0.2164
  834MOL0     O12456   0.344   3.018   4.536 -0.4403 -0.7928  0.3634
  834MOL0     C12457   0.299   3.119   4.482  1.3070  0.0745 -0.2374
  834MOL0     O12458   0.281   3.144   4.345  0.1297 -0.0059  0.0144
  834MOL0     C12459   0.335   3.051   4.263  0.1639  0.0269  0.5944
  834MOL0     C12460   0.457   3.057   4.201  0.2750  0.6560  0.2458
  834MOL0     C12461   0.496   2.957   4.109 -0.1111 -0.8495  0.1597
  834MOL0     C12462   0.414   2.849   4.082  0.1274  0.1620  0.7421
  834MOL0     O12463   0.447   2.761   3.989  0.0566  0.1403 -0.0928
  834MOL0     C12464   0.572   2.697   4.012  0.4295 -0.4354 -0.6565
  834MOL0     C12465   0.559   2.553   3.952  0.3066 -0.5654  0.0407
  834MOL0     C12466   0.432   2.482   3.990  0.9066 -0.0315  0.0864
  834MOL0     C12467   0.308   2.504   3.891 -0.5665 -0.2126  0.0179
  834MOL0     C12468   0.174   2.473   3.956 -0.2478  0.0606  0.7741
  834MOL0     C12469   0.049   2.495   3.871  0.0114  0.3642 -0.7749
  834MOL0     C12470  -0.069   2.478   3.962 -0.0365 -0.2712  0.1576
  834MOL0     C12471  -0.207   2.514   3.891  0.2689  0.3770 -0.6538
  834MOL0     N12472  -0.326   2.496   3.973 -0.6229  0.2673  0.2925
  834MOL0     C12473  -0.324   2.439   4.099 -0.1086  1.0950  0.6927
  834MOL0     C12474  -0.437   2.487   4.162 -0.1480  0.6102 -0.1120
  834MOL0     C12475  -0.486   2.415   4.301  0.1817 -1.2507 -0.3576
  834MOL0     C12476  -0.581   2.503   4.389 -0.0750 -0.2828  0.2277
  834MOL0     C12477  -0.613   2.447   4.527  0.4272 -0.2684  0.3632
  834MOL0     C12478  -0.674   2.306   4.510  0.1788 -0.5585 -1.2444
  834MOL0     O12479  -0.699   2.249   4.641 -0.0257  0.1878 -0.5697
  834MOL0     C12480  -0.830   2.238   4.682  0.3980  0.5502  1.0106
  834MOL0     C12481  -0.855   2.126   4.767  0.4027 -0.3125  0.1440
  834MOL0     C12482  -0.980   2.113   4.824 -0.3582  0.0416 -0.0734
  834MOL0     C12483  -0.986   1.991   4.924  0.9110  0.7196 -0.2830
  834MOL0     C12484  -1.082   2.203   4.791  0.1859  0.9430 -0.2001
  834MOL0     C12485  -1.221   2.182   4.851  0.3462  0.2301  0.3361
  834MOL0     O12486  -1.298   2.288   4.845  0.3372  0.2843  0.5931
  834MOL0     C12487  -1.424   2.285   4.905  0.7492 -0.3077 -0.0791
  834MOL0     C12488  -1.444   2.257   5.042 -0.0730  0.2861  0.3577
  834MOL0     C12489  -1.566   2.234   5.094  0.3846 -0.0801 -0.1285
  834MOL0     C12490  -1.679   2.234   5.005  0.5119  0.2240 -0.2995
  834MOL0     O12491  -1.798   2.194   5.060 -0.1247  0.1373  0.1149
  834MOL0     C12492  -1.867   2.102   4.980  0.3903 -0.2976 -0.1571
  834MOL0     C12493  -1.805   1.964   4.998 -1.2328  0.5934  0.2303
  834MOL0     C12494  -1.909   1.863   4.968 -0.2699 -0.1617  0.9692
  834MOL0     C12495  -1.846   1.714   4.981 -0.6107  0.2151  1.0386
  834MOL0     C12496  -1.780   1.680   5.127  0.3660  0.5624  0.2624
  834MOL0     C12497  -1.875   1.684   5.252  0.4411  0.0166 -0.8828
  834MOL0     C12498  -1.933   1.540   5.289 -0.0390  0.0176  0.4785
  834MOL0     C12499  -2.009   1.463   5.189  1.1907 -0.6026  0.3242
  834MOL0    Cl12500  -2.139   1.565   5.114 -0.3844 -0.2494 -0.4429
  834MOL0     C12501  -1.663   2.267   4.872 -0.4491 -0.1083  0.1086
  834MOL0     C12502  -1.533   2.288   4.821 -0.0775 -0.7878 -0.5450
  834MOL0     O12503  -1.268   2.074   4.877 -0.3296  0.0223  0.0707
  834MOL0     C12504  -1.051   2.318   4.726 -0.2854 -0.6099  0.4968
  834MOL0     C12505  -0.925   2.339   4.666 -0.0218  0.5721  0.1023
  834MOL0     N12506  -0.504   2.568   4.071  0.2889 -0.4211 -0.8487
  834MOL0     N12507  -0.426   2.581   3.966  0.8777 -0.3683 -0.7356
  834MOL0     C12508   0.288   2.837   4.146 -1.1021 -0.2680  0.1177
  834MOL0     C12509   0.248   2.937   4.235 -0.4066 -0.5332  0.3974
  834MOL0     C12510   0.264   3.218   4.589  1.1567 -0.4124  0.5044
  834MOL0     C12511   0.216   3.341   4.545  0.7453  0.8399 -0.0400
  834MOL0     C12512   0.188   3.442   4.629 -0.6696 -0.2717 -0.4990
  834MOL0     C12513   0.194   3.415   4.772  0.7979 -0.0514  0.3096
  834MOL0     O12514   0.153   3.525   4.841  0.8698  0.0268  0.2490
  834MOL0     C12515   0.079   3.501   4.968 -0.0826 -0.1909 -0.5405
  834MOL0     C12516  -0.015   3.614   5.000  0.1055  0.2241 -0.4834
  834MOL0     C12517  -0.146   3.617   4.911  0.3040 -0.5329 -0.1842
  834MOL0     C12518  -0.238   3.495   4.929  0.6266  0.5812  0.6471
  834MOL0     C12519  -0.209   3.382   4.839 -0.3363 -0.2419 -0.1210
  834MOL0     C12520  -0.187   3.282   4.776  0.6511 -0.1476  1.0272
  834MOL0     C12521   0.229   3.288   4.823  0.3937  0.9032  0.3947
  834MOL0     C12522   0.257   3.189   4.726  0.2543  0.7455 -0.9048
  834MOL0     H12523   0.512   3.148   4.222 -0.3874  0.8917  0.9807
  834MOL0     H12524   0.590   2.971   4.058 -1.3314  0.0847 -1.9729
  834MOL0     H12525   0.652   2.755   3.964  1.3258 -0.6065  0.5676
  834MOL0     H12526   0.597   2.685   4.118 -0.1603  1.3762 -0.2789
  834MOL0     H12527   0.563   2.564   3.843 -1.7413  0.5085  0.0329
  834MOL0     H12528   0.651   2.499   3.978 -1.0808 -2.3463  1.4603
  834MOL0     H12529   0.451   2.374   3.993  0.5537 -0.1555 -1.4224
  834MOL0     H12530   0.409   2.513   4.093 -0.2456  2.0452 -0.7297
  834MOL0     H12531   0.301   2.609   3.862  0.1122  0.0119  0.6439
  834MOL0     H12532   0.327   2.433   3.810  3.1355 -0.9148  1.3362
  834MOL0     H12533   0.178   2.366   3.981  2.9642  0.1863  1.2109
  834MOL0     H12534   0.166   2.523   4.053 -1.5331  1.1889  0.1075
  834MOL0     H12535   0.045   2.599   3.838 -1.9657 -0.1127 -2.2078
  834MOL0     H12536   0.041   2.428   3.785 -0.8319  0.5120 -0.8224
  834MOL0     H12537  -0.068   2.372   3.992  0.7048 -1.1511 -2.6366
  834MOL0     H12538  -0.066   2.522   4.062 -3.1879 -0.1286  0.2760
  834MOL0     H12539  -0.210   2.468   3.791  3.6795 -0.1329 -0.6129
  834MOL0     H12540  -0.204   2.621   3.867 -2.8703  0.7039 -0.0007
  834MOL0     H12541  -0.258   2.369   4.149 -0.5682  1.4422  1.8226
  834MOL0     H12542  -0.546   2.329   4.272 -1.7776  0.0529 -0.3941
  834MOL0     H12543  -0.401   2.382   4.363  0.7370 -0.1377 -0.5013
  834MOL0     H12544  -0.669   2.534   4.331  0.7619  1.8886  0.0222
  834MOL0     H12545  -0.529   2.598   4.407  2.7871 -1.7311  0.1255
  834MOL0     H12546  -0.680   2.516   4.580 -1.3317 -1.2586 -0.4950
  834MOL0     H12547  -0.520   2.437   4.583  1.4517 -2.7521 -1.5790
  834MOL0     H12548  -0.612   2.235   4.455 -0.8142 -2.3227 -0.1997
  834MOL0     H12549  -0.767   2.310   4.451 -2.1323 -2.9952  1.8624
  834MOL0     H12550  -0.764   2.078   4.804 -0.4810 -2.4949 -0.3439
  834MOL0     H12551  -1.029   1.903   4.875 -0.2819  0.9185  0.3570
  834MOL0     H12552  -0.885   1.962   4.955  0.1146 -0.4968  1.3774
  834MOL0     H12553  -1.045   2.015   5.013  0.2883  1.8209 -0.9802
  834MOL0     H12554  -1.366   2.234   5.114  0.3863  0.3755 -0.1121
  834MOL0     H12555  -1.594   2.216   5.197 -4.6992  2.5275 -0.7665
  834MOL0     H12556  -1.971   2.102   5.014 -0.6336 -1.9192 -2.9549
  834MOL0     H12557  -1.879   2.119   4.872  0.3972 -1.3260 -0.3307
  834MOL0     H12558  -1.730   1.953   4.919 -0.2498  1.2837  1.0424
  834MOL0     H12559  -1.759   1.943   5.095 -2.0704 -1.2449  0.2764
  834MOL0     H12560  -1.942   1.882   4.866  0.0592 -0.7218  0.7538
  834MOL0     H12561  -1.986   1.876   5.044 -0.3560  0.3387  0.7956
  834MOL0     H12562  -1.911   1.629   4.957  1.5513 -1.1430 -0.3965
  834MOL0     H12563  -1.775   1.704   4.899 -0.4631 -0.3757  1.2321
  834MOL0     H12564  -1.694   1.738   5.160  2.0951 -1.8355  0.1430
  834MOL0     H12565  -1.736   1.581   5.115  0.7040  0.6429  0.8424
  834MOL0     H12566  -1.818   1.714   5.340  2.3662  1.0612 -2.4133
  834MOL0     H12567  -1.955   1.756   5.231  1.2560  1.1699 -0.1600
  834MOL0     H12568  -1.999   1.557   5.375 -1.2472 -2.5805  0.1530
  834MOL0     H12569  -1.859   1.469   5.326 -0.9449 -1.8658 -1.1592
  834MOL0     H12570  -2.058   1.372   5.225  1.5901 -2.6242 -3.7637
  834MOL0     H12571  -1.942   1.430   5.110  0.4538  2.3409 -1.6821
  834MOL0     H12572  -1.727   2.261   4.784  0.5472 -1.0656 -0.5772
  834MOL0     H12573  -1.516   2.297   4.715 -1.0401 -1.2242 -0.7439
  834MOL0     H12574  -1.127   2.392   4.705 -0.1352 -0.4797  0.4130
  834MOL0     H12575  -0.911   2.427   4.605 -2.0093  1.6676  1.1346
  834MOL0     H12576   0.212   2.768   4.110  1.5155 -2.1646 -2.2470
  834MOL0     H12577   0.151   2.931   4.283 -0.0712  1.3696  1.4289
  834MOL0     H12578   0.196   3.365   4.440 -1.8218  0.1341  0.2124
  834MOL0     H12579   0.159   3.539   4.590  1.9521  0.7516 -0.1350
  834MOL0     H12580   0.009   3.418   4.960 -1.5201  0.6478  2.2034
  834MOL0     H12581   0.140   3.498   5.059  1.5940 -0.1960 -1.6027
  834MOL0     H12582   0.040   3.708   4.994 -0.4911  0.5101 -1.7179
  834MOL0     H12583  -0.052   3.602   5.103 -1.6935 -3.5224 -1.3825
  834MOL0     H12584  -0.104   3.644   4.813  1.5681  1.4557  0.8168
  834MOL0     H12585  -0.200   3.704   4.949 -1.6149 -2.1115  0.8530
  834MOL0     H12586  -0.340   3.526   4.905  0.0283 -1.4894  0.3805
  834MOL0     H12587  -0.240   3.468   5.035 -1.0725  0.7153  0.6723
  834MOL0     H12588  -0.175   3.194   4.715 -0.0086 -0.0673  0.7800
  834MOL0     H12589   0.225   3.270   4.930  2.2179  1.9532  0.6896
  834MOL0     H12590   0.280   3.087   4.757 -0.6737  0.6546 -0.4836
  835MOL0     O12591   4.239   1.492   7.744  0.5132 -0.2555 -0.9068
  835MOL0     C12592   4.175   1.494   7.846  0.5454  0.3251  0.2724
  835MOL0     O12593   4.228   1.532   7.969 -0.3657  0.4369  0.9355
  835MOL0     C12594   4.359   1.588   7.962  0.1214 -0.3760 -0.4223
  835MOL0     C12595   4.467   1.510   7.919 -0.9182 -0.2748 -1.2005
  835MOL0     C12596   4.595   1.570   7.908  0.2680  1.3014  0.3375
  835MOL0     C12597   4.620   1.697   7.943 -0.3528 -0.3444 -0.0368
  835MOL0     O12598   4.739   1.761   7.939  0.2250 -0.2344 -0.1444
  835MOL0     C12599   4.825   1.707   7.839 -0.7367 -0.2694 -0.1765
  835MOL0     C12600   4.959   1.786   7.865 -1.1845 -0.4144 -0.3917
  835MOL0     C12601   5.009   1.773   8.014  0.2852 -0.1586  0.8709
  835MOL0     C12602   5.139   1.681   8.026  0.0648  0.2322 -0.5387
  835MOL0     C12603   5.157   1.664   8.177  0.3854  0.6661 -0.0830
  835MOL0     C12604   5.271   1.562   8.199 -0.7721 -0.9817 -0.3213
  835MOL0     C12605   5.273   1.505   8.349 -0.2374  0.6179  1.1797
  835MOL0     C12606   5.166   1.392   8.360  0.0440 -0.1886 -1.1028
  835MOL0     N12607   5.139   1.338   8.492  1.3775 -0.5819 -0.0227
  835MOL0     C12608   5.100   1.421   8.593  0.3476  1.3073 -0.8882
  835MOL0     C12609   5.064   1.334   8.695  1.0170 -0.3290  0.0517
  835MOL0     C12610   5.020   1.376   8.836 -0.4584  0.1716 -0.0264
  835MOL0     C12611   4.898   1.469   8.841  0.0922 -0.6941  0.1282
  835MOL0     C12612   4.777   1.402   8.778 -0.8113  0.1822  0.3338
  835MOL0     C12613   4.638   1.479   8.785 -0.3442  0.3974 -1.0090
  835MOL0     O12614   4.602   1.452   8.922  0.3332 -0.2723  0.2470
  835MOL0     C12615   4.471   1.436   8.946 -0.8258  0.5841  0.6008
  835MOL0     C12616   4.379   1.532   8.894 -0.1201  0.4360 -0.0498
  835MOL0     C12617   4.239   1.513   8.912 -0.0351 -0.1923 -0.4023
  835MOL0     C12618   4.154   1.631   8.889 -0.6667  0.1137 -0.1327
  835MOL0     C12619   4.199   1.396   8.975 -0.0318 -0.1014  0.1292
  835MOL0     C12620   4.057   1.358   8.990 -0.6730 -0.0805  0.1905
  835MOL0     O12621   4.029   1.223   8.994 -0.0992  0.1914  0.3722
  835MOL0     C12622   3.904   1.180   9.038  0.7835 -0.5889 -0.4469
  835MOL0     C12623   3.796   1.128   8.951  0.3471  0.7555 -0.1124
  835MOL0     C12624   3.664   1.103   9.000 -0.5222 -0.7675 -0.2168
  835MOL0     C12625   3.647   1.122   9.141  0.5498 -0.0673 -0.5158
  835MOL0     O12626   3.520   1.109   9.183  0.8234  0.6978  0.6549
  835MOL0     C12627   3.474   1.155   9.310 -0.8686 -0.9491 -0.4924
  835MOL0     C12628   3.342   1.079   9.333  0.0071  0.4950 -0.3421
  835MOL0     C12629   3.236   1.159   9.404  0.5515 -0.1398  0.3463
  835MOL0     C12630   3.107   1.082   9.418 -0.1827  0.8119  1.2175
  835MOL0     C12631   3.014   1.140   9.519 -0.1620 -0.7731  0.5569
  835MOL0     C12632   2.897   1.046   9.554 -0.4152  0.3326  0.4805
  835MOL0     C12633   2.831   1.088   9.684  0.9658  0.4177  0.0477
  835MOL0     C12634   2.891   1.065   9.822  0.1488 -0.9145  0.8198
  835MOL0    Cl12635   2.932   0.887   9.843  0.1080  0.3131 -0.1675
  835MOL0     C12636   3.746   1.169   9.225  0.1055 -0.2630  0.9917
  835MOL0     C12637   3.877   1.193   9.178  0.1974  0.3256 -0.1797
  835MOL0     O12638   3.978   1.442   8.986 -0.7657 -0.1101 -0.1720
  835MOL0     C12639   4.295   1.299   9.014 -0.3095 -0.4304 -0.5826
  835MOL0     C12640   4.434   1.324   9.016  0.1361  0.0702  0.1242
  835MOL0     N12641   5.076   1.208   8.634 -0.1865  0.4849  0.2153
  835MOL0     N12642   5.127   1.212   8.515 -0.1136 -0.4871  0.1810
  835MOL0     C12643   4.518   1.772   7.990  1.3872 -0.0837  0.0561
  835MOL0     C12644   4.384   1.721   7.997 -0.0234  0.7690  0.6975
  835MOL0     C12645   4.032   1.473   7.842 -0.9532 -0.2753  0.0914
  835MOL0     C12646   3.974   1.433   7.966 -0.2505 -0.3632  1.0829
  835MOL0     C12647   3.835   1.412   7.971 -0.0762  0.2920 -0.2795
  835MOL0     C12648   3.750   1.438   7.861 -0.4715 -0.8446  0.2194
  835MOL0     O12649   3.617   1.414   7.875  0.4699 -0.2881 -0.4165
  835MOL0     C12650   3.527   1.429   7.771 -0.1428 -0.4644 -0.4470
  835MOL0     C12651   3.395   1.374   7.816  0.1079 -0.0050 -0.0927
  835MOL0     C12652   3.308   1.477   7.887  0.0999 -0.2880 -0.4410
  835MOL0     C12653   3.168   1.422   7.939  0.5777  1.2652 -1.1227
  835MOL0     C12654   3.080   1.370   7.838 -0.0770  0.2119 -0.6066
  835MOL0     C12655   2.996   1.326   7.759 -1.2939  0.1372  0.3800
  835MOL0     C12656   3.815   1.504   7.746  0.2268 -0.1994 -0.0457
  835MOL0     C12657   3.950   1.522   7.733  0.0371  0.8706 -0.0080
  835MOL0     H12658   4.442   1.407   7.897 -2.8258 -0.4770  1.4137
  835MOL0     H12659   4.674   1.502   7.879 -2.3564 -0.9524 -2.0901
  835MOL0     H12660   4.849   1.601   7.853  0.8434  0.2311  1.2761
  835MOL0     H12661   4.795   1.711   7.734  0.7812 -0.0672 -0.6262
  835MOL0     H12662   5.043   1.759   7.800  0.4285  1.3997  0.8296
  835MOL0     H12663   4.935   1.888   7.834 -3.0515 -1.0931 -1.3498
  835MOL0     H12664   5.035   1.873   8.050 -0.2785  0.9359 -1.5729
  835MOL0     H12665   4.935   1.719   8.075 -1.5354 -1.6034 -2.3863
  835MOL0     H12666   5.113   1.584   7.983 -0.0683  0.4798 -1.0179
  835MOL0     H12667   5.223   1.739   7.987  2.4409 -1.8652  1.1137
  835MOL0     H12668   5.174   1.768   8.205 -0.2194  0.4956  0.9366
  835MOL0     H12669   5.065   1.631   8.226 -1.1971  3.6426 -0.8231
  835MOL0     H12670   5.266   1.481   8.127  0.9333 -0.2591 -1.3187
  835MOL0     H12671   5.363   1.618   8.180 -1.0181  0.9076  3.1056
  835MOL0     H12672   5.372   1.461   8.366  0.0367  0.8102  0.1602
  835MOL0     H12673   5.262   1.591   8.416 -0.0545  1.3958  0.2451
  835MOL0     H12674   5.201   1.307   8.301  1.9024 -0.0772 -0.2352
  835MOL0     H12675   5.076   1.429   8.309 -0.5013 -0.5068 -0.3856
  835MOL0     H12676   5.092   1.529   8.595  1.7329  1.4304 -0.6893
  835MOL0     H12677   5.003   1.287   8.899  2.3030 -0.2622  0.2084
  835MOL0     H12678   5.105   1.426   8.883 -1.6216  0.9005  1.3793
  835MOL0     H12679   4.917   1.563   8.788 -0.4799  0.9446  2.6490
  835MOL0     H12680   4.881   1.521   8.936  1.9116 -1.5821  0.9978
  835MOL0     H12681   4.777   1.300   8.816  3.5206 -1.6567 -3.6975
  835MOL0     H12682   4.796   1.393   8.671  2.5022 -0.2140  0.8703
  835MOL0     H12683   4.576   1.425   8.714 -0.4084 -1.1264  0.1609
  835MOL0     H12684   4.643   1.586   8.761 -1.7368  1.1844  1.7417
  835MOL0     H12685   4.434   1.619   8.859  2.4683 -0.1845  2.1556
  835MOL0     H12686   4.096   1.671   8.972 -2.7167  0.8870 -1.8435
  835MOL0     H12687   4.230   1.703   8.858 -1.2023 -0.0606 -1.9419
  835MOL0     H12688   4.097   1.610   8.798  1.1449 -0.3990 -1.2023
  835MOL0     H12689   3.813   1.112   8.845  1.6462  0.6983  0.1000
  835MOL0     H12690   3.595   1.050   8.934  0.5671 -2.2161 -0.2393
  835MOL0     H12691   3.539   1.129   9.395  2.1527  0.2728 -2.2546
  835MOL0     H12692   3.457   1.263   9.309  1.1254 -0.5263  1.4304
  835MOL0     H12693   3.305   1.030   9.243  4.0821 -2.3005 -0.7542
  835MOL0     H12694   3.369   1.005   9.408  4.2885  0.2199 -1.8619
  835MOL0     H12695   3.223   1.252   9.349 -0.3414  1.1731  2.6343
  835MOL0     H12696   3.289   1.189   9.495  0.4719  0.7064  0.1248
  835MOL0     H12697   3.048   1.079   9.326  0.8275  1.2450  0.5352
  835MOL0     H12698   3.132   0.978   9.440  2.2082  1.1611  0.4519
  835MOL0     H12699   2.981   1.239   9.484 -0.7980 -1.4001 -0.6948
  835MOL0     H12700   3.071   1.157   9.611  3.2420 -2.1079 -1.1158
  835MOL0     H12701   2.823   1.046   9.473 -2.2069  0.1869  2.0527
  835MOL0     H12702   2.931   0.944   9.575  2.5222  0.3208 -3.2211
  835MOL0     H12703   2.728   1.051   9.687  1.5244 -1.7240 -2.7379
  835MOL0     H12704   2.820   1.196   9.670 -0.3305  0.1160 -1.6018
  835MOL0     H12705   2.813   1.084   9.896 -2.3299  0.0630 -1.8631
  835MOL0     H12706   2.983   1.124   9.834  0.3025 -0.5112 -1.6670
  835MOL0     H12707   3.733   1.188   9.331 -2.5026  2.6779  0.2903
  835MOL0     H12708   3.949   1.232   9.249 -1.5718 -0.4320  2.1628
  835MOL0     H12709   4.263   1.207   9.061 -1.0935 -0.0345 -0.3258
  835MOL0     H12710   4.507   1.258   9.062 -1.2354  0.5543  3.2040
  835MOL0     H12711   4.544   1.864   8.042  3.0276 -1.9029  2.7189
  835MOL0     H12712   4.307   1.793   8.022 -2.8435 -0.6071 -3.1581
  835MOL0     H12713   4.029   1.400   8.054  0.1895  0.1817  1.0181
  835MOL0     H12714   3.796   1.373   8.064  0.0777  1.3400  0.2377
  835MOL0     H12715   3.509   1.531   7.738  0.2233  0.2404  1.4266
  835MOL0     H12716   3.574   1.376   7.687 -1.1639  0.6761 -1.7768
  835MOL0     H12717   3.423   1.289   7.878  0.1483  2.5538  3.7314
  835MOL0     H12718   3.350   1.325   7.729  1.1750  1.2211 -1.4020
  835MOL0     H12719   3.281   1.558   7.819  0.6542 -1.0589 -1.6095
  835MOL0     H12720   3.363   1.513   7.974  0.8094 -2.6591  0.1622
  835MOL0     H12721   3.114   1.505   7.985 -0.4257 -0.2343  0.5303
  835MOL0     H12722   3.177   1.342   8.014  0.1955  1.3548 -0.9762
  835MOL0     H12723   2.924   1.312   7.681 -2.0073 -1.4530  1.2681
  835MOL0     H12724   3.749   1.543   7.670 -1.7287  2.9220  2.9803
  835MOL0     H12725   4.003   1.574   7.654 -0.1837  1.6240  0.3292
  836MOL0     O12726   4.835  10.855   0.290 -0.0013 -0.1931  0.5061
  836MOL0     C12727   4.859  10.854   0.166  0.0623 -0.4492 -0.0946
  836MOL0     O12728   4.770  10.821   0.074 -1.6034 -0.6971  0.7977
  836MOL0     C12729   4.648  10.798   0.124  0.6008  0.8299  0.5429
  836MOL0     C12730   4.590  10.668   0.123 -1.0557 -0.3862  0.2641
  836MOL0     C12731   4.461  10.653   0.176 -0.5594 -0.2816 -0.7728
  836MOL0     C12732   4.377  10.759   0.204 -0.3211  0.3671  1.1217
  836MOL0     O12733   4.256  10.736   0.251  0.6720  0.0968 -0.2447
  836MOL0     C12734   4.160  10.712   0.140 -0.8002 -0.4780  0.1749
  836MOL0     C12735   4.049  10.812   0.162 -0.3809 -1.1074 -0.5420
  836MOL0     C12736   3.980  10.816   0.296 -0.4102  0.3533 -0.1044
  836MOL0     C12737   3.894  10.698   0.335 -0.2102  0.2733  0.9574
  836MOL0     C12738   3.922  10.671   0.480  0.1877 -0.1898  0.2187
  836MOL0     C12739   3.859  10.544   0.529  0.0433 -0.6572 -0.0209
  836MOL0     C12740   3.876  10.416   0.439  0.1131  0.3940  0.4823
  836MOL0     C12741   3.828  10.282   0.510  0.2388  0.4191  0.5256
  836MOL0     N12742   3.684  10.257   0.512  0.4753  0.0218 -0.1906
  836MOL0     C12743   3.576  10.330   0.466  0.1364  0.5560  0.0813
  836MOL0     C12744   3.469  10.246   0.489  0.1074 -0.2533 -0.3185
  836MOL0     C12745   3.321  10.287   0.457  0.1587  0.4535 -0.0400
  836MOL0     C12746   3.215  10.177   0.467 -0.4022 -0.2524 -0.1557
  836MOL0     C12747   3.101  10.224   0.379  0.0486 -0.5979 -0.7539
  836MOL0     C12748   2.977  10.138   0.402 -0.2530  0.6810 -0.5753
  836MOL0     O12749   2.889  10.126   0.285  0.3786  0.5338  0.3088
  836MOL0     C12750   2.770  10.069   0.288  1.1326  0.1766 -0.2830
  836MOL0     C12751   2.697  10.018   0.398 -0.3858  0.1435 -0.3840
  836MOL0     C12752   2.569   9.964   0.382  0.6264 -0.7787  0.1655
  836MOL0     C12753   2.512   9.885   0.488 -0.3101  0.0105  0.5765
  836MOL0     C12754   2.503   9.970   0.252 -0.5912 -0.4882  0.8048
  836MOL0     C12755   2.366   9.909   0.227  0.1732  0.8871  0.0265
  836MOL0     O12756   2.335   9.906   0.092 -0.0243 -0.6081  0.1933
  836MOL0     C12757   2.202   9.910   0.066 -1.1407  0.1031 -0.7993
  836MOL0     C12758   2.138  10.029   0.057  0.2805  0.3440  0.0130
  836MOL0     C12759   2.002  10.029   0.029  0.9340  0.2536 -0.6437
  836MOL0     C12760   1.933   9.921  -0.008  0.4950 -0.2395 -0.4940
  836MOL0     O12761   1.800   9.919  -0.034 -0.5683 -0.1223  0.1468
  836MOL0     C12762   1.757   9.877  -0.165 -0.1917  0.0667  0.7672
  836MOL0     C12763   1.729  10.002  -0.256 -0.2551  0.4292  0.5949
  836MOL0     C12764   1.577  10.035  -0.231 -0.1977  0.1490  0.3400
  836MOL0     C12765   1.574  10.182  -0.256 -0.3575 -0.7953  0.3887
  836MOL0     C12766   1.431  10.228  -0.241 -0.5388 -0.2245 -0.0587
  836MOL0     C12767   1.429  10.373  -0.275 -0.6569  0.1752  0.1032
  836MOL0     C12768   1.291  10.432  -0.268  0.1172 -1.5744  0.0729
  836MOL0     C12769   1.188  10.406  -0.378  0.5282  0.4334  0.0954
  836MOL0    Cl12770   1.033  10.508  -0.369 -0.1191  0.4749  0.0813
  836MOL0     C12771   2.003   9.799  -0.001  0.4874  0.0901 -0.6917
  836MOL0     C12772   2.137   9.786   0.038 -0.1183  0.1753  0.7884
  836MOL0     O12773   2.290   9.891   0.318  0.4727  0.3410  0.0564
  836MOL0     C12774   2.575  10.022   0.148 -0.4142  0.7322 -1.3682
  836MOL0     C12775   2.710  10.063   0.163  0.7068 -0.2269 -0.0534
  836MOL0     N12776   3.518  10.120   0.540  0.0755  0.2082  0.4014
  836MOL0     N12777   3.638  10.139   0.571 -0.4955  0.1761  0.0028
  836MOL0     C12778   4.431  10.883   0.187  0.3186 -0.4640  0.6669
  836MOL0     C12779   4.560  10.907   0.155  0.0217 -0.5464  0.5241
  836MOL0     C12780   4.991  10.888   0.120  0.2171  1.2660  0.0660
  836MOL0     C12781   5.102  10.907   0.206  0.8146 -0.4665 -0.3876
  836MOL0     C12782   5.237  10.920   0.163 -0.0279 -0.8243 -0.4878
  836MOL0     C12783   5.264  10.906   0.023 -0.0657 -0.5074  0.5992
  836MOL0     O12784   5.391  10.911  -0.028 -0.0763  0.3941 -0.2416
  836MOL0     C12785   5.435  10.781  -0.082  0.8204  0.1602  0.2109
  836MOL0     C12786   5.560  10.797  -0.154  0.3521  0.1965 -0.0427
  836MOL0     C12787   5.545  10.890  -0.281  0.9446 -0.1374 -0.2086
  836MOL0     C12788   5.662  10.879  -0.372 -0.5240 -0.2990  0.6352
  836MOL0     C12789   5.781  10.942  -0.315 -0.9725 -0.3361  0.0372
  836MOL0     C12790   5.855  11.005  -0.243  0.1935  0.3543  1.3876
  836MOL0     C12791   5.152  10.881  -0.064 -0.3825  0.3581  0.5324
  836MOL0     C12792   5.023  10.877  -0.016 -0.5681  0.7190 -1.2911
  836MOL0     H12793   4.644  10.586   0.077 -0.8392 -0.0947 -0.0114
  836MOL0     H12794   4.420  10.552   0.177  1.5251 -1.1881 -1.8584
  836MOL0     H12795   4.208  10.720   0.042 -1.1392 -3.2513 -0.2871
  836MOL0     H12796   4.126  10.609   0.150 -1.3227 -0.4082 -0.8378
  836MOL0     H12797   4.084  10.913   0.138  0.4493 -0.2815  3.4037
  836MOL0     H12798   3.972  10.796   0.086 -0.1755 -0.7925 -0.8240
  836MOL0     H12799   4.059  10.830   0.370 -0.5164  3.0523 -0.4313
  836MOL0     H12800   3.907  10.897   0.310 -0.2732  0.7477 -1.5726
  836MOL0     H12801   3.789  10.723   0.313 -0.6129  1.3950  3.7355
  836MOL0     H12802   3.914  10.604   0.284 -2.6499  0.4772 -0.5868
  836MOL0     H12803   4.029  10.656   0.497  0.6328  3.1442  1.1068
  836MOL0     H12804   3.888  10.756   0.540 -5.0286 -2.9278  1.7860
  836MOL0     H12805   3.916  10.525   0.620 -1.3698 -2.3258  0.5549
  836MOL0     H12806   3.754  10.561   0.554  0.0331 -2.6550  1.5495
  836MOL0     H12807   3.808  10.418   0.354  0.5586  0.8851  0.1305
  836MOL0     H12808   3.978  10.396   0.404  0.3049  0.8323  0.7901
  836MOL0     H12809   3.838  10.304   0.617 -0.8839 -0.5870  0.8683
  836MOL0     H12810   3.884  10.192   0.486 -0.3417 -0.7359  3.1447
  836MOL0     H12811   3.571  10.422   0.409  0.0309 -1.6896 -3.8940
  836MOL0     H12812   3.285  10.363   0.527 -1.4754  0.4424 -0.8157
  836MOL0     H12813   3.326  10.337   0.359 -1.1349  1.6612  0.4772
  836MOL0     H12814   3.196  10.162   0.574  1.5839 -4.8425 -0.2162
  836MOL0     H12815   3.250  10.082   0.426  0.7389 -1.3332  3.0036
  836MOL0     H12816   3.133  10.214   0.275  0.3992 -1.8337 -0.5368
  836MOL0     H12817   3.084  10.327   0.413  0.1346 -1.3249  1.7002
  836MOL0     H12818   2.914  10.172   0.485 -0.3109 -0.9131  0.0615
  836MOL0     H12819   3.008  10.036   0.427 -0.7358  0.7873  0.5342
  836MOL0     H12820   2.748  10.021   0.493 -0.7534  3.2945 -0.1773
  836MOL0     H12821   2.584   9.849   0.562 -0.7040 -3.0122 -0.3879
  836MOL0     H12822   2.433   9.954   0.520  0.1560  0.6517  0.3512
  836MOL0     H12823   2.480   9.792   0.439 -0.9125  0.8479 -0.6644
  836MOL0     H12824   2.185  10.127   0.064  0.2402  0.2567  2.0925
  836MOL0     H12825   1.951  10.125   0.022  2.0971  1.1571  2.0193
  836MOL0     H12826   1.836   9.818  -0.213  0.1148  2.4976 -2.0127
  836MOL0     H12827   1.666   9.817  -0.154  1.1468 -1.9157  1.6016
  836MOL0     H12828   1.798  10.084  -0.236  1.8627 -0.8317 -1.0166
  836MOL0     H12829   1.736   9.976  -0.363 -1.8310 -1.2118  0.8349
  836MOL0     H12830   1.534  10.004  -0.136 -2.4706  2.2160  0.0705
  836MOL0     H12831   1.524   9.986  -0.314 -0.5450  1.2395 -0.1018
  836MOL0     H12832   1.635  10.232  -0.181  2.3106 -2.9901 -0.1655
  836MOL0     H12833   1.611  10.199  -0.357  0.5856 -1.4315  0.6095
  836MOL0     H12834   1.400  10.221  -0.136  5.4145  0.4490  2.1470
  836MOL0     H12835   1.363  10.174  -0.307 -1.9280 -0.0792  1.2073
  836MOL0     H12836   1.487  10.426  -0.198 -0.3398 -3.8047  2.8914
  836MOL0     H12837   1.456  10.391  -0.379 -0.8623  1.3457  0.2342
  836MOL0     H12838   1.307  10.540  -0.268  0.8156 -1.5493 -3.5495
  836MOL0     H12839   1.253  10.415  -0.168 -2.9674  1.6810 -0.3781
  836MOL0     H12840   1.164  10.300  -0.375  0.1559  0.5015 -0.2532
  836MOL0     H12841   1.231  10.417  -0.478  3.4482  0.7888  1.3031
  836MOL0     H12842   1.960   9.705  -0.035  0.4450 -0.0886 -0.1456
  836MOL0     H12843   2.180   9.687   0.040 -3.6648 -1.6283 -1.5088
  836MOL0     H12844   2.531  10.019   0.049  0.2628  1.4094 -1.7013
  836MOL0     H12845   2.762  10.103   0.076 -2.0620  1.9316 -0.8535
  836MOL0     H12846   4.359  10.956   0.221  0.1270 -0.1238 -0.4217
  836MOL0     H12847   4.598  11.009   0.152 -1.5451  0.1020  1.5102
  836MOL0     H12848   5.072  10.925   0.309 -3.6542 -0.2834 -1.4947
  836MOL0     H12849   5.312  10.958   0.231  0.5886 -2.2660 -0.3314
  836MOL0     H12850   5.461  10.708  -0.005  1.9340 -1.1587 -1.3311
  836MOL0     H12851   5.355  10.735  -0.140  3.0409  0.3404 -3.3567
  836MOL0     H12852   5.595  10.696  -0.177 -0.7328  0.0137 -0.9631
  836MOL0     H12853   5.641  10.839  -0.093 -0.4931  1.1932  0.4120
  836MOL0     H12854   5.524  10.994  -0.256 -2.3713 -0.2276 -2.0552
  836MOL0     H12855   5.456  10.859  -0.336 -0.0667 -0.1989  1.4047
  836MOL0     H12856   5.652  10.939  -0.463 -3.3414  0.9488  1.6496
  836MOL0     H12857   5.670  10.775  -0.405 -0.3097 -0.8064  2.1717
  836MOL0     H12858   5.937  11.025  -0.178  1.3320 -0.3537  0.2133
  836MOL0     H12859   5.165  10.861  -0.170 -3.3637  1.7420 -0.1893
  836MOL0     H12860   4.956  10.840  -0.092 -1.6682 -3.0268  1.1873
  837MOL0     O12861   5.722   9.370   4.248 -0.4382  0.1935  0.4684
  837MOL0     C12862   5.796   9.448   4.307  0.0508  0.0964 -0.8191
  837MOL0     O12863   5.932   9.462   4.282 -0.7137 -0.2308  0.2847
  837MOL0     C12864   6.006   9.365   4.208 -0.0603 -0.9277 -0.6032
  837MOL0     C12865   6.128   9.411   4.154  0.0881  0.8992  0.0191
  837MOL0     C12866   6.209   9.323   4.086 -0.2903  0.7171  0.1648
  837MOL0     C12867   6.168   9.191   4.068  0.8652 -0.0042  0.9391
  837MOL0     O12868   6.246   9.095   3.994 -0.8130 -0.7276 -0.2570
  837MOL0     C12869   6.280   9.136   3.855 -0.4420  0.9699 -0.2424
  837MOL0     C12870   6.167   9.084   3.767  0.3648  0.3745  0.0388
  837MOL0     C12871   6.180   9.124   3.622 -0.2765  0.4437 -0.2912
  837MOL0     C12872   6.254   9.021   3.534  0.2014 -1.0210  0.1357
  837MOL0     C12873   6.249   9.057   3.387  0.0354 -0.8166  0.6659
  837MOL0     C12874   6.347   8.965   3.306  0.2474 -0.3475  0.9125
  837MOL0     C12875   6.357   8.999   3.159 -0.4938  0.5336  0.3079
  837MOL0     C12876   6.357   9.140   3.125  0.3763  0.2229  0.1388
  837MOL0     N12877   6.397   9.166   2.985  0.1957 -0.1110 -0.0163
  837MOL0     C12878   6.335   9.119   2.874 -0.0577  0.4765  0.3054
  837MOL0     C12879   6.430   9.138   2.778 -0.0650 -0.5773 -0.2793
  837MOL0     C12880   6.423   9.070   2.646  0.4172  0.2392 -0.7204
  837MOL0     C12881   6.436   8.922   2.673 -0.6299  0.5277 -0.2853
  837MOL0     C12882   6.521   8.847   2.569  0.0606 -0.4788  0.4872
  837MOL0     C12883   6.543   8.699   2.598  0.0381  0.2617  0.0596
  837MOL0     O12884   6.605   8.672   2.724  0.5111  0.3288  0.0436
  837MOL0     C12885   6.527   8.642   2.834  0.2919  0.0417  0.1616
  837MOL0     C12886   6.386   8.640   2.851 -0.1433  0.1492  0.5625
  837MOL0     C12887   6.320   8.604   2.972 -0.1655  0.8715  0.4816
  837MOL0     C12888   6.171   8.608   2.979  0.0351 -0.9410  0.3115
  837MOL0     C12889   6.403   8.583   3.089  0.3453  0.1802  0.3596
  837MOL0     C12890   6.343   8.548   3.226  0.0676 -0.2982  1.3854
  837MOL0     O12891   6.231   8.481   3.227  1.0778 -0.0048 -0.4705
  837MOL0     C12892   6.171   8.445   3.351 -0.0599 -0.2855  0.3343
  837MOL0     C12893   6.142   8.312   3.383  0.5483 -0.7338  0.4934
  837MOL0     C12894   6.090   8.280   3.507 -0.3152  0.4303 -0.2418
  837MOL0     C12895   6.075   8.373   3.606  0.3886  0.6771 -0.4770
  837MOL0     O12896   6.037   8.318   3.722 -0.8189 -0.3835 -0.4520
  837MOL0     C12897   6.003   8.404   3.829 -0.4591  0.2082  0.1743
  837MOL0     C12898   5.962   8.322   3.944  0.1907 -0.0696  1.4748
  837MOL0     C12899   5.832   8.387   4.014 -0.0057 -1.2961  0.6286
  837MOL0     C12900   5.822   8.323   4.156 -0.6238  0.0538  0.0266
  837MOL0     C12901   5.702   8.384   4.231 -0.4495  0.1300 -0.7715
  837MOL0     C12902   5.567   8.336   4.173 -0.4077  0.3517 -0.2056
  837MOL0     C12903   5.513   8.221   4.260 -0.3657  0.1862 -0.3181
  837MOL0     C12904   5.579   8.086   4.241 -0.0089  0.5560 -0.4709
  837MOL0    Cl12905   5.573   8.041   4.079 -0.3461  0.7249  0.0514
  837MOL0     C12906   6.104   8.502   3.578 -0.0142 -0.2115  0.3887
  837MOL0     C12907   6.147   8.540   3.448 -0.4438 -0.2351  0.5081
  837MOL0     O12908   6.398   8.605   3.319 -0.5525  0.3238 -0.0207
  837MOL0     C12909   6.543   8.597   3.073  0.7943  0.5624 -0.9314
  837MOL0     C12910   6.604   8.638   2.952  0.8669 -0.6603 -0.7459
  837MOL0     N12911   6.542   9.185   2.838 -0.5323 -0.3647  0.8199
  837MOL0     N12912   6.519   9.215   2.955 -0.1938  0.1058 -0.7201
  837MOL0     C12913   6.046   9.149   4.121 -0.5868 -0.1665 -0.7097
  837MOL0     C12914   5.971   9.234   4.197  0.3825  0.0653 -0.6163
  837MOL0     C12915   5.733   9.551   4.389 -0.0657 -0.2186 -0.3260
  837MOL0     C12916   5.813   9.617   4.483 -1.2103 -0.6326 -0.5019
  837MOL0     C12917   5.752   9.712   4.569 -0.0318  0.6173 -0.0026
  837MOL0     C12918   5.613   9.741   4.561 -0.2114  0.7648 -1.1206
  837MOL0     O12919   5.550   9.818   4.650 -0.1209 -0.6368 -0.5041
  837MOL0     C12920   5.618   9.889   4.758  0.1624 -0.9540 -0.3112
  837MOL0     C12921   5.519   9.987   4.832  0.3847  0.7070  0.0238
  837MOL0     C12922   5.384   9.918   4.879 -0.6523 -0.6352  0.3034
  837MOL0     C12923   5.315  10.003   4.978  0.1044  0.0902 -1.0059
  837MOL0     C12924   5.386  10.006   5.107  1.1751 -0.2235 -0.7821
  837MOL0     C12925   5.450  10.006   5.210  0.2849  0.5057 -0.5141
  837MOL0     C12926   5.541   9.680   4.465  0.6477  0.8188  0.6361
  837MOL0     C12927   5.596   9.589   4.375 -0.0844  0.8701 -0.5389
  837MOL0     H12928   6.145   9.517   4.167  0.7057  0.7007  0.9580
  837MOL0     H12929   6.301   9.349   4.035  0.2202 -3.0386 -1.1210
  837MOL0     H12930   6.291   9.243   3.835  0.7649  0.5449 -2.1844
  837MOL0     H12931   6.380   9.103   3.823 -0.6081 -0.8813  0.9498
  837MOL0     H12932   6.164   8.975   3.770  2.6594  0.2269 -0.8817
  837MOL0     H12933   6.072   9.121   3.809 -1.8994 -1.4081 -3.0791
  837MOL0     H12934   6.080   9.134   3.579 -0.8530 -2.3545  0.1676
  837MOL0     H12935   6.233   9.218   3.609 -3.0365  2.3199  1.0349
  837MOL0     H12936   6.358   9.018   3.568 -0.6180  1.6060  3.3519
  837MOL0     H12937   6.208   8.925   3.560  0.5027 -0.7802  1.6404
  837MOL0     H12938   6.149   9.031   3.351 -0.5531 -2.1659  3.1114
  837MOL0     H12939   6.269   9.163   3.365 -0.5259 -1.0246 -1.0329
  837MOL0     H12940   6.446   8.978   3.350 -0.1617 -1.4469  2.2214
  837MOL0     H12941   6.337   8.858   3.328  1.3576 -0.5982  0.2994
  837MOL0     H12942   6.457   8.968   3.126 -0.0463  3.3971 -1.3551
  837MOL0     H12943   6.285   8.946   3.097 -3.8566  1.2136  3.2820
  837MOL0     H12944   6.427   9.197   3.187 -0.5577  1.6761 -0.0835
  837MOL0     H12945   6.256   9.179   3.143 -0.4887 -1.1692 -1.3884
  837MOL0     H12946   6.243   9.062   2.865  1.5199 -2.3969  1.0503
  837MOL0     H12947   6.326   9.093   2.602 -0.3194  0.2181  0.8534
  837MOL0     H12948   6.504   9.103   2.580  2.1166 -1.9952  0.1388
  837MOL0     H12949   6.334   8.882   2.668 -0.8846  1.2602 -1.4841
  837MOL0     H12950   6.474   8.897   2.772 -0.0041 -0.2765 -0.7165
  837MOL0     H12951   6.620   8.892   2.556  1.0939 -2.9365 -0.8235
  837MOL0     H12952   6.466   8.844   2.474  2.7646  0.6374 -1.2162
  837MOL0     H12953   6.599   8.653   2.516 -1.3885 -0.9576 -0.2929
  837MOL0     H12954   6.445   8.651   2.583  0.1483 -0.3695  1.2336
  837MOL0     H12955   6.322   8.643   2.763 -1.6029  2.7932  1.5966
  837MOL0     H12956   6.128   8.509   2.994 -1.4888 -0.5168 -0.9367
  837MOL0     H12957   6.154   8.682   3.058 -0.5316  0.2117 -0.8500
  837MOL0     H12958   6.124   8.656   2.892  0.7263  3.6427  2.1539
  837MOL0     H12959   6.158   8.237   3.307 -3.7149  0.8891 -2.3779
  837MOL0     H12960   6.071   8.180   3.544  2.6040  0.1945  0.8775
  837MOL0     H12961   6.080   8.477   3.857 -0.0571 -0.6400  1.3943
  837MOL0     H12962   5.923   8.470   3.794  0.1933  0.0560 -1.7039
  837MOL0     H12963   5.943   8.221   3.908  0.0089  0.1591  0.9217
  837MOL0     H12964   6.048   8.316   4.013 -1.0871 -2.2199  2.9945
  837MOL0     H12965   5.748   8.358   3.950 -0.9324  0.1848  1.1288
  837MOL0     H12966   5.849   8.495   4.020 -0.2649 -1.3540  4.2693
  837MOL0     H12967   5.824   8.216   4.135  4.0897  0.3585 -2.3023
  837MOL0     H12968   5.916   8.339   4.209 -1.6290 -2.0860  2.6727
  837MOL0     H12969   5.714   8.493   4.224 -0.8129  0.1344 -1.3729
  837MOL0     H12970   5.709   8.362   4.338  3.4406  2.8895 -0.2318
  837MOL0     H12971   5.495   8.418   4.178 -2.1788 -1.2100  2.3063
  837MOL0     H12972   5.589   8.314   4.068  0.5021  2.1341 -0.4169
  837MOL0     H12973   5.412   8.199   4.223  0.6293 -1.2332 -2.4287
  837MOL0     H12974   5.515   8.246   4.366 -1.3477 -2.0424  0.2813
  837MOL0     H12975   5.535   8.008   4.303 -0.6598 -0.1046 -1.7259
  837MOL0     H12976   5.685   8.100   4.261 -0.2507  0.6722  0.7756
  837MOL0     H12977   6.099   8.578   3.656 -0.7611 -0.3541  0.4795
  837MOL0     H12978   6.178   8.641   3.421  0.7594 -0.9675 -1.0370
  837MOL0     H12979   6.611   8.580   3.156 -0.4546  2.6601  0.6445
  837MOL0     H12980   6.710   8.662   2.946  0.6549  0.0203 -2.0719
  837MOL0     H12981   6.019   9.044   4.116 -2.8297  0.4018 -1.5392
  837MOL0     H12982   5.883   9.207   4.254  0.6327  0.1785 -0.1708
  837MOL0     H12983   5.918   9.590   4.495 -1.8831 -2.4348  2.2008
  837MOL0     H12984   5.824   9.763   4.631 -0.8871  1.6161  0.1920
  837MOL0     H12985   5.649   9.815   4.832  1.4241  0.4569  0.6500
  837MOL0     H12986   5.699   9.938   4.703  1.8875 -1.2122  1.8663
  837MOL0     H12987   5.495  10.070   4.764 -0.2228  0.6700  0.1871
  837MOL0     H12988   5.572  10.018   4.923 -1.4177  0.0954  1.3559
  837MOL0     H12989   5.415   9.827   4.930  0.4573  0.6972  2.1247
  837MOL0     H12990   5.323   9.892   4.792 -1.0372  0.3520  0.2583
  837MOL0     H12991   5.215   9.962   4.993 -1.9136  3.8805 -2.4917
  837MOL0     H12992   5.311  10.109   4.949  3.3409  0.6934  0.2648
  837MOL0     H12993   5.500  10.018   5.304  1.4794  0.9924 -1.1890
  837MOL0     H12994   5.434   9.691   4.478  0.5329 -1.2781  1.9713
  837MOL0     H12995   5.531   9.527   4.314 -1.1552  1.8171 -0.3908
  838MOL0     O12996   7.710   0.432  10.472  0.7469 -0.2057  0.6005
  838MOL0     C12997   7.629   0.339  10.469  0.0471 -0.5856  0.0329
  838MOL0     O12998   7.498   0.351  10.505  0.8050  0.2676  0.3414
  838MOL0     C12999   7.437   0.476  10.532 -0.4304 -0.6014  0.3348
  838MOL0     C13000   7.318   0.507  10.467 -0.1665  0.0694 -0.1466
  838MOL0     C13001   7.258   0.635  10.498 -0.0452 -0.1783 -1.4357
  838MOL0     C13002   7.308   0.727  10.578  0.0971 -0.0892 -0.3406
  838MOL0     O13003   7.251   0.848  10.613  0.1578  0.7372  0.0675
  838MOL0     C13004   7.179   0.921  10.520  0.8381  0.5207 -0.1091
  838MOL0     C13005   7.115   1.057  10.566  0.6827 -1.3724  0.1137
  838MOL0     C13006   7.023   1.048  10.690  0.6900  0.9901 -1.3442
  838MOL0     C13007   6.892   0.970  10.660 -0.1777  0.5377  0.1950
  838MOL0     C13008   6.773   1.021  10.734  0.6401 -0.2183  0.1579
  838MOL0     C13009   6.643   0.995  10.672  0.1710  0.3998 -0.5614
  838MOL0     C13010   6.513   1.012  10.754  0.1646  0.7612  0.2225
  838MOL0     C13011   6.489   1.142  10.818 -1.2667  0.3571  0.5504
  838MOL0     N13012   6.352   1.145  10.874  0.0346  0.1963 -0.1738
  838MOL0     C13013   6.320   1.059  10.981 -0.0599 -0.0578 -0.2874
  838MOL0     C13014   6.182   1.076  11.001 -0.0835  0.1398  0.3537
  838MOL0     C13015   6.093   1.005  11.113 -0.6451 -0.2565  0.2707
  838MOL0     C13016   5.965   1.090  11.128  0.1933  0.4347  0.3503
  838MOL0     C13017   5.866   1.009  11.201  0.7320  1.1819  0.3275
  838MOL0     C13018   5.725   1.036  11.144 -0.4543 -0.3001 -0.5755
  838MOL0     O13019   5.704   0.951  11.027 -0.1688  0.0692  0.5847
  838MOL0     C13020   5.578   0.927  10.978  0.3440  0.5903  0.0859
  838MOL0     C13021   5.577   0.860  10.860  0.5424  0.1375  0.9071
  838MOL0     C13022   5.462   0.845  10.776 -0.0687 -0.6649  0.0414
  838MOL0     C13023   5.483   0.778  10.646 -0.4190 -0.5311  0.5276
  838MOL0     C13024   5.338   0.886  10.832  0.0294  0.2106  0.3236
  838MOL0     C13025   5.210   0.876  10.756  0.7339  0.0652  0.8810
  838MOL0     O13026   5.099   0.863  10.838 -0.0187  0.1432  0.1675
  838MOL0     C13027   4.975   0.820  10.791 -0.2836 -0.8591 -0.2971
  838MOL0     C13028   4.871   0.825  10.885  0.6705  0.2246  1.0418
  838MOL0     C13029   4.731   0.802  10.846  0.3124 -0.0261 -0.4314
  838MOL0     C13030   4.699   0.764  10.718 -1.1931  0.2467 -0.1955
  838MOL0     O13031   4.567   0.760  10.699  0.0160 -0.5050 -0.1275
  838MOL0     C13032   4.514   0.712  10.572 -1.1119  0.3362 -1.1843
  838MOL0     C13033   4.368   0.695  10.592  0.9244  1.1875 -0.2070
  838MOL0     C13034   4.336   0.582  10.699  0.1757 -1.3401  0.6293
  838MOL0     C13035   4.395   0.449  10.654 -0.1628 -0.7209 -0.5741
  838MOL0     C13036   4.362   0.335  10.758 -0.6654 -0.1711 -0.3838
  838MOL0     C13037   4.453   0.205  10.744  0.5731 -0.2274 -0.4182
  838MOL0     C13038   4.468   0.144  10.605 -0.2789  0.3932  0.3208
  838MOL0     C13039   4.330   0.121  10.534  0.7413 -0.4252 -0.3813
  838MOL0    Cl13040   4.261  -0.037  10.607 -0.2092  0.7219  0.0821
  838MOL0     C13041   4.798   0.756  10.620 -0.5592  0.6332  0.1906
  838MOL0     C13042   4.928   0.786  10.658 -0.1011 -0.0256  0.6952
  838MOL0     O13043   5.203   0.886  10.633 -0.0138 -0.4870  0.5554
  838MOL0     C13044   5.339   0.943  10.962  0.6960  0.0968 -1.5187
  838MOL0     C13045   5.460   0.964  11.033  0.5367 -0.6451  0.6680
  838MOL0     N13046   6.139   1.168  10.902  0.3854 -0.5601  0.0008
  838MOL0     N13047   6.238   1.202  10.826  0.0699  0.2374  0.0178
  838MOL0     C13048   7.427   0.695  10.639 -0.9773  0.1865  0.5827
  838MOL0     C13049   7.495   0.574  10.615  0.7533 -0.6899  0.5932
  838MOL0     C13050   7.685   0.205  10.437 -0.0691 -0.1441 -0.0203
  838MOL0     C13051   7.823   0.189  10.405 -0.1980  0.9980 -0.4359
  838MOL0     C13052   7.868   0.049  10.389 -0.2429 -0.0794  0.1532
  838MOL0     C13053   7.779  -0.061  10.402  0.0574  0.6042  0.2182
  838MOL0     O13054   7.802  -0.193  10.383 -0.2399 -0.7279 -0.4435
  838MOL0     C13055   7.931  -0.237  10.435  0.4168  0.2334  0.0567
  838MOL0     C13056   7.928  -0.229  10.588 -0.3499 -0.0282 -0.0595
  838MOL0     C13057   8.073  -0.265  10.642  0.2900  0.2080  0.1348
  838MOL0     C13058   8.086  -0.286  10.784  0.5438  0.3516  0.0658
  838MOL0     C13059   8.015  -0.410  10.823 -0.2373 -0.8994  0.3948
  838MOL0     C13060   7.957  -0.497  10.875 -0.2194  0.0078  0.6175
  838MOL0     C13061   7.644  -0.033  10.436 -0.3127 -0.5131  0.2657
  838MOL0     C13062   7.600   0.096  10.443  0.1106  0.7675  0.2092
  838MOL0     H13063   7.270   0.430  10.407 -1.5897  0.1648  0.8145
  838MOL0     H13064   7.163   0.661  10.452  0.0428  1.3737 -0.7988
  838MOL0     H13065   7.258   0.947  10.449  2.2984 -2.8956  0.0818
  838MOL0     H13066   7.107   0.863  10.462  0.1917  1.2344 -0.0469
  838MOL0     H13067   7.200   1.124  10.580 -1.3549  1.0357  2.0192
  838MOL0     H13068   7.059   1.104  10.485  0.6752 -0.3682  0.6967
  838MOL0     H13069   7.079   0.993  10.766 -2.2143 -0.7909 -0.3589
  838MOL0     H13070   7.008   1.150  10.726  2.3284  0.3431  1.4498
  838MOL0     H13071   6.871   0.968  10.552  1.8600 -1.5252 -0.2436
  838MOL0     H13072   6.912   0.865  10.685  0.3890  0.3220 -1.0746
  838MOL0     H13073   6.771   0.976  10.834 -0.8649 -0.3396  0.0947
  838MOL0     H13074   6.775   1.130  10.747 -2.8663  0.2352 -1.8614
  838MOL0     H13075   6.633   1.043  10.574 -0.0708  1.1293 -0.1787
  838MOL0     H13076   6.657   0.889  10.648 -0.2672 -0.1636  1.4535
  838MOL0     H13077   6.434   0.997  10.679  1.2579 -0.2575 -0.7748
  838MOL0     H13078   6.494   0.938  10.832 -2.3962 -1.0204 -1.8830
  838MOL0     H13079   6.517   1.223  10.750  0.3584  0.4609  1.2759
  838MOL0     H13080   6.566   1.139  10.896  0.0772 -0.6418 -0.7634
  838MOL0     H13081   6.379   0.998  11.048  0.2932  0.4284 -0.1464
  838MOL0     H13082   6.071   0.907  11.069 -1.2855 -0.7492  1.6173
  838MOL0     H13083   6.140   0.990  11.210  2.5662  0.3388 -1.0662
  838MOL0     H13084   5.918   1.116  11.032  1.1161 -1.2358 -0.5952
  838MOL0     H13085   5.999   1.179  11.181  0.9487 -0.1734  0.8969
  838MOL0     H13086   5.864   1.041  11.306 -3.3816  0.5523  0.6109
  838MOL0     H13087   5.888   0.902  11.194  0.5759  1.2071 -0.6719
  838MOL0     H13088   5.715   1.143  11.123 -2.9419 -0.1059  1.1100
  838MOL0     H13089   5.662   1.025  11.233  1.2568 -2.6199  0.4460
  838MOL0     H13090   5.676   0.840  10.818 -0.1346  0.2311 -0.8391
  838MOL0     H13091   5.454   0.852  10.571 -0.0845 -0.8783  0.0522
  838MOL0     H13092   5.585   0.745  10.623  1.1528  3.1059  1.5466
  838MOL0     H13093   5.416   0.691  10.645 -2.5650  0.9062  3.3889
  838MOL0     H13094   4.891   0.866  10.983  0.5730  2.7560  0.0921
  838MOL0     H13095   4.653   0.818  10.920  1.3960  2.5671  0.2786
  838MOL0     H13096   4.537   0.775  10.486  1.5133 -0.7165 -1.3489
  838MOL0     H13097   4.552   0.616  10.538  0.2989 -0.4630  2.2542
  838MOL0     H13098   4.332   0.792  10.627  0.2509  0.6374  0.6723
  838MOL0     H13099   4.326   0.693  10.491  2.9367  0.1318 -1.0687
  838MOL0     H13100   4.228   0.570  10.715 -0.2793 -0.7584 -1.6016
  838MOL0     H13101   4.381   0.621  10.791  0.3467  2.3246 -0.8113
  838MOL0     H13102   4.363   0.430  10.551  0.2937 -0.3912 -0.7775
  838MOL0     H13103   4.504   0.457  10.652 -0.1381 -0.6082  0.7344
  838MOL0     H13104   4.255   0.315  10.754 -0.9841  1.0011  0.9992
  838MOL0     H13105   4.377   0.372  10.861  1.9291 -1.0568 -0.3773
  838MOL0     H13106   4.552   0.223  10.787  0.2836  2.3446 -0.6385
  838MOL0     H13107   4.401   0.138  10.812 -1.5806  1.9651  0.2572
  838MOL0     H13108   4.531   0.057  10.623  1.4454  1.8767  1.8734
  838MOL0     H13109   4.534   0.203  10.540  0.1597 -1.3694 -0.9044
  838MOL0     H13110   4.338   0.111  10.425 -0.7342  0.3055 -0.5693
  838MOL0     H13111   4.273   0.212  10.548  2.2554  0.6408 -0.8459
  838MOL0     H13112   4.770   0.726  10.520 -1.1074 -0.4006  0.6372
  838MOL0     H13113   4.995   0.789  10.573  1.2291 -0.7162  1.6717
  838MOL0     H13114   5.247   0.984  11.003  1.6584 -1.1347  2.3168
  838MOL0     H13115   5.458   1.022  11.124  0.6204  1.3841 -0.5815
  838MOL0     H13116   7.462   0.773  10.705 -2.7320  0.6872  0.9606
  838MOL0     H13117   7.596   0.550  10.647  1.9231  0.8707 -1.7033
  838MOL0     H13118   7.880   0.280  10.389 -3.1595  2.6432 -2.8030
  838MOL0     H13119   7.973   0.039  10.363  0.2974  0.2391  2.0597
  838MOL0     H13120   7.938  -0.338  10.393 -1.6507  1.4540 -3.7500
  838MOL0     H13121   8.016  -0.189  10.387  1.0263 -1.1705 -0.3414
  838MOL0     H13122   7.849  -0.297  10.622 -0.3670 -0.0150 -0.0731
  838MOL0     H13123   7.899  -0.131  10.626 -3.1726 -1.3170  1.4508
  838MOL0     H13124   8.148  -0.193  10.608  1.8835 -1.5538 -0.2566
  838MOL0     H13125   8.102  -0.363  10.602  0.0106 -0.3217  1.2042
  838MOL0     H13126   8.035  -0.206  10.839 -3.9619 -1.6934 -0.6401
  838MOL0     H13127   8.192  -0.282  10.810  0.2300 -1.2368  1.8274
  838MOL0     H13128   7.915  -0.573  10.938 -0.4391  0.0703  0.5468
  838MOL0     H13129   7.573  -0.112  10.458 -2.8157  0.9473 -1.9636
  838MOL0     H13130   7.495   0.102  10.466  0.4693  3.9314  1.4527
  839MOL0     O13131  10.229   7.297   9.994  0.7743  0.3297 -0.0518
  839MOL0     C13132  10.290   7.263  10.096 -0.4403 -0.5472  0.2976
  839MOL0     O13133  10.403   7.330  10.155  0.1621 -0.8858  0.1401
  839MOL0     C13134  10.437   7.458  10.133  0.0913 -0.5803  0.1910
  839MOL0     C13135  10.354   7.552  10.076  0.4670  0.0059 -0.0797
  839MOL0     C13136  10.409   7.673  10.036 -0.1105 -0.1246  0.2726
  839MOL0     C13137  10.528   7.722  10.095 -0.6196  0.9530  0.2421
  839MOL0     O13138  10.556   7.852  10.073  0.9817  0.2276 -0.9646
  839MOL0     C13139  10.668   7.912  10.141 -1.1140  0.6367  0.3857
  839MOL0     C13140  10.669   8.057  10.092  0.6506  1.2021 -0.0908
  839MOL0     C13141  10.553   8.151  10.126 -0.4216 -0.4279 -0.2829
  839MOL0     C13142  10.576   8.295  10.082  0.2465  0.4632 -0.7806
  839MOL0     C13143  10.448   8.363  10.107 -0.1572  0.3854 -1.2764
  839MOL0     C13144  10.448   8.517  10.074  0.3997 -0.4602  0.6963
  839MOL0     C13145  10.525   8.590  10.188 -0.1671  0.1918 -0.2847
  839MOL0     C13146  10.539   8.741  10.177  0.3150  0.1403 -0.4772
  839MOL0     N13147  10.606   8.790  10.053 -0.1975 -0.5796 -0.2233
  839MOL0     C13148  10.705   8.716   9.985  0.4342 -1.0810  1.0285
  839MOL0     C13149  10.702   8.768   9.854  0.0418  0.0140 -0.2217
  839MOL0     C13150  10.814   8.746   9.756  0.4804 -0.0757 -0.2058
  839MOL0     C13151  10.762   8.637   9.655 -0.0272 -0.1940  0.4752
  839MOL0     C13152  10.707   8.504   9.708  0.2250  0.0018  0.3772
  839MOL0     C13153  10.671   8.410   9.588 -0.1973 -0.9443 -0.6334
  839MOL0     O13154  10.779   8.394   9.498 -0.0034 -0.3672  0.7103
  839MOL0     C13155  10.902   8.327   9.526  0.3877 -0.6893  0.2263
  839MOL0     C13156  10.934   8.241   9.631 -0.4390  0.2376 -0.3982
  839MOL0     C13157  11.055   8.171   9.647 -0.5170 -0.1200  0.1194
  839MOL0     C13158  11.067   8.087   9.770  1.1405  0.6928  0.1791
  839MOL0     C13159  11.157   8.187   9.549 -0.8551  0.0487 -0.2947
  839MOL0     C13160  11.285   8.115   9.544  0.5504  1.0262 -0.6370
  839MOL0     O13161  11.368   8.129   9.435 -0.1886 -0.1682 -1.0804
  839MOL0     C13162  11.496   8.077   9.432  0.1194 -0.9987 -1.3241
  839MOL0     C13163  11.534   7.995   9.333  0.5655  0.1869  0.1057
  839MOL0     C13164  11.639   7.913   9.337 -0.3457  0.1668 -0.9565
  839MOL0     C13165  11.713   7.912   9.459  0.1297 -0.7611  0.1478
  839MOL0     O13166  11.832   7.842   9.487  0.1580  0.7247  0.4470
  839MOL0     C13167  11.916   7.815   9.375 -0.1572  0.9299  0.9250
  839MOL0     C13168  12.010   7.693   9.396  0.4854 -1.1698  0.2903
  839MOL0     C13169  12.094   7.711   9.517 -0.4308  0.1217 -0.1173
  839MOL0     C13170  12.195   7.601   9.544 -0.3591 -0.8873  0.6059
  839MOL0     C13171  12.294   7.632   9.654 -0.0032 -0.7472 -0.1476
  839MOL0     C13172  12.376   7.517   9.680  0.7623 -0.0317 -0.4848
  839MOL0     C13173  12.524   7.540   9.727  1.2524 -0.0050 -0.7041
  839MOL0     C13174  12.590   7.403   9.766 -0.1300  0.1764  0.0513
  839MOL0    Cl13175  12.588   7.281   9.646 -0.1331 -0.0101 -0.2549
  839MOL0     C13176  11.692   8.001   9.562  0.4171 -0.9808  0.5891
  839MOL0     C13177  11.579   8.077   9.547 -0.7362 -0.3792  0.1506
  839MOL0     O13178  11.311   8.051   9.646 -0.3428  0.3052 -0.7451
  839MOL0     C13179  11.122   8.264   9.432  0.4828  0.5411  0.2459
  839MOL0     C13180  10.997   8.328   9.426 -0.4523 -0.5393 -0.7020
  839MOL0     N13181  10.597   8.868   9.858 -0.6823  0.4256 -0.5910
  839MOL0     N13182  10.539   8.871   9.970  0.2777 -0.5578  0.4807
  839MOL0     C13183  10.606   7.635  10.179 -0.2458  1.0581  1.2263
  839MOL0     C13184  10.563   7.500  10.184  0.7679  0.4173 -0.6802
  839MOL0     C13185  10.250   7.139  10.156  0.6330  0.9811  0.0753
  839MOL0     C13186  10.170   7.043  10.087  0.0818 -0.4925  0.9591
  839MOL0     C13187  10.125   6.930  10.138  0.9565  0.4742  0.7215
  839MOL0     C13188  10.145   6.906  10.272  1.0011  0.6658  0.1021
  839MOL0     O13189  10.117   6.795  10.341 -0.1785 -0.2030  0.3480
  839MOL0     C13190  10.047   6.690  10.278 -0.6582  0.4859 -0.1307
  839MOL0     C13191  10.019   6.590  10.385  1.1216 -0.2370  0.8514
  839MOL0     C13192  10.131   6.564  10.488  0.0747 -0.5220 -0.0334
  839MOL0     C13193  10.110   6.424  10.543  0.5121  1.2099 -0.3253
  839MOL0     C13194  10.021   6.400  10.656  0.7952 -0.5886 -0.4631
  839MOL0     C13195   9.943   6.376  10.746 -0.3579  0.0757  0.4940
  839MOL0     C13196  10.220   6.995  10.348 -1.4154 -0.1634 -0.1627
  839MOL0     C13197  10.284   7.105  10.288  0.1408 -0.4540  0.2530
  839MOL0     H13198  10.251   7.526  10.053  0.2409 -0.7970  1.6851
  839MOL0     H13199  10.352   7.748   9.983  0.6444 -1.1091 -2.0908
  839MOL0     H13200  10.640   7.923  10.246 -1.7156  0.7124  0.2250
  839MOL0     H13201  10.764   7.866  10.117 -1.4691  1.2319 -2.5635
  839MOL0     H13202  10.765   8.099  10.123  1.2991 -0.6835  0.5649
  839MOL0     H13203  10.662   8.051   9.983 -0.1525  2.4153 -0.1304
  839MOL0     H13204  10.457   8.111  10.089 -2.3611  3.0456  0.5603
  839MOL0     H13205  10.550   8.156  10.235 -1.2893 -0.2145 -0.3036
  839MOL0     H13206  10.655   8.339  10.143 -0.9808 -3.0415  3.9350
  839MOL0     H13207  10.599   8.291   9.975  0.2583 -1.2930 -0.7457
  839MOL0     H13208  10.374   8.317  10.041 -1.3184 -0.6415  0.6361
  839MOL0     H13209  10.403   8.353  10.207 -2.1108 -0.8901 -2.2081
  839MOL0     H13210  10.489   8.524   9.973  2.6507 -3.3044  1.2872
  839MOL0     H13211  10.345   8.554  10.083  0.4314 -0.2914  0.3742
  839MOL0     H13212  10.473   8.557  10.279 -0.3193  2.3514  0.4629
  839MOL0     H13213  10.625   8.547  10.186 -0.7490 -1.2086 -0.8258
  839MOL0     H13214  10.599   8.760  10.266  2.1139 -3.1114 -0.8636
  839MOL0     H13215  10.443   8.794  10.180  1.0038  1.4226 -0.1817
  839MOL0     H13216  10.778   8.654  10.037  0.9597  1.4107  3.4973
  839MOL0     H13217  10.848   8.830   9.695  0.9964 -0.6751 -0.7611
  839MOL0     H13218  10.903   8.710   9.809 -0.8075  0.4653  2.5358
  839MOL0     H13219  10.841   8.620   9.582  2.0530  2.0211  2.0452
  839MOL0     H13220  10.682   8.687   9.599 -0.7703  1.0764  2.5566
  839MOL0     H13221  10.618   8.520   9.769 -0.8677  2.0960 -1.6173
  839MOL0     H13222  10.783   8.469   9.778  1.4293  2.1156  0.2347
  839MOL0     H13223  10.599   8.455   9.519  0.6318  1.1123 -0.2010
  839MOL0     H13224  10.633   8.315   9.628  1.5327 -0.8742  1.3180
  839MOL0     H13225  10.853   8.228   9.702 -0.7876  1.0192 -0.6420
  839MOL0     H13226  11.139   8.116   9.847 -1.0284 -1.0689  3.0810
  839MOL0     H13227  10.972   8.066   9.821  2.6655 -1.3107  2.4772
  839MOL0     H13228  11.104   7.991   9.732  0.9588  2.6431 -6.0109
  839MOL0     H13229  11.467   7.984   9.247 -0.4362 -1.8861  1.0807
  839MOL0     H13230  11.661   7.854   9.249  2.1507  0.2160 -0.4294
  839MOL0     H13231  11.863   7.793   9.282  1.8377  0.2111 -0.0997
  839MOL0     H13232  11.987   7.898   9.361 -1.2662  2.2676  2.7547
  839MOL0     H13233  11.947   7.604   9.405 -0.7142 -0.3160  0.6224
  839MOL0     H13234  12.083   7.689   9.314  0.2521  1.9325 -0.2067
  839MOL0     H13235  12.032   7.713   9.607  0.7461  0.9199  0.7254
  839MOL0     H13236  12.144   7.809   9.518  2.6589 -1.2827  2.4972
  839MOL0     H13237  12.137   7.509   9.550 -0.6869 -0.9539 -2.2023
  839MOL0     H13238  12.256   7.616   9.455 -2.3521  5.7260 -0.2419
  839MOL0     H13239  12.247   7.652   9.751 -0.4078 -1.7988 -0.1040
  839MOL0     H13240  12.346   7.724   9.626 -0.2076 -1.2857 -2.5485
  839MOL0     H13241  12.312   7.455   9.743  0.5194  1.6812  1.0482
  839MOL0     H13242  12.376   7.461   9.586 -0.5881 -0.2360 -0.3788
  839MOL0     H13243  12.536   7.609   9.811  1.8257 -3.2649  2.1028
  839MOL0     H13244  12.573   7.584   9.639  0.4664  0.1668 -1.0660
  839MOL0     H13245  12.552   7.358   9.858  3.2598  1.2584  2.1661
  839MOL0     H13246  12.692   7.432   9.792  0.1208  1.3993 -2.0791
  839MOL0     H13247  11.747   8.012   9.655  0.1251  1.9917  0.5069
  839MOL0     H13248  11.563   8.143   9.632  3.0598 -1.3074  1.8252
  839MOL0     H13249  11.180   8.259   9.340 -2.0172 -1.3769 -1.3748
  839MOL0     H13250  10.974   8.379   9.333  1.6517 -2.4414 -2.3737
  839MOL0     H13251  10.707   7.658  10.212  1.2711  1.2064 -2.8908
  839MOL0     H13252  10.623   7.437  10.249 -1.0290 -0.2853  0.3599
  839MOL0     H13253  10.136   7.064   9.986  1.7036 -0.6057  0.3577
  839MOL0     H13254  10.078   6.864  10.066  2.4039  1.7419 -1.5259
  839MOL0     H13255   9.955   6.723  10.229 -0.8040  0.2414 -0.0268
  839MOL0     H13256  10.116   6.646  10.205  1.6122  1.5748  1.2588
  839MOL0     H13257   9.998   6.505  10.320  2.8368  0.9595 -1.4054
  839MOL0     H13258   9.927   6.614  10.439 -0.0316  0.2233 -1.2121
  839MOL0     H13259  10.117   6.645  10.560 -3.2410 -1.4775  0.5722
  839MOL0     H13260  10.224   6.558  10.431 -0.8077 -0.0844 -1.5538
  839MOL0     H13261  10.206   6.384  10.579 -0.5893 -1.0145  0.3442
  839MOL0     H13262  10.082   6.347  10.470  0.4130  1.0685 -0.1373
  839MOL0     H13263   9.883   6.376  10.835  0.1026 -1.5046  0.8299
  839MOL0     H13264  10.223   6.968  10.453 -1.9309  1.1840  0.2158
  839MOL0     H13265  10.348   7.173  10.342  1.2074 -1.3454  0.1376
  840MOL0     O13266   4.600   5.689   4.434  0.4917  0.0427 -0.8634
  840MOL0     C13267   4.483   5.710   4.426 -0.4214 -0.7237 -0.2489
  840MOL0     O13268   4.426   5.838   4.423 -0.5517 -0.7153 -0.1117
  840MOL0     C13269   4.469   5.943   4.489 -0.1220 -0.0796  0.1440
  840MOL0     C13270   4.472   6.062   4.427 -1.1870  0.3005 -0.6433
  840MOL0     C13271   4.498   6.184   4.494 -0.1766  0.2537 -0.3351
  840MOL0     C13272   4.530   6.192   4.638 -0.0760  0.5927 -0.2266
  840MOL0     O13273   4.527   6.311   4.708  0.2390  0.8825  0.5171
  840MOL0     C13274   4.446   6.414   4.650 -0.2195 -0.7462 -0.8815
  840MOL0     C13275   4.415   6.530   4.738  0.1965 -0.1009 -0.8244
  840MOL0     C13276   4.543   6.622   4.740 -0.1652  0.1432 -0.9887
  840MOL0     C13277   4.520   6.750   4.816 -0.1237  0.3619 -0.6723
  840MOL0     C13278   4.418   6.852   4.756 -0.0502  1.1056 -0.2962
  840MOL0     C13279   4.354   6.939   4.859  0.1780 -0.7533 -1.0063
  840MOL0     C13280   4.446   6.985   4.973 -0.2621 -0.3110  0.0451
  840MOL0     C13281   4.361   7.073   5.074 -1.1644 -0.4604 -0.1738
  840MOL0     N13282   4.451   7.137   5.169  0.7606 -0.5154  0.5067
  840MOL0     C13283   4.561   7.079   5.225 -1.1519  0.2046 -0.3295
  840MOL0     C13284   4.609   7.174   5.305 -0.3846  0.7462 -0.6665
  840MOL0     C13285   4.724   7.169   5.397 -0.6051 -0.4215  0.2848
  840MOL0     C13286   4.862   7.155   5.340 -0.0911 -0.5220  0.6461
  840MOL0     C13287   4.896   7.272   5.237 -0.7672  0.4066 -0.6402
  840MOL0     C13288   4.978   7.222   5.116 -0.2429 -0.2491 -0.7113
  840MOL0     O13289   4.893   7.120   5.057 -0.7871 -0.2135  0.2044
  840MOL0     C13290   4.946   7.014   4.989 -0.9022 -0.0591  0.9432
  840MOL0     C13291   5.073   7.008   4.934  0.3900 -0.3631 -0.0281
  840MOL0     C13292   5.128   6.903   4.861 -0.1893  0.3817  0.0494
  840MOL0     C13293   5.270   6.915   4.805 -0.0823  0.6797  0.3561
  840MOL0     C13294   5.046   6.791   4.828 -0.0379  0.5701 -1.0403
  840MOL0     C13295   5.088   6.673   4.750  0.1301 -0.1404 -1.1863
  840MOL0     O13296   4.979   6.603   4.698  0.1142  0.8147 -0.0710
  840MOL0     C13297   5.003   6.480   4.637  1.0955  0.4244 -0.4824
  840MOL0     C13298   4.899   6.446   4.552  0.0817  1.1545  1.3316
  840MOL0     C13299   4.878   6.320   4.493  0.6347  0.4286 -1.2272
  840MOL0     C13300   4.977   6.218   4.511 -0.7341  0.0518  0.6083
  840MOL0     O13301   4.985   6.090   4.459 -0.5004  0.0273  0.3296
  840MOL0     C13302   4.891   6.045   4.357  0.5164  0.1847 -0.2952
  840MOL0     C13303   4.882   6.133   4.232 -0.2035  0.2840 -0.4279
  840MOL0     C13304   4.748   6.108   4.170  0.2812  0.4193  0.6372
  840MOL0     C13305   4.767   6.082   4.025 -0.8597  0.1192  0.1098
  840MOL0     C13306   4.645   6.015   3.956  0.6491  0.0852 -0.2729
  840MOL0     C13307   4.675   5.958   3.815  0.1253 -0.0832 -0.1079
  840MOL0     C13308   4.656   6.066   3.701  1.5021 -0.0786  0.3454
  840MOL0     C13309   4.717   6.018   3.574  0.1629 -0.0836 -1.0460
  840MOL0    Cl13310   4.621   5.884   3.502  0.5776  0.1935 -0.1579
  840MOL0     C13311   5.085   6.250   4.602 -0.6341 -0.4076 -0.2045
  840MOL0     C13312   5.092   6.375   4.668  0.9830 -0.2062 -0.2830
  840MOL0     O13313   5.204   6.626   4.750 -0.2581  0.2494 -0.0722
  840MOL0     C13314   4.913   6.794   4.885  0.2129  0.3287 -1.0886
  840MOL0     C13315   4.867   6.901   4.960 -0.4005  0.1466  0.3734
  840MOL0     N13316   4.535   7.283   5.292  0.2587 -0.2868 -0.7779
  840MOL0     N13317   4.439   7.263   5.209 -0.5023  0.4449 -0.0242
  840MOL0     C13318   4.540   6.069   4.696 -0.5685  1.0089 -0.0498
  840MOL0     C13319   4.501   5.946   4.626  1.2737 -0.4903  0.4241
  840MOL0     C13320   4.395   5.596   4.398 -0.1086  0.1739 -0.9264
  840MOL0     C13321   4.264   5.575   4.455  0.0812 -0.5975  0.0454
  840MOL0     C13322   4.176   5.465   4.420  0.5256  0.3314  0.4030
  840MOL0     C13323   4.219   5.371   4.334  0.3034 -0.8143  0.4461
  840MOL0     O13324   4.156   5.250   4.332 -0.2716  0.0046 -0.2132
  840MOL0     C13325   4.065   5.205   4.228 -0.3396 -0.0946  0.3924
  840MOL0     C13326   3.959   5.316   4.208  0.3489  1.0891 -0.0234
  840MOL0     C13327   3.856   5.283   4.100  0.0008  0.8133  0.7087
  840MOL0     C13328   3.784   5.416   4.075 -0.0837  0.4257  0.1579
  840MOL0     C13329   3.650   5.385   4.022 -0.3488  0.5200  0.2780
  840MOL0     C13330   3.547   5.348   3.960  1.2193 -0.5370 -0.6010
  840MOL0     C13331   4.342   5.392   4.275 -1.0675 -0.3903  0.6792
  840MOL0     C13332   4.430   5.495   4.305  0.2599 -0.7283 -0.0134
  840MOL0     H13333   4.435   6.075   4.326 -0.7214 -0.0483 -0.8614
  840MOL0     H13334   4.493   6.271   4.429 -2.6460  0.5362  0.1438
  840MOL0     H13335   4.488   6.450   4.556 -2.8572  0.3413 -1.7512
  840MOL0     H13336   4.350   6.378   4.610 -2.3559  0.4518  2.6561
  840MOL0     H13337   4.323   6.559   4.686 -1.1700 -2.8010 -0.1197
  840MOL0     H13338   4.393   6.488   4.836  2.2562 -0.9499 -0.6809
  840MOL0     H13339   4.620   6.572   4.799 -0.8316 -2.8984 -2.5107
  840MOL0     H13340   4.584   6.643   4.641  0.3387  1.0290 -0.6043
  840MOL0     H13341   4.489   6.719   4.916  0.3406 -0.2021 -0.6930
  840MOL0     H13342   4.615   6.805   4.821 -0.5949  1.7392 -4.1773
  840MOL0     H13343   4.479   6.906   4.684 -1.8870 -0.3354 -3.1007
  840MOL0     H13344   4.342   6.817   4.685  2.0657  0.1210 -2.1906
  840MOL0     H13345   4.317   7.027   4.805 -0.2924 -0.1558  0.2492
  840MOL0     H13346   4.272   6.886   4.907 -0.7491  3.0911  2.2152
  840MOL0     H13347   4.487   6.900   5.028 -1.3934 -0.8439  0.0857
  840MOL0     H13348   4.529   7.042   4.931  0.7858 -1.1665  0.8946
  840MOL0     H13349   4.287   7.007   5.121  1.2738 -1.5351  2.4311
  840MOL0     H13350   4.314   7.158   5.023 -0.1247  1.6213  2.1623
  840MOL0     H13351   4.592   6.975   5.219 -1.3649  0.2412 -2.9550
  840MOL0     H13352   4.729   7.259   5.459 -1.4745  0.2900 -0.6463
  840MOL0     H13353   4.694   7.082   5.456 -0.2697 -1.1337 -0.5577
  840MOL0     H13354   4.866   7.063   5.281 -1.4397 -0.2326  0.0636
  840MOL0     H13355   4.934   7.152   5.422  0.7121 -2.1952 -0.0647
  840MOL0     H13356   4.940   7.357   5.291 -1.2941  0.5213 -0.3931
  840MOL0     H13357   4.799   7.306   5.201 -1.7424 -1.0123  0.5550
  840MOL0     H13358   5.077   7.181   5.138 -0.1759  1.7165  3.7992
  840MOL0     H13359   4.987   7.314   5.057 -1.2050 -0.4891 -1.2354
  840MOL0     H13360   5.133   7.097   4.946  1.7495 -0.9314 -2.0861
  840MOL0     H13361   5.327   7.007   4.816  3.0258 -0.9473 -0.9800
  840MOL0     H13362   5.332   6.833   4.841 -0.3174  1.8245  3.7282
  840MOL0     H13363   5.272   6.908   4.696 -0.5653  0.5554  0.3533
  840MOL0     H13364   4.825   6.520   4.523  1.1613  0.8589 -2.9019
  840MOL0     H13365   4.786   6.306   4.437  0.1017  0.9991 -0.5173
  840MOL0     H13366   4.923   5.944   4.329 -1.0236  0.0313 -1.6706
  840MOL0     H13367   4.793   6.037   4.405  0.0393  3.0919 -0.6045
  840MOL0     H13368   4.892   6.235   4.271  0.2273 -0.4771  1.5512
  840MOL0     H13369   4.969   6.125   4.166  0.5940  0.9649  0.4966
  840MOL0     H13370   4.672   6.184   4.191  0.8336  1.7312 -1.7435
  840MOL0     H13371   4.715   6.010   4.205 -0.9429  0.9177  0.9411
  840MOL0     H13372   4.776   6.185   3.989 -1.5606  0.8460  1.8920
  840MOL0     H13373   4.858   6.023   4.013 -0.4050  0.7646  0.3177
  840MOL0     H13374   4.569   6.092   3.940  1.4919  0.6937 -1.5546
  840MOL0     H13375   4.603   5.941   4.024  1.3175 -1.0544 -1.0768
  840MOL0     H13376   4.777   5.920   3.818 -0.9644 -3.2013  1.5382
  840MOL0     H13377   4.614   5.871   3.789 -0.3786  0.4619 -0.7851
  840MOL0     H13378   4.710   6.154   3.738  0.1382  0.5337  0.9557
  840MOL0     H13379   4.552   6.098   3.690  1.3559  0.9432  3.5499
  840MOL0     H13380   4.817   5.975   3.589 -0.2728 -1.4308 -1.8190
  840MOL0     H13381   4.719   6.098   3.501 -0.3881 -1.4098 -2.5730
  840MOL0     H13382   5.163   6.176   4.619 -2.5109 -2.8217 -1.5036
  840MOL0     H13383   5.172   6.392   4.739 -1.2043 -1.3117  2.6448
  840MOL0     H13384   4.829   6.724   4.885  0.0313  0.5439 -1.5375
  840MOL0     H13385   4.769   6.908   5.005  0.7091 -0.7827  3.1386
  840MOL0     H13386   4.556   6.060   4.803 -2.2568  1.3206  0.2708
  840MOL0     H13387   4.486   5.854   4.682 -0.6646 -0.1270  0.5768
  840MOL0     H13388   4.227   5.653   4.520  1.9899  0.3134  0.1247
  840MOL0     H13389   4.084   5.453   4.476  0.8144  1.1578  1.0703
  840MOL0     H13390   4.127   5.189   4.140 -2.9400 -0.5791 -1.4751
  840MOL0     H13391   4.013   5.112   4.255  0.2419 -0.7731 -0.7528
  840MOL0     H13392   4.003   5.415   4.190 -2.4513  3.1522  3.1041
  840MOL0     H13393   3.908   5.326   4.305  0.6214 -1.7898  0.4851
  840MOL0     H13394   3.789   5.203   4.135  1.3092 -3.4980 -5.0058
  840MOL0     H13395   3.900   5.240   4.010 -3.4518 -2.6687  0.3964
  840MOL0     H13396   3.845   5.480   4.010 -2.3968 -0.8018 -3.5532
  840MOL0     H13397   3.775   5.464   4.173  1.0454  1.8889 -0.4075
  840MOL0     H13398   3.458   5.316   3.910 -0.6060  2.0210  0.7714
  840MOL0     H13399   4.380   5.327   4.197  0.1400  2.0756 -0.9325
  840MOL0     H13400   4.522   5.508   4.248  0.5103 -1.6777  0.1542
  841MOL0     O13401   1.199   9.618  11.001  0.0109 -0.3498  0.5495
  841MOL0     C13402   1.291   9.687  11.044  0.2298  0.8489  0.0388
  841MOL0     O13403   1.297   9.828  11.052  0.5574 -0.2789  0.1105
  841MOL0     C13404   1.181   9.886  11.014  0.2277 -0.2393  0.3186
  841MOL0     C13405   1.068   9.880  11.094  0.5562 -0.2421 -0.0816
  841MOL0     C13406   0.956   9.954  11.062  0.9348  0.6685  0.3789
  841MOL0     C13407   0.948  10.022  10.943 -0.5308  0.2064 -0.1513
  841MOL0     O13408   0.842  10.098  10.898  0.5787 -0.1455 -0.9320
  841MOL0     C13409   0.765  10.163  11.005  0.0770 -0.0452 -0.9021
  841MOL0     C13410   0.628  10.218  10.953  0.3378 -1.0424  0.7863
  841MOL0     C13411   0.648  10.343  10.860  0.0349 -0.0940 -1.6672
  841MOL0     C13412   0.508  10.397  10.831  0.2461 -0.3734  0.1464
  841MOL0     C13413   0.505  10.536  10.755  0.2929  0.1962 -0.8936
  841MOL0     C13414   0.361  10.565  10.706 -0.1587  0.1991 -0.5002
  841MOL0     C13415   0.352  10.680  10.592 -0.5672  0.7583 -0.6033
  841MOL0     C13416   0.257  10.642  10.482  0.7381 -0.2817  0.2805
  841MOL0     N13417   0.210  10.768  10.418 -0.0853 -0.4036  0.1774
  841MOL0     C13418   0.242  10.794  10.282 -1.6182 -0.2454 -0.9454
  841MOL0     C13419   0.142  10.871  10.236  0.6142  0.1913  0.2068
  841MOL0     C13420   0.123  10.904  10.090  0.7687 -0.6068 -0.7070
  841MOL0     C13421  -0.021  10.952  10.067 -0.2508  0.3792  0.2651
  841MOL0     C13422  -0.072  10.907   9.926  0.0091 -1.1827  0.0336
  841MOL0     C13423  -0.211  10.962   9.874 -0.7201  0.2309 -0.2897
  841MOL0     O13424  -0.307  10.921   9.968  0.4374  0.2875  0.8861
  841MOL0     C13425  -0.439  10.947   9.933 -0.4244  0.1330 -0.3986
  841MOL0     C13426  -0.535  10.927  10.028 -0.0998  0.1253 -0.8147
  841MOL0     C13427  -0.670  10.931  10.005  0.8986  0.7598 -0.2225
  841MOL0     C13428  -0.765  10.903  10.118  0.8831  0.0098  0.1041
  841MOL0     C13429  -0.711  10.959   9.871  0.5194  0.4695  0.3623
  841MOL0     C13430  -0.849  10.978   9.820 -0.2623 -0.1594 -0.3357
  841MOL0     O13431  -0.862  10.930   9.696 -0.1106 -1.0103  0.4847
  841MOL0     C13432  -0.981  10.943   9.633  0.4005  0.3399  0.3703
  841MOL0     C13433  -1.049  11.065   9.611  0.3136  0.0187 -0.6358
  841MOL0     C13434  -1.169  11.060   9.537 -0.3673  0.2702  0.2124
  841MOL0     C13435  -1.222  10.945   9.481  0.2942 -0.4153  0.4496
  841MOL0     O13436  -1.335  10.947   9.414 -0.7790 -0.3335  0.0135
  841MOL0     C13437  -1.428  10.849   9.448  0.5141  0.5115  0.1883
  841MOL0     C13438  -1.553  10.911   9.388  1.2400 -0.2651  0.3348
  841MOL0     C13439  -1.655  10.808   9.347 -0.1070 -0.3724  0.1003
  841MOL0     C13440  -1.651  10.671   9.418 -0.0986 -0.4400 -0.4578
  841MOL0     C13441  -1.774  10.599   9.384 -0.8225 -0.1122  0.3588
  841MOL0     C13442  -1.769  10.462   9.453  0.0105 -0.5824  0.2731
  841MOL0     C13443  -1.906  10.400   9.458 -0.4415  0.8004 -0.2043
  841MOL0     C13444  -1.891  10.250   9.494  1.2580  0.0503  0.4616
  841MOL0    Cl13445  -2.047  10.162   9.516 -0.1539 -0.5610  0.1682
  841MOL0     C13446  -1.147  10.831   9.497 -0.4410  0.3380 -0.7493
  841MOL0     C13447  -1.036  10.825   9.581 -1.4566 -0.6663  0.0714
  841MOL0     O13448  -0.937  11.034   9.891  0.3013  0.3609 -0.7639
  841MOL0     C13449  -0.611  11.001   9.780 -0.0762 -0.4328 -0.2007
  841MOL0     C13450  -0.477  10.992   9.803  0.3208 -0.5515 -1.0809
  841MOL0     N13451   0.065  10.910  10.342 -0.1170  0.2558  0.4540
  841MOL0     N13452   0.107  10.850  10.452 -0.2968 -0.0850  0.0371
  841MOL0     C13453   1.054  10.009  10.852 -0.3022 -0.1579  0.2011
  841MOL0     C13454   1.170   9.942  10.889  0.3694  0.1036  1.0879
  841MOL0     C13455   1.403   9.600  11.088  0.0753 -0.2175  0.2117
  841MOL0     C13456   1.538   9.644  11.108 -0.5141  0.4199  0.0238
  841MOL0     C13457   1.646   9.563  11.143  0.2361  0.3308 -0.5905
  841MOL0     C13458   1.624   9.432  11.161  0.9463  0.0740  0.1946
  841MOL0     O13459   1.722   9.348  11.202  0.2376  0.4982 -0.3453
  841MOL0     C13460   1.722   9.311  11.342  0.1344  0.2336  0.5212
  841MOL0     C13461   1.860   9.259  11.379  1.0991 -0.1873  0.1251
  841MOL0     C13462   1.863   9.213  11.520 -1.1478  0.2263 -1.0502
  841MOL0     C13463   2.002   9.147  11.539 -0.3635  0.5583 -0.1553
  841MOL0     C13464   2.042   9.140  11.678 -0.2864  0.7234 -0.9558
  841MOL0     C13465   2.095   9.116  11.785 -1.0975  0.0287 -0.5706
  841MOL0     C13466   1.499   9.376  11.135  0.6813 -0.1466 -0.0866
  841MOL0     C13467   1.391   9.459  11.102 -0.4305 -0.5015  0.7167
  841MOL0     H13468   1.075   9.836  11.193  0.0058  2.8187  1.4743
  841MOL0     H13469   0.877   9.943  11.135  1.1968  2.4149  0.9847
  841MOL0     H13470   0.742  10.098  11.090  1.8503  0.8228  0.3213
  841MOL0     H13471   0.820  10.247  11.050 -1.2071  1.3116 -1.7913
  841MOL0     H13472   0.582  10.143  10.888  1.0944 -2.1868  1.5284
  841MOL0     H13473   0.568  10.225  11.044  1.7510 -1.0481  1.7463
  841MOL0     H13474   0.705  10.422  10.910 -0.0911 -1.7087  1.3003
  841MOL0     H13475   0.694  10.314  10.765  2.8610 -0.0621 -0.3952
  841MOL0     H13476   0.461  10.321  10.768  0.1586 -1.2310  1.2040
  841MOL0     H13477   0.449  10.397  10.923 -1.3599  1.2865 -0.8291
  841MOL0     H13478   0.551  10.610  10.821  0.6642 -2.6831  2.4580
  841MOL0     H13479   0.564  10.522  10.665 -2.1284  0.2477 -2.5818
  841MOL0     H13480   0.334  10.478  10.646 -1.1563 -0.4839  0.8784
  841MOL0     H13481   0.294  10.577  10.792  1.4566  0.2598  0.8052
  841MOL0     H13482   0.305  10.767  10.639  0.3506  0.6620  0.5410
  841MOL0     H13483   0.447  10.706  10.546 -1.0331 -1.0046 -2.6947
  841MOL0     H13484   0.171  10.597  10.533 -1.2541  0.1984 -2.4102
  841MOL0     H13485   0.299  10.569  10.413 -0.0569 -0.1199 -0.3993
  841MOL0     H13486   0.314  10.750  10.214  0.0951 -0.1510  0.7111
  841MOL0     H13487   0.195  10.983  10.067 -0.2891  1.5521  2.6648
  841MOL0     H13488   0.146  10.820  10.024  2.6942 -0.1669 -0.6278
  841MOL0     H13489  -0.026  11.059  10.088 -1.2807  0.3309  0.3048
  841MOL0     H13490  -0.090  10.917  10.143 -3.9692  3.3628 -1.3964
  841MOL0     H13491  -0.075  10.797   9.921 -0.7759 -1.1992  0.6564
  841MOL0     H13492  -0.001  10.942   9.851 -3.5119  2.4800 -1.9533
  841MOL0     H13493  -0.221  10.928   9.771 -3.4391 -1.7745  0.5241
  841MOL0     H13494  -0.197  11.071   9.874  1.0990  0.0366  0.0489
  841MOL0     H13495  -0.507  10.917  10.133  0.6305  1.7377 -0.8283
  841MOL0     H13496  -0.711  10.891  10.212  1.3961  1.3958  0.0102
  841MOL0     H13497  -0.819  10.997  10.130  2.4517  0.6148  3.5101
  841MOL0     H13498  -0.837  10.826  10.087  0.1691 -0.1228  1.9495
  841MOL0     H13499  -1.007  11.158   9.647  1.7677 -0.9613  0.3334
  841MOL0     H13500  -1.230  11.150   9.542 -0.3064  0.2793  0.7478
  841MOL0     H13501  -1.401  10.753   9.402 -3.3175 -0.3399 -0.6086
  841MOL0     H13502  -1.438  10.841   9.557  0.6338 -0.9774  0.1019
  841MOL0     H13503  -1.594  10.982   9.460  0.1177  0.8007 -1.2885
  841MOL0     H13504  -1.526  10.966   9.297  0.3626  0.2158  0.3546
  841MOL0     H13505  -1.651  10.799   9.238  2.1643 -0.1158  0.1042
  841MOL0     H13506  -1.750  10.859   9.363  0.4343 -0.3741  4.5636
  841MOL0     H13507  -1.570  10.608   9.381 -0.9076 -2.7919  1.4965
  841MOL0     H13508  -1.640  10.689   9.526  0.1660 -0.3587 -0.4969
  841MOL0     H13509  -1.782  10.573   9.278  1.1132 -1.1953  0.4311
  841MOL0     H13510  -1.862  10.657   9.413 -1.7145 -1.9273  1.5118
  841MOL0     H13511  -1.688  10.395   9.426  0.2865 -1.8394  3.7355
  841MOL0     H13512  -1.751  10.482   9.559 -0.4771 -2.1969  0.6881
  841MOL0     H13513  -1.965  10.421   9.368 -1.9737  2.1013  1.0582
  841MOL0     H13514  -1.962  10.446   9.540  1.2310  3.1933 -0.2936
  841MOL0     H13515  -1.851  10.235   9.595 -1.4768 -0.2895  1.5907
  841MOL0     H13516  -1.832  10.195   9.421 -1.5543 -0.4204 -1.6115
  841MOL0     H13517  -1.166  10.740   9.441 -1.0579 -0.4108  0.6047
  841MOL0     H13518  -0.984  10.730   9.596 -1.4129 -0.2721  2.7798
  841MOL0     H13519  -0.645  11.036   9.682 -1.7905 -1.1609  0.1021
  841MOL0     H13520  -0.406  11.022   9.726 -1.1893 -0.1542 -2.3609
  841MOL0     H13521   1.059  10.055  10.754  1.0093 -1.9776 -0.6253
  841MOL0     H13522   1.257   9.943  10.823  1.4024 -1.0746  2.3584
  841MOL0     H13523   1.534   9.752  11.113 -0.5435  0.4994 -1.3744
  841MOL0     H13524   1.743   9.605  11.166 -0.5474  2.0524 -0.2092
  841MOL0     H13525   1.691   9.396  11.403 -3.1306 -0.8196  0.5626
  841MOL0     H13526   1.658   9.223  11.357  0.1601  0.1830  0.3368
  841MOL0     H13527   1.926   9.345  11.364 -3.4128  3.7478  0.4454
  841MOL0     H13528   1.864   9.173  11.311  0.6717  1.4446 -2.0788
  841MOL0     H13529   1.784   9.141  11.540 -1.1664  0.2609 -0.9981
  841MOL0     H13530   1.861   9.298  11.589  0.7284 -1.5141  1.3482
  841MOL0     H13531   2.073   9.219  11.496 -0.3672 -0.0299 -1.1714
  841MOL0     H13532   2.011   9.050  11.489 -1.4807  0.1337  0.4440
  841MOL0     H13533   2.147   9.097  11.876  0.1059  2.6154 -0.6249
  841MOL0     H13534   1.477   9.270  11.141  0.3171 -0.2085 -2.0449
  841MOL0     H13535   1.294   9.413  11.084  0.4964 -2.1700 -0.3408
  842MOL0     O13536   0.410   8.102   8.951  0.3874 -0.1702 -0.2628
  842MOL0     C13537   0.301   8.038   8.942 -0.4636  0.3456 -0.5745
  842MOL0     O13538   0.295   7.903   8.929 -0.1266 -0.3320  0.6756
  842MOL0     C13539   0.418   7.843   8.910 -0.7633 -0.8936  0.1575
  842MOL0     C13540   0.420   7.757   8.803 -0.5337  0.6141 -0.1639
  842MOL0     C13541   0.535   7.692   8.764 -0.8313  0.6223  0.2228
  842MOL0     C13542   0.649   7.700   8.841 -0.4666 -0.1518 -0.2068
  842MOL0     O13543   0.763   7.652   8.788  0.3375  0.2606  0.1176
  842MOL0     C13544   0.842   7.564   8.870 -1.2936 -1.0009  0.2144
  842MOL0     C13545   0.987   7.619   8.833  0.5429 -0.0928 -0.3120
  842MOL0     C13546   1.020   7.760   8.899  0.8452  0.3086  0.0930
  842MOL0     C13547   1.173   7.780   8.913 -0.1967  0.1981  0.6913
  842MOL0     C13548   1.207   7.915   8.980  0.3438 -0.7080 -0.1314
  842MOL0     C13549   1.149   7.927   9.126 -0.5003  0.2752 -0.1974
  842MOL0     C13550   1.070   8.061   9.147 -0.0691 -0.8846 -0.0038
  842MOL0     C13551   0.937   8.074   9.094  0.2356  0.5931 -0.2161
  842MOL0     N13552   0.918   8.212   9.041  0.1004  0.2496 -0.4019
  842MOL0     C13553   0.965   8.266   8.924  0.2072  0.8772 -0.5314
  842MOL0     C13554   0.888   8.380   8.900  0.1011 -0.4156  0.1481
  842MOL0     C13555   0.896   8.476   8.783  0.1411  0.1550 -0.7690
  842MOL0     C13556   1.020   8.561   8.776  0.4957 -0.2690 -0.2713
  842MOL0     C13557   1.061   8.621   8.916  0.2845  0.1824  0.2829
  842MOL0     C13558   1.155   8.742   8.908  0.2689 -0.6279  0.7999
  842MOL0     O13559   1.086   8.833   8.824  0.3276  0.6316 -0.1441
  842MOL0     C13560   1.138   8.942   8.781 -0.7332 -1.1310  0.1262
  842MOL0     C13561   1.068   9.025   8.693 -1.0666 -0.6115 -0.4771
  842MOL0     C13562   1.117   9.156   8.645  0.0665 -1.1298 -0.0099
  842MOL0     C13563   1.030   9.233   8.546 -0.5182  0.8585  0.0546
  842MOL0     C13564   1.245   9.201   8.687 -0.4035  0.2974  0.7266
  842MOL0     C13565   1.302   9.334   8.661 -0.0074 -0.0020  0.2154
  842MOL0     O13566   1.443   9.346   8.655  0.4823 -0.9246 -0.5802
  842MOL0     C13567   1.507   9.458   8.638 -0.4714 -0.5750  0.1185
  842MOL0     C13568   1.632   9.469   8.710 -0.4265 -0.4260  0.3883
  842MOL0     C13569   1.711   9.585   8.698  0.3020  0.2800 -0.2361
  842MOL0     C13570   1.671   9.692   8.620  0.2974 -0.0868  0.1177
  842MOL0     O13571   1.762   9.794   8.606  0.1819  0.1796 -0.3140
  842MOL0     C13572   1.732   9.901   8.511  0.2292  0.5941 -1.1149
  842MOL0     C13573   1.821  10.024   8.555  0.1999 -0.5044 -0.0690
  842MOL0     C13574   1.940  10.011   8.653  0.9026  0.8740  0.3111
  842MOL0     C13575   2.048   9.927   8.579  0.0037 -0.3226 -0.3032
  842MOL0     C13576   2.176   9.911   8.657 -0.3607 -0.0574 -0.8105
  842MOL0     C13577   2.289   9.862   8.558 -0.4667  0.3849 -0.4495
  842MOL0     C13578   2.387   9.776   8.635  0.2157 -0.5428  1.2072
  842MOL0     C13579   2.490   9.695   8.553 -0.7016  1.1936  0.5083
  842MOL0    Cl13580   2.574   9.789   8.428  0.0358 -0.3130 -0.0046
  842MOL0     C13581   1.547   9.681   8.552  0.3675 -0.0990 -0.7162
  842MOL0     C13582   1.468   9.571   8.564  0.4933 -0.7022  0.4725
  842MOL0     O13583   1.228   9.424   8.623  0.0624 -0.4003 -0.1953
  842MOL0     C13584   1.318   9.112   8.768 -0.0257  0.3480  0.3023
  842MOL0     C13585   1.262   8.993   8.812 -0.0346  0.2698  0.5269
  842MOL0     N13586   0.797   8.391   8.999 -0.2012  0.0005 -0.0579
  842MOL0     N13587   0.821   8.293   9.086 -0.6345  0.2864  0.0782
  842MOL0     C13588   0.653   7.777   8.953 -0.0548  0.3126 -0.6208
  842MOL0     C13589   0.536   7.839   8.996 -0.7470 -0.8201  0.1473
  842MOL0     C13590   0.177   8.107   8.971 -0.4612 -0.6585  0.1322
  842MOL0     C13591   0.053   8.045   8.950 -0.7324 -0.4128 -0.4838
  842MOL0     C13592  -0.066   8.115   8.973 -0.1577  0.0086 -1.1682
  842MOL0     C13593  -0.059   8.252   9.022  0.6653 -1.3799 -0.8012
  842MOL0     O13594  -0.186   8.311   9.056  0.0996  0.2633 -0.3437
  842MOL0     C13595  -0.189   8.465   9.069  0.3072  1.0787  0.6867
  842MOL0     C13596  -0.328   8.515   9.036 -0.6065 -0.4617  0.8007
  842MOL0     C13597  -0.371   8.498   8.885  0.1303  0.0375  0.1367
  842MOL0     C13598  -0.318   8.607   8.788  0.2794 -0.4785 -0.1392
  842MOL0     C13599  -0.179   8.602   8.762 -0.4103  0.2513 -0.2563
  842MOL0     C13600  -0.056   8.601   8.751  0.1462 -0.5832  0.0173
  842MOL0     C13601   0.067   8.312   9.042  0.1931 -0.0221 -0.8475
  842MOL0     C13602   0.179   8.242   9.008  0.1155 -0.3010  0.0655
  842MOL0     H13603   0.338   7.741   8.734  0.9155 -2.6004 -1.3087
  842MOL0     H13604   0.533   7.652   8.663 -0.8327 -1.7379  1.0935
  842MOL0     H13605   0.807   7.572   8.973 -0.2531  0.2038  0.5021
  842MOL0     H13606   0.836   7.460   8.835  3.1868 -0.9370 -1.4872
  842MOL0     H13607   1.057   7.541   8.864  1.1919  1.0024  1.0796
  842MOL0     H13608   0.987   7.614   8.723 -1.1071  0.1252 -0.3485
  842MOL0     H13609   0.994   7.845   8.835 -1.1682 -1.0778 -1.0526
  842MOL0     H13610   0.955   7.769   8.987 -1.9386  2.1085 -1.9896
  842MOL0     H13611   1.214   7.699   8.974 -0.0830  1.5459  2.4901
  842MOL0     H13612   1.222   7.771   8.816 -1.4653  0.6978 -0.0220
  842MOL0     H13613   1.316   7.918   8.987  0.2424 -0.1504  2.2313
  842MOL0     H13614   1.167   7.992   8.913 -3.0161 -3.6961 -1.8897
  842MOL0     H13615   1.081   7.844   9.149  2.4134 -2.2995 -0.2261
  842MOL0     H13616   1.234   7.915   9.194  2.3677  1.4585 -3.2875
  842MOL0     H13617   1.059   8.077   9.255  3.3684  5.0466 -0.1321
  842MOL0     H13618   1.123   8.146   9.103 -3.2650  0.7107 -1.0672
  842MOL0     H13619   0.869   8.048   9.176  1.2557 -0.7568  0.2377
  842MOL0     H13620   0.917   7.995   9.021  2.3598 -0.3933  0.1882
  842MOL0     H13621   1.033   8.215   8.856  1.9489 -1.1547  2.4810
  842MOL0     H13622   0.887   8.420   8.689  0.8045 -1.4128  0.0620
  842MOL0     H13623   0.805   8.536   8.785  0.7385  1.0596  1.2987
  842MOL0     H13624   1.015   8.635   8.696  1.7375 -0.7125 -0.7688
  842MOL0     H13625   1.101   8.489   8.760  1.0782 -0.5081  3.0147
  842MOL0     H13626   1.111   8.549   8.981  0.5142 -1.4226 -1.5806
  842MOL0     H13627   0.968   8.639   8.971  1.0276 -0.0901  1.6663
  842MOL0     H13628   1.247   8.706   8.861  0.4547 -0.5058  1.0640
  842MOL0     H13629   1.179   8.782   9.007  0.8458  0.6270  0.1681
  842MOL0     H13630   0.970   9.001   8.654 -2.0633  0.1453  1.4329
  842MOL0     H13631   0.948   9.169   8.513 -0.2009  2.3748 -4.3829
  842MOL0     H13632   0.982   9.317   8.597 -0.9039  1.2518 -0.9131
  842MOL0     H13633   1.079   9.270   8.455  3.7363 -0.6809  1.5122
  842MOL0     H13634   1.675   9.391   8.773 -0.6581  0.7356  2.0319
  842MOL0     H13635   1.804   9.582   8.754 -1.4613  0.1008  2.9285
  842MOL0     H13636   1.759   9.860   8.414  2.5974  0.6216 -0.5360
  842MOL0     H13637   1.631   9.939   8.528  0.2145  0.2249 -0.3388
  842MOL0     H13638   1.835  10.081   8.462 -0.5638  1.5150  0.9823
  842MOL0     H13639   1.756  10.095   8.607  0.2268  0.7080 -1.6099
  842MOL0     H13640   1.915   9.966   8.750 -0.5761 -0.1654 -0.5138
  842MOL0     H13641   1.977  10.112   8.675  2.7303  0.0592  1.2154
  842MOL0     H13642   2.007   9.835   8.537 -0.6018  0.6424 -1.9005
  842MOL0     H13643   2.081   9.982   8.491 -0.6467 -3.5925 -2.7771
  842MOL0     H13644   2.150   9.833   8.730 -1.0706  0.9461  0.0504
  842MOL0     H13645   2.212  10.003   8.705 -0.2285 -0.4509 -0.1437
  842MOL0     H13646   2.261   9.802   8.471  0.3146  2.2667 -2.0878
  842MOL0     H13647   2.347   9.943   8.513  1.5926  0.0165  1.3871
  842MOL0     H13648   2.339   9.705   8.702  2.7314 -2.5957  0.9911
  842MOL0     H13649   2.442   9.829   8.714  1.4825  0.8447 -0.5140
  842MOL0     H13650   2.444   9.610   8.503  1.3986  2.2154 -3.5174
  842MOL0     H13651   2.571   9.662   8.619  2.8647  2.6599 -2.7654
  842MOL0     H13652   1.516   9.762   8.486  2.2238 -0.1593 -1.7424
  842MOL0     H13653   1.376   9.571   8.506  0.7374  1.7472 -0.0530
  842MOL0     H13654   1.421   9.133   8.794  0.0666  0.2342  0.0303
  842MOL0     H13655   1.316   8.934   8.885 -1.1549  2.4306  3.2834
  842MOL0     H13656   0.754   7.790   8.991 -0.1288 -1.9117  0.4692
  842MOL0     H13657   0.539   7.905   9.081 -1.7984 -0.5231 -0.0281
  842MOL0     H13658   0.041   7.943   8.913  2.2541 -1.6062  1.4544
  842MOL0     H13659  -0.157   8.056   8.962  0.6503 -1.5650  0.2351
  842MOL0     H13660  -0.160   8.488   9.172 -2.3979  1.2541  1.4900
  842MOL0     H13661  -0.119   8.499   8.992 -2.0761  1.1742 -1.5909
  842MOL0     H13662  -0.341   8.622   9.055 -1.1483  0.2847 -2.9875
  842MOL0     H13663  -0.401   8.470   9.103 -2.9622 -0.6692 -1.7188
  842MOL0     H13664  -0.480   8.510   8.883 -0.0594 -1.4045  0.2111
  842MOL0     H13665  -0.356   8.397   8.846 -1.8769 -0.0492 -0.5424
  842MOL0     H13666  -0.332   8.704   8.838  3.8896 -0.3571  0.8904
  842MOL0     H13667  -0.372   8.628   8.695  0.0282  0.5377  0.2221
  842MOL0     H13668   0.049   8.618   8.755 -0.1478  1.6811 -0.6972
  842MOL0     H13669   0.067   8.410   9.087 -2.5447  0.0212 -0.7448
  842MOL0     H13670   0.273   8.289   9.034  0.3649 -0.0574 -1.2120
  843MOL0     O13671   0.872  10.367   4.879  0.2190 -0.3073 -0.2733
  843MOL0     C13672   0.844  10.475   4.822  0.9808  1.1976  0.0763
  843MOL0     O13673   0.902  10.530   4.721  0.1806 -0.1261  0.3010
  843MOL0     C13674   1.028  10.480   4.681  0.2988 -0.4636  0.4833
  843MOL0     C13675   1.041  10.458   4.546  0.6469 -0.5875  0.8521
  843MOL0     C13676   1.163  10.420   4.494  0.0070 -0.8388  0.4307
  843MOL0     C13677   1.276  10.413   4.575 -0.2896  0.0324 -0.0220
  843MOL0     O13678   1.385  10.386   4.502 -0.7179 -0.5174  0.5789
  843MOL0     C13679   1.513  10.401   4.560  0.5003 -0.4308 -0.2183
  843MOL0     C13680   1.618  10.396   4.434 -0.1192  1.4052 -0.0040
  843MOL0     C13681   1.606  10.273   4.346  0.4706 -0.0687  1.2133
  843MOL0     C13682   1.652  10.143   4.421 -0.2178 -0.7248  0.2066
  843MOL0     C13683   1.674  10.018   4.329 -0.5402 -1.0979  0.3320
  843MOL0     C13684   1.792  10.022   4.241  0.0077 -0.1419 -1.0816
  843MOL0     C13685   1.789   9.902   4.159 -0.0004  0.0056  0.3910
  843MOL0     C13686   1.909   9.874   4.072 -1.3640 -0.3338 -0.5379
  843MOL0     N13687   1.999   9.778   4.134  0.3446 -0.2753  0.2608
  843MOL0     C13688   2.053   9.779   4.264  0.6242 -0.2030  0.5291
  843MOL0     C13689   2.121   9.666   4.276 -0.3774  0.2859  0.4502
  843MOL0     C13690   2.192   9.608   4.396  0.3300 -0.2819  0.7631
  843MOL0     C13691   2.095   9.584   4.509 -0.1992 -0.3235  0.3200
  843MOL0     C13692   1.999   9.465   4.484  0.3889  0.0246  1.0341
  843MOL0     C13693   1.858   9.507   4.435  1.0995  0.0498  0.0290
  843MOL0     O13694   1.793   9.575   4.543  0.2637  0.1984  0.0210
  843MOL0     C13695   1.672   9.639   4.517 -0.5274 -0.2688  0.6381
  843MOL0     C13696   1.614   9.688   4.632 -0.5255 -0.2279  1.0993
  843MOL0     C13697   1.497   9.765   4.620 -0.1409  0.2163  0.6264
  843MOL0     C13698   1.452   9.839   4.738  0.7961  0.5622  0.5468
  843MOL0     C13699   1.431   9.770   4.496 -0.1259 -0.9393 -0.4415
  843MOL0     C13700   1.286   9.819   4.477 -0.3227  0.6040  0.1630
  843MOL0     O13701   1.202   9.857   4.583 -1.3899 -0.6808 -0.1775
  843MOL0     C13702   1.090   9.923   4.552 -0.2419  0.9083 -0.0641
  843MOL0     C13703   0.975   9.860   4.560 -0.0879  0.5389 -0.1363
  843MOL0     C13704   0.854   9.928   4.556  0.3294  0.2064  0.5127
  843MOL0     C13705   0.850  10.065   4.535 -0.0325 -0.1266 -0.3243
  843MOL0     O13706   0.734  10.127   4.563 -0.2004 -0.0464 -0.0735
  843MOL0     C13707   0.719  10.276   4.551  0.3494 -0.0748  1.0245
  843MOL0     C13708   0.575  10.316   4.594 -0.4439  0.2670  0.1406
  843MOL0     C13709   0.469  10.261   4.492  0.6352  0.0690 -1.0240
  843MOL0     C13710   0.316  10.285   4.536 -0.3147  0.3348  0.0639
  843MOL0     C13711   0.251  10.173   4.613  0.3976  0.1028 -0.0036
  843MOL0     C13712   0.110  10.201   4.665  1.0080 -0.5488 -0.2148
  843MOL0     C13713   0.016  10.252   4.546 -0.3183  0.5701  0.5005
  843MOL0     C13714  -0.133  10.211   4.579  0.3175  0.8108 -0.4417
  843MOL0    Cl13715  -0.197  10.342   4.688 -0.2146 -0.2381 -0.0833
  843MOL0     C13716   0.972  10.131   4.528  0.8869 -0.7563  0.4046
  843MOL0     C13717   1.091  10.063   4.535 -0.3186 -0.3759  0.2247
  843MOL0     O13718   1.255   9.824   4.361 -0.0254 -0.4365  0.2858
  843MOL0     C13719   1.497   9.721   4.378  0.1527  0.3468  1.0699
  843MOL0     C13720   1.611   9.648   4.391 -0.0923 -0.2336 -0.2039
  843MOL0     N13721   2.104   9.598   4.155  0.3436  0.3638  0.5587
  843MOL0     N13722   2.037   9.671   4.067 -0.4319  0.2299  0.2202
  843MOL0     C13723   1.263  10.442   4.710 -0.1039  0.0088 -0.1248
  843MOL0     C13724   1.137  10.485   4.768 -0.2270  0.3419  0.0128
  843MOL0     C13725   0.716  10.556   4.873 -1.0680  0.8038 -0.2628
  843MOL0     C13726   0.678  10.668   4.811 -0.3478  0.1748 -0.3655
  843MOL0     C13727   0.570  10.734   4.865 -0.1065  0.4725 -0.7081
  843MOL0     C13728   0.496  10.692   4.976 -0.8220  0.4129  0.0648
  843MOL0     O13729   0.398  10.765   5.038  0.0928  0.0382 -0.2640
  843MOL0     C13730   0.260  10.723   5.021  0.6435  0.1694  0.1599
  843MOL0     C13731   0.220  10.667   4.884 -0.0901  0.3755 -0.0022
  843MOL0     C13732   0.074  10.684   4.859 -0.5566  0.3129 -1.2498
  843MOL0     C13733   0.036  10.605   4.730  0.2987 -0.6274 -0.4001
  843MOL0     C13734   0.113  10.645   4.614  0.4984 -0.7621  0.0480
  843MOL0     C13735   0.188  10.690   4.526  0.5713  0.2886 -0.6637
  843MOL0     C13736   0.535  10.574   5.032 -0.3456  0.2746  0.3076
  843MOL0     C13737   0.647  10.503   4.982  0.3012 -0.3723 -0.6492
  843MOL0     H13738   0.951  10.459   4.485  0.0584 -3.9293  1.5122
  843MOL0     H13739   1.177  10.406   4.387  0.8735  0.7078  0.3127
  843MOL0     H13740   1.531  10.496   4.611  0.0092 -1.2889  1.6606
  843MOL0     H13741   1.534  10.335   4.645  0.9991  0.0386  0.0268
  843MOL0     H13742   1.584  10.481   4.374  0.4471  1.3341 -0.4364
  843MOL0     H13743   1.723  10.406   4.465  0.3220  0.1374 -1.0161
  843MOL0     H13744   1.500  10.259   4.320  0.2097  0.9970  1.6635
  843MOL0     H13745   1.666  10.295   4.257  2.3812  0.4716  2.5889
  843MOL0     H13746   1.738  10.161   4.487 -1.2150  1.0907  1.1025
  843MOL0     H13747   1.557  10.115   4.467 -1.8000 -0.0582 -2.5025
  843MOL0     H13748   1.671   9.923   4.382 -1.5843 -2.3829 -1.8472
  843MOL0     H13749   1.597  10.024   4.251  1.8802 -0.1620 -2.1701
  843MOL0     H13750   1.792  10.106   4.170 -2.0612  1.8728  1.1495
  843MOL0     H13751   1.883  10.034   4.300 -1.6267  0.0612  1.5234
  843MOL0     H13752   1.763   9.822   4.228  0.8966  1.0154  1.9573
  843MOL0     H13753   1.716   9.927   4.081  1.8687  3.5941 -0.4388
  843MOL0     H13754   1.958   9.972   4.070 -2.4209  0.2118 -0.1472
  843MOL0     H13755   1.873   9.835   3.977 -0.6420 -2.0544 -0.1439
  843MOL0     H13756   2.032   9.862   4.330  2.5078  0.3055  0.5683
  843MOL0     H13757   2.248   9.523   4.356 -1.3410 -1.2420  0.3625
  843MOL0     H13758   2.266   9.680   4.434  3.0260  0.2874 -4.6648
  843MOL0     H13759   2.034   9.674   4.523 -1.7518 -1.4475  1.2540
  843MOL0     H13760   2.146   9.573   4.605 -1.2984 -0.6467  0.8948
  843MOL0     H13761   1.983   9.406   4.575 -3.6644 -0.7913 -0.0090
  843MOL0     H13762   2.038   9.389   4.415 -0.3807 -0.1425  0.7691
  843MOL0     H13763   1.807   9.415   4.407  0.5124  1.1290 -2.7717
  843MOL0     H13764   1.886   9.565   4.346  1.0344  2.2070  1.3335
  843MOL0     H13765   1.679   9.674   4.718 -0.3221  0.9780  1.1587
  843MOL0     H13766   1.449   9.947   4.721  0.4205  0.6220  0.9991
  843MOL0     H13767   1.361   9.795   4.779  0.9923  1.3296  1.8532
  843MOL0     H13768   1.527   9.833   4.818  1.0026  0.2646  0.3378
  843MOL0     H13769   0.964   9.752   4.563 -4.4344  0.8292  1.9411
  843MOL0     H13770   0.763   9.871   4.573  1.0843 -1.5810 -1.0172
  843MOL0     H13771   0.782  10.328   4.624 -0.7581  1.4142  0.9747
  843MOL0     H13772   0.748  10.308   4.451  0.6697 -0.8969  0.8428
  843MOL0     H13773   0.538  10.280   4.690 -5.6120  3.5351 -0.2313
  843MOL0     H13774   0.554  10.423   4.588 -3.3314 -0.1163  1.5398
  843MOL0     H13775   0.484  10.154   4.474  2.6484  0.1989 -0.3488
  843MOL0     H13776   0.488  10.317   4.400  1.8985  0.9161 -0.2746
  843MOL0     H13777   0.303  10.373   4.600 -1.6311 -2.7514  4.5136
  843MOL0     H13778   0.256  10.296   4.446  2.7374 -1.0893 -2.3475
  843MOL0     H13779   0.308  10.147   4.703 -4.2216 -2.5714  2.5227
  843MOL0     H13780   0.236  10.077   4.562 -1.1519 -1.5154  3.1514
  843MOL0     H13781   0.079  10.101   4.699  1.3861 -1.0815 -1.3812
  843MOL0     H13782   0.111  10.275   4.745 -1.6943 -0.4403 -0.2039
  843MOL0     H13783   0.043  10.208   4.450  0.4942 -1.6602  1.6682
  843MOL0     H13784   0.026  10.361   4.543  2.8422  0.3676  0.0285
  843MOL0     H13785  -0.139  10.107   4.613 -1.1924  1.6509  2.1696
  843MOL0     H13786  -0.192  10.211   4.487 -0.0860 -1.7216 -0.2510
  843MOL0     H13787   0.986  10.239   4.521  0.0724 -0.4322  2.7781
  843MOL0     H13788   1.181  10.121   4.549  0.6359 -1.7416  0.0070
  843MOL0     H13789   1.444   9.722   4.283 -1.7929 -1.4571  2.0514
  843MOL0     H13790   1.648   9.601   4.300 -2.8862 -1.7206 -0.6890
  843MOL0     H13791   1.343  10.445   4.783 -1.7391 -0.7574  1.8002
  843MOL0     H13792   1.130  10.514   4.872 -0.4482  0.0276  0.0857
  843MOL0     H13793   0.732  10.716   4.729 -2.6468  1.5598 -1.1554
  843MOL0     H13794   0.540  10.827   4.819  0.7564  0.4945 -1.2520
  843MOL0     H13795   0.227  10.644   5.089 -3.0433  0.2271 -1.3205
  843MOL0     H13796   0.193  10.805   5.050 -0.6068 -1.3290  1.6876
  843MOL0     H13797   0.251  10.563   4.885  1.1561  0.7275  0.6161
  843MOL0     H13798   0.276  10.724   4.810  0.9301  0.4998  0.8389
  843MOL0     H13799   0.052  10.790   4.852 -0.0785  0.5295  0.1689
  843MOL0     H13800   0.015  10.659   4.948  2.3813  0.5420  0.9166
  843MOL0     H13801  -0.070  10.626   4.712  0.3332  0.4601  0.5404
  843MOL0     H13802   0.032  10.498   4.752 -1.9007 -0.8575 -1.6962
  843MOL0     H13803   0.231  10.738   4.441  3.6406  0.9521  1.1071
  843MOL0     H13804   0.491  10.526   5.120 -2.2056  0.2216 -0.6137
  843MOL0     H13805   0.672  10.415   5.042 -0.0485  1.2062  1.9582
  844MOL0     O13806   7.319   4.663   9.528 -0.2683 -0.2365 -1.0429
  844MOL0     C13807   7.257   4.759   9.492 -0.3574 -1.2291 -0.2707
  844MOL0     O13808   7.122   4.768   9.465  0.0606  0.9487 -0.3900
  844MOL0     C13809   7.066   4.656   9.411 -0.0315  0.3273 -0.7569
  844MOL0     C13810   6.938   4.614   9.448 -0.2874 -0.7935 -0.2282
  844MOL0     C13811   6.874   4.506   9.389  0.0804 -0.1697  0.2783
  844MOL0     C13812   6.938   4.429   9.289 -0.6686 -0.2783  0.0496
  844MOL0     O13813   6.855   4.339   9.226  0.1736  0.5568 -0.2337
  844MOL0     C13814   6.918   4.234   9.154 -0.1481  0.0902 -0.9102
  844MOL0     C13815   6.812   4.156   9.078  0.6336 -0.2866  0.9645
  844MOL0     C13816   6.851   4.010   9.037 -0.7820  0.3878 -0.6076
  844MOL0     C13817   6.770   3.972   8.914 -0.4661 -0.3349 -0.0301
  844MOL0     C13818   6.803   3.829   8.859  0.0705  0.5678  1.0016
  844MOL0     C13819   6.687   3.788   8.765 -0.3988 -0.4968 -0.1973
  844MOL0     C13820   6.733   3.689   8.659 -0.1197 -0.2942  0.2655
  844MOL0     C13821   6.621   3.671   8.553 -1.3838 -0.2286 -0.1356
  844MOL0     N13822   6.517   3.596   8.617 -0.3762  0.1299 -0.0137
  844MOL0     C13823   6.385   3.635   8.650  0.1589 -0.4029  0.1097
  844MOL0     C13824   6.317   3.514   8.636 -0.3621 -0.1926  0.2953
  844MOL0     C13825   6.170   3.501   8.664  0.1001  0.2651 -0.1553
  844MOL0     C13826   6.070   3.467   8.550 -0.2964  0.1018  0.2560
  844MOL0     C13827   6.094   3.317   8.513  0.1803 -0.7312  0.4060
  844MOL0     C13828   5.975   3.270   8.430  0.2353 -0.8828  0.8263
  844MOL0     O13829   5.956   3.124   8.435  0.1287  0.1432  0.1454
  844MOL0     C13830   5.827   3.073   8.418 -0.1412  0.3652  0.1876
  844MOL0     C13831   5.831   2.934   8.372 -0.4125 -0.6850  0.7132
  844MOL0     C13832   5.704   2.872   8.338 -0.4094  0.5081 -0.0313
  844MOL0     C13833   5.722   2.733   8.288 -0.5886 -0.1023 -0.2955
  844MOL0     C13834   5.583   2.941   8.348  0.2778 -0.3461  0.4033
  844MOL0     C13835   5.448   2.886   8.306  0.2261 -0.1879  0.0806
  844MOL0     O13836   5.439   2.784   8.223 -0.2816  0.0768 -0.8813
  844MOL0     C13837   5.318   2.729   8.176  0.1768  1.0600 -0.9271
  844MOL0     C13838   5.311   2.631   8.076 -0.1251 -0.6640  1.0264
  844MOL0     C13839   5.195   2.583   8.020  0.4585 -0.3985  0.2292
  844MOL0     C13840   5.067   2.623   8.062 -0.0659 -0.0320 -0.0977
  844MOL0     O13841   4.944   2.588   8.014  0.7536 -0.3832 -0.4418
  844MOL0     C13842   4.948   2.470   7.931 -0.0883 -0.1469 -0.2363
  844MOL0     C13843   4.808   2.409   7.914 -0.4813 -0.6598  0.4096
  844MOL0     C13844   4.808   2.280   7.827  0.5239 -0.1125  0.7732
  844MOL0     C13845   4.840   2.311   7.685 -0.0274  0.3607 -0.3386
  844MOL0     C13846   4.805   2.192   7.589 -0.5613 -1.1657 -0.4283
  844MOL0     C13847   4.655   2.221   7.558  0.2830  0.6690 -0.3633
  844MOL0     C13848   4.596   2.115   7.461 -0.6214 -0.8389 -0.5402
  844MOL0     C13849   4.457   2.148   7.425  0.4269  0.5095 -0.1582
  844MOL0    Cl13850   4.394   2.036   7.300 -0.2093  0.2298 -0.0764
  844MOL0     C13851   5.064   2.714   8.164 -0.5816  0.5148 -0.7363
  844MOL0     C13852   5.189   2.751   8.232 -0.9307  0.1351 -0.3640
  844MOL0     O13853   5.350   2.955   8.339  0.1501 -0.0851 -0.4555
  844MOL0     C13854   5.591   3.069   8.404  1.0405 -0.6869 -0.3749
  844MOL0     C13855   5.707   3.142   8.427 -0.7420 -0.1118  0.4494
  844MOL0     N13856   6.403   3.413   8.622  0.4171 -0.7167 -0.8841
  844MOL0     N13857   6.524   3.459   8.610  0.5042  0.3074 -0.0659
  844MOL0     C13858   7.065   4.474   9.249  0.2617  0.1427 -0.1758
  844MOL0     C13859   7.129   4.587   9.308 -0.9719 -0.2153  0.7083
  844MOL0     C13860   7.317   4.889   9.497  0.3723 -0.5499 -0.6097
  844MOL0     C13861   7.451   4.904   9.464 -1.0100  0.3241  0.8873
  844MOL0     C13862   7.513   5.030   9.466  0.2700 -0.9190 -0.1252
  844MOL0     C13863   7.441   5.143   9.519  0.7127  0.8372 -0.6344
  844MOL0     O13864   7.503   5.262   9.553  0.4587 -0.1593 -0.2091
  844MOL0     C13865   7.444   5.374   9.487 -0.8354  0.2667 -0.4856
  844MOL0     C13866   7.479   5.377   9.334  0.4981  0.8687  0.2355
  844MOL0     C13867   7.630   5.374   9.298  0.6535 -0.6607  0.0228
  844MOL0     C13868   7.654   5.308   9.160 -0.1260  0.3417 -0.3876
  844MOL0     C13869   7.585   5.389   9.058 -0.6849  0.3696  0.3996
  844MOL0     C13870   7.521   5.428   8.963  0.3126 -0.6367 -0.8144
  844MOL0     C13871   7.305   5.124   9.545 -0.3912  1.5200 -0.0159
  844MOL0     C13872   7.247   4.998   9.531  0.6037 -0.4166 -0.5354
  844MOL0     H13873   6.893   4.670   9.529 -0.2804  0.9263 -1.3809
  844MOL0     H13874   6.778   4.470   9.424  1.1914 -0.8003  2.9412
  844MOL0     H13875   6.992   4.268   9.082 -0.3360  2.2883 -0.1499
  844MOL0     H13876   6.968   4.173   9.230 -2.2787  0.1525  0.6438
  844MOL0     H13877   6.729   4.137   9.145  0.2349  1.2940  0.9552
  844MOL0     H13878   6.767   4.207   8.992  0.1006 -0.6088  1.0506
  844MOL0     H13879   6.956   3.997   9.011 -1.1532 -0.6096 -1.7164
  844MOL0     H13880   6.843   3.949   9.128  1.8915  0.5199 -0.2200
  844MOL0     H13881   6.665   3.982   8.941 -0.4797  2.1747 -0.7597
  844MOL0     H13882   6.800   4.038   8.832 -0.8159 -1.2734 -0.9403
  844MOL0     H13883   6.901   3.826   8.810 -0.4895  2.6050 -0.3629
  844MOL0     H13884   6.816   3.767   8.949  1.1807 -0.1385  0.3722
  844MOL0     H13885   6.607   3.746   8.826  1.1708 -1.5920  1.2196
  844MOL0     H13886   6.653   3.877   8.711  0.5155  0.4718  0.7350
  844MOL0     H13887   6.819   3.734   8.607  1.1965 -1.0705  1.6657
  844MOL0     H13888   6.770   3.597   8.706  0.6363  0.9037  2.1366
  844MOL0     H13889   6.655   3.609   8.469  2.4522  0.1745  0.9251
  844MOL0     H13890   6.576   3.768   8.532 -3.5788 -1.0606  0.4836
  844MOL0     H13891   6.353   3.735   8.679  2.0567 -0.0486  1.1219
  844MOL0     H13892   6.151   3.441   8.754  0.0290 -0.8736 -0.9119
  844MOL0     H13893   6.127   3.595   8.699  1.9600  0.4550  1.8429
  844MOL0     H13894   6.096   3.532   8.466 -1.8655 -0.3516 -0.6157
  844MOL0     H13895   5.964   3.478   8.576 -0.4712 -1.3037  0.1987
  844MOL0     H13896   6.106   3.258   8.604  2.9384  0.6984  1.0746
  844MOL0     H13897   6.188   3.318   8.456  1.1877  2.5131  1.9413
  844MOL0     H13898   5.982   3.303   8.326 -2.9063  1.9094  1.3173
  844MOL0     H13899   5.883   3.323   8.455  1.8203  1.4165  2.1458
  844MOL0     H13900   5.925   2.880   8.372 -0.5975 -1.0111 -0.2685
  844MOL0     H13901   5.698   2.748   8.182  2.4478 -0.9355 -1.1924
  844MOL0     H13902   5.821   2.686   8.282  0.5776  2.0869  0.6495
  844MOL0     H13903   5.652   2.659   8.328  1.4569 -0.8321  2.2377
  844MOL0     H13904   5.404   2.585   8.045  1.6886  1.6970  2.7114
  844MOL0     H13905   5.208   2.515   7.936 -1.2768  1.1983 -1.4273
  844MOL0     H13906   4.992   2.503   7.837  0.9757  0.3717  0.4283
  844MOL0     H13907   5.017   2.393   7.965 -0.0300  0.9234  2.3126
  844MOL0     H13908   4.776   2.385   8.016 -1.1773 -0.4605  0.2491
  844MOL0     H13909   4.731   2.477   7.875 -2.1564 -1.5662  1.9649
  844MOL0     H13910   4.711   2.230   7.836  1.3089 -1.8142  0.2651
  844MOL0     H13911   4.883   2.219   7.878  0.9191  0.3348  0.7406
  844MOL0     H13912   4.797   2.408   7.658  0.4719  1.6474  3.0139
  844MOL0     H13913   4.948   2.331   7.682 -0.3693  2.5750  0.0881
  844MOL0     H13914   4.819   2.096   7.639 -0.2674 -0.2598  1.2931
  844MOL0     H13915   4.857   2.207   7.494 -3.7514 -2.8851 -2.6340
  844MOL0     H13916   4.601   2.220   7.653  1.6941 -2.4636  0.5309
  844MOL0     H13917   4.638   2.313   7.501  0.6920  0.7518 -0.3524
  844MOL0     H13918   4.608   2.019   7.512  0.7214  1.0005  2.9649
  844MOL0     H13919   4.652   2.129   7.368  0.0173  1.8961  0.1613
  844MOL0     H13920   4.461   2.241   7.368  1.1182  1.7144  1.7798
  844MOL0     H13921   4.391   2.165   7.511 -0.2941 -2.2424 -0.0819
  844MOL0     H13922   4.972   2.756   8.204  0.3481  0.8329  1.1985
  844MOL0     H13923   5.179   2.808   8.324 -2.3002 -1.0678  0.2806
  844MOL0     H13924   5.502   3.128   8.424  1.4174 -1.0964  3.1047
  844MOL0     H13925   5.702   3.240   8.473 -0.5246  1.8730 -3.3567
  844MOL0     H13926   7.122   4.431   9.167 -0.1096  0.3073 -0.5271
  844MOL0     H13927   7.222   4.619   9.262 -0.4410 -1.7929  0.5968
  844MOL0     H13928   7.507   4.816   9.435 -0.2601  1.2805 -0.6801
  844MOL0     H13929   7.619   5.043   9.447  0.5517  1.6417  2.4473
  844MOL0     H13930   7.336   5.383   9.501 -1.3463 -0.1511 -3.4492
  844MOL0     H13931   7.482   5.466   9.533 -0.2825  0.6654 -1.6800
  844MOL0     H13932   7.426   5.461   9.288 -0.8665 -1.2682 -2.4040
  844MOL0     H13933   7.431   5.287   9.293  0.0031  1.8182 -1.3452
  844MOL0     H13934   7.669   5.314   9.381  1.2471  2.1166  1.8895
  844MOL0     H13935   7.667   5.476   9.309 -0.2013 -0.4293  0.8082
  844MOL0     H13936   7.624   5.203   9.170  0.3008  0.3184  0.7645
  844MOL0     H13937   7.759   5.314   9.129  0.5100 -0.4021  1.4654
  844MOL0     H13938   7.456   5.474   8.891  1.9673  1.3132 -1.1496
  844MOL0     H13939   7.255   5.210   9.590  3.3659  2.7480  2.2573
  844MOL0     H13940   7.142   4.988   9.554  0.8607  1.3604  1.7623
  845MOL0     O13941   6.364   1.326   5.212 -0.5323  0.2140  0.0870
  845MOL0     C13942   6.446   1.234   5.178 -0.5397 -1.1182  0.5278
  845MOL0     O13943   6.434   1.100   5.153  0.3433  0.0577 -0.3522
  845MOL0     C13944   6.319   1.036   5.177 -0.0658  1.0054 -0.3666
  845MOL0     C13945   6.195   1.080   5.227 -0.2894  0.0480 -0.3633
  845MOL0     C13946   6.089   0.994   5.252 -0.4669 -0.1661  0.6613
  845MOL0     C13947   6.093   0.863   5.215 -0.5557  0.5727  0.8918
  845MOL0     O13948   5.980   0.787   5.231  0.5392  1.1542 -0.5123
  845MOL0     C13949   5.977   0.736   5.372 -0.2035  0.1142  0.4654
  845MOL0     C13950   5.842   0.669   5.405  0.2013 -0.4095 -0.1941
  845MOL0     C13951   5.740   0.784   5.405  0.1198 -0.0642  0.0186
  845MOL0     C13952   5.593   0.746   5.438  0.1971 -0.0878  0.4479
  845MOL0     C13953   5.512   0.870   5.460 -0.1648 -0.4079  0.2769
  845MOL0     C13954   5.370   0.840   5.504  0.1359  0.0153 -0.2498
  845MOL0     C13955   5.300   0.973   5.535 -0.7754 -0.4327  0.1349
  845MOL0     C13956   5.177   0.939   5.617  0.1515 -0.7472 -0.6421
  845MOL0     N13957   5.098   1.052   5.677  0.3020  0.2842 -0.6399
  845MOL0     C13958   5.135   1.134   5.785 -0.6627 -0.2257  0.8310
  845MOL0     C13959   5.040   1.223   5.800  0.1538  0.5039  0.0392
  845MOL0     C13960   5.041   1.329   5.904  0.1304 -0.6105  0.4315
  845MOL0     C13961   4.959   1.283   6.024  0.4897 -1.0758 -1.0233
  845MOL0     C13962   4.807   1.305   6.019  0.2886 -0.3315 -0.2857
  845MOL0     C13963   4.759   1.448   6.024  0.4109 -0.0767 -0.0700
  845MOL0     O13964   4.615   1.436   6.011 -0.2625 -0.1279  0.0185
  845MOL0     C13965   4.544   1.558   6.018 -0.6813  0.4046 -0.6310
  845MOL0     C13966   4.612   1.680   6.024  0.0217 -0.4477 -0.2959
  845MOL0     C13967   4.538   1.797   6.026 -0.2050  1.0053 -0.0540
  845MOL0     C13968   4.617   1.921   6.036  0.0315  0.3247  0.2398
  845MOL0     C13969   4.400   1.790   6.017 -0.3557 -0.3939 -0.0965
  845MOL0     C13970   4.318   1.908   6.011  0.3570  0.2374  1.3863
  845MOL0     O13971   4.203   1.901   6.070  0.1080 -0.2364  0.3452
  845MOL0     C13972   4.096   1.988   6.047 -0.8395  0.5266  0.0466
  845MOL0     C13973   4.022   2.012   6.156  0.1203 -0.1760 -0.9364
  845MOL0     C13974   3.899   2.079   6.140 -0.1377  0.1516  0.6634
  845MOL0     C13975   3.866   2.148   6.026  0.1233  0.0432  0.0247
  845MOL0     O13976   3.758   2.224   6.019 -0.6236 -0.7495  0.8484
  845MOL0     C13977   3.671   2.215   6.127  1.1305 -1.1647 -0.9356
  845MOL0     C13978   3.547   2.313   6.122 -0.5008 -0.3559  0.1555
  845MOL0     C13979   3.502   2.349   5.980 -0.4053  0.3565  0.5061
  845MOL0     C13980   3.441   2.226   5.909 -0.7468  0.2761  0.9371
  845MOL0     C13981   3.363   2.244   5.779  0.4881  0.3208 -0.2815
  845MOL0     C13982   3.449   2.308   5.672  1.3000 -0.0693  0.8511
  845MOL0     C13983   3.559   2.221   5.609  0.3043  0.1450 -0.5294
  845MOL0     C13984   3.654   2.320   5.535 -0.4331 -0.4057  0.7769
  845MOL0    Cl13985   3.583   2.385   5.380 -0.2176  0.3620 -0.4011
  845MOL0     C13986   3.965   2.136   5.924 -0.3918  0.3173  0.3988
  845MOL0     C13987   4.071   2.055   5.928 -0.3130  0.1923  0.0258
  845MOL0     O13988   4.351   2.006   5.946 -0.0050 -0.1602  0.0169
  845MOL0     C13989   4.336   1.671   6.001 -0.5411  0.7051  0.2193
  845MOL0     C13990   4.407   1.548   5.999  0.1019 -0.1538 -0.2250
  845MOL0     N13991   4.937   1.190   5.705  0.0453  0.2045  0.0093
  845MOL0     N13992   4.982   1.098   5.631  0.5241  1.2114  0.0380
  845MOL0     C13993   6.213   0.813   5.159 -0.2583 -0.3679 -0.8785
  845MOL0     C13994   6.323   0.899   5.145  0.2002  0.4880 -0.0507
  845MOL0     C13995   6.581   1.285   5.154  0.0466 -0.1246  0.9813
  845MOL0     C13996   6.601   1.425   5.159 -0.9531  0.9192  0.1792
  845MOL0     C13997   6.729   1.466   5.142 -0.3022 -0.6568 -0.5239
  845MOL0     C13998   6.835   1.385   5.116  0.1218  0.6093  1.0474
  845MOL0     O13999   6.956   1.453   5.097  1.2119 -0.1556  0.0666
  845MOL0     C14000   7.037   1.414   4.990 -0.1596 -0.8880 -0.1262
  845MOL0     C14001   7.176   1.476   4.992  0.0254  0.2352 -1.1746
  845MOL0     C14002   7.258   1.451   4.866 -0.3403 -0.3851  0.0606
  845MOL0     C14003   7.357   1.336   4.872 -0.0918 -0.3186 -0.0712
  845MOL0     C14004   7.279   1.210   4.853 -0.7428  0.2779 -0.7918
  845MOL0     C14005   7.226   1.102   4.847 -0.1972 -0.0453 -0.0626
  845MOL0     C14006   6.814   1.240   5.105  0.8066 -0.4708 -0.9518
  845MOL0     C14007   6.685   1.194   5.132 -0.5107  0.7994 -0.6193
  845MOL0     H14008   6.182   1.186   5.246 -1.8859 -0.2431  0.3558
  845MOL0     H14009   5.997   1.036   5.291  0.2099  3.6467 -1.4148
  845MOL0     H14010   6.056   0.661   5.381 -0.2941  0.1430  1.7442
  845MOL0     H14011   6.000   0.823   5.435 -0.2021  1.9437 -1.9087
  845MOL0     H14012   5.823   0.598   5.324 -3.1374 -0.7460  0.7213
  845MOL0     H14013   5.848   0.616   5.501 -0.4147 -0.6633 -0.2864
  845MOL0     H14014   5.765   0.856   5.483 -4.1249  0.4549  1.1779
  845MOL0     H14015   5.739   0.828   5.305 -1.6050 -2.2554 -1.0393
  845MOL0     H14016   5.552   0.700   5.348  0.4969  0.3495  0.0848
  845MOL0     H14017   5.584   0.671   5.517  0.8440 -0.9353 -0.2745
  845MOL0     H14018   5.569   0.924   5.536 -0.0933 -1.2336  0.8219
  845MOL0     H14019   5.507   0.924   5.365 -2.6509 -4.4937 -2.1621
  845MOL0     H14020   5.313   0.784   5.430 -0.4369 -0.5961  0.6272
  845MOL0     H14021   5.376   0.782   5.597  0.3993 -0.0319 -0.2946
  845MOL0     H14022   5.368   1.038   5.590  0.2444 -0.7033 -0.7809
  845MOL0     H14023   5.275   1.033   5.447  2.4576  2.5022  0.9906
  845MOL0     H14024   5.200   0.862   5.692  1.8448 -0.7043 -1.0954
  845MOL0     H14025   5.106   0.884   5.555 -2.2053  0.6509  0.6636
  845MOL0     H14026   5.226   1.130   5.844  0.6441  1.5772 -0.9300
  845MOL0     H14027   5.139   1.358   5.943 -0.8805  2.3665  1.0118
  845MOL0     H14028   4.999   1.422   5.865  1.5520  0.5706  1.6028
  845MOL0     H14029   4.992   1.327   6.119 -2.3221 -3.5152  1.2814
  845MOL0     H14030   4.979   1.179   6.052  0.0258 -0.8186  0.3329
  845MOL0     H14031   4.758   1.254   6.102  0.1713 -1.5522 -1.0797
  845MOL0     H14032   4.775   1.261   5.924 -1.9047  1.2346 -0.3425
  845MOL0     H14033   4.816   1.497   5.944 -0.7440 -0.0617 -0.9141
  845MOL0     H14034   4.784   1.490   6.122  0.6555  0.3397 -0.3077
  845MOL0     H14035   4.720   1.681   6.027  0.0080 -0.4446  1.7314
  845MOL0     H14036   4.602   1.992   5.954  2.0039  1.6094  0.9097
  845MOL0     H14037   4.579   1.975   6.124 -0.1921 -2.3006  1.8436
  845MOL0     H14038   4.726   1.908   6.034 -0.2993 -3.9830  0.6679
  845MOL0     H14039   4.046   1.959   6.248  2.1505 -3.2170 -3.0023
  845MOL0     H14040   3.834   2.097   6.224 -1.2705 -1.0523  0.0769
  845MOL0     H14041   3.636   2.112   6.128 -1.0912 -0.4718  0.1192
  845MOL0     H14042   3.716   2.238   6.224  0.0904 -2.8880 -0.0041
  845MOL0     H14043   3.464   2.268   6.178 -1.7460  2.7602  1.0015
  845MOL0     H14044   3.570   2.403   6.179  0.0567 -0.7464  0.5635
  845MOL0     H14045   3.592   2.380   5.926  0.7109 -2.3139  0.6689
  845MOL0     H14046   3.423   2.423   5.998 -0.3269  0.8155 -0.9280
  845MOL0     H14047   3.517   2.150   5.890 -2.1390 -1.3142  1.4402
  845MOL0     H14048   3.367   2.183   5.978 -2.3700 -0.9837 -1.4300
  845MOL0     H14049   3.279   2.311   5.798  0.1130  0.2352 -1.5553
  845MOL0     H14050   3.319   2.150   5.746 -0.0561  0.6022 -0.3582
  845MOL0     H14051   3.387   2.342   5.589 -0.8892 -4.5880  0.3108
  845MOL0     H14052   3.495   2.392   5.724  0.1674  1.3365 -0.3574
  845MOL0     H14053   3.515   2.146   5.542  2.8629 -0.5823 -1.5035
  845MOL0     H14054   3.622   2.168   5.681  0.9881  1.0652 -0.4298
  845MOL0     H14055   3.745   2.264   5.512 -0.8527 -0.7022 -0.2115
  845MOL0     H14056   3.688   2.409   5.589 -0.8848  2.3676 -3.1582
  845MOL0     H14057   3.955   2.203   5.839 -0.5608  1.0039  0.9467
  845MOL0     H14058   4.133   2.044   5.839 -0.9380 -0.8170 -0.3095
  845MOL0     H14059   4.229   1.667   5.985 -0.4513 -1.3022 -0.0303
  845MOL0     H14060   4.369   1.447   5.986  1.3809 -0.7204  0.2559
  845MOL0     H14061   6.225   0.711   5.122  0.2929  0.3380 -2.7743
  845MOL0     H14062   6.415   0.861   5.102  1.4000  1.8593  1.1818
  845MOL0     H14063   6.527   1.492   5.201 -1.2868  1.4212 -1.1336
  845MOL0     H14064   6.756   1.570   5.159  3.3441 -1.0895 -2.6512
  845MOL0     H14065   7.063   1.309   5.003 -0.2511 -0.5879  3.2776
  845MOL0     H14066   6.989   1.447   4.897 -2.0505 -0.0678  1.0982
  845MOL0     H14067   7.232   1.444   5.080 -1.7493  3.4807  1.3689
  845MOL0     H14068   7.166   1.583   5.010  1.7637  0.3130 -0.4974
  845MOL0     H14069   7.315   1.542   4.843 -1.1248 -0.8030 -4.5534
  845MOL0     H14070   7.196   1.455   4.775 -1.4348  2.4921  0.8297
  845MOL0     H14071   7.426   1.337   4.957 -1.0152 -2.9709  0.8185
  845MOL0     H14072   7.431   1.337   4.791 -1.1659 -0.8119 -1.0794
  845MOL0     H14073   7.194   1.001   4.828 -0.1167  0.0846 -0.9325
  845MOL0     H14074   6.897   1.174   5.086  1.8143  0.3612  0.3828
  845MOL0     H14075   6.649   1.092   5.138 -2.8352  1.5882 -0.3509
  846MOL0     O14076  10.213   1.554   1.853  0.3241 -0.4125  1.0028
  846MOL0     C14077  10.247   1.627   1.945 -0.1758  0.1503  0.1844
  846MOL0     O14078  10.166   1.674   2.043  0.0357 -0.2055 -0.0818
  846MOL0     C14079  10.030   1.629   2.033  0.5905  0.2207 -0.9304
  846MOL0     C14080   9.998   1.515   2.118  0.0766 -0.0494  0.6639
  846MOL0     C14081   9.869   1.469   2.116  0.4685  1.5080  0.7353
  846MOL0     C14082   9.762   1.538   2.043 -0.3728  0.9548 -0.6727
  846MOL0     O14083   9.635   1.475   2.057  0.4175  0.3393 -0.0760
  846MOL0     C14084   9.523   1.518   1.980 -0.3975 -0.3005 -0.4779
  846MOL0     C14085   9.389   1.489   2.050  0.4771  0.2595 -0.4501
  846MOL0     C14086   9.397   1.454   2.200  0.2060 -0.3262  0.6940
  846MOL0     C14087   9.260   1.461   2.265 -0.0419 -0.1981  0.2297
  846MOL0     C14088   9.258   1.423   2.417 -0.2107 -0.4547 -0.4315
  846MOL0     C14089   9.122   1.460   2.483  0.2973  0.9684  0.2290
  846MOL0     C14090   9.046   1.597   2.474 -0.0605  0.3154  0.0217
  846MOL0     C14091   9.139   1.718   2.516  0.3927  0.3175  0.7614
  846MOL0     N14092   9.077   1.850   2.512  0.7093 -0.0955  0.2235
  846MOL0     C14093   9.010   1.901   2.619 -0.3471 -0.0292 -0.3988
  846MOL0     C14094   8.957   2.015   2.576 -0.4701 -0.1536  0.2027
  846MOL0     C14095   8.882   2.107   2.666 -0.8651 -0.6801  0.4188
  846MOL0     C14096   8.749   2.064   2.698 -0.0139 -0.5298  0.5901
  846MOL0     C14097   8.659   2.178   2.765  0.2463  0.0194 -0.9471
  846MOL0     C14098   8.574   2.251   2.663  0.1905  0.4520  0.5268
  846MOL0     O14099   8.519   2.383   2.706 -0.7087  0.1761  0.2530
  846MOL0     C14100   8.386   2.416   2.700 -0.0494 -0.8204  1.1372
  846MOL0     C14101   8.279   2.323   2.683  0.1318  0.2927 -0.1512
  846MOL0     C14102   8.147   2.362   2.712 -0.0946 -0.6370 -0.5101
  846MOL0     C14103   8.040   2.258   2.706  0.2762 -0.1966  0.5077
  846MOL0     C14104   8.119   2.502   2.730 -0.8351 -0.0448  0.1200
  846MOL0     C14105   7.983   2.558   2.759 -0.1086 -0.0140  0.0118
  846MOL0     O14106   7.893   2.486   2.826  0.2578 -0.0934 -0.7223
  846MOL0     C14107   7.764   2.539   2.824 -0.3343 -0.0731 -0.2979
  846MOL0     C14108   7.669   2.498   2.727  0.1273  0.0678 -0.2342
  846MOL0     C14109   7.536   2.543   2.733  0.0502 -0.9692  0.4398
  846MOL0     C14110   7.500   2.650   2.817  0.4664 -0.7028  0.3829
  846MOL0     O14111   7.362   2.691   2.808 -0.4568  0.0909 -1.2556
  846MOL0     C14112   7.319   2.798   2.897 -0.4634  0.6990 -0.0813
  846MOL0     C14113   7.265   2.746   3.029  0.4338 -0.3108 -0.2706
  846MOL0     C14114   7.162   2.634   2.999  0.2376 -0.0342  0.2847
  846MOL0     C14115   7.027   2.698   2.965  0.7473  0.1795  0.3992
  846MOL0     C14116   6.917   2.590   2.957 -0.2432 -0.0072  0.0154
  846MOL0     C14117   6.777   2.655   2.916  0.1613 -0.0750 -0.8754
  846MOL0     C14118   6.731   2.766   3.021  0.4615 -0.0036 -0.4392
  846MOL0     C14119   6.660   2.706   3.141  0.3471  0.8015 -1.6517
  846MOL0    Cl14120   6.495   2.680   3.082 -0.6103 -0.0276 -0.1770
  846MOL0     C14121   7.589   2.686   2.914  0.1662  0.0218  0.3515
  846MOL0     C14122   7.726   2.632   2.915 -0.1159  0.7691 -0.8020
  846MOL0     O14123   7.974   2.671   2.713  0.3841 -0.7570  0.9876
  846MOL0     C14124   8.223   2.600   2.731 -0.1333  0.6299  0.4240
  846MOL0     C14125   8.356   2.551   2.736 -0.2369  0.8451  0.5108
  846MOL0     N14126   8.985   2.033   2.449 -0.6431  0.3371 -0.1270
  846MOL0     N14127   9.054   1.936   2.407  0.3839 -0.3223 -0.0230
  846MOL0     C14128   9.795   1.647   1.969  0.2179 -0.1934 -0.7294
  846MOL0     C14129   9.924   1.694   1.960 -0.1328 -0.7414 -0.4146
  846MOL0     C14130  10.394   1.659   1.947  0.0981 -0.1508  1.1457
  846MOL0     C14131  10.475   1.618   1.840  0.5487 -0.1160 -0.4380
  846MOL0     C14132  10.600   1.674   1.816 -0.3396  0.6892  0.7289
  846MOL0     C14133  10.662   1.752   1.921 -0.4591 -0.0955  0.9446
  846MOL0     O14134  10.782   1.821   1.897  0.6886  0.4862 -0.1564
  846MOL0     C14135  10.878   1.730   1.839 -0.1906  0.7791  0.7821
  846MOL0     C14136  11.020   1.739   1.916 -0.3858 -0.1553  0.1069
  846MOL0     C14137  11.130   1.658   1.839  0.5607  0.1917  0.4426
  846MOL0     C14138  11.271   1.729   1.831  0.8125 -0.3274 -0.1529
  846MOL0     C14139  11.360   1.635   1.764  1.0713 -0.2396 -0.8202
  846MOL0     C14140  11.439   1.568   1.711  0.3768  0.6422  0.1507
  846MOL0     C14141  10.590   1.781   2.034  0.0042 -0.0352 -0.2861
  846MOL0     C14142  10.457   1.727   2.046  0.3613 -0.2326 -0.0587
  846MOL0     H14143  10.078   1.462   2.169 -0.5461 -0.7003  0.9746
  846MOL0     H14144   9.844   1.380   2.172 -0.5095  1.7702  0.7211
  846MOL0     H14145   9.535   1.626   1.968 -0.5864 -0.2349 -0.1189
  846MOL0     H14146   9.527   1.476   1.879  0.5243  0.1459 -0.6292
  846MOL0     H14147   9.327   1.574   2.020  1.4390  0.8194 -0.9229
  846MOL0     H14148   9.335   1.409   1.999 -3.7629  3.2776 -1.1777
  846MOL0     H14149   9.440   1.355   2.218 -1.2055 -0.8291  1.5025
  846MOL0     H14150   9.475   1.515   2.244  1.1654 -2.4682  2.1309
  846MOL0     H14151   9.203   1.553   2.251  0.1401  0.0884  1.3404
  846MOL0     H14152   9.202   1.381   2.217 -0.9762  1.5680 -1.7473
  846MOL0     H14153   9.288   1.320   2.437  0.9632  0.4631  3.2393
  846MOL0     H14154   9.344   1.478   2.458  0.8449 -1.1869 -1.5752
  846MOL0     H14155   9.043   1.393   2.448  1.1107 -0.2896  0.7601
  846MOL0     H14156   9.129   1.430   2.588  1.5086  1.6003  0.3463
  846MOL0     H14157   9.005   1.616   2.374 -0.1536  0.4620  0.0866
  846MOL0     H14158   8.952   1.598   2.530 -0.7157  3.7149 -0.8799
  846MOL0     H14159   9.209   1.725   2.433  0.0050  0.7046  0.4637
  846MOL0     H14160   9.191   1.703   2.611  1.4657 -0.3517  0.0932
  846MOL0     H14161   9.002   1.853   2.717  0.8200 -3.0496 -1.6745
  846MOL0     H14162   8.930   2.129   2.762  1.5837  2.7802 -1.3882
  846MOL0     H14163   8.883   2.200   2.608 -0.1761 -1.5122 -0.9770
  846MOL0     H14164   8.761   1.985   2.773 -0.5711  0.0200  1.2676
  846MOL0     H14165   8.686   2.027   2.616 -0.7725  0.5222  0.6814
  846MOL0     H14166   8.731   2.247   2.811 -0.9676 -2.0011  4.8958
  846MOL0     H14167   8.589   2.137   2.839 -0.1447  2.1871 -0.0466
  846MOL0     H14168   8.513   2.177   2.612  0.8649 -0.1047  0.5060
  846MOL0     H14169   8.648   2.269   2.584  0.9747 -0.2124  1.0850
  846MOL0     H14170   8.318   2.223   2.671  1.2351  0.6889  0.0367
  846MOL0     H14171   7.938   2.294   2.688  0.2036 -1.0769 -1.0188
  846MOL0     H14172   8.059   2.183   2.629  1.8237  0.2454  0.4287
  846MOL0     H14173   8.043   2.204   2.801  0.5395  2.0535  1.8420
  846MOL0     H14174   7.699   2.424   2.654  3.8866  1.0332  0.0932
  846MOL0     H14175   7.467   2.510   2.657  0.0728 -0.2738  0.1155
  846MOL0     H14176   7.404   2.864   2.915  0.6109 -0.3539 -1.1349
  846MOL0     H14177   7.239   2.864   2.862 -0.6267  0.1051 -0.8646
  846MOL0     H14178   7.344   2.706   3.093  1.4403  3.8236  1.3565
  846MOL0     H14179   7.209   2.825   3.080 -4.0839  0.1258 -5.0475
  846MOL0     H14180   7.144   2.581   3.092 -0.7961 -1.8415 -0.8802
  846MOL0     H14181   7.195   2.556   2.930  0.0654  0.4719 -0.3829
  846MOL0     H14182   6.989   2.760   3.047 -0.6732 -0.1676  0.0355
  846MOL0     H14183   7.024   2.759   2.875 -3.5718  1.1376  0.9735
  846MOL0     H14184   6.901   2.543   3.055  0.1252  1.6105  0.8957
  846MOL0     H14185   6.952   2.521   2.880  0.1689  1.6054 -1.3096
  846MOL0     H14186   6.780   2.710   2.822 -1.4465 -1.2674 -1.6770
  846MOL0     H14187   6.703   2.574   2.910 -2.1397  1.9636 -1.9563
  846MOL0     H14188   6.648   2.830   2.986  0.5153  0.2549 -0.0971
  846MOL0     H14189   6.812   2.837   3.041 -0.5939  0.8438  1.0683
  846MOL0     H14190   6.660   2.779   3.223  0.6178 -1.1733  0.1753
  846MOL0     H14191   6.710   2.613   3.170 -0.5407  0.5153 -0.9967
  846MOL0     H14192   7.560   2.753   2.993 -0.8530 -0.8734  0.7592
  846MOL0     H14193   7.791   2.663   2.996 -1.7823 -1.0414  1.3724
  846MOL0     H14194   8.210   2.707   2.747 -0.8467  0.5268  0.5745
  846MOL0     H14195   8.434   2.625   2.751  2.5596 -2.2813  2.8828
  846MOL0     H14196   9.714   1.697   1.917 -0.0825 -0.1578 -0.2391
  846MOL0     H14197   9.946   1.789   1.914  1.4797 -0.8006  0.1602
  846MOL0     H14198  10.442   1.542   1.770 -0.6212  1.1170 -1.2488
  846MOL0     H14199  10.652   1.655   1.722  1.7711  1.3706  1.6933
  846MOL0     H14200  10.835   1.630   1.835 -1.5890  1.2808 -4.9629
  846MOL0     H14201  10.888   1.762   1.735  0.9257 -1.0678  0.2775
  846MOL0     H14202  11.014   1.707   2.020  0.9276  0.3812  0.3608
  846MOL0     H14203  11.046   1.845   1.920 -0.2156 -0.1259 -1.1502
  846MOL0     H14204  11.094   1.668   1.736  0.4509 -2.2479  0.2010
  846MOL0     H14205  11.135   1.560   1.887 -1.6344  0.3362  1.1009
  846MOL0     H14206  11.302   1.756   1.933  1.1071  2.4386 -0.8947
  846MOL0     H14207  11.257   1.822   1.775  0.3799  1.3102  2.4877
  846MOL0     H14208  11.518   1.513   1.665  0.4232 -2.0061  3.0896
  846MOL0     H14209  10.635   1.837   2.115 -0.4059  2.1860 -1.5054
  846MOL0     H14210  10.414   1.768   2.137  0.9507  0.6165 -0.1456
  847MOL0     O14211   6.196   7.640   4.307  0.7693 -0.5902 -0.4908
  847MOL0     C14212   6.198   7.753   4.355 -0.0236  0.5835 -0.3365
  847MOL0     O14213   6.125   7.861   4.307  0.3128 -0.3005 -0.0859
  847MOL0     C14214   6.054   7.854   4.191 -0.1977 -0.2533 -0.2456
  847MOL0     C14215   6.109   7.900   4.072 -0.1155  1.3700 -0.1834
  847MOL0     C14216   6.030   7.921   3.961 -0.2855  0.7738  0.2201
  847MOL0     C14217   5.900   7.879   3.962  0.0828  0.8272 -0.3793
  847MOL0     O14218   5.815   7.907   3.853  0.4998  0.2233  0.0565
  847MOL0     C14219   5.871   7.945   3.727  0.4786 -0.2794 -0.4435
  847MOL0     C14220   5.771   7.913   3.625  0.1120  0.2950 -0.4369
  847MOL0     C14221   5.711   8.030   3.572 -0.0988 -0.6403 -0.8896
  847MOL0     C14222   5.783   8.127   3.475 -0.6376  1.0307  0.1482
  847MOL0     C14223   5.687   8.235   3.426 -0.1736  0.6602  0.0003
  847MOL0     C14224   5.748   8.348   3.340  0.3640  0.6984 -0.0884
  847MOL0     C14225   5.760   8.304   3.197  0.6760  0.3550 -0.7924
  847MOL0     C14226   5.788   8.436   3.119  0.0842  0.6502 -0.1436
  847MOL0     N14227   5.773   8.422   2.972 -0.5440 -1.1612  0.3997
  847MOL0     C14228   5.814   8.323   2.884 -0.2830 -0.1849 -0.6116
  847MOL0     C14229   5.813   8.375   2.762  0.3607 -0.5026  0.6333
  847MOL0     C14230   5.848   8.288   2.637  0.2639  0.2986 -0.0439
  847MOL0     C14231   5.983   8.231   2.618  0.2980 -0.4171 -0.3588
  847MOL0     C14232   6.111   8.308   2.670  1.0160  0.5043  0.0819
  847MOL0     C14233   6.230   8.215   2.662 -0.2314 -0.9012 -0.0998
  847MOL0     O14234   6.243   8.161   2.794 -0.0999  0.8101 -0.2210
  847MOL0     C14235   6.294   8.035   2.806 -0.5756 -0.6161 -1.4371
  847MOL0     C14236   6.396   7.986   2.724 -0.2003  0.0778 -0.5680
  847MOL0     C14237   6.464   7.871   2.771  1.0063  0.3106 -0.1449
  847MOL0     C14238   6.578   7.832   2.685  0.4754 -0.0942 -0.3469
  847MOL0     C14239   6.413   7.789   2.878  0.2506 -0.1141  0.0819
  847MOL0     C14240   6.487   7.670   2.929  0.0596 -0.6314 -0.5519
  847MOL0     O14241   6.431   7.627   3.042 -0.2818 -0.1859 -0.3247
  847MOL0     C14242   6.468   7.498   3.092 -0.2363 -0.4472 -0.1448
  847MOL0     C14243   6.372   7.398   3.104 -0.4063  0.9201 -1.2537
  847MOL0     C14244   6.406   7.278   3.165 -0.1876  0.0693  0.5452
  847MOL0     C14245   6.536   7.258   3.224  0.7304 -0.8235 -0.5746
  847MOL0     O14246   6.558   7.145   3.299  0.5108  0.0445 -0.1497
  847MOL0     C14247   6.695   7.094   3.317 -0.0403  0.3238  0.2823
  847MOL0     C14248   6.700   6.980   3.421 -0.0175 -0.3135  1.0306
  847MOL0     C14249   6.838   6.969   3.475  0.1052  0.1743 -0.0617
  847MOL0     C14250   6.868   6.841   3.559  0.1443  0.1896  1.2612
  847MOL0     C14251   6.992   6.861   3.643 -0.6277  0.6634  1.1285
  847MOL0     C14252   6.972   6.950   3.759  1.0782 -0.5362 -0.7731
  847MOL0     C14253   7.087   6.927   3.859 -0.4979 -0.0434  0.4058
  847MOL0     C14254   7.072   7.019   3.971 -0.3415  0.0070 -0.3525
  847MOL0    Cl14255   7.207   6.987   4.099 -0.5881 -0.0130 -0.1942
  847MOL0     C14256   6.627   7.363   3.211 -0.7104  0.1020  0.0163
  847MOL0     C14257   6.595   7.489   3.154 -0.7163  0.3204  0.4217
  847MOL0     O14258   6.591   7.628   2.883  0.2661 -0.3266  0.6336
  847MOL0     C14259   6.293   7.833   2.943 -0.4143  0.3639 -0.7859
  847MOL0     C14260   6.247   7.957   2.922 -0.0039 -1.0826  0.8003
  847MOL0     N14261   5.770   8.505   2.764  0.5825 -0.0797 -0.2351
  847MOL0     N14262   5.757   8.533   2.897 -0.2873  0.1582 -0.7911
  847MOL0     C14263   5.836   7.831   4.080  1.0988  0.2675  0.0498
  847MOL0     C14264   5.916   7.811   4.192  0.3235  0.3996 -0.2722
  847MOL0     C14265   6.301   7.789   4.450 -0.1399 -0.4900 -0.1788
  847MOL0     C14266   6.277   7.886   4.545 -0.2050 -0.1567 -0.0394
  847MOL0     C14267   6.376   7.928   4.630  0.1532  1.0878 -0.4001
  847MOL0     C14268   6.503   7.876   4.623 -1.1924  0.0251 -0.5933
  847MOL0     O14269   6.615   7.917   4.695  0.2124  0.2978 -0.0476
  847MOL0     C14270   6.599   7.954   4.828  0.4328  0.0222 -0.0692
  847MOL0     C14271   6.581   8.106   4.851  0.2710 -0.1923 -0.4384
  847MOL0     C14272   6.703   8.178   4.786  1.0868  0.2603 -0.1221
  847MOL0     C14273   6.718   8.324   4.825  0.2545  0.6362  0.2084
  847MOL0     C14274   6.820   8.389   4.746 -0.5548  0.7589  0.1042
  847MOL0     C14275   6.902   8.453   4.674 -0.4477  0.9385  0.3570
  847MOL0     C14276   6.524   7.762   4.541 -0.2013  0.5601  0.4190
  847MOL0     C14277   6.424   7.719   4.456  0.4156  0.7603 -0.5393
  847MOL0     H14278   6.215   7.922   4.070  0.0538  0.5589 -1.5594
  847MOL0     H14279   6.086   7.957   3.876  0.2031  0.8545  0.5722
  847MOL0     H14280   5.906   8.047   3.743  1.6955 -0.9453  1.4647
  847MOL0     H14281   5.954   7.879   3.698 -0.7853 -1.7802 -0.8105
  847MOL0     H14282   5.826   7.864   3.544  1.6507  0.2466  0.6034
  847MOL0     H14283   5.699   7.839   3.663  1.4146 -1.1924 -0.7657
  847MOL0     H14284   5.613   8.001   3.533 -1.2422  0.6968  0.8425
  847MOL0     H14285   5.679   8.096   3.653  2.3784  1.2558 -1.3266
  847MOL0     H14286   5.871   8.164   3.528  1.0559 -0.0341 -1.8149
  847MOL0     H14287   5.828   8.074   3.391 -1.6309  2.6378 -1.4681
  847MOL0     H14288   5.608   8.190   3.365 -0.4824 -3.2395  2.8639
  847MOL0     H14289   5.653   8.279   3.520 -0.6867  1.1325 -0.4012
  847MOL0     H14290   5.662   8.416   3.346 -2.3528 -1.8123 -4.4474
  847MOL0     H14291   5.839   8.393   3.381  1.6019 -1.1209 -0.7079
  847MOL0     H14292   5.845   8.235   3.183  0.3259  0.1523 -2.0490
  847MOL0     H14293   5.663   8.260   3.171  1.1441 -0.2477 -1.6110
  847MOL0     H14294   5.889   8.458   3.155  0.1113  0.5171 -0.1368
  847MOL0     H14295   5.725   8.517   3.158 -1.2274 -0.3734 -0.0621
  847MOL0     H14296   5.860   8.231   2.916 -0.6620 -0.1599  0.0198
  847MOL0     H14297   5.779   8.203   2.628  1.9015 -0.8369 -3.4805
  847MOL0     H14298   5.829   8.353   2.552 -1.8992 -1.4554 -1.0176
  847MOL0     H14299   5.993   8.199   2.514 -0.0373 -2.3429  0.1598
  847MOL0     H14300   5.961   8.134   2.665  0.6220  0.6766  2.1918
  847MOL0     H14301   6.094   8.338   2.773 -2.7297  1.1626 -0.6055
  847MOL0     H14302   6.123   8.406   2.621  2.2124 -0.1731 -1.0461
  847MOL0     H14303   6.319   8.270   2.631 -0.3714 -2.0290 -2.7431
  847MOL0     H14304   6.203   8.137   2.590 -0.0349 -1.1935  0.1433
  847MOL0     H14305   6.430   8.048   2.643 -2.1071  1.2152 -0.5665
  847MOL0     H14306   6.578   7.907   2.605 -2.0440  1.0528  0.5908
  847MOL0     H14307   6.676   7.831   2.733  0.4120 -0.9485 -0.2275
  847MOL0     H14308   6.564   7.734   2.640 -0.1422  0.0599 -0.5062
  847MOL0     H14309   6.274   7.418   3.061 -0.0857  0.9974 -1.9643
  847MOL0     H14310   6.329   7.203   3.157 -1.9008  1.9537 -2.0419
  847MOL0     H14311   6.730   7.051   3.223  1.1872 -0.3339  1.0215
  847MOL0     H14312   6.758   7.167   3.367 -0.3799  0.6562  0.2309
  847MOL0     H14313   6.626   6.991   3.501 -1.9409 -0.2856 -0.6745
  847MOL0     H14314   6.666   6.892   3.366 -1.4046 -0.3466  1.8872
  847MOL0     H14315   6.870   7.054   3.537 -2.3956  1.6535 -0.6738
  847MOL0     H14316   6.902   6.958   3.387 -3.0091 -2.9714 -2.2057
  847MOL0     H14317   6.788   6.804   3.625 -0.2324 -0.9402  0.1995
  847MOL0     H14318   6.887   6.759   3.489 -0.2727  1.6980 -0.6819
  847MOL0     H14319   7.080   6.890   3.585 -0.2772  1.1452  1.8852
  847MOL0     H14320   7.023   6.765   3.685  1.3503  0.7255 -0.0346
  847MOL0     H14321   6.973   7.051   3.717  1.0748  0.6810  1.9533
  847MOL0     H14322   6.873   6.928   3.799  0.8061  2.7535  0.6383
  847MOL0     H14323   7.190   6.946   3.827  0.4590 -1.1764  2.6018
  847MOL0     H14324   7.083   6.827   3.901  3.7052  1.3324  5.0942
  847MOL0     H14325   6.973   7.013   4.017  0.1448  3.6772  1.4810
  847MOL0     H14326   7.070   7.125   3.944 -0.4483 -0.4447 -2.2627
  847MOL0     H14327   6.716   7.353   3.273 -1.4310 -0.8378  0.9310
  847MOL0     H14328   6.665   7.572   3.146 -1.5773  0.8892 -1.7478
  847MOL0     H14329   6.247   7.794   3.034  1.4800  0.5683  0.3363
  847MOL0     H14330   6.163   7.992   2.982 -1.3841 -2.7723 -0.0693
  847MOL0     H14331   5.732   7.799   4.075  1.6832 -1.9263  0.8332
  847MOL0     H14332   5.870   7.768   4.280  2.9383 -2.7265 -0.2643
  847MOL0     H14333   6.175   7.922   4.537 -0.0411  0.0968 -1.0861
  847MOL0     H14334   6.363   8.009   4.701 -0.2540  2.1386 -1.6288
  847MOL0     H14335   6.509   7.904   4.866  1.5262 -1.1459  1.0670
  847MOL0     H14336   6.681   7.918   4.891  1.8176  1.0978 -1.1813
  847MOL0     H14337   6.572   8.129   4.957 -0.1928  0.0562 -0.5253
  847MOL0     H14338   6.486   8.139   4.807 -0.3293  1.9934  2.2455
  847MOL0     H14339   6.675   8.191   4.681  1.0951  1.9248  0.0551
  847MOL0     H14340   6.796   8.122   4.799  0.9449 -0.1228 -0.7344
  847MOL0     H14341   6.734   8.331   4.933 -2.5449 -1.6145  0.8994
  847MOL0     H14342   6.621   8.372   4.809  0.3812  0.4043 -1.4117
  847MOL0     H14343   6.951   8.509   4.597  1.4662 -2.2169 -0.8952
  847MOL0     H14344   6.609   7.697   4.559 -0.3489  0.6592  1.5816
  847MOL0     H14345   6.438   7.623   4.408 -1.7415 -1.4761  2.8288
  848MOL0     O14346   8.862   7.318   0.782 -0.0501  0.5088  0.8585
  848MOL0     C14347   8.779   7.406   0.804  0.9205 -0.2518  0.1103
  848MOL0     O14348   8.688   7.456   0.712 -0.3846  0.9747  0.5244
  848MOL0     C14349   8.660   7.369   0.613 -0.6183  1.1281  0.4086
  848MOL0     C14350   8.745   7.346   0.509 -0.3689 -0.9404 -0.8477
  848MOL0     C14351   8.705   7.260   0.409  0.0660  0.9008 -0.5114
  848MOL0     C14352   8.580   7.199   0.406  0.1262  0.3955  0.2556
  848MOL0     O14353   8.553   7.115   0.296 -0.0838 -0.3623 -0.3006
  848MOL0     C14354   8.416   7.112   0.261  1.0487  0.6482 -0.3934
  848MOL0     C14355   8.398   7.016   0.150 -0.2859  0.0205 -0.0724
  848MOL0     C14356   8.262   7.011   0.098 -0.0470 -0.0077  0.5208
  848MOL0     C14357   8.257   6.904  -0.011  0.5238  0.8392 -1.1416
  848MOL0     C14358   8.166   6.933  -0.136 -1.4525  0.1381  0.8158
  848MOL0     C14359   8.202   7.043  -0.228 -0.1226 -0.4505 -0.6053
  848MOL0     C14360   8.133   7.029  -0.363  0.6460 -0.2365 -0.9554
  848MOL0     C14361   8.096   7.165  -0.430  0.1095  0.0139 -0.5498
  848MOL0     N14362   8.214   7.249  -0.435 -0.1361  0.3247 -0.2351
  848MOL0     C14363   8.322   7.234  -0.523  1.0120 -0.6555 -0.4062
  848MOL0     C14364   8.418   7.302  -0.460 -0.2062 -0.1690  0.2371
  848MOL0     C14365   8.552   7.329  -0.523  0.2107  0.0866 -0.5784
  848MOL0     C14366   8.561   7.432  -0.635 -0.4390  0.8304 -0.4657
  848MOL0     C14367   8.574   7.571  -0.573  0.4217  0.7382  0.1434
  848MOL0     C14368   8.572   7.678  -0.685 -0.0909 -1.4281 -1.1453
  848MOL0     O14369   8.556   7.800  -0.605 -0.5637  0.0606  0.4181
  848MOL0     C14370   8.580   7.920  -0.678  0.1995  0.2922 -0.9796
  848MOL0     C14371   8.571   8.035  -0.602 -0.5144  0.0197  0.2587
  848MOL0     C14372   8.622   8.159  -0.650 -0.7182  0.0126 -0.1928
  848MOL0     C14373   8.622   8.278  -0.564 -0.2203  0.7343 -0.2367
  848MOL0     C14374   8.655   8.164  -0.788  0.0553 -0.3118 -0.4103
  848MOL0     C14375   8.712   8.282  -0.847 -0.5404 -0.0756  0.5171
  848MOL0     O14376   8.813   8.340  -0.772  0.0958  0.0319 -0.2452
  848MOL0     C14377   8.874   8.460  -0.804  0.3419  0.0933  0.2178
  848MOL0     C14378   8.873   8.526  -0.926  0.1083 -0.0990  0.0210
  848MOL0     C14379   8.929   8.663  -0.945 -0.6379  1.1035  0.3890
  848MOL0     C14380   8.973   8.738  -0.839  0.3644 -0.1291  0.1498
  848MOL0     O14381   9.022   8.861  -0.867  0.0077 -0.0396 -0.3943
  848MOL0     C14382   9.116   8.935  -0.790 -0.7039 -0.5775 -0.1297
  848MOL0     C14383   9.122   9.075  -0.849  0.2049  0.1592  1.3482
  848MOL0     C14384   8.998   9.161  -0.823  0.0181 -0.0776  1.1526
  848MOL0     C14385   9.021   9.297  -0.892 -0.7965 -0.0741  0.7022
  848MOL0     C14386   8.947   9.399  -0.819  0.4023  0.3986 -0.4425
  848MOL0     C14387   8.973   9.541  -0.876 -0.0810 -0.7563  0.4073
  848MOL0     C14388   8.875   9.641  -0.830  0.5585 -0.3840  0.0404
  848MOL0     C14389   8.943   9.764  -0.769 -0.4491  0.1993 -0.2374
  848MOL0    Cl14390   9.061   9.833  -0.881  0.0695  0.0796  0.0445
  848MOL0     C14391   8.973   8.673  -0.712 -0.6412  0.0774 -0.3122
  848MOL0     C14392   8.922   8.537  -0.695 -1.1246 -0.1089  0.0678
  848MOL0     O14393   8.646   8.335  -0.939  0.5907  0.3447  0.2802
  848MOL0     C14394   8.660   8.051  -0.862  0.6250  0.1635  1.0731
  848MOL0     C14395   8.629   7.929  -0.809 -0.3080 -0.9498 -0.1698
  848MOL0     N14396   8.381   7.350  -0.335 -0.9763 -0.2603  0.3036
  848MOL0     N14397   8.251   7.334  -0.333 -0.0758 -0.0619 -0.7067
  848MOL0     C14398   8.491   7.230   0.506  0.3849  0.2452 -0.5660
  848MOL0     C14399   8.533   7.313   0.609  0.9686 -0.0176 -0.0110
  848MOL0     C14400   8.772   7.458   0.941 -0.4645 -0.7244 -0.2531
  848MOL0     C14401   8.683   7.554   0.976  0.1647 -0.3145 -0.3124
  848MOL0     C14402   8.688   7.628   1.097 -1.0553 -0.7362  0.1134
  848MOL0     C14403   8.791   7.610   1.192 -0.2741 -0.2763  0.4826
  848MOL0     O14404   8.810   7.711   1.287 -0.1842  0.6437  0.2669
  848MOL0     C14405   8.917   7.680   1.378  1.1069  0.0770 -0.6052
  848MOL0     C14406   8.955   7.790   1.479 -0.3698 -1.0261  0.8120
  848MOL0     C14407   8.837   7.865   1.537  0.4889  0.5663  0.1193
  848MOL0     C14408   8.766   7.964   1.440  0.3368  0.0288 -0.5373
  848MOL0     C14409   8.857   8.079   1.396  0.0247 -0.0042 -0.0262
  848MOL0     C14410   8.931   8.166   1.360  0.0759 -1.1079  0.1926
  848MOL0     C14411   8.867   7.489   1.170 -0.4302  0.1980 -0.3227
  848MOL0     C14412   8.862   7.426   1.042 -0.0356  0.0352  0.2218
  848MOL0     H14413   8.846   7.386   0.502  0.4537 -2.7135  0.1342
  848MOL0     H14414   8.772   7.244   0.325 -1.1836  0.6161 -1.4718
  848MOL0     H14415   8.359   7.072   0.346 -2.8969  3.1768 -1.5676
  848MOL0     H14416   8.352   7.197   0.235  1.6341  1.5951  1.1428
  848MOL0     H14417   8.463   7.046   0.067 -0.8015  0.5553 -0.2795
  848MOL0     H14418   8.431   6.914   0.173 -0.5051  0.1478  0.8451
  848MOL0     H14419   8.187   7.001   0.176 -0.9900  1.1227 -0.2203
  848MOL0     H14420   8.253   7.109   0.050 -0.3760 -0.8369 -1.2040
  848MOL0     H14421   8.355   6.889  -0.057  0.6733  0.9246 -0.8490
  848MOL0     H14422   8.220   6.809   0.028 -3.3681  1.0328 -3.7290
  848MOL0     H14423   8.159   6.843  -0.197 -0.0480 -0.7464  1.9049
  848MOL0     H14424   8.059   6.949  -0.116 -1.6721  0.0981 -0.2566
  848MOL0     H14425   8.167   7.133  -0.177  0.0679 -1.3944  1.2898
  848MOL0     H14426   8.311   7.049  -0.232 -0.1374  1.0534  0.5359
  848MOL0     H14427   8.189   6.972  -0.438 -0.4947 -0.4552 -1.6548
  848MOL0     H14428   8.039   6.974  -0.356 -0.4186  1.5402  5.4900
  848MOL0     H14429   8.009   7.207  -0.378  0.1538 -0.6091  0.0473
  848MOL0     H14430   8.072   7.148  -0.535 -0.7841  1.9671 -0.7221
  848MOL0     H14431   8.317   7.193  -0.623 -2.7171  0.5654 -0.8544
  848MOL0     H14432   8.623   7.356  -0.444 -1.4400  3.1727  0.0015
  848MOL0     H14433   8.576   7.234  -0.570  0.7560 -0.2404  0.3364
  848MOL0     H14434   8.481   7.427  -0.710 -1.7135  2.7892  0.6614
  848MOL0     H14435   8.659   7.410  -0.677 -0.0374 -1.9175  1.6823
  848MOL0     H14436   8.669   7.565  -0.519  2.0288  1.0921 -2.4695
  848MOL0     H14437   8.495   7.583  -0.499 -0.6920 -0.8832 -0.7116
  848MOL0     H14438   8.491   7.662  -0.756 -1.0795  2.1141 -0.9931
  848MOL0     H14439   8.666   7.679  -0.740  0.8764  0.8215  0.4311
  848MOL0     H14440   8.540   8.020  -0.499  0.5164  1.3977  0.7949
  848MOL0     H14441   8.544   8.271  -0.487 -0.6447  1.0313 -0.6362
  848MOL0     H14442   8.726   8.281  -0.531  0.2440  1.1271 -1.6846
  848MOL0     H14443   8.596   8.366  -0.623 -0.8776 -0.4230 -1.7178
  848MOL0     H14444   8.831   8.478  -1.014 -0.6297 -0.1250  0.3771
  848MOL0     H14445   8.931   8.708  -1.044  0.4853  0.7553  0.2380
  848MOL0     H14446   9.090   8.936  -0.683 -0.7349  0.5425 -0.1406
  848MOL0     H14447   9.219   8.899  -0.789 -0.4333  0.1845 -0.2154
  848MOL0     H14448   9.212   9.130  -0.819 -0.0885  1.0255  0.6827
  848MOL0     H14449   9.138   9.064  -0.957  1.2100 -0.6435  1.5599
  848MOL0     H14450   8.997   9.172  -0.715 -2.2113  0.4734  1.1319
  848MOL0     H14451   8.918   9.110  -0.879  2.7536 -1.9061 -1.4370
  848MOL0     H14452   9.126   9.325  -0.905 -1.3886  1.2490 -1.9617
  848MOL0     H14453   8.995   9.283  -0.997  2.5769  1.8626 -0.5638
  848MOL0     H14454   8.967   9.401  -0.712  4.2769  1.9561 -1.0165
  848MOL0     H14455   8.841   9.374  -0.834 -0.2762  2.0581  1.2546
  848MOL0     H14456   9.075   9.578  -0.858 -1.0698  2.7941 -0.5171
  848MOL0     H14457   8.971   9.537  -0.985  0.5013  2.8177  0.1450
  848MOL0     H14458   8.810   9.594  -0.756 -0.4686 -2.3544 -2.0003
  848MOL0     H14459   8.817   9.671  -0.918  2.9122 -0.0174 -1.4918
  848MOL0     H14460   8.984   9.732  -0.673  1.8894  0.3934 -1.0914
  848MOL0     H14461   8.860   9.833  -0.749  0.3773  1.0139  0.4707
  848MOL0     H14462   9.014   8.733  -0.631 -0.6448 -1.1640  0.6485
  848MOL0     H14463   8.926   8.481  -0.601 -1.8966  1.2540  0.9422
  848MOL0     H14464   8.702   8.066  -0.961  1.0603 -0.1098  1.2130
  848MOL0     H14465   8.671   7.848  -0.868  1.7517  0.2470 -0.4663
  848MOL0     H14466   8.386   7.203   0.518  1.2269 -3.5307 -0.4238
  848MOL0     H14467   8.458   7.339   0.683  0.4788  1.3699 -0.9688
  848MOL0     H14468   8.609   7.594   0.908  1.5954  0.2882 -1.5512
  848MOL0     H14469   8.621   7.714   1.100  0.6152  0.6256  0.0843
  848MOL0     H14470   8.881   7.601   1.445  1.0329 -0.8087 -1.6639
  848MOL0     H14471   9.011   7.648   1.332  1.9394  0.9492  0.4129
  848MOL0     H14472   9.023   7.860   1.428  0.3654 -0.2162  2.7931
  848MOL0     H14473   9.016   7.737   1.553 -1.9543 -1.4350  1.8696
  848MOL0     H14474   8.891   7.915   1.617  4.0104 -0.2117 -1.5570
  848MOL0     H14475   8.767   7.793   1.580  0.4727  1.6882  2.0458
  848MOL0     H14476   8.684   8.012   1.493 -0.2636 -0.3958 -1.0636
  848MOL0     H14477   8.733   7.924   1.343  1.1982 -0.2445 -0.7265
  848MOL0     H14478   8.980   8.258   1.337  0.0659 -0.5585  2.1649
  848MOL0     H14479   8.948   7.461   1.236  0.6155  0.8227 -1.2794
  848MOL0     H14480   8.939   7.354   1.020  1.0075  0.6333  1.7952
  849MOL0     O14481   5.613   6.364   9.675  0.5004 -0.2798 -0.9013
  849MOL0     C14482   5.544   6.403   9.773  1.1274 -0.3444  0.4980
  849MOL0     O14483   5.520   6.326   9.888  0.8032  0.7555 -0.2976
  849MOL0     C14484   5.565   6.189   9.891 -1.1599  0.2588  0.4861
  849MOL0     C14485   5.559   6.101   9.775 -0.4791 -0.3292 -0.0318
  849MOL0     C14486   5.594   5.960   9.799  0.5419 -0.6991  0.3590
  849MOL0     C14487   5.638   5.913   9.924 -0.4235 -0.5788  0.7945
  849MOL0     O14488   5.667   5.779   9.934  0.5115  1.0028 -0.0588
  849MOL0     C14489   5.789   5.733   9.992  0.3826  0.6740  0.6162
  849MOL0     C14490   5.788   5.589  10.037  0.7346  1.2175 -0.3210
  849MOL0     C14491   5.696   5.580  10.154 -0.1667 -0.4428  0.6403
  849MOL0     C14492   5.774   5.609  10.290  0.1435  0.2446  0.8470
  849MOL0     C14493   5.670   5.639  10.400 -0.4480 -0.0330 -0.7584
  849MOL0     C14494   5.731   5.637  10.543 -0.3655  0.6164  0.0852
  849MOL0     C14495   5.631   5.661  10.661  0.0535 -0.7102 -0.0958
  849MOL0     C14496   5.546   5.541  10.701  0.1970  0.3524  0.1177
  849MOL0     N14497   5.618   5.418  10.737 -0.0819  0.0900  0.8281
  849MOL0     C14498   5.686   5.405  10.854  0.1061 -0.2775 -0.2963
  849MOL0     C14499   5.710   5.274  10.864 -0.8543  0.5473 -0.2975
  849MOL0     C14500   5.775   5.218  10.987  0.7849  0.1828 -0.2548
  849MOL0     C14501   5.685   5.191  11.108  0.1077 -0.7267 -0.6367
  849MOL0     C14502   5.766   5.107  11.209 -0.1133  0.2372 -0.3233
  849MOL0     C14503   5.691   5.111  11.344 -0.2274  1.1295 -0.1180
  849MOL0     O14504   5.765   5.035  11.445 -0.4004 -0.0756 -0.2187
  849MOL0     C14505   5.697   4.960  11.531  0.7531 -0.0970  0.4299
  849MOL0     C14506   5.774   4.879  11.609 -1.0419 -0.4737  1.0038
  849MOL0     C14507   5.727   4.791  11.704 -0.0730 -0.5039 -0.1603
  849MOL0     C14508   5.838   4.721  11.791 -0.0948 -0.3330  0.3982
  849MOL0     C14509   5.590   4.793  11.733  1.5195  0.1849  0.7300
  849MOL0     C14510   5.535   4.720  11.847 -1.0252  0.5087 -0.3833
  849MOL0     O14511   5.415   4.757  11.886 -1.0268  0.2766  0.5763
  849MOL0     C14512   5.350   4.687  11.980  0.9195  0.1271  0.1554
  849MOL0     C14513   5.271   4.576  11.955 -0.4993  0.6482  0.8590
  849MOL0     C14514   5.191   4.519  12.052  0.7060  0.0389  0.1574
  849MOL0     C14515   5.202   4.560  12.184  0.3929  0.3532 -0.1342
  849MOL0     O14516   5.133   4.504  12.290  0.8041 -0.0140 -0.2616
  849MOL0     C14517   5.126   4.358  12.285  0.4493 -0.2755 -0.3545
  849MOL0     C14518   5.184   4.320  12.420 -0.4952  0.2669  0.4362
  849MOL0     C14519   5.175   4.170  12.442  0.0685  0.4293 -0.9480
  849MOL0     C14520   5.228   4.131  12.580  0.2891 -0.0344 -0.7769
  849MOL0     C14521   5.119   4.058  12.660  0.3723 -0.2405  0.1112
  849MOL0     C14522   5.003   4.132  12.726  0.6737  0.6475 -0.1717
  849MOL0     C14523   5.052   4.241  12.820  0.3311 -0.2946  0.1903
  849MOL0     C14524   4.944   4.279  12.914 -0.3799  0.7636 -0.1360
  849MOL0    Cl14525   4.830   4.415  12.847  0.0282 -0.1640 -0.2259
  849MOL0     C14526   5.286   4.662  12.212  0.4277  0.4266 -0.1605
  849MOL0     C14527   5.365   4.723  12.115  0.6171 -0.1546  0.6700
  849MOL0     O14528   5.584   4.610  11.879  0.5105 -0.7312 -0.2152
  849MOL0     C14529   5.503   4.857  11.637 -0.1318 -0.0213  1.2895
  849MOL0     C14530   5.556   4.948  11.542 -0.2492  0.1088 -0.5962
  849MOL0     N14531   5.662   5.207  10.747  0.5491  0.2635 -0.5559
  849MOL0     N14532   5.617   5.298  10.663  0.2831 -0.1130 -0.7044
  849MOL0     C14533   5.648   6.004  10.032 -0.1614  0.2067 -0.2019
  849MOL0     C14534   5.611   6.139  10.015 -0.5523 -0.3589 -0.3277
  849MOL0     C14535   5.470   6.529   9.769 -0.0978 -0.9448 -0.2414
  849MOL0     C14536   5.400   6.570   9.884  0.6439 -0.6947 -0.0119
  849MOL0     C14537   5.316   6.681   9.882  1.1018  0.8885 -0.6195
  849MOL0     C14538   5.303   6.760   9.769  0.8865  0.6204  0.0893
  849MOL0     O14539   5.223   6.874   9.777  0.4124  0.1452  0.0068
  849MOL0     C14540   5.210   6.962   9.670 -0.1219  0.3637  0.6017
  849MOL0     C14541   5.072   6.898   9.616 -0.2250 -0.6451 -0.0437
  849MOL0     C14542   5.004   6.964   9.494 -0.2050  0.4470 -0.4769
  849MOL0     C14543   4.872   6.885   9.456 -1.6332  0.3019  0.6088
  849MOL0     C14544   4.877   6.740   9.466  1.0265  1.4922 -0.7616
  849MOL0     C14545   4.876   6.619   9.483 -0.2635  0.0357 -0.3188
  849MOL0     C14546   5.376   6.719   9.651 -0.8018 -0.3254 -0.3449
  849MOL0     C14547   5.456   6.603   9.649 -0.0425  0.2819  0.6781
  849MOL0     H14548   5.522   6.141   9.681 -2.7801 -0.3462  0.8049
  849MOL0     H14549   5.587   5.887   9.719 -1.3138 -1.3666  1.0811
  849MOL0     H14550   5.866   5.747   9.917  0.1076  1.0673  0.4022
  849MOL0     H14551   5.804   5.799  10.079  0.9041  1.0042  0.2814
  849MOL0     H14552   5.757   5.516   9.962 -0.1519  0.2741  0.9156
  849MOL0     H14553   5.886   5.560  10.074  0.7667  0.0300 -1.2888
  849MOL0     H14554   5.612   5.649  10.140 -3.2214 -3.7456  1.2605
  849MOL0     H14555   5.650   5.481  10.157  1.5628 -1.3097 -0.0342
  849MOL0     H14556   5.842   5.529  10.321  0.7131  1.0586  1.7702
  849MOL0     H14557   5.840   5.695  10.278  2.6620 -1.7559 -0.7918
  849MOL0     H14558   5.629   5.736  10.370 -1.0795  0.0202  0.2003
  849MOL0     H14559   5.590   5.567  10.382  0.1122 -0.7140 -0.5629
  849MOL0     H14560   5.788   5.546  10.567  1.7934  1.5391 -1.2914
  849MOL0     H14561   5.799   5.718  10.568 -0.1153  0.6018 -0.5228
  849MOL0     H14562   5.676   5.700  10.752 -0.9213  0.2589 -0.0009
  849MOL0     H14563   5.568   5.746  10.632  0.3784  0.2062  1.8080
  849MOL0     H14564   5.483   5.519  10.614  2.3407 -0.5560 -1.2779
  849MOL0     H14565   5.487   5.589  10.780  1.7523  1.0137  0.9113
  849MOL0     H14566   5.710   5.486  10.922 -3.3760  0.7837 -0.1182
  849MOL0     H14567   5.833   5.131  10.955  2.2894  0.3923  1.7035
  849MOL0     H14568   5.853   5.284  11.027  0.8100  0.9410 -1.5005
  849MOL0     H14569   5.593   5.134  11.093 -2.2993  1.4021  3.8982
  849MOL0     H14570   5.656   5.287  11.150 -2.0769  0.1429 -3.7882
  849MOL0     H14571   5.863   5.157  11.218 -1.9180  4.2368 -1.2883
  849MOL0     H14572   5.785   5.003  11.180 -0.3042  0.0866  0.0753
  849MOL0     H14573   5.597   5.062  11.321 -1.1487  2.9055 -0.3141
  849MOL0     H14574   5.689   5.217  11.371 -0.7875  0.6750  1.8075
  849MOL0     H14575   5.878   4.907  11.608 -1.0406  0.4405 -4.3441
  849MOL0     H14576   5.803   4.740  11.893 -1.1913  2.5748 -0.4385
  849MOL0     H14577   5.831   4.614  11.771  0.2698 -0.0317 -1.5608
  849MOL0     H14578   5.939   4.736  11.752  0.4161 -1.7303  1.0997
  849MOL0     H14579   5.258   4.562  11.848  0.6597  5.0012 -0.0288
  849MOL0     H14580   5.130   4.430  12.039 -0.7139  1.1827 -1.4772
  849MOL0     H14581   5.021   4.333  12.273  0.2632 -1.2420  2.4298
  849MOL0     H14582   5.187   4.317  12.204 -0.7359 -2.5533 -0.1684
  849MOL0     H14583   5.289   4.350  12.420 -0.8341  1.5588  1.6275
  849MOL0     H14584   5.139   4.371  12.506 -0.0487 -1.3508  1.6859
  849MOL0     H14585   5.233   4.122  12.363 -1.0090 -1.2296 -0.7714
  849MOL0     H14586   5.070   4.144  12.426  0.6524 -2.3486 -0.7920
  849MOL0     H14587   5.309   4.062  12.556 -0.7118  0.2520 -6.3333
  849MOL0     H14588   5.262   4.214  12.643  1.3161 -0.1307 -1.1911
  849MOL0     H14589   5.168   4.002  12.740 -0.0072 -1.2295 -0.3296
  849MOL0     H14590   5.073   3.988  12.589 -0.3156  2.9600 -2.8876
  849MOL0     H14591   4.938   4.178  12.650  1.0695  0.7773 -0.4368
  849MOL0     H14592   4.943   4.056  12.777 -2.2671  1.8199 -1.6050
  849MOL0     H14593   5.090   4.328  12.766 -0.4083  0.6075  1.0805
  849MOL0     H14594   5.141   4.216  12.879  1.6869  2.0182 -0.7483
  849MOL0     H14595   4.981   4.328  13.005 -2.1528 -0.8059  1.5194
  849MOL0     H14596   4.876   4.196  12.938 -2.3644  1.9242 -1.4610
  849MOL0     H14597   5.300   4.691  12.316 -4.1197 -0.9223  1.0700
  849MOL0     H14598   5.438   4.798  12.145  1.1747 -0.7529  0.8258
  849MOL0     H14599   5.396   4.838  11.627  0.0901 -0.5734 -0.1946
  849MOL0     H14600   5.486   5.006  11.484  1.6087  2.1907 -0.8979
  849MOL0     H14601   5.685   5.958  10.123 -0.4457 -1.4720 -0.8852
  849MOL0     H14602   5.626   6.212  10.095 -1.2088 -0.1457 -0.3988
  849MOL0     H14603   5.408   6.524   9.982  1.3979 -0.5255  0.0169
  849MOL0     H14604   5.262   6.705   9.973 -1.1803 -1.2477 -1.3329
  849MOL0     H14605   5.201   7.066   9.700 -2.4836  0.3837  0.0117
  849MOL0     H14606   5.283   6.959   9.588  0.4371  1.7238  1.0319
  849MOL0     H14607   4.995   6.920   9.690 -1.7069  0.3564 -1.8060
  849MOL0     H14608   5.097   6.792   9.610  1.0536 -0.3289 -0.8162
  849MOL0     H14609   5.069   6.949   9.407 -0.6215  0.1815 -0.7487
  849MOL0     H14610   4.978   7.069   9.509  1.6479  0.5779  3.0252
  849MOL0     H14611   4.832   6.915   9.359 -1.3392 -0.9923  0.0649
  849MOL0     H14612   4.787   6.913   9.519 -1.8692 -1.2357  1.0176
  849MOL0     H14613   4.883   6.513   9.479 -1.5851 -0.0373 -2.4832
  849MOL0     H14614   5.362   6.768   9.555 -1.2024  0.9114  0.3315
  849MOL0     H14615   5.491   6.557   9.557  0.2522  2.5208 -0.3821
  850MOL0     O14616   5.785   0.145   4.504 -0.1610 -0.3487  0.7710
  850MOL0     C14617   5.818   0.173   4.615 -0.2318  0.0638  0.0281
  850MOL0     O14618   5.741   0.234   4.710  0.5137  0.4296  0.0444
  850MOL0     C14619   5.612   0.256   4.683  0.7297 -0.4184  0.3306
  850MOL0     C14620   5.503   0.203   4.758 -0.3806 -0.7066 -0.4061
  850MOL0     C14621   5.370   0.262   4.738  0.1358  0.3555  0.1533
  850MOL0     C14622   5.347   0.353   4.632  0.2500 -0.2553 -0.4066
  850MOL0     O14623   5.233   0.420   4.598 -0.1309 -0.1074 -0.2145
  850MOL0     C14624   5.110   0.340   4.597  0.2248  0.3009 -0.6250
  850MOL0     C14625   4.996   0.418   4.541 -0.1542  0.3282  0.3062
  850MOL0     C14626   4.970   0.547   4.625  0.3751 -0.4915  0.5890
  850MOL0     C14627   4.909   0.510   4.762  0.5031 -1.0375 -0.6325
  850MOL0     C14628   4.864   0.634   4.836  0.1398  0.4571  0.3467
  850MOL0     C14629   4.772   0.580   4.944 -0.6898 -0.5297 -0.1824
  850MOL0     C14630   4.732   0.695   5.052 -0.3241  0.7036 -0.0732
  850MOL0     C14631   4.610   0.651   5.144  0.0482 -0.0442  0.3023
  850MOL0     N14632   4.575   0.732   5.254  0.4105  0.7876 -0.2513
  850MOL0     C14633   4.660   0.789   5.350  0.3546 -0.0029  0.1463
  850MOL0     C14634   4.568   0.845   5.429  0.0500  0.6783  0.2272
  850MOL0     C14635   4.601   0.926   5.551  0.5779  1.0153 -0.9970
  850MOL0     C14636   4.553   1.070   5.545 -0.2523  0.6069  0.9567
  850MOL0     C14637   4.561   1.149   5.678  0.2049  0.8876 -1.1281
  850MOL0     C14638   4.578   1.291   5.666  0.7550 -0.2975  1.0711
  850MOL0     O14639   4.488   1.328   5.564  0.7929 -0.2788  0.1795
  850MOL0     C14640   4.417   1.447   5.593 -0.2730 -0.3372  0.2242
  850MOL0     C14641   4.279   1.449   5.550 -0.4998 -0.5471 -0.5401
  850MOL0     C14642   4.209   1.568   5.551  0.4042  0.2971  0.4552
  850MOL0     C14643   4.078   1.567   5.472  0.4994  0.1763  0.2527
  850MOL0     C14644   4.266   1.682   5.609 -0.0354  0.9077 -0.8640
  850MOL0     C14645   4.189   1.803   5.620  0.0628 -0.4448 -0.2901
  850MOL0     O14646   4.266   1.915   5.585  0.5755 -0.4321 -0.2127
  850MOL0     C14647   4.200   2.033   5.574  0.6600  0.1750 -0.4491
  850MOL0     C14648   4.079   2.060   5.503 -0.5834  0.4136 -0.9127
  850MOL0     C14649   4.030   2.189   5.490  0.7152  0.5067 -0.1381
  850MOL0     C14650   4.082   2.292   5.579  0.4087 -0.3412  0.6424
  850MOL0     O14651   4.015   2.412   5.565 -0.0068  0.3275  0.1771
  850MOL0     C14652   4.029   2.508   5.664 -0.0413  0.1849  0.5757
  850MOL0     C14653   4.034   2.651   5.607  0.4457 -0.7797  0.4822
  850MOL0     C14654   3.920   2.680   5.500 -0.0400  0.2242  0.1834
  850MOL0     C14655   3.906   2.821   5.484 -0.6439  0.0563  0.7784
  850MOL0     C14656   3.762   2.861   5.452  0.6618 -0.7936  0.4886
  850MOL0     C14657   3.744   3.009   5.459 -0.0070 -0.1167 -0.2821
  850MOL0     C14658   3.586   3.047   5.440  0.6959  0.0710  0.1909
  850MOL0     C14659   3.584   3.197   5.413  0.5610 -0.2173 -0.3833
  850MOL0    Cl14660   3.412   3.258   5.387 -0.3730  0.7749  0.0144
  850MOL0     C14661   4.204   2.270   5.646  0.0741  0.6586 -0.3084
  850MOL0     C14662   4.257   2.145   5.650  0.1221 -0.2197  0.0279
  850MOL0     O14663   4.080   1.800   5.678 -0.3606  0.2291  0.4554
  850MOL0     C14664   4.402   1.675   5.655  0.6360 -0.0319 -0.4744
  850MOL0     C14665   4.475   1.559   5.650 -0.8456  0.1743 -0.0681
  850MOL0     N14666   4.435   0.812   5.392  0.5383  0.4020 -0.4880
  850MOL0     N14667   4.446   0.737   5.293  0.2512  0.5582 -0.2445
  850MOL0     C14668   5.456   0.394   4.552  1.1490  0.5116 -0.3663
  850MOL0     C14669   5.584   0.354   4.584 -0.4887 -0.4600  0.3659
  850MOL0     C14670   5.953   0.134   4.666  0.3700 -0.9362  0.7552
  850MOL0     C14671   5.996   0.134   4.800 -0.5835 -0.2725  0.7160
  850MOL0     C14672   6.109   0.078   4.835 -0.5703  0.5423 -0.7842
  850MOL0     C14673   6.197   0.026   4.742 -0.5148 -0.3244  0.0728
  850MOL0     O14674   6.325  -0.025   4.761  0.0876 -0.9659 -0.1312
  850MOL0     C14675   6.392  -0.003   4.891  0.1173 -0.1623  0.3542
  850MOL0     C14676   6.541  -0.042   4.878 -0.3760  0.0832 -0.6682
  850MOL0     C14677   6.553  -0.196   4.865  0.3635  0.0905 -0.2540
  850MOL0     C14678   6.601  -0.249   4.724 -0.6803 -0.2986  0.2364
  850MOL0     C14679   6.732  -0.200   4.677 -0.0759 -0.3105 -0.2306
  850MOL0     C14680   6.843  -0.170   4.646  0.4571 -0.0506  1.5085
  850MOL0     C14681   6.162   0.032   4.604 -0.2947  0.3689 -0.2684
  850MOL0     C14682   6.052   0.096   4.560  1.4084 -0.3459 -0.5880
  850MOL0     H14683   5.520   0.145   4.848 -0.8574  0.5734  0.5401
  850MOL0     H14684   5.283   0.230   4.794 -0.6132 -1.8495 -2.1075
  850MOL0     H14685   5.118   0.239   4.555 -2.0447  0.0376 -0.5284
  850MOL0     H14686   5.087   0.317   4.702  2.7429  2.8317  0.6292
  850MOL0     H14687   5.021   0.462   4.444 -1.5823  0.9943  0.2077
  850MOL0     H14688   4.909   0.355   4.523  0.2450  0.1474 -1.0866
  850MOL0     H14689   5.055   0.614   4.640 -0.9059  0.8559  2.1636
  850MOL0     H14690   4.911   0.608   4.556  0.9838 -1.6070 -1.0004
  850MOL0     H14691   4.827   0.438   4.745  0.5307 -1.5320  1.1322
  850MOL0     H14692   4.989   0.459   4.816  0.6819 -0.3282 -0.2152
  850MOL0     H14693   4.953   0.668   4.889 -1.3411  0.5117  2.9852
  850MOL0     H14694   4.813   0.715   4.783 -2.1839 -0.0768  1.5962
  850MOL0     H14695   4.676   0.546   4.903 -1.0147 -1.2688  1.1449
  850MOL0     H14696   4.818   0.494   4.993  4.5253  2.2331  0.3740
  850MOL0     H14697   4.819   0.717   5.114 -0.0822  3.8261 -1.3464
  850MOL0     H14698   4.703   0.792   5.010 -3.6806 -0.1237 -0.0093
  850MOL0     H14699   4.636   0.562   5.202 -1.4969  0.6371  2.1691
  850MOL0     H14700   4.519   0.630   5.087 -0.0281  0.6098  0.1806
  850MOL0     H14701   4.766   0.782   5.368  0.1605  1.2669  2.2052
  850MOL0     H14702   4.549   0.864   5.625 -0.7375  0.0589 -2.6385
  850MOL0     H14703   4.710   0.927   5.559  0.4900  0.9848  0.5083
  850MOL0     H14704   4.450   1.077   5.510 -0.1576  0.3467  0.6234
  850MOL0     H14705   4.617   1.121   5.472  2.4243 -3.4328  0.1365
  850MOL0     H14706   4.643   1.110   5.739  0.1379 -1.0336 -2.1892
  850MOL0     H14707   4.479   1.119   5.744  2.6018  1.0580  2.2062
  850MOL0     H14708   4.676   1.334   5.641 -0.3210  0.6914 -1.9061
  850MOL0     H14709   4.538   1.321   5.764 -0.7497 -1.5865  0.8850
  850MOL0     H14710   4.237   1.357   5.508 -1.7854  0.1602 -0.8730
  850MOL0     H14711   4.001   1.518   5.532 -0.0186  1.5516  0.7519
  850MOL0     H14712   4.046   1.665   5.435 -1.6110 -0.2157  0.9065
  850MOL0     H14713   4.096   1.512   5.379  2.0071  4.2511 -2.1081
  850MOL0     H14714   4.038   1.970   5.458 -2.1504  0.9899 -0.7124
  850MOL0     H14715   3.943   2.218   5.431  2.2418  3.3064 -1.1969
  850MOL0     H14716   3.941   2.509   5.728 -0.4916 -1.2548  0.0226
  850MOL0     H14717   4.115   2.486   5.728  0.4127 -1.8452 -0.6302
  850MOL0     H14718   4.031   2.727   5.687  2.2132 -1.5229  1.3132
  850MOL0     H14719   4.134   2.667   5.565  0.7731 -3.7536 -0.0335
  850MOL0     H14720   3.830   2.635   5.546  0.6097 -0.8535  0.4451
  850MOL0     H14721   3.943   2.642   5.400 -2.3831  0.9974 -0.7287
  850MOL0     H14722   3.944   2.880   5.568  2.0160  0.3458 -0.5294
  850MOL0     H14723   3.966   2.853   5.399 -2.4618 -3.5666 -2.1639
  850MOL0     H14724   3.686   2.805   5.508  0.3293 -0.6028  0.2354
  850MOL0     H14725   3.737   2.832   5.349 -3.7978  1.8141  0.6016
  850MOL0     H14726   3.767   3.036   5.563  0.3093 -0.7673 -0.1748
  850MOL0     H14727   3.801   3.069   5.388  3.4494  0.0571  2.3740
  850MOL0     H14728   3.513   3.016   5.516  1.3281 -1.6847  0.1469
  850MOL0     H14729   3.540   2.989   5.359 -2.2027  0.1065  1.6868
  850MOL0     H14730   3.628   3.206   5.314 -0.8899  0.0493 -1.0391
  850MOL0     H14731   3.647   3.256   5.480  1.9375  0.0851 -1.8778
  850MOL0     H14732   4.269   2.345   5.689  0.9969 -0.5877  0.5555
  850MOL0     H14733   4.349   2.137   5.707  0.6192  3.4105 -0.0580
  850MOL0     H14734   4.447   1.759   5.707 -2.7076 -0.2933  3.3467
  850MOL0     H14735   4.574   1.572   5.692 -0.4364  0.9972 -1.2308
  850MOL0     H14736   5.444   0.470   4.475  1.3982  0.6329 -0.2869
  850MOL0     H14737   5.672   0.399   4.540  0.3354 -0.1843  2.2140
  850MOL0     H14738   5.934   0.160   4.885 -0.9931 -1.6144  0.8581
  850MOL0     H14739   6.134   0.062   4.940  1.0673  2.4901 -0.8275
  850MOL0     H14740   6.367   0.095   4.931 -2.2728 -0.9470  0.9082
  850MOL0     H14741   6.369  -0.082   4.963  0.5255 -0.2404  0.4032
  850MOL0     H14742   6.599  -0.002   4.962 -0.6512 -2.2738  0.7643
  850MOL0     H14743   6.585   0.005   4.790  0.5038  0.7357  0.1083
  850MOL0     H14744   6.462  -0.249   4.891  0.7043 -0.3763  0.0108
  850MOL0     H14745   6.612  -0.221   4.954  1.3702  3.1017  0.0384
  850MOL0     H14746   6.532  -0.224   4.643  0.1221  0.5335 -0.2159
  850MOL0     H14747   6.605  -0.359   4.724 -0.2997 -0.2976 -0.4841
  850MOL0     H14748   6.934  -0.133   4.602 -0.3948 -2.3968 -2.8005
  850MOL0     H14749   6.235  -0.013   4.537 -1.4141 -0.0850 -1.2244
  850MOL0     H14750   6.041   0.099   4.452  1.0805 -2.3659 -0.6571
  851MOL0     O14751   6.984   3.586  11.149 -0.0252 -0.2418 -0.7144
  851MOL0     C14752   6.933   3.636  11.249 -0.3449  0.6736 -0.3294
  851MOL0     O14753   6.818   3.594  11.317  0.0893 -0.4988 -0.7315
  851MOL0     C14754   6.747   3.488  11.269 -0.5611  0.7066  0.3929
  851MOL0     C14755   6.788   3.351  11.273  0.3062 -0.2111 -0.2804
  851MOL0     C14756   6.708   3.246  11.231  0.0074 -0.2262 -0.0880
  851MOL0     C14757   6.573   3.266  11.200 -0.3275  0.7422 -0.0875
  851MOL0     O14758   6.488   3.174  11.143 -0.0062 -0.7541  0.8293
  851MOL0     C14759   6.526   3.037  11.140 -0.4610  0.0488  0.1000
  851MOL0     C14760   6.414   2.954  11.079 -0.3437 -0.4647  0.2356
  851MOL0     C14761   6.289   2.919  11.173  0.4419 -0.6940 -0.7962
  851MOL0     C14762   6.177   2.849  11.092  0.2789 -1.3068 -0.0395
  851MOL0     C14763   6.077   2.786  11.197 -0.2759 -0.4549  0.3038
  851MOL0     C14764   5.952   2.718  11.143 -0.5557 -0.5035  0.0405
  851MOL0     C14765   5.906   2.622  11.250 -0.7037  0.2031  0.2729
  851MOL0     C14766   5.908   2.673  11.394  0.1684 -0.0599 -0.0039
  851MOL0     N14767   5.784   2.743  11.416 -0.1401  0.2373 -0.5387
  851MOL0     C14768   5.697   2.721  11.513  0.7321  0.1104  0.1710
  851MOL0     C14769   5.595   2.806  11.512 -0.5803 -0.7604 -0.8151
  851MOL0     C14770   5.469   2.793  11.604 -0.6548 -0.1003  0.8683
  851MOL0     C14771   5.363   2.903  11.563  0.1726 -0.2805 -0.7273
  851MOL0     C14772   5.228   2.900  11.645  0.0871  0.3958 -0.0465
  851MOL0     C14773   5.237   2.972  11.773 -0.5302  0.1549 -0.4744
  851MOL0     O14774   5.263   3.110  11.761  0.0068  1.0437  0.2188
  851MOL0     C14775   5.154   3.196  11.780  0.3684 -0.4096  0.3306
  851MOL0     C14776   5.185   3.336  11.801  0.4852 -0.8657  0.3554
  851MOL0     C14777   5.090   3.435  11.799 -0.3163 -0.2095  0.0488
  851MOL0     C14778   5.148   3.576  11.798 -0.0492 -0.6798  0.4135
  851MOL0     C14779   4.951   3.398  11.811  0.2861 -1.3243  0.0683
  851MOL0     C14780   4.850   3.508  11.825  0.0465 -0.0563 -0.0539
  851MOL0     O14781   4.746   3.505  11.737  0.2533  0.4364  0.3589
  851MOL0     C14782   4.637   3.580  11.771  0.5796 -0.2493 -0.2282
  851MOL0     C14783   4.592   3.682  11.687 -0.1330  1.1443 -1.0293
  851MOL0     C14784   4.469   3.751  11.714  0.1874 -0.6889 -1.2144
  851MOL0     C14785   4.395   3.724  11.827  0.0357 -0.6519  0.6320
  851MOL0     O14786   4.281   3.785  11.860 -0.0263 -0.8237 -0.2028
  851MOL0     C14787   4.251   3.905  11.781  0.1782  0.3319  0.1695
  851MOL0     C14788   4.139   3.969  11.864  0.0690 -0.6014  0.8877
  851MOL0     C14789   4.006   3.904  11.847  0.9353 -0.8431 -0.9508
  851MOL0     C14790   3.902   3.969  11.938 -0.5629 -0.2153 -0.4541
  851MOL0     C14791   3.775   3.886  11.922 -0.0818  0.1777  0.5233
  851MOL0     C14792   3.764   3.772  12.014 -1.3122  0.4204 -0.2853
  851MOL0     C14793   3.634   3.694  12.003 -0.3636  0.3298 -0.6137
  851MOL0     C14794   3.645   3.553  12.060  0.5843  0.0095 -0.0507
  851MOL0    Cl14795   3.659   3.444  11.917  0.5140 -0.0383 -0.0813
  851MOL0     C14796   4.427   3.609  11.893  0.5716 -0.0416 -0.3654
  851MOL0     C14797   4.550   3.538  11.871  1.1094  0.2717 -0.1051
  851MOL0     O14798   4.865   3.582  11.924 -0.1020 -0.4316 -0.5635
  851MOL0     C14799   4.914   3.264  11.791  1.3536 -0.1088 -0.7499
  851MOL0     C14800   5.015   3.171  11.770  0.6661 -0.3653 -0.6267
  851MOL0     N14801   5.619   2.889  11.408  0.1980  0.1620 -0.6528
  851MOL0     N14802   5.735   2.855  11.359 -0.3646 -0.0101  0.1132
  851MOL0     C14803   6.528   3.399  11.201 -1.0914 -0.4913  0.3961
  851MOL0     C14804   6.612   3.506  11.235  0.1627  1.0045  0.2537
  851MOL0     C14805   7.019   3.730  11.327 -0.0895 -0.4822 -1.2451
  851MOL0     C14806   7.147   3.773  11.273 -0.1663 -0.3932 -0.1122
  851MOL0     C14807   7.227   3.857  11.340  0.0398  0.0031  0.3060
  851MOL0     C14808   7.197   3.903  11.467 -0.4701  0.2130  1.0334
  851MOL0     O14809   7.290   3.978  11.528  0.0157  0.3769 -0.1528
  851MOL0     C14810   7.289   3.985  11.670  0.5889 -0.2352 -0.7287
  851MOL0     C14811   7.419   4.052  11.726  0.0140  1.0536 -0.6558
  851MOL0     C14812   7.558   3.995  11.674  0.7630 -0.7776  0.1892
  851MOL0     C14813   7.677   4.058  11.752 -0.4142 -0.1978  0.0529
  851MOL0     C14814   7.800   4.039  11.676 -0.3098  0.7791 -0.1090
  851MOL0     C14815   7.909   4.023  11.635  1.1116  0.5639 -0.3514
  851MOL0     C14816   7.080   3.859  11.521  0.0927  0.0350 -0.4325
  851MOL0     C14817   6.983   3.777  11.455 -1.3725  0.4504 -0.7986
  851MOL0     H14818   6.892   3.329  11.296 -0.0862 -0.7170  1.1003
  851MOL0     H14819   6.753   3.147  11.228 -0.4618 -0.5439  1.7239
  851MOL0     H14820   6.611   3.024  11.073  2.0037  1.5313  2.7100
  851MOL0     H14821   6.556   3.009  11.241 -2.7720  1.3982  1.2411
  851MOL0     H14822   6.387   3.010  10.989  2.7681 -1.4587 -1.4684
  851MOL0     H14823   6.454   2.858  11.045  1.6999  0.3483  0.2502
  851MOL0     H14824   6.311   2.848  11.254 -5.6219  0.2292  2.2694
  851MOL0     H14825   6.257   3.011  11.224  0.6300 -1.3659  0.5896
  851MOL0     H14826   6.134   2.932  11.035  0.3501 -0.9127  0.4741
  851MOL0     H14827   6.201   2.767  11.024  0.0408  0.5659 -2.5742
  851MOL0     H14828   6.136   2.715  11.255 -1.3425 -1.2287  0.4617
  851MOL0     H14829   6.051   2.859  11.274 -0.9757 -2.7412  2.3461
  851MOL0     H14830   5.876   2.794  11.121  0.5497  0.9776  1.1522
  851MOL0     H14831   5.978   2.660  11.055  0.6734 -0.4075  0.3303
  851MOL0     H14832   5.805   2.585  11.231 -1.5137  1.9602  0.9643
  851MOL0     H14833   5.972   2.534  11.252  1.7150  1.9406  0.7825
  851MOL0     H14834   5.987   2.740  11.431 -1.1669  1.0306  1.0109
  851MOL0     H14835   5.915   2.586  11.459 -1.3936 -0.0588  0.1991
  851MOL0     H14836   5.696   2.639  11.584 -0.1799  1.8391  2.2595
  851MOL0     H14837   5.418   2.698  11.585 -3.9413  1.7616 -0.4316
  851MOL0     H14838   5.503   2.801  11.708 -2.1685  1.5993  1.2681
  851MOL0     H14839   5.334   2.897  11.457 -1.5735  2.0290 -0.4635
  851MOL0     H14840   5.417   2.997  11.577  3.4108 -2.1692  0.5409
  851MOL0     H14841   5.214   2.797  11.677  1.4801  0.1721 -0.0744
  851MOL0     H14842   5.142   2.917  11.580  0.2600  0.5549 -0.2398
  851MOL0     H14843   5.313   2.924  11.835  0.9296  2.1972 -0.6060
  851MOL0     H14844   5.142   2.960  11.826 -1.1426  0.4948 -1.4827
  851MOL0     H14845   5.293   3.346  11.803  0.4435  0.6861 -1.5884
  851MOL0     H14846   5.137   3.600  11.904 -0.7561  0.9302 -0.0054
  851MOL0     H14847   5.255   3.589  11.782 -0.1488  0.5529  0.6331
  851MOL0     H14848   5.094   3.650  11.739  1.2512 -0.3574 -0.3881
  851MOL0     H14849   4.653   3.692  11.598  1.4065  1.5709  0.0382
  851MOL0     H14850   4.443   3.827  11.641  2.3011  0.3149 -0.9976
  851MOL0     H14851   4.339   3.971  11.778  0.7133 -0.3902 -0.3579
  851MOL0     H14852   4.221   3.881  11.678 -1.1515  0.2396  0.5577
  851MOL0     H14853   4.168   3.971  11.970  0.4511  1.9959  0.8039
  851MOL0     H14854   4.114   4.071  11.834  1.8571 -0.5261 -0.5405
  851MOL0     H14855   4.022   3.799  11.874  1.3356 -0.9507 -1.5814
  851MOL0     H14856   3.976   3.921  11.743 -0.2530  1.1389 -0.3232
  851MOL0     H14857   3.947   3.986  12.036 -1.5850  1.9479 -0.2907
  851MOL0     H14858   3.873   4.072  11.915 -1.9087  0.0220  1.9497
  851MOL0     H14859   3.767   3.850  11.819  3.4586  0.5766 -0.0216
  851MOL0     H14860   3.682   3.943  11.935 -1.1094 -1.2027 -0.5573
  851MOL0     H14861   3.850   3.707  11.993  0.2337  2.1774  0.4110
  851MOL0     H14862   3.772   3.810  12.116 -2.1311  1.7812 -0.7004
  851MOL0     H14863   3.601   3.695  11.899 -0.9017  2.5475 -0.4571
  851MOL0     H14864   3.554   3.749  12.053  1.1481  3.4419 -1.4044
  851MOL0     H14865   3.553   3.527  12.113  0.0702 -1.1586 -1.4676
  851MOL0     H14866   3.730   3.547  12.129  2.2787 -0.9303 -2.1008
  851MOL0     H14867   4.357   3.565  11.964  0.9165  0.1126  0.0777
  851MOL0     H14868   4.581   3.457  11.935  1.6708 -2.5440 -3.6210
  851MOL0     H14869   4.808   3.245  11.799  0.7328  2.4725 -1.8150
  851MOL0     H14870   4.983   3.072  11.741  1.4884 -1.3159  1.5065
  851MOL0     H14871   6.424   3.416  11.177 -1.6024 -1.0020  2.1539
  851MOL0     H14872   6.555   3.598  11.238  0.5790  1.2332  1.9755
  851MOL0     H14873   7.181   3.744  11.174  0.7477  1.5230 -0.4128
  851MOL0     H14874   7.320   3.890  11.295 -0.9680  1.7156 -0.6402
  851MOL0     H14875   7.202   4.037  11.713  2.0266  0.1570  1.9491
  851MOL0     H14876   7.275   3.884  11.710  1.2412 -1.2970 -2.9959
  851MOL0     H14877   7.436   4.043  11.834 -3.0161 -1.2784 -0.2419
  851MOL0     H14878   7.405   4.158  11.703  0.2784  1.1189 -0.5283
  851MOL0     H14879   7.565   4.023  11.568 -1.3662  0.5699  0.3360
  851MOL0     H14880   7.571   3.887  11.688 -0.5731 -1.2896 -1.9917
  851MOL0     H14881   7.691   4.006  11.847  0.6174  0.0236  0.0361
  851MOL0     H14882   7.655   4.164  11.769  2.9204  0.6759 -0.2635
  851MOL0     H14883   8.010   4.011  11.602  1.9426  0.5635  2.0128
  851MOL0     H14884   7.050   3.902  11.616 -0.9924 -0.7801 -0.3935
  851MOL0     H14885   6.891   3.758  11.509 -0.1763 -1.0184  0.8307
  852MOL0     O14886   8.687   3.741   8.726  0.3261 -0.6399 -0.3167
  852MOL0     C14887   8.691   3.832   8.643  1.2310 -0.1282 -0.1168
  852MOL0     O14888   8.588   3.869   8.555  0.4442  0.4185  0.0312
  852MOL0     C14889   8.461   3.806   8.572  1.0408 -1.1013 -0.2489
  852MOL0     C14890   8.425   3.718   8.481  0.1034 -0.2850  0.1027
  852MOL0     C14891   8.295   3.667   8.473  1.8561  0.2367  0.3188
  852MOL0     C14892   8.202   3.698   8.575  0.2759 -0.5805 -0.2624
  852MOL0     O14893   8.076   3.647   8.593  0.5262 -0.0935 -1.2427
  852MOL0     C14894   8.051   3.515   8.559 -0.4759  0.2093 -0.6276
  852MOL0     C14895   7.919   3.479   8.615  0.2151  0.3824  1.4348
  852MOL0     C14896   7.842   3.358   8.554 -0.1282 -0.7375  0.2852
  852MOL0     C14897   7.747   3.282   8.655 -1.0601 -0.1256 -0.3318
  852MOL0     C14898   7.680   3.371   8.764 -0.7040 -0.2923  0.0112
  852MOL0     C14899   7.615   3.289   8.878 -0.0844  0.6601  1.1951
  852MOL0     C14900   7.696   3.229   8.987 -0.8868 -0.0576 -0.5065
  852MOL0     C14901   7.778   3.339   9.066  1.4438  0.0525 -0.0190
  852MOL0     N14902   7.906   3.370   8.992  0.5246  0.0017  1.0333
  852MOL0     C14903   7.978   3.491   9.004 -0.3984  0.2382 -0.5077
  852MOL0     C14904   8.101   3.470   8.950  0.2443 -0.1212 -0.9613
  852MOL0     C14905   8.227   3.563   8.944 -0.1134 -0.2728  0.3296
  852MOL0     C14906   8.228   3.707   9.009 -0.5164 -0.1388  0.1801
  852MOL0     C14907   8.243   3.695   9.162  0.5443  0.7023 -0.6130
  852MOL0     C14908   8.299   3.811   9.225 -0.0588 -0.3817 -1.1404
  852MOL0     O14909   8.341   3.789   9.363 -0.8499 -0.3355  0.8002
  852MOL0     C14910   8.349   3.898   9.440 -0.8269 -0.1824  0.0193
  852MOL0     C14911   8.426   3.875   9.556  0.4926 -0.1126  0.3645
  852MOL0     C14912   8.422   3.971   9.668 -0.0191 -0.3025 -0.3560
  852MOL0     C14913   8.510   3.946   9.779 -0.8073  0.5632 -0.3718
  852MOL0     C14914   8.358   4.092   9.659  0.5569 -0.4293  0.3087
  852MOL0     C14915   8.349   4.201   9.762 -1.2375 -0.4308 -0.3185
  852MOL0     O14916   8.276   4.306   9.730 -0.0208 -0.6388 -0.0619
  852MOL0     C14917   8.272   4.407   9.829 -0.4961 -0.1589 -1.0653
  852MOL0     C14918   8.382   4.488   9.866  0.0595 -0.4720 -0.4318
  852MOL0     C14919   8.369   4.582   9.973 -0.8724 -0.7285  0.4072
  852MOL0     C14920   8.248   4.602  10.044 -0.1953  0.9514 -0.0411
  852MOL0     O14921   8.233   4.712  10.120  0.3836  0.3245 -0.9312
  852MOL0     C14922   8.337   4.739  10.214 -0.3957  0.2470 -0.8096
  852MOL0     C14923   8.277   4.844  10.315  0.1979 -0.1015  0.3222
  852MOL0     C14924   8.370   4.855  10.440  0.5004  0.0619  0.3183
  852MOL0     C14925   8.285   4.892  10.560  0.6386 -0.0465 -0.0784
  852MOL0     C14926   8.352   4.947  10.688  0.3708 -0.3205  0.1343
  852MOL0     C14927   8.429   5.076  10.663  0.0252 -0.0531 -0.5089
  852MOL0     C14928   8.497   5.124  10.794  0.2207 -0.1016  1.0335
  852MOL0     C14929   8.604   5.224  10.755 -0.6796  1.0113  0.1375
  852MOL0    Cl14930   8.690   5.267  10.903 -0.4246 -0.4050  0.2892
  852MOL0     C14931   8.144   4.522  10.006  0.0071  0.8447  0.0398
  852MOL0     C14932   8.152   4.420   9.912  0.1950 -1.1132  0.0527
  852MOL0     O14933   8.406   4.184   9.870 -0.4096 -1.1360  0.0950
  852MOL0     C14934   8.297   4.116   9.532 -0.0732 -0.9667  0.8152
  852MOL0     C14935   8.298   4.027   9.420 -0.1002  0.0615 -0.7928
  852MOL0     N14936   8.101   3.330   8.915  0.0081 -0.3527  0.3282
  852MOL0     N14937   7.994   3.276   8.948  1.1635 -1.0189 -0.0048
  852MOL0     C14938   8.242   3.790   8.673 -0.1126 -0.5376 -0.9509
  852MOL0     C14939   8.370   3.845   8.667 -0.8076  0.1473 -1.5807
  852MOL0     C14940   8.821   3.898   8.623  0.1091  0.1188 -0.1662
  852MOL0     C14941   8.935   3.837   8.676  0.3184 -0.7373 -0.4065
  852MOL0     C14942   9.067   3.888   8.651 -0.2605  0.0496 -0.0767
  852MOL0     C14943   9.083   4.001   8.583 -0.0513  0.1129  0.7433
  852MOL0     O14944   9.211   4.059   8.557  0.5624 -0.1302  0.4608
  852MOL0     C14945   9.335   4.013   8.620  0.9726  0.6128  0.6201
  852MOL0     C14946   9.421   3.920   8.528 -0.5266 -0.0451 -0.7080
  852MOL0     C14947   9.548   3.874   8.608 -0.1464 -0.0115  0.6372
  852MOL0     C14948   9.540   3.731   8.661  0.0001 -0.2224 -0.1511
  852MOL0     C14949   9.652   3.704   8.753 -0.1047  1.0023 -0.6856
  852MOL0     C14950   9.719   3.685   8.854 -0.2007  0.6022 -0.9480
  852MOL0     C14951   8.966   4.063   8.526  0.3206 -0.2619 -0.6208
  852MOL0     C14952   8.833   4.009   8.542  0.0108 -0.1981  0.7499
  852MOL0     H14953   8.503   3.689   8.410  0.0987  1.6430 -0.7507
  852MOL0     H14954   8.255   3.607   8.392 -2.1559  2.8102  0.1039
  852MOL0     H14955   8.044   3.504   8.451 -1.1728  0.3692 -0.6042
  852MOL0     H14956   8.134   3.457   8.602 -1.5576 -0.1924  1.0249
  852MOL0     H14957   7.940   3.441   8.716 -2.0904 -3.5516  0.6562
  852MOL0     H14958   7.853   3.566   8.615  0.0519  0.2691  0.3041
  852MOL0     H14959   7.785   3.391   8.467  0.3814  0.2665  0.3145
  852MOL0     H14960   7.906   3.282   8.508 -0.7400 -0.5741 -0.8735
  852MOL0     H14961   7.670   3.219   8.611  1.9375 -2.6514 -2.2808
  852MOL0     H14962   7.816   3.210   8.700 -1.7926 -0.4278  0.3256
  852MOL0     H14963   7.750   3.441   8.810  0.7549 -0.7173 -1.4584
  852MOL0     H14964   7.604   3.435   8.718  0.7191  0.7041 -1.0571
  852MOL0     H14965   7.542   3.359   8.920 -1.3004 -0.0479  0.3280
  852MOL0     H14966   7.559   3.202   8.843 -1.6310  0.8584  3.0274
  852MOL0     H14967   7.637   3.175   9.060 -0.0268 -0.8373 -0.3681
  852MOL0     H14968   7.773   3.157   8.958  0.4162  0.9312  0.3841
  852MOL0     H14969   7.800   3.305   9.167  0.7715 -0.2198  0.0408
  852MOL0     H14970   7.711   3.423   9.084 -0.8041 -1.3178 -1.4383
  852MOL0     H14971   7.933   3.578   9.051 -1.4740 -1.6820  2.3313
  852MOL0     H14972   8.325   3.518   8.961  0.8464  1.3319 -0.6221
  852MOL0     H14973   8.236   3.565   8.835  1.3799  2.3239  0.4224
  852MOL0     H14974   8.129   3.749   8.993 -0.0907  0.7870 -0.1262
  852MOL0     H14975   8.306   3.770   8.964  0.9659 -2.5724 -0.8484
  852MOL0     H14976   8.310   3.611   9.183 -0.1662  0.6995  2.0019
  852MOL0     H14977   8.143   3.686   9.205  2.2309 -1.1810  3.3722
  852MOL0     H14978   8.215   3.879   9.240  1.5082  2.3727 -3.8253
  852MOL0     H14979   8.372   3.872   9.171 -0.4185 -1.7487 -3.3459
  852MOL0     H14980   8.475   3.779   9.569 -2.1124 -2.2174 -3.3721
  852MOL0     H14981   8.569   3.856   9.760  0.6011  1.1616  0.9832
  852MOL0     H14982   8.581   4.029   9.786 -0.4439  0.2157  0.1378
  852MOL0     H14983   8.447   3.924   9.867 -0.3950  3.1331  0.6588
  852MOL0     H14984   8.478   4.478   9.816 -1.0609 -3.0521 -2.2619
  852MOL0     H14985   8.453   4.650   9.980 -1.0853 -0.6525  3.6665
  852MOL0     H14986   8.355   4.646  10.268  2.2266 -0.6106 -2.9535
  852MOL0     H14987   8.426   4.773  10.161  1.6721 -3.5053 -0.0306
  852MOL0     H14988   8.258   4.937  10.261  1.8814  1.3486  2.0912
  852MOL0     H14989   8.179   4.807  10.348 -0.8696  2.9172  0.8273
  852MOL0     H14990   8.442   4.933  10.415 -0.1412  0.9401  1.1369
  852MOL0     H14991   8.425   4.762  10.459  3.3382  1.5437 -0.2146
  852MOL0     H14992   8.217   4.971  10.525 -0.2558 -1.3387 -1.3773
  852MOL0     H14993   8.234   4.800  10.588 -1.2692  0.9251 -0.1526
  852MOL0     H14994   8.415   4.867  10.728 -2.5240 -1.3491  3.1207
  852MOL0     H14995   8.277   4.971  10.764  3.3566  0.4723  3.0665
  852MOL0     H14996   8.497   5.048  10.583 -3.0790 -0.6773 -3.1595
  852MOL0     H14997   8.354   5.146  10.625 -4.3607 -2.8333  2.1505
  852MOL0     H14998   8.536   5.037  10.847  0.1683  1.2433  3.4274
  852MOL0     H14999   8.419   5.171  10.855 -3.1234 -1.0503 -2.0955
  852MOL0     H15000   8.557   5.306  10.699  3.3789  1.3724 -3.2602
  852MOL0     H15001   8.670   5.173  10.684  0.9073 -0.1985  2.3620
  852MOL0     H15002   8.044   4.531  10.046  0.6810 -0.3570  2.1716
  852MOL0     H15003   8.071   4.354   9.883 -0.5644 -0.5664  0.8982
  852MOL0     H15004   8.260   4.216   9.510 -0.1559 -1.2847 -0.5737
  852MOL0     H15005   8.234   4.058   9.339 -1.6420  1.3912  0.8445
  852MOL0     H15006   8.174   3.824   8.750  0.8433 -1.4878  0.3642
  852MOL0     H15007   8.390   3.919   8.744  0.0571 -2.0181  0.3587
  852MOL0     H15008   8.926   3.738   8.721 -2.7759 -1.3429 -2.0873
  852MOL0     H15009   9.147   3.822   8.682 -3.5182 -3.5346  1.5812
  852MOL0     H15010   9.397   4.103   8.624  1.7004  0.2184 -0.9165
  852MOL0     H15011   9.314   3.953   8.708  1.1563 -1.3978 -0.6460
  852MOL0     H15012   9.468   3.990   8.459  1.8066  1.6945  2.4152
  852MOL0     H15013   9.380   3.825   8.492  2.0724 -2.3954  1.9176
  852MOL0     H15014   9.585   3.947   8.680  0.6560 -0.0553  0.2806
  852MOL0     H15015   9.626   3.881   8.531 -0.4939  1.0564  0.3627
  852MOL0     H15016   9.530   3.658   8.581  0.7793  2.6004 -3.0372
  852MOL0     H15017   9.443   3.717   8.709  1.0588  0.7943  2.4767
  852MOL0     H15018   9.783   3.673   8.939 -0.3753  2.3131 -0.5380
  852MOL0     H15019   8.973   4.148   8.458 -0.3184  1.0840  0.9299
  852MOL0     H15020   8.746   4.046   8.489 -0.8705 -2.7902  0.2511
  853MOL0     O15021   4.035   9.514   3.485  0.2622 -0.3880  0.4619
  853MOL0     C15022   3.975   9.404   3.479  1.1575 -0.8130 -0.5923
  853MOL0     O15023   4.031   9.280   3.469 -0.1460  0.2351  0.8428
  853MOL0     C15024   4.167   9.278   3.469 -0.8368 -0.5190  0.3326
  853MOL0     C15025   4.242   9.247   3.594 -0.0344 -1.0807  0.1957
  853MOL0     C15026   4.378   9.251   3.600  0.0741 -0.6827  0.1730
  853MOL0     C15027   4.448   9.278   3.488 -0.2841  1.0957 -0.2790
  853MOL0     O15028   4.574   9.284   3.495 -0.3243  0.1092 -0.4557
  853MOL0     C15029   4.634   9.397   3.440  0.7430 -0.0176  0.3736
  853MOL0     C15030   4.785   9.375   3.425  0.1515  0.6667  0.0298
  853MOL0     C15031   4.842   9.411   3.556 -0.1712  1.1346  0.2043
  853MOL0     C15032   4.990   9.362   3.571  0.2480  0.4221  0.1344
  853MOL0     C15033   5.050   9.407   3.703  0.0036  0.3402  0.4079
  853MOL0     C15034   5.073   9.560   3.709  0.0115  0.3044  1.2806
  853MOL0     C15035   5.114   9.599   3.854  0.0187  1.3122  0.4326
  853MOL0     C15036   5.136   9.750   3.858  1.2399 -0.3449 -0.1246
  853MOL0     N15037   5.204   9.806   3.975  0.1226  0.1815 -0.2707
  853MOL0     C15038   5.233   9.938   3.983 -0.1626 -0.2658 -0.6408
  853MOL0     C15039   5.266   9.957   4.120 -1.0588 -0.4236 -0.4446
  853MOL0     C15040   5.304  10.086   4.195  0.2461 -0.4141  0.9007
  853MOL0     C15041   5.166  10.166   4.219 -1.2421  0.1316  0.8331
  853MOL0     C15042   5.209  10.309   4.254  0.8107  0.0962  0.0468
  853MOL0     C15043   5.085  10.382   4.277  0.0598 -0.3875 -0.5577
  853MOL0     O15044   5.117  10.507   4.334  0.3481 -0.2390  0.0156
  853MOL0     C15045   5.014  10.582   4.375 -0.1245 -0.9339  0.6668
  853MOL0     C15046   4.876  10.547   4.379 -0.6724 -0.5747 -0.2940
  853MOL0     C15047   4.778  10.631   4.440 -0.1047  0.8011 -0.1207
  853MOL0     C15048   4.637  10.585   4.427  0.0149 -0.7930  0.0396
  853MOL0     C15049   4.818  10.759   4.487  0.1674  0.6921  0.1109
  853MOL0     C15050   4.721  10.851   4.553  0.1576  0.2262  0.6562
  853MOL0     O15051   4.765  10.973   4.565  0.1178  0.6734 -0.2521
  853MOL0     C15052   4.682  11.070   4.628 -0.5726 -0.2763 -0.6002
  853MOL0     C15053   4.639  11.051   4.758  0.3528  0.0683 -0.0994
  853MOL0     C15054   4.578  11.149   4.823  1.0186 -0.4707 -0.1760
  853MOL0     C15055   4.551  11.276   4.762 -0.6143 -0.3008 -0.4095
  853MOL0     O15056   4.497  11.380   4.832 -0.2487 -0.3849  0.0018
  853MOL0     C15057   4.502  11.382   4.974  0.3063  0.8515  0.1387
  853MOL0     C15058   4.491  11.523   5.026 -0.5470  0.0750 -0.4850
  853MOL0     C15059   4.409  11.525   5.156 -0.5400  0.1355 -1.1063
  853MOL0     C15060   4.359  11.660   5.200 -0.0197 -0.9937 -0.5026
  853MOL0     C15061   4.296  11.645   5.344 -0.9496  0.4944  1.3917
  853MOL0     C15062   4.262  11.777   5.407 -0.2888 -0.5347 -0.3486
  853MOL0     C15063   4.225  11.771   5.556  0.2804 -0.4500  0.4265
  853MOL0     C15064   4.203  11.910   5.613  0.4973  1.4580  0.3397
  853MOL0    Cl15065   4.158  11.896   5.784 -0.3045  0.2038 -0.1317
  853MOL0     C15066   4.581  11.290   4.626 -0.6711  0.4282 -0.2150
  853MOL0     C15067   4.643  11.188   4.554 -0.3905  0.7074  0.2730
  853MOL0     O15068   4.611  10.809   4.589  0.6270 -0.7218 -0.0720
  853MOL0     C15069   4.950  10.800   4.464  0.2254 -0.5311  0.3252
  853MOL0     C15070   5.042  10.713   4.407 -0.2746 -1.3914  0.4423
  853MOL0     N15071   5.263   9.842   4.188 -0.2627 -0.1747  0.7228
  853MOL0     N15072   5.224   9.747   4.101  1.0598 -0.2108  0.4218
  853MOL0     C15073   4.384   9.290   3.362  0.1824 -0.2389 -0.2688
  853MOL0     C15074   4.245   9.299   3.358 -0.0330  0.8470  0.5502
  853MOL0     C15075   3.824   9.408   3.501 -0.0209  0.1705  0.3558
  853MOL0     C15076   3.761   9.531   3.478 -0.0018  0.0464 -0.3521
  853MOL0     C15077   3.629   9.544   3.484  0.2425  0.3206 -0.3988
  853MOL0     C15078   3.553   9.436   3.539 -0.0768 -0.6831  0.4860
  853MOL0     O15079   3.418   9.451   3.579  0.3450 -0.0091 -0.4075
  853MOL0     C15080   3.341   9.549   3.512  0.2336 -0.0242  0.0150
  853MOL0     C15081   3.307   9.495   3.376  0.3416  0.0905  0.9057
  853MOL0     C15082   3.231   9.600   3.292 -0.3466 -0.7901  0.1050
  853MOL0     C15083   3.317   9.697   3.219  0.9277 -0.1409  0.3493
  853MOL0     C15084   3.249   9.828   3.203 -0.2152  0.1954 -0.2441
  853MOL0     C15085   3.204   9.941   3.196 -0.3020  0.3437 -0.2981
  853MOL0     C15086   3.613   9.318   3.560  0.1639 -0.1456 -1.0616
  853MOL0     C15087   3.749   9.298   3.543  0.5913 -0.0342  0.1352
  853MOL0     H15088   4.191   9.234   3.689 -1.0575 -2.3236 -0.4904
  853MOL0     H15089   4.428   9.243   3.696 -0.8526 -1.2864  0.6245
  853MOL0     H15090   4.579   9.429   3.350 -1.1292 -3.3521  0.1519
  853MOL0     H15091   4.621   9.487   3.501 -2.1707  1.2722 -1.8807
  853MOL0     H15092   4.799   9.273   3.390 -2.6299  0.7772 -1.7322
  853MOL0     H15093   4.828   9.435   3.344 -1.5124 -1.3390 -2.4847
  853MOL0     H15094   4.839   9.520   3.561 -0.5313  1.1406 -0.0904
  853MOL0     H15095   4.791   9.379   3.648  1.0371  0.6911  0.7343
  853MOL0     H15096   4.982   9.253   3.565  0.9472  0.1683  2.7573
  853MOL0     H15097   5.054   9.393   3.488 -0.3975  2.7396  0.4182
  853MOL0     H15098   4.978   9.381   3.782  1.6876  2.1524  2.6866
  853MOL0     H15099   5.138   9.346   3.726 -1.4205 -3.1793 -2.4727
  853MOL0     H15100   5.155   9.595   3.645  0.1264  1.4677  2.0255
  853MOL0     H15101   4.983   9.615   3.681  0.0903 -0.4311 -0.5271
  853MOL0     H15102   5.038   9.568   3.927  0.0745  2.1174  0.8381
  853MOL0     H15103   5.212   9.557   3.877 -2.2553 -3.6632  2.9128
  853MOL0     H15104   5.049   9.812   3.836  2.0404  1.1952  0.8367
  853MOL0     H15105   5.202   9.781   3.775  1.6394 -0.0985  0.2790
  853MOL0     H15106   5.222  10.013   3.904 -1.5583  0.4354  0.1737
  853MOL0     H15107   5.349  10.059   4.291  1.9735  0.8944  0.4988
  853MOL0     H15108   5.374  10.128   4.123 -0.4579 -2.1074 -0.8761
  853MOL0     H15109   5.127  10.118   4.309 -0.6076  0.9313  1.5601
  853MOL0     H15110   5.091  10.166   4.140 -1.1718  1.4068  0.7410
  853MOL0     H15111   5.253  10.367   4.172 -3.0629 -1.3970 -3.4539
  853MOL0     H15112   5.261  10.315   4.350  0.3118 -2.7886  0.6059
  853MOL0     H15113   5.018  10.326   4.342 -0.6905 -2.0451 -2.6611
  853MOL0     H15114   5.047  10.391   4.175 -0.1293  0.5459 -0.4105
  853MOL0     H15115   4.838  10.448   4.356  0.8590 -1.2198 -0.2211
  853MOL0     H15116   4.605  10.558   4.528 -0.2240  0.7616  0.3976
  853MOL0     H15117   4.571  10.653   4.373 -1.3357 -1.8582  0.3082
  853MOL0     H15118   4.620  10.497   4.364  0.0956 -0.0624 -1.0272
  853MOL0     H15119   4.659  10.963   4.819 -0.8433  0.0834  0.3338
  853MOL0     H15120   4.552  11.143   4.928  0.4232  1.5059 -0.1563
  853MOL0     H15121   4.419  11.325   5.017  0.3344  2.4651  2.4640
  853MOL0     H15122   4.590  11.338   5.021 -1.5095 -0.7055  2.2720
  853MOL0     H15123   4.591  11.562   5.044 -0.2541 -0.6330 -0.5253
  853MOL0     H15124   4.433  11.589   4.961 -0.5961  3.0354  2.3143
  853MOL0     H15125   4.468  11.473   5.232 -1.3685 -3.7310 -2.9101
  853MOL0     H15126   4.322  11.464   5.133 -3.4866  2.9978  1.4563
  853MOL0     H15127   4.443  11.730   5.200 -0.6710  0.0069  2.8439
  853MOL0     H15128   4.271  11.686   5.141 -1.4461 -0.7963  1.5843
  853MOL0     H15129   4.366  11.593   5.411 -1.0666 -0.2384  0.9602
  853MOL0     H15130   4.210  11.577   5.344  0.3128 -1.1833  1.6622
  853MOL0     H15131   4.340  11.851   5.387  1.7647 -2.0377  1.6334
  853MOL0     H15132   4.172  11.821   5.362 -1.4057 -1.3574  1.0180
  853MOL0     H15133   4.304  11.722   5.614 -1.6299 -2.4034  1.4961
  853MOL0     H15134   4.134  11.716   5.581  1.5555 -2.0381  1.8382
  853MOL0     H15135   4.110  11.942   5.565  1.6450  0.9401 -2.3655
  853MOL0     H15136   4.278  11.987   5.596  2.5187 -0.7648 -1.5162
  853MOL0     H15137   4.577  11.383   4.570 -2.7254  1.6897  1.8020
  853MOL0     H15138   4.667  11.211   4.451 -1.4322  2.4476  0.3788
  853MOL0     H15139   4.993  10.899   4.480  1.3851 -1.3714  2.8100
  853MOL0     H15140   5.142  10.751   4.387 -1.1589  1.0056  0.3271
  853MOL0     H15141   4.436   9.300   3.268 -0.7533 -2.0477 -1.0173
  853MOL0     H15142   4.187   9.328   3.271  0.6854  0.5427 -0.0344
  853MOL0     H15143   3.811   9.606   3.418 -0.6253  2.3432  1.8289
  853MOL0     H15144   3.591   9.644   3.466  0.7190  0.2688 -1.7937
  853MOL0     H15145   3.243   9.554   3.560 -0.0996 -3.1153 -0.1348
  853MOL0     H15146   3.383   9.650   3.519 -1.4505  0.6677  0.5474
  853MOL0     H15147   3.250   9.402   3.377  0.9592 -0.4368 -1.9473
  853MOL0     H15148   3.395   9.470   3.315 -0.5936 -0.9228 -0.0615
  853MOL0     H15149   3.168   9.656   3.362 -1.4862 -0.0326 -1.4635
  853MOL0     H15150   3.155   9.552   3.230 -1.5839 -1.2800  1.9215
  853MOL0     H15151   3.344   9.655   3.121  1.7871 -2.1756  1.3859
  853MOL0     H15152   3.414   9.700   3.270  1.6992 -1.2139 -0.9756
  853MOL0     H15153   3.175  10.044   3.209 -1.9840  0.2285 -2.5497
  853MOL0     H15154   3.538   9.245   3.587  0.5927 -0.4522 -0.6811
  853MOL0     H15155   3.796   9.200   3.552 -0.5939 -0.5160  1.6935
  854MOL0     O15156  10.352   2.031   9.052 -0.0739  0.1461  0.6224
  854MOL0     C15157  10.352   2.062   8.933 -0.6818 -0.2305 -0.0624
  854MOL0     O15158  10.259   2.147   8.874 -0.2736 -0.3456  0.1502
  854MOL0     C15159  10.198   2.241   8.951  0.1046  0.2399 -1.1331
  854MOL0     C15160  10.095   2.209   9.038  0.0699  0.5819  0.0334
  854MOL0     C15161  10.015   2.311   9.096 -0.6838 -0.2945  0.8570
  854MOL0     C15162  10.040   2.440   9.067  0.5147 -0.7731  0.0388
  854MOL0     O15163   9.965   2.537   9.126  0.2778 -0.3573 -0.0019
  854MOL0     C15164   9.954   2.663   9.065  0.7496 -0.2806 -0.1461
  854MOL0     C15165   9.848   2.755   9.123 -0.0348  1.3131  0.4297
  854MOL0     C15166   9.719   2.685   9.137 -0.1603 -0.3717 -0.6002
  854MOL0     C15167   9.618   2.786   9.189 -0.2042  0.0888 -0.0159
  854MOL0     C15168   9.485   2.722   9.211  0.3988  0.8308  0.7022
  854MOL0     C15169   9.409   2.840   9.279 -0.3483  0.7381  0.4461
  854MOL0     C15170   9.270   2.800   9.286 -0.3279  0.1644  0.2982
  854MOL0     C15171   9.200   2.884   9.390  0.7023 -0.2193 -0.4137
  854MOL0     N15172   9.053   2.893   9.392  0.0690  0.2916 -0.2841
  854MOL0     C15173   8.967   2.954   9.308  0.3295  0.3770  0.3294
  854MOL0     C15174   8.842   2.922   9.339  0.2260  0.0221  0.8626
  854MOL0     C15175   8.718   2.973   9.267 -0.4268 -0.3493  0.8079
  854MOL0     C15176   8.697   3.122   9.308  0.6954 -0.3007  0.0735
  854MOL0     C15177   8.596   3.128   9.422 -0.3697 -0.5543 -0.4796
  854MOL0     C15178   8.576   3.269   9.481 -0.1554 -0.2838  1.2603
  854MOL0     O15179   8.483   3.285   9.584  0.5694  0.1856  0.3955
  854MOL0     C15180   8.357   3.250   9.555  0.8488 -0.1688 -0.2767
  854MOL0     C15181   8.281   3.331   9.468 -0.7258 -0.3620 -1.3737
  854MOL0     C15182   8.147   3.305   9.436 -0.3272 -0.2632  0.5559
  854MOL0     C15183   8.074   3.392   9.338 -0.1432 -0.5096  1.1388
  854MOL0     C15184   8.087   3.191   9.497  0.2333  0.0587 -0.0466
  854MOL0     C15185   7.945   3.152   9.479  0.3001  0.5391  0.1403
  854MOL0     O15186   7.913   3.012   9.483  0.2480 -0.2002 -0.6213
  854MOL0     C15187   7.775   2.980   9.459  0.0515  0.1080 -0.2428
  854MOL0     C15188   7.729   2.870   9.535  0.5749 -0.2604  0.1864
  854MOL0     C15189   7.603   2.840   9.543  0.3908  0.1386 -0.0292
  854MOL0     C15190   7.500   2.909   9.463 -0.0853  0.5345 -0.2222
  854MOL0     O15191   7.381   2.847   9.466  0.8766 -0.3542  1.3330
  854MOL0     C15192   7.282   2.934   9.404  1.1250 -0.2123  0.0850
  854MOL0     C15193   7.144   2.886   9.444  0.0987  0.4708  0.0144
  854MOL0     C15194   7.023   2.970   9.396 -0.4208  0.6236  0.0145
  854MOL0     C15195   6.885   2.901   9.430 -0.0701 -0.5798  0.1160
  854MOL0     C15196   6.774   3.004   9.435  0.5882 -0.0886 -0.0898
  854MOL0     C15197   6.747   3.088   9.303  0.1732  0.1166  0.0562
  854MOL0     C15198   6.640   3.197   9.311  0.4159  0.2457 -0.7419
  854MOL0     C15199   6.661   3.286   9.438  0.5731 -0.3187 -0.4218
  854MOL0    Cl15200   6.574   3.435   9.448 -0.2744 -0.0181 -0.0989
  854MOL0     C15201   7.554   3.008   9.377  0.4915 -0.8731 -0.9601
  854MOL0     C15202   7.683   3.058   9.375  0.1746  0.4050  0.5646
  854MOL0     O15203   7.867   3.246   9.468  0.7387 -0.2996 -0.3742
  854MOL0     C15204   8.156   3.121   9.595  0.9522  0.6671 -0.4288
  854MOL0     C15205   8.287   3.150   9.619  0.0962  0.7651  1.0923
  854MOL0     N15206   8.848   2.850   9.458  0.2251 -0.9596  0.1722
  854MOL0     N15207   8.975   2.824   9.485 -0.2613 -0.6108 -0.7629
  854MOL0     C15208  10.142   2.475   8.979 -0.1115 -0.2395  0.5036
  854MOL0     C15209  10.222   2.380   8.929 -0.7035 -0.1223 -0.1052
  854MOL0     C15210  10.448   1.998   8.844  0.0090 -0.6864  0.6338
  854MOL0     C15211  10.457   2.019   8.706  0.5060 -0.8322 -0.4259
  854MOL0     C15212  10.555   1.962   8.619 -0.5284  0.2555 -0.9174
  854MOL0     C15213  10.644   1.870   8.674 -0.3756  0.3664  0.4317
  854MOL0     O15214  10.747   1.818   8.604  0.2019 -0.5575  0.6896
  854MOL0     C15215  10.835   1.919   8.548 -0.3701 -0.6413  0.3950
  854MOL0     C15216  10.815   1.950   8.402  0.1250  0.0687  0.5288
  854MOL0     C15217  10.777   1.830   8.323  0.3061  0.3157  0.3801
  854MOL0     C15218  10.865   1.705   8.322  0.2091 -0.7164 -0.0294
  854MOL0     C15219  11.000   1.749   8.288 -0.1003 -0.0562  0.7387
  854MOL0     C15220  11.111   1.783   8.281 -0.9018  0.5742 -0.2463
  854MOL0     C15221  10.639   1.846   8.812  0.7477  1.0945 -0.1586
  854MOL0     C15222  10.541   1.907   8.898 -1.7794 -0.1400  0.2962
  854MOL0     H15223  10.084   2.106   9.068  0.0016  0.8364  0.9108
  854MOL0     H15224   9.952   2.296   9.183  1.6034  0.5048  2.7779
  854MOL0     H15225  10.041   2.724   9.095 -0.5260  0.1924  3.0509
  854MOL0     H15226   9.935   2.664   8.958 -3.6065  0.3157  0.4654
  854MOL0     H15227   9.894   2.791   9.216 -1.0594  1.4549  0.8928
  854MOL0     H15228   9.842   2.836   9.049  2.3691  1.0183 -0.1869
  854MOL0     H15229   9.687   2.640   9.042 -0.8159 -3.2045  0.8502
  854MOL0     H15230   9.721   2.604   9.211 -0.6741  1.5550  1.6193
  854MOL0     H15231   9.658   2.827   9.283 -1.1337 -1.2674  1.0216
  854MOL0     H15232   9.605   2.871   9.122 -0.9471  0.5947  0.7377
  854MOL0     H15233   9.444   2.695   9.114 -1.4047 -0.5126  1.7690
  854MOL0     H15234   9.499   2.630   9.268  0.5095  1.4393  1.7078
  854MOL0     H15235   9.458   2.859   9.376 -0.2791  0.3458  0.4897
  854MOL0     H15236   9.415   2.936   9.227 -2.2478  2.3853  2.9947
  854MOL0     H15237   9.222   2.818   9.189 -0.1265 -0.9939 -0.0276
  854MOL0     H15238   9.269   2.695   9.316  1.2832 -1.0768 -3.4754
  854MOL0     H15239   9.225   2.990   9.385  2.1115 -0.5897 -1.8759
  854MOL0     H15240   9.237   2.839   9.483  1.0513 -3.3285 -1.9423
  854MOL0     H15241   8.999   3.021   9.230 -0.8491 -2.3438 -2.7115
  854MOL0     H15242   8.734   2.977   9.159 -0.7619  0.5052  0.7844
  854MOL0     H15243   8.630   2.914   9.294  0.5339 -0.1665  5.0940
  854MOL0     H15244   8.651   3.182   9.229  1.0614  0.0326  0.1141
  854MOL0     H15245   8.796   3.164   9.328  1.7761 -0.4764 -3.9989
  854MOL0     H15246   8.650   3.079   9.503 -2.3124 -1.5118  0.2866
  854MOL0     H15247   8.505   3.082   9.381 -1.3117  1.0910 -0.2933
  854MOL0     H15248   8.541   3.342   9.408 -3.3728 -0.2925  2.6403
  854MOL0     H15249   8.674   3.304   9.516  0.3783 -0.2009 -0.2640
  854MOL0     H15250   8.335   3.413   9.421 -2.4715  1.6869 -0.0233
  854MOL0     H15251   7.995   3.346   9.278 -0.8700  0.9464  0.9075
  854MOL0     H15252   8.023   3.469   9.398 -0.8026 -2.0912  2.6972
  854MOL0     H15253   8.134   3.445   9.263 -0.5426  1.6305  2.2593
  854MOL0     H15254   7.801   2.814   9.594  0.9641 -0.7343 -0.7049
  854MOL0     H15255   7.563   2.756   9.598  0.3458  0.9357  1.1880
  854MOL0     H15256   7.282   3.034   9.448  0.3991  0.2163 -0.8553
  854MOL0     H15257   7.290   2.944   9.295  0.8793 -0.3053  0.0574
  854MOL0     H15258   7.132   2.785   9.405 -7.0378  0.7195  0.4089
  854MOL0     H15259   7.137   2.873   9.552  0.1153 -4.6379 -0.3693
  854MOL0     H15260   7.026   2.988   9.288  0.8372 -1.1902 -0.2941
  854MOL0     H15261   7.021   3.063   9.453  1.2810 -0.2155  1.5362
  854MOL0     H15262   6.859   2.818   9.364 -1.6415  0.0547 -0.0831
  854MOL0     H15263   6.899   2.856   9.529  3.0365 -0.7197 -0.2845
  854MOL0     H15264   6.793   3.059   9.528  1.7058 -1.9654  0.8698
  854MOL0     H15265   6.686   2.940   9.445  2.3511 -2.6096  0.4720
  854MOL0     H15266   6.839   3.132   9.264  0.4759  1.0544  1.6982
  854MOL0     H15267   6.722   3.012   9.229 -0.2489 -0.7876  1.1047
  854MOL0     H15268   6.541   3.152   9.316  0.1310  0.9052 -0.4349
  854MOL0     H15269   6.635   3.258   9.220 -2.6825  1.0332 -0.1357
  854MOL0     H15270   6.769   3.306   9.439  0.2891  1.6025 -2.2040
  854MOL0     H15271   6.628   3.222   9.521 -0.3072  0.9864  0.2618
  854MOL0     H15272   7.493   3.049   9.297  1.6177 -0.8246 -1.8157
  854MOL0     H15273   7.723   3.133   9.307 -2.3423  0.6584 -0.7783
  854MOL0     H15274   8.115   3.035   9.648  3.1876 -0.2626 -0.0771
  854MOL0     H15275   8.353   3.092   9.683 -0.8549 -2.8793 -0.9737
  854MOL0     H15276  10.143   2.579   8.949 -2.3471  0.3681  2.2559
  854MOL0     H15277  10.293   2.411   8.852  2.3392 -2.7935  1.3799
  854MOL0     H15278  10.387   2.093   8.669  0.4753 -0.3729  0.5200
  854MOL0     H15279  10.547   1.975   8.511  1.5567  2.1306 -0.8998
  854MOL0     H15280  10.838   2.017   8.598  1.6174  1.5575 -3.5388
  854MOL0     H15281  10.937   1.883   8.564 -0.9492 -2.1429  0.8432
  854MOL0     H15282  10.914   1.989   8.376  1.1007 -1.3690  1.9059
  854MOL0     H15283  10.739   2.027   8.387 -1.1603 -1.3183 -0.2383
  854MOL0     H15284  10.755   1.848   8.218 -3.0574 -1.4184  0.6538
  854MOL0     H15285  10.684   1.794   8.367 -1.3875  1.8573 -1.7444
  854MOL0     H15286  10.818   1.629   8.259 -1.0020 -2.4507  2.7532
  854MOL0     H15287  10.874   1.671   8.426  2.2434  3.4824  1.3798
  854MOL0     H15288  11.212   1.816   8.268 -0.6976 -0.9409 -3.1623
  854MOL0     H15289  10.716   1.778   8.848 -0.5005 -1.3415 -1.8352
  854MOL0     H15290  10.534   1.871   9.000  3.3524 -1.1230  0.5859
  855MOL0     O15291   9.809   3.871   4.211  1.2816 -0.4710  0.1617
  855MOL0     C15292   9.681   3.870   4.209 -0.1379  0.4736 -0.3895
  855MOL0     O15293   9.609   3.936   4.117 -0.3411 -0.0415 -0.6936
  855MOL0     C15294   9.667   4.017   4.022 -0.5958 -0.8514 -0.4928
  855MOL0     C15295   9.603   4.035   3.894 -0.6953  0.1620  0.1724
  855MOL0     C15296   9.653   4.131   3.802  0.8047 -1.1905 -0.0960
  855MOL0     C15297   9.754   4.219   3.842 -0.2157 -1.2999 -0.0591
  855MOL0     O15298   9.819   4.315   3.766  0.0492 -0.2629 -0.2472
  855MOL0     C15299   9.771   4.342   3.626  0.3393  0.0523  0.1982
  855MOL0     C15300   9.846   4.231   3.538  0.2789  0.2058 -0.1461
  855MOL0     C15301  10.003   4.238   3.542  0.7228  0.3215 -0.0125
  855MOL0     C15302  10.073   4.116   3.476  0.8826 -0.3526 -0.6507
  855MOL0     C15303  10.201   4.075   3.544 -0.6273  0.3473 -0.2702
  855MOL0     C15304  10.288   4.195   3.543 -0.2168  0.1589  0.3957
  855MOL0     C15305  10.432   4.165   3.583  0.3067  0.8223 -0.3387
  855MOL0     C15306  10.517   4.076   3.479  0.7686 -0.1311 -0.8855
  855MOL0     N15307  10.531   4.147   3.347  0.1805  0.2866 -1.1048
  855MOL0     C15308  10.429   4.143   3.256 -0.3071 -0.0104  0.0432
  855MOL0     C15309  10.467   4.229   3.159 -0.1598 -1.0550  0.6222
  855MOL0     C15310  10.381   4.271   3.044 -0.0185 -0.3839  0.7701
  855MOL0     C15311  10.237   4.306   3.099 -0.8649  0.3634  0.2862
  855MOL0     C15312  10.139   4.344   2.998  0.0199 -0.2938  0.2473
  855MOL0     C15313   9.999   4.355   3.045 -0.3606  0.2840  0.0361
  855MOL0     O15314   9.910   4.401   2.948 -0.0428 -0.3875  0.2232
  855MOL0     C15315   9.774   4.408   2.971  0.1382 -0.9753  0.6104
  855MOL0     C15316   9.692   4.426   2.861  0.1176 -0.8434  0.0481
  855MOL0     C15317   9.554   4.450   2.883  0.3891 -0.5654 -0.5537
  855MOL0     C15318   9.471   4.469   2.757 -0.3461 -1.2894  0.7871
  855MOL0     C15319   9.499   4.448   3.008  0.1481  0.6381 -0.1417
  855MOL0     C15320   9.353   4.465   3.031  0.1546 -0.3648 -0.1484
  855MOL0     O15321   9.296   4.363   3.113 -0.1038 -0.4960  0.3939
  855MOL0     C15322   9.166   4.340   3.091 -1.2145  0.1332  1.1151
  855MOL0     C15323   9.072   4.388   3.181 -0.1217  0.6402  0.0393
  855MOL0     C15324   8.937   4.368   3.157  0.6075  0.4110 -0.1848
  855MOL0     C15325   8.884   4.316   3.036  0.4725 -1.1223 -0.4412
  855MOL0     O15326   8.756   4.306   2.996  0.3056  0.4667  0.6860
  855MOL0     C15327   8.653   4.298   3.101 -0.1505 -1.2821 -0.1185
  855MOL0     C15328   8.526   4.236   3.037  0.3138 -0.4764 -0.7620
  855MOL0     C15329   8.409   4.247   3.127 -0.1899  1.2748  0.0156
  855MOL0     C15330   8.426   4.169   3.255 -0.9870  0.0398 -0.6212
  855MOL0     C15331   8.292   4.111   3.309  0.0213 -0.5864  0.7537
  855MOL0     C15332   8.283   4.041   3.443 -0.1946 -0.0475  0.0896
  855MOL0     C15333   8.145   4.000   3.469  0.3448 -1.0773 -0.1875
  855MOL0     C15334   8.121   3.917   3.590 -0.1182 -0.0861 -0.9671
  855MOL0    Cl15335   7.961   3.849   3.571 -0.3046  0.2126  0.8553
  855MOL0     C15336   8.983   4.262   2.955 -0.2221  0.6305 -0.0885
  855MOL0     C15337   9.117   4.269   2.980  0.3030  0.1798 -0.0234
  855MOL0     O15338   9.288   4.557   2.981 -0.1997  0.2732  0.2086
  855MOL0     C15339   9.584   4.416   3.118  0.0497 -0.8861  0.7528
  855MOL0     C15340   9.713   4.387   3.095 -0.5495 -0.3928  0.1741
  855MOL0     N15341  10.596   4.276   3.191  0.9423  0.6146 -1.0756
  855MOL0     N15342  10.631   4.221   3.301  0.0737  0.3658  0.5595
  855MOL0     C15343   9.805   4.212   3.973  0.3681 -0.3589  0.1719
  855MOL0     C15344   9.759   4.116   4.063 -0.5709 -0.2483 -0.1203
  855MOL0     C15345   9.608   3.795   4.310 -0.1127  0.4238  0.1439
  855MOL0     C15346   9.662   3.690   4.375 -0.3326  0.2241  0.6689
  855MOL0     C15347   9.584   3.612   4.461  0.8794  0.1411  0.7052
  855MOL0     C15348   9.451   3.644   4.474  1.3398  0.1417  0.2361
  855MOL0     O15349   9.381   3.564   4.562 -0.5014 -0.9638 -0.2698
  855MOL0     C15350   9.238   3.586   4.576 -0.9389  1.2333 -0.4045
  855MOL0     C15351   9.165   3.499   4.474 -0.2135  0.0372  0.0521
  855MOL0     C15352   9.015   3.526   4.479  0.6939 -0.2444 -0.0504
  855MOL0     C15353   8.934   3.449   4.374  0.0323  0.2523  0.0916
  855MOL0     C15354   8.951   3.299   4.361 -0.8627 -0.6258 -0.0723
  855MOL0     C15355   8.983   3.187   4.343 -0.5331  0.2377  0.1883
  855MOL0     C15356   9.393   3.739   4.397 -0.0585 -0.0800  0.7190
  855MOL0     C15357   9.473   3.820   4.318 -0.1661 -0.8909 -0.1595
  855MOL0     H15358   9.524   3.972   3.856  0.5788  0.0563 -2.5895
  855MOL0     H15359   9.607   4.124   3.704 -0.2211 -0.3642  0.3043
  855MOL0     H15360   9.663   4.339   3.611  0.5712  0.8286 -2.0402
  855MOL0     H15361   9.800   4.445   3.604 -1.1625  1.1783  2.9844
  855MOL0     H15362   9.816   4.131   3.569  1.6068 -0.2192 -0.1466
  855MOL0     H15363   9.815   4.255   3.436 -0.4703  2.4382  0.5511
  855MOL0     H15364  10.021   4.337   3.499 -0.3235  1.7561  2.6238
  855MOL0     H15365  10.033   4.238   3.647 -0.4847  0.1959  0.3513
  855MOL0     H15366   9.998   4.038   3.491  0.9246 -0.3905 -0.6384
  855MOL0     H15367  10.091   4.133   3.369  3.4850 -0.7671 -0.3525
  855MOL0     H15368  10.175   4.049   3.647 -1.9031 -1.5327 -0.9916
  855MOL0     H15369  10.243   3.984   3.500 -1.9177 -0.7653  0.7160
  855MOL0     H15370  10.292   4.254   3.451  1.3232 -2.5217 -1.3888
  855MOL0     H15371  10.245   4.269   3.611 -0.7801  0.1332  0.0700
  855MOL0     H15372  10.497   4.252   3.599  1.9145 -0.9663  4.4797
  855MOL0     H15373  10.432   4.103   3.673  0.1055  0.1909 -0.7676
  855MOL0     H15374  10.467   3.980   3.464  2.7389 -1.4837  0.6751
  855MOL0     H15375  10.620   4.063   3.513  1.5733  1.4344 -2.5718
  855MOL0     H15376  10.333   4.096   3.273 -0.3928 -0.4179 -1.4014
  855MOL0     H15377  10.434   4.346   2.984 -1.0426  1.0404  1.5810
  855MOL0     H15378  10.374   4.191   2.969 -3.9378  0.5111 -0.0668
  855MOL0     H15379  10.256   4.398   3.155  3.5779  0.3537 -0.8684
  855MOL0     H15380  10.189   4.226   3.157 -0.5033 -1.1625 -1.4105
  855MOL0     H15381  10.143   4.257   2.931 -2.9984 -2.0409  2.0927
  855MOL0     H15382  10.159   4.438   2.946  2.8158 -0.9245  0.0363
  855MOL0     H15383   9.985   4.415   3.136 -0.8211  1.4198 -0.7650
  855MOL0     H15384   9.963   4.254   3.068  0.2272  0.2081  0.6708
  855MOL0     H15385   9.741   4.439   2.764 -3.1206 -0.5732 -1.6973
  855MOL0     H15386   9.444   4.572   2.735 -3.2394 -1.4477  2.9856
  855MOL0     H15387   9.521   4.422   2.672  0.3104  3.2547 -1.6213
  855MOL0     H15388   9.374   4.425   2.784 -2.0739  2.1503  0.7880
  855MOL0     H15389   9.110   4.439   3.269  4.0518 -1.3937 -0.3537
  855MOL0     H15390   8.872   4.409   3.233  1.4629  0.0430  0.7554
  855MOL0     H15391   8.678   4.247   3.194  2.8881 -0.1688 -0.2303
  855MOL0     H15392   8.624   4.400   3.127 -2.8032 -1.5978 -1.4297
  855MOL0     H15393   8.505   4.294   2.946  0.6116  0.9833  0.0734
  855MOL0     H15394   8.547   4.132   3.013  2.5199 -0.1336 -0.5607
  855MOL0     H15395   8.334   4.189   3.074  2.5854 -1.9335 -0.7136
  855MOL0     H15396   8.382   4.352   3.142 -3.4359  0.7438 -1.3167
  855MOL0     H15397   8.501   4.090   3.251 -0.6050  0.1383  2.5956
  855MOL0     H15398   8.447   4.243   3.332 -1.0371 -0.6152  0.0362
  855MOL0     H15399   8.256   4.043   3.231 -0.2369  0.5935 -0.1974
  855MOL0     H15400   8.238   4.206   3.311 -0.5430 -0.9183  2.5278
  855MOL0     H15401   8.352   3.956   3.434 -0.3051 -0.1688  0.3810
  855MOL0     H15402   8.316   4.111   3.520 -0.2704 -0.8677  0.8912
  855MOL0     H15403   8.113   3.935   3.388 -0.1700 -0.9907 -0.0583
  855MOL0     H15404   8.074   4.083   3.466  1.4625 -0.1187 -1.1553
  855MOL0     H15405   8.141   3.977   3.680 -0.5533 -1.9206  0.4112
  855MOL0     H15406   8.186   3.830   3.602  1.1151  1.0933  2.0853
  855MOL0     H15407   8.950   4.222   2.860 -0.3325  3.3144 -1.2501
  855MOL0     H15408   9.190   4.224   2.914  0.2339  1.1339 -0.7649
  855MOL0     H15409   9.538   4.402   3.216  0.5368 -1.5147  0.8933
  855MOL0     H15410   9.769   4.351   3.181 -1.2799  0.4003  1.0173
  855MOL0     H15411   9.882   4.285   3.996 -0.6503  0.9294 -0.4453
  855MOL0     H15412   9.799   4.118   4.164 -1.4369 -0.0729  0.2207
  855MOL0     H15413   9.765   3.661   4.354 -0.0649  1.5729  0.0567
  855MOL0     H15414   9.634   3.545   4.530  1.5731 -2.0182 -1.7403
  855MOL0     H15415   9.215   3.555   4.678  2.5446 -1.7696 -0.3052
  855MOL0     H15416   9.209   3.691   4.566  1.7600  2.0043 -1.1461
  855MOL0     H15417   9.181   3.395   4.505 -2.3155  0.0593  1.4154
  855MOL0     H15418   9.205   3.518   4.374  0.6607  3.2923  0.9205
  855MOL0     H15419   9.009   3.633   4.456 -0.2230  0.0578  1.4633
  855MOL0     H15420   8.974   3.514   4.580  1.9905  0.9467  0.6484
  855MOL0     H15421   8.946   3.493   4.275 -0.9710 -0.0332 -0.1644
  855MOL0     H15422   8.829   3.458   4.404  0.3587 -0.7705  1.6754
  855MOL0     H15423   9.007   3.091   4.304 -1.1083  1.1064 -2.5402
  855MOL0     H15424   9.287   3.761   4.396  0.1670  1.1391  1.3881
  855MOL0     H15425   9.424   3.897   4.258 -0.1046 -0.6561  0.0897
  856MOL0     O15426   1.223   7.122   6.229 -0.3111  0.3108  0.0832
  856MOL0     C15427   1.151   7.022   6.234 -0.6512 -0.0115 -0.2673
  856MOL0     O15428   1.197   6.896   6.254  0.0009  0.4921 -0.8887
  856MOL0     C15429   1.331   6.879   6.255 -0.7753 -0.8366 -0.2494
  856MOL0     C15430   1.403   6.882   6.140 -0.5152  0.1433 -0.5887
  856MOL0     C15431   1.539   6.852   6.146 -0.0149 -0.1420 -0.4319
  856MOL0     C15432   1.603   6.829   6.271 -0.2712  0.6902  0.5150
  856MOL0     O15433   1.738   6.794   6.279  0.6303  0.1571  0.1142
  856MOL0     C15434   1.794   6.682   6.203  0.4387  0.1184  0.3503
  856MOL0     C15435   1.943   6.661   6.219 -0.2122 -0.2105  0.0774
  856MOL0     C15436   1.998   6.523   6.168 -0.0822 -0.0678 -0.5955
  856MOL0     C15437   1.963   6.413   6.272  0.4695  0.4000  0.1786
  856MOL0     C15438   2.005   6.269   6.241  0.0246  0.0600  0.3153
  856MOL0     C15439   1.976   6.177   6.364 -0.3159  0.1465  0.6512
  856MOL0     C15440   1.832   6.123   6.390 -0.0265  0.1220 -0.5049
  856MOL0     C15441   1.715   6.214   6.411 -0.1072 -1.0923  0.5056
  856MOL0     N15442   1.713   6.287   6.543  0.4902  0.3384 -0.1172
  856MOL0     C15443   1.787   6.399   6.584 -0.2079 -0.1857 -0.4638
  856MOL0     C15444   1.753   6.417   6.716  0.7623 -0.4667  0.3323
  856MOL0     C15445   1.826   6.513   6.806 -0.2869  0.1894 -0.4302
  856MOL0     C15446   1.948   6.450   6.875 -0.0889  0.0602  0.5513
  856MOL0     C15447   2.048   6.398   6.767 -0.0883 -0.4944  0.2122
  856MOL0     C15448   2.188   6.358   6.821  0.1519  0.1405  0.2245
  856MOL0     O15449   2.187   6.243   6.910  0.4304  0.0607  0.2110
  856MOL0     C15450   2.244   6.261   7.032 -0.5903  0.2445  0.9806
  856MOL0     C15451   2.353   6.346   7.066 -0.7521 -0.1395  0.7346
  856MOL0     C15452   2.403   6.358   7.195  0.5251  0.6263  0.4615
  856MOL0     C15453   2.541   6.428   7.204  0.2919 -0.2289  0.0733
  856MOL0     C15454   2.335   6.292   7.303  0.3179  0.3465  0.6963
  856MOL0     C15455   2.369   6.290   7.449  0.4646 -0.3790 -0.5192
  856MOL0     O15456   2.266   6.284   7.535 -0.2264 -0.4969 -0.9162
  856MOL0     C15457   2.293   6.266   7.669  0.1030 -0.3484 -0.2445
  856MOL0     C15458   2.346   6.146   7.719 -0.3435 -0.0231  0.3094
  856MOL0     C15459   2.360   6.132   7.859 -0.8944 -0.0579  0.5686
  856MOL0     C15460   2.338   6.234   7.945 -0.1184  0.4633 -0.9200
  856MOL0     O15461   2.374   6.209   8.080  0.3201  0.3001  0.8171
  856MOL0     C15462   2.393   6.308   8.175  0.1693 -0.4706  0.6522
  856MOL0     C15463   2.399   6.248   8.305  0.4192  0.1165 -0.1886
  856MOL0     C15464   2.269   6.212   8.373  0.2061  0.1668  0.5540
  856MOL0     C15465   2.192   6.094   8.312 -0.3254 -0.5476  0.5018
  856MOL0     C15466   2.285   5.971   8.294  0.2016  0.5372  0.4158
  856MOL0     C15467   2.194   5.856   8.250  0.3335  0.0071  0.5978
  856MOL0     C15468   2.279   5.734   8.208 -0.8871 -0.0690  0.9725
  856MOL0     C15469   2.318   5.662   8.330  0.5445  0.4625 -0.0146
  856MOL0    Cl15470   2.437   5.528   8.283 -0.1986 -0.0464 -0.1797
  856MOL0     C15471   2.288   6.350   7.898  0.9598 -0.0789  0.2875
  856MOL0     C15472   2.259   6.363   7.763 -0.6480 -0.1955 -0.0818
  856MOL0     O15473   2.491   6.293   7.481  0.0729 -0.2930 -0.0521
  856MOL0     C15474   2.235   6.203   7.267  0.3183 -0.0073 -0.1073
  856MOL0     C15475   2.180   6.201   7.139 -0.9434 -0.1077  0.9308
  856MOL0     N15476   1.659   6.317   6.747 -0.0270  0.4327 -0.0804
  856MOL0     N15477   1.628   6.250   6.638 -1.0650 -0.2207  0.6772
  856MOL0     C15478   1.533   6.828   6.388  0.5661  0.6062  0.3159
  856MOL0     C15479   1.394   6.848   6.376 -0.2051  0.8343  0.3122
  856MOL0     C15480   1.014   7.039   6.192  0.1572  0.2259  0.1098
  856MOL0     C15481   0.948   7.159   6.214  0.0431 -0.4848  0.0481
  856MOL0     C15482   0.809   7.173   6.198  0.1432 -0.1937 -0.8141
  856MOL0     C15483   0.733   7.073   6.135 -0.5977 -0.0499 -0.2983
  856MOL0     O15484   0.601   7.075   6.102  0.0807  0.0589  0.2399
  856MOL0     C15485   0.518   7.127   6.205  0.0941 -0.7626  0.4234
  856MOL0     C15486   0.371   7.073   6.179 -1.1775 -0.1091  0.3446
  856MOL0     C15487   0.378   6.923   6.215 -0.1630 -0.4680  0.7932
  856MOL0     C15488   0.250   6.846   6.176  0.5442  0.0310 -0.5565
  856MOL0     C15489   0.137   6.913   6.242 -0.0567  0.2000  0.7166
  856MOL0     C15490   0.034   6.959   6.291 -0.1342  0.1741 -0.7501
  856MOL0     C15491   0.798   6.958   6.102 -0.4907  0.1830  0.4294
  856MOL0     C15492   0.937   6.940   6.135 -0.3508  0.5848 -1.0380
  856MOL0     H15493   1.353   6.910   6.048 -5.7336  2.2535  2.4332
  856MOL0     H15494   1.603   6.853   6.059  2.8919 -0.3032  1.5616
  856MOL0     H15495   1.738   6.588   6.213 -3.1427  1.5217 -3.7184
  856MOL0     H15496   1.768   6.698   6.098 -0.6626 -1.5822  0.3146
  856MOL0     H15497   1.987   6.739   6.155 -2.0804  0.4265 -0.4770
  856MOL0     H15498   1.971   6.675   6.324  0.7776  2.0590 -0.4246
  856MOL0     H15499   1.959   6.502   6.068  2.5425 -1.7807 -1.3553
  856MOL0     H15500   2.105   6.532   6.151 -0.6395  1.5203 -4.1658
  856MOL0     H15501   2.001   6.437   6.371  1.0327  2.4271 -0.4631
  856MOL0     H15502   1.854   6.424   6.279  0.4026  3.0034 -2.5467
  856MOL0     H15503   1.960   6.231   6.149 -1.6585 -0.5470  1.3461
  856MOL0     H15504   2.112   6.249   6.236 -0.0882 -0.5607  0.3192
  856MOL0     H15505   2.032   6.084   6.352  0.2780 -0.2277  4.8345
  856MOL0     H15506   2.011   6.223   6.457  3.1726  0.8226 -0.8406
  856MOL0     H15507   1.807   6.051   6.311 -2.6838  0.7707 -0.3605
  856MOL0     H15508   1.829   6.078   6.490 -0.9031  1.6827  0.2068
  856MOL0     H15509   1.619   6.161   6.418 -1.0149  0.6984  2.8991
  856MOL0     H15510   1.704   6.283   6.327 -0.3880 -3.2486 -1.3362
  856MOL0     H15511   1.866   6.452   6.532 -0.2346 -1.8144 -2.2914
  856MOL0     H15512   1.856   6.606   6.757 -0.5092  0.6405  0.2783
  856MOL0     H15513   1.757   6.536   6.887 -0.4175 -1.1448 -0.1354
  856MOL0     H15514   1.918   6.360   6.929 -0.3952 -0.9636 -1.2429
  856MOL0     H15515   1.998   6.528   6.933  0.6373 -0.9576  1.3444
  856MOL0     H15516   2.052   6.478   6.692 -2.4768  2.6499  3.0628
  856MOL0     H15517   2.009   6.308   6.720 -3.8286  0.4998  1.0529
  856MOL0     H15518   2.220   6.452   6.866 -0.2250  1.4361 -2.0511
  856MOL0     H15519   2.255   6.333   6.739 -0.3969 -0.0949 -0.1608
  856MOL0     H15520   2.395   6.409   6.988 -1.9597 -0.7315 -0.4388
  856MOL0     H15521   2.627   6.367   7.232  1.6483  0.6256 -1.9844
  856MOL0     H15522   2.568   6.469   7.106  1.4026  2.2752  1.3326
  856MOL0     H15523   2.543   6.507   7.280  2.4168  1.7335 -1.8572
  856MOL0     H15524   2.352   6.068   7.645 -3.4684  1.5341 -1.8197
  856MOL0     H15525   2.387   6.036   7.902 -0.6238  0.0882  0.7330
  856MOL0     H15526   2.480   6.363   8.139 -0.4519 -2.2019 -4.3901
  856MOL0     H15527   2.302   6.368   8.172  1.6227  1.9301  1.6108
  856MOL0     H15528   2.467   6.162   8.310  0.8445  0.4490 -0.1674
  856MOL0     H15529   2.453   6.322   8.365  0.0231  1.1747 -1.1102
  856MOL0     H15530   2.214   6.307   8.374  2.3498  1.5985 -2.5496
  856MOL0     H15531   2.298   6.186   8.475 -0.4247  0.9320  0.9456
  856MOL0     H15532   2.122   6.067   8.392 -4.7036  0.2929 -2.7322
  856MOL0     H15533   2.147   6.124   8.218 -0.2515 -0.1090  0.6066
  856MOL0     H15534   2.345   5.944   8.381 -1.9547 -1.2085  1.4575
  856MOL0     H15535   2.353   5.986   8.210  0.3354 -0.3700  0.3519
  856MOL0     H15536   2.149   5.829   8.346 -0.2745 -1.2247 -0.0089
  856MOL0     H15537   2.117   5.881   8.177 -0.0534  1.8331  1.5578
  856MOL0     H15538   2.367   5.765   8.152  1.6394 -1.6929  3.7656
  856MOL0     H15539   2.222   5.678   8.133  0.0016 -1.6110  1.4130
  856MOL0     H15540   2.224   5.624   8.372 -0.5291  0.0030 -2.6296
  856MOL0     H15541   2.370   5.722   8.404 -0.9699  0.0810  1.4191
  856MOL0     H15542   2.273   6.438   7.959 -0.1762  0.3520 -0.5815
  856MOL0     H15543   2.215   6.456   7.727 -0.0198  0.0693 -0.1828
  856MOL0     H15544   2.183   6.130   7.328  2.5822 -1.0564  0.6634
  856MOL0     H15545   2.093   6.140   7.120  0.2988 -1.3102 -1.2445
  856MOL0     H15546   1.582   6.803   6.482 -4.1799 -2.8150  2.3181
  856MOL0     H15547   1.349   6.848   6.475 -0.5461 -3.6819  0.3451
  856MOL0     H15548   0.994   7.253   6.242  0.0492 -0.4231 -0.1674
  856MOL0     H15549   0.756   7.263   6.231 -0.0089 -1.1680  1.8159
  856MOL0     H15550   0.554   7.096   6.303  3.0733  1.1061  0.0219
  856MOL0     H15551   0.512   7.236   6.200  2.9657 -0.5863 -2.2360
  856MOL0     H15552   0.353   7.090   6.072  4.6809  1.7323 -0.7027
  856MOL0     H15553   0.295   7.131   6.233  0.3017  0.9666  1.3456
  856MOL0     H15554   0.419   6.911   6.315  2.4191 -0.3411 -0.1592
  856MOL0     H15555   0.463   6.887   6.156 -0.6090  0.7691 -0.7065
  856MOL0     H15556   0.270   6.745   6.212  2.9519  0.0372 -1.6685
  856MOL0     H15557   0.230   6.838   6.068 -0.4390  1.7545 -0.5457
  856MOL0     H15558  -0.035   7.017   6.348  0.2032 -0.0534 -0.1010
  856MOL0     H15559   0.743   6.881   6.048  2.1453 -1.3449 -0.3024
  856MOL0     H15560   0.979   6.841   6.120 -1.0491  0.0803  0.2235
  857MOL0     O15561   5.323   3.983   7.537  0.3556  0.5701 -0.1018
  857MOL0     C15562   5.282   4.032   7.431  0.0326 -0.7551  0.2965
  857MOL0     O15563   5.360   4.044   7.319  0.7306 -0.1665  0.3203
  857MOL0     C15564   5.479   3.969   7.314 -0.2275 -0.3276 -0.0385
  857MOL0     C15565   5.493   3.839   7.363  0.7422 -0.5993  0.1669
  857MOL0     C15566   5.620   3.770   7.354 -0.2217 -1.4731 -0.0262
  857MOL0     C15567   5.734   3.846   7.304  0.3857  0.1613  0.3870
  857MOL0     O15568   5.849   3.769   7.288  0.2115 -0.4125 -0.0523
  857MOL0     C15569   5.977   3.841   7.282  0.1564 -0.2495  0.1715
  857MOL0     C15570   6.091   3.774   7.358 -1.2684  0.1720 -0.0671
  857MOL0     C15571   6.078   3.631   7.393 -0.5047  0.7818  0.6663
  857MOL0     C15572   6.071   3.531   7.262 -0.8678 -0.1572 -0.8684
  857MOL0     C15573   6.045   3.381   7.308 -0.0561 -0.1810  0.0792
  857MOL0     C15574   5.891   3.366   7.343 -1.1577  0.2937 -0.0150
  857MOL0     C15575   5.863   3.213   7.368 -0.2332  0.0951 -0.1583
  857MOL0     C15576   5.722   3.175   7.413  0.5905 -0.3883 -0.2987
  857MOL0     N15577   5.613   3.213   7.328  0.3818  0.5543  0.2130
  857MOL0     C15578   5.538   3.329   7.331 -0.1273  0.4874 -0.9516
  857MOL0     C15579   5.434   3.312   7.245  0.1616  0.0113 -0.1324
  857MOL0     C15580   5.323   3.390   7.206 -0.5754 -0.4991  0.2116
  857MOL0     C15581   5.273   3.485   7.323 -0.2320 -0.2127 -0.5616
  857MOL0     C15582   5.160   3.571   7.263  0.3763 -0.4202 -0.6449
  857MOL0     C15583   5.086   3.651   7.367 -0.0106 -0.3349  0.0866
  857MOL0     O15584   4.994   3.735   7.297  0.1082 -0.2821 -0.4557
  857MOL0     C15585   4.860   3.731   7.319 -0.8055 -0.0540 -0.3157
  857MOL0     C15586   4.792   3.613   7.325 -0.0108  0.1888  0.3211
  857MOL0     C15587   4.656   3.612   7.341  0.7191 -0.0336 -0.4664
  857MOL0     C15588   4.592   3.478   7.361 -0.3676 -0.4360 -0.0208
  857MOL0     C15589   4.586   3.722   7.367  0.4367 -0.8245 -0.3334
  857MOL0     C15590   4.444   3.742   7.394  0.4476 -0.8849  0.1708
  857MOL0     O15591   4.383   3.853   7.339 -0.1774  1.1280 -0.8364
  857MOL0     C15592   4.245   3.869   7.342 -0.4729  1.2149 -0.1602
  857MOL0     C15593   4.163   3.765   7.294  1.3789  0.3104 -0.1909
  857MOL0     C15594   4.019   3.772   7.274 -0.1287  1.1078 -0.1511
  857MOL0     C15595   3.960   3.894   7.304 -0.4618 -0.5660  1.0356
  857MOL0     O15596   3.825   3.927   7.289  0.8347  0.1081  0.3986
  857MOL0     C15597   3.731   3.829   7.251  0.2239  0.5134 -0.5189
  857MOL0     C15598   3.591   3.891   7.269 -0.0854  0.4952  0.3499
  857MOL0     C15599   3.571   4.023   7.190  0.2801  0.3428  1.4499
  857MOL0     C15600   3.505   4.135   7.280  0.4605  0.0427  0.5666
  857MOL0     C15601   3.397   4.220   7.207 -0.5173  0.4367 -0.1749
  857MOL0     C15602   3.270   4.159   7.160 -0.4321  0.2664 -0.0208
  857MOL0     C15603   3.208   4.230   7.037 -0.0041  0.1684 -0.2266
  857MOL0     C15604   3.071   4.158   6.998 -0.0964 -0.7615 -0.7735
  857MOL0    Cl15605   2.958   4.205   7.137  0.1619  0.2759 -0.2141
  857MOL0     C15606   4.046   4.003   7.342 -0.6277 -0.3292 -0.3185
  857MOL0     C15607   4.187   3.993   7.349  0.6628  0.2039 -0.1352
  857MOL0     O15608   4.389   3.656   7.464  0.2611  0.4305 -0.5069
  857MOL0     C15609   4.653   3.848   7.360 -0.5992 -0.3144  0.1222
  857MOL0     C15610   4.788   3.851   7.340 -0.4340  0.3312 -0.6329
  857MOL0     N15611   5.466   3.201   7.171  0.6775  0.1643 -0.0667
  857MOL0     N15612   5.563   3.138   7.231 -0.0839  0.7141  0.8626
  857MOL0     C15613   5.711   3.978   7.255 -0.4225  0.1380  0.5385
  857MOL0     C15614   5.585   4.041   7.263 -0.0550  0.2156 -0.9817
  857MOL0     C15615   5.147   4.089   7.443 -1.4495 -0.0684  1.0080
  857MOL0     C15616   5.084   4.135   7.323 -0.4014 -0.2059 -0.0379
  857MOL0     C15617   4.956   4.191   7.330 -0.0789  0.4911 -0.0485
  857MOL0     C15618   4.890   4.206   7.441 -0.4278 -0.2081 -0.8465
  857MOL0     O15619   4.766   4.260   7.460 -0.2067  0.2626 -0.2063
  857MOL0     C15620   4.695   4.284   7.339 -0.5872 -0.3068  0.0298
  857MOL0     C15621   4.557   4.316   7.364  0.8740 -0.0976 -0.3739
  857MOL0     C15622   4.537   4.464   7.432  0.0273  0.1593 -0.2856
  857MOL0     C15623   4.388   4.487   7.451 -0.4975 -0.0818 -0.4672
  857MOL0     C15624   4.318   4.540   7.334 -0.0348  0.4665  0.7542
  857MOL0     C15625   4.292   4.572   7.219  0.1547  0.5496  1.0416
  857MOL0     C15626   4.952   4.160   7.560 -0.4286  0.0313 -0.5359
  857MOL0     C15627   5.077   4.094   7.556  0.3974  0.4162  0.1606
  857MOL0     H15628   5.406   3.790   7.405  2.6347 -1.3696  3.6520
  857MOL0     H15629   5.630   3.666   7.382 -0.4165 -1.5885 -0.3790
  857MOL0     H15630   6.014   3.832   7.180  2.1054  2.9462  0.4487
  857MOL0     H15631   5.969   3.946   7.311 -1.5390  0.1118 -1.4407
  857MOL0     H15632   6.187   3.801   7.315 -1.3322  0.8220  0.1751
  857MOL0     H15633   6.101   3.813   7.460  1.8915 -0.8111  0.1091
  857MOL0     H15634   6.161   3.600   7.458  0.1552 -2.5518 -1.4993
  857MOL0     H15635   5.985   3.626   7.450 -1.4260  1.2990 -0.7311
  857MOL0     H15636   5.998   3.574   7.193 -0.7084  0.3932 -0.7000
  857MOL0     H15637   6.166   3.532   7.208 -0.3604 -0.3802  0.0020
  857MOL0     H15638   6.082   3.307   7.235 -1.1279 -2.7572  1.9891
  857MOL0     H15639   6.093   3.364   7.405 -0.7119  1.0355  0.6311
  857MOL0     H15640   5.866   3.425   7.432 -1.0725 -0.0416  0.2300
  857MOL0     H15641   5.834   3.388   7.252  0.8108 -2.3781 -2.0315
  857MOL0     H15642   5.891   3.157   7.278  2.5514  1.4483 -0.2578
  857MOL0     H15643   5.919   3.168   7.451 -1.2470 -0.1496  0.4124
  857MOL0     H15644   5.707   3.215   7.513  1.0389  1.4459 -0.9202
  857MOL0     H15645   5.715   3.066   7.418  1.4306 -0.4409 -0.0811
  857MOL0     H15646   5.540   3.401   7.413 -0.1963 -0.0069 -0.5074
  857MOL0     H15647   5.341   3.445   7.113  0.3675  2.2581  1.9073
  857MOL0     H15648   5.242   3.327   7.167  0.1045  0.3609 -2.9126
  857MOL0     H15649   5.350   3.551   7.364 -1.8312  0.1397  2.1223
  857MOL0     H15650   5.242   3.424   7.409  2.5315  2.2128  2.4394
  857MOL0     H15651   5.096   3.498   7.213  1.2706 -1.3443 -0.4918
  857MOL0     H15652   5.192   3.641   7.185  1.6524 -1.2499 -0.8987
  857MOL0     H15653   5.156   3.708   7.429  0.6633 -2.5936  1.5223
  857MOL0     H15654   5.035   3.591   7.443  0.2959 -0.7381 -0.0230
  857MOL0     H15655   4.833   3.512   7.323 -0.5056 -0.0190 -1.9467
  857MOL0     H15656   4.656   3.403   7.314 -0.0443  0.1007 -0.4490
  857MOL0     H15657   4.599   3.468   7.469 -1.8582  1.3063  0.2833
  857MOL0     H15658   4.486   3.463   7.337 -1.7585  2.0280  3.6420
  857MOL0     H15659   4.211   3.672   7.266  0.6909  0.1697 -0.9331
  857MOL0     H15660   3.955   3.690   7.243  1.1847  0.2732 -0.7036
  857MOL0     H15661   3.753   3.791   7.151 -1.3939 -2.7545  0.2167
  857MOL0     H15662   3.723   3.739   7.313 -2.3118 -0.4142 -2.0288
  857MOL0     H15663   3.525   3.818   7.220  2.6239 -2.0352  0.2042
  857MOL0     H15664   3.570   3.911   7.374 -0.6484  0.0681  0.3254
  857MOL0     H15665   3.514   4.011   7.098  2.1220  0.8778  0.1734
  857MOL0     H15666   3.669   4.055   7.151  0.8422 -0.5403  2.0830
  857MOL0     H15667   3.456   4.096   7.370  1.6163 -3.0461 -0.0122
  857MOL0     H15668   3.592   4.198   7.302  1.1647 -1.3109  1.8292
  857MOL0     H15669   3.446   4.257   7.116  1.5154 -1.4899  0.0326
  857MOL0     H15670   3.379   4.306   7.272  0.5258  1.0580 -0.6630
  857MOL0     H15671   3.285   4.064   7.107  1.2067  1.3400 -1.6244
  857MOL0     H15672   3.194   4.146   7.237  0.4249  0.8764  0.9494
  857MOL0     H15673   3.274   4.208   6.953  0.3577 -3.4009  0.8325
  857MOL0     H15674   3.182   4.333   7.062  0.6230 -0.2544  2.5469
  857MOL0     H15675   3.092   4.057   6.963 -1.1843 -1.8844  1.6176
  857MOL0     H15676   3.024   4.214   6.917 -1.6181 -1.1978 -0.2288
  857MOL0     H15677   4.002   4.102   7.339  0.1915  0.0324 -1.0008
  857MOL0     H15678   4.250   4.079   7.366  1.3628 -0.1092 -1.1015
  857MOL0     H15679   4.603   3.944   7.370  2.1713  1.2798 -0.4867
  857MOL0     H15680   4.830   3.951   7.328 -1.3908  0.7114 -0.8531
  857MOL0     H15681   5.799   4.024   7.213  1.3483 -3.0633  0.4977
  857MOL0     H15682   5.570   4.147   7.243  1.2584  1.0998  2.0683
  857MOL0     H15683   5.130   4.132   7.225 -0.4165 -2.2748 -0.0215
  857MOL0     H15684   4.923   4.220   7.230  2.6752  3.3969 -0.2983
  857MOL0     H15685   4.737   4.375   7.293  0.1541 -1.0336 -0.7658
  857MOL0     H15686   4.698   4.204   7.264 -0.7085  1.1481 -1.6034
  857MOL0     H15687   4.510   4.238   7.425  0.6317  0.3593  0.0330
  857MOL0     H15688   4.507   4.308   7.267  2.5717 -0.7944 -1.2398
  857MOL0     H15689   4.583   4.543   7.372 -0.2574  2.0089  1.8077
  857MOL0     H15690   4.590   4.476   7.527  0.1640 -3.3572  0.2308
  857MOL0     H15691   4.362   4.557   7.532 -0.2601  1.6360 -1.8223
  857MOL0     H15692   4.341   4.391   7.475 -1.0743  0.0204 -1.1477
  857MOL0     H15693   4.251   4.599   7.123 -0.6127 -2.2743  0.5061
  857MOL0     H15694   4.903   4.171   7.656 -0.4127  1.1545 -0.6446
  857MOL0     H15695   5.124   4.052   7.644  1.8413 -0.9247 -1.1672
  858MOL0     O15696   9.555   0.059   4.815 -0.5160 -0.3280  0.1772
  858MOL0     C15697   9.599   0.002   4.720 -0.2311  0.2245 -0.0080
  858MOL0     O15698   9.539  -0.096   4.651 -0.1987 -0.6450 -0.3261
  858MOL0     C15699   9.425  -0.149   4.686 -0.1306  0.5693 -0.8907
  858MOL0     C15700   9.355  -0.199   4.583  0.0986  0.4109  0.1230
  858MOL0     C15701   9.221  -0.249   4.606 -0.8073  0.4354 -0.0197
  858MOL0     C15702   9.160  -0.254   4.729  0.6191 -0.3227  0.1299
  858MOL0     O15703   9.033  -0.308   4.748  0.1819 -0.1006 -0.4119
  858MOL0     C15704   8.944  -0.230   4.825  0.0636  0.4778 -0.3310
  858MOL0     C15705   8.798  -0.275   4.822 -0.4824  0.1896  0.0418
  858MOL0     C15706   8.711  -0.247   4.704 -0.2217 -0.1876  0.1167
  858MOL0     C15707   8.716  -0.098   4.662 -1.1792  0.7173  0.0370
  858MOL0     C15708   8.626  -0.068   4.539  0.6661  0.3161  0.0142
  858MOL0     C15709   8.482  -0.104   4.546 -0.4790  0.4782 -0.0430
  858MOL0     C15710   8.408  -0.020   4.650  0.9830 -1.2529 -0.0536
  858MOL0     C15711   8.258  -0.070   4.671 -0.1682 -0.6551 -0.1812
  858MOL0     N15712   8.202  -0.009   4.795  0.0378 -0.1278  0.8811
  858MOL0     C15713   8.063   0.004   4.818 -0.2768 -0.6335 -0.6443
  858MOL0     C15714   8.054   0.078   4.935 -0.6998  0.2477  0.3724
  858MOL0     C15715   7.930   0.136   4.997  0.8208  0.5616 -0.6216
  858MOL0     C15716   7.926   0.297   4.975  0.8297  0.0279  0.2005
  858MOL0     C15717   7.897   0.345   4.826 -0.2414  1.0963  0.0540
  858MOL0     C15718   7.748   0.331   4.785 -0.7316  0.0027  0.7576
  858MOL0     O15719   7.730   0.196   4.763 -0.0886 -0.0171  0.5857
  858MOL0     C15720   7.616   0.143   4.709  0.4961 -0.6112  0.1414
  858MOL0     C15721   7.606   0.011   4.664 -0.0685  0.2865 -0.5216
  858MOL0     C15722   7.496  -0.051   4.610 -0.2079 -0.3225 -0.0555
  858MOL0     C15723   7.503  -0.202   4.594  0.7524  1.3261 -0.6370
  858MOL0     C15724   7.376   0.025   4.596  0.4138 -0.1963 -0.1352
  858MOL0     C15725   7.254  -0.022   4.551  1.0785  0.2558 -0.3979
  858MOL0     O15726   7.183   0.049   4.459  0.1049  0.1105  0.5658
  858MOL0     C15727   7.092  -0.011   4.378  0.2255  0.3452 -0.0216
  858MOL0     C15728   7.138  -0.115   4.291 -0.3745 -0.3577 -0.7047
  858MOL0     C15729   7.041  -0.192   4.221  0.2098  0.8616  0.2321
  858MOL0     C15730   6.904  -0.166   4.236  0.6160  0.0749  0.4314
  858MOL0     O15731   6.821  -0.258   4.176 -0.4432  0.6787 -0.3476
  858MOL0     C15732   6.682  -0.265   4.207 -0.5684  0.4765 -0.0053
  858MOL0     C15733   6.615  -0.346   4.107  0.3545  0.6624 -0.2097
  858MOL0     C15734   6.674  -0.324   3.959 -0.3077  0.0480 -0.6099
  858MOL0     C15735   6.594  -0.407   3.865  0.6377  0.1873  0.1620
  858MOL0     C15736   6.630  -0.382   3.714 -0.3457 -0.9185  0.4509
  858MOL0     C15737   6.586  -0.512   3.628  1.2014 -0.1427  1.1624
  858MOL0     C15738   6.602  -0.490   3.481 -0.0920 -0.3061  0.3035
  858MOL0     C15739   6.551  -0.611   3.398  0.0292  0.1674 -0.1508
  858MOL0    Cl15740   6.545  -0.564   3.226  0.4280 -0.0806 -0.0010
  858MOL0     C15741   6.860  -0.053   4.311 -0.1193 -0.1845 -0.0021
  858MOL0     C15742   6.957   0.029   4.380  0.1911  1.0147 -0.0689
  858MOL0     O15743   7.204  -0.119   4.616 -0.0430 -0.4844  0.2907
  858MOL0     C15744   7.383   0.166   4.626 -0.5666 -0.4009  0.9031
  858MOL0     C15745   7.503   0.224   4.676  0.7770  0.0521  0.1765
  858MOL0     N15746   8.185   0.090   4.995 -1.1051  0.7733  0.3486
  858MOL0     N15747   8.264   0.030   4.908 -0.0861  0.7443  0.3246
  858MOL0     C15748   9.240  -0.211   4.842 -0.0857  0.2987 -0.0214
  858MOL0     C15749   9.367  -0.168   4.817  0.1362 -0.5671  0.9883
  858MOL0     C15750   9.737   0.027   4.677 -0.9815  0.8218 -0.7630
  858MOL0     C15751   9.766   0.093   4.567  0.3809  0.1173 -0.0061
  858MOL0     C15752   9.890   0.114   4.521  0.4253  0.3876  0.1171
  858MOL0     C15753  10.002   0.069   4.588 -0.3375  1.1206  0.0999
  858MOL0     O15754  10.120   0.111   4.535 -0.0450  0.5282  0.5202
  858MOL0     C15755  10.240   0.068   4.595 -0.9676  0.0528 -0.4839
  858MOL0     C15756  10.360   0.114   4.518  0.7840 -1.6093 -0.1571
  858MOL0     C15757  10.383   0.262   4.554  0.0810  0.6664 -0.5561
  858MOL0     C15758  10.315   0.363   4.452 -0.3126 -0.4636 -1.2260
  858MOL0     C15759  10.377   0.492   4.476  0.2756 -0.8138 -0.3717
  858MOL0     C15760  10.430   0.598   4.453 -0.9214 -0.1029 -0.0496
  858MOL0     C15761   9.971  -0.005   4.708 -0.1498  0.6216 -0.6726
  858MOL0     C15762   9.846  -0.032   4.749  0.7934 -0.4782 -0.0833
  858MOL0     H15763   9.377  -0.203   4.476  0.3591  0.3222  0.1780
  858MOL0     H15764   9.159  -0.281   4.523 -2.7662  1.1764  1.1084
  858MOL0     H15765   8.971  -0.234   4.931  2.1043 -2.7604 -0.8334
  858MOL0     H15766   8.944  -0.127   4.788  0.6826 -0.2922 -2.6462
  858MOL0     H15767   8.789  -0.379   4.855  0.0821  0.0553 -0.2172
  858MOL0     H15768   8.744  -0.215   4.896 -1.9824 -0.4501 -0.5113
  858MOL0     H15769   8.741  -0.315   4.624  1.1920 -0.1575  0.5891
  858MOL0     H15770   8.607  -0.264   4.733 -0.1261 -1.2573 -0.1283
  858MOL0     H15771   8.692  -0.039   4.750 -1.3861  0.2321  0.3071
  858MOL0     H15772   8.817  -0.066   4.635 -1.1878 -0.1446 -1.1056
  858MOL0     H15773   8.635   0.039   4.520  1.6144  0.1442 -0.5683
  858MOL0     H15774   8.665  -0.124   4.454  1.9251 -1.6806  1.8142
  858MOL0     H15775   8.442  -0.102   4.444  0.5917 -1.7825 -0.5822
  858MOL0     H15776   8.466  -0.209   4.571 -1.4975 -0.1112 -2.8100
  858MOL0     H15777   8.460  -0.035   4.745  0.5058 -1.0124  0.2503
  858MOL0     H15778   8.412   0.088   4.628 -1.2589 -0.9494  0.7697
  858MOL0     H15779   8.266  -0.179   4.674  1.0984 -0.5936 -0.4439
  858MOL0     H15780   8.194  -0.042   4.587 -2.1229 -5.4881 -0.6565
  858MOL0     H15781   7.981  -0.016   4.750  1.2017 -0.5267 -2.5425
  858MOL0     H15782   7.846   0.087   4.946 -1.7015  4.6853 -0.9026
  858MOL0     H15783   7.929   0.122   5.106 -3.8177  2.8811 -0.0790
  858MOL0     H15784   8.025   0.333   5.005  2.2029 -3.3965  0.3127
  858MOL0     H15785   7.849   0.344   5.037 -2.4310 -1.9116 -2.0668
  858MOL0     H15786   7.959   0.286   4.758 -1.7446 -1.7928  1.0406
  858MOL0     H15787   7.938   0.445   4.811  1.8801  0.5332  1.5882
  858MOL0     H15788   7.723   0.386   4.694  0.3855 -2.9590 -1.5190
  858MOL0     H15789   7.679   0.376   4.857 -2.9774  1.0268 -1.8637
  858MOL0     H15790   7.696  -0.043   4.691 -0.5738 -1.0303 -1.3401
  858MOL0     H15791   7.499  -0.243   4.493  0.0195  0.4380 -0.2600
  858MOL0     H15792   7.602  -0.233   4.629  1.0594  1.0384 -1.7306
  858MOL0     H15793   7.424  -0.257   4.647  2.3425 -3.5230 -2.7852
  858MOL0     H15794   7.241  -0.148   4.298 -0.5601 -0.7515  0.5693
  858MOL0     H15795   7.077  -0.271   4.157  0.7155  0.6105  0.8059
  858MOL0     H15796   6.662  -0.294   4.311  1.2178  0.3970  0.3617
  858MOL0     H15797   6.645  -0.164   4.193 -0.2827  0.6646  0.5426
  858MOL0     H15798   6.626  -0.451   4.136 -0.6003  1.1656  2.2068
  858MOL0     H15799   6.509  -0.321   4.115  0.7316  2.4283 -0.3853
  858MOL0     H15800   6.776  -0.362   3.967 -0.7393 -0.7944  3.1053
  858MOL0     H15801   6.674  -0.219   3.929  1.5017 -0.1827 -1.5074
  858MOL0     H15802   6.611  -0.513   3.887 -0.5720  0.0636  0.5627
  858MOL0     H15803   6.489  -0.382   3.883 -0.0386 -2.2620  0.0857
  858MOL0     H15804   6.735  -0.367   3.691 -0.3926  0.1702  0.8914
  858MOL0     H15805   6.570  -0.293   3.690  0.1322 -0.4184  1.0800
  858MOL0     H15806   6.645  -0.602   3.646  0.0885 -1.3686 -0.9564
  858MOL0     H15807   6.481  -0.538   3.643  0.0244  1.3962 -2.9859
  858MOL0     H15808   6.707  -0.466   3.461 -0.2250  0.6640  0.7116
  858MOL0     H15809   6.546  -0.403   3.445 -0.6066 -1.6541 -2.4096
  858MOL0     H15810   6.453  -0.644   3.431  0.7192  0.5155  2.4491
  858MOL0     H15811   6.625  -0.692   3.409  1.7355  1.2345 -2.6968
  858MOL0     H15812   6.754  -0.031   4.323 -1.2165 -4.2240 -0.8955
  858MOL0     H15813   6.915   0.103   4.449  0.9503 -0.4260  2.0528
  858MOL0     H15814   7.293   0.226   4.614 -0.3919  0.2508  2.4781
  858MOL0     H15815   7.510   0.326   4.714  2.4659 -0.4435  1.3037
  858MOL0     H15816   9.200  -0.209   4.943 -0.0341  0.9585 -0.0137
  858MOL0     H15817   9.415  -0.135   4.908 -0.7484 -0.4632  1.4281
  858MOL0     H15818   9.681   0.131   4.511 -0.5214 -1.1957  0.3987
  858MOL0     H15819   9.914   0.165   4.429  1.6219 -0.5606 -0.1318
  858MOL0     H15820  10.242   0.112   4.695 -1.2785 -1.6018  0.2913
  858MOL0     H15821  10.239  -0.041   4.607 -1.5270  0.1359  0.3036
  858MOL0     H15822  10.345   0.109   4.410  0.5377  1.5821 -0.3716
  858MOL0     H15823  10.440   0.046   4.549  2.5198  0.4358  0.1581
  858MOL0     H15824  10.490   0.287   4.563  0.4020 -1.2477  1.8558
  858MOL0     H15825  10.343   0.281   4.654  1.4306  3.2867 -0.4250
  858MOL0     H15826  10.207   0.366   4.471  0.1173  1.6429  1.3255
  858MOL0     H15827  10.337   0.340   4.347 -1.1639 -2.4983 -1.0112
  858MOL0     H15828  10.487   0.688   4.437  0.4423 -0.8707  0.2994
  858MOL0     H15829  10.057  -0.038   4.766  0.4839  0.8387 -1.4569
  858MOL0     H15830   9.824  -0.075   4.846 -0.6467  0.8784  0.2365
  859MOL0     O15831   9.601   9.121   9.520  0.7418  0.5486 -0.1590
  859MOL0     C15832   9.666   9.032   9.459 -0.4502 -1.1574 -0.3901
  859MOL0     O15833   9.621   8.952   9.356 -0.6452  0.9371  0.2880
  859MOL0     C15834   9.499   8.958   9.307  0.1899 -0.0634  1.1279
  859MOL0     C15835   9.381   8.971   9.383 -0.4421 -0.7409  0.9495
  859MOL0     C15836   9.254   8.947   9.325 -0.2859  0.1719  0.5188
  859MOL0     C15837   9.236   8.921   9.188  0.9911  0.7306 -0.5141
  859MOL0     O15838   9.112   8.899   9.131  0.9410 -0.7019  0.1060
  859MOL0     C15839   8.999   8.928   9.214  0.3573  0.0717  1.0271
  859MOL0     C15840   8.874   8.917   9.115 -0.1470 -0.9311 -0.1148
  859MOL0     C15841   8.875   9.038   9.024 -1.1674  0.5633 -0.2598
  859MOL0     C15842   8.829   9.164   9.102  1.1351 -0.1129 -0.7081
  859MOL0     C15843   8.871   9.297   9.048 -1.5269 -0.5744 -0.1308
  859MOL0     C15844   8.819   9.407   9.144 -1.0921  0.1422 -0.5228
  859MOL0     C15845   8.865   9.550   9.094 -0.2701  0.3006 -0.3185
  859MOL0     C15846   8.814   9.652   9.197  0.0642 -0.2395 -0.5352
  859MOL0     N15847   8.685   9.632   9.252  0.2710  0.2380 -1.0600
  859MOL0     C15848   8.563   9.667   9.202  0.7220  0.1511  0.2510
  859MOL0     C15849   8.480   9.652   9.302 -0.2240 -0.6099 -0.1846
  859MOL0     C15850   8.332   9.666   9.295 -0.2175 -0.0874 -0.0512
  859MOL0     C15851   8.267   9.752   9.403  0.5076 -0.8706  1.0827
  859MOL0     C15852   8.123   9.764   9.386  0.2184  0.6840 -0.1509
  859MOL0     C15853   8.048   9.631   9.353  0.4056 -0.4414 -0.3807
  859MOL0     O15854   8.088   9.531   9.451  0.2225 -0.0960 -0.0514
  859MOL0     C15855   8.046   9.399   9.422 -1.2399 -0.3206 -0.1134
  859MOL0     C15856   7.986   9.354   9.305 -0.5292  1.4656  1.0083
  859MOL0     C15857   7.954   9.220   9.288  0.2597  0.2244  0.0578
  859MOL0     C15858   7.869   9.185   9.162  0.2265 -1.0277  0.3095
  859MOL0     C15859   7.975   9.129   9.386 -0.8260  0.2823  0.4396
  859MOL0     C15860   7.942   8.986   9.379 -1.1497  1.2172 -0.1866
  859MOL0     O15861   7.942   8.923   9.506  0.0516 -0.1370  0.4389
  859MOL0     C15862   7.928   8.784   9.531 -0.2913 -0.4389 -0.2893
  859MOL0     C15863   7.959   8.679   9.447 -0.8587  0.6247  0.6173
  859MOL0     C15864   7.949   8.545   9.476  0.4946  0.0112  0.6290
  859MOL0     C15865   7.905   8.511   9.603 -0.0127  0.6410  0.6416
  859MOL0     O15866   7.873   8.377   9.629  0.3244 -0.1806  0.2237
  859MOL0     C15867   7.986   8.298   9.651  0.8339  0.9664  0.4554
  859MOL0     C15868   7.976   8.154   9.605  0.0440 -0.0811 -0.0885
  859MOL0     C15869   8.102   8.081   9.645  1.1668 -0.6008  0.4391
  859MOL0     C15870   8.075   7.932   9.645 -0.0843 -0.5232 -0.1787
  859MOL0     C15871   8.199   7.852   9.678  0.5883 -0.7808 -0.1832
  859MOL0     C15872   8.324   7.881   9.588  0.5671 -0.5311 -0.0578
  859MOL0     C15873   8.428   7.782   9.608  0.3687 -0.2170  1.0520
  859MOL0     C15874   8.564   7.850   9.584 -0.1948  0.3361  0.5499
  859MOL0    Cl15875   8.607   7.983   9.689  0.2154 -0.6528  0.2721
  859MOL0     C15876   7.872   8.611   9.694  0.6155 -0.1676 -0.0739
  859MOL0     C15877   7.882   8.745   9.658 -0.2676  0.0387 -0.6708
  859MOL0     O15878   7.924   8.916   9.277 -0.0540  0.8650 -0.3480
  859MOL0     C15879   8.044   9.173   9.507  0.0471 -0.1678 -0.5737
  859MOL0     C15880   8.079   9.307   9.520 -0.7713 -0.1313  1.1012
  859MOL0     N15881   8.550   9.600   9.410  0.7277 -0.8174 -0.4382
  859MOL0     N15882   8.675   9.596   9.382  0.1522 -0.7971  0.1320
  859MOL0     C15883   9.353   8.929   9.113 -0.8580 -0.4964  0.2710
  859MOL0     C15884   9.490   8.935   9.167 -0.1807  0.2723  0.0834
  859MOL0     C15885   9.806   9.006   9.508 -0.1651 -0.1567  0.7359
  859MOL0     C15886   9.852   9.058   9.631  0.4125  0.0889 -0.5906
  859MOL0     C15887   9.993   9.037   9.666  0.5867  0.1812 -0.0035
  859MOL0     C15888  10.057   8.930   9.601  0.6601  0.7656 -0.1678
  859MOL0     O15889  10.159   8.873   9.677 -0.6422  0.3874  0.0575
  859MOL0     C15890  10.168   8.730   9.673  0.2204 -0.1646  0.3675
  859MOL0     C15891  10.212   8.669   9.804 -0.8635 -0.1379 -0.0669
  859MOL0     C15892  10.148   8.728   9.933  0.8310  0.1096  0.0113
  859MOL0     C15893   9.994   8.725   9.928  0.5237  0.2546  0.3026
  859MOL0     C15894   9.940   8.594   9.918 -0.1166 -0.2775  0.6749
  859MOL0     C15895   9.906   8.482   9.886 -0.5384  0.1005 -0.5923
  859MOL0     C15896  10.000   8.863   9.488 -0.4315 -0.5803  0.2203
  859MOL0     C15897   9.886   8.915   9.432 -0.3341 -0.4593 -1.1497
  859MOL0     H15898   9.393   8.987   9.490  0.1805  2.8046  0.4623
  859MOL0     H15899   9.169   8.943   9.392 -0.2831 -1.1165  0.4717
  859MOL0     H15900   8.996   8.848   9.289 -1.4009 -3.5646 -2.5695
  859MOL0     H15901   9.003   9.026   9.263  0.2717 -0.0963  1.3785
  859MOL0     H15902   8.878   8.826   9.054  1.1419 -0.5344 -0.6547
  859MOL0     H15903   8.778   8.914   9.167 -1.0230  0.2454 -1.5671
  859MOL0     H15904   8.971   9.064   8.979 -2.7547  4.1342 -1.9915
  859MOL0     H15905   8.810   9.023   8.937 -0.1146 -2.1825 -0.6609
  859MOL0     H15906   8.722   9.164   9.125  1.7162  2.6311  2.8610
  859MOL0     H15907   8.870   9.148   9.202  2.0961  1.6187 -0.7803
  859MOL0     H15908   8.977   9.299   9.021 -0.6400 -1.2551  2.9451
  859MOL0     H15909   8.822   9.315   8.952 -0.1390  0.1053 -0.7355
  859MOL0     H15910   8.710   9.406   9.155 -0.8923  1.8531  4.2245
  859MOL0     H15911   8.856   9.387   9.245  1.5235 -2.4078 -1.8602
  859MOL0     H15912   8.975   9.554   9.092 -0.2446  1.5375  1.5579
  859MOL0     H15913   8.828   9.578   8.995  2.4855 -2.7589 -2.4494
  859MOL0     H15914   8.801   9.746   9.143 -1.5341  0.7605  1.4713
  859MOL0     H15915   8.904   9.655   9.260 -0.9026 -1.5751  1.0071
  859MOL0     H15916   8.543   9.689   9.098  1.7727  2.9585  0.5558
  859MOL0     H15917   8.308   9.698   9.193 -2.3467  0.2270  0.4903
  859MOL0     H15918   8.302   9.562   9.310 -0.1196 -0.2517 -0.9401
  859MOL0     H15919   8.315   9.850   9.405 -1.1350  0.1188 -1.5264
  859MOL0     H15920   8.293   9.704   9.497  0.9427 -1.8301  0.4867
  859MOL0     H15921   8.097   9.832   9.304  2.1252 -0.2506 -1.5832
  859MOL0     H15922   8.082   9.804   9.479  1.4234  2.6857 -0.4256
  859MOL0     H15923   8.074   9.601   9.251  0.2799  0.2102 -0.6100
  859MOL0     H15924   7.941   9.652   9.348  0.6048  0.5338 -0.6829
  859MOL0     H15925   7.963   9.430   9.231  2.3603  2.5611  1.1391
  859MOL0     H15926   7.854   9.265   9.089 -1.2796 -0.3580  1.3068
  859MOL0     H15927   7.919   9.107   9.104 -1.3817 -2.9739  1.3885
  859MOL0     H15928   7.769   9.151   9.189  0.3769 -1.2492  0.5904
  859MOL0     H15929   7.997   8.707   9.349 -1.1116 -0.0944  0.3053
  859MOL0     H15930   7.967   8.468   9.402 -1.1728 -0.1538  0.3561
  859MOL0     H15931   8.073   8.336   9.596 -0.0454  1.6688 -0.5094
  859MOL0     H15932   8.018   8.298   9.755 -3.3353 -0.6046  1.9127
  859MOL0     H15933   7.892   8.105   9.656  1.0085 -0.3080  1.3275
  859MOL0     H15934   7.956   8.164   9.497 -1.1629  0.4286  0.1602
  859MOL0     H15935   8.128   8.112   9.746  0.4425  0.3955  0.3451
  859MOL0     H15936   8.178   8.101   9.568  0.3007  2.1246  0.1757
  859MOL0     H15937   7.991   7.900   9.708 -2.1995 -0.9611 -3.0324
  859MOL0     H15938   8.037   7.905   9.546  1.0723 -1.6003 -0.3469
  859MOL0     H15939   8.184   7.745   9.663  3.1537 -1.0937 -0.9465
  859MOL0     H15940   8.220   7.869   9.784 -0.9918  0.6046 -0.0446
  859MOL0     H15941   8.294   7.880   9.483  0.6331  1.1087 -0.1214
  859MOL0     H15942   8.358   7.983   9.611  1.4325 -1.1675  1.6391
  859MOL0     H15943   8.400   7.707   9.534  0.1262  1.8585 -1.1022
  859MOL0     H15944   8.428   7.734   9.706  2.3512  1.9175  2.2082
  859MOL0     H15945   8.580   7.889   9.483  1.0990 -0.7703  0.3062
  859MOL0     H15946   8.640   7.772   9.593  2.1704  2.3982 -0.4370
  859MOL0     H15947   7.847   8.581   9.796  0.2784 -2.4320 -0.7614
  859MOL0     H15948   7.849   8.812   9.735 -0.0902  1.5168 -1.8334
  859MOL0     H15949   8.087   9.095   9.570  0.1969 -2.1445 -2.9656
  859MOL0     H15950   8.141   9.340   9.603  3.3755  1.6796 -2.2911
  859MOL0     H15951   9.334   8.915   9.007 -0.0333  0.5197 -0.0229
  859MOL0     H15952   9.573   8.926   9.099 -0.0856  0.7496  0.1296
  859MOL0     H15953   9.788   9.110   9.702 -1.3374 -1.7300 -0.7442
  859MOL0     H15954  10.034   9.080   9.757 -1.5875 -0.6760  1.4668
  859MOL0     H15955  10.066   8.690   9.664 -1.1986  2.5477  2.6472
  859MOL0     H15956  10.224   8.702   9.583  0.2599  2.0373 -0.3447
  859MOL0     H15957  10.320   8.681   9.815 -0.7632 -0.5700 -0.5277
  859MOL0     H15958  10.192   8.561   9.811  1.8832 -0.6706  0.3785
  859MOL0     H15959  10.185   8.830   9.943 -0.1846  0.6269 -1.1913
  859MOL0     H15960  10.191   8.669  10.014  2.4014 -1.4208 -1.8698
  859MOL0     H15961   9.932   8.791   9.866 -0.5905  0.8495  1.9608
  859MOL0     H15962   9.954   8.745  10.029 -4.3623 -3.5351 -0.4997
  859MOL0     H15963   9.862   8.389   9.855  0.1364  0.2255 -1.9960
  859MOL0     H15964  10.051   8.776   9.447  0.1703 -1.2939  2.3354
  859MOL0     H15965   9.847   8.887   9.335 -3.2662  2.4303 -0.9987
  860MOL0     O15966   9.864   4.672   5.020  0.1693 -0.1619 -0.6834
  860MOL0     C15967   9.904   4.597   4.930  0.1008  0.3576 -1.2026
  860MOL0     O15968   9.836   4.493   4.875  0.6720 -0.0632 -1.6180
  860MOL0     C15969   9.727   4.434   4.940  0.3260  0.2059  0.0032
  860MOL0     C15970   9.683   4.441   5.077  0.2498  0.0191 -0.2966
  860MOL0     C15971   9.573   4.367   5.119 -0.0622 -0.0781  0.1756
  860MOL0     C15972   9.504   4.289   5.038  1.5499 -0.7723  0.5492
  860MOL0     O15973   9.393   4.228   5.101  0.0224 -1.0806  0.4653
  860MOL0     C15974   9.343   4.103   5.051  0.0509  0.5008 -0.2505
  860MOL0     C15975   9.198   4.071   5.105  0.2564  0.4190 -0.5048
  860MOL0     C15976   9.180   4.074   5.259 -0.0267  0.9365 -0.3882
  860MOL0     C15977   9.034   4.024   5.299 -0.1312  0.0049 -0.2015
  860MOL0     C15978   9.012   4.005   5.450 -0.3787 -0.2037 -0.3894
  860MOL0     C15979   9.008   4.139   5.534 -0.2262 -0.4016  0.2874
  860MOL0     C15980   9.055   4.104   5.675  0.7505 -0.6304 -0.9539
  860MOL0     C15981   8.947   4.038   5.764 -0.1217  0.1875  0.3129
  860MOL0     N15982   8.941   3.895   5.742 -0.8053  0.3097 -0.0820
  860MOL0     C15983   9.052   3.811   5.738 -0.3674 -0.4345  0.1453
  860MOL0     C15984   9.002   3.692   5.690 -0.0328  0.7800  0.2551
  860MOL0     C15985   9.084   3.571   5.668 -0.1043  0.4623  0.7104
  860MOL0     C15986   9.004   3.441   5.668 -0.6254  0.1070 -0.2853
  860MOL0     C15987   9.105   3.327   5.634  0.0596 -1.1238 -1.1115
  860MOL0     C15988   9.037   3.191   5.643  0.6600 -0.2096 -0.3718
  860MOL0     O15989   8.921   3.189   5.553 -0.0573 -0.5840 -0.5323
  860MOL0     C15990   8.902   3.070   5.488 -0.3935 -0.5203  0.3326
  860MOL0     C15991   9.004   3.011   5.411  0.3149 -0.0216  1.1235
  860MOL0     C15992   8.981   2.892   5.337  0.2896 -0.1591  0.1233
  860MOL0     C15993   9.088   2.842   5.255 -0.4990 -0.4628 -0.9228
  860MOL0     C15994   8.855   2.828   5.340  0.3932  0.7719  0.1252
  860MOL0     C15995   8.822   2.696   5.271  0.1289 -0.1099 -0.1695
  860MOL0     O15996   8.698   2.648   5.299  0.0830  0.3380  0.4736
  860MOL0     C15997   8.647   2.543   5.227  1.1670  0.1115 -0.4080
  860MOL0     C15998   8.593   2.573   5.100  0.5185 -0.6054  0.3466
  860MOL0     C15999   8.531   2.470   5.031 -0.3393  0.2332 -0.3927
  860MOL0     C16000   8.531   2.337   5.084  0.6004 -0.7549  0.5269
  860MOL0     O16001   8.478   2.222   5.017 -0.0561 -0.4493  0.0637
  860MOL0     C16002   8.398   2.246   4.904  0.0306 -0.6014 -0.0689
  860MOL0     C16003   8.304   2.130   4.855  0.2406  0.7129 -0.0195
  860MOL0     C16004   8.177   2.105   4.954  0.5975  0.6098  0.3456
  860MOL0     C16005   8.072   2.004   4.902 -0.1460  0.0256  0.3628
  860MOL0     C16006   7.992   1.932   5.021  0.7200  0.5102  0.1095
  860MOL0     C16007   7.879   2.014   5.081 -0.4241  0.5677  0.6767
  860MOL0     C16008   7.869   2.006   5.227  0.0533 -0.1373  1.2050
  860MOL0     C16009   7.804   2.125   5.300 -0.3306  0.4232 -0.5856
  860MOL0    Cl16010   7.661   2.182   5.216  0.2383 -0.1092  0.1760
  860MOL0     C16011   8.578   2.314   5.209 -0.6700 -0.5804  0.4186
  860MOL0     C16012   8.634   2.413   5.284 -0.0468 -0.4772  0.3406
  860MOL0     O16013   8.898   2.654   5.183 -0.1140  0.3177  0.2332
  860MOL0     C16014   8.757   2.888   5.423 -0.4512  0.2732 -0.4765
  860MOL0     C16015   8.775   3.002   5.498 -0.6403  0.0068  1.1438
  860MOL0     N16016   8.868   3.703   5.659 -0.8364  0.0763  0.4295
  860MOL0     N16017   8.835   3.827   5.704 -0.4216 -0.5320  0.8179
  860MOL0     C16018   9.517   4.305   4.899 -0.3779 -1.1526 -0.1318
  860MOL0     C16019   9.632   4.370   4.852 -0.5944 -0.2850 -0.4232
  860MOL0     C16020  10.026   4.649   4.862 -1.1847 -0.2263 -0.5840
  860MOL0     C16021  10.101   4.760   4.907 -0.4281  0.3677  0.5608
  860MOL0     C16022  10.218   4.810   4.842 -0.0728 -0.2724  1.3274
  860MOL0     C16023  10.268   4.743   4.729  0.0374  0.4055  0.0182
  860MOL0     O16024  10.366   4.813   4.660  0.2260  1.5510  0.5615
  860MOL0     C16025  10.405   4.755   4.534  0.4084  0.0565 -0.2139
  860MOL0     C16026  10.456   4.865   4.443 -0.8652  0.0067  0.5521
  860MOL0     C16027  10.443   4.800   4.307 -0.1127 -0.2880 -0.2944
  860MOL0     C16028  10.483   4.909   4.209  0.6841  0.1400  0.4217
  860MOL0     C16029  10.450   4.879   4.075 -0.1609  1.1990 -0.1647
  860MOL0     C16030  10.418   4.853   3.961  0.1527  0.6399 -1.0071
  860MOL0     C16031  10.199   4.628   4.689  0.0845  0.0490 -1.0567
  860MOL0     C16032  10.078   4.581   4.749  0.7023 -0.6517  0.1922
  860MOL0     H16033   9.744   4.490   5.152 -0.8000  1.9998 -0.6658
  860MOL0     H16034   9.542   4.367   5.223 -0.6585 -1.8627  0.0283
  860MOL0     H16035   9.335   4.092   4.942 -0.5031 -2.1218 -0.0215
  860MOL0     H16036   9.402   4.016   5.080  1.7885  1.5135 -0.6566
  860MOL0     H16037   9.126   4.143   5.064 -0.0586  0.3038 -0.1623
  860MOL0     H16038   9.164   3.974   5.068  1.3258 -0.0204 -0.3561
  860MOL0     H16039   9.249   3.999   5.300 -1.4535 -1.3339 -1.9115
  860MOL0     H16040   9.210   4.173   5.293  4.0821  0.1438 -1.1573
  860MOL0     H16041   8.959   4.094   5.261  0.4663  1.5122  1.2863
  860MOL0     H16042   9.013   3.924   5.259  0.4873 -0.7695  1.3429
  860MOL0     H16043   8.921   3.948   5.470  0.2088 -0.4442  1.7981
  860MOL0     H16044   9.091   3.952   5.504 -0.5767  0.9298  1.0733
  860MOL0     H16045   9.091   4.198   5.494  0.3238 -1.4856 -0.2329
  860MOL0     H16046   8.912   4.191   5.533  0.5051  0.9806  0.3618
  860MOL0     H16047   9.152   4.054   5.683  0.8676 -0.2237  0.6171
  860MOL0     H16048   9.084   4.198   5.724  1.2494 -0.8467 -0.8308
  860MOL0     H16049   8.855   4.091   5.740 -0.2950  0.1400  0.8482
  860MOL0     H16050   8.966   4.073   5.867  0.1435 -0.1305  0.3734
  860MOL0     H16051   9.154   3.833   5.766 -0.6106 -1.1694  1.7146
  860MOL0     H16052   9.121   3.586   5.566 -1.7262  0.2719  0.0665
  860MOL0     H16053   9.159   3.568   5.747  0.6920 -2.9085 -0.0103
  860MOL0     H16054   8.922   3.438   5.596 -2.9566  1.0033  2.1423
  860MOL0     H16055   8.964   3.428   5.769  4.9946 -0.8895  2.2083
  860MOL0     H16056   9.199   3.334   5.690 -0.3097 -0.4214 -0.5572
  860MOL0     H16057   9.128   3.350   5.530  1.2980  4.7692  0.1391
  860MOL0     H16058   9.005   3.151   5.740 -2.7789  0.6215 -1.0301
  860MOL0     H16059   9.106   3.122   5.596 -1.6203 -0.7570 -3.1908
  860MOL0     H16060   9.096   3.068   5.402  1.4129 -1.6038  1.8497
  860MOL0     H16061   9.178   2.899   5.283 -2.3862  2.1199  0.3719
  860MOL0     H16062   9.117   2.740   5.280 -1.3263 -0.4120  0.3014
  860MOL0     H16063   9.067   2.857   5.149  2.3358  0.3594 -1.4660
  860MOL0     H16064   8.605   2.671   5.055  1.4044 -1.7313 -2.0258
  860MOL0     H16065   8.495   2.495   4.931  2.1351  5.4303 -0.3582
  860MOL0     H16066   8.333   2.327   4.938  2.3486  0.5822  1.8697
  860MOL0     H16067   8.468   2.272   4.824  0.5254 -2.5149 -0.3073
  860MOL0     H16068   8.263   2.170   4.762  0.4748  1.3604  0.1493
  860MOL0     H16069   8.363   2.039   4.854  2.3736  1.9523  2.1816
  860MOL0     H16070   8.120   2.197   4.968  2.2209  1.5092  1.4163
  860MOL0     H16071   8.211   2.079   5.055 -1.7609  1.6356  1.4788
  860MOL0     H16072   8.005   2.061   4.837  0.4793  1.2472  0.7665
  860MOL0     H16073   8.128   1.924   4.852 -0.3233  0.3573 -0.3780
  860MOL0     H16074   8.058   1.897   5.101  0.4446 -2.0564 -0.6869
  860MOL0     H16075   7.944   1.840   4.987  3.2138 -0.9491  0.3285
  860MOL0     H16076   7.888   2.120   5.053  0.7356 -0.0799 -1.6559
  860MOL0     H16077   7.790   1.977   5.031 -1.3328  2.2988  0.9341
  860MOL0     H16078   7.967   1.981   5.269 -0.3931  0.3307  2.5702
  860MOL0     H16079   7.795   1.927   5.239 -0.9692  0.1282 -2.3021
  860MOL0     H16080   7.878   2.204   5.317  1.1929 -0.9441 -0.5522
  860MOL0     H16081   7.771   2.091   5.399 -0.8249 -1.3051 -1.3011
  860MOL0     H16082   8.561   2.214   5.249  0.5933  0.0717  2.7431
  860MOL0     H16083   8.681   2.382   5.377  2.7260  0.1205 -0.7647
  860MOL0     H16084   8.660   2.841   5.433 -0.2007 -0.0747  0.4181
  860MOL0     H16085   8.693   3.032   5.563 -3.2220 -3.8445 -0.0007
  860MOL0     H16086   9.448   4.256   4.831 -1.5428 -1.0098  0.9310
  860MOL0     H16087   9.652   4.375   4.746 -3.8304  0.9067 -1.1117
  860MOL0     H16088  10.083   4.814   5.000  1.1130  0.0953  1.0420
  860MOL0     H16089  10.257   4.900   4.889 -1.2426  0.4912  0.9162
  860MOL0     H16090  10.488   4.685   4.546 -1.5116 -2.2731  0.0097
  860MOL0     H16091  10.320   4.705   4.488 -0.6435  2.2930 -0.8660
  860MOL0     H16092  10.561   4.885   4.465 -1.2733  0.4627  2.2151
  860MOL0     H16093  10.400   4.957   4.457  2.8677  2.3747  1.3872
  860MOL0     H16094  10.345   4.759   4.280 -0.1779 -0.4715  0.2042
  860MOL0     H16095  10.505   4.710   4.299  1.2729  0.4282  1.6170
  860MOL0     H16096  10.592   4.924   4.211  0.7437 -0.2464  0.2018
  860MOL0     H16097  10.444   5.007   4.235  3.9605  2.0597 -1.3044
  860MOL0     H16098  10.395   4.842   3.857  1.3643  0.5239 -1.2720
  860MOL0     H16099  10.241   4.568   4.610  2.0525  0.1019 -0.1040
  860MOL0     H16100  10.046   4.480   4.724 -2.5015 -0.3227  2.4341
  861MOL0     O16101   2.397   9.571   5.309 -0.2927  0.6613  0.3881
  861MOL0     C16102   2.350   9.522   5.208 -0.2763  0.6245  0.8528
  861MOL0     O16103   2.341   9.387   5.176 -0.2149  0.1237  0.3460
  861MOL0     C16104   2.374   9.290   5.265 -0.1738 -0.1255  0.0230
  861MOL0     C16105   2.300   9.268   5.382 -0.0029 -0.0712 -0.7851
  861MOL0     C16106   2.308   9.167   5.475  0.1875 -0.1153 -0.1005
  861MOL0     C16107   2.404   9.066   5.450  0.2506 -0.9226  0.7452
  861MOL0     O16108   2.418   8.960   5.539 -0.8904  0.2388  0.8480
  861MOL0     C16109   2.413   8.837   5.479 -0.6347 -0.4542  1.0196
  861MOL0     C16110   2.343   8.751   5.581  0.3221  0.3269 -0.6687
  861MOL0     C16111   2.197   8.798   5.603 -0.5719  0.0862  0.8478
  861MOL0     C16112   2.112   8.680   5.651  0.5565 -0.2352  0.2846
  861MOL0     C16113   1.969   8.717   5.642  0.3325 -0.9889  0.4774
  861MOL0     C16114   1.887   8.591   5.638  0.3350  0.7458 -0.5269
  861MOL0     C16115   1.744   8.627   5.616 -0.9013  0.4630  0.4422
  861MOL0     C16116   1.656   8.498   5.613  0.7739  0.5514  0.0465
  861MOL0     N16117   1.691   8.414   5.492 -0.4203  0.1475 -0.2486
  861MOL0     C16118   1.685   8.453   5.355 -0.4209  0.6221 -0.1445
  861MOL0     C16119   1.742   8.350   5.290 -0.7357 -0.5158 -0.5589
  861MOL0     C16120   1.760   8.329   5.141 -0.8088 -0.1450 -0.7815
  861MOL0     C16121   1.785   8.177   5.111 -0.1945 -0.6915 -0.2516
  861MOL0     C16122   1.845   8.144   4.977  0.7503 -0.0748  0.7187
  861MOL0     C16123   1.762   8.182   4.852  0.0987 -0.7474 -0.0463
  861MOL0     O16124   1.624   8.145   4.863  0.1098  0.7791 -0.2085
  861MOL0     C16125   1.532   8.198   4.772 -0.3612 -0.6695  0.4409
  861MOL0     C16126   1.394   8.181   4.801 -0.1445 -0.6390  0.3087
  861MOL0     C16127   1.295   8.238   4.725  0.2298  0.6722 -0.7779
  861MOL0     C16128   1.164   8.203   4.769 -0.1881 -0.8012  0.4495
  861MOL0     C16129   1.328   8.298   4.605  1.0441 -0.6549  0.5401
  861MOL0     C16130   1.230   8.362   4.513 -0.0994  0.8174  0.8369
  861MOL0     O16131   1.096   8.354   4.544 -1.0241  0.2952 -1.1142
  861MOL0     C16132   0.998   8.431   4.485 -0.4516  0.3376  0.3167
  861MOL0     C16133   1.022   8.548   4.412  0.2069  1.0697 -0.8750
  861MOL0     C16134   0.911   8.625   4.355 -0.4470  0.2595 -0.4677
  861MOL0     C16135   0.776   8.593   4.383  0.4912  0.6783 -0.9800
  861MOL0     O16136   0.663   8.669   4.338 -0.2138  0.0282 -0.6683
  861MOL0     C16137   0.688   8.739   4.223 -0.4700  0.9422 -0.1685
  861MOL0     C16138   0.554   8.762   4.155 -0.0122 -1.0287  0.6103
  861MOL0     C16139   0.473   8.649   4.099  0.4851 -0.4715 -0.4725
  861MOL0     C16140   0.339   8.696   4.035  0.0031  0.0150 -0.1764
  861MOL0     C16141   0.242   8.577   4.010 -1.0059  0.4103 -0.1076
  861MOL0     C16142   0.120   8.618   3.938 -0.6705 -0.6695  0.2459
  861MOL0     C16143   0.024   8.704   4.034 -0.2849  0.7257  0.8670
  861MOL0     C16144  -0.075   8.789   3.953 -0.0820 -0.6200 -0.3868
  861MOL0    Cl16145   0.006   8.951   3.907  0.3694  0.0918 -0.4877
  861MOL0     C16146   0.750   8.483   4.469 -0.7686  0.1820  0.6351
  861MOL0     C16147   0.862   8.402   4.519  0.2958 -0.2638 -0.1308
  861MOL0     O16148   1.266   8.397   4.401 -0.7822 -0.0989 -0.5000
  861MOL0     C16149   1.463   8.305   4.569 -0.4957  0.4356  0.0059
  861MOL0     C16150   1.558   8.257   4.648 -0.4451 -0.8713  0.2753
  861MOL0     N16151   1.784   8.257   5.381 -0.4335  0.4425 -0.4293
  861MOL0     N16152   1.756   8.297   5.500 -0.7224 -0.3889  0.1992
  861MOL0     C16153   2.489   9.082   5.332 -1.1031 -0.0547 -0.4623
  861MOL0     C16154   2.473   9.194   5.240 -0.2255  0.2374  0.1729
  861MOL0     C16155   2.329   9.609   5.090  0.5554 -0.5702 -0.6335
  861MOL0     C16156   2.302   9.554   4.958 -0.4706 -0.1806 -1.0667
  861MOL0     C16157   2.290   9.634   4.850 -0.6702  0.1886  0.0887
  861MOL0     C16158   2.306   9.770   4.856  0.9751 -0.0769 -0.8143
  861MOL0     O16159   2.296   9.839   4.734 -0.4789 -0.6311 -0.1794
  861MOL0     C16160   2.410   9.830   4.650  0.2568  0.3324 -0.8278
  861MOL0     C16161   2.417   9.958   4.563  0.7694 -0.6510 -0.4240
  861MOL0     C16162   2.564   9.956   4.503  0.3737 -0.1896  0.7662
  861MOL0     C16163   2.588  10.050   4.396  0.8211 -0.3013  0.4366
  861MOL0     C16164   2.512   9.999   4.277  1.1843 -0.2450 -0.4567
  861MOL0     C16165   2.451   9.938   4.187  0.6655  0.0342 -0.1066
  861MOL0     C16166   2.343   9.829   4.977  0.3889  0.1386 -0.1247
  861MOL0     C16167   2.339   9.748   5.090 -1.6619  0.6635 -0.4579
  861MOL0     H16168   2.216   9.332   5.406 -0.3794 -0.6497 -0.5382
  861MOL0     H16169   2.247   9.156   5.564  1.2373 -0.3570  0.6076
  861MOL0     H16170   2.350   8.835   5.389  0.7087  2.4944 -0.1339
  861MOL0     H16171   2.510   8.797   5.450  0.7483  2.4525  1.2434
  861MOL0     H16172   2.350   8.646   5.549  0.2452 -0.3669  1.4476
  861MOL0     H16173   2.400   8.763   5.674  0.8630  1.3705 -1.1116
  861MOL0     H16174   2.191   8.880   5.674  1.2874 -1.0079  2.3809
  861MOL0     H16175   2.162   8.835   5.506  1.3016  0.8944  0.4278
  861MOL0     H16176   2.118   8.596   5.582  3.3449  0.8332 -0.8852
  861MOL0     H16177   2.144   8.640   5.748 -1.1317 -0.5298  0.7614
  861MOL0     H16178   1.936   8.774   5.729  2.5951  2.3071 -0.5970
  861MOL0     H16179   1.950   8.778   5.553 -0.1680 -1.1247  0.4924
  861MOL0     H16180   1.914   8.514   5.565  0.2303  0.2630 -0.0624
  861MOL0     H16181   1.892   8.537   5.732  2.8512 -3.3025 -2.6966
  861MOL0     H16182   1.709   8.693   5.696 -0.7800 -0.1033  0.9709
  861MOL0     H16183   1.743   8.678   5.519  2.9668 -0.7986 -0.4325
  861MOL0     H16184   1.552   8.522   5.592  0.5981 -0.0065  0.2580
  861MOL0     H16185   1.664   8.438   5.704 -1.3697 -0.7254 -0.5324
  861MOL0     H16186   1.660   8.545   5.303  1.3614  1.8775  1.1076
  861MOL0     H16187   1.671   8.368   5.091  0.0384 -0.1236 -2.3366
  861MOL0     H16188   1.848   8.392   5.123 -0.6747  0.4863  1.6927
  861MOL0     H16189   1.695   8.116   5.120  0.0361 -1.1734 -1.0606
  861MOL0     H16190   1.863   8.148   5.182  0.5528 -1.5566 -1.3880
  861MOL0     H16191   1.858   8.035   4.979 -2.6937 -0.6919 -1.3396
  861MOL0     H16192   1.945   8.184   4.959  0.5488  0.6357  1.1726
  861MOL0     H16193   1.803   8.116   4.776 -2.1820 -3.0097  0.5559
  861MOL0     H16194   1.773   8.288   4.826 -0.6892 -0.8762 -0.9512
  861MOL0     H16195   1.376   8.103   4.875 -0.2045 -0.2048  0.7544
  861MOL0     H16196   1.128   8.116   4.714  2.3792 -1.0995 -0.8998
  861MOL0     H16197   1.158   8.166   4.872  1.7231 -1.4542  0.3650
  861MOL0     H16198   1.100   8.291   4.761  2.2686  1.0467 -0.2937
  861MOL0     H16199   1.125   8.574   4.389  1.7750 -3.4423 -0.0002
  861MOL0     H16200   0.947   8.689   4.275  1.8030 -0.2718  0.0246
  861MOL0     H16201   0.735   8.836   4.242 -0.0059  0.7312 -0.2349
  861MOL0     H16202   0.754   8.687   4.154  0.1413  1.7448 -0.2012
  861MOL0     H16203   0.490   8.814   4.227  1.2721  1.7751 -0.1586
  861MOL0     H16204   0.564   8.840   4.079 -2.0938 -0.7372  0.5640
  861MOL0     H16205   0.448   8.578   4.179  4.6543 -1.0453  0.5551
  861MOL0     H16206   0.536   8.597   4.026  3.1029 -0.8141  1.8384
  861MOL0     H16207   0.284   8.765   4.100 -2.0044 -1.0525 -0.6485
  861MOL0     H16208   0.371   8.742   3.941  2.3805  0.5871  0.8533
  861MOL0     H16209   0.209   8.521   4.098 -0.4861 -1.2384 -0.9214
  861MOL0     H16210   0.293   8.506   3.945 -0.8572  1.8141 -1.5978
  861MOL0     H16211   0.155   8.679   3.854  0.5258  0.3817  1.4697
  861MOL0     H16212   0.059   8.531   3.912 -0.8550  0.1947 -2.5367
  861MOL0     H16213   0.077   8.755   4.115  0.3607 -0.0843  0.9747
  861MOL0     H16214  -0.028   8.622   4.084  2.8627 -3.2503 -1.7082
  861MOL0     H16215  -0.157   8.816   4.021  0.4607  1.6226 -0.5389
  861MOL0     H16216  -0.124   8.732   3.873 -0.5408 -0.5594 -0.1526
  861MOL0     H16217   0.646   8.452   4.477 -1.4278  1.8440 -0.8597
  861MOL0     H16218   0.848   8.312   4.578 -0.1836 -1.2952 -1.7480
  861MOL0     H16219   1.486   8.340   4.469 -2.2277 -3.7150 -2.0778
  861MOL0     H16220   1.664   8.254   4.621 -0.2507 -0.9427  1.0380
  861MOL0     H16221   2.552   8.996   5.311 -2.6949 -0.9569 -1.7420
  861MOL0     H16222   2.541   9.228   5.162 -1.0195  3.6825  0.7931
  861MOL0     H16223   2.316   9.448   4.945 -0.4543 -0.2710 -0.3595
  861MOL0     H16224   2.304   9.591   4.751  0.6943 -1.3731  0.9155
  861MOL0     H16225   2.496   9.818   4.716  0.2985  1.6778 -0.6130
  861MOL0     H16226   2.400   9.739   4.590  1.6519 -0.7684  0.5037
  861MOL0     H16227   2.404  10.047   4.625 -3.2562 -1.0919 -0.3554
  861MOL0     H16228   2.343   9.942   4.483 -0.6961 -0.4598  0.8497
  861MOL0     H16229   2.587   9.856   4.463  1.9316  0.5578 -0.3315
  861MOL0     H16230   2.629   9.982   4.587  3.2174  0.9104 -1.5784
  861MOL0     H16231   2.694  10.048   4.372 -0.0192  0.4093 -4.0924
  861MOL0     H16232   2.562  10.150   4.433 -1.0241 -0.3793 -0.5051
  861MOL0     H16233   2.411   9.883   4.104 -0.2143  3.3092 -2.0868
  861MOL0     H16234   2.366   9.935   4.978  2.1323 -0.2146  1.1145
  861MOL0     H16235   2.385   9.781   5.183  3.2214 -0.0495 -2.3342
  862MOL0     O16236   2.564   4.317   5.306  0.5343  0.1510 -0.0754
  862MOL0     C16237   2.654   4.400   5.289 -0.3932 -0.6476  0.1685
  862MOL0     O16238   2.637   4.528   5.237  0.0022  0.3340  0.6002
  862MOL0     C16239   2.520   4.571   5.189  0.6689  0.4204 -0.5127
  862MOL0     C16240   2.437   4.495   5.119  0.6459  0.0853 -1.4124
  862MOL0     C16241   2.310   4.531   5.081  0.1865 -0.5489 -0.3953
  862MOL0     C16242   2.264   4.658   5.105  0.2304  0.2602  0.2346
  862MOL0     O16243   2.134   4.707   5.072 -0.1477  0.2133 -0.1797
  862MOL0     C16244   2.020   4.617   5.076 -0.4818 -0.5256 -0.1029
  862MOL0     C16245   1.884   4.694   5.061  0.2860 -0.1612  0.1248
  862MOL0     C16246   1.844   4.761   5.194  0.2319 -0.7039 -0.2986
  862MOL0     C16247   1.707   4.825   5.183  0.9367  0.7803  0.2369
  862MOL0     C16248   1.641   4.838   5.320  0.5909  0.3020 -0.0275
  862MOL0     C16249   1.489   4.858   5.308 -0.2431 -0.1703 -0.7656
  862MOL0     C16250   1.413   4.808   5.435 -0.0381 -0.4868  0.0209
  862MOL0     C16251   1.265   4.848   5.430 -0.3853 -0.3439 -0.2309
  862MOL0     N16252   1.203   4.802   5.557 -0.2115  0.4307  0.4656
  862MOL0     C16253   1.211   4.679   5.618  0.6223  0.0835 -0.2789
  862MOL0     C16254   1.142   4.688   5.736 -0.0715 -0.2016  0.3643
  862MOL0     C16255   1.134   4.569   5.840 -0.0853 -0.3868 -0.9274
  862MOL0     C16256   1.021   4.470   5.837 -0.3073  0.1841 -0.3451
  862MOL0     C16257   0.985   4.429   5.691  1.0605  0.4810  0.8336
  862MOL0     C16258   0.885   4.322   5.670 -0.0022 -0.4173  0.9329
  862MOL0     O16259   0.861   4.306   5.522 -0.4628 -0.2761 -1.4707
  862MOL0     C16260   0.733   4.277   5.496  0.4210  0.3314  0.2151
  862MOL0     C16261   0.655   4.192   5.569 -0.4326 -0.4490  0.0177
  862MOL0     C16262   0.515   4.173   5.555 -0.3565  0.6325 -0.2282
  862MOL0     C16263   0.448   4.083   5.648  0.2519  0.7794  0.4668
  862MOL0     C16264   0.455   4.239   5.445 -0.6369 -0.0994 -0.1167
  862MOL0     C16265   0.310   4.226   5.412 -0.0054 -0.6229  0.8010
  862MOL0     O16266   0.243   4.113   5.435 -0.2272  0.1612 -0.1571
  862MOL0     C16267   0.125   4.073   5.373 -0.1998 -0.5617 -0.4668
  862MOL0     C16268   0.043   4.148   5.283 -0.2967  0.0077 -0.4455
  862MOL0     C16269  -0.063   4.092   5.208 -0.2606 -0.0420 -0.4010
  862MOL0     C16270  -0.089   3.957   5.236  0.3960 -1.3796  1.0353
  862MOL0     O16271  -0.191   3.898   5.170  0.0890  0.0742  0.5494
  862MOL0     C16272  -0.282   3.831   5.241  0.3724  0.6945 -0.0324
  862MOL0     C16273  -0.399   3.925   5.268 -0.3735 -0.8745 -0.5305
  862MOL0     C16274  -0.525   3.853   5.300 -0.9405 -0.4729 -0.0375
  862MOL0     C16275  -0.640   3.964   5.316 -0.3989  0.9395  0.5225
  862MOL0     C16276  -0.765   3.921   5.389  1.0730  0.5894 -0.2665
  862MOL0     C16277  -0.749   3.885   5.538  0.3097  0.4758  0.4265
  862MOL0     C16278  -0.736   3.734   5.571 -0.4780 -0.6104  0.1753
  862MOL0     C16279  -0.658   3.714   5.702 -0.3419 -0.1554  0.3954
  862MOL0    Cl16280  -0.485   3.743   5.699 -0.4983  0.2216  0.0654
  862MOL0     C16281  -0.008   3.881   5.317  0.3512 -0.2363  0.1368
  862MOL0     C16282   0.092   3.943   5.391 -0.1839 -0.6832 -0.0970
  862MOL0     O16283   0.257   4.322   5.349  0.1503  0.0028  0.2855
  862MOL0     C16284   0.534   4.319   5.365 -0.0840 -1.0469 -0.2852
  862MOL0     C16285   0.671   4.331   5.386  1.0177 -0.3066 -1.0566
  862MOL0     N16286   1.086   4.814   5.743  0.2067  0.0969  0.6552
  862MOL0     N16287   1.130   4.887   5.643 -0.0005 -0.3835  0.1280
  862MOL0     C16288   2.356   4.750   5.155  0.5518 -0.0149  0.7520
  862MOL0     C16289   2.486   4.710   5.201  0.1705 -0.6712  0.4795
  862MOL0     C16290   2.790   4.358   5.323 -1.3219 -0.3883  0.5109
  862MOL0     C16291   2.820   4.232   5.376 -0.5145 -0.0324  0.3078
  862MOL0     C16292   2.955   4.197   5.402  0.2462 -0.9080 -0.1654
  862MOL0     C16293   3.059   4.282   5.363  0.2816 -0.3411  0.4454
  862MOL0     O16294   3.184   4.228   5.383  0.1730 -0.6494  0.3613
  862MOL0     C16295   3.299   4.313   5.347 -0.1077 -0.1400  0.0477
  862MOL0     C16296   3.430   4.248   5.393  0.1208  0.1072  0.0736
  862MOL0     C16297   3.551   4.309   5.323  0.4556  0.6784 -0.7003
  862MOL0     C16298   3.678   4.236   5.375  0.4343 -0.2911 -0.6471
  862MOL0     C16299   3.697   4.106   5.312 -0.6151 -0.6753  0.3571
  862MOL0     C16300   3.694   4.004   5.243 -0.2008  0.0019 -0.2054
  862MOL0     C16301   3.030   4.410   5.322 -0.7323 -0.0984 -0.1995
  862MOL0     C16302   2.898   4.453   5.304  0.9871  1.2172 -0.4124
  862MOL0     H16303   2.464   4.392   5.102 -2.3867 -0.7357 -1.7449
  862MOL0     H16304   2.240   4.463   5.034 -0.3553  0.0729 -0.5011
  862MOL0     H16305   2.037   4.546   4.994 -0.8242 -0.4641 -0.2321
  862MOL0     H16306   2.021   4.557   5.167 -1.3158 -0.8212 -0.2718
  862MOL0     H16307   1.887   4.781   4.995  0.5831  1.7923  2.5588
  862MOL0     H16308   1.810   4.620   5.030  1.2032 -2.0478  2.1144
  862MOL0     H16309   1.835   4.686   5.273  0.8157 -2.3360 -1.7357
  862MOL0     H16310   1.907   4.844   5.227 -2.2867  1.2049  0.0060
  862MOL0     H16311   1.697   4.918   5.127 -0.4398 -0.2668 -1.3662
  862MOL0     H16312   1.645   4.765   5.116  0.2437  0.0900  1.4472
  862MOL0     H16313   1.657   4.744   5.373  1.6542 -1.7985 -3.6916
  862MOL0     H16314   1.693   4.921   5.369 -3.8195  5.0553 -2.3722
  862MOL0     H16315   1.472   4.965   5.290 -0.6266  0.2786  1.8903
  862MOL0     H16316   1.457   4.807   5.216 -3.3385 -1.2325  0.7602
  862MOL0     H16317   1.434   4.700   5.439  0.5040 -0.3589  2.6100
  862MOL0     H16318   1.450   4.845   5.531 -0.1047  0.9128 -0.4795
  862MOL0     H16319   1.233   4.774   5.356  0.4062 -0.3106 -0.6160
  862MOL0     H16320   1.255   4.954   5.407  1.3321 -0.1868 -0.3672
  862MOL0     H16321   1.264   4.592   5.581 -0.0138  0.1084 -1.2885
  862MOL0     H16322   1.215   4.498   5.822 -1.9031 -3.5046  2.1750
  862MOL0     H16323   1.138   4.612   5.940  2.4116 -0.1635 -1.0587
  862MOL0     H16324   0.932   4.523   5.872 -1.6461  0.2412 -3.5051
  862MOL0     H16325   1.040   4.379   5.895 -4.2439 -0.7992 -0.3277
  862MOL0     H16326   1.077   4.388   5.647 -0.7800 -0.8301 -2.0975
  862MOL0     H16327   0.961   4.524   5.642 -0.1641  0.6814  1.7820
  862MOL0     H16328   0.801   4.376   5.715 -0.2698 -0.0736  0.0380
  862MOL0     H16329   0.905   4.239   5.737  1.0585  0.1472  1.3434
  862MOL0     H16330   0.706   4.147   5.654 -1.3078  3.3604  2.8496
  862MOL0     H16331   0.441   3.984   5.602 -0.2231  1.0373 -0.0220
  862MOL0     H16332   0.509   4.077   5.738  2.4909  1.1937 -0.9507
  862MOL0     H16333   0.355   4.135   5.676 -0.3541 -0.0513  0.0244
  862MOL0     H16334   0.047   4.256   5.291  0.4084 -0.1405  2.6764
  862MOL0     H16335  -0.127   4.156   5.146  3.1345  4.9701  0.6760
  862MOL0     H16336  -0.316   3.746   5.182  0.1430  1.3122 -0.8181
  862MOL0     H16337  -0.250   3.803   5.342 -1.4214  3.0632  1.2971
  862MOL0     H16338  -0.371   3.993   5.349  3.2504 -1.7182 -0.8795
  862MOL0     H16339  -0.409   3.980   5.174 -2.6198  0.8120  0.6063
  862MOL0     H16340  -0.511   3.799   5.394  2.0879 -2.7023 -1.6067
  862MOL0     H16341  -0.541   3.777   5.222  2.9882 -3.5420  1.7940
  862MOL0     H16342  -0.590   4.051   5.360  0.6369  1.0671 -0.8458
  862MOL0     H16343  -0.662   3.994   5.214  0.5937 -1.2347 -0.3901
  862MOL0     H16344  -0.802   3.827   5.348 -5.0749 -0.0315  5.0549
  862MOL0     H16345  -0.829   4.007   5.365 -0.4973 -1.1968 -3.1279
  862MOL0     H16346  -0.672   3.949   5.583 -0.9978  1.5996  1.1633
  862MOL0     H16347  -0.836   3.940   5.576 -2.2456 -1.4735 -2.2114
  862MOL0     H16348  -0.698   3.676   5.487 -2.6382 -1.8451  0.0008
  862MOL0     H16349  -0.835   3.688   5.568 -0.4360 -0.7440  0.6078
  862MOL0     H16350  -0.659   3.610   5.736  1.6006  0.5127  2.7529
  862MOL0     H16351  -0.704   3.777   5.779 -0.0512  1.3261 -0.5824
  862MOL0     H16352  -0.032   3.780   5.349 -0.1118  0.4240  2.0134
  862MOL0     H16353   0.148   3.890   5.467  0.0783 -1.4574 -0.8214
  862MOL0     H16354   0.503   4.372   5.275 -0.5733 -1.7121 -0.5234
  862MOL0     H16355   0.724   4.397   5.319 -1.6933  2.3382 -0.7986
  862MOL0     H16356   2.319   4.851   5.149 -0.0117 -0.3153 -2.4039
  862MOL0     H16357   2.555   4.791   5.222 -0.1978 -0.6497  1.6971
  862MOL0     H16358   2.741   4.166   5.410 -1.6153  0.1477 -1.7394
  862MOL0     H16359   2.980   4.096   5.433 -1.3508 -0.8997  1.3146
  862MOL0     H16360   3.294   4.328   5.239  0.0831  0.6424  0.1437
  862MOL0     H16361   3.300   4.413   5.392  1.3824  0.6490 -1.6064
  862MOL0     H16362   3.425   4.139   5.381 -0.7328  0.1532 -0.0550
  862MOL0     H16363   3.445   4.277   5.498  0.5867 -0.4966  0.1784
  862MOL0     H16364   3.553   4.417   5.341  1.5191  0.8025 -1.4295
  862MOL0     H16365   3.534   4.303   5.216 -1.6886 -2.1247 -0.3118
  862MOL0     H16366   3.665   4.228   5.484 -0.5625  1.5556 -0.5824
  862MOL0     H16367   3.757   4.303   5.341  3.0584 -3.8951 -2.3203
  862MOL0     H16368   3.682   3.924   5.173 -0.7494  0.2013 -0.3455
  862MOL0     H16369   3.114   4.477   5.309 -0.2797 -1.1610 -3.9919
  862MOL0     H16370   2.878   4.555   5.272 -0.2830  1.6352  1.5766
  863MOL0     O16371   0.777   8.059   8.253 -0.2128 -0.6452  0.2350
  863MOL0     C16372   0.749   7.951   8.213  0.7969 -0.3001  0.9692
  863MOL0     O16373   0.622   7.900   8.213 -0.6140  0.5889  0.0175
  863MOL0     C16374   0.522   7.970   8.277  0.3134 -0.5184 -0.0960
  863MOL0     C16375   0.514   7.974   8.417 -0.2087  0.8140 -0.4563
  863MOL0     C16376   0.408   8.034   8.481 -0.3976 -1.4004  0.1522
  863MOL0     C16377   0.309   8.097   8.406  0.1009  0.1789  0.6484
  863MOL0     O16378   0.191   8.152   8.452  0.1474  0.6599  0.0177
  863MOL0     C16379   0.180   8.177   8.596 -0.2172  0.6193  0.5989
  863MOL0     C16380   0.049   8.242   8.629  1.0090 -0.5802 -0.1300
  863MOL0     C16381  -0.066   8.154   8.567 -0.2423 -0.3163  0.2488
  863MOL0     C16382  -0.201   8.220   8.599  0.1068  0.6493  0.1025
  863MOL0     C16383  -0.329   8.144   8.551 -0.0554 -0.0349  0.5494
  863MOL0     C16384  -0.465   8.211   8.601 -0.0501 -0.2220 -0.6159
  863MOL0     C16385  -0.495   8.341   8.543 -0.3017 -0.3384 -0.2887
  863MOL0     C16386  -0.477   8.342   8.396  0.2557 -0.5742  0.2515
  863MOL0     N16387  -0.552   8.454   8.347  0.2554 -0.4681 -0.1482
  863MOL0     C16388  -0.687   8.464   8.313 -0.1603 -0.0087 -0.4547
  863MOL0     C16389  -0.701   8.589   8.275  0.2900 -0.8114 -0.3270
  863MOL0     C16390  -0.838   8.636   8.233 -0.1858  0.4743 -0.0333
  863MOL0     C16391  -0.909   8.704   8.355 -0.6174 -0.0301  0.0995
  863MOL0     C16392  -1.037   8.770   8.301 -0.4642  0.1850 -0.3704
  863MOL0     C16393  -1.072   8.900   8.380 -0.3972 -0.0459 -0.1342
  863MOL0     O16394  -1.113   8.855   8.510  0.1148 -0.7153  0.3882
  863MOL0     C16395  -1.128   8.962   8.591 -0.0028 -0.7506  0.0351
  863MOL0     C16396  -1.021   9.038   8.642  0.2923 -0.1499 -0.1208
  863MOL0     C16397  -1.036   9.163   8.700 -0.5123 -1.2517 -0.2983
  863MOL0     C16398  -0.917   9.244   8.742 -0.7785  0.1415 -0.0019
  863MOL0     C16399  -1.161   9.213   8.730 -0.3167 -0.1928  0.7513
  863MOL0     C16400  -1.192   9.349   8.798 -0.3382  0.8535 -0.6244
  863MOL0     O16401  -1.095   9.421   8.853  0.4010  0.3094 -0.3997
  863MOL0     C16402  -1.132   9.543   8.897  0.3696 -0.0594 -0.2110
  863MOL0     C16403  -1.109   9.657   8.824  0.2005 -0.2094  0.6325
  863MOL0     C16404  -1.141   9.778   8.882  0.1902 -0.5292 -0.3378
  863MOL0     C16405  -1.209   9.797   9.005  0.4783  0.0932 -0.1552
  863MOL0     O16406  -1.246   9.916   9.057 -0.1674 -0.1289  0.1875
  863MOL0     C16407  -1.141  10.017   9.036  0.7487 -0.3839  0.0804
  863MOL0     C16408  -1.133  10.116   9.157 -0.5347 -0.1143  0.8755
  863MOL0     C16409  -1.262  10.147   9.227  0.2163  0.3204 -0.5856
  863MOL0     C16410  -1.267  10.273   9.311 -0.7897  0.4565 -0.1796
  863MOL0     C16411  -1.387  10.299   9.404  0.2879 -0.6275  0.1704
  863MOL0     C16412  -1.408  10.190   9.512 -0.3791  0.0045  0.1208
  863MOL0     C16413  -1.510  10.241   9.619 -0.2761 -0.4969  0.3553
  863MOL0     C16414  -1.579  10.128   9.701 -0.6978  0.2684  0.7961
  863MOL0    Cl16415  -1.690  10.205   9.827  0.7095  0.3557 -0.1653
  863MOL0     C16416  -1.246   9.683   9.065 -0.0560  0.1615 -0.5254
  863MOL0     C16417  -1.201   9.554   9.018  0.3006  0.7350 -0.0546
  863MOL0     O16418  -1.316   9.363   8.825  0.8535  0.4062  0.3643
  863MOL0     C16419  -1.267   9.139   8.675  0.4458 -0.1141  0.4102
  863MOL0     C16420  -1.258   9.022   8.607 -0.2130  0.1519  0.1706
  863MOL0     N16421  -0.582   8.668   8.312  0.2695  0.4368 -0.6037
  863MOL0     N16422  -0.499   8.580   8.363  0.1476 -0.3121  0.7679
  863MOL0     C16423   0.310   8.093   8.263  0.2033  0.3557  0.0900
  863MOL0     C16424   0.421   8.036   8.201 -0.4092  0.1882 -0.2606
  863MOL0     C16425   0.843   7.875   8.142 -0.5261 -0.0595  0.0240
  863MOL0     C16426   0.959   7.937   8.090 -0.7948 -0.8454  0.6213
  863MOL0     C16427   1.055   7.861   8.017  0.0350  0.1871  1.1336
  863MOL0     C16428   1.051   7.721   8.011  0.1496 -0.5775  0.9164
  863MOL0     O16429   1.143   7.635   7.953  0.0473 -0.5681  0.4976
  863MOL0     C16430   1.222   7.690   7.844  0.3000  0.1639 -0.2383
  863MOL0     C16431   1.227   7.571   7.744  0.2257  0.0632 -0.1513
  863MOL0     C16432   1.330   7.587   7.629  0.0533 -0.9526 -0.5819
  863MOL0     C16433   1.275   7.647   7.499 -0.5459  1.0893 -0.1301
  863MOL0     C16434   1.386   7.635   7.398  0.7114 -0.0428  0.4988
  863MOL0     C16435   1.490   7.634   7.338  1.1808 -0.0031 -0.5001
  863MOL0     C16436   0.942   7.661   8.069  0.3663 -0.0246 -0.0916
  863MOL0     C16437   0.840   7.732   8.135  0.0184 -0.1468 -0.0281
  863MOL0     H16438   0.590   7.928   8.480 -1.4624 -1.1787 -0.3273
  863MOL0     H16439   0.389   8.029   8.587 -1.9942 -0.8968 -0.0768
  863MOL0     H16440   0.181   8.082   8.650 -0.3668 -0.3941 -1.1062
  863MOL0     H16441   0.264   8.237   8.634  0.0284  2.4480 -2.4145
  863MOL0     H16442   0.031   8.255   8.736 -1.4119 -3.6112 -0.0420
  863MOL0     H16443   0.060   8.339   8.580  0.7300 -0.1935  0.5466
  863MOL0     H16444  -0.051   8.163   8.459 -0.1660  0.6479  0.3267
  863MOL0     H16445  -0.056   8.050   8.599  0.9709  0.0111  1.0071
  863MOL0     H16446  -0.204   8.231   8.708  0.0466  1.7395  0.0032
  863MOL0     H16447  -0.209   8.319   8.554  0.3452  2.1212  3.0417
  863MOL0     H16448  -0.321   8.132   8.442 -0.0051  0.4042  0.5023
  863MOL0     H16449  -0.322   8.041   8.588  1.3732 -0.2916 -0.3525
  863MOL0     H16450  -0.550   8.144   8.591  1.1422 -1.7389 -1.0231
  863MOL0     H16451  -0.465   8.219   8.710  0.2270  1.0027 -0.6906
  863MOL0     H16452  -0.600   8.361   8.563 -0.0804 -0.0692  0.6977
  863MOL0     H16453  -0.421   8.408   8.588  0.6023 -1.3882 -0.1538
  863MOL0     H16454  -0.512   8.254   8.341  3.3189 -1.1061 -1.1067
  863MOL0     H16455  -0.368   8.346   8.385  0.3138  0.8908  1.1775
  863MOL0     H16456  -0.751   8.376   8.318  0.0368 -0.1307 -0.0265
  863MOL0     H16457  -0.833   8.704   8.147  0.7056 -0.9413 -1.1321
  863MOL0     H16458  -0.901   8.554   8.198  0.8363 -0.8548  1.1203
  863MOL0     H16459  -0.847   8.779   8.407 -0.6343  1.3783 -1.8319
  863MOL0     H16460  -0.935   8.619   8.419 -0.5440  0.0571  0.2476
  863MOL0     H16461  -1.119   8.699   8.316  0.7432 -1.5066 -1.4482
  863MOL0     H16462  -1.031   8.797   8.195 -0.5270 -3.4534 -1.4517
  863MOL0     H16463  -1.154   8.944   8.323 -0.3916 -1.5396 -1.3763
  863MOL0     H16464  -0.987   8.968   8.371 -0.7033  0.4413  0.5603
  863MOL0     H16465  -0.927   9.000   8.602  0.3786 -2.5545  2.1334
  863MOL0     H16466  -0.918   9.349   8.712  0.2298  0.1161 -0.1585
  863MOL0     H16467  -0.910   9.238   8.851  3.3641  0.2484 -0.1228
  863MOL0     H16468  -0.821   9.215   8.699  0.6703  2.8637  1.0913
  863MOL0     H16469  -1.055   9.647   8.730 -2.2337 -3.6335 -0.5637
  863MOL0     H16470  -1.110   9.865   8.825  2.1480 -0.9427  0.0106
  863MOL0     H16471  -1.040   9.974   9.027 -0.6490 -3.9163 -0.5391
  863MOL0     H16472  -1.156  10.066   8.939 -2.1882 -1.8930 -0.3533
  863MOL0     H16473  -1.058  10.081   9.228  0.8570  0.7924 -0.0923
  863MOL0     H16474  -1.096  10.212   9.119  1.3236 -0.3171  2.0432
  863MOL0     H16475  -1.291  10.059   9.285  0.6673 -0.9022 -2.1225
  863MOL0     H16476  -1.337  10.162   9.149  1.7771 -1.8095 -2.6420
  863MOL0     H16477  -1.176  10.281   9.371 -1.2865 -1.3791  0.8886
  863MOL0     H16478  -1.261  10.363   9.249  0.0635  0.9452  0.5852
  863MOL0     H16479  -1.478  10.304   9.345  1.0670 -1.0709 -1.1007
  863MOL0     H16480  -1.387  10.399   9.448 -0.3305 -0.4930 -0.1356
  863MOL0     H16481  -1.453  10.099   9.472 -1.8749  0.1569  1.3599
  863MOL0     H16482  -1.312  10.169   9.561 -1.1852 -0.6517  1.4445
  863MOL0     H16483  -1.592  10.289   9.565 -2.2296 -2.5297  1.3177
  863MOL0     H16484  -1.473  10.319   9.686  0.4907  1.2005 -1.9136
  863MOL0     H16485  -1.500  10.070   9.749 -0.8088 -2.7665 -2.3090
  863MOL0     H16486  -1.639  10.063   9.637 -1.9605 -0.1488  2.3489
  863MOL0     H16487  -1.321   9.688   9.144 -0.0311  0.6352 -0.5293
  863MOL0     H16488  -1.225   9.469   9.080  0.0870  1.1924  0.4988
  863MOL0     H16489  -1.369   9.172   8.693  1.0242  1.7468  0.4017
  863MOL0     H16490  -1.345   8.974   8.562  0.1876  1.9447 -2.7499
  863MOL0     H16491   0.224   8.136   8.212  1.1922  0.6824 -1.3431
  863MOL0     H16492   0.430   8.025   8.093  1.9086 -0.6986 -0.0406
  863MOL0     H16493   0.978   8.043   8.104  0.0505 -0.9305  0.1629
  863MOL0     H16494   1.142   7.899   7.965 -0.5808 -1.7698 -1.5535
  863MOL0     H16495   1.182   7.776   7.789 -0.9773  0.1263  0.6020
  863MOL0     H16496   1.318   7.725   7.884 -0.5626  2.6953 -0.1641
  863MOL0     H16497   1.125   7.550   7.710  0.8220 -5.7486  0.6634
  863MOL0     H16498   1.253   7.478   7.796  1.7173  0.7489  0.3668
  863MOL0     H16499   1.359   7.488   7.593 -2.0372 -1.7213 -0.3006
  863MOL0     H16500   1.419   7.641   7.662 -1.8487  0.1319  3.3880
  863MOL0     H16501   1.240   7.750   7.513 -0.8349  1.0574 -0.5945
  863MOL0     H16502   1.188   7.591   7.464 -0.0478 -0.0329  0.3976
  863MOL0     H16503   1.581   7.637   7.281  0.8029 -0.5954 -1.1434
  863MOL0     H16504   0.942   7.554   8.051 -0.1876 -0.1234  0.4716
  863MOL0     H16505   0.764   7.678   8.191 -1.2160  0.4856 -1.0252
  864MOL0     O16506   4.896   2.104   4.141  0.8198 -0.1658 -0.4090
  864MOL0     C16507   4.890   2.174   4.240 -0.0206 -0.2107 -1.5291
  864MOL0     O16508   4.973   2.163   4.357  0.0647  0.2697 -0.2579
  864MOL0     C16509   5.103   2.117   4.348  0.2034 -0.2727 -0.2345
  864MOL0     C16510   5.197   2.184   4.276 -0.6037 -0.0529 -0.1862
  864MOL0     C16511   5.322   2.132   4.263 -0.9348  0.2357 -0.4290
  864MOL0     C16512   5.357   2.013   4.323  0.1433  0.4926  0.6355
  864MOL0     O16513   5.475   1.950   4.299 -0.1161  1.0678  0.5905
  864MOL0     C16514   5.545   1.970   4.171  0.0444  0.3321  0.0439
  864MOL0     C16515   5.459   1.919   4.055 -0.6122  0.0826 -0.2909
  864MOL0     C16516   5.432   1.773   4.053  0.2967  0.9179  0.3037
  864MOL0     C16517   5.563   1.690   4.086  0.6545  0.1776 -0.4128
  864MOL0     C16518   5.529   1.546   4.058  0.2550  0.0158 -0.0673
  864MOL0     C16519   5.604   1.446   4.138 -0.1915  0.5284 -0.9819
  864MOL0     C16520   5.589   1.296   4.100  0.2011 -0.0309 -0.5005
  864MOL0     C16521   5.678   1.218   4.199  1.0573  0.0322  0.0902
  864MOL0     N16522   5.805   1.195   4.137  0.0504 -0.4519  0.1712
  864MOL0     C16523   5.905   1.285   4.153 -0.8040 -0.1893 -0.2178
  864MOL0     C16524   6.002   1.237   4.078  0.3443  1.1595 -0.3522
  864MOL0     C16525   6.146   1.281   4.061 -0.3725 -0.7975  0.1402
  864MOL0     C16526   6.191   1.377   4.174 -0.4961 -0.7984 -0.4594
  864MOL0     C16527   6.337   1.436   4.167 -0.8517  0.0400 -0.2499
  864MOL0     C16528   6.448   1.323   4.155 -0.4920 -0.5606 -0.3981
  864MOL0     O16529   6.467   1.308   4.019 -0.1209  0.2573  0.3316
  864MOL0     C16530   6.551   1.207   3.966 -0.8776  0.4189 -0.4862
  864MOL0     C16531   6.559   1.211   3.826 -0.2962 -0.1213  0.7587
  864MOL0     C16532   6.643   1.112   3.761  1.4202 -0.7328  0.5595
  864MOL0     C16533   6.632   1.129   3.609 -0.4879 -1.0593 -0.5021
  864MOL0     C16534   6.724   1.024   3.832  0.2739  0.3439 -0.5899
  864MOL0     C16535   6.803   0.918   3.780  0.7072  0.4084  0.5239
  864MOL0     O16536   6.813   0.797   3.847 -0.5035 -0.4073  0.6440
  864MOL0     C16537   6.928   0.725   3.846  0.5468  0.1661  0.2020
  864MOL0     C16538   7.023   0.744   3.942  0.7017 -0.4069  0.2628
  864MOL0     C16539   7.154   0.697   3.927 -0.5556  1.0524  0.5526
  864MOL0     C16540   7.181   0.602   3.821 -0.2730  0.0616 -0.4330
  864MOL0     O16541   7.306   0.554   3.795 -0.1721  0.4196 -0.3950
  864MOL0     C16542   7.407   0.554   3.905 -0.5527  0.3280  0.1808
  864MOL0     C16543   7.527   0.463   3.870 -0.0851  0.3079 -0.2563
  864MOL0     C16544   7.590   0.516   3.742 -0.8748  0.0864  0.1750
  864MOL0     C16545   7.689   0.633   3.792 -0.6693 -0.2843  0.3796
  864MOL0     C16546   7.792   0.664   3.669  0.5180 -0.3063 -0.5218
  864MOL0     C16547   7.716   0.690   3.538 -0.8327 -0.2404 -0.3887
  864MOL0     C16548   7.801   0.729   3.418 -0.2211  0.3768  1.2544
  864MOL0     C16549   7.814   0.629   3.301  0.2873  0.4713  0.7941
  864MOL0    Cl16550   7.857   0.706   3.154 -0.0182 -0.1014 -0.0620
  864MOL0     C16551   7.077   0.570   3.737 -0.1851 -0.5024  0.6831
  864MOL0     C16552   6.965   0.647   3.737  0.7521 -0.5528  0.6677
  864MOL0     O16553   6.846   0.939   3.667 -0.4234  0.0527 -1.1199
  864MOL0     C16554   6.727   1.029   3.975 -1.0015  0.2952  0.0480
  864MOL0     C16555   6.637   1.115   4.040  0.5292 -0.8311 -0.3373
  864MOL0     N16556   5.950   1.133   4.003 -0.3341 -0.2588 -0.6844
  864MOL0     N16557   5.834   1.101   4.050 -0.3210  0.3792  0.1653
  864MOL0     C16558   5.257   1.939   4.393  0.5079 -0.4005 -0.0123
  864MOL0     C16559   5.130   1.999   4.413  0.2505 -0.7402  0.3464
  864MOL0     C16560   4.793   2.286   4.253  0.5814 -0.0786 -0.9071
  864MOL0     C16561   4.771   2.365   4.365  0.3304 -0.0766  0.1140
  864MOL0     C16562   4.693   2.478   4.362  0.0301  0.4970  0.2923
  864MOL0     C16563   4.631   2.519   4.247 -0.5753  0.3894 -0.0944
  864MOL0     O16564   4.565   2.643   4.254  0.2162  0.3819 -0.5344
  864MOL0     C16565   4.514   2.714   4.135 -0.1763  0.5686 -0.0597
  864MOL0     C16566   4.359   2.715   4.142  0.5334 -0.4910  0.3487
  864MOL0     C16567   4.290   2.846   4.083 -0.2873  0.0023  0.1657
  864MOL0     C16568   4.284   2.848   3.927  0.3097 -0.4168 -0.7392
  864MOL0     C16569   4.200   2.739   3.876  0.2261 -0.3456 -0.8227
  864MOL0     C16570   4.133   2.649   3.826 -0.3197  0.0474 -0.0032
  864MOL0     C16571   4.645   2.440   4.127  0.2443 -0.3370  0.0154
  864MOL0     C16572   4.720   2.323   4.134 -0.0137  0.6292  0.1212
  864MOL0     H16573   5.168   2.273   4.222  2.6856  2.0240  1.1262
  864MOL0     H16574   5.391   2.185   4.198  1.0585 -0.6924  0.8439
  864MOL0     H16575   5.577   2.075   4.168 -0.7320  0.6337  1.5834
  864MOL0     H16576   5.637   1.911   4.163  0.0112  0.0822  1.3189
  864MOL0     H16577   5.363   1.970   4.040 -0.8736 -0.8981 -2.2934
  864MOL0     H16578   5.520   1.947   3.968 -3.4400 -1.1434 -2.8510
  864MOL0     H16579   5.353   1.748   4.124  1.0545  0.2492  0.9303
  864MOL0     H16580   5.390   1.735   3.959  1.3873 -1.1400  0.5823
  864MOL0     H16581   5.648   1.725   4.027  0.6424  0.3901 -0.3027
  864MOL0     H16582   5.587   1.694   4.192 -1.5596 -1.6608  0.2394
  864MOL0     H16583   5.423   1.523   4.070 -0.0566 -0.1512 -2.4866
  864MOL0     H16584   5.557   1.539   3.952  0.9599  1.8179 -0.0385
  864MOL0     H16585   5.711   1.467   4.140 -0.5780  2.6302  0.1624
  864MOL0     H16586   5.577   1.457   4.243  0.7158  0.0224 -0.6818
  864MOL0     H16587   5.485   1.267   4.114  0.3683 -0.1717  0.4973
  864MOL0     H16588   5.625   1.278   3.998 -1.6154 -0.0493 -1.1638
  864MOL0     H16589   5.636   1.117   4.210 -0.6104  0.6541 -0.1684
  864MOL0     H16590   5.693   1.260   4.298  1.9378  1.4510 -0.6240
  864MOL0     H16591   5.910   1.377   4.210 -1.2801  0.2821 -0.9315
  864MOL0     H16592   6.215   1.198   4.054  1.9489  1.1556 -2.0581
  864MOL0     H16593   6.143   1.330   3.963 -2.8721  2.1010  1.4989
  864MOL0     H16594   6.187   1.319   4.266  1.1453  1.7169  1.3189
  864MOL0     H16595   6.109   1.448   4.189 -1.6197 -1.7442 -1.8790
  864MOL0     H16596   6.356   1.489   4.260  1.7301  0.3929 -0.8976
  864MOL0     H16597   6.338   1.524   4.102 -2.7322  2.2894  2.5020
  864MOL0     H16598   6.417   1.234   4.212  0.6766 -0.1118  1.0219
  864MOL0     H16599   6.545   1.349   4.200 -0.1204 -1.1030 -0.8670
  864MOL0     H16600   6.495   1.285   3.779 -1.4137  0.1287  2.5796
  864MOL0     H16601   6.528   1.158   3.592 -0.7992  0.4228  3.0534
  864MOL0     H16602   6.699   1.211   3.582 -1.1173 -0.2710  0.2605
  864MOL0     H16603   6.649   1.040   3.547 -0.0703  0.2620 -2.3767
  864MOL0     H16604   6.991   0.798   4.030 -2.4406 -0.9511 -0.4509
  864MOL0     H16605   7.229   0.728   3.998 -0.1761  1.3041  0.0458
  864MOL0     H16606   7.433   0.659   3.922 -2.1878  0.7960 -0.0186
  864MOL0     H16607   7.356   0.519   3.995 -0.7560 -1.4492 -0.5789
  864MOL0     H16608   7.604   0.462   3.948  0.5519  4.2549 -0.6361
  864MOL0     H16609   7.490   0.360   3.860  1.4495 -0.2982 -0.0088
  864MOL0     H16610   7.519   0.559   3.671 -0.9670 -1.6037 -0.8128
  864MOL0     H16611   7.647   0.436   3.695  1.1106  1.9218 -0.7003
  864MOL0     H16612   7.643   0.729   3.815  0.1858  0.3693 -0.5501
  864MOL0     H16613   7.738   0.589   3.879 -2.4296  0.3569  1.7387
  864MOL0     H16614   7.849   0.572   3.654 -3.0329 -2.3610 -2.8584
  864MOL0     H16615   7.846   0.750   3.711  1.6231 -1.1696 -0.1208
  864MOL0     H16616   7.663   0.597   3.515  0.0708 -1.3274  1.6276
  864MOL0     H16617   7.649   0.772   3.565 -0.9469 -0.8803  1.4057
  864MOL0     H16618   7.903   0.759   3.443  0.9896 -1.5162 -0.9883
  864MOL0     H16619   7.748   0.817   3.381 -0.3108 -1.0723 -2.5780
  864MOL0     H16620   7.720   0.576   3.282 -0.5782  0.1449  4.9144
  864MOL0     H16621   7.881   0.545   3.324 -2.1916 -2.6047 -2.0921
  864MOL0     H16622   7.086   0.492   3.662  0.6303  0.3766 -0.1623
  864MOL0     H16623   6.874   0.653   3.677 -0.5185  2.3446  2.6155
  864MOL0     H16624   6.775   0.952   4.034 -1.9991 -0.4148 -0.0595
  864MOL0     H16625   6.630   1.116   4.148  0.1954  2.4566 -0.2756
  864MOL0     H16626   5.268   1.836   4.427  1.2021 -1.0145 -1.9465
  864MOL0     H16627   5.055   1.953   4.477  0.4949 -1.9521 -0.2023
  864MOL0     H16628   4.825   2.345   4.457  0.0695 -1.2328  0.0335
  864MOL0     H16629   4.684   2.534   4.455 -1.2166  1.6335 -0.4741
  864MOL0     H16630   4.537   2.820   4.142 -1.0565  0.7023  1.2901
  864MOL0     H16631   4.547   2.663   4.044 -1.0084 -2.6140  1.2485
  864MOL0     H16632   4.344   2.722   4.250  0.5924  3.5930  0.2408
  864MOL0     H16633   4.319   2.620   4.106 -1.9357 -0.4785  2.7554
  864MOL0     H16634   4.355   2.927   4.117 -0.5675 -0.0152  0.7511
  864MOL0     H16635   4.187   2.853   4.122  0.0354  0.5927  0.9427
  864MOL0     H16636   4.384   2.848   3.882  0.0203  0.0727 -1.4141
  864MOL0     H16637   4.248   2.947   3.896  1.8741 -0.1433 -1.8015
  864MOL0     H16638   4.060   2.586   3.778 -0.6966 -0.1898  0.8661
  864MOL0     H16639   4.590   2.456   4.035  1.4569  0.4695 -0.5859
  864MOL0     H16640   4.731   2.269   4.040 -2.5631  1.6001 -0.8339
  865MOL0     O16641   5.521   6.669   5.458 -0.5594 -0.2381 -0.3106
  865MOL0     C16642   5.530   6.638   5.340  0.0746 -0.1094  0.2821
  865MOL0     O16643   5.649   6.606   5.273 -0.3107 -0.4962  0.3691
  865MOL0     C16644   5.764   6.619   5.355  1.1262  0.7466 -0.0426
  865MOL0     C16645   5.836   6.494   5.361  0.2211 -0.7515  0.4722
  865MOL0     C16646   5.951   6.498   5.442  0.3218  0.5187  0.2371
  865MOL0     C16647   5.988   6.611   5.515 -0.1338  0.4538 -0.2327
  865MOL0     O16648   6.108   6.601   5.583  0.2325 -0.3932 -0.2381
  865MOL0     C16649   6.183   6.729   5.608  0.9428  0.5305  0.4001
  865MOL0     C16650   6.324   6.700   5.634 -0.0288  1.0713 -0.5916
  865MOL0     C16651   6.392   6.605   5.535  0.4913 -0.0091  0.7983
  865MOL0     C16652   6.537   6.577   5.597  0.1701 -0.5155  1.4532
  865MOL0     C16653   6.635   6.502   5.509 -0.0816  0.8828 -0.6870
  865MOL0     C16654   6.624   6.346   5.514  0.9398 -0.1854 -1.1149
  865MOL0     C16655   6.720   6.267   5.430 -0.4350  0.3556 -1.1365
  865MOL0     C16656   6.697   6.265   5.280 -0.2427 -0.7618 -0.4963
  865MOL0     N16657   6.817   6.254   5.200 -0.1101  0.6394  0.2924
  865MOL0     C16658   6.914   6.161   5.233 -1.3258  0.3162  0.0705
  865MOL0     C16659   7.013   6.177   5.133  0.5995  0.2961 -0.9773
  865MOL0     C16660   7.134   6.091   5.099  0.5179  0.3452 -0.1176
  865MOL0     C16661   7.253   6.136   5.189  1.1176 -0.5331  0.2101
  865MOL0     C16662   7.389   6.102   5.134  0.4007 -1.1209  0.1755
  865MOL0     C16663   7.498   6.166   5.227  0.0004  0.4126 -0.1568
  865MOL0     O16664   7.495   6.092   5.355  0.2825 -0.0374  0.5790
  865MOL0     C16665   7.540   6.145   5.461 -0.0882  0.9155 -0.4071
  865MOL0     C16666   7.567   6.064   5.571 -0.7374 -0.5723 -0.6883
  865MOL0     C16667   7.634   6.112   5.685  0.3142  0.4254 -0.4316
  865MOL0     C16668   7.641   6.005   5.791  0.3204  0.1852  0.3994
  865MOL0     C16669   7.674   6.245   5.695  0.7156 -0.1260 -0.0086
  865MOL0     C16670   7.749   6.294   5.805 -0.6317  0.2361 -0.3288
  865MOL0     O16671   7.821   6.415   5.789  0.1488  0.1884 -0.1413
  865MOL0     C16672   7.911   6.483   5.870 -0.1928  0.1134  0.1174
  865MOL0     C16673   7.965   6.603   5.821 -0.4573 -0.1293  0.4228
  865MOL0     C16674   8.056   6.675   5.902 -0.1838 -1.2290 -0.1646
  865MOL0     C16675   8.105   6.624   6.019  0.4407  0.1209 -0.1176
  865MOL0     O16676   8.205   6.702   6.080  0.5985 -0.5010  0.7953
  865MOL0     C16677   8.261   6.661   6.201  0.2340 -0.2924  0.1444
  865MOL0     C16678   8.320   6.787   6.267 -0.6305 -0.5245 -0.1820
  865MOL0     C16679   8.414   6.750   6.375 -0.5691  0.2592  0.5236
  865MOL0     C16680   8.471   6.872   6.453  0.2855 -0.3223  0.8626
  865MOL0     C16681   8.577   6.828   6.551 -0.2793  0.0432 -0.5977
  865MOL0     C16682   8.624   6.933   6.653 -0.0564 -0.4740 -0.1222
  865MOL0     C16683   8.646   7.085   6.602  0.3975  0.4354 -0.1661
  865MOL0     C16684   8.683   7.164   6.720 -0.2291 -0.0777 -0.1785
  865MOL0    Cl16685   8.860   7.175   6.718 -0.0852 -0.0423  0.6596
  865MOL0     C16686   8.050   6.504   6.078 -0.3214  0.2763  0.3844
  865MOL0     C16687   7.955   6.431   5.998 -0.3995 -0.8157  0.2733
  865MOL0     O16688   7.761   6.228   5.910  0.8149  0.1391 -0.4790
  865MOL0     C16689   7.657   6.324   5.577  0.6064  0.1936  0.2384
  865MOL0     C16690   7.584   6.278   5.464 -0.4441 -0.3560 -0.6497
  865MOL0     N16691   6.963   6.282   5.045 -0.3312  0.3452 -0.0977
  865MOL0     N16692   6.856   6.326   5.092 -0.0932 -0.4811  0.3691
  865MOL0     C16693   5.915   6.729   5.506  0.8793  0.0229 -0.7006
  865MOL0     C16694   5.797   6.736   5.428 -0.0046  1.2620 -1.3071
  865MOL0     C16695   5.406   6.598   5.263  0.2612  0.4743  0.8405
  865MOL0     C16696   5.277   6.594   5.328 -0.8426 -0.1514 -0.2478
  865MOL0     C16697   5.163   6.562   5.256 -0.1509 -0.4035  0.5075
  865MOL0     C16698   5.172   6.534   5.120 -0.5383  0.9196  0.0257
  865MOL0     O16699   5.067   6.500   5.044 -0.0243 -0.3626 -0.0789
  865MOL0     C16700   4.951   6.433   5.096  0.3863  0.3444 -0.6225
  865MOL0     C16701   4.863   6.396   4.984  0.4174  1.1560 -0.4786
  865MOL0     C16702   4.719   6.352   5.015 -0.2420  0.3228 -0.0356
  865MOL0     C16703   4.713   6.208   5.066 -0.3599  0.0999 -0.6067
  865MOL0     C16704   4.569   6.177   5.104 -0.1479  0.2234  0.2922
  865MOL0     C16705   4.451   6.151   5.127 -0.0357 -0.6575 -0.4745
  865MOL0     C16706   5.295   6.551   5.048 -1.4312  0.0384 -0.6730
  865MOL0     C16707   5.407   6.576   5.124  0.1962 -0.1380 -0.8917
  865MOL0     H16708   5.797   6.404   5.315 -4.8167  2.4517 -2.5782
  865MOL0     H16709   6.010   6.409   5.464  0.3765  1.1414  3.0181
  865MOL0     H16710   6.187   6.789   5.516  2.0531  2.3290  1.5621
  865MOL0     H16711   6.154   6.774   5.703 -2.2657 -1.6533  0.6196
  865MOL0     H16712   6.384   6.792   5.630  2.7661 -0.5981 -0.1066
  865MOL0     H16713   6.342   6.659   5.734  1.2595 -1.8019 -1.8726
  865MOL0     H16714   6.338   6.510   5.531 -0.5776  0.4832  2.4147
  865MOL0     H16715   6.381   6.639   5.432 -2.8324 -0.2945  0.9417
  865MOL0     H16716   6.582   6.675   5.619  2.1550 -1.4865  1.8914
  865MOL0     H16717   6.519   6.529   5.693 -5.5373 -2.2772 -0.0955
  865MOL0     H16718   6.630   6.542   5.408  0.4868  0.9014 -0.7114
  865MOL0     H16719   6.739   6.520   5.539  0.8886 -0.6085 -2.8732
  865MOL0     H16720   6.636   6.322   5.620 -1.0717 -0.1586 -0.8459
  865MOL0     H16721   6.519   6.327   5.492  0.8605 -1.0274 -0.0922
  865MOL0     H16722   6.820   6.309   5.449  0.5443 -2.5692  1.1162
  865MOL0     H16723   6.717   6.168   5.477 -1.1232  1.4123  1.2417
  865MOL0     H16724   6.640   6.353   5.245  0.2805 -0.6645 -1.1352
  865MOL0     H16725   6.638   6.178   5.250  0.0691 -2.0158  2.3080
  865MOL0     H16726   6.911   6.081   5.306 -3.4615  2.1696  2.1642
  865MOL0     H16727   7.101   5.989   5.121  0.1294  1.1660  4.0336
  865MOL0     H16728   7.162   6.107   4.995  1.0318 -0.8430 -0.1823
  865MOL0     H16729   7.236   6.102   5.292 -2.5184 -1.8848 -0.6797
  865MOL0     H16730   7.256   6.245   5.185 -1.7139 -0.1990  2.8912
  865MOL0     H16731   7.380   6.151   5.037 -3.9088  1.1573  1.4771
  865MOL0     H16732   7.400   5.994   5.124  2.4927 -0.8900 -0.5159
  865MOL0     H16733   7.482   6.274   5.236 -0.0190  0.3319  0.8438
  865MOL0     H16734   7.598   6.158   5.185 -0.0917  2.9738 -1.0435
  865MOL0     H16735   7.543   5.959   5.561 -0.7928 -0.6108 -0.1762
  865MOL0     H16736   7.614   5.907   5.750 -2.4859  0.8965  0.3269
  865MOL0     H16737   7.738   5.997   5.842 -0.2910  1.6265  1.8989
  865MOL0     H16738   7.564   5.997   5.869  1.8306 -1.5971  1.8114
  865MOL0     H16739   7.935   6.633   5.721 -0.2796  1.6881  0.8838
  865MOL0     H16740   8.089   6.767   5.855  1.1371 -2.9117 -2.7569
  865MOL0     H16741   8.192   6.618   6.274  0.5140  1.2019  1.3353
  865MOL0     H16742   8.337   6.586   6.178  3.6176  2.5802  1.1873
  865MOL0     H16743   8.377   6.848   6.196 -0.4315 -1.3062 -0.7074
  865MOL0     H16744   8.238   6.845   6.312  0.5634 -1.0120  2.9039
  865MOL0     H16745   8.501   6.702   6.329 -0.4525  0.9186  0.0409
  865MOL0     H16746   8.365   6.676   6.439 -2.9465  0.1002 -1.3181
  865MOL0     H16747   8.519   6.948   6.390  1.1970 -2.6416 -1.3959
  865MOL0     H16748   8.400   6.932   6.512 -0.7940  0.9555 -1.6048
  865MOL0     H16749   8.666   6.798   6.495 -0.0696  1.9932 -1.3764
  865MOL0     H16750   8.539   6.741   6.606 -1.7281  1.2985  0.4736
  865MOL0     H16751   8.546   6.934   6.730 -0.9997 -3.2331 -0.9195
  865MOL0     H16752   8.720   6.894   6.688  0.2777 -1.2148 -1.7709
  865MOL0     H16753   8.554   7.118   6.554  1.1639  2.3266 -0.4044
  865MOL0     H16754   8.727   7.090   6.529  1.2384  0.7157  0.7611
  865MOL0     H16755   8.635   7.138   6.815  0.7021  1.8502  0.9002
  865MOL0     H16756   8.634   7.259   6.697 -3.4799 -1.8524 -1.2229
  865MOL0     H16757   8.080   6.460   6.173 -1.3859  0.4514  0.8194
  865MOL0     H16758   7.905   6.346   6.043 -2.8697  0.8483  0.9168
  865MOL0     H16759   7.707   6.420   5.573 -1.2172  1.1421 -0.6363
  865MOL0     H16760   7.598   6.345   5.381 -1.3555 -0.4210 -0.8631
  865MOL0     H16761   5.943   6.811   5.571 -0.6021  0.8313 -1.0375
  865MOL0     H16762   5.739   6.827   5.426  2.2659  2.7912 -1.8613
  865MOL0     H16763   5.281   6.630   5.431 -0.7605  4.5560 -1.6346
  865MOL0     H16764   5.067   6.562   5.305 -0.6789 -2.3247 -0.4402
  865MOL0     H16765   4.983   6.344   5.152  0.1225 -1.8912 -3.7244
  865MOL0     H16766   4.893   6.506   5.152  0.4071  0.6403 -0.9906
  865MOL0     H16767   4.899   6.317   4.918  1.0810 -1.7273  3.0260
  865MOL0     H16768   4.846   6.494   4.939 -0.7562  2.8117  3.2095
  865MOL0     H16769   4.654   6.365   4.928  1.0938 -0.9638 -1.2826
  865MOL0     H16770   4.690   6.423   5.093 -0.4228  1.3105 -0.9800
  865MOL0     H16771   4.772   6.189   5.157  0.0928  0.3280 -0.8479
  865MOL0     H16772   4.748   6.131   4.996  0.9740 -0.3401  0.4823
  865MOL0     H16773   4.346   6.147   5.150  0.1491  0.9534  0.8253
  865MOL0     H16774   5.309   6.528   4.943 -0.5340 -5.1923  0.3217
  865MOL0     H16775   5.505   6.570   5.077  0.2229  0.5648 -0.9413
  866MOL0     O16776   3.271   3.796   0.497 -0.3608  0.8706  0.5152
  866MOL0     C16777   3.196   3.823   0.402  0.9144 -0.0241 -0.7261
  866MOL0     O16778   3.226   3.901   0.300  0.3626  0.0856 -0.5280
  866MOL0     C16779   3.342   3.967   0.305 -0.0573 -1.0306 -0.2414
  866MOL0     C16780   3.449   3.938   0.216  0.2725  0.5744 -0.2268
  866MOL0     C16781   3.555   4.026   0.203 -0.3015 -0.4064  0.4720
  866MOL0     C16782   3.564   4.152   0.275  0.3134  1.1118 -1.2474
  866MOL0     O16783   3.671   4.237   0.269  0.4877 -0.0387  0.0299
  866MOL0     C16784   3.785   4.216   0.179 -0.2559  0.6264  0.5436
  866MOL0     C16785   3.869   4.352   0.168 -0.4383  0.2524 -0.8092
  866MOL0     C16786   3.791   4.448   0.080 -0.9486 -0.1265 -0.6871
  866MOL0     C16787   3.731   4.388  -0.052  0.3420  0.8530  0.5184
  866MOL0     C16788   3.706   4.510  -0.153 -0.0659  1.5545  0.1623
  866MOL0     C16789   3.666   4.440  -0.288 -0.5359  0.5163 -0.7358
  866MOL0     C16790   3.606   4.546  -0.384  0.4920 -0.3468 -0.6345
  866MOL0     C16791   3.533   4.480  -0.508 -0.1546  0.2851 -0.1112
  866MOL0     N16792   3.618   4.411  -0.604  0.2543 -0.5782 -0.5075
  866MOL0     C16793   3.716   4.480  -0.671 -0.2977 -0.3337  0.0265
  866MOL0     C16794   3.778   4.384  -0.747 -0.1730  0.0003 -0.2653
  866MOL0     C16795   3.876   4.421  -0.859 -0.4479  0.2339  1.9464
  866MOL0     C16796   3.843   4.349  -0.992 -0.0148  0.2116  0.0996
  866MOL0     C16797   3.737   4.429  -1.077 -0.4127  0.5469  0.0767
  866MOL0     C16798   3.595   4.454  -1.019  0.5105  0.1362  0.1887
  866MOL0     O16799   3.514   4.517  -1.125  0.2324 -0.1794 -0.2538
  866MOL0     C16800   3.438   4.448  -1.221 -0.4266 -0.9073 -0.1373
  866MOL0     C16801   3.330   4.515  -1.273 -0.4495  0.1955  0.2003
  866MOL0     C16802   3.252   4.451  -1.374 -0.2360  0.1922  0.6144
  866MOL0     C16803   3.133   4.521  -1.447  0.2917  0.4559  0.3100
  866MOL0     C16804   3.274   4.321  -1.409  0.2341 -0.3569  0.8997
  866MOL0     C16805   3.192   4.236  -1.501 -0.6898  0.1862  1.0385
  866MOL0     O16806   3.218   4.248  -1.639  0.6487  0.0136 -0.3144
  866MOL0     C16807   3.165   4.165  -1.734 -0.4649  0.1997 -0.0278
  866MOL0     C16808   3.152   4.029  -1.713  0.2871  1.3396 -0.2809
  866MOL0     C16809   3.118   3.935  -1.817 -0.4466  0.5777 -0.8300
  866MOL0     C16810   3.090   3.996  -1.938  1.2965  0.0381  0.3009
  866MOL0     O16811   3.042   3.911  -2.038  0.2754  0.4779 -0.0288
  866MOL0     C16812   2.897   3.902  -2.046  0.4389  0.4164  0.8221
  866MOL0     C16813   2.851   3.865  -2.194  1.1361 -0.1515 -0.5502
  866MOL0     C16814   2.921   3.946  -2.308 -0.0297  0.3363 -0.6642
  866MOL0     C16815   2.896   3.900  -2.445 -0.7256  0.4121 -0.2891
  866MOL0     C16816   2.978   4.006  -2.524  0.4289 -0.1240 -0.5361
  866MOL0     C16817   2.962   3.976  -2.666 -0.3063 -0.6165  0.5890
  866MOL0     C16818   3.042   3.850  -2.715 -0.2301 -0.6967 -0.7216
  866MOL0     C16819   3.030   3.845  -2.870 -0.4915 -0.0417  0.0075
  866MOL0    Cl16820   3.168   3.940  -2.931  0.4549  0.0348  0.1619
  866MOL0     C16821   3.103   4.131  -1.958  0.1979 -0.6076  0.0070
  866MOL0     C16822   3.130   4.214  -1.847  0.3987 -0.7941 -0.3853
  866MOL0     O16823   3.100   4.171  -1.455  0.0480  1.1561  0.1091
  866MOL0     C16824   3.381   4.257  -1.349 -0.7468  0.0816  0.5127
  866MOL0     C16825   3.465   4.323  -1.259 -0.0678 -0.8796 -0.7604
  866MOL0     N16826   3.725   4.255  -0.714 -0.3069  0.5332 -0.2332
  866MOL0     N16827   3.633   4.274  -0.620 -0.3287  0.2903  0.0461
  866MOL0     C16828   3.461   4.180   0.365  0.1789  0.4113 -0.6252
  866MOL0     C16829   3.353   4.090   0.382  0.2906  0.9945 -0.1487
  866MOL0     C16830   3.069   3.748   0.409 -0.3079  0.9179 -0.2552
  866MOL0     C16831   2.979   3.752   0.304 -0.0182  0.2694  0.0645
  866MOL0     C16832   2.871   3.669   0.298 -0.0162  0.2904  0.0487
  866MOL0     C16833   2.842   3.581   0.405 -0.8136 -0.2910  0.3977
  866MOL0     O16834   2.726   3.507   0.387 -0.2463 -0.1872  0.2355
  866MOL0     C16835   2.723   3.384   0.457  0.0120  1.0111 -0.6982
  866MOL0     C16836   2.603   3.373   0.544 -0.4956  0.1033  0.4201
  866MOL0     C16837   2.585   3.492   0.642 -0.7372 -1.4671 -0.2454
  866MOL0     C16838   2.452   3.461   0.717  0.0817 -0.8000  0.4278
  866MOL0     C16839   2.482   3.395   0.851  1.0891  0.3515  0.4889
  866MOL0     C16840   2.526   3.341   0.952  0.1506  0.1641 -0.2686
  866MOL0     C16841   2.935   3.577   0.515  0.4532  0.0448  0.4241
  866MOL0     C16842   3.046   3.657   0.514  0.3746 -0.0960 -0.8378
  866MOL0     H16843   3.447   3.843   0.164 -0.0636 -0.5286  1.7440
  866MOL0     H16844   3.634   3.987   0.139 -0.6392 -1.1395  0.4998
  866MOL0     H16845   3.841   4.126   0.207 -3.6784 -1.6342  0.7199
  866MOL0     H16846   3.746   4.199   0.078 -0.3952  4.2635 -0.1535
  866MOL0     H16847   3.900   4.394   0.264 -3.2392  2.2283 -0.6730
  866MOL0     H16848   3.956   4.336   0.103 -0.7002 -0.1023 -1.0801
  866MOL0     H16849   3.714   4.507   0.131 -1.9472  0.3724 -2.6691
  866MOL0     H16850   3.860   4.517   0.031 -1.7030  0.5344 -0.8237
  866MOL0     H16851   3.805   4.327  -0.104 -1.1932  0.0439 -0.7879
  866MOL0     H16852   3.637   4.336  -0.031  0.6676 -0.3009 -0.7487
  866MOL0     H16853   3.619   4.563  -0.113  1.4696  3.6994  0.9183
  866MOL0     H16854   3.798   4.567  -0.168 -0.1874  0.9220 -3.9277
  866MOL0     H16855   3.755   4.403  -0.340  1.8369  2.4045  1.7013
  866MOL0     H16856   3.608   4.347  -0.284  0.5728 -0.1604  0.7322
  866MOL0     H16857   3.529   4.616  -0.348  0.5954  0.3377 -1.7177
  866MOL0     H16858   3.689   4.604  -0.426 -0.5610 -0.2869 -2.7348
  866MOL0     H16859   3.487   4.561  -0.566  0.2100 -0.7721 -1.9660
  866MOL0     H16860   3.460   4.405  -0.478  0.6060 -0.4733 -0.1259
  866MOL0     H16861   3.742   4.583  -0.691  0.7728 -0.5750  0.0770
  866MOL0     H16862   3.869   4.525  -0.890 -4.3083 -0.7892 -1.5990
  866MOL0     H16863   3.975   4.384  -0.833  1.1129  1.6973 -1.4300
  866MOL0     H16864   3.816   4.244  -0.973  1.5258 -0.5222 -1.5025
  866MOL0     H16865   3.928   4.349  -1.060 -2.9496 -0.0479 -3.9655
  866MOL0     H16866   3.728   4.378  -1.173  1.5292  0.0651  0.1165
  866MOL0     H16867   3.767   4.532  -1.097 -0.5659  0.6889  0.5499
  866MOL0     H16868   3.605   4.516  -0.929  0.5799 -0.0670  0.3220
  866MOL0     H16869   3.545   4.363  -0.985 -1.7515  0.7882 -1.1966
  866MOL0     H16870   3.301   4.611  -1.232  1.2387  0.3927  0.9883
  866MOL0     H16871   3.151   4.627  -1.469 -0.0068  0.2506 -1.0044
  866MOL0     H16872   3.116   4.473  -1.544 -0.7402  0.2260  0.5936
  866MOL0     H16873   3.042   4.525  -1.386  0.2976  3.5207  0.2933
  866MOL0     H16874   3.177   3.987  -1.615  0.9704 -0.5415 -1.2060
  866MOL0     H16875   3.109   3.828  -1.803  0.8799  0.3389 -1.6067
  866MOL0     H16876   2.855   3.824  -1.982  0.0663  0.0127  0.0998
  866MOL0     H16877   2.858   4.000  -2.016 -1.6298 -0.0213 -0.2108
  866MOL0     H16878   2.868   3.757  -2.195  1.2226 -0.1366 -0.6841
  866MOL0     H16879   2.743   3.880  -2.204  0.4978 -1.4496  3.0235
  866MOL0     H16880   3.029   3.930  -2.294 -0.2071 -0.5827 -0.2486
  866MOL0     H16881   2.913   4.054  -2.300 -0.6801  0.4013 -1.9842
  866MOL0     H16882   2.931   3.797  -2.456 -1.3932 -0.1111  1.9691
  866MOL0     H16883   2.793   3.881  -2.476  0.1660 -2.0160 -2.0562
  866MOL0     H16884   3.084   4.005  -2.496 -0.1801 -0.2121  1.9519
  866MOL0     H16885   2.954   4.109  -2.497 -1.3631 -0.5015 -0.5569
  866MOL0     H16886   2.858   3.968  -2.700  0.9023  1.1780 -4.3011
  866MOL0     H16887   3.009   4.058  -2.720  0.7439 -0.2662  1.9902
  866MOL0     H16888   2.991   3.760  -2.677 -0.6146 -0.4182 -0.5729
  866MOL0     H16889   3.148   3.844  -2.687 -0.7787 -0.3353  1.6799
  866MOL0     H16890   2.936   3.888  -2.905 -0.1731  1.0844  0.4784
  866MOL0     H16891   3.029   3.742  -2.906  1.5320 -0.3134  0.5923
  866MOL0     H16892   3.079   4.165  -2.058  0.9072 -1.3904 -0.4374
  866MOL0     H16893   3.144   4.318  -1.876 -2.5622 -0.5898 -1.4541
  866MOL0     H16894   3.408   4.155  -1.373 -4.1887 -1.0766  0.9471
  866MOL0     H16895   3.546   4.261  -1.221 -0.0493 -2.5033 -3.1753
  866MOL0     H16896   3.468   4.264   0.434  1.4203 -0.8926  0.9379
  866MOL0     H16897   3.263   4.112   0.437  0.1827  0.6776 -0.1947
  866MOL0     H16898   2.979   3.821   0.219  0.9343 -1.9405 -1.8486
  866MOL0     H16899   2.796   3.691   0.223 -1.8965 -3.0898  0.7484
  866MOL0     H16900   2.728   3.305   0.382 -0.0790 -0.4878  0.7969
  866MOL0     H16901   2.806   3.359   0.523  0.6424  0.8378 -1.5414
  866MOL0     H16902   2.609   3.282   0.606 -0.3344 -1.1331 -1.3420
  866MOL0     H16903   2.515   3.347   0.484  0.8166  2.2584 -2.6490
  866MOL0     H16904   2.579   3.581   0.579 -0.5934 -2.7585 -2.1670
  866MOL0     H16905   2.664   3.492   0.718  1.3213 -2.1392 -2.2807
  866MOL0     H16906   2.379   3.404   0.659 -0.0534  1.2937 -1.6328
  866MOL0     H16907   2.400   3.554   0.744  0.7207 -1.0988  2.9165
  866MOL0     H16908   2.559   3.281   1.034 -0.9598 -2.8687 -1.8534
  866MOL0     H16909   2.914   3.512   0.600 -0.9007  3.1239  2.6450
  866MOL0     H16910   3.114   3.650   0.598  1.3261  1.4829 -1.4362
  867MOL0     O16911   8.796   1.063   5.668  0.0816  0.3840 -0.3058
  867MOL0     C16912   8.838   0.999   5.766 -1.1887  0.0860 -0.1515
  867MOL0     O16913   8.771   0.972   5.883  0.2567  0.0988  0.3969
  867MOL0     C16914   8.638   0.990   5.883  0.0790 -0.9713 -0.9297
  867MOL0     C16915   8.589   1.110   5.906 -0.1258 -0.5945 -1.3377
  867MOL0     C16916   8.453   1.134   5.930  1.5427  0.4690  0.3941
  867MOL0     C16917   8.362   1.031   5.924  0.5755  0.9137  0.2335
  867MOL0     O16918   8.227   1.054   5.956  0.5137  0.3050  0.3443
  867MOL0     C16919   8.137   0.949   5.947 -0.4036  0.3393 -0.3274
  867MOL0     C16920   8.003   1.014   5.989  0.3298 -1.1646  0.3826
  867MOL0     C16921   7.893   0.918   6.040 -0.1577  0.0447 -0.6486
  867MOL0     C16922   7.925   0.878   6.185  0.0462  0.1627 -0.2485
  867MOL0     C16923   7.840   0.759   6.239 -0.4046  0.7943  0.1482
  867MOL0     C16924   7.799   0.769   6.390  0.4660  0.5312 -0.1589
  867MOL0     C16925   7.659   0.709   6.400 -0.7231 -0.3808  0.0795
  867MOL0     C16926   7.656   0.557   6.373  0.0571 -0.4097 -0.3050
  867MOL0     N16927   7.525   0.490   6.377 -1.1645 -0.0897 -1.1803
  867MOL0     C16928   7.426   0.504   6.277 -0.8038  0.0723  0.4466
  867MOL0     C16929   7.330   0.410   6.325 -0.2249 -0.1632  0.6389
  867MOL0     C16930   7.190   0.394   6.259 -1.0200  0.5171 -0.4474
  867MOL0     C16931   7.083   0.358   6.360  0.3935  0.2163  1.1373
  867MOL0     C16932   6.964   0.307   6.287  1.6511 -0.3475 -0.3923
  867MOL0     C16933   6.862   0.242   6.377  0.3245  0.1920 -0.1197
  867MOL0     O16934   6.784   0.343   6.443  0.3734  1.3058 -0.5688
  867MOL0     C16935   6.647   0.328   6.445  0.9324 -0.5768 -0.0106
  867MOL0     C16936   6.577   0.397   6.549  0.1617 -0.0597  0.2866
  867MOL0     C16937   6.433   0.396   6.573  0.5203 -0.5003 -1.5120
  867MOL0     C16938   6.379   0.479   6.692  0.0966  0.0245  0.7084
  867MOL0     C16939   6.356   0.332   6.474 -0.3170  0.0051  0.5831
  867MOL0     C16940   6.210   0.331   6.476 -0.0679  0.0725  0.3885
  867MOL0     O16941   6.153   0.332   6.600 -0.2497  0.3933 -0.4136
  867MOL0     C16942   6.018   0.316   6.613  0.1360 -0.3616  0.3250
  867MOL0     C16943   5.936   0.423   6.646 -0.5100 -0.3193 -0.2831
  867MOL0     C16944   5.804   0.406   6.692  1.2092  0.6592 -0.0193
  867MOL0     C16945   5.734   0.278   6.667 -0.1216  0.8837 -0.4036
  867MOL0     O16946   5.604   0.269   6.697 -0.9151  0.1075 -0.2358
  867MOL0     C16947   5.541   0.139   6.715  0.1430  0.3521 -0.1417
  867MOL0     C16948   5.391   0.145   6.725 -0.0159  0.1782  0.5464
  867MOL0     C16949   5.334   0.208   6.595  0.2527  0.2912  0.2813
  867MOL0     C16950   5.183   0.234   6.604 -0.2353  0.4246 -1.3241
  867MOL0     C16951   5.110   0.284   6.482 -0.5087 -0.0191 -0.4917
  867MOL0     C16952   4.961   0.307   6.494 -0.0168  0.1025 -0.4317
  867MOL0     C16953   4.879   0.169   6.505  0.2526  0.2115  0.5065
  867MOL0     C16954   4.724   0.187   6.529 -0.2706  0.0516 -0.1174
  867MOL0    Cl16955   4.653   0.273   6.385  0.0559  0.3984  0.1871
  867MOL0     C16956   5.810   0.169   6.616  0.2907 -0.1466  0.7625
  867MOL0     C16957   5.952   0.190   6.595 -0.1149 -1.0374  0.5583
  867MOL0     O16958   6.153   0.312   6.371  0.4596 -0.6717  0.4308
  867MOL0     C16959   6.424   0.280   6.363 -0.0393  0.2020  0.3806
  867MOL0     C16960   6.565   0.284   6.341  0.0759 -0.5648 -0.3506
  867MOL0     N16961   7.367   0.356   6.446 -0.0194 -0.2837 -0.9091
  867MOL0     N16962   7.481   0.413   6.481 -0.8890 -0.8012  0.3257
  867MOL0     C16963   8.419   0.899   5.895  0.0177 -0.0812 -0.0284
  867MOL0     C16964   8.553   0.886   5.874  0.2931  0.5856 -0.1100
  867MOL0     C16965   8.984   0.945   5.763  0.2009 -0.7037 -0.3937
  867MOL0     C16966   9.042   0.861   5.859 -0.3475 -0.1562 -0.0920
  867MOL0     C16967   9.179   0.831   5.857  0.2986  0.5130  0.1458
  867MOL0     C16968   9.261   0.883   5.746  1.1269 -0.6970  0.0620
  867MOL0     O16969   9.391   0.855   5.719  0.3146  0.1338 -0.2701
  867MOL0     C16970   9.452   0.750   5.789  0.2211  0.2273  0.6493
  867MOL0     C16971   9.578   0.715   5.723 -0.0294 -0.0270 -0.0802
  867MOL0     C16972   9.629   0.563   5.740  0.2474  0.2744 -0.3180
  867MOL0     C16973   9.756   0.518   5.651 -0.1268  0.1710  0.3140
  867MOL0     C16974   9.722   0.513   5.510  0.4409 -0.5061  0.3888
  867MOL0     C16975   9.702   0.513   5.384  0.1536 -0.1678 -0.6092
  867MOL0     C16976   9.201   0.975   5.648  0.6902  0.3814 -0.6223
  867MOL0     C16977   9.064   1.000   5.664 -0.3547 -0.6637 -0.0874
  867MOL0     H16978   8.663   1.188   5.918 -1.5138  0.5612  0.3032
  867MOL0     H16979   8.420   1.231   5.965 -2.6745 -0.4141 -0.6562
  867MOL0     H16980   8.122   0.918   5.843 -0.2697  1.0839 -0.5729
  867MOL0     H16981   8.163   0.875   6.023 -2.0791  1.1255  1.0849
  867MOL0     H16982   8.028   1.082   6.071 -0.8569 -0.6695  0.3566
  867MOL0     H16983   7.963   1.062   5.899 -0.5263 -1.1957  0.7428
  867MOL0     H16984   7.792   0.957   6.032  0.4730  2.5527  1.9686
  867MOL0     H16985   7.899   0.827   5.980 -3.7736  0.7554 -2.3180
  867MOL0     H16986   8.030   0.846   6.189  0.2356  0.8748  1.5181
  867MOL0     H16987   7.922   0.967   6.249  2.9126 -1.1100  1.9212
  867MOL0     H16988   7.746   0.757   6.184 -0.0963  2.4992 -0.5198
  867MOL0     H16989   7.878   0.660   6.214 -1.7376  0.4089 -0.4643
  867MOL0     H16990   7.878   0.709   6.436  0.0512  1.9676  2.5786
  867MOL0     H16991   7.802   0.869   6.435 -1.2606  0.9752 -0.9215
  867MOL0     H16992   7.622   0.734   6.500 -1.2954 -0.9143  0.0025
  867MOL0     H16993   7.594   0.756   6.326 -0.9474  0.2727  0.6773
  867MOL0     H16994   7.723   0.509   6.445 -2.7883 -0.1386  2.7667
  867MOL0     H16995   7.686   0.542   6.268  1.4446  1.1142 -0.1520
  867MOL0     H16996   7.422   0.578   6.197 -1.9468 -0.2181  0.2195
  867MOL0     H16997   7.166   0.490   6.211 -3.3757 -0.8880 -2.3293
  867MOL0     H16998   7.199   0.319   6.179  0.4715 -2.3630  2.2204
  867MOL0     H16999   7.050   0.441   6.423  0.6729  1.2677 -0.0438
  867MOL0     H17000   7.121   0.279   6.425  0.5883 -0.2180  0.5069
  867MOL0     H17001   6.992   0.237   6.209 -1.6310 -0.3563 -1.7218
  867MOL0     H17002   6.926   0.390   6.226 -0.9631  0.8898  2.6230
  867MOL0     H17003   6.909   0.175   6.450  0.3721  0.9127  0.5243
  867MOL0     H17004   6.799   0.172   6.321  0.4368 -1.5205  1.7876
  867MOL0     H17005   6.640   0.439   6.626  1.8058 -1.7355 -0.0590
  867MOL0     H17006   6.462   0.533   6.739 -0.9599  1.1891  1.3068
  867MOL0     H17007   6.306   0.549   6.651  1.0866  0.7337  0.1227
  867MOL0     H17008   6.330   0.408   6.759 -1.6506 -1.8445 -2.3147
  867MOL0     H17009   5.973   0.524   6.657 -2.4321  0.2689  1.6625
  867MOL0     H17010   5.755   0.498   6.720  1.1391  1.2116 -1.8477
  867MOL0     H17011   5.569   0.076   6.630  0.7052 -2.8677  2.2305
  867MOL0     H17012   5.589   0.087   6.799  1.0325 -1.0613 -1.4820
  867MOL0     H17013   5.347   0.045   6.738 -2.1469  0.7723 -1.4282
  867MOL0     H17014   5.365   0.209   6.809 -1.7589  0.0421  0.1490
  867MOL0     H17015   5.361   0.146   6.509 -1.2838 -0.4431  0.3006
  867MOL0     H17016   5.386   0.302   6.577  0.9973 -0.7834 -4.3919
  867MOL0     H17017   5.131   0.138   6.616 -1.4311  1.2560  0.7347
  867MOL0     H17018   5.160   0.286   6.697  0.7825 -2.1125  0.4695
  867MOL0     H17019   5.114   0.208   6.403 -0.4341 -1.9876  1.2922
  867MOL0     H17020   5.162   0.371   6.443 -0.3762  1.2605  2.2895
  867MOL0     H17021   4.940   0.363   6.586 -0.2615 -1.4876  0.5119
  867MOL0     H17022   4.928   0.381   6.420  3.4329  0.9238 -1.3150
  867MOL0     H17023   4.928   0.099   6.573  4.0200 -0.5670 -2.6040
  867MOL0     H17024   4.886   0.114   6.410 -1.9796 -1.2088  1.0767
  867MOL0     H17025   4.706   0.243   6.622 -0.9200  0.3300 -0.4076
  867MOL0     H17026   4.669   0.093   6.542 -1.9953  1.3119  2.9152
  867MOL0     H17027   5.769   0.069   6.604  2.6853 -1.2447  1.0834
  867MOL0     H17028   6.014   0.108   6.560 -0.5088 -0.6672 -1.1255
  867MOL0     H17029   6.357   0.243   6.286  0.6291  0.1413 -0.1898
  867MOL0     H17030   6.603   0.259   6.243  1.4191  3.3573 -1.0214
  867MOL0     H17031   8.362   0.808   5.910 -1.1167  1.0433  3.7962
  867MOL0     H17032   8.585   0.782   5.867 -0.1548  0.2246  2.2054
  867MOL0     H17033   8.997   0.838   5.955  1.7842  3.7846  2.0740
  867MOL0     H17034   9.231   0.771   5.932  0.5711  2.6287  1.7441
  867MOL0     H17035   9.478   0.773   5.892  3.3809  0.0602 -0.0112
  867MOL0     H17036   9.402   0.653   5.797  2.3161 -0.9319  0.4013
  867MOL0     H17037   9.658   0.779   5.760  1.1673 -1.0796 -0.7466
  867MOL0     H17038   9.595   0.734   5.617  0.9617  1.8293  0.3564
  867MOL0     H17039   9.548   0.493   5.721 -0.4212  1.0584 -0.4356
  867MOL0     H17040   9.664   0.565   5.844  0.9160  2.6924 -0.5125
  867MOL0     H17041   9.801   0.425   5.685  0.8381  1.1865  1.9511
  867MOL0     H17042   9.838   0.590   5.654  0.5868 -0.6121 -0.1203
  867MOL0     H17043   9.675   0.514   5.280  3.4379  5.6686 -1.8715
  867MOL0     H17044   9.260   1.021   5.569  1.3669 -0.2457 -0.5032
  867MOL0     H17045   9.022   1.075   5.599  1.2703 -2.2637 -3.2325
  868MOL0     O17046   0.324   7.946   7.322 -0.7494 -0.4809  0.1212
  868MOL0     C17047   0.400   7.873   7.376  0.6754  0.4383  0.0287
  868MOL0     O17048   0.428   7.879   7.509  0.4874  0.2194 -0.4421
  868MOL0     C17049   0.339   7.923   7.601 -0.3838  0.5398  0.8432
  868MOL0     C17050   0.316   7.836   7.706  0.0054 -0.5735 -0.1722
  868MOL0     C17051   0.229   7.885   7.808  0.6894  0.1708  0.1562
  868MOL0     C17052   0.168   8.008   7.800 -0.8325 -0.8716  0.2933
  868MOL0     O17053   0.082   8.042   7.903  0.2325  0.6704 -0.4077
  868MOL0     C17054  -0.042   8.109   7.858  0.0908 -1.4877 -0.2391
  868MOL0     C17055  -0.145   8.015   7.789 -0.4190  0.0861  0.4471
  868MOL0     C17056  -0.286   8.074   7.746 -0.3289  0.4981  0.3093
  868MOL0     C17057  -0.269   8.170   7.630  0.4523 -1.0549  0.6573
  868MOL0     C17058  -0.208   8.118   7.495 -0.2283  0.5121 -0.0417
  868MOL0     C17059  -0.207   8.208   7.371 -0.6279 -0.1366  0.2738
  868MOL0     C17060  -0.079   8.196   7.287  0.8642 -0.0706 -0.9207
  868MOL0     C17061  -0.096   8.266   7.152 -0.7877  0.0718  0.5597
  868MOL0     N17062   0.017   8.266   7.061  0.1911  0.0514 -0.2667
  868MOL0     C17063   0.151   8.256   7.091  0.9659  0.3863  0.2550
  868MOL0     C17064   0.219   8.259   6.978 -0.6757 -0.2079  0.2607
  868MOL0     C17065   0.365   8.252   6.954 -0.5046  0.2129 -0.1284
  868MOL0     C17066   0.391   8.100   6.928 -0.4113  0.5098  0.9457
  868MOL0     C17067   0.531   8.037   6.907 -0.1519 -0.4368  0.1870
  868MOL0     C17068   0.635   8.151   6.884  0.4335 -0.7544  0.3568
  868MOL0     O17069   0.764   8.105   6.835 -0.8609 -0.3116  0.0237
  868MOL0     C17070   0.862   8.135   6.925  0.0561  0.6386  0.5571
  868MOL0     C17071   0.912   8.269   6.935 -0.7136 -0.0839 -0.4363
  868MOL0     C17072   1.022   8.290   7.029  0.1495  0.1864 -0.2754
  868MOL0     C17073   1.070   8.427   7.049  0.6892 -0.4495  0.6408
  868MOL0     C17074   1.079   8.172   7.094  0.5142 -0.5904 -0.0211
  868MOL0     C17075   1.198   8.188   7.179 -0.1681  0.3427 -0.2198
  868MOL0     O17076   1.269   8.302   7.194  0.1912 -0.0360  0.1163
  868MOL0     C17077   1.353   8.310   7.309  0.2901 -0.4107 -0.6404
  868MOL0     C17078   1.481   8.361   7.276 -0.2304 -0.2051  0.1125
  868MOL0     C17079   1.571   8.391   7.380  0.3765 -0.0151 -0.4247
  868MOL0     C17080   1.542   8.359   7.515  0.2401 -0.6718  0.5659
  868MOL0     O17081   1.646   8.384   7.601  0.3098 -0.9509  0.5541
  868MOL0     C17082   1.672   8.303   7.711  0.5275  0.1867 -1.0470
  868MOL0     C17083   1.764   8.359   7.819 -0.3035 -0.0159  0.4389
  868MOL0     C17084   1.686   8.456   7.905 -0.2624 -0.5130  0.4868
  868MOL0     C17085   1.600   8.382   8.010 -0.9575 -0.1806  1.1764
  868MOL0     C17086   1.495   8.494   8.056 -0.3551 -0.2299  0.1958
  868MOL0     C17087   1.564   8.609   8.129 -0.5091 -0.6906 -0.0895
  868MOL0     C17088   1.623   8.586   8.263 -0.0706 -0.3299  0.3756
  868MOL0     C17089   1.636   8.704   8.360  0.4161 -0.3590 -0.1301
  868MOL0    Cl17090   1.747   8.655   8.485 -0.1336 -0.2875 -0.0610
  868MOL0     C17091   1.421   8.299   7.544  0.1405 -0.3258  0.1814
  868MOL0     C17092   1.326   8.274   7.444 -0.5424  0.8392  0.6955
  868MOL0     O17093   1.228   8.084   7.231 -0.0118 -0.1369 -0.5505
  868MOL0     C17094   1.023   8.049   7.073 -0.0851  0.1969 -0.8640
  868MOL0     C17095   0.918   8.036   6.993  0.9274  0.0593  0.5383
  868MOL0     N17096   0.122   8.270   6.878 -0.4553  0.9434  1.1088
  868MOL0     N17097   0.006   8.276   6.930  0.5502  0.1279 -0.5211
  868MOL0     C17098   0.206   8.093   7.694 -0.7380  0.0201 -0.1644
  868MOL0     C17099   0.296   8.055   7.598  0.0935 -0.1654 -0.2456
  868MOL0     C17100   0.461   7.749   7.308  0.7574 -0.6803  0.2012
  868MOL0     C17101   0.435   7.725   7.166 -0.6558 -0.3860 -0.1583
  868MOL0     C17102   0.485   7.622   7.092 -0.3170  0.4815  0.9672
  868MOL0     C17103   0.570   7.530   7.155  0.3004 -0.2231  0.6041
  868MOL0     O17104   0.609   7.436   7.074 -0.4963  0.5881  0.4557
  868MOL0     C17105   0.644   7.303   7.117 -0.8666  0.1515 -1.7771
  868MOL0     C17106   0.517   7.225   7.143 -0.3591  0.9413  0.1037
  868MOL0     C17107   0.462   7.160   7.013 -0.5919  0.2567  0.1897
  868MOL0     C17108   0.368   7.249   6.937  0.0450  0.8465 -0.1588
  868MOL0     C17109   0.346   7.194   6.804  0.1556 -0.2247 -0.0533
  868MOL0     C17110   0.309   7.153   6.695 -0.3504  0.3962  0.0413
  868MOL0     C17111   0.598   7.552   7.289 -0.0300 -0.0444 -0.0462
  868MOL0     C17112   0.552   7.659   7.363  0.0762 -0.1536  0.5180
  868MOL0     H17113   0.359   7.736   7.700  0.7628 -0.3209  0.8988
  868MOL0     H17114   0.199   7.821   7.890  1.6707 -1.3400 -0.5972
  868MOL0     H17115  -0.080   8.147   7.954 -1.2784  0.2639 -1.4233
  868MOL0     H17116  -0.021   8.205   7.810 -1.4810  0.1025  2.0203
  868MOL0     H17117  -0.096   7.983   7.697  0.1539  0.3336  0.6630
  868MOL0     H17118  -0.155   7.927   7.853  5.0711 -0.5501  0.9305
  868MOL0     H17119  -0.353   7.992   7.720 -0.7573  1.3380 -1.3510
  868MOL0     H17120  -0.347   8.121   7.824 -0.3776  0.9938 -0.0216
  868MOL0     H17121  -0.367   8.212   7.606  1.3619 -0.1066 -1.7118
  868MOL0     H17122  -0.204   8.256   7.650  0.2290 -0.4397 -1.0209
  868MOL0     H17123  -0.102   8.102   7.513 -0.3439 -2.2302 -1.3250
  868MOL0     H17124  -0.249   8.021   7.467  2.4945 -1.0412  0.9804
  868MOL0     H17125  -0.287   8.171   7.306 -0.1579 -1.2030  0.2825
  868MOL0     H17126  -0.223   8.311   7.402 -0.9910 -0.3549  0.8217
  868MOL0     H17127   0.002   8.244   7.344 -1.0165  1.6224  0.4744
  868MOL0     H17128  -0.058   8.091   7.268  2.6559  0.3963 -1.8537
  868MOL0     H17129  -0.126   8.368   7.180 -0.3087  0.3249  0.1507
  868MOL0     H17130  -0.172   8.227   7.084  2.0901 -0.5501 -2.5440
  868MOL0     H17131   0.199   8.236   7.187  2.3567  1.1779 -0.2502
  868MOL0     H17132   0.400   8.316   6.872  1.3974 -0.5229  0.0402
  868MOL0     H17133   0.422   8.290   7.039 -0.9134  1.3113 -0.3385
  868MOL0     H17134   0.334   8.072   6.839 -0.3717  3.2058 -0.0146
  868MOL0     H17135   0.350   8.040   7.010 -0.2568 -1.9665 -0.6859
  868MOL0     H17136   0.528   7.976   6.817  4.2930 -0.4153 -0.1929
  868MOL0     H17137   0.560   7.973   6.991 -1.4025 -2.9228 -1.1381
  868MOL0     H17138   0.642   8.208   6.977  0.8631 -0.4315  0.1300
  868MOL0     H17139   0.608   8.220   6.802  2.5496 -0.7786 -0.4231
  868MOL0     H17140   0.865   8.352   6.883 -3.1442 -1.8903 -1.3005
  868MOL0     H17141   1.166   8.431   6.998 -0.4167 -0.8878 -1.5947
  868MOL0     H17142   1.012   8.493   6.984 -0.0124 -2.2347 -0.6164
  868MOL0     H17143   1.096   8.469   7.146  4.7026 -2.5625  0.7003
  868MOL0     H17144   1.502   8.371   7.170 -0.7872  1.6775  0.1467
  868MOL0     H17145   1.666   8.434   7.350 -0.0607 -0.4615 -2.6244
  868MOL0     H17146   1.581   8.276   7.765  0.2858  0.7471 -1.1665
  868MOL0     H17147   1.729   8.215   7.679 -1.4772  0.3233 -5.9030
  868MOL0     H17148   1.801   8.278   7.883  0.5239 -3.2373 -3.6563
  868MOL0     H17149   1.846   8.411   7.767 -1.0429 -0.0376 -0.7844
  868MOL0     H17150   1.621   8.521   7.844  0.2207  1.2515  1.7585
  868MOL0     H17151   1.764   8.509   7.959 -0.4215  2.0826 -1.6161
  868MOL0     H17152   1.551   8.295   7.964  0.1310  0.7495 -1.9893
  868MOL0     H17153   1.664   8.346   8.091 -0.1572  0.4011  0.8072
  868MOL0     H17154   1.425   8.446   8.125 -1.5015  1.6155  0.3603
  868MOL0     H17155   1.452   8.547   7.971  2.4561  0.4116 -0.9255
  868MOL0     H17156   1.643   8.659   8.072 -0.8952 -1.1493 -1.0481
  868MOL0     H17157   1.491   8.687   8.153  1.3917  0.6039  1.8898
  868MOL0     H17158   1.721   8.540   8.246 -1.3355 -2.7054 -1.0506
  868MOL0     H17159   1.556   8.518   8.316 -1.1444  0.2649 -0.1819
  868MOL0     H17160   1.544   8.728   8.416  1.4330  0.6506  1.1690
  868MOL0     H17161   1.682   8.793   8.315 -1.8075 -0.8040 -3.7214
  868MOL0     H17162   1.381   8.266   7.640 -3.0712 -2.8128 -1.8027
  868MOL0     H17163   1.227   8.238   7.469 -0.1721 -0.2321  0.6606
  868MOL0     H17164   1.058   7.960   7.125  0.2973  0.8058 -0.0636
  868MOL0     H17165   0.877   7.935   6.991  3.8334 -1.2571  1.4655
  868MOL0     H17166   0.172   8.194   7.676  1.7134  0.6743 -1.5003
  868MOL0     H17167   0.317   8.128   7.521 -0.4482 -1.2435 -1.4405
  868MOL0     H17168   0.368   7.787   7.108  1.1727 -1.8171 -4.1980
  868MOL0     H17169   0.461   7.610   6.987 -0.0177 -0.5995  1.0134
  868MOL0     H17170   0.714   7.253   7.049 -2.0107 -1.2222 -1.9740
  868MOL0     H17171   0.702   7.308   7.210 -4.2641 -4.3305  0.9509
  868MOL0     H17172   0.438   7.285   7.189  0.5451  1.8361  0.5410
  868MOL0     H17173   0.544   7.139   7.205 -0.8751  1.4978  1.1353
  868MOL0     H17174   0.404   7.070   7.033 -0.7147  0.5494  1.2790
  868MOL0     H17175   0.541   7.124   6.948  2.4008  1.5197  2.8437
  868MOL0     H17176   0.423   7.344   6.930  1.5394  0.1407  1.2991
  868MOL0     H17177   0.287   7.275   7.006  1.3866  0.3376  1.6859
  868MOL0     H17178   0.282   7.113   6.599  1.2860 -2.5346  0.6555
  868MOL0     H17179   0.670   7.491   7.343  1.1036  3.2115  2.4898
  868MOL0     H17180   0.585   7.683   7.464  4.7898 -1.0941 -0.5529
  869MOL0     O17181   5.677  10.774   6.938  0.4108  0.8268  0.2764
  869MOL0     C17182   5.725  10.883   6.981  1.3476  0.5608 -0.5667
  869MOL0     O17183   5.657  10.964   7.059  0.2136 -0.6127 -0.8407
  869MOL0     C17184   5.558  10.907   7.145  0.1868  0.3562  0.2903
  869MOL0     C17185   5.574  10.790   7.220  0.2496 -0.1652  0.5184
  869MOL0     C17186   5.468  10.745   7.296 -0.6973 -0.5543  0.0376
  869MOL0     C17187   5.356  10.817   7.305 -0.0019  0.5634 -0.2106
  869MOL0     O17188   5.260  10.757   7.388  0.2136  0.1872 -0.6942
  869MOL0     C17189   5.150  10.836   7.451 -0.0479  0.5247  0.0720
  869MOL0     C17190   5.046  10.751   7.518 -0.4421  0.0131 -0.2815
  869MOL0     C17191   4.927  10.834   7.575  0.2601 -0.1628  0.2504
  869MOL0     C17192   4.810  10.812   7.471 -0.4596 -0.4812  0.0629
  869MOL0     C17193   4.693  10.893   7.519 -0.1690 -0.7607 -0.2365
  869MOL0     C17194   4.569  10.873   7.423 -0.0527 -0.0676  0.5698
  869MOL0     C17195   4.458  10.963   7.470  0.8212  0.0377  0.2007
  869MOL0     C17196   4.330  10.899   7.413 -0.0191 -0.0235  0.2634
  869MOL0     N17197   4.211  10.992   7.430 -0.6294  0.5742  0.6837
  869MOL0     C17198   4.166  11.036   7.546  0.3712  1.2873 -0.5530
  869MOL0     C17199   4.040  11.083   7.519  0.4491  0.3987  0.1482
  869MOL0     C17200   3.935  11.128   7.608 -0.2219  0.1626 -0.7921
  869MOL0     C17201   3.813  11.033   7.596  0.3105  0.0112  0.5961
  869MOL0     C17202   3.687  11.116   7.568 -0.2004  0.1850  0.0418
  869MOL0     C17203   3.565  11.034   7.571 -0.0955 -0.4165 -0.3742
  869MOL0     O17204   3.555  10.957   7.692 -0.5481  0.5245 -0.5474
  869MOL0     C17205   3.523  11.006   7.815  1.1768  0.4259  0.6100
  869MOL0     C17206   3.408  11.075   7.833 -0.4912 -0.2005  0.0693
  869MOL0     C17207   3.376  11.125   7.964 -0.1015  0.6731  1.0175
  869MOL0     C17208   3.244  11.205   7.977  0.2537 -0.6580 -0.1972
  869MOL0     C17209   3.469  11.105   8.069  0.0469  0.5950 -0.1874
  869MOL0     C17210   3.446  11.149   8.211  0.7014 -0.0781 -0.0296
  869MOL0     O17211   3.539  11.115   8.300  0.0166  0.8574  0.8550
  869MOL0     C17212   3.521  11.141   8.432 -0.3111  1.2252 -0.3301
  869MOL0     C17213   3.582  11.256   8.478  0.3371  0.6037  0.1839
  869MOL0     C17214   3.572  11.310   8.597 -0.8521  0.1680 -0.2733
  869MOL0     C17215   3.504  11.242   8.695  0.1796 -0.6170 -0.1698
  869MOL0     O17216   3.515  11.275   8.830  0.2269 -0.1698 -0.4456
  869MOL0     C17217   3.564  11.407   8.873  1.0271 -0.5016  0.0182
  869MOL0     C17218   3.713  11.439   8.875 -0.5950 -0.1154  0.6057
  869MOL0     C17219   3.777  11.344   8.976 -0.0552  0.4331 -0.0286
  869MOL0     C17220   3.934  11.327   8.963  0.7514 -0.0886  0.2005
  869MOL0     C17221   4.011  11.431   9.038 -0.3634  0.4249  0.4737
  869MOL0     C17222   4.162  11.408   9.003  0.1673 -0.4245  0.6357
  869MOL0     C17223   4.247  11.506   9.082 -0.5347 -0.8036 -0.0669
  869MOL0     C17224   4.391  11.468   9.059  0.0706 -0.4805 -0.1829
  869MOL0    Cl17225   4.441  11.542   8.913 -0.4178 -0.3468 -0.1151
  869MOL0     C17226   3.429  11.133   8.655 -0.0305 -0.5787 -0.8304
  869MOL0     C17227   3.439  11.078   8.520 -0.4693  0.1461 -0.8304
  869MOL0     O17228   3.347  11.220   8.236  0.5888  0.3717  0.0252
  869MOL0     C17229   3.589  11.041   8.042  0.6501  0.3118 -0.1237
  869MOL0     C17230   3.611  10.982   7.922  0.9007  0.2985 -0.9564
  869MOL0     N17231   4.025  11.092   7.375  0.7793 -1.1190 -0.4358
  869MOL0     N17232   4.123  11.031   7.327 -0.5386  0.1192  0.4574
  869MOL0     C17233   5.339  10.936   7.249  0.8918  0.1946  1.0780
  869MOL0     C17234   5.442  10.987   7.173 -0.2596  0.7365 -0.2331
  869MOL0     C17235   5.845  10.931   6.925 -0.0065 -0.1851  0.6328
  869MOL0     C17236   5.915  10.855   6.827  0.4995  0.3429  0.4904
  869MOL0     C17237   6.030  10.899   6.758  0.9406 -0.5944  0.8820
  869MOL0     C17238   6.071  11.031   6.794  0.0400  0.2522 -0.6090
  869MOL0     O17239   6.161  11.081   6.707 -0.0086 -0.6664  0.0281
  869MOL0     C17240   6.177  11.226   6.691  0.4440  0.7950  0.1229
  869MOL0     C17241   6.257  11.259   6.578  0.4193  0.3510  1.0612
  869MOL0     C17242   6.412  11.274   6.604  1.0348  0.5631  0.5009
  869MOL0     C17243   6.468  11.392   6.537  0.9875  0.0630 -0.2836
  869MOL0     C17244   6.612  11.400   6.563 -0.1789  0.1584  0.6402
  869MOL0     C17245   6.731  11.413   6.589  0.2578 -0.1992  0.8324
  869MOL0     C17246   6.024  11.097   6.905  0.5167 -0.3346 -0.0009
  869MOL0     C17247   5.903  11.051   6.972  0.4184  0.2915  0.1289
  869MOL0     H17248   5.660  10.725   7.208 -1.2116 -2.1816  0.5540
  869MOL0     H17249   5.467  10.653   7.355  1.2605 -0.1655  0.7743
  869MOL0     H17250   5.195  10.900   7.527 -0.4640 -0.9468  1.5936
  869MOL0     H17251   5.087  10.893   7.382 -2.4515 -2.0187 -0.0409
  869MOL0     H17252   5.000  10.683   7.446 -2.9219  1.5545 -0.2872
  869MOL0     H17253   5.099  10.694   7.595  2.4686  0.4625 -1.8152
  869MOL0     H17254   4.909  10.789   7.672 -0.5989 -0.7520 -0.1710
  869MOL0     H17255   4.939  10.941   7.594  0.3057 -0.7789  4.5197
  869MOL0     H17256   4.825  10.852   7.370  0.1901  0.9787  0.7052
  869MOL0     H17257   4.786  10.706   7.470  1.9852 -1.1893  2.7272
  869MOL0     H17258   4.678  10.849   7.618  1.0026 -0.9041 -0.1125
  869MOL0     H17259   4.721  10.998   7.529 -0.3328 -0.8832  1.9896
  869MOL0     H17260   4.579  10.906   7.319 -1.0885 -2.0003 -0.1916
  869MOL0     H17261   4.559  10.764   7.423  2.7481 -0.4813 -2.2810
  869MOL0     H17262   4.432  10.970   7.576 -0.9599  6.5154 -0.2822
  869MOL0     H17263   4.465  11.063   7.426 -2.2195 -0.0677 -0.7987
  869MOL0     H17264   4.308  10.812   7.475 -1.6190  0.6251  0.6590
  869MOL0     H17265   4.339  10.877   7.306  1.2549 -0.8973  0.5200
  869MOL0     H17266   4.200  11.014   7.646 -1.0353  2.6523  0.2692
  869MOL0     H17267   3.979  11.152   7.705 -1.4375  1.1820 -0.4695
  869MOL0     H17268   3.895  11.222   7.570 -0.9799  0.1820  0.0280
  869MOL0     H17269   3.813  10.966   7.682  1.0780 -1.2435 -0.3480
  869MOL0     H17270   3.822  10.961   7.515 -0.0647  0.4481  0.1559
  869MOL0     H17271   3.686  11.162   7.469 -2.5357 -2.6850 -1.4477
  869MOL0     H17272   3.693  11.198   7.641 -0.6985  1.4312 -1.2695
  869MOL0     H17273   3.565  10.980   7.475  0.1594  1.3789 -1.4350
  869MOL0     H17274   3.484  11.107   7.564 -2.7044 -3.2054 -2.0292
  869MOL0     H17275   3.338  11.084   7.751 -1.7610  3.4692  1.3524
  869MOL0     H17276   3.195  11.218   7.880  0.1552  0.7317  0.0128
  869MOL0     H17277   3.172  11.164   8.050  0.9761 -2.8130 -0.6328
  869MOL0     H17278   3.264  11.310   7.999  2.4737 -0.9142 -0.8169
  869MOL0     H17279   3.641  11.310   8.405  4.7147 -1.0176  2.1974
  869MOL0     H17280   3.622  11.400   8.631 -2.1138  0.0624  2.0300
  869MOL0     H17281   3.513  11.482   8.810 -1.8928 -1.2985  1.2490
  869MOL0     H17282   3.526  11.422   8.974 -0.5433 -0.6195 -0.5239
  869MOL0     H17283   3.769  11.435   8.781  0.2820  2.1558  0.9691
  869MOL0     H17284   3.714  11.541   8.917 -0.2448  0.8210 -1.5557
  869MOL0     H17285   3.732  11.244   8.966 -0.4142  0.5966 -0.0613
  869MOL0     H17286   3.764  11.389   9.074  0.2780  1.2432 -0.3453
  869MOL0     H17287   3.969  11.229   8.994 -0.9687 -0.5325  0.8422
  869MOL0     H17288   3.970  11.325   8.859 -0.2662  0.5652 -0.1851
  869MOL0     H17289   4.004  11.424   9.147 -2.4336  2.5343  0.5409
  869MOL0     H17290   3.979  11.533   9.018 -3.4413 -0.6562 -0.8018
  869MOL0     H17291   4.192  11.304   9.020  0.6430 -0.1733  1.3302
  869MOL0     H17292   4.183  11.426   8.897 -0.2050 -1.7062  0.3160
  869MOL0     H17293   4.223  11.511   9.189  1.1379 -4.5987  0.6292
  869MOL0     H17294   4.246  11.608   9.043  4.8868 -0.1097  0.7531
  869MOL0     H17295   4.395  11.360   9.041  0.9175 -0.1387 -2.4346
  869MOL0     H17296   4.444  11.503   9.147 -1.6062 -0.1157  0.7209
  869MOL0     H17297   3.389  11.074   8.737 -0.0880  1.1460  0.4300
  869MOL0     H17298   3.387  10.992   8.480  1.4230 -0.8622 -1.2420
  869MOL0     H17299   3.673  11.041   8.111 -0.3049  1.2373  1.0804
  869MOL0     H17300   3.693  10.917   7.893 -1.4734 -2.7677 -1.4803
  869MOL0     H17301   5.246  10.991   7.247  0.1265 -1.0296 -1.6972
  869MOL0     H17302   5.429  11.080   7.118 -3.3623  1.4111  1.3871
  869MOL0     H17303   5.873  10.760   6.796 -2.1809  1.9621 -1.4111
  869MOL0     H17304   6.084  10.858   6.673  1.6808  0.5668  0.7688
  869MOL0     H17305   6.076  11.264   6.672  0.6541  2.5878  2.1253
  869MOL0     H17306   6.212  11.264   6.788 -1.2406 -0.6168  1.3632
  869MOL0     H17307   6.212  11.352   6.542 -0.2259  0.0249  1.0087
  869MOL0     H17308   6.236  11.194   6.492  1.5782  0.3403  0.7693
  869MOL0     H17309   6.464  11.188   6.562  1.4885  1.3220 -0.5328
  869MOL0     H17310   6.423  11.265   6.712 -1.0948 -2.3209  0.5898
  869MOL0     H17311   6.419  11.474   6.589 -1.0044 -0.6782 -0.8682
  869MOL0     H17312   6.452  11.393   6.428  0.5608  1.2677 -0.2160
  869MOL0     H17313   6.833  11.426   6.620  0.3300 -0.3447  0.6591
  869MOL0     H17314   6.077  11.174   6.960 -1.5013  1.3277 -0.2710
  869MOL0     H17315   5.862  11.101   7.059 -1.9092  1.2992 -1.4459
  870MOL0     O17316   9.053   5.837  11.193 -0.3074  0.5063  0.0683
  870MOL0     C17317   9.091   5.872  11.302  0.3644  0.4230 -0.5532
  870MOL0     O17318   9.012   5.886  11.413 -0.2097  0.3525 -0.4553
  870MOL0     C17319   8.876   5.913  11.408  0.6196  0.7398 -0.6314
  870MOL0     C17320   8.822   5.991  11.307  0.6992  0.2170 -0.4514
  870MOL0     C17321   8.679   6.015  11.307 -0.3326  0.5244  1.1520
  870MOL0     C17322   8.594   5.957  11.400 -0.2799 -0.6979 -0.0663
  870MOL0     O17323   8.466   5.979  11.377 -0.3810 -0.3010  0.0761
  870MOL0     C17324   8.384   5.988  11.502 -0.3652 -0.7415  0.0493
  870MOL0     C17325   8.232   6.005  11.476  0.2013  0.4841  0.2319
  870MOL0     C17326   8.155   6.005  11.611 -0.2191 -0.1102 -0.2819
  870MOL0     C17327   8.011   5.951  11.588 -0.1778 -0.1752 -0.8447
  870MOL0     C17328   7.929   5.937  11.722  0.0491  0.1074 -0.3529
  870MOL0     C17329   7.784   5.976  11.699 -0.3138  0.3702  0.5324
  870MOL0     C17330   7.698   5.901  11.808 -0.1571  0.1535  0.7428
  870MOL0     C17331   7.680   5.758  11.763  1.1640 -0.0887 -0.0045
  870MOL0     N17332   7.620   5.661  11.862  0.4471 -1.1914 -0.1281
  870MOL0     C17333   7.527   5.569  11.836  1.3077  0.3527 -0.0780
  870MOL0     C17334   7.495   5.510  11.950  0.7502 -0.0121  0.4593
  870MOL0     C17335   7.398   5.394  11.972  0.9226  0.1784 -0.7121
  870MOL0     C17336   7.259   5.443  12.012  0.5032 -0.0379  0.1012
  870MOL0     C17337   7.162   5.326  12.061 -0.2342  0.4216 -0.1518
  870MOL0     C17338   7.017   5.378  12.073 -0.0888  0.1810  0.6211
  870MOL0     O17339   6.962   5.406  11.946 -0.0077  0.3536  0.5183
  870MOL0     C17340   6.832   5.468  11.938  0.5196  0.5313 -1.0313
  870MOL0     C17341   6.777   5.499  11.815 -0.4889 -0.2412 -0.2510
  870MOL0     C17342   6.658   5.573  11.793  0.0236  0.7582  0.0670
  870MOL0     C17343   6.605   5.612  11.656 -1.1913  0.1516 -1.1856
  870MOL0     C17344   6.582   5.612  11.911  0.1440  0.0910  0.1995
  870MOL0     C17345   6.459   5.699  11.918  0.0125  0.4830 -0.9328
  870MOL0     O17346   6.349   5.651  12.004  0.9110  0.4210 -0.4198
  870MOL0     C17347   6.239   5.734  12.017 -0.5952 -0.0239  0.3125
  870MOL0     C17348   6.175   5.721  12.139  0.3186 -0.0963 -0.1164
  870MOL0     C17349   6.075   5.818  12.174 -0.6507 -0.0198  0.2057
  870MOL0     C17350   6.027   5.921  12.085 -0.2204  0.4074  0.1452
  870MOL0     O17351   5.918   6.004  12.106  0.2161  0.1181  0.3422
  870MOL0     C17352   5.822   5.955  12.192 -0.2367 -0.3245 -1.1197
  870MOL0     C17353   5.701   6.036  12.225  0.5696 -0.7430  0.2391
  870MOL0     C17354   5.745   6.166  12.286 -0.2598  0.0658 -0.1356
  870MOL0     C17355   5.622   6.257  12.311 -0.2454 -0.2365 -0.1397
  870MOL0     C17356   5.658   6.382  12.391  0.3122  0.8905  0.3457
  870MOL0     C17357   5.543   6.475  12.389 -0.0641 -0.4430  0.4870
  870MOL0     C17358   5.557   6.586  12.497 -0.0416 -0.9748  0.4631
  870MOL0     C17359   5.434   6.663  12.492  0.6586  0.5316  0.3377
  870MOL0    Cl17360   5.438   6.798  12.603 -0.2712 -0.2383 -0.3187
  870MOL0     C17361   6.090   5.933  11.960  0.2145  0.8847  0.8051
  870MOL0     C17362   6.192   5.836  11.926 -0.5559 -0.1830  0.0524
  870MOL0     O17363   6.456   5.792  11.844 -0.5252 -0.3624  0.0674
  870MOL0     C17364   6.638   5.575  12.035  0.3479 -0.5712 -0.5709
  870MOL0     C17365   6.755   5.503  12.051  0.1874  0.4478  0.3671
  870MOL0     N17366   7.572   5.563  12.048  0.2774 -0.5752  0.3364
  870MOL0     N17367   7.653   5.658  11.996  0.0665  0.0836 -0.2405
  870MOL0     C17368   8.655   5.882  11.513  0.0452 -0.3922  0.3529
  870MOL0     C17369   8.797   5.866  11.513 -0.3203  0.7715 -0.2841
  870MOL0     C17370   9.237   5.882  11.316 -0.1068  0.1404 -0.7632
  870MOL0     C17371   9.323   5.845  11.207  0.6656 -0.2637 -0.3824
  870MOL0     C17372   9.455   5.858  11.221 -0.2087 -0.5852  0.2175
  870MOL0     C17373   9.512   5.922  11.331  0.5250 -0.3755  0.0413
  870MOL0     O17374   9.651   5.938  11.324  1.0334 -0.3058  0.0878
  870MOL0     C17375   9.719   6.010  11.424 -0.1571 -0.2694 -0.9120
  870MOL0     C17376   9.859   6.038  11.378  0.1036 -0.1641  0.6937
  870MOL0     C17377   9.957   6.078  11.490 -0.5223 -0.8847  0.1190
  870MOL0     C17378   9.993   5.967  11.587 -0.9805 -0.0455 -0.1581
  870MOL0     C17379  10.079   5.861  11.520 -0.9585  0.1408  0.4744
  870MOL0     C17380  10.124   5.776  11.452 -0.8539  0.0496  0.0016
  870MOL0     C17381   9.434   5.962  11.446 -0.4372  0.2764 -0.5580
  870MOL0     C17382   9.297   5.945  11.430 -0.5516  0.2310  0.1180
  870MOL0     H17383   8.878   6.024  11.220 -0.1295 -0.5916 -1.3225
  870MOL0     H17384   8.638   6.079  11.229  0.1935 -1.0385 -0.4896
  870MOL0     H17385   8.410   5.904  11.568 -0.1697 -1.8850 -1.4364
  870MOL0     H17386   8.401   6.081  11.556 -0.2639 -1.2092  0.8363
  870MOL0     H17387   8.201   6.096  11.424  1.0223  0.2784 -0.6320
  870MOL0     H17388   8.204   5.922  11.410 -0.1100  2.5556 -2.4200
  870MOL0     H17389   8.208   5.943  11.683 -0.5046  0.7484  0.6852
  870MOL0     H17390   8.137   6.102  11.657 -0.7951 -0.2470 -0.2166
  870MOL0     H17391   7.961   6.024  11.524  1.7349 -0.3308 -2.6482
  870MOL0     H17392   8.013   5.863  11.522  0.5443  0.4027 -1.6270
  870MOL0     H17393   7.935   5.837  11.765 -1.2434  0.7057  1.3390
  870MOL0     H17394   7.976   6.010  11.789 -0.8440 -0.1172  0.5466
  870MOL0     H17395   7.769   6.085  11.699 -3.3872  0.0595  1.4948
  870MOL0     H17396   7.744   5.945  11.602  0.6954  2.9793 -0.8047
  870MOL0     H17397   7.754   5.889  11.901 -0.0099 -3.0963  0.3615
  870MOL0     H17398   7.606   5.960  11.805 -0.0001  0.4261 -2.7916
  870MOL0     H17399   7.767   5.716  11.713  1.7673 -0.0297  0.9667
  870MOL0     H17400   7.598   5.749  11.692  1.2292 -3.6619  0.2111
  870MOL0     H17401   7.479   5.558  11.740 -0.9850  0.8806  0.9485
  870MOL0     H17402   7.381   5.337  11.880 -0.0264 -1.0970  0.2096
  870MOL0     H17403   7.451   5.332  12.045 -0.6489 -2.1624 -1.4228
  870MOL0     H17404   7.211   5.489  11.925  0.9264  0.1038 -0.0582
  870MOL0     H17405   7.269   5.525  12.083  2.2406 -0.4123  0.3325
  870MOL0     H17406   7.200   5.297  12.160 -1.3483  1.1481  0.5121
  870MOL0     H17407   7.166   5.234  12.003  0.9768 -1.7644  3.1372
  870MOL0     H17408   7.022   5.479  12.116  1.7044 -0.8890  3.1692
  870MOL0     H17409   6.951   5.316  12.134 -0.4885 -1.0832 -1.0434
  870MOL0     H17410   6.836   5.475  11.727  0.2072 -1.0422  0.4227
  870MOL0     H17411   6.600   5.720  11.639 -0.1637 -0.1502 -3.9195
  870MOL0     H17412   6.655   5.561  11.574  0.3224 -0.0249 -0.1996
  870MOL0     H17413   6.499   5.590  11.672 -1.3208  2.7367  3.0399
  870MOL0     H17414   6.194   5.648  12.217  2.3762 -0.9859 -1.3621
  870MOL0     H17415   6.024   5.809  12.270  1.0623  1.0587  1.2939
  870MOL0     H17416   5.781   5.855  12.172  1.0051 -1.5210  1.8341
  870MOL0     H17417   5.866   5.940  12.291 -2.3041  0.6034 -0.0002
  870MOL0     H17418   5.635   6.067  12.143  0.4484  1.4137  1.0713
  870MOL0     H17419   5.632   5.974  12.283 -4.7073 -1.4152 -5.5790
  870MOL0     H17420   5.814   6.209  12.213  0.4815 -1.8329 -0.6273
  870MOL0     H17421   5.794   6.141  12.381 -0.0500  0.6619 -0.0831
  870MOL0     H17422   5.575   6.289  12.218  0.9037 -1.6694 -1.2626
  870MOL0     H17423   5.548   6.195  12.364 -0.3758  2.0944  2.6432
  870MOL0     H17424   5.745   6.437  12.355  1.1642  0.8706  2.2557
  870MOL0     H17425   5.687   6.341  12.488 -0.2189 -4.0978 -1.2725
  870MOL0     H17426   5.537   6.524  12.292  1.1277 -1.0904  0.0624
  870MOL0     H17427   5.451   6.418  12.396 -0.3419 -0.2974 -1.4648
  870MOL0     H17428   5.636   6.655  12.469 -2.4832  1.2149 -1.4782
  870MOL0     H17429   5.581   6.540  12.594 -0.0943 -1.2864  0.3288
  870MOL0     H17430   5.355   6.602  12.538  0.1833  1.3081  0.5829
  870MOL0     H17431   5.396   6.701  12.397  0.4696  0.8820  0.5501
  870MOL0     H17432   6.051   6.014  11.900  1.1991  1.3032  0.7138
  870MOL0     H17433   6.235   5.831  11.827  4.3617 -0.2219  1.9161
  870MOL0     H17434   6.577   5.610  12.117  0.3031  2.6945 -1.8171
  870MOL0     H17435   6.786   5.488  12.154  0.3932  4.5188  1.0621
  870MOL0     H17436   8.592   5.841  11.591 -0.8182  0.5101  0.1488
  870MOL0     H17437   8.851   5.811  11.590  1.3344 -0.6363 -2.3453
  870MOL0     H17438   9.283   5.809  11.112  3.0624 -0.4832 -1.3846
  870MOL0     H17439   9.519   5.831  11.138 -1.2195  0.7761 -1.0668
  870MOL0     H17440   9.659   6.099  11.444  0.9312  0.2656  0.0559
  870MOL0     H17441   9.724   5.943  11.510  2.7829  0.0977 -0.6805
  870MOL0     H17442   9.864   6.101  11.289 -1.2100 -2.0924 -0.8473
  870MOL0     H17443   9.909   5.949  11.338  2.8582  2.4630 -2.2181
  870MOL0     H17444   9.929   6.166  11.549 -0.0273 -0.4246 -0.3220
  870MOL0     H17445  10.048   6.113  11.440 -1.3506  2.5206  0.7372
  870MOL0     H17446   9.902   5.921  11.626  0.0540 -0.9889  1.2241
  870MOL0     H17447  10.048   6.015  11.668 -0.1623  2.1575 -1.9010
  870MOL0     H17448  10.177   5.700  11.399  0.3628  1.5046 -0.9619
  870MOL0     H17449   9.481   6.021  11.525  1.1726  0.4655 -1.6111
  870MOL0     H17450   9.238   5.994  11.507 -2.5241  0.8594 -1.6711
  871MOL0     O17451   6.639   5.577   9.733  0.0976  1.3046 -0.7133
  871MOL0     C17452   6.574   5.565   9.836  0.5599  0.6625 -0.0792
  871MOL0     O17453   6.590   5.465   9.935  0.2169 -0.7813  0.1095
  871MOL0     C17454   6.689   5.376   9.914  0.3433 -0.0405  0.4320
  871MOL0     C17455   6.770   5.343  10.028 -0.2808 -0.4588  0.0966
  871MOL0     C17456   6.872   5.245  10.012 -0.1476 -0.6684 -0.6382
  871MOL0     C17457   6.892   5.165   9.902 -0.1305 -0.9067 -0.4372
  871MOL0     O17458   6.980   5.057   9.914 -0.2552 -0.4906 -0.2114
  871MOL0     C17459   6.973   4.954   9.813 -0.3156  0.7697 -0.3669
  871MOL0     C17460   7.066   4.842   9.842 -0.2174 -0.0437 -0.3992
  871MOL0     C17461   7.092   4.797   9.986  0.4518 -0.2139 -0.3933
  871MOL0     C17462   6.992   4.704  10.043 -0.3417  0.2773  0.3366
  871MOL0     C17463   6.976   4.709  10.194 -0.1056  0.2872  0.3085
  871MOL0     C17464   6.857   4.628  10.248 -0.2888  0.1683  1.2601
  871MOL0     C17465   6.844   4.636  10.395  0.8417 -0.3755 -0.7555
  871MOL0     C17466   6.788   4.769  10.442  0.6672  0.0226 -0.0794
  871MOL0     N17467   6.775   4.780  10.592 -0.3745  0.5708 -0.6196
  871MOL0     C17468   6.688   4.701  10.664 -0.8148 -0.1106 -0.4796
  871MOL0     C17469   6.703   4.742  10.796 -1.0315 -0.0769  0.3845
  871MOL0     C17470   6.619   4.702  10.901  0.6230 -0.2161 -0.9366
  871MOL0     C17471   6.517   4.818  10.936  1.0091 -0.1242 -0.2941
  871MOL0     C17472   6.590   4.941  11.005 -0.0069  0.0103 -1.1550
  871MOL0     C17473   6.627   4.929  11.150 -0.8435  0.2549 -0.2798
  871MOL0     O17474   6.721   4.827  11.176  0.2601 -0.4188  0.0157
  871MOL0     C17475   6.853   4.856  11.189 -0.4333  0.0572  0.1277
  871MOL0     C17476   6.914   4.976  11.145  0.8482  0.3000 -0.2988
  871MOL0     C17477   7.045   5.007  11.164  0.8856  0.2070  0.0975
  871MOL0     C17478   7.089   5.149  11.121  0.1334  0.5842  0.0388
  871MOL0     C17479   7.123   4.920  11.244 -0.3805  0.6272 -0.1233
  871MOL0     C17480   7.263   4.950  11.280 -0.2569  0.1709 -0.1205
  871MOL0     O17481   7.335   4.847  11.353  0.2664 -0.4982  0.6084
  871MOL0     C17482   7.469   4.855  11.373 -0.4688  0.6898 -0.1453
  871MOL0     C17483   7.559   4.923  11.292  0.0960  0.2161  0.7644
  871MOL0     C17484   7.699   4.919  11.312  0.2006 -0.5293  0.7007
  871MOL0     C17485   7.747   4.848  11.430  0.0580 -0.2079 -0.6353
  871MOL0     O17486   7.882   4.841  11.459 -0.6077 -0.0882 -0.0379
  871MOL0     C17487   7.947   4.975  11.465  0.4904 -0.2489 -0.7380
  871MOL0     C17488   8.089   4.961  11.512 -0.8091 -0.3585  0.0746
  871MOL0     C17489   8.173   5.097  11.504 -0.1592  0.3050  0.6907
  871MOL0     C17490   8.318   5.081  11.545 -0.7948  0.6665  0.4123
  871MOL0     C17491   8.424   5.140  11.445 -0.0402  0.0051 -0.4088
  871MOL0     C17492   8.567   5.154  11.502  0.6111  0.7892 -0.5344
  871MOL0     C17493   8.674   5.155  11.396 -0.4095 -0.4249 -0.3675
  871MOL0     C17494   8.664   5.275  11.296  0.3606  0.0322  1.0110
  871MOL0    Cl17495   8.825   5.272  11.211 -0.4025 -0.0914 -0.2047
  871MOL0     C17496   7.647   4.772  11.503 -0.1990 -0.0572  0.1925
  871MOL0     C17497   7.513   4.770  11.475  0.4218  0.0672 -0.4926
  871MOL0     O17498   7.315   5.061  11.249  0.0147  0.3082 -0.0202
  871MOL0     C17499   7.069   4.796  11.278  0.1703 -0.4222 -1.0708
  871MOL0     C17500   6.938   4.765  11.246 -0.2547 -0.8069  0.4395
  871MOL0     N17501   6.812   4.832  10.799 -0.6226 -0.4929 -0.3653
  871MOL0     N17502   6.854   4.851  10.678  0.4623 -0.1502 -0.6381
  871MOL0     C17503   6.803   5.200   9.793  0.2915 -0.1301 -0.4870
  871MOL0     C17504   6.704   5.299   9.795  1.0285  0.3168 -0.4310
  871MOL0     C17505   6.463   5.668   9.859 -0.6001  0.6043  0.3681
  871MOL0     C17506   6.399   5.676   9.982  0.2308  0.3171 -0.1156
  871MOL0     C17507   6.286   5.756   9.994 -0.1685 -0.2306  0.3064
  871MOL0     C17508   6.232   5.820   9.879  0.0435 -0.3087 -0.0997
  871MOL0     O17509   6.117   5.895   9.904 -0.2863  0.4345  0.1321
  871MOL0     C17510   6.078   5.999   9.811 -0.1694  0.7146  0.0101
  871MOL0     C17511   5.948   6.055   9.855  1.1179 -0.3557  0.3942
  871MOL0     C17512   5.964   6.141   9.982  0.4252  0.4310 -0.6036
  871MOL0     C17513   6.038   6.276   9.975  0.0786  0.4670  1.1243
  871MOL0     C17514   5.957   6.377   9.899  1.2051 -0.4836  0.2077
  871MOL0     C17515   5.864   6.442   9.847 -0.0905 -0.0542 -0.7713
  871MOL0     C17516   6.298   5.817   9.758 -0.4753 -0.1600  0.0466
  871MOL0     C17517   6.414   5.748   9.751  0.8039  0.6285 -0.5512
  871MOL0     H17518   6.753   5.398  10.120 -2.7355 -0.2180 -0.4393
  871MOL0     H17519   6.944   5.232  10.092  1.4479  3.0625 -1.2423
  871MOL0     H17520   6.873   4.913   9.799  0.7896 -4.1814  3.4131
  871MOL0     H17521   6.996   4.996   9.715 -0.3287  1.6350 -0.0088
  871MOL0     H17522   7.039   4.751   9.789 -2.0522 -0.4501  1.1222
  871MOL0     H17523   7.163   4.880   9.809  1.7022 -1.0700  3.4504
  871MOL0     H17524   7.192   4.753   9.997  1.0086  1.3945  1.7808
  871MOL0     H17525   7.103   4.887  10.048  2.1877 -0.1516 -0.7474
  871MOL0     H17526   6.898   4.712   9.987 -0.3027  1.1306  0.3793
  871MOL0     H17527   7.022   4.603  10.016 -1.4912 -0.0949  0.4101
  871MOL0     H17528   7.064   4.677  10.250 -1.6204  0.2851  2.8212
  871MOL0     H17529   6.957   4.816  10.206  0.7008  1.0231 -3.6061
  871MOL0     H17530   6.767   4.659  10.193 -0.9501  0.1338  2.2800
  871MOL0     H17531   6.893   4.530  10.217  2.4026  1.5849 -0.4953
  871MOL0     H17532   6.780   4.551  10.420 -0.5986 -0.1264 -3.2251
  871MOL0     H17533   6.941   4.623  10.442 -0.7439 -3.5850  2.0259
  871MOL0     H17534   6.688   4.777  10.399  1.3694  1.2821 -1.5858
  871MOL0     H17535   6.851   4.848  10.399 -3.8520  4.1247 -0.0743
  871MOL0     H17536   6.616   4.631  10.623  0.2821 -0.5669 -1.7013
  871MOL0     H17537   6.559   4.626  10.850 -0.2393  0.0171 -0.2867
  871MOL0     H17538   6.669   4.675  10.995 -1.3325  1.7181  0.7641
  871MOL0     H17539   6.426   4.787  10.989 -1.4742  1.9708 -2.9759
  871MOL0     H17540   6.470   4.867  10.850 -1.9209  1.7055  2.1060
  871MOL0     H17541   6.520   5.024  11.021  1.8226  0.9293  4.5033
  871MOL0     H17542   6.681   4.961  10.948  0.1519 -0.3121 -1.0192
  871MOL0     H17543   6.533   4.901  11.197 -0.5033  2.4033  1.9152
  871MOL0     H17544   6.659   5.025  11.192 -0.4846  0.7161 -1.5690
  871MOL0     H17545   6.859   5.060  11.102 -0.7810 -0.2896  0.5465
  871MOL0     H17546   7.114   5.204  11.213  0.9785 -0.9135  0.7528
  871MOL0     H17547   7.169   5.133  11.048  0.8660  0.8445  0.7697
  871MOL0     H17548   7.007   5.207  11.078  1.0876  2.3611  0.5455
  871MOL0     H17549   7.521   4.974  11.204 -1.1117  0.0078  1.1549
  871MOL0     H17550   7.757   4.963  11.232 -0.2460 -0.1880  0.5614
  871MOL0     H17551   7.926   5.024  11.370 -0.2062 -0.4887 -0.7091
  871MOL0     H17552   7.897   5.026  11.547  0.6659  1.2682 -1.5462
  871MOL0     H17553   8.099   4.930  11.617  1.8538  0.7834  0.2306
  871MOL0     H17554   8.136   4.885  11.448  0.5382  3.0747 -3.3702
  871MOL0     H17555   8.125   5.182  11.552 -1.2141  0.4763 -0.6066
  871MOL0     H17556   8.164   5.123  11.398  0.5078  0.4513  0.6654
  871MOL0     H17557   8.331   5.139  11.637 -0.1318  2.5564 -0.8035
  871MOL0     H17558   8.349   4.979  11.567  1.6148  0.5294 -2.7211
  871MOL0     H17559   8.394   5.240  11.412  4.8465  0.7883 -3.5576
  871MOL0     H17560   8.422   5.085  11.350 -2.2145 -1.7963  0.6058
  871MOL0     H17561   8.576   5.245  11.561 -1.2873  1.0002 -0.5289
  871MOL0     H17562   8.583   5.072  11.573  3.2524 -0.5747 -2.5158
  871MOL0     H17563   8.684   5.062  11.341  0.3574 -0.9594  0.6408
  871MOL0     H17564   8.762   5.174  11.459  1.0367 -1.1503 -2.0900
  871MOL0     H17565   8.642   5.368  11.350  0.3710  0.7723 -0.2163
  871MOL0     H17566   8.578   5.257  11.231 -0.3660 -1.1707  2.2512
  871MOL0     H17567   7.683   4.698  11.574  0.4946 -0.5484 -0.6486
  871MOL0     H17568   7.434   4.711  11.520  1.4696  1.0786  2.9905
  871MOL0     H17569   7.132   4.723  11.327  0.2926 -0.4771 -1.3076
  871MOL0     H17570   6.899   4.679  11.299 -1.0768  1.2222  3.3918
  871MOL0     H17571   6.801   5.142   9.701 -0.1673  0.0283 -0.5837
  871MOL0     H17572   6.645   5.311   9.704 -1.1415  1.2336  1.0067
  871MOL0     H17573   6.444   5.614  10.059 -0.9521 -2.2403 -1.3716
  871MOL0     H17574   6.232   5.762  10.087  0.4424 -2.6023  0.8593
  871MOL0     H17575   6.158   6.071   9.795  0.3865 -0.1293 -1.1828
  871MOL0     H17576   6.072   5.953   9.712 -0.3083 -1.4862  0.9674
  871MOL0     H17577   5.878   5.974   9.881  0.7018 -0.2581 -0.3904
  871MOL0     H17578   5.898   6.113   9.776 -0.5512  0.7884  2.2084
  871MOL0     H17579   6.007   6.087  10.067  2.7414  1.2287 -1.1983
  871MOL0     H17580   5.865   6.159  10.026  0.7790 -0.9832  0.8966
  871MOL0     H17581   6.137   6.252   9.936 -0.8061 -0.6607 -0.5850
  871MOL0     H17582   6.054   6.320  10.073  2.2935  3.6316 -0.5031
  871MOL0     H17583   5.788   6.510   9.813  0.2967  1.4476  1.1549
  871MOL0     H17584   6.260   5.872   9.672  0.4018  4.2328  2.1652
  871MOL0     H17585   6.464   5.733   9.656 -0.7057 -2.0783 -1.0113
  872MOL0     O17586   7.492   0.164   2.571 -0.0329 -0.3362  0.2928
  872MOL0     C17587   7.547   0.260   2.517  0.0176  0.0272  0.5730
  872MOL0     O17588   7.486   0.387   2.490 -0.2484 -0.2278  0.2943
  872MOL0     C17589   7.349   0.401   2.488 -0.1184  0.9708  0.4198
  872MOL0     C17590   7.282   0.481   2.392  0.5041  0.5671 -1.0132
  872MOL0     C17591   7.141   0.501   2.388  0.0506  0.2494 -0.9444
  872MOL0     C17592   7.064   0.437   2.487  0.5981 -0.8672 -0.0997
  872MOL0     O17593   6.926   0.442   2.498  0.0692  0.0060  0.0796
  872MOL0     C17594   6.870   0.317   2.465 -0.1351  0.4666  0.4924
  872MOL0     C17595   6.736   0.376   2.398 -0.3251 -0.5799 -1.1098
  872MOL0     C17596   6.638   0.421   2.510  0.1158 -0.6098  0.2447
  872MOL0     C17597   6.502   0.462   2.439 -0.1186 -0.4493  0.5213
  872MOL0     C17598   6.397   0.503   2.544  0.1906 -0.9144  0.9036
  872MOL0     C17599   6.337   0.381   2.599  0.4929  0.0884  0.1682
  872MOL0     C17600   6.214   0.406   2.682 -0.8057  0.0391  0.1275
  872MOL0     C17601   6.166   0.274   2.750 -0.5579 -0.2551 -0.3385
  872MOL0     N17602   6.060   0.283   2.849  0.7086 -0.7500  0.1823
  872MOL0     C17603   5.926   0.299   2.815 -0.2839 -0.0157 -0.8933
  872MOL0     C17604   5.872   0.322   2.939  0.8782  1.0904  0.6230
  872MOL0     C17605   5.727   0.337   2.963  0.5484  0.3701 -0.4437
  872MOL0     C17606   5.649   0.409   2.847  0.7748  0.1931 -0.1313
  872MOL0     C17607   5.499   0.421   2.880 -1.1081  0.6729 -0.1399
  872MOL0     C17608   5.426   0.291   2.849 -0.3673 -0.3752  0.2861
  872MOL0     O17609   5.291   0.314   2.855  0.6166  0.8259 -0.7211
  872MOL0     C17610   5.218   0.263   2.965 -0.4561  0.0418  0.3295
  872MOL0     C17611   5.079   0.235   2.947 -0.2292 -0.3842 -0.5034
  872MOL0     C17612   5.000   0.200   3.050 -0.3043  0.2073  0.1935
  872MOL0     C17613   4.860   0.156   3.005 -0.6116 -0.2715  0.0433
  872MOL0     C17614   5.043   0.193   3.181  0.2846  0.4091 -1.2482
  872MOL0     C17615   4.955   0.155   3.303 -0.5001  0.8629 -1.0093
  872MOL0     O17616   4.821   0.161   3.286 -0.0834  0.3525  0.0230
  872MOL0     C17617   4.724   0.154   3.382  0.6157 -0.3259  0.4442
  872MOL0     C17618   4.722   0.197   3.511 -0.7391 -0.1050 -0.0606
  872MOL0     C17619   4.605   0.186   3.588 -0.5163 -0.2609 -0.1426
  872MOL0     C17620   4.490   0.136   3.536 -1.1884  0.8844  0.0227
  872MOL0     O17621   4.384   0.154   3.611  0.6461  0.7369  1.1793
  872MOL0     C17622   4.244   0.195   3.560  0.4375  0.7079  0.5092
  872MOL0     C17623   4.132   0.129   3.635  1.1451  0.0163  0.1397
  872MOL0     C17624   4.141   0.162   3.786  0.9114 -0.1732  0.4351
  872MOL0     C17625   4.012   0.126   3.855  0.2470  0.6436 -0.2036
  872MOL0     C17626   4.028   0.118   4.003  1.2336 -0.2078 -1.4221
  872MOL0     C17627   3.904   0.063   4.079 -0.2146  0.7071 -0.4976
  872MOL0     C17628   3.946   0.029   4.221 -0.0216 -0.0405 -0.1169
  872MOL0     C17629   3.832  -0.057   4.293 -0.1179 -0.1818  1.0414
  872MOL0    Cl17630   3.851  -0.233   4.269 -0.3039 -0.0169  0.3501
  872MOL0     C17631   4.487   0.090   3.400  0.6948 -0.7833 -0.3599
  872MOL0     C17632   4.605   0.104   3.324 -0.2277  0.7487  0.3470
  872MOL0     O17633   5.001   0.113   3.415  0.6802 -0.2559  0.8824
  872MOL0     C17634   5.176   0.221   3.203  0.2645 -0.4455 -0.2464
  872MOL0     C17635   5.261   0.251   3.099 -0.4127  0.3561  0.2427
  872MOL0     N17636   5.963   0.317   3.038 -0.7618 -0.0583  0.1848
  872MOL0     N17637   6.075   0.284   2.986  0.1687 -0.1733 -0.2906
  872MOL0     C17638   7.129   0.362   2.583 -0.5014  0.1751 -0.9525
  872MOL0     C17639   7.260   0.342   2.582 -0.4181  0.1223  0.2868
  872MOL0     C17640   7.695   0.255   2.491 -0.2154 -0.5039 -0.1620
  872MOL0     C17641   7.761   0.353   2.421 -0.1801 -0.9400  0.5254
  872MOL0     C17642   7.895   0.348   2.408  0.0092  0.0934 -0.0013
  872MOL0     C17643   7.968   0.236   2.453 -0.2762  0.8044  0.0971
  872MOL0     O17644   8.108   0.240   2.442  0.1120 -0.5657  0.4204
  872MOL0     C17645   8.179   0.352   2.378  0.4808  0.6074 -0.1092
  872MOL0     C17646   8.311   0.303   2.354 -0.1405  0.3183 -0.2839
  872MOL0     C17647   8.328   0.186   2.257  0.8499 -0.3051 -0.0014
  872MOL0     C17648   8.350   0.238   2.114 -0.1135  0.5963  0.4511
  872MOL0     C17649   8.484   0.290   2.097  0.2551 -0.1662  0.5350
  872MOL0     C17650   8.601   0.325   2.064  0.1331  0.0672 -0.1099
  872MOL0     C17651   7.905   0.137   2.524  0.8705 -0.6914  0.2243
  872MOL0     C17652   7.769   0.146   2.538 -0.4746 -0.0355  0.5738
  872MOL0     H17653   7.349   0.526   2.319 -0.6143  0.0874 -2.3960
  872MOL0     H17654   7.088   0.565   2.318  1.6027  0.3610 -2.0476
  872MOL0     H17655   6.941   0.268   2.398 -2.7685 -0.0606 -2.1007
  872MOL0     H17656   6.855   0.248   2.549 -1.7876 -3.6152 -2.8005
  872MOL0     H17657   6.765   0.453   2.325  3.7505 -1.2609 -0.4746
  872MOL0     H17658   6.699   0.296   2.334  1.5792 -1.3872 -1.2749
  872MOL0     H17659   6.625   0.342   2.584 -1.5749  0.3027  0.9891
  872MOL0     H17660   6.675   0.514   2.555  0.8538 -1.4327  1.4128
  872MOL0     H17661   6.523   0.547   2.373  0.4330 -0.6020  0.4937
  872MOL0     H17662   6.462   0.377   2.384 -0.1468 -1.5738  2.1948
  872MOL0     H17663   6.444   0.577   2.609 -0.5754  1.4402 -1.0617
  872MOL0     H17664   6.317   0.567   2.504  1.3271  0.6680  1.0943
  872MOL0     H17665   6.309   0.316   2.516  1.0655 -0.0129  0.0553
  872MOL0     H17666   6.411   0.331   2.662 -1.3952 -1.7687  1.0284
  872MOL0     H17667   6.234   0.474   2.765  0.5051 -2.3787  1.9113
  872MOL0     H17668   6.141   0.445   2.610 -1.4131 -0.4118  0.4836
  872MOL0     H17669   6.252   0.231   2.802 -0.1593  2.6806  1.6694
  872MOL0     H17670   6.135   0.198   2.679  1.0393 -2.5505  1.2717
  872MOL0     H17671   5.884   0.297   2.715 -1.8821 -1.6953 -0.2559
  872MOL0     H17672   5.699   0.231   2.958 -0.6759  0.6685 -0.3891
  872MOL0     H17673   5.700   0.381   3.059 -0.1503 -0.0276 -0.4515
  872MOL0     H17674   5.640   0.352   2.754 -4.2736  0.8316 -0.3516
  872MOL0     H17675   5.688   0.509   2.825 -0.8335  0.6661 -0.9883
  872MOL0     H17676   5.457   0.503   2.820 -1.7433  2.0740  2.0988
  872MOL0     H17677   5.478   0.457   2.981 -3.9806  0.5811 -0.6138
  872MOL0     H17678   5.462   0.212   2.916 -0.5064 -1.4522 -0.8785
  872MOL0     H17679   5.452   0.247   2.753  0.6642  1.6727 -0.4299
  872MOL0     H17680   5.048   0.253   2.845  2.2994 -2.0279 -1.6712
  872MOL0     H17681   4.866   0.164   2.896  1.6442  1.9211  0.2244
  872MOL0     H17682   4.845   0.054   3.042 -0.6422  0.4253  2.0566
  872MOL0     H17683   4.785   0.219   3.053 -0.4878 -1.9288  2.5529
  872MOL0     H17684   4.813   0.227   3.562 -1.2980  2.3864 -0.4031
  872MOL0     H17685   4.613   0.225   3.689 -0.8617 -2.6789  0.8829
  872MOL0     H17686   4.231   0.303   3.565 -1.6751  0.6992 -1.9786
  872MOL0     H17687   4.239   0.173   3.452 -1.3120 -1.8243  0.9958
  872MOL0     H17688   4.045   0.180   3.594  0.1979 -1.6083  0.0549
  872MOL0     H17689   4.113   0.022   3.623 -1.1752  0.3860  0.1066
  872MOL0     H17690   4.149   0.270   3.796 -1.0752 -0.0306  1.0343
  872MOL0     H17691   4.226   0.101   3.816  1.0470 -1.0080 -1.4609
  872MOL0     H17692   3.932   0.188   3.813 -2.2872 -2.6443 -0.6021
  872MOL0     H17693   3.976   0.029   3.820 -1.7857  1.1583  0.3059
  872MOL0     H17694   4.055   0.220   4.035 -2.1238  0.2374  0.4478
  872MOL0     H17695   4.112   0.053   4.029 -0.1711 -2.0878 -1.3930
  872MOL0     H17696   3.811   0.121   4.070 -1.0373 -0.5458 -0.3187
  872MOL0     H17697   3.888  -0.033   4.028 -1.4904  0.8699 -0.4486
  872MOL0     H17698   3.967   0.118   4.281  0.1486 -0.7864  0.9578
  872MOL0     H17699   4.037  -0.029   4.206  0.2096  0.2799  0.0273
  872MOL0     H17700   3.731  -0.038   4.257  0.4943  3.4159  0.8997
  872MOL0     H17701   3.829  -0.026   4.397 -3.1868  1.4243  0.6017
  872MOL0     H17702   4.406   0.044   3.345  1.6924 -0.6738 -2.0102
  872MOL0     H17703   4.605   0.078   3.219 -1.3476 -0.1892  0.5659
  872MOL0     H17704   5.219   0.217   3.302 -0.9534 -3.0159  0.2614
  872MOL0     H17705   5.363   0.275   3.126 -0.5371 -0.2097  1.2660
  872MOL0     H17706   7.082   0.327   2.674  2.8660  0.7292  1.2020
  872MOL0     H17707   7.308   0.286   2.662  1.0030 -2.1709 -2.0013
  872MOL0     H17708   7.700   0.440   2.399  0.8260  0.3391  2.5029
  872MOL0     H17709   7.946   0.430   2.358 -0.5304  0.3138 -0.1988
  872MOL0     H17710   8.132   0.388   2.286  0.5091  1.6624  0.2804
  872MOL0     H17711   8.187   0.431   2.453  3.7794 -0.4991  0.8937
  872MOL0     H17712   8.357   0.262   2.444  1.6761  1.2305 -0.7343
  872MOL0     H17713   8.373   0.391   2.333 -2.4056  2.2445  0.6065
  872MOL0     H17714   8.232   0.132   2.257  0.2190  0.7745  0.5087
  872MOL0     H17715   8.404   0.114   2.287  2.7421 -0.7303 -4.9496
  872MOL0     H17716   8.275   0.306   2.073 -0.0495  0.2094 -0.3101
  872MOL0     H17717   8.347   0.149   2.051 -2.1163 -1.4730  3.2255
  872MOL0     H17718   8.701   0.358   2.044 -0.1589  0.5707 -0.8248
  872MOL0     H17719   7.963   0.060   2.574  0.8383 -0.0385  1.2958
  872MOL0     H17720   7.716   0.068   2.591 -0.3074 -0.9033 -0.4998
  873MOL0     O17721   5.453   9.406   5.300  0.2136  0.5883  0.4670
  873MOL0     C17722   5.518   9.479   5.229  0.0115 -0.3322  0.6837
  873MOL0     O17723   5.527   9.615   5.244 -0.0122  0.5741  0.0869
  873MOL0     C17724   5.457   9.668   5.353 -0.0262 -0.4393  0.0803
  873MOL0     C17725   5.343   9.745   5.326  0.3788 -1.0030  0.2632
  873MOL0     C17726   5.272   9.805   5.429 -0.2619 -0.4330  0.1980
  873MOL0     C17727   5.323   9.788   5.565  0.1305 -0.6841  0.8637
  873MOL0     O17728   5.246   9.827   5.671 -0.3910  0.1166  0.0232
  873MOL0     C17729   5.157   9.730   5.726  0.4214  0.3588 -0.9122
  873MOL0     C17730   5.004   9.736   5.677  0.4021 -0.0198 -0.5332
  873MOL0     C17731   4.951   9.873   5.726  0.2053  0.5275  0.0517
  873MOL0     C17732   4.854   9.939   5.627 -0.3382  0.3405  0.4020
  873MOL0     C17733   4.781  10.064   5.691  0.2174  0.6586  0.0554
  873MOL0     C17734   4.670  10.116   5.601  1.1549  0.6068  0.1512
  873MOL0     C17735   4.604  10.239   5.651 -1.1889 -0.5036 -0.1397
  873MOL0     C17736   4.566  10.235   5.797  0.3081  0.1244  1.2872
  873MOL0     N17737   4.453  10.140   5.810 -0.7102 -0.4854 -0.2386
  873MOL0     C17738   4.454  10.011   5.857 -1.0583 -0.5832 -0.6925
  873MOL0     C17739   4.319   9.982   5.873  0.8533  0.1092 -0.0744
  873MOL0     C17740   4.256   9.858   5.920  1.2148 -0.1014  0.4852
  873MOL0     C17741   4.236   9.869   6.073 -0.1763  0.1986 -0.5955
  873MOL0     C17742   4.354   9.913   6.147  0.5396 -0.9388  0.5039
  873MOL0     C17743   4.470   9.808   6.149  0.5826 -0.7144 -0.3333
  873MOL0     O17744   4.447   9.689   6.222  0.4818 -0.0147 -0.0280
  873MOL0     C17745   4.430   9.709   6.357  0.1516  0.9291  1.4253
  873MOL0     C17746   4.526   9.736   6.452  0.6171  1.1332 -0.1985
  873MOL0     C17747   4.504   9.752   6.587 -0.4728 -0.8323  0.2283
  873MOL0     C17748   4.629   9.781   6.673 -0.2817 -0.2942  0.3556
  873MOL0     C17749   4.377   9.740   6.641  0.5483 -0.6570  0.3007
  873MOL0     C17750   4.340   9.743   6.783 -1.3461 -0.3623  0.1625
  873MOL0     O17751   4.419   9.807   6.867 -0.0769 -0.0279 -0.4388
  873MOL0     C17752   4.360   9.812   6.994 -0.2574 -0.0265 -0.2579
  873MOL0     C17753   4.373   9.706   7.083 -0.7773  0.2711  0.1309
  873MOL0     C17754   4.311   9.709   7.214  0.3083  0.0835  0.2309
  873MOL0     C17755   4.231   9.814   7.254 -0.4400  0.4232 -0.9113
  873MOL0     O17756   4.158   9.817   7.375 -0.4083  0.8156  0.1832
  873MOL0     C17757   4.070   9.923   7.405 -0.2493 -0.1021 -0.4126
  873MOL0     C17758   3.982   9.891   7.535  0.1972  0.7912  0.5365
  873MOL0     C17759   4.057   9.899   7.666  1.9193 -0.5921 -0.1515
  873MOL0     C17760   3.959   9.918   7.786 -0.1794  0.9376 -0.0168
  873MOL0     C17761   4.034   9.977   7.913 -0.8753 -0.5164  0.7814
  873MOL0     C17762   4.094   9.883   8.016  0.3252  0.0183  0.3183
  873MOL0     C17763   4.182   9.962   8.123  0.9558  0.2523  0.4373
  873MOL0     C17764   4.184   9.866   8.252 -0.4976 -0.1322 -0.8006
  873MOL0    Cl17765   4.073   9.951   8.366 -0.0314 -0.1459  0.3211
  873MOL0     C17766   4.227   9.927   7.169 -0.6104 -0.5070  0.1402
  873MOL0     C17767   4.286   9.920   7.038  0.1289 -0.3801  0.0080
  873MOL0     O17768   4.245   9.673   6.810 -0.3635 -0.1427 -0.4247
  873MOL0     C17769   4.278   9.717   6.540  0.6458  0.8567 -0.1414
  873MOL0     C17770   4.303   9.704   6.405  0.1042 -0.5877 -0.4913
  873MOL0     N17771   4.242  10.088   5.825  0.0555  0.4948  0.4864
  873MOL0     N17772   4.328  10.181   5.795  0.1073 -0.2322 -1.2170
  873MOL0     C17773   5.444   9.724   5.585  0.0511 -0.8730 -0.1480
  873MOL0     C17774   5.509   9.657   5.485  0.2996  0.9143 -0.2849
  873MOL0     C17775   5.606   9.432   5.119 -0.0818  0.0832  0.4568
  873MOL0     C17776   5.682   9.511   5.042  0.0994 -0.5015  0.3283
  873MOL0     C17777   5.760   9.463   4.940 -0.5851 -0.0009 -0.9681
  873MOL0     C17778   5.754   9.326   4.905  0.1923  0.2254 -0.4223
  873MOL0     O17779   5.819   9.267   4.802  0.2439  0.2861 -0.0795
  873MOL0     C17780   5.907   9.352   4.727 -0.6319 -0.0809  1.5136
  873MOL0     C17781   5.957   9.277   4.606  0.0148 -0.3179  0.0727
  873MOL0     C17782   6.067   9.166   4.628 -0.1570 -0.0356 -0.0180
  873MOL0     C17783   6.075   9.072   4.512 -0.4652  0.3094  0.1434
  873MOL0     C17784   5.978   8.964   4.526  0.4839  0.5268 -0.0794
  873MOL0     C17785   5.892   8.873   4.543 -0.2191 -0.4665 -1.0906
  873MOL0     C17786   5.672   9.241   4.983 -0.0046  0.8462  0.8535
  873MOL0     C17787   5.604   9.295   5.087 -0.9928 -1.3874 -0.0976
  873MOL0     H17788   5.308   9.748   5.223 -0.6790 -0.1086  0.6261
  873MOL0     H17789   5.182   9.862   5.413  0.4072  1.0126  1.3188
  873MOL0     H17790   5.192   9.627   5.717  0.5795  0.3299 -0.0601
  873MOL0     H17791   5.164   9.760   5.831 -0.7974  0.0520 -0.7250
  873MOL0     H17792   4.999   9.748   5.569 -3.1054  3.9238 -0.1573
  873MOL0     H17793   4.942   9.653   5.712  0.7307 -1.6939 -3.5228
  873MOL0     H17794   4.898   9.857   5.821  1.2413 -2.6715  0.2266
  873MOL0     H17795   5.035   9.943   5.730  1.6847 -1.1590  0.0697
  873MOL0     H17796   4.903   9.975   5.536 -2.0218  0.7627 -0.3809
  873MOL0     H17797   4.781   9.868   5.587  0.6685 -0.6544  0.2603
  873MOL0     H17798   4.739  10.043   5.790  0.2337 -2.6749 -0.5318
  873MOL0     H17799   4.851  10.146   5.712 -0.9335  1.4254  1.0132
  873MOL0     H17800   4.715  10.120   5.502 -3.1163 -1.4880 -2.1346
  873MOL0     H17801   4.593  10.039   5.608 -1.4067  3.1611  2.7223
  873MOL0     H17802   4.678  10.319   5.641 -3.0853  1.1256 -2.2854
  873MOL0     H17803   4.521  10.271   5.588 -0.5846  0.2840 -0.5489
  873MOL0     H17804   4.521  10.333   5.812  1.3830  1.5011 -3.0047
  873MOL0     H17805   4.647  10.222   5.869 -0.5173  2.1569  2.6793
  873MOL0     H17806   4.542   9.951   5.874 -0.5633 -0.0056 -1.1685
  873MOL0     H17807   4.160   9.843   5.870  0.9040 -1.4961  1.4346
  873MOL0     H17808   4.315   9.773   5.884  1.2184  0.6925 -1.5060
  873MOL0     H17809   4.220   9.769   6.113 -0.0419  0.2234 -0.4799
  873MOL0     H17810   4.144   9.923   6.096 -0.0364  0.5137 -0.7648
  873MOL0     H17811   4.314   9.918   6.248 -0.2649 -4.2288  0.4690
  873MOL0     H17812   4.375  10.018   6.126 -3.6437 -0.0399 -0.0424
  873MOL0     H17813   4.555   9.857   6.195 -1.9558  1.4392  2.4670
  873MOL0     H17814   4.492   9.773   6.047 -0.4367  0.9194 -1.1594
  873MOL0     H17815   4.626   9.748   6.412  1.5307  1.3579  2.0197
  873MOL0     H17816   4.635   9.884   6.709  4.3201 -0.0776 -0.3867
  873MOL0     H17817   4.633   9.712   6.758  1.2558 -1.0137 -0.2739
  873MOL0     H17818   4.716   9.778   6.606 -0.5157  3.0793 -0.2608
  873MOL0     H17819   4.427   9.613   7.063  0.7596  0.7400  1.8081
  873MOL0     H17820   4.311   9.623   7.281  0.8473 -2.1080 -2.4194
  873MOL0     H17821   4.127  10.016   7.414 -2.1953  1.2408 -1.3333
  873MOL0     H17822   4.006   9.934   7.317  0.1166  3.4909 -0.3924
  873MOL0     H17823   3.900   9.963   7.540 -0.9910 -0.5908  2.9285
  873MOL0     H17824   3.945   9.790   7.515  2.6754 -0.0610 -0.0980
  873MOL0     H17825   4.133   9.978   7.663  1.4012 -0.0976 -0.4924
  873MOL0     H17826   4.110   9.803   7.661  2.0107 -0.5010 -1.2755
  873MOL0     H17827   3.870   9.979   7.771 -0.5607  1.6916  4.0946
  873MOL0     H17828   3.931   9.815   7.811  2.5216 -0.1153 -1.0089
  873MOL0     H17829   3.971  10.049   7.968 -0.6736 -1.0057  1.6667
  873MOL0     H17830   4.106  10.042   7.863 -5.3606  3.3334 -1.4154
  873MOL0     H17831   4.017   9.820   8.062 -0.8210  0.6267 -0.7092
  873MOL0     H17832   4.160   9.812   7.966 -0.7496 -0.3586 -0.5976
  873MOL0     H17833   4.134  10.058   8.145 -1.4612 -0.7157 -0.2596
  873MOL0     H17834   4.283   9.972   8.083  0.7493 -1.4491 -0.6067
  873MOL0     H17835   4.282   9.869   8.300  0.1890 -0.0564 -2.1501
  873MOL0     H17836   4.158   9.761   8.238 -0.7386 -0.3191  0.8355
  873MOL0     H17837   4.179  10.020   7.196  0.9584  0.0288  1.1945
  873MOL0     H17838   4.284  10.000   6.965  2.1483  0.7677  1.1095
  873MOL0     H17839   4.177   9.682   6.561  0.6923 -0.1246 -1.3779
  873MOL0     H17840   4.220   9.683   6.338 -1.0480  2.6366 -0.2353
  873MOL0     H17841   5.481   9.720   5.687  0.2146  0.4970 -0.1380
  873MOL0     H17842   5.594   9.597   5.517 -1.9705 -1.3640  1.9791
  873MOL0     H17843   5.689   9.617   5.063 -0.5815 -0.5709  0.9056
  873MOL0     H17844   5.821   9.537   4.891  0.7325 -0.4802 -0.1032
  873MOL0     H17845   5.844   9.433   4.688  2.2287  1.9170  0.6744
  873MOL0     H17846   5.990   9.399   4.782  0.3033 -1.7748  1.6215
  873MOL0     H17847   5.994   9.352   4.535 -1.2799 -0.9914 -1.3522
  873MOL0     H17848   5.868   9.252   4.547 -0.6476  1.8158  0.0792
  873MOL0     H17849   6.052   9.112   4.722  0.7186 -3.5295 -1.6938
  873MOL0     H17850   6.162   9.219   4.636  1.7930 -3.3797  1.1969
  873MOL0     H17851   6.169   9.020   4.496 -0.1286  0.7256  0.7074
  873MOL0     H17852   6.055   9.134   4.424 -0.0008 -0.3767 -0.4487
  873MOL0     H17853   5.822   8.801   4.579 -0.5752  0.3557 -0.0906
  873MOL0     H17854   5.654   9.135   4.967 -0.2157  0.9601  0.3045
  873MOL0     H17855   5.535   9.232   5.143 -1.7806 -1.2869 -0.9306
  874MOL0     O17856   0.417   2.413   2.650  0.1350 -0.0438  0.0321
  874MOL0     C17857   0.391   2.359   2.753 -0.1842  0.0482 -0.2648
  874MOL0     O17858   0.481   2.326   2.855  0.5957  0.1955 -0.6259
  874MOL0     C17859   0.613   2.299   2.838 -0.4015  0.2995 -1.1392
  874MOL0     C17860   0.711   2.333   2.943 -0.0486 -0.5555  0.0479
  874MOL0     C17861   0.846   2.290   2.925  0.5135 -0.1893 -0.5190
  874MOL0     C17862   0.889   2.240   2.807 -0.2694 -0.1430  0.4023
  874MOL0     O17863   1.023   2.202   2.779 -0.1420 -0.3897  0.0342
  874MOL0     C17864   1.122   2.207   2.878 -0.2848 -0.1589  0.1311
  874MOL0     C17865   1.245   2.121   2.829 -0.0266 -0.3625  1.0506
  874MOL0     C17866   1.294   2.149   2.684 -0.2220 -0.9442 -0.3125
  874MOL0     C17867   1.439   2.094   2.670  0.8729 -0.1914 -0.3727
  874MOL0     C17868   1.464   2.069   2.522 -0.5506 -0.2217 -0.1984
  874MOL0     C17869   1.432   2.184   2.421  0.6466 -0.5443 -0.5910
  874MOL0     C17870   1.503   2.311   2.455 -0.1382 -0.9859 -0.5713
  874MOL0     C17871   1.654   2.293   2.471  0.0788 -0.0635  0.0969
  874MOL0     N17872   1.723   2.416   2.506  0.0433 -0.2476 -0.5046
  874MOL0     C17873   1.740   2.530   2.431  0.3968  0.4776 -0.0505
  874MOL0     C17874   1.814   2.610   2.516 -0.9691  0.4465  0.0768
  874MOL0     C17875   1.857   2.746   2.482 -0.5306  0.4483 -0.3709
  874MOL0     C17876   1.995   2.793   2.544 -0.2680 -0.5429  0.4578
  874MOL0     C17877   2.050   2.923   2.482 -0.0912 -0.1879 -0.1156
  874MOL0     C17878   2.187   2.973   2.533 -0.1500 -0.9093 -0.0150
  874MOL0     O17879   2.217   3.112   2.487 -0.4697 -0.0894 -0.1916
  874MOL0     C17880   2.347   3.129   2.477 -0.4586  0.0524  1.1828
  874MOL0     C17881   2.430   3.109   2.581 -0.5396 -0.9642 -0.1848
  874MOL0     C17882   2.566   3.145   2.579  0.6937 -1.1588 -0.0608
  874MOL0     C17883   2.652   3.127   2.693  0.6130  0.5070  0.2686
  874MOL0     C17884   2.609   3.211   2.458 -0.0338 -0.5010  0.2357
  874MOL0     C17885   2.758   3.237   2.432 -0.2645  0.5027  0.0485
  874MOL0     O17886   2.846   3.227   2.533 -0.6806 -0.2697 -0.0144
  874MOL0     C17887   2.983   3.225   2.507  0.1154 -0.8969  0.4326
  874MOL0     C17888   3.052   3.341   2.461  0.2583 -0.1564  0.3156
  874MOL0     C17889   3.184   3.344   2.437 -0.3314  0.1248  0.2531
  874MOL0     C17890   3.255   3.223   2.427 -0.3855  0.1574  0.0170
  874MOL0     O17891   3.387   3.231   2.377  0.7503  0.6450 -0.6375
  874MOL0     C17892   3.430   3.130   2.289  0.5704 -0.6068  0.0271
  874MOL0     C17893   3.579   3.112   2.290  0.0179 -0.5132 -1.1450
  874MOL0     C17894   3.655   3.243   2.275 -0.4289 -1.2323  0.3851
  874MOL0     C17895   3.811   3.225   2.301  0.0885 -0.6136 -1.1493
  874MOL0     C17896   3.907   3.324   2.216  0.3557  1.0953 -0.0363
  874MOL0     C17897   3.949   3.260   2.078 -0.0761 -0.4295  0.0911
  874MOL0     C17898   3.843   3.244   1.973  0.2645 -0.1772 -0.5771
  874MOL0     C17899   3.897   3.160   1.855 -0.6714  0.0316  0.2104
  874MOL0    Cl17900   4.002   3.272   1.778  0.2051  0.0131  0.1585
  874MOL0     C17901   3.193   3.102   2.472  0.2384  0.6869  0.1601
  874MOL0     C17902   3.055   3.109   2.514  1.1584 -0.1227 -0.4505
  874MOL0     O17903   2.790   3.258   2.316 -0.4112  0.4938 -0.5351
  874MOL0     C17904   2.519   3.225   2.349  0.1920 -0.1148 -0.2493
  874MOL0     C17905   2.389   3.185   2.358  0.0314 -0.6182  0.3178
  874MOL0     N17906   1.827   2.552   2.639 -0.6254  0.0077 -0.6726
  874MOL0     N17907   1.775   2.436   2.634  0.2820 -0.1947 -0.0665
  874MOL0     C17908   0.791   2.198   2.712  1.2107 -0.8838 -0.1336
  874MOL0     C17909   0.647   2.222   2.727 -0.6487  0.4216  0.0513
  874MOL0     C17910   0.241   2.337   2.777  0.1509 -0.7172 -0.8099
  874MOL0     C17911   0.137   2.391   2.702 -0.1311 -0.1264  0.3507
  874MOL0     C17912   0.000   2.372   2.733  0.5575 -0.1136  0.1029
  874MOL0     C17913  -0.030   2.312   2.853  0.2111 -0.0566  0.3015
  874MOL0     O17914  -0.162   2.287   2.884 -0.0904 -0.6564 -0.9068
  874MOL0     C17915  -0.276   2.315   2.799  0.1340 -0.5213 -0.2434
  874MOL0     C17916  -0.395   2.223   2.815  0.0356  0.0501  0.1488
  874MOL0     C17917  -0.363   2.073   2.799 -0.3805  0.5680 -0.2751
  874MOL0     C17918  -0.456   2.004   2.898  0.7430 -0.4234  0.5805
  874MOL0     C17919  -0.586   2.012   2.831 -0.6205 -0.4929  0.9172
  874MOL0     C17920  -0.696   2.034   2.786 -1.0963 -0.1944 -0.1890
  874MOL0     C17921   0.068   2.250   2.931  0.3875 -0.2323  0.5401
  874MOL0     C17922   0.200   2.264   2.894 -0.3560 -0.3528  0.5742
  874MOL0     H17923   0.685   2.375   3.039 -0.5345 -0.0976 -0.2719
  874MOL0     H17924   0.917   2.298   3.007  0.3199  1.7129 -0.4919
  874MOL0     H17925   1.157   2.305   2.912  0.4012  0.1980 -1.4753
  874MOL0     H17926   1.101   2.151   2.969 -2.5226 -0.6102 -0.5969
  874MOL0     H17927   1.325   2.131   2.902  0.3069 -0.2376  0.6713
  874MOL0     H17928   1.219   2.014   2.830  0.3025 -0.4392  1.6529
  874MOL0     H17929   1.222   2.100   2.616 -0.9078 -0.0690 -0.2383
  874MOL0     H17930   1.307   2.256   2.664 -1.2555 -1.1385 -2.3798
  874MOL0     H17931   1.509   2.166   2.713  1.6317 -1.6573  0.9538
  874MOL0     H17932   1.455   2.002   2.726 -0.9347  0.0935  0.6813
  874MOL0     H17933   1.564   2.026   2.510 -1.6334 -2.8427 -0.5099
  874MOL0     H17934   1.409   1.979   2.492 -0.7707  0.5948 -2.4298
  874MOL0     H17935   1.455   2.149   2.320  2.2281  0.3063 -0.5580
  874MOL0     H17936   1.325   2.207   2.421  0.6741  0.0935  2.8784
  874MOL0     H17937   1.491   2.385   2.374  3.9506  3.3947  2.3012
  874MOL0     H17938   1.463   2.355   2.547 -1.2499  0.5253 -1.7157
  874MOL0     H17939   1.693   2.251   2.378  2.1204  1.7511  0.0902
  874MOL0     H17940   1.683   2.219   2.546  1.8059  1.3028  0.8347
  874MOL0     H17941   1.706   2.565   2.334 -1.4784  1.4021  0.8920
  874MOL0     H17942   1.861   2.769   2.375  1.7905  1.0413 -0.2124
  874MOL0     H17943   1.774   2.810   2.514 -0.3197  0.8314 -0.5753
  874MOL0     H17944   2.071   2.723   2.509  1.5796  1.1898  0.8426
  874MOL0     H17945   1.979   2.808   2.651 -3.0350  1.3845 -0.1191
  874MOL0     H17946   1.980   3.004   2.501 -0.6941 -0.5496 -0.7582
  874MOL0     H17947   2.073   2.919   2.375  2.1728 -0.6595  0.3254
  874MOL0     H17948   2.264   2.898   2.509 -0.0132 -1.3542  1.7319
  874MOL0     H17949   2.171   2.976   2.641 -1.6769 -0.8331 -0.2154
  874MOL0     H17950   2.391   3.063   2.671 -2.4518  0.7389 -0.0761
  874MOL0     H17951   2.720   3.045   2.665  0.5020  1.5937 -3.8012
  874MOL0     H17952   2.717   3.212   2.713  1.5706  0.5927 -2.6816
  874MOL0     H17953   2.575   3.109   2.768 -0.3712 -1.4633 -1.1311
  874MOL0     H17954   3.007   3.437   2.439 -0.6888 -0.8164 -0.8246
  874MOL0     H17955   3.224   3.441   2.409  0.3869 -0.2134  0.1034
  874MOL0     H17956   3.377   3.036   2.307  0.8657 -0.6562  0.6397
  874MOL0     H17957   3.414   3.160   2.185 -0.2795 -0.5698  0.1628
  874MOL0     H17958   3.597   3.086   2.395  3.0523  2.7690 -0.6607
  874MOL0     H17959   3.614   3.032   2.224  0.3471 -0.3401 -1.1833
  874MOL0     H17960   3.622   3.318   2.348 -1.8858  0.4249 -1.8184
  874MOL0     H17961   3.636   3.277   2.172 -1.4522  1.4601  1.3479
  874MOL0     H17962   3.831   3.247   2.407  2.8885 -1.7238 -1.3461
  874MOL0     H17963   3.840   3.124   2.271  0.0909 -0.0617 -3.0882
  874MOL0     H17964   3.989   3.360   2.277 -1.1728  2.6390  1.1963
  874MOL0     H17965   3.854   3.419   2.206  0.0236  0.7289 -2.3804
  874MOL0     H17966   4.035   3.321   2.049  0.6276 -0.4106  2.0228
  874MOL0     H17967   3.994   3.164   2.104  2.0823  0.4161 -0.3060
  874MOL0     H17968   3.823   3.346   1.940  0.8569 -0.7207 -2.8097
  874MOL0     H17969   3.748   3.207   2.014  1.7500 -1.1644  2.2349
  874MOL0     H17970   3.818   3.127   1.786  0.6283 -1.6422 -0.5508
  874MOL0     H17971   3.946   3.065   1.880  1.1301  0.6289 -0.8309
  874MOL0     H17972   3.234   3.002   2.459 -2.5561 -0.6073  0.6608
  874MOL0     H17973   2.997   3.024   2.547 -1.1392  2.5275  3.1208
  874MOL0     H17974   2.551   3.259   2.252  0.5513  0.3200  0.0213
  874MOL0     H17975   2.325   3.186   2.270  1.5663 -3.1627 -0.9284
  874MOL0     H17976   0.823   2.143   2.623  1.3920  1.1256 -1.3744
  874MOL0     H17977   0.586   2.167   2.656 -1.1343 -1.1325  1.5847
  874MOL0     H17978   0.171   2.449   2.617  1.1713 -0.4744  0.6110
  874MOL0     H17979  -0.078   2.429   2.684  0.8851  1.3330  1.2253
  874MOL0     H17980  -0.299   2.421   2.813 -0.5722 -0.5829 -0.8647
  874MOL0     H17981  -0.233   2.296   2.700  2.0294  0.9603  0.2323
  874MOL0     H17982  -0.461   2.241   2.730  0.9129 -1.2943 -0.8574
  874MOL0     H17983  -0.437   2.256   2.910 -0.2124 -0.3817  0.1860
  874MOL0     H17984  -0.259   2.067   2.833 -1.2114  3.2558  3.3403
  874MOL0     H17985  -0.372   2.044   2.694  1.4861  1.9672 -0.8795
  874MOL0     H17986  -0.442   2.057   2.993 -0.3354 -1.0539  1.1136
  874MOL0     H17987  -0.433   1.898   2.911  1.2180 -0.3814  0.1200
  874MOL0     H17988  -0.794   2.068   2.760 -0.3452  5.2685  2.6834
  874MOL0     H17989   0.032   2.210   3.025 -0.6119  1.0684  0.7417
  874MOL0     H17990   0.274   2.206   2.949  1.7764  2.6079  1.0493
  875MOL0     O17991   9.940   8.511   1.856 -0.0347  0.1601  0.1782
  875MOL0     C17992   9.975   8.469   1.743  0.7815 -0.4915  0.6240
  875MOL0     O17993   9.895   8.442   1.640  0.2528  0.2904  0.4485
  875MOL0     C17994   9.766   8.455   1.667 -0.0154  0.2584 -0.4461
  875MOL0     C17995   9.706   8.375   1.774  0.3606  0.2806  0.0008
  875MOL0     C17996   9.570   8.373   1.809 -0.3429 -0.5054  0.4225
  875MOL0     C17997   9.487   8.454   1.720 -0.0877  0.1696  0.5583
  875MOL0     O17998   9.349   8.474   1.739 -0.0801 -0.1631  0.0896
  875MOL0     C17999   9.281   8.371   1.812  0.3392  0.2984  0.3639
  875MOL0     C18000   9.127   8.403   1.818 -0.1283  0.0314  0.8299
  875MOL0     C18001   9.059   8.446   1.689 -0.3662  0.5510 -0.3274
  875MOL0     C18002   8.906   8.468   1.705  0.6633  0.5188 -0.2906
  875MOL0     C18003   8.853   8.489   1.564 -0.8104 -0.1350 -0.1917
  875MOL0     C18004   8.721   8.419   1.546  0.2175  0.5330  0.4820
  875MOL0     C18005   8.664   8.439   1.404 -0.3788  0.4299  0.5033
  875MOL0     C18006   8.536   8.360   1.390 -0.0118 -0.4176  0.1560
  875MOL0     N18007   8.431   8.430   1.460  0.4267  0.5472 -0.8027
  875MOL0     C18008   8.359   8.535   1.414 -0.3126 -0.8740  0.0530
  875MOL0     C18009   8.261   8.558   1.502  0.6670  0.2620  0.2788
  875MOL0     C18010   8.167   8.678   1.502 -0.7773 -0.9857  0.0063
  875MOL0     C18011   8.065   8.670   1.391 -0.2150  0.7469  1.4217
  875MOL0     C18012   7.948   8.571   1.436  0.0156 -0.2812  0.1481
  875MOL0     C18013   7.813   8.620   1.391 -0.1102 -0.8396 -0.3035
  875MOL0     O18014   7.716   8.521   1.425 -0.2604 -0.3164 -0.1756
  875MOL0     C18015   7.685   8.418   1.339 -0.2867 -0.6859 -0.7501
  875MOL0     C18016   7.734   8.394   1.212 -0.6346  0.2967 -0.2548
  875MOL0     C18017   7.703   8.281   1.145  0.9384  0.3308  0.1096
  875MOL0     C18018   7.763   8.266   1.010  0.6594  0.4513 -0.3844
  875MOL0     C18019   7.608   8.180   1.207 -0.1358 -0.5380  0.2917
  875MOL0     C18020   7.558   8.053   1.145  0.0958  0.2870 -0.2695
  875MOL0     O18021   7.493   7.968   1.226 -0.1575  0.4648  0.8153
  875MOL0     C18022   7.444   7.860   1.167  0.0961  0.3846  0.2557
  875MOL0     C18023   7.504   7.740   1.195  0.4527 -0.4275 -0.5089
  875MOL0     C18024   7.445   7.615   1.155 -0.5918 -1.0810 -0.5642
  875MOL0     C18025   7.328   7.608   1.084 -0.1905  0.1466  0.9218
  875MOL0     O18026   7.281   7.482   1.054  0.4009 -0.0679  0.6808
  875MOL0     C18027   7.173   7.476   0.954  0.2997 -0.0942 -0.1145
  875MOL0     C18028   7.152   7.336   0.887  0.0119  0.8805 -1.2363
  875MOL0     C18029   7.245   7.289   0.776 -0.0367  0.7454  0.8113
  875MOL0     C18030   7.287   7.406   0.686 -0.5517 -0.5349 -0.8005
  875MOL0     C18031   7.369   7.346   0.562 -0.7257 -0.8881  0.3496
  875MOL0     C18032   7.396   7.453   0.452 -0.5275 -0.0960  0.7533
  875MOL0     C18033   7.506   7.411   0.358 -0.0663 -0.7847  1.2006
  875MOL0     C18034   7.534   7.515   0.259 -0.4552  1.0880  0.0787
  875MOL0    Cl18035   7.664   7.467   0.159 -0.0178  0.1787  0.0030
  875MOL0     C18036   7.257   7.725   1.072 -1.3013 -1.1030  0.0455
  875MOL0     C18037   7.313   7.847   1.119 -0.3232  0.0515 -0.4007
  875MOL0     O18038   7.596   8.037   1.029  0.6142 -0.2115 -0.2357
  875MOL0     C18039   7.566   8.210   1.338  0.9525  0.7721 -0.7416
  875MOL0     C18040   7.604   8.323   1.404 -1.1798 -0.8543 -0.1237
  875MOL0     N18041   8.258   8.449   1.595 -0.0610 -0.2349 -0.9797
  875MOL0     N18042   8.363   8.378   1.569  0.2291  0.2785  0.3087
  875MOL0     C18043   9.540   8.540   1.623 -0.6802  0.2184  0.3094
  875MOL0     C18044   9.676   8.527   1.590 -0.3946  0.5623 -0.0006
  875MOL0     C18045  10.119   8.470   1.706 -0.5924 -0.6147 -0.5676
  875MOL0     C18046  10.164   8.390   1.598  0.1365 -0.5808  0.2672
  875MOL0     C18047  10.298   8.386   1.573  0.3752  0.1037  0.4449
  875MOL0     C18048  10.393   8.468   1.644 -0.3183  0.1590 -0.5621
  875MOL0     O18049  10.521   8.490   1.607  0.5541 -0.3903  0.4086
  875MOL0     C18050  10.551   8.469   1.470 -0.4706 -0.6674  0.5716
  875MOL0     C18051  10.601   8.324   1.448 -0.4106 -0.4566 -0.3710
  875MOL0     C18052  10.726   8.295   1.536 -0.1226  0.2808 -1.3385
  875MOL0     C18053  10.853   8.367   1.507 -0.3588  0.7667  1.0108
  875MOL0     C18054  10.883   8.456   1.615  0.2960  0.3835  0.1019
  875MOL0     C18055  10.898   8.541   1.696  0.2456 -0.3329  0.1245
  875MOL0     C18056  10.345   8.554   1.750 -0.4327  0.6440 -1.0066
  875MOL0     C18057  10.211   8.545   1.789  0.2381 -0.3621 -0.4327
  875MOL0     H18058   9.776   8.330   1.844  0.6965  2.6769  1.2921
  875MOL0     H18059   9.529   8.320   1.893 -0.5820 -0.4579  0.3367
  875MOL0     H18060   9.303   8.271   1.773  0.0137  0.7070 -0.9110
  875MOL0     H18061   9.309   8.377   1.917  0.4906  1.2145  0.2769
  875MOL0     H18062   9.080   8.308   1.846 -2.1638  0.2198 -1.5841
  875MOL0     H18063   9.106   8.478   1.895 -0.1491  1.1628 -0.2539
  875MOL0     H18064   9.110   8.538   1.659 -0.3860  1.5890  2.5161
  875MOL0     H18065   9.072   8.369   1.612 -0.2147 -0.6096  0.8155
  875MOL0     H18066   8.858   8.377   1.743  2.3080  0.2297  1.2123
  875MOL0     H18067   8.887   8.556   1.768  4.1457  0.7289  0.6922
  875MOL0     H18068   8.839   8.596   1.543 -0.2500 -0.2367 -1.1544
  875MOL0     H18069   8.914   8.447   1.484  0.6038  2.8727 -0.8668
  875MOL0     H18070   8.732   8.310   1.549  2.1493  0.4681 -3.3260
  875MOL0     H18071   8.654   8.455   1.625 -1.7583  0.4851 -1.0855
  875MOL0     H18072   8.643   8.544   1.382  0.8545  1.2703  3.0219
  875MOL0     H18073   8.722   8.396   1.321 -3.6754 -4.1760  0.2188
  875MOL0     H18074   8.539   8.256   1.422  0.4758 -0.8972 -1.3640
  875MOL0     H18075   8.510   8.350   1.284  0.9575 -2.1298  0.0548
  875MOL0     H18076   8.374   8.576   1.314 -1.1572 -4.2363 -1.5728
  875MOL0     H18077   8.114   8.697   1.596  1.9618  2.3564  1.0902
  875MOL0     H18078   8.217   8.771   1.472 -0.1361 -0.4230  2.6038
  875MOL0     H18079   8.105   8.658   1.290 -2.2430 -2.5686  0.8767
  875MOL0     H18080   8.000   8.758   1.386 -2.1009 -0.6536 -0.0468
  875MOL0     H18081   7.943   8.562   1.545 -0.2980 -1.2878  0.0577
  875MOL0     H18082   7.954   8.475   1.383  0.1712 -0.9067  1.2548
  875MOL0     H18083   7.820   8.639   1.284 -0.0611  1.8483  0.0977
  875MOL0     H18084   7.786   8.715   1.438 -0.5340 -1.8960  1.7419
  875MOL0     H18085   7.804   8.461   1.163 -0.6017 -1.2163 -2.4315
  875MOL0     H18086   7.831   8.345   0.977 -0.2713  1.4696  0.0691
  875MOL0     H18087   7.814   8.169   1.006 -3.3881 -1.8717 -1.2161
  875MOL0     H18088   7.682   8.254   0.937  0.3558 -3.1136  0.3561
  875MOL0     H18089   7.594   7.738   1.255  1.6619  1.6556 -2.1429
  875MOL0     H18090   7.488   7.520   1.185 -1.0533 -2.0259 -2.7018
  875MOL0     H18091   7.088   7.509   1.015 -0.8463  0.4932 -1.9577
  875MOL0     H18092   7.184   7.552   0.876  0.7959 -1.1165 -1.0672
  875MOL0     H18093   7.162   7.258   0.963 -2.1457 -0.3325 -2.0893
  875MOL0     H18094   7.047   7.329   0.856 -0.8387 -0.8186  1.6226
  875MOL0     H18095   7.186   7.241   0.697  2.4694  0.7790 -1.2177
  875MOL0     H18096   7.327   7.231   0.818 -0.8263 -0.0970  1.2354
  875MOL0     H18097   7.201   7.463   0.648 -1.8437  0.0813  2.7042
  875MOL0     H18098   7.349   7.476   0.742 -1.2693  0.5259 -1.3141
  875MOL0     H18099   7.311   7.259   0.532 -2.1999  0.3168 -0.4466
  875MOL0     H18100   7.460   7.304   0.605 -0.3607 -1.7823 -1.2189
  875MOL0     H18101   7.308   7.480   0.392 -0.6646  2.4020  1.9598
  875MOL0     H18102   7.426   7.551   0.491  0.3070  0.9550 -2.2507
  875MOL0     H18103   7.475   7.317   0.312  0.0436 -0.2859  0.0801
  875MOL0     H18104   7.597   7.386   0.414  1.5777  2.9989  0.5751
  875MOL0     H18105   7.578   7.603   0.306  2.5917  0.4788 -1.3683
  875MOL0     H18106   7.442   7.530   0.203 -0.1983 -0.9346 -0.9726
  875MOL0     H18107   7.156   7.727   1.031 -0.2817 -2.7460 -2.8757
  875MOL0     H18108   7.249   7.934   1.133  0.7585  0.5983  1.5349
  875MOL0     H18109   7.497   8.142   1.388  2.1394 -2.2504 -2.9008
  875MOL0     H18110   7.563   8.346   1.502  1.5599 -0.3382  1.0064
  875MOL0     H18111   9.480   8.610   1.567  0.6004  0.0181 -1.3833
  875MOL0     H18112   9.712   8.585   1.505 -0.5007  2.0538  0.9338
  875MOL0     H18113  10.093   8.336   1.537 -2.1651  1.0867  1.3192
  875MOL0     H18114  10.334   8.332   1.485 -0.8062  0.9274 -0.5813
  875MOL0     H18115  10.466   8.493   1.405  1.4309 -0.0198 -1.8282
  875MOL0     H18116  10.636   8.535   1.453 -1.0162  0.2637  1.3274
  875MOL0     H18117  10.612   8.302   1.341  0.1767 -0.7674 -0.2507
  875MOL0     H18118  10.513   8.264   1.477 -2.3250  1.7798 -1.2515
  875MOL0     H18119  10.750   8.189   1.526  0.2860  0.3348 -0.9938
  875MOL0     H18120  10.699   8.313   1.640  2.3079 -0.7029 -0.4649
  875MOL0     H18121  10.850   8.420   1.411  1.1971 -1.6988 -0.5306
  875MOL0     H18122  10.931   8.295   1.481 -0.6667  0.5264  0.7380
  875MOL0     H18123  10.894   8.623   1.765 -2.7606  2.3577 -2.9059
  875MOL0     H18124  10.405   8.621   1.810  0.5214 -2.0898  1.3775
  875MOL0     H18125  10.167   8.595   1.875 -1.5124 -2.1459 -0.2383
  876MOL0     O18126   5.841   5.204   9.513 -0.3922  0.5079  0.1319
  876MOL0     C18127   5.816   5.092   9.463 -0.0436 -0.4079  0.6737
  876MOL0     O18128   5.896   5.032   9.373  0.0631 -0.4438 -0.2758
  876MOL0     C18129   6.021   5.090   9.350  0.3800 -1.9385 -0.5399
  876MOL0     C18130   6.049   5.158   9.232 -0.3117 -0.0542  0.3645
  876MOL0     C18131   6.156   5.244   9.218  0.1172  0.1155 -0.5151
  876MOL0     C18132   6.233   5.273   9.330  0.0567  0.2359  0.2280
  876MOL0     O18133   6.341   5.361   9.318  0.0935  0.1364 -0.0259
  876MOL0     C18134   6.375   5.459   9.417 -1.1282  0.0181  0.3565
  876MOL0     C18135   6.486   5.558   9.374 -0.2741 -0.4722  0.4375
  876MOL0     C18136   6.419   5.652   9.262  0.7650 -0.2185 -0.4042
  876MOL0     C18137   6.500   5.784   9.241  0.1498 -0.4143 -0.2195
  876MOL0     C18138   6.412   5.895   9.186 -0.8098 -0.6551  0.3238
  876MOL0     C18139   6.299   5.949   9.264  0.0994  0.8715 -0.2206
  876MOL0     C18140   6.335   5.992   9.410 -0.7249  0.5512  0.8810
  876MOL0     C18141   6.452   6.093   9.422 -0.1177  0.4902 -0.2672
  876MOL0     N18142   6.500   6.078   9.557 -0.6114 -0.0200 -0.2877
  876MOL0     C18143   6.426   6.131   9.660 -0.3738 -0.7636 -0.7928
  876MOL0     C18144   6.503   6.118   9.770  0.1282 -0.7956 -0.5786
  876MOL0     C18145   6.470   6.170   9.908  0.7797  0.2460 -0.6860
  876MOL0     C18146   6.600   6.182   9.991  0.1223 -0.0644  0.2583
  876MOL0     C18147   6.673   6.291   9.921 -0.5471 -0.8191 -0.8662
  876MOL0     C18148   6.788   6.333  10.009  0.0003 -0.0653 -0.5352
  876MOL0     O18149   6.824   6.466   9.961 -0.1655  0.8179 -0.5805
  876MOL0     C18150   6.763   6.568  10.032  0.5902 -0.7497  1.0946
  876MOL0     C18151   6.835   6.687  10.035  0.3186 -0.6248  0.0129
  876MOL0     C18152   6.776   6.805  10.089 -0.2391  0.0346  0.2004
  876MOL0     C18153   6.869   6.926  10.083 -0.3899 -0.2147  0.4077
  876MOL0     C18154   6.650   6.809  10.145  0.1144 -0.2527 -0.4951
  876MOL0     C18155   6.591   6.928  10.217  0.0870  0.0785 -1.7754
  876MOL0     O18156   6.536   6.897  10.338 -0.1460  0.2036  0.3001
  876MOL0     C18157   6.440   6.986  10.384  0.1013 -0.6431 -0.1123
  876MOL0     C18158   6.353   7.064  10.298 -0.0954 -0.1228 -0.5626
  876MOL0     C18159   6.251   7.141  10.353  0.0436 -0.1177 -1.2118
  876MOL0     C18160   6.246   7.161  10.494  0.6996 -0.5807  0.3059
  876MOL0     O18161   6.150   7.249  10.540  0.0445 -0.1303 -0.0165
  876MOL0     C18162   6.190   7.352  10.628 -0.4329 -0.2463 -0.0770
  876MOL0     C18163   6.082   7.460  10.640  1.2092  0.0246  0.7918
  876MOL0     C18164   6.085   7.526  10.790  0.6217  0.3103 -0.4010
  876MOL0     C18165   6.006   7.429  10.885  0.5064 -0.6793 -0.4349
  876MOL0     C18166   5.962   7.505  11.000 -0.0309  0.7970 -0.5830
  876MOL0     C18167   5.873   7.431  11.103 -0.3937 -0.4389 -0.5197
  876MOL0     C18168   5.752   7.352  11.052  0.3259 -0.2116  0.3190
  876MOL0     C18169   5.650   7.438  11.000  0.3463  0.3653  0.1980
  876MOL0    Cl18170   5.479   7.366  11.002 -0.0216 -0.0016  0.0476
  876MOL0     C18171   6.331   7.088  10.584  0.2915 -0.0037 -0.0475
  876MOL0     C18172   6.422   6.993  10.525 -0.1903 -0.3304 -0.1782
  876MOL0     O18173   6.593   7.042  10.166  0.3710  0.2656 -0.1333
  876MOL0     C18174   6.580   6.687  10.145 -0.0054 -0.4466  0.3235
  876MOL0     C18175   6.635   6.565  10.093 -1.1310 -1.1103  0.0868
  876MOL0     N18176   6.609   6.040   9.735 -0.1554  0.5843 -0.2299
  876MOL0     N18177   6.617   6.024   9.601 -1.0646  0.6501 -0.4564
  876MOL0     C18178   6.216   5.199   9.447 -0.1834 -0.2729  0.0947
  876MOL0     C18179   6.116   5.105   9.459 -0.1269  0.1110  0.6617
  876MOL0     C18180   5.684   5.038   9.485  0.1479 -0.8494  0.3278
  876MOL0     C18181   5.646   4.928   9.402 -0.6921  0.1239 -1.2951
  876MOL0     C18182   5.524   4.859   9.431 -0.2921  0.2006  0.0880
  876MOL0     C18183   5.435   4.917   9.518 -0.7820 -0.1357 -1.0337
  876MOL0     O18184   5.306   4.876   9.530  0.8075  0.6052  0.5205
  876MOL0     C18185   5.261   4.747   9.480  0.5776  0.3629  0.0454
  876MOL0     C18186   5.119   4.718   9.547  0.2912  0.1705  0.2872
  876MOL0     C18187   5.075   4.567   9.516 -0.1293  0.5851  0.0503
  876MOL0     C18188   4.933   4.533   9.567  0.5456 -0.0771  0.1724
  876MOL0     C18189   4.926   4.516   9.718  0.2968 -0.3457  0.3228
  876MOL0     C18190   4.927   4.510   9.843 -0.1320  0.1061 -0.8574
  876MOL0     C18191   5.469   5.022   9.599 -0.1727  0.1299 -0.2712
  876MOL0     C18192   5.593   5.092   9.579  0.3468  1.2394  0.3051
  876MOL0     H18193   5.980   5.148   9.150  3.1468 -0.1087 -2.8084
  876MOL0     H18194   6.174   5.272   9.115  1.8559  2.3760  0.3280
  876MOL0     H18195   6.288   5.512   9.456 -0.2073  1.3128  0.6917
  876MOL0     H18196   6.421   5.408   9.502  0.9041  2.1447  0.6274
  876MOL0     H18197   6.525   5.603   9.465 -1.0253 -1.5735  1.3378
  876MOL0     H18198   6.565   5.493   9.337 -2.0086 -3.7633  2.0170
  876MOL0     H18199   6.426   5.597   9.168 -2.4153 -0.2054 -0.7538
  876MOL0     H18200   6.313   5.669   9.282  1.2946  1.6546  1.0804
  876MOL0     H18201   6.542   5.795   9.341  0.7092 -1.1281 -0.3702
  876MOL0     H18202   6.586   5.776   9.173 -0.1586  1.1605 -0.8500
  876MOL0     H18203   6.476   5.981   9.164 -0.6247 -0.6368  0.9161
  876MOL0     H18204   6.371   5.859   9.091  2.4036 -1.7407 -0.8007
  876MOL0     H18205   6.258   6.035   9.212  0.0026  1.5586  0.9488
  876MOL0     H18206   6.213   5.881   9.268 -0.5144  1.6886  1.4298
  876MOL0     H18207   6.252   6.038   9.465  0.3965  4.1870 -0.1602
  876MOL0     H18208   6.361   5.899   9.461 -0.4198  0.6249  0.8588
  876MOL0     H18209   6.408   6.191   9.401 -3.0829 -1.5451 -5.6130
  876MOL0     H18210   6.533   6.077   9.350  1.7213  0.9604  1.6091
  876MOL0     H18211   6.329   6.178   9.666  0.3255  0.5943  0.5998
  876MOL0     H18212   6.434   6.271   9.886  3.0751  0.6845 -2.8689
  876MOL0     H18213   6.407   6.101   9.964  1.4636 -0.1616 -0.3986
  876MOL0     H18214   6.657   6.089   9.996 -0.1867 -0.3257 -0.7430
  876MOL0     H18215   6.573   6.198  10.096  0.2925  1.0733  0.1400
  876MOL0     H18216   6.608   6.377   9.898 -2.7554 -1.3604  2.5412
  876MOL0     H18217   6.711   6.255   9.825 -0.1922 -2.2407 -0.2053
  876MOL0     H18218   6.870   6.261  10.018  1.6078  1.9297  2.4802
  876MOL0     H18219   6.749   6.341  10.111 -0.1045  1.6862 -0.6956
  876MOL0     H18220   6.937   6.701   9.999 -0.3049  0.6828 -1.4101
  876MOL0     H18221   6.834   7.020  10.039 -1.2655 -0.3558  0.7800
  876MOL0     H18222   6.906   6.945  10.185  1.0993  0.7742 -0.2807
  876MOL0     H18223   6.961   6.921  10.024 -1.0133 -0.2307 -0.5816
  876MOL0     H18224   6.356   7.063  10.190  0.0943 -0.2618 -0.5568
  876MOL0     H18225   6.185   7.183  10.278 -0.3162 -1.0015 -1.3999
  876MOL0     H18226   6.220   7.309  10.724 -0.9598  1.7253  1.0282
  876MOL0     H18227   6.280   7.401  10.588 -0.3487 -0.0331  0.3635
  876MOL0     H18228   6.090   7.531  10.557  0.6324  1.7107  2.1217
  876MOL0     H18229   5.985   7.408  10.638  2.0421 -1.6108  1.5079
  876MOL0     H18230   6.040   7.625  10.782 -0.1753  0.3840  3.1167
  876MOL0     H18231   6.184   7.544  10.833 -0.0719  0.0663  1.3959
  876MOL0     H18232   5.911   7.405  10.835 -1.0517  1.6377  1.2328
  876MOL0     H18233   6.050   7.336  10.922 -3.1651 -2.2740  0.4540
  876MOL0     H18234   5.900   7.591  10.973 -1.4232  0.0740  0.2055
  876MOL0     H18235   6.054   7.542  11.047  1.5194 -1.2529 -1.8087
  876MOL0     H18236   5.932   7.356  11.156 -0.6588 -0.1152  0.2423
  876MOL0     H18237   5.840   7.492  11.187  3.3393  1.4187 -0.2005
  876MOL0     H18238   5.727   7.309  11.150 -0.5903  1.7832  1.0334
  876MOL0     H18239   5.772   7.267  10.987  0.9842  0.9763 -1.0953
  876MOL0     H18240   5.675   7.450  10.895 -0.3966  0.1385 -0.0101
  876MOL0     H18241   5.655   7.534  11.053 -1.9240  0.6236  0.0227
  876MOL0     H18242   6.331   7.096  10.693 -0.0898 -2.3758  0.1867
  876MOL0     H18243   6.473   6.924  10.592  1.5076 -0.5610 -1.6389
  876MOL0     H18244   6.479   6.687  10.184  0.3334 -4.2897  1.6554
  876MOL0     H18245   6.568   6.479  10.095  0.3006 -2.2543  2.0558
  876MOL0     H18246   6.296   5.196   9.521  1.2326 -0.1937 -1.3732
  876MOL0     H18247   6.100   5.050   9.552 -0.5434 -0.5887  0.1857
  876MOL0     H18248   5.711   4.896   9.321 -0.2329 -0.5354 -0.6754
  876MOL0     H18249   5.491   4.789   9.354 -1.2258  1.1911 -0.4536
  876MOL0     H18250   5.250   4.768   9.374  0.1264  0.3982  0.0970
  876MOL0     H18251   5.333   4.666   9.497  0.0507  0.5391  4.3901
  876MOL0     H18252   5.047   4.782   9.497  1.9109  0.6578 -1.5700
  876MOL0     H18253   5.107   4.733   9.654 -4.2787  1.4559 -0.2248
  876MOL0     H18254   5.148   4.509   9.572 -0.8362 -0.7708 -0.3906
  876MOL0     H18255   5.082   4.546   9.409  0.1509 -1.8559  0.5039
  876MOL0     H18256   4.887   4.439   9.535  0.9500 -1.2740  2.8668
  876MOL0     H18257   4.858   4.603   9.528  0.3028 -1.7215 -2.6400
  876MOL0     H18258   4.932   4.508   9.950  0.2380  0.1909 -0.8724
  876MOL0     H18259   5.395   5.051   9.673 -0.1717 -0.3653 -0.0724
  876MOL0     H18260   5.610   5.184   9.635 -2.9374  1.0670  1.8237
  877MOL0     O18261   8.425   6.062   0.863 -0.6071  0.0134  0.4056
  877MOL0     C18262   8.426   6.085   0.987 -0.2499 -0.3566 -0.3828
  877MOL0     O18263   8.538   6.077   1.068  0.6465 -0.1373  0.0766
  877MOL0     C18264   8.655   6.057   1.011 -0.0489 -0.7659  0.0787
  877MOL0     C18265   8.704   5.927   0.987  0.3123 -0.1050 -0.6733
  877MOL0     C18266   8.838   5.910   0.967 -0.8715  0.3119  1.3377
  877MOL0     C18267   8.923   6.017   0.929  0.3129  0.2732 -0.5236
  877MOL0     O18268   9.053   5.994   0.910 -0.3311 -0.3541  0.0658
  877MOL0     C18269   9.154   6.095   0.939 -0.6606  0.1873  0.0746
  877MOL0     C18270   9.294   6.038   0.928  0.6965  0.2853  0.3085
  877MOL0     C18271   9.311   5.928   1.036 -0.0517 -0.5677  0.8434
  877MOL0     C18272   9.436   5.849   1.035 -0.2658  0.4870  0.0175
  877MOL0     C18273   9.425   5.736   1.140  0.2911  0.1706 -0.3692
  877MOL0     C18274   9.389   5.766   1.283  0.5140 -0.2913 -0.1491
  877MOL0     C18275   9.434   5.667   1.389 -0.0098 -0.0006  0.7544
  877MOL0     C18276   9.374   5.529   1.368  1.1645 -0.5520  0.1915
  877MOL0     N18277   9.385   5.443   1.490 -0.1509 -0.1136  0.8492
  877MOL0     C18278   9.496   5.438   1.569 -0.5721 -1.1590  0.3249
  877MOL0     C18279   9.458   5.385   1.684 -0.5007  0.3129  0.0021
  877MOL0     C18280   9.547   5.340   1.799 -0.3687 -0.0469  0.5939
  877MOL0     C18281   9.668   5.247   1.759  0.3004 -0.3556  0.2334
  877MOL0     C18282   9.780   5.263   1.865 -0.5635 -0.0681  1.3985
  877MOL0     C18283   9.908   5.194   1.820 -0.9261 -0.6780  0.1921
  877MOL0     O18284   9.994   5.302   1.774  0.1386 -0.0760  0.5967
  877MOL0     C18285  10.112   5.274   1.708  0.4492 -0.6828  0.1165
  877MOL0     C18286  10.191   5.388   1.695 -0.1203  0.4028  0.0813
  877MOL0     C18287  10.313   5.379   1.628  1.0541  1.1233  0.0757
  877MOL0     C18288  10.389   5.508   1.612  0.0838 -0.4345  0.7324
  877MOL0     C18289  10.357   5.255   1.570 -0.2667  0.2748 -0.7216
  877MOL0     C18290  10.481   5.239   1.484  0.6258  0.0400  0.1005
  877MOL0     O18291  10.577   5.344   1.478  0.1694 -0.6191 -0.6085
  877MOL0     C18292  10.689   5.326   1.403 -0.8666 -0.6033  0.3611
  877MOL0     C18293  10.718   5.230   1.296  0.3054 -0.4936 -0.3115
  877MOL0     C18294  10.846   5.231   1.234 -0.3107 -0.6147 -0.4648
  877MOL0     C18295  10.951   5.311   1.279  0.0307  0.8694 -1.0975
  877MOL0     O18296  11.072   5.285   1.220 -0.0617  0.2282 -0.2554
  877MOL0     C18297  11.188   5.336   1.293 -0.1604 -0.7839 -0.0165
  877MOL0     C18298  11.307   5.293   1.213 -0.7308 -0.3672 -1.1509
  877MOL0     C18299  11.442   5.348   1.266 -0.2422  0.2910 -0.4131
  877MOL0     C18300  11.561   5.344   1.173 -0.0454 -0.9616 -0.1718
  877MOL0     C18301  11.698   5.373   1.237  0.1662  0.2098  0.0205
  877MOL0     C18302  11.757   5.270   1.333 -0.1328  0.4269  0.2421
  877MOL0     C18303  11.759   5.129   1.251  0.1655  0.2587 -0.1673
  877MOL0     C18304  11.866   5.031   1.312  0.4733  0.7902 -0.5070
  877MOL0    Cl18305  11.863   5.019   1.484 -0.4679  0.0764  0.2542
  877MOL0     C18306  10.927   5.404   1.375  0.6319  0.2612  0.3602
  877MOL0     C18307  10.797   5.418   1.427  0.4524 -0.1428 -0.9267
  877MOL0     O18308  10.499   5.124   1.437 -0.0590  0.1942 -0.1619
  877MOL0     C18309  10.282   5.143   1.598  0.7369  0.7483  0.2511
  877MOL0     C18310  10.163   5.156   1.679 -0.2180 -0.1966  1.1490
  877MOL0     N18311   9.326   5.355   1.670 -0.1711 -0.2008 -0.3564
  877MOL0     N18312   9.277   5.406   1.556 -0.5556 -0.6871  0.0617
  877MOL0     C18313   8.867   6.150   0.943  0.3100 -0.0558 -0.5093
  877MOL0     C18314   8.729   6.168   0.979  0.5973 -0.1320 -0.2962
  877MOL0     C18315   8.299   6.119   1.052 -0.8689 -0.1038  0.3723
  877MOL0     C18316   8.281   6.116   1.182 -0.6321  0.3565 -0.6312
  877MOL0     C18317   8.158   6.160   1.237 -0.3420 -0.2787  0.2970
  877MOL0     C18318   8.052   6.197   1.153 -0.5839  0.6260  1.0881
  877MOL0     O18319   7.937   6.224   1.219  0.4509 -1.2174  0.1756
  877MOL0     C18320   7.868   6.341   1.163 -0.2582  0.2053 -0.0745
  877MOL0     C18321   7.753   6.397   1.242  0.5779  0.1707 -0.7762
  877MOL0     C18322   7.609   6.390   1.185  1.1451 -0.1961 -0.2535
  877MOL0     C18323   7.501   6.448   1.284 -0.3590  0.0177  0.6832
  877MOL0     C18324   7.363   6.440   1.238  0.1574 -0.0744  0.3159
  877MOL0     C18325   7.242   6.443   1.216 -0.1590  0.3810 -0.7078
  877MOL0     C18326   8.070   6.184   1.018  0.7582 -1.4472 -0.3383
  877MOL0     C18327   8.192   6.146   0.969  0.0993  0.2303 -0.4498
  877MOL0     H18328   8.626   5.852   0.997  1.1294 -0.7460  1.9584
  877MOL0     H18329   8.879   5.810   0.977 -0.9017  0.3836  2.2962
  877MOL0     H18330   9.146   6.172   0.861  1.2454 -0.7054 -1.0863
  877MOL0     H18331   9.145   6.127   1.043  1.4452 -3.0429  1.4022
  877MOL0     H18332   9.312   6.007   0.825  0.3192 -3.6290  1.2936
  877MOL0     H18333   9.364   6.119   0.951  0.2088  1.5345 -2.2138
  877MOL0     H18334   9.330   5.979   1.131 -0.2392  0.6887  0.2321
  877MOL0     H18335   9.222   5.866   1.047  0.0311 -0.9832 -0.5687
  877MOL0     H18336   9.450   5.802   0.937 -2.9562  1.8671 -1.1294
  877MOL0     H18337   9.517   5.916   1.067 -1.4687  1.6983  0.6123
  877MOL0     H18338   9.353   5.663   1.101  2.2163 -0.4413 -3.0841
  877MOL0     H18339   9.522   5.687   1.152  0.4142  0.4224 -0.3261
  877MOL0     H18340   9.442   5.857   1.313 -2.0396  2.2062 -2.5152
  877MOL0     H18341   9.281   5.783   1.290  0.0198 -3.5941  1.9547
  877MOL0     H18342   9.543   5.655   1.389 -0.2014 -2.3033  0.3597
  877MOL0     H18343   9.404   5.705   1.487 -1.1169 -0.3248  0.5575
  877MOL0     H18344   9.417   5.479   1.281 -0.6947  3.7021 -3.5871
  877MOL0     H18345   9.266   5.537   1.351  1.2481  1.1615  0.3024
  877MOL0     H18346   9.596   5.469   1.540 -1.6415  1.5328 -0.8300
  877MOL0     H18347   9.577   5.430   1.852 -0.3838  0.4923 -0.3028
  877MOL0     H18348   9.479   5.276   1.856 -1.7205  0.2297 -0.6249
  877MOL0     H18349   9.707   5.281   1.662 -0.0581 -0.2398  0.1265
  877MOL0     H18350   9.639   5.142   1.746 -2.6238  0.0003  2.8117
  877MOL0     H18351   9.751   5.219   1.961  3.4045 -2.7091  1.6215
  877MOL0     H18352   9.805   5.367   1.884 -1.2627  0.3003  0.3634
  877MOL0     H18353   9.900   5.125   1.736  0.9209 -1.2425  0.4368
  877MOL0     H18354   9.958   5.141   1.902  1.7890  2.2333  0.6148
  877MOL0     H18355  10.149   5.484   1.723  3.8262  1.3771  3.5372
  877MOL0     H18356  10.392   5.533   1.506  2.4173  1.1661  1.0844
  877MOL0     H18357  10.356   5.597   1.668  2.9162  1.9311 -1.0802
  877MOL0     H18358  10.494   5.494   1.638  0.2138 -0.1208  0.3832
  877MOL0     H18359  10.634   5.171   1.262 -2.7136  1.7674  2.5708
  877MOL0     H18360  10.855   5.153   1.158 -2.0945 -0.4659 -0.8738
  877MOL0     H18361  11.177   5.445   1.296  2.0005 -0.5307  3.2893
  877MOL0     H18362  11.184   5.304   1.397  1.6852 -3.3046 -0.6358
  877MOL0     H18363  11.325   5.186   1.194  1.3963 -0.3245  0.2856
  877MOL0     H18364  11.277   5.325   1.113 -2.6853 -1.3142 -0.9225
  877MOL0     H18365  11.474   5.299   1.359 -0.0698  4.2456  1.8321
  877MOL0     H18366  11.421   5.451   1.294  2.6614  0.9851 -0.4196
  877MOL0     H18367  11.553   5.243   1.131 -1.3108 -0.7541 -0.4781
  877MOL0     H18368  11.531   5.417   1.097  0.9701  0.3943  0.6889
  877MOL0     H18369  11.699   5.474   1.279  0.4159 -0.2955  1.2858
  877MOL0     H18370  11.774   5.378   1.158  2.7474  0.3017  2.3567
  877MOL0     H18371  11.860   5.293   1.361 -0.7194  1.3319  1.7438
  877MOL0     H18372  11.695   5.272   1.423  1.2414  0.7832  1.2145
  877MOL0     H18373  11.783   5.146   1.146  1.0570  3.5694  0.4522
  877MOL0     H18374  11.658   5.088   1.258 -0.5508  2.0308  0.5882
  877MOL0     H18375  11.964   5.059   1.272  0.2968  2.1820 -0.0151
  877MOL0     H18376  11.843   4.928   1.283 -0.0642  0.1183  2.0622
  877MOL0     H18377  10.993   5.474   1.427 -1.4233  0.6448  2.6126
  877MOL0     H18378  10.786   5.488   1.509 -2.5018 -0.6118 -0.8023
  877MOL0     H18379  10.316   5.051   1.551  1.6053  1.6289 -0.9145
  877MOL0     H18380  10.109   5.063   1.692  0.6086 -0.8331  0.2100
  877MOL0     H18381   8.928   6.234   0.911  2.3732 -0.9774  0.8380
  877MOL0     H18382   8.688   6.269   0.980 -1.5449 -0.9499 -0.5972
  877MOL0     H18383   8.365   6.083   1.243  0.3062 -0.3093 -2.2142
  877MOL0     H18384   8.140   6.166   1.344 -0.4064  2.7210  0.2083
  877MOL0     H18385   7.949   6.413   1.171 -0.4419  0.1916  3.2100
  877MOL0     H18386   7.828   6.325   1.062  0.3281 -1.8791 -0.0283
  877MOL0     H18387   7.781   6.503   1.238 -1.5813  0.7767 -0.8284
  877MOL0     H18388   7.750   6.362   1.345  0.2651  3.5968  0.5183
  877MOL0     H18389   7.586   6.285   1.168  1.7389 -0.4149  0.2340
  877MOL0     H18390   7.598   6.447   1.092 -5.4361 -2.4643 -1.3823
  877MOL0     H18391   7.520   6.554   1.303  1.3914  0.4185 -2.6870
  877MOL0     H18392   7.501   6.403   1.384 -2.0294 -0.2868  0.5718
  877MOL0     H18393   7.135   6.440   1.209 -0.2826 -0.5881  1.1174
  877MOL0     H18394   7.988   6.206   0.951 -1.2012  1.5559  2.6720
  877MOL0     H18395   8.190   6.136   0.861  1.6810  2.2362 -0.7120
  878MOL0     O18396  10.441   0.684   1.186 -0.3697 -0.4713 -1.3961
  878MOL0     C18397  10.504   0.585   1.151  0.9171 -0.6748 -0.2697
  878MOL0     O18398  10.469   0.455   1.179  0.7147 -0.3609 -0.0842
  878MOL0     C18399  10.339   0.422   1.227  0.4819  0.0305  0.5475
  878MOL0     C18400  10.319   0.304   1.303 -0.5430 -0.2725 -0.0900
  878MOL0     C18401  10.200   0.265   1.367  0.2931 -0.2794  0.3307
  878MOL0     C18402  10.093   0.357   1.364 -0.7747 -0.1474  0.3553
  878MOL0     O18403   9.964   0.324   1.409 -0.1107  0.1536 -0.1650
  878MOL0     C18404   9.940   0.259   1.543  0.2250  0.3539 -0.0930
  878MOL0     C18405   9.798   0.214   1.548 -1.1143 -0.1338  0.0065
  878MOL0     C18406   9.778   0.169   1.697 -0.8501  0.1514  1.2926
  878MOL0     C18407   9.622   0.147   1.733 -1.7098 -0.3029 -0.3471
  878MOL0     C18408   9.615   0.061   1.860  0.0697 -0.0660 -0.3035
  878MOL0     C18409   9.629   0.148   1.991 -0.5282 -0.0375  0.6133
  878MOL0     C18410   9.611   0.061   2.112 -0.0833 -0.3227  0.6099
  878MOL0     C18411   9.634   0.138   2.236 -0.0400 -0.2850  0.3336
  878MOL0     N18412   9.533   0.245   2.269 -0.5133  0.2676 -0.2759
  878MOL0     C18413   9.418   0.233   2.335 -0.7705 -0.2817  0.5773
  878MOL0     C18414   9.353   0.357   2.330 -0.1089 -0.2159  0.7159
  878MOL0     C18415   9.229   0.400   2.398 -0.7494  0.0365 -0.8217
  878MOL0     C18416   9.266   0.462   2.535  0.1171  0.9650  0.2050
  878MOL0     C18417   9.330   0.601   2.528  0.2084  0.3735  0.3506
  878MOL0     C18418   9.359   0.660   2.665  0.1089  0.5267  0.1163
  878MOL0     O18419   9.399   0.553   2.758 -0.1309 -0.3464  0.3861
  878MOL0     C18420   9.377   0.562   2.892  0.4475  0.4677  0.0293
  878MOL0     C18421   9.445   0.480   2.984 -0.4353  0.2574  0.0225
  878MOL0     C18422   9.420   0.483   3.128  0.3262  0.2169  0.7379
  878MOL0     C18423   9.489   0.374   3.210  0.4071  0.2178  0.4358
  878MOL0     C18424   9.315   0.570   3.172  0.5161  0.0654 -0.0547
  878MOL0     C18425   9.293   0.592   3.318 -0.0753  0.2926  0.4913
  878MOL0     O18426   9.162   0.576   3.355  0.4026  0.4163  0.1408
  878MOL0     C18427   9.146   0.578   3.494 -0.6984  0.0351 -0.5765
  878MOL0     C18428   9.184   0.472   3.577  0.2473 -1.1014  0.7026
  878MOL0     C18429   9.160   0.476   3.712 -0.8543 -0.0066 -0.9782
  878MOL0     C18430   9.102   0.592   3.769 -0.4752 -0.4864  0.5733
  878MOL0     O18431   9.100   0.595   3.906  0.5274  0.8634 -0.3353
  878MOL0     C18432   9.056   0.714   3.966 -0.7067 -0.1522  0.4699
  878MOL0     C18433   8.905   0.719   3.962  0.1025  0.6700  0.9781
  878MOL0     C18434   8.853   0.856   3.986  0.2729 -0.4651 -0.8431
  878MOL0     C18435   8.750   0.851   4.095 -0.0236  0.2361  0.3157
  878MOL0     C18436   8.798   0.854   4.242 -1.3920 -0.5281 -0.0081
  878MOL0     C18437   8.675   0.865   4.337  0.7286  0.3915 -0.1377
  878MOL0     C18438   8.703   0.819   4.482  0.7222  0.5400 -0.0417
  878MOL0     C18439   8.607   0.719   4.528  0.1465 -0.6780  0.4520
  878MOL0    Cl18440   8.441   0.770   4.514 -0.2242  0.5928  0.1661
  878MOL0     C18441   9.073   0.706   3.679 -0.2322  0.4814 -0.3172
  878MOL0     C18442   9.087   0.685   3.539 -0.6447 -0.2231  0.0133
  878MOL0     O18443   9.384   0.645   3.386  0.0173  0.2517 -0.1738
  878MOL0     C18444   9.241   0.633   3.072  0.1973  0.3832  0.2238
  878MOL0     C18445   9.276   0.628   2.935  1.3288  0.4038 -0.2705
  878MOL0     N18446   9.431   0.437   2.247 -0.1849 -0.6122  0.2825
  878MOL0     N18447   9.539   0.377   2.232  0.4546  0.2515 -0.3771
  878MOL0     C18448  10.102   0.480   1.297  0.0388 -0.0719  0.0935
  878MOL0     C18449  10.227   0.516   1.233  0.1103  0.4669 -1.9614
  878MOL0     C18450  10.631   0.597   1.069 -0.6231 -0.3940  0.7465
  878MOL0     C18451  10.689   0.728   1.065  0.8104  0.2898  1.0111
  878MOL0     C18452  10.807   0.746   0.996  0.3647 -0.0016  0.1349
  878MOL0     C18453  10.876   0.646   0.947  0.1954 -0.4187 -0.7964
  878MOL0     O18454  10.995   0.664   0.878 -0.0683 -0.2543 -0.3685
  878MOL0     C18455  11.108   0.602   0.946 -0.3787 -0.9579 -0.1197
  878MOL0     C18456  11.239   0.639   0.869  0.1845  0.0974 -0.2144
  878MOL0     C18457  11.364   0.574   0.923 -0.0563 -0.7252 -0.3729
  878MOL0     C18458  11.493   0.624   0.842  0.0470  0.4067 -0.1173
  878MOL0     C18459  11.615   0.567   0.904  0.4756  1.1024  0.4980
  878MOL0     C18460  11.729   0.535   0.931  0.9301 -0.8435 -0.2675
  878MOL0     C18461  10.826   0.517   0.945  0.0554 -0.0478  0.1559
  878MOL0     C18462  10.700   0.491   1.000  0.1963 -1.8892 -0.4481
  878MOL0     H18463  10.406   0.239   1.309 -1.0945 -0.9976  0.1534
  878MOL0     H18464  10.190   0.172   1.421 -0.7559 -0.3859 -0.0223
  878MOL0     H18465  10.018   0.188   1.575  0.2692  2.0927  4.4246
  878MOL0     H18466   9.948   0.334   1.622 -0.8549  2.1592 -1.6017
  878MOL0     H18467   9.723   0.291   1.528  0.6702  0.9265 -3.2511
  878MOL0     H18468   9.780   0.133   1.477 -1.3988 -1.3572  1.4081
  878MOL0     H18469   9.836   0.077   1.710  1.5059  1.3754 -0.0539
  878MOL0     H18470   9.821   0.238   1.769  1.2133  0.9461 -0.6020
  878MOL0     H18471   9.573   0.243   1.744 -5.3454 -1.8978 -1.1665
  878MOL0     H18472   9.581   0.100   1.643 -0.7281  0.3468 -1.1473
  878MOL0     H18473   9.520   0.006   1.863  0.4183 -1.3592 -5.2925
  878MOL0     H18474   9.698  -0.010   1.854  2.4484  1.8654  4.4220
  878MOL0     H18475   9.720   0.209   1.992 -0.9799  0.7624  4.1725
  878MOL0     H18476   9.549   0.222   1.987 -1.4674 -0.9808  1.2518
  878MOL0     H18477   9.516   0.014   2.138 -0.0643  0.0171  1.2966
  878MOL0     H18478   9.686  -0.019   2.113  0.3888  0.0291  3.4541
  878MOL0     H18479   9.732   0.184   2.226  1.0578 -2.9320 -3.4247
  878MOL0     H18480   9.640   0.075   2.325  1.2425  1.5970  1.6424
  878MOL0     H18481   9.390   0.145   2.393 -1.5216 -1.1150 -0.9540
  878MOL0     H18482   9.167   0.470   2.341 -3.8684  0.8035  3.0388
  878MOL0     H18483   9.165   0.314   2.419 -0.7389  0.8565  3.4377
  878MOL0     H18484   9.330   0.390   2.586  0.8917 -0.3410 -2.4473
  878MOL0     H18485   9.172   0.476   2.589 -1.0355  2.8014 -2.0758
  878MOL0     H18486   9.277   0.671   2.463 -0.5749  0.3733  0.9848
  878MOL0     H18487   9.427   0.584   2.480 -0.1153 -0.4364 -0.0282
  878MOL0     H18488   9.269   0.715   2.695 -0.0303  0.5833 -0.3905
  878MOL0     H18489   9.446   0.726   2.656  1.5328 -1.5206 -2.6290
  878MOL0     H18490   9.523   0.411   2.954 -0.5728 -1.8733  3.8343
  878MOL0     H18491   9.518   0.295   3.141 -0.8213 -1.4124  1.7010
  878MOL0     H18492   9.581   0.410   3.258 -0.5001  0.2820  2.1954
  878MOL0     H18493   9.436   0.332   3.295  0.0913 -2.4350 -0.9849
  878MOL0     H18494   9.236   0.389   3.530  1.2778  0.5174 -1.1962
  878MOL0     H18495   9.199   0.394   3.771 -3.1190 -3.6254 -4.0255
  878MOL0     H18496   9.081   0.718   4.072  1.3606  0.9237 -0.0023
  878MOL0     H18497   9.102   0.802   3.919  2.2598 -1.3370  0.9231
  878MOL0     H18498   8.862   0.685   3.867 -1.3139  1.0924  1.4494
  878MOL0     H18499   8.873   0.659   4.047  1.6651 -1.4318  0.1775
  878MOL0     H18500   8.809   0.890   3.891  1.4945  0.3091 -1.1557
  878MOL0     H18501   8.938   0.920   4.014 -0.7655  0.5776  0.0115
  878MOL0     H18502   8.691   0.942   4.097  1.9542  1.5755  1.1793
  878MOL0     H18503   8.690   0.761   4.077 -0.7520  0.9648 -0.9859
  878MOL0     H18504   8.863   0.941   4.255 -2.5619  0.6153 -1.4562
  878MOL0     H18505   8.861   0.768   4.269 -2.1259 -2.1027 -2.8272
  878MOL0     H18506   8.637   0.968   4.336  0.9376  0.5929  2.7567
  878MOL0     H18507   8.594   0.810   4.288  0.2613  1.6320 -0.7895
  878MOL0     H18508   8.687   0.906   4.546  0.3795 -0.0516  0.7060
  878MOL0     H18509   8.805   0.782   4.498  0.5936 -0.1053 -0.6600
  878MOL0     H18510   8.623   0.696   4.634 -1.0517  1.0616  1.0583
  878MOL0     H18511   8.629   0.625   4.476 -0.2087 -0.6870  0.3210
  878MOL0     H18512   9.045   0.802   3.720 -0.9741 -0.3043  1.0709
  878MOL0     H18513   9.051   0.768   3.478  1.0013 -1.1018 -2.3323
  878MOL0     H18514   9.154   0.690   3.104  0.7517  1.4404 -0.1080
  878MOL0     H18515   9.210   0.682   2.868 -1.2992  2.5170  3.7060
  878MOL0     H18516  10.014   0.541   1.277  0.0127  0.2469  1.1293
  878MOL0     H18517  10.226   0.610   1.178  0.2687  1.7964  0.1758
  878MOL0     H18518  10.642   0.808   1.120  0.1497 -1.2378  2.7886
  878MOL0     H18519  10.850   0.845   0.986  1.3225 -0.1880  2.0058
  878MOL0     H18520  11.112   0.635   1.050  0.7532 -0.5871 -0.2708
  878MOL0     H18521  11.106   0.494   0.961  2.5770 -0.8767  1.6554
  878MOL0     H18522  11.244   0.747   0.888 -0.5690  0.3207 -1.1888
  878MOL0     H18523  11.226   0.608   0.765 -1.8306 -0.5695  0.1857
  878MOL0     H18524  11.352   0.468   0.899 -0.4674 -0.9494  0.7734
  878MOL0     H18525  11.365   0.584   1.032 -1.9948 -3.7204  0.0543
  878MOL0     H18526  11.488   0.733   0.833 -0.8373  0.5241  1.4246
  878MOL0     H18527  11.485   0.583   0.741  0.6203  3.1328 -1.3459
  878MOL0     H18528  11.828   0.500   0.953  0.8372 -0.1543  1.3624
  878MOL0     H18529  10.891   0.441   0.902 -2.1306 -2.9845  1.6586
  878MOL0     H18530  10.655   0.392   0.992 -0.4147 -1.5775 -0.9603
  879MOL0     O18531   5.503   9.814   3.345 -0.4316  0.1194  0.5133
  879MOL0     C18532   5.408   9.745   3.386  0.6292 -1.0716  0.6476
  879MOL0     O18533   5.373   9.724   3.518  0.0343 -0.2568 -0.0628
  879MOL0     C18534   5.437   9.805   3.611  0.1112  0.4263 -0.1814
  879MOL0     C18535   5.428   9.946   3.612  0.6659  0.7650  0.7544
  879MOL0     C18536   5.483  10.027   3.714  0.6178  0.1897  0.0397
  879MOL0     C18537   5.548   9.973   3.816 -1.4776 -0.4974  0.0061
  879MOL0     O18538   5.619  10.054   3.905  0.7438  0.3094 -0.6788
  879MOL0     C18539   5.715  10.136   3.833  0.2344 -0.0217 -0.0332
  879MOL0     C18540   5.782  10.233   3.927 -0.0661 -0.8068  0.8228
  879MOL0     C18541   5.684  10.327   4.006 -0.3885  0.2738 -0.3902
  879MOL0     C18542   5.607  10.407   3.903 -0.3715 -0.3896 -0.3033
  879MOL0     C18543   5.558  10.542   3.965 -0.3411  0.0805  0.8367
  879MOL0     C18544   5.455  10.523   4.066  0.1389 -0.0428 -0.7216
  879MOL0     C18545   5.399  10.657   4.121  0.5359 -0.4056 -0.5065
  879MOL0     C18546   5.319  10.731   4.020  0.1360 -0.5056  0.6000
  879MOL0     N18547   5.304  10.879   4.038 -0.3844  0.0253  0.0555
  879MOL0     C18548   5.300  10.938   4.162  0.7463  0.6926 -0.3144
  879MOL0     C18549   5.279  11.068   4.131  0.1395  0.8046  0.3157
  879MOL0     C18550   5.257  11.175   4.228  0.0046 -0.7143 -0.8858
  879MOL0     C18551   5.158  11.127   4.337  0.3073  0.1222 -0.2891
  879MOL0     C18552   5.125  11.237   4.434  0.1017  0.1036  0.6182
  879MOL0     C18553   5.043  11.195   4.549 -1.0519 -0.1897 -0.3027
  879MOL0     O18554   4.965  11.307   4.589  0.7596  0.6164 -0.0519
  879MOL0     C18555   4.987  11.365   4.714 -0.5013 -0.1902  0.5358
  879MOL0     C18556   5.098  11.348   4.784 -0.3283  0.6182 -0.3691
  879MOL0     C18557   5.109  11.411   4.904 -0.5449 -0.2575 -0.0285
  879MOL0     C18558   5.236  11.367   4.976 -1.0091 -0.4739  0.1209
  879MOL0     C18559   5.024  11.504   4.957  1.0587  0.1982 -0.3014
  879MOL0     C18560   5.046  11.592   5.071  0.1142  1.0583  0.0641
  879MOL0     O18561   4.932  11.617   5.129 -0.8117  0.7571  0.3331
  879MOL0     C18562   4.921  11.699   5.236  0.3756 -0.4418 -1.1224
  879MOL0     C18563   4.953  11.834   5.240  0.4717 -0.7622  0.2455
  879MOL0     C18564   4.937  11.905   5.362 -0.9990  0.1977  0.1007
  879MOL0     C18565   4.894  11.838   5.482 -0.1203 -0.0280  0.6019
  879MOL0     O18566   4.881  11.898   5.601 -0.3548 -0.8278 -0.4410
  879MOL0     C18567   4.965  12.016   5.615  0.0275 -0.7774  1.0654
  879MOL0     C18568   4.966  12.065   5.752  0.3979 -1.0460  0.1277
  879MOL0     C18569   4.842  12.162   5.783  0.7599  0.9979  0.4446
  879MOL0     C18570   4.833  12.186   5.941  0.6147  0.6281  0.2793
  879MOL0     C18571   4.719  12.277   5.987 -0.2896 -0.6511 -0.2932
  879MOL0     C18572   4.735  12.286   6.144 -0.1967  0.7633 -0.0418
  879MOL0     C18573   4.601  12.334   6.214 -0.5672  0.4098  0.1583
  879MOL0     C18574   4.603  12.374   6.366 -0.2373 -0.6592 -0.3843
  879MOL0    Cl18575   4.688  12.521   6.371  0.2381 -0.0820  0.1842
  879MOL0     C18576   4.857  11.701   5.473  0.5936 -0.0715 -0.3365
  879MOL0     C18577   4.874  11.641   5.350 -0.3808  1.2801 -0.2850
  879MOL0     O18578   5.161  11.634   5.103  0.4359 -0.9150  0.4071
  879MOL0     C18579   4.908  11.523   4.881 -0.0812  0.6135  0.9438
  879MOL0     C18580   4.888  11.448   4.763 -0.8243 -0.6166  0.0964
  879MOL0     N18581   5.300  11.086   3.993 -1.0858  0.0186  0.1215
  879MOL0     N18582   5.312  10.972   3.937 -0.8100  0.5485 -0.6562
  879MOL0     C18583   5.564   9.836   3.823  0.9555 -0.3030  0.0262
  879MOL0     C18584   5.505   9.750   3.720 -1.4710 -0.2073 -0.4731
  879MOL0     C18585   5.328   9.684   3.290 -0.5635 -0.4089  1.4333
  879MOL0     C18586   5.343   9.710   3.152 -0.0988 -0.5235  0.0315
  879MOL0     C18587   5.258   9.644   3.065  0.3891 -0.5597 -0.0544
  879MOL0     C18588   5.156   9.561   3.107 -0.4518  0.0210  0.5684
  879MOL0     O18589   5.060   9.494   3.032 -0.4866 -0.2096 -0.1257
  879MOL0     C18590   5.082   9.456   2.900 -0.0224  1.7191 -0.0736
  879MOL0     C18591   5.170   9.325   2.891 -0.0313  0.3349  1.1380
  879MOL0     C18592   5.325   9.347   2.877 -0.3058  1.2261  0.2865
  879MOL0     C18593   5.409   9.221   2.845  0.2965  0.0314  0.9031
  879MOL0     C18594   5.388   9.129   2.959 -0.2455  0.2373  0.3213
  879MOL0     C18595   5.373   9.065   3.054  0.3974 -0.5553 -0.8087
  879MOL0     C18596   5.127   9.550   3.243  0.0630 -0.5090  0.6132
  879MOL0     C18597   5.216   9.596   3.328  0.4021 -1.1028  0.3421
  879MOL0     H18598   5.352   9.986   3.545  1.9866  1.6624 -0.2856
  879MOL0     H18599   5.471  10.135   3.712 -0.7041  0.0703  0.7385
  879MOL0     H18600   5.782  10.065   3.784  1.5147  0.8143  0.4579
  879MOL0     H18601   5.668  10.187   3.749  1.7156  0.2116 -0.7526
  879MOL0     H18602   5.837  10.179   4.005  1.4445  0.1803  0.4894
  879MOL0     H18603   5.853  10.303   3.882 -0.0320 -0.4740  1.3757
  879MOL0     H18604   5.613  10.262   4.058 -1.3053  1.0670 -0.6230
  879MOL0     H18605   5.727  10.394   4.081 -2.3281  0.1839  0.8967
  879MOL0     H18606   5.681  10.425   3.825  2.1157  1.8414  2.3212
  879MOL0     H18607   5.519  10.356   3.863  0.6851  0.1862 -3.6710
  879MOL0     H18608   5.643  10.593   4.012  0.7305 -1.6012  0.8080
  879MOL0     H18609   5.541  10.616   3.886  2.4140 -1.0882 -1.0282
  879MOL0     H18610   5.369  10.471   4.023 -0.3366 -0.0714  0.2418
  879MOL0     H18611   5.500  10.463   4.147 -0.8227 -2.6151 -1.9681
  879MOL0     H18612   5.342  10.626   4.209  2.6558  0.1939  1.1786
  879MOL0     H18613   5.478  10.716   4.168 -0.1057 -0.7356  1.0775
  879MOL0     H18614   5.218  10.689   4.032 -0.4946  1.4117  2.7636
  879MOL0     H18615   5.356  10.713   3.919 -0.4157 -2.5373  0.6996
  879MOL0     H18616   5.303  10.890   4.259  1.3118  1.2304 -0.0618
  879MOL0     H18617   5.357  11.203   4.264 -1.3522  1.3799  1.5726
  879MOL0     H18618   5.220  11.267   4.181  1.4278  2.2216  3.1188
  879MOL0     H18619   5.209  11.052   4.398  0.3475  0.2897 -0.1132
  879MOL0     H18620   5.064  11.080   4.308 -1.1490  0.5958  3.1516
  879MOL0     H18621   5.084  11.328   4.389  1.7956  1.6118  1.9530
  879MOL0     H18622   5.223  11.259   4.478 -0.1012 -3.8690  3.5374
  879MOL0     H18623   5.104  11.161   4.633 -0.0964  1.1532 -0.4297
  879MOL0     H18624   4.968  11.117   4.531  1.1838 -2.6694  0.4979
  879MOL0     H18625   5.175  11.290   4.734  1.1995  1.5008  0.8694
  879MOL0     H18626   5.241  11.260   4.956 -2.2950 -0.3182 -1.1776
  879MOL0     H18627   5.324  11.423   4.943 -1.5133  0.3554  0.1551
  879MOL0     H18628   5.230  11.377   5.085 -2.0398 -1.1910  0.1383
  879MOL0     H18629   4.992  11.881   5.150 -0.3483 -2.2933 -0.9515
  879MOL0     H18630   4.961  12.010   5.356  3.3326 -0.5556  0.5297
  879MOL0     H18631   5.071  12.003   5.593 -0.0868 -1.2955  0.8079
  879MOL0     H18632   4.932  12.100   5.553 -1.6686 -3.2372 -1.5929
  879MOL0     H18633   4.961  11.978   5.817  0.5368 -1.9309 -1.0193
  879MOL0     H18634   5.060  12.121   5.763  0.7796 -1.1086 -2.3328
  879MOL0     H18635   4.750  12.114   5.750  0.9259  0.8966  0.1228
  879MOL0     H18636   4.842  12.259   5.732 -0.2223 -0.2915 -2.1646
  879MOL0     H18637   4.817  12.091   5.993  3.0272  0.9887  1.8819
  879MOL0     H18638   4.926  12.231   5.979 -0.8330  0.9860  3.8804
  879MOL0     H18639   4.637  12.211   5.957  0.3778 -1.1029 -1.1710
  879MOL0     H18640   4.711  12.371   5.931 -0.9690  0.6733  1.9199
  879MOL0     H18641   4.760  12.185   6.178  1.8350 -0.0856 -3.5717
  879MOL0     H18642   4.815  12.358   6.165 -0.0284  0.2933  1.0071
  879MOL0     H18643   4.540  12.248   6.186  2.2068 -0.5363 -3.7716
  879MOL0     H18644   4.555  12.422   6.167 -0.7268  0.5344  0.5416
  879MOL0     H18645   4.645  12.293   6.426  0.8248 -0.0527 -0.2711
  879MOL0     H18646   4.502  12.391   6.404  0.3837  0.5978  0.8051
  879MOL0     H18647   4.821  11.641   5.556  0.5214  0.2550 -0.1316
  879MOL0     H18648   4.849  11.536   5.342 -1.8383  1.5643  0.2836
  879MOL0     H18649   4.839  11.604   4.901  1.4894  1.6948  2.2619
  879MOL0     H18650   4.794  11.460   4.709  0.1604  0.8535 -1.3692
  879MOL0     H18651   5.617   9.789   3.905  1.6766 -2.2513 -1.4760
  879MOL0     H18652   5.516   9.643   3.737 -0.4083  0.1276  1.1148
  879MOL0     H18653   5.425   9.757   3.100 -0.4932 -0.1611 -0.2674
  879MOL0     H18654   5.280   9.661   2.960 -1.4316  0.5822 -0.2900
  879MOL0     H18655   4.986   9.418   2.862  0.7976  0.2564 -0.7512
  879MOL0     H18656   5.094   9.543   2.836  0.1443  2.1401  0.5249
  879MOL0     H18657   5.148   9.279   2.794  1.3968  1.5423  0.1825
  879MOL0     H18658   5.139   9.252   2.966  2.2312  0.6927  2.5122
  879MOL0     H18659   5.352   9.401   2.967 -0.3754  4.2461 -1.3842
  879MOL0     H18660   5.342   9.416   2.794 -0.7457  0.0950 -0.7829
  879MOL0     H18661   5.514   9.249   2.836 -0.5766  2.8787 -3.1956
  879MOL0     H18662   5.377   9.176   2.750 -0.5574 -1.3195  1.7883
  879MOL0     H18663   5.367   9.021   3.152  4.1078 -1.4911 -0.8615
  879MOL0     H18664   5.049   9.485   3.280 -3.1543  1.8717 -1.4116
  879MOL0     H18665   5.210   9.559   3.430  2.3641 -2.5401  0.0037
  880MOL0     O18666   1.788   9.289   2.180  0.5105 -0.2348  0.4502
  880MOL0     C18667   1.856   9.332   2.087 -0.6740 -0.0677  1.0561
  880MOL0     O18668   1.816   9.420   1.991  0.6250  0.0597 -0.3040
  880MOL0     C18669   1.684   9.460   2.008 -0.1016  0.3333 -0.0632
  880MOL0     C18670   1.562   9.389   1.986 -0.2978  0.3915  0.1037
  880MOL0     C18671   1.436   9.443   1.976 -0.0140  0.6698 -0.6466
  880MOL0     C18672   1.415   9.580   1.981 -0.9785  0.0917 -1.1547
  880MOL0     O18673   1.290   9.633   1.967  0.7474  1.3406  0.1031
  880MOL0     C18674   1.239   9.730   2.066 -0.2438  0.4569  0.8809
  880MOL0     C18675   1.190   9.665   2.197  0.6571 -0.5211  0.2838
  880MOL0     C18676   1.071   9.573   2.172  0.0423  0.9723 -0.3858
  880MOL0     C18677   0.977   9.576   2.299 -0.5476 -0.4955 -0.9973
  880MOL0     C18678   0.844   9.510   2.283 -0.1435  0.8967 -0.3236
  880MOL0     C18679   0.858   9.373   2.212 -0.0524  0.2720  0.7537
  880MOL0     C18680   0.752   9.265   2.253  0.1994  0.3875  0.4568
  880MOL0     C18681   0.606   9.268   2.201 -0.3083  0.2608 -0.1865
  880MOL0     N18682   0.547   9.399   2.239 -0.6258  0.1291  0.1656
  880MOL0     C18683   0.544   9.451   2.370 -0.0167 -0.0660  1.2378
  880MOL0     C18684   0.473   9.565   2.354  0.2803  0.1916  0.2261
  880MOL0     C18685   0.451   9.663   2.462  0.0890  0.0079  0.6379
  880MOL0     C18686   0.577   9.742   2.508 -0.5660 -0.5017  0.9284
  880MOL0     C18687   0.615   9.832   2.382  0.4189 -0.3571  0.3203
  880MOL0     C18688   0.755   9.881   2.410 -0.7465  0.0014 -0.4121
  880MOL0     O18689   0.787   9.961   2.296 -1.1613 -0.2196 -0.4511
  880MOL0     C18690   0.908  10.020   2.290 -1.3253  0.5131  0.2290
  880MOL0     C18691   0.999  10.044   2.393  0.9579 -0.9153 -0.6911
  880MOL0     C18692   1.125  10.099   2.372  0.5161 -0.6616  0.6843
  880MOL0     C18693   1.222  10.115   2.485  0.4702 -1.0946  0.3189
  880MOL0     C18694   1.157  10.138   2.239 -0.0656 -0.1436  0.5158
  880MOL0     C18695   1.291  10.186   2.216 -0.1988 -1.0202  0.4975
  880MOL0     O18696   1.305  10.312   2.157 -0.4088  0.6126 -0.3874
  880MOL0     C18697   1.420  10.363   2.107 -0.5843 -0.3497  0.1720
  880MOL0     C18698   1.536  10.358   2.180  0.4090 -1.0764 -0.4702
  880MOL0     C18699   1.639  10.438   2.129  0.3179 -0.3479 -0.0982
  880MOL0     C18700   1.639  10.508   2.010  0.5262 -0.0156  0.0055
  880MOL0     O18701   1.743  10.567   1.944  0.1408  0.2520 -0.2522
  880MOL0     C18702   1.868  10.564   2.016 -0.4743  0.5076  0.4727
  880MOL0     C18703   1.966  10.641   1.924  0.2370  0.8418  0.0355
  880MOL0     C18704   2.097  10.686   1.995 -0.1175  1.1565 -0.7998
  880MOL0     C18705   2.181  10.570   2.046 -0.2887 -0.8951  0.3396
  880MOL0     C18706   2.326  10.613   2.084  0.2469  0.1196 -0.7289
  880MOL0     C18707   2.408  10.505   2.161  0.3340  0.2819  0.8225
  880MOL0     C18708   2.536  10.558   2.221 -0.7207 -0.5457  1.0155
  880MOL0     C18709   2.601  10.462   2.318  0.1101 -0.3045  0.2038
  880MOL0    Cl18710   2.513  10.397   2.461  0.0082 -0.0083 -0.3194
  880MOL0     C18711   1.527  10.497   1.928 -0.6320 -0.4235 -0.0587
  880MOL0     C18712   1.420  10.427   1.984 -0.6178 -0.5730 -0.6011
  880MOL0     O18713   1.383  10.106   2.233  0.4530  0.1114 -0.0408
  880MOL0     C18714   1.062  10.130   2.139  0.4768  0.6551 -0.8409
  880MOL0     C18715   0.933  10.069   2.163 -0.3119 -0.5162  0.1236
  880MOL0     N18716   0.443   9.581   2.221  0.4141 -0.3478  0.0367
  880MOL0     N18717   0.483   9.484   2.154 -0.2127 -0.1066  0.0299
  880MOL0     C18718   1.531   9.658   2.007 -0.1503 -0.0225  0.0565
  880MOL0     C18719   1.663   9.603   2.020  0.3705  0.0106  0.4758
  880MOL0     C18720   2.004   9.313   2.094  0.0618 -0.3860  0.0416
  880MOL0     C18721   2.097   9.343   1.991 -0.4331 -0.6498  0.0623
  880MOL0     C18722   2.236   9.316   1.990  1.2476 -0.5361  0.2301
  880MOL0     C18723   2.286   9.257   2.107  0.3380 -0.2211  0.6861
  880MOL0     O18724   2.412   9.233   2.136 -0.6980  0.7296  1.3566
  880MOL0     C18725   2.508   9.245   2.036  0.4169  0.0764  0.7463
  880MOL0     C18726   2.643   9.263   2.092  0.2813  0.7208  0.0478
  880MOL0     C18727   2.648   9.342   2.226  1.3244  0.1748 -0.3607
  880MOL0     C18728   2.798   9.364   2.257 -0.5689 -0.1331  0.1593
  880MOL0     C18729   2.862   9.479   2.187 -0.1422 -0.0968  0.1703
  880MOL0     C18730   2.913   9.573   2.133  1.1904  0.0014  0.2545
  880MOL0     C18731   2.195   9.228   2.211  0.2369 -0.4709 -0.2519
  880MOL0     C18732   2.057   9.254   2.201 -1.1547 -0.2814 -0.4859
  880MOL0     H18733   1.572   9.283   2.008  0.4835  0.8939  2.4728
  880MOL0     H18734   1.355   9.376   1.950 -1.5667  2.2475 -0.1503
  880MOL0     H18735   1.318   9.801   2.092 -1.9046  1.8362  2.5014
  880MOL0     H18736   1.153   9.783   2.024 -0.6325 -1.5814 -1.0824
  880MOL0     H18737   1.268   9.596   2.228 -0.4562 -2.3434 -0.8240
  880MOL0     H18738   1.155   9.746   2.263 -0.9353  1.3508 -2.6453
  880MOL0     H18739   1.003   9.599   2.091  0.0943 -2.4110 -1.7055
  880MOL0     H18740   1.114   9.476   2.144  1.1813  1.9601 -2.2805
  880MOL0     H18741   1.041   9.530   2.375  0.5312 -1.2964 -2.3497
  880MOL0     H18742   0.960   9.683   2.315 -0.3477 -0.3152 -1.9380
  880MOL0     H18743   0.801   9.479   2.379 -1.7701 -3.0544 -2.1033
  880MOL0     H18744   0.766   9.575   2.241  0.2003  1.2673 -0.3939
  880MOL0     H18745   0.868   9.392   2.105 -0.2960  3.8992  1.2524
  880MOL0     H18746   0.952   9.327   2.245 -0.1476 -0.8607 -0.4351
  880MOL0     H18747   0.785   9.166   2.219 -0.6062  1.2413 -3.2174
  880MOL0     H18748   0.745   9.265   2.362 -0.8711  1.5430  0.4152
  880MOL0     H18749   0.554   9.185   2.251  0.6364  2.0646  4.3372
  880MOL0     H18750   0.612   9.252   2.093  2.3647 -0.2994 -0.0255
  880MOL0     H18751   0.589   9.403   2.456 -1.2816 -1.5569  1.1188
  880MOL0     H18752   0.368   9.732   2.447 -1.2008 -1.3640  1.1514
  880MOL0     H18753   0.414   9.602   2.545 -0.3450  0.0276  0.4595
  880MOL0     H18754   0.660   9.677   2.538  0.0165 -1.3520 -2.1020
  880MOL0     H18755   0.551   9.810   2.589  0.8684 -0.2713  1.2296
  880MOL0     H18756   0.562   9.927   2.378  2.2214  0.6545 -0.3177
  880MOL0     H18757   0.620   9.775   2.289  3.5643 -0.3138  0.3500
  880MOL0     H18758   0.827   9.802   2.432 -2.3363 -1.4089 -0.1285
  880MOL0     H18759   0.753   9.945   2.499  0.4336  1.6299 -1.4927
  880MOL0     H18760   0.966   9.998   2.485  0.7921  0.3750 -0.0888
  880MOL0     H18761   1.257  10.219   2.474  0.6797 -1.2047 -0.0837
  880MOL0     H18762   1.170  10.101   2.580 -0.8105  1.9261  0.1942
  880MOL0     H18763   1.302  10.043   2.464  4.0183  2.9348 -1.8093
  880MOL0     H18764   1.542  10.317   2.280  1.9848 -0.5432 -0.3226
  880MOL0     H18765   1.725  10.447   2.195  0.3054  0.8071 -0.2167
  880MOL0     H18766   1.866  10.616   2.112  0.8022 -0.5844  1.1404
  880MOL0     H18767   1.909  10.467   2.047  1.0152  1.4521  1.6844
  880MOL0     H18768   1.989  10.575   1.840  0.2254  1.0880 -0.1634
  880MOL0     H18769   1.918  10.731   1.885  0.2574  0.4847 -0.8446
  880MOL0     H18770   2.061  10.742   2.082  2.2130 -2.2343  2.6084
  880MOL0     H18771   2.158  10.757   1.939  1.8357  0.4578  0.3446
  880MOL0     H18772   2.127  10.546   2.138  1.1810  1.8535  2.0722
  880MOL0     H18773   2.184  10.491   1.971  3.5506  1.4456 -2.3342
  880MOL0     H18774   2.298  10.694   2.152 -1.9514  0.6495 -2.1924
  880MOL0     H18775   2.370  10.656   1.994 -0.6193  2.7470  0.0255
  880MOL0     H18776   2.349  10.472   2.248  2.4358 -2.8701  1.2235
  880MOL0     H18777   2.445  10.427   2.094  0.8047  0.9577  0.2794
  880MOL0     H18778   2.516  10.659   2.258  0.4013  1.0608 -2.3925
  880MOL0     H18779   2.613  10.568   2.144 -2.7577 -0.3210 -1.1325
  880MOL0     H18780   2.694  10.509   2.350  1.9598 -3.7657  0.3723
  880MOL0     H18781   2.622  10.377   2.253 -0.2633 -1.7629  1.9406
  880MOL0     H18782   1.526  10.540   1.828  2.4814  1.9975  0.7522
  880MOL0     H18783   1.328  10.430   1.928 -0.8249  1.4495 -0.2594
  880MOL0     H18784   1.092  10.160   2.039  3.9767  0.1440 -0.0674
  880MOL0     H18785   0.850  10.060   2.093 -0.3286  0.2129  0.0480
  880MOL0     H18786   1.503   9.763   2.006 -2.1668 -0.5213 -1.1078
  880MOL0     H18787   1.753   9.662   2.034  1.2705 -1.3206  0.5033
  880MOL0     H18788   2.057   9.394   1.905  0.3337 -2.4101 -1.3989
  880MOL0     H18789   2.291   9.346   1.901 -1.1657 -3.1906 -2.4007
  880MOL0     H18790   2.504   9.161   1.966  1.0974 -0.1488  0.9602
  880MOL0     H18791   2.490   9.342   1.989 -1.8669 -1.2563 -1.3282
  880MOL0     H18792   2.702   9.311   2.013 -2.7591  2.7701 -1.1398
  880MOL0     H18793   2.692   9.166   2.106 -1.3978 -0.0402  1.0247
  880MOL0     H18794   2.617   9.271   2.303  3.4112 -1.2351 -0.7198
  880MOL0     H18795   2.584   9.430   2.226  0.3891 -0.4927 -0.9268
  880MOL0     H18796   2.859   9.275   2.236  1.4826  0.0105  4.4829
  880MOL0     H18797   2.811   9.385   2.363  1.0307  3.2981 -0.5841
  880MOL0     H18798   2.978   9.632   2.070 -1.1013  2.4003 -0.0167
  880MOL0     H18799   2.227   9.166   2.295  2.7140  2.4166  1.1538
  880MOL0     H18800   1.997   9.198   2.271 -2.4535 -0.1799 -1.4791
  881MOL0     O18801   6.776   6.340   1.166  1.1969 -0.0787 -0.2834
  881MOL0     C18802   6.718   6.233   1.199 -0.1064  0.1151 -0.3793
  881MOL0     O18803   6.578   6.205   1.197  0.7449 -0.2769 -0.3909
  881MOL0     C18804   6.498   6.310   1.165  0.0723 -0.4279  0.5242
  881MOL0     C18805   6.488   6.333   1.027 -0.1445  0.9066 -0.3308
  881MOL0     C18806   6.401   6.425   0.987 -0.1039 -0.3184  0.3983
  881MOL0     C18807   6.336   6.515   1.078  0.6093  0.3176 -0.5000
  881MOL0     O18808   6.255   6.618   1.045  0.3021  0.7803  0.2624
  881MOL0     C18809   6.162   6.602   0.940 -0.6206 -0.0880 -0.7116
  881MOL0     C18810   6.051   6.718   0.939 -0.4760 -1.0570  0.2849
  881MOL0     C18811   6.000   6.753   1.080  0.5984 -0.1728 -0.0873
  881MOL0     C18812   5.913   6.887   1.089 -0.6141 -0.2244  0.1561
  881MOL0     C18813   5.878   6.949   1.234  0.2260 -0.6011  0.4930
  881MOL0     C18814   5.803   6.848   1.334  0.1368  0.0205  0.9982
  881MOL0     C18815   5.776   6.915   1.463 -0.6817  0.0984  0.5721
  881MOL0     C18816   5.904   6.899   1.554  0.4841 -0.7645  0.1669
  881MOL0     N18817   5.895   6.781   1.632 -0.4304 -0.1123  0.2232
  881MOL0     C18818   5.780   6.741   1.693 -0.0262  0.1758  0.1474
  881MOL0     C18819   5.826   6.633   1.770  0.7617  0.7896 -0.4556
  881MOL0     C18820   5.747   6.569   1.880  0.6621 -0.5300 -0.0048
  881MOL0     C18821   5.713   6.427   1.842  0.3315 -0.5716  0.2036
  881MOL0     C18822   5.617   6.413   1.722 -0.0076  0.0596  0.5579
  881MOL0     C18823   5.582   6.271   1.691  0.3939 -0.1526 -0.0929
  881MOL0     O18824   5.438   6.257   1.662 -0.0467  0.3929 -0.3218
  881MOL0     C18825   5.369   6.139   1.672  0.0099 -0.4712  0.1448
  881MOL0     C18826   5.416   6.010   1.667 -0.1153  0.2347 -0.5105
  881MOL0     C18827   5.336   5.893   1.679  0.1942 -0.7919 -1.2514
  881MOL0     C18828   5.404   5.762   1.661  0.1310 -0.2383  0.1236
  881MOL0     C18829   5.199   5.917   1.703  0.2318  0.0667  0.5804
  881MOL0     C18830   5.100   5.802   1.729  0.7335 -0.4256 -0.1421
  881MOL0     O18831   4.973   5.822   1.689  0.9900  0.4116  0.2410
  881MOL0     C18832   4.890   5.710   1.671  0.1500 -0.1910 -1.0075
  881MOL0     C18833   4.928   5.615   1.580 -0.1479 -0.6787 -0.1716
  881MOL0     C18834   4.839   5.516   1.537 -1.0282  0.1871 -0.2624
  881MOL0     C18835   4.732   5.486   1.617 -0.3272  1.2016  1.1320
  881MOL0     O18836   4.664   5.375   1.575 -0.3606 -0.2888  0.2192
  881MOL0     C18837   4.553   5.328   1.645 -0.1026  0.1893  1.3997
  881MOL0     C18838   4.602   5.246   1.758 -0.6607  0.6114 -0.2606
  881MOL0     C18839   4.502   5.185   1.860  0.3017 -0.1140  0.0828
  881MOL0     C18840   4.566   5.140   1.986 -0.4535  0.4867  0.0434
  881MOL0     C18841   4.448   5.109   2.084 -0.7231  0.3490 -0.4729
  881MOL0     C18842   4.396   5.235   2.155  0.0818 -0.4491 -0.6521
  881MOL0     C18843   4.515   5.294   2.238 -0.2838  0.5844  0.0311
  881MOL0     C18844   4.462   5.367   2.367 -0.2133 -0.3903 -0.0776
  881MOL0    Cl18845   4.441   5.235   2.490  0.0830 -0.1678  0.5286
  881MOL0     C18846   4.689   5.578   1.716  0.4317 -0.3118 -0.0035
  881MOL0     C18847   4.767   5.697   1.739  0.3284  0.2537  0.5103
  881MOL0     O18848   5.136   5.699   1.781 -0.3841 -0.0158 -0.0950
  881MOL0     C18849   5.149   6.047   1.706  0.0433 -0.8992 -0.2479
  881MOL0     C18850   5.234   6.153   1.674  0.5820  0.0350  0.1489
  881MOL0     N18851   5.960   6.619   1.759 -0.6777  0.1925 -0.1608
  881MOL0     N18852   6.000   6.705   1.680  0.0037 -0.0844  0.2093
  881MOL0     C18853   6.362   6.503   1.212  0.7675 -0.5850 -0.1673
  881MOL0     C18854   6.433   6.392   1.255  0.0065  0.1987  0.3646
  881MOL0     C18855   6.804   6.121   1.250 -0.3184  0.4264 -0.7614
  881MOL0     C18856   6.941   6.122   1.235 -0.3829 -0.7713  0.2235
  881MOL0     C18857   7.023   6.017   1.283 -0.1395  0.3431 -0.3751
  881MOL0     C18858   6.964   5.908   1.348 -0.3400 -0.1486  1.2917
  881MOL0     O18859   7.038   5.810   1.399 -0.1590  0.0911  0.4947
  881MOL0     C18860   7.057   5.703   1.301  0.1132  0.0560 -0.0169
  881MOL0     C18861   7.069   5.557   1.359  0.5495  0.6964  0.0183
  881MOL0     C18862   6.930   5.509   1.390 -0.4954  0.6508 -0.3421
  881MOL0     C18863   6.918   5.437   1.527 -0.1760 -0.3395  0.3493
  881MOL0     C18864   7.014   5.324   1.547  0.2928 -0.7508  1.2934
  881MOL0     C18865   7.084   5.227   1.575  0.6370 -0.0669  0.2619
  881MOL0     C18866   6.825   5.903   1.355 -0.1084  0.2624  0.3987
  881MOL0     C18867   6.742   6.004   1.303 -0.4267  0.1084  0.1107
  881MOL0     H18868   6.543   6.272   0.956 -1.7110 -0.9942  0.0176
  881MOL0     H18869   6.389   6.448   0.881  1.9262  0.6848  0.3397
  881MOL0     H18870   6.212   6.601   0.843 -1.0811  0.3883 -0.9554
  881MOL0     H18871   6.104   6.510   0.953  0.2920 -0.5732  0.1146
  881MOL0     H18872   6.090   6.808   0.892 -0.3120  0.1524  2.5991
  881MOL0     H18873   5.966   6.691   0.875 -0.7663 -0.0992  0.2480
  881MOL0     H18874   5.931   6.674   1.111  0.2988  0.1729  0.1345
  881MOL0     H18875   6.078   6.758   1.156  0.7246 -1.7238 -0.0959
  881MOL0     H18876   5.956   6.964   1.026  2.0828  0.2641  2.4010
  881MOL0     H18877   5.815   6.867   1.044 -0.8418 -2.2084  1.3837
  881MOL0     H18878   5.971   6.991   1.273  0.1624  2.8262 -2.5510
  881MOL0     H18879   5.825   7.043   1.215  1.9261  0.4374  0.7471
  881MOL0     H18880   5.709   6.817   1.287  1.0459 -0.0020 -0.8885
  881MOL0     H18881   5.870   6.762   1.342  0.9581  0.3644 -1.3998
  881MOL0     H18882   5.746   7.020   1.455 -0.1115  0.5588  3.2225
  881MOL0     H18883   5.692   6.859   1.504  0.3542 -1.2845  0.8609
  881MOL0     H18884   5.918   6.987   1.617  0.7620 -0.0780 -0.8246
  881MOL0     H18885   5.994   6.901   1.490 -0.5009 -1.1104 -1.2890
  881MOL0     H18886   5.688   6.796   1.709  0.1774 -0.1923  3.1534
  881MOL0     H18887   5.819   6.569   1.963 -0.3317  0.9709  0.9058
  881MOL0     H18888   5.656   6.620   1.911 -0.9660 -2.6173 -1.1098
  881MOL0     H18889   5.663   6.368   1.919 -1.9087 -1.2962 -1.7058
  881MOL0     H18890   5.811   6.383   1.822  0.8659 -0.4844  2.4083
  881MOL0     H18891   5.670   6.457   1.637 -0.6159 -3.4124 -1.8485
  881MOL0     H18892   5.528   6.476   1.733 -0.0732 -0.2742  2.1760
  881MOL0     H18893   5.584   6.205   1.778 -1.1962  1.5799  1.3528
  881MOL0     H18894   5.645   6.223   1.615  0.9820 -1.1302  0.9860
  881MOL0     H18895   5.523   5.995   1.663 -0.1585  0.1255 -1.4366
  881MOL0     H18896   5.326   5.701   1.613 -0.5152 -0.7100  1.7280
  881MOL0     H18897   5.494   5.769   1.600  1.3733 -1.9332  1.6632
  881MOL0     H18898   5.432   5.733   1.762  2.9036  2.2850  0.2245
  881MOL0     H18899   5.010   5.631   1.511 -0.5678 -3.0224 -1.3016
  881MOL0     H18900   4.841   5.469   1.440 -1.7181 -0.9681  0.2637
  881MOL0     H18901   4.484   5.403   1.684 -4.8972 -0.4298 -4.4357
  881MOL0     H18902   4.486   5.266   1.585 -1.9676  2.7075  0.7452
  881MOL0     H18903   4.649   5.159   1.711 -1.1661  1.5726 -2.7141
  881MOL0     H18904   4.673   5.309   1.813  0.9441 -0.0130 -1.5350
  881MOL0     H18905   4.453   5.092   1.829  1.6388 -0.4848 -0.9792
  881MOL0     H18906   4.421   5.257   1.878  0.4983 -0.3149  1.9879
  881MOL0     H18907   4.626   5.051   1.966 -0.4570  0.9521 -2.3199
  881MOL0     H18908   4.637   5.212   2.028  0.7156 -0.3747 -0.4073
  881MOL0     H18909   4.484   5.043   2.163  0.2496  1.9400  0.4678
  881MOL0     H18910   4.365   5.060   2.031 -0.6083 -1.1135  0.6459
  881MOL0     H18911   4.363   5.312   2.085 -1.3171 -1.4272 -1.0913
  881MOL0     H18912   4.307   5.210   2.214 -1.9137 -0.9356 -3.6734
  881MOL0     H18913   4.565   5.366   2.173 -1.0850 -1.1543 -2.6728
  881MOL0     H18914   4.581   5.214   2.274 -2.6200 -0.4815  2.2975
  881MOL0     H18915   4.367   5.419   2.354  0.6984  1.6515  0.9262
  881MOL0     H18916   4.529   5.447   2.401 -0.0528 -0.0872 -1.0688
  881MOL0     H18917   4.603   5.556   1.777  0.0246  0.4041 -0.3108
  881MOL0     H18918   4.734   5.761   1.819 -2.8256  1.1787 -1.3592
  881MOL0     H18919   5.043   6.063   1.726 -0.3722  0.8118 -3.2183
  881MOL0     H18920   5.198   6.255   1.680 -0.6790 -0.4505  1.3387
  881MOL0     H18921   6.303   6.558   1.284 -1.1816 -2.0536 -0.5577
  881MOL0     H18922   6.440   6.356   1.357 -0.3218  0.9564  0.6633
  881MOL0     H18923   6.991   6.205   1.186 -2.8942  0.4613 -0.3899
  881MOL0     H18924   7.131   6.013   1.277 -0.1592  0.3751 -0.7899
  881MOL0     H18925   6.971   5.705   1.233  2.2917 -2.5280 -3.1908
  881MOL0     H18926   7.145   5.730   1.243 -1.8080  1.6681 -2.3573
  881MOL0     H18927   7.129   5.552   1.451  0.1264  1.3927  0.3397
  881MOL0     H18928   7.130   5.501   1.287 -1.1476  0.3804 -1.2213
  881MOL0     H18929   6.904   5.432   1.317 -0.4348 -0.3603  0.6692
  881MOL0     H18930   6.856   5.589   1.394 -2.0832 -0.7939  0.4840
  881MOL0     H18931   6.822   5.387   1.538  1.5259 -3.9649  0.1656
  881MOL0     H18932   6.926   5.510   1.608 -2.8394  1.7366 -1.0649
  881MOL0     H18933   7.149   5.144   1.594  1.7853  0.6516 -0.4152
  881MOL0     H18934   6.785   5.828   1.422 -1.3798  1.6442  1.2443
  881MOL0     H18935   6.635   6.003   1.318 -0.7006 -2.1310 -1.4473
  882MOL0     O18936   2.443   6.183   3.729 -0.5820  0.1082 -0.4632
  882MOL0     C18937   2.432   6.133   3.841 -0.0535  0.6001 -0.0471
  882MOL0     O18938   2.483   6.186   3.961  0.5757  0.1773  0.2692
  882MOL0     C18939   2.546   6.306   3.960 -0.0164 -0.5479  0.0090
  882MOL0     C18940   2.647   6.350   3.867  0.0777 -1.1343  0.1649
  882MOL0     C18941   2.695   6.476   3.881 -0.4652  0.8517 -0.5244
  882MOL0     C18942   2.649   6.563   3.974  1.0888  0.0969 -0.3652
  882MOL0     O18943   2.696   6.690   3.984  0.9225 -0.3587  0.1389
  882MOL0     C18944   2.774   6.712   4.093 -0.3160 -0.0507 -0.2251
  882MOL0     C18945   2.770   6.868   4.109 -0.5541 -0.3489 -0.3590
  882MOL0     C18946   2.639   6.906   4.179  0.4213  0.1652 -0.1109
  882MOL0     C18947   2.650   6.884   4.335  0.7240  0.3332 -0.4098
  882MOL0     C18948   2.536   6.959   4.393  1.2233 -0.8923  0.8836
  882MOL0     C18949   2.399   6.899   4.366  0.2091 -0.1531 -0.3458
  882MOL0     C18950   2.378   6.758   4.402 -0.4330  0.4962  0.2063
  882MOL0     C18951   2.235   6.710   4.353  0.9550 -0.7346  0.1351
  882MOL0     N18952   2.214   6.568   4.382 -0.5082 -0.4643  0.0502
  882MOL0     C18953   2.107   6.523   4.463 -0.2221  0.7843  0.2175
  882MOL0     C18954   2.109   6.386   4.447  0.6028  0.2324 -0.6688
  882MOL0     C18955   2.017   6.286   4.514  0.2715  0.0942  0.6907
  882MOL0     C18956   2.056   6.251   4.659  0.2436 -0.7906  0.7662
  882MOL0     C18957   2.184   6.176   4.653 -0.3724  0.1658 -0.3758
  882MOL0     C18958   2.228   6.096   4.777  0.5520 -0.5589  0.2633
  882MOL0     O18959   2.352   6.034   4.741  0.4313 -0.4491  0.0633
  882MOL0     C18960   2.443   6.010   4.847 -0.0093 -0.5036 -0.4731
  882MOL0     C18961   2.578   6.052   4.824  0.2470 -0.0543 -0.5962
  882MOL0     C18962   2.676   6.051   4.921 -0.8347 -0.0289 -0.9228
  882MOL0     C18963   2.811   6.109   4.896  0.0946 -0.6369  0.5907
  882MOL0     C18964   2.638   5.998   5.050  0.4704  0.3536  1.5022
  882MOL0     C18965   2.738   5.967   5.165  0.2440  0.2528  0.2280
  882MOL0     O18966   2.697   5.890   5.264 -0.4267  0.2755  0.7454
  882MOL0     C18967   2.792   5.828   5.331 -0.3705  0.3899  0.0991
  882MOL0     C18968   2.833   5.705   5.289 -0.8828  0.8718 -0.6613
  882MOL0     C18969   2.936   5.638   5.357  0.6171 -0.8636 -0.5302
  882MOL0     C18970   2.983   5.695   5.480 -0.3637  0.7312  0.4768
  882MOL0     O18971   3.075   5.615   5.543 -0.1989  0.7635 -0.1652
  882MOL0     C18972   3.062   5.632   5.689  0.2204  0.9636 -0.3159
  882MOL0     C18973   3.104   5.502   5.761 -0.3055 -0.0883 -0.5853
  882MOL0     C18974   3.022   5.382   5.717 -1.1537  0.3468  0.4325
  882MOL0     C18975   2.985   5.277   5.835 -0.1337  0.1148  0.1542
  882MOL0     C18976   2.935   5.133   5.792  1.1443 -1.0967 -0.5035
  882MOL0     C18977   2.808   5.163   5.717 -0.0116  1.2339  0.4248
  882MOL0     C18978   2.729   5.051   5.647  0.2030 -0.5820 -0.4422
  882MOL0     C18979   2.820   4.938   5.592  0.2147 -0.1861 -0.6152
  882MOL0    Cl18980   2.724   4.838   5.469 -0.6669 -0.4021  0.0204
  882MOL0     C18981   2.947   5.825   5.514 -0.7089 -0.5232  0.0610
  882MOL0     C18982   2.846   5.893   5.443 -0.0761 -0.4040 -0.1644
  882MOL0     O18983   2.851   6.013   5.156 -0.6642 -0.5504  0.9017
  882MOL0     C18984   2.496   5.960   5.072 -0.0863  0.4996  0.3789
  882MOL0     C18985   2.405   5.978   4.980  0.0780  0.1266  0.2166
  882MOL0     N18986   2.205   6.358   4.356  0.5481 -0.2693  0.8218
  882MOL0     N18987   2.277   6.466   4.328 -0.3423 -0.8519  0.1549
  882MOL0     C18988   2.554   6.521   4.066 -0.4565 -0.4611  0.3049
  882MOL0     C18989   2.498   6.398   4.046 -0.1674 -0.0851 -0.3322
  882MOL0     C18990   2.372   5.998   3.831 -0.7799  0.7931 -1.1519
  882MOL0     C18991   2.295   5.955   3.724  0.6562  0.1638  0.0818
  882MOL0     C18992   2.218   5.842   3.743 -0.5112 -0.2405 -0.3192
  882MOL0     C18993   2.230   5.753   3.850  0.7463  0.8956 -0.5620
  882MOL0     O18994   2.151   5.638   3.870  0.7102 -0.5304  0.9827
  882MOL0     C18995   2.195   5.534   3.953 -0.2185 -0.6995  0.0415
  882MOL0     C18996   2.117   5.405   3.917  0.3178 -1.1206  0.0584
  882MOL0     C18997   1.963   5.400   3.943 -0.6517  1.1337 -0.0718
  882MOL0     C18998   1.868   5.500   3.881 -0.1018  0.1956 -0.6480
  882MOL0     C18999   1.884   5.497   3.732  0.2782  1.0120 -0.4882
  882MOL0     C19000   1.893   5.511   3.614  0.0062 -0.3999  0.2524
  882MOL0     C19001   2.330   5.782   3.942 -0.1109  0.9593 -0.0610
  882MOL0     C19002   2.400   5.901   3.935  0.0611 -0.5816  0.0761
  882MOL0     H19003   2.692   6.295   3.785 -0.1385 -2.7660  1.0934
  882MOL0     H19004   2.778   6.510   3.821  2.3426 -1.5960  1.6425
  882MOL0     H19005   2.751   6.665   4.190  1.3897  1.4009  0.9385
  882MOL0     H19006   2.871   6.667   4.067 -0.8733 -0.1893 -2.1998
  882MOL0     H19007   2.856   6.907   4.165 -0.2173 -2.2259  0.5043
  882MOL0     H19008   2.785   6.912   4.010 -2.2210 -0.2396 -0.5819
  882MOL0     H19009   2.607   7.008   4.155 -2.5456 -0.4455  0.7334
  882MOL0     H19010   2.555   6.845   4.144 -2.5512  3.3538  0.8579
  882MOL0     H19011   2.640   6.778   4.362  1.5640  0.1287 -0.8501
  882MOL0     H19012   2.750   6.917   4.366  0.5276 -0.4749  1.1848
  882MOL0     H19013   2.553   6.955   4.501  4.0950  0.8295  0.6039
  882MOL0     H19014   2.528   7.065   4.364 -3.5479 -1.0493  0.7913
  882MOL0     H19015   2.322   6.949   4.426  1.1302 -0.1333  0.8466
  882MOL0     H19016   2.360   6.917   4.265 -1.6264 -1.7351  0.0153
  882MOL0     H19017   2.445   6.692   4.346  0.0521  0.3920  0.8901
  882MOL0     H19018   2.393   6.736   4.508 -2.4750 -0.0311  0.4157
  882MOL0     H19019   2.243   6.740   4.248  1.0935  3.9773  1.2724
  882MOL0     H19020   2.146   6.766   4.384  1.0250 -1.2953  1.4288
  882MOL0     H19021   2.030   6.585   4.508  0.2035 -1.4640  4.5929
  882MOL0     H19022   1.918   6.333   4.518  1.2250  2.5268 -1.3255
  882MOL0     H19023   2.008   6.194   4.456  1.7000  1.3183 -1.6274
  882MOL0     H19024   1.979   6.194   4.711 -1.0379  0.8213  0.6905
  882MOL0     H19025   2.072   6.346   4.710 -4.2349  0.4345  0.2873
  882MOL0     H19026   2.260   6.254   4.635 -0.4605 -0.2465 -2.9463
  882MOL0     H19027   2.182   6.113   4.563 -0.7673 -1.3619  0.6674
  882MOL0     H19028   2.151   6.019   4.790 -4.2096  3.6238 -0.0907
  882MOL0     H19029   2.240   6.161   4.864 -1.7453 -0.5441  0.6271
  882MOL0     H19030   2.604   6.092   4.726 -0.2099  1.8771  0.0507
  882MOL0     H19031   2.819   6.122   4.788  1.1007 -0.5995  0.6543
  882MOL0     H19032   2.819   6.206   4.946 -0.5682 -1.4268  2.3328
  882MOL0     H19033   2.889   6.036   4.920  0.5766 -0.4509 -0.3429
  882MOL0     H19034   2.797   5.649   5.203  3.6286 -2.7142 -0.6081
  882MOL0     H19035   2.953   5.534   5.330 -2.4270 -2.3974  2.6777
  882MOL0     H19036   3.125   5.714   5.725  2.6997 -0.6296 -0.7844
  882MOL0     H19037   2.959   5.655   5.718  0.4725  0.4232  1.1146
  882MOL0     H19038   3.210   5.495   5.737 -0.6683  0.7838 -2.5779
  882MOL0     H19039   3.087   5.525   5.867  0.9991  4.5726 -1.1836
  882MOL0     H19040   3.068   5.335   5.629  0.4972  0.8558  0.9732
  882MOL0     H19041   2.929   5.428   5.684 -0.3670 -0.5141 -3.4979
  882MOL0     H19042   3.073   5.270   5.899 -0.8457  1.2460  1.3138
  882MOL0     H19043   2.913   5.333   5.896 -0.9701  0.4974 -1.1488
  882MOL0     H19044   2.917   5.079   5.886  0.6997 -1.3111 -0.7045
  882MOL0     H19045   3.002   5.078   5.726  0.8013 -0.8993 -1.0245
  882MOL0     H19046   2.742   5.212   5.789  0.9527  1.9264  0.8592
  882MOL0     H19047   2.838   5.244   5.651  0.8876  0.7944  0.2788
  882MOL0     H19048   2.666   5.105   5.576  0.6336 -0.1182 -0.4701
  882MOL0     H19049   2.664   5.011   5.726 -0.7317  1.4213 -0.1233
  882MOL0     H19050   2.851   4.869   5.672  0.4662  1.3535  0.6726
  882MOL0     H19051   2.906   4.986   5.544  0.7487 -1.2890 -0.7874
  882MOL0     H19052   2.987   5.872   5.603  1.0472  1.1000 -1.5116
  882MOL0     H19053   2.800   5.987   5.473 -0.0290 -0.9961  1.9138
  882MOL0     H19054   2.468   5.927   5.172 -0.5604  2.4811  0.9477
  882MOL0     H19055   2.301   5.947   4.990  0.1894 -3.3819 -5.2313
  882MOL0     H19056   2.510   6.588   4.140 -2.3814  1.0261 -2.0378
  882MOL0     H19057   2.413   6.370   4.106 -0.8661 -0.0975 -1.2985
  882MOL0     H19058   2.290   6.021   3.638  2.2094 -0.1992 -0.3272
  882MOL0     H19059   2.147   5.809   3.667 -1.3750  1.1357 -0.1593
  882MOL0     H19060   2.300   5.513   3.929 -0.1110  1.0970 -1.2547
  882MOL0     H19061   2.176   5.563   4.057  0.5468 -0.3600  0.0947
  882MOL0     H19062   2.161   5.331   3.985  0.9931  2.4457  3.9431
  882MOL0     H19063   2.128   5.388   3.810  0.5455  1.6351 -0.4186
  882MOL0     H19064   1.946   5.411   4.050  1.3631  1.6316  0.2504
  882MOL0     H19065   1.932   5.305   3.900  0.3833  1.6446 -2.0857
  882MOL0     H19066   1.906   5.595   3.919  1.3814 -0.2123 -1.0467
  882MOL0     H19067   1.766   5.476   3.912 -1.2451  0.9564 -3.5308
  882MOL0     H19068   1.896   5.529   3.508  1.9117 -1.0419  0.1636
  882MOL0     H19069   2.353   5.737   4.038  5.4402  2.7973 -0.1954
  882MOL0     H19070   2.468   5.932   4.014 -0.8852  0.8457  0.3817
  883MOL0     O19071   5.341  10.346   3.493  0.5440 -0.0706 -0.3327
  883MOL0     C19072   5.256  10.355   3.403 -0.6505 -0.8802 -0.1030
  883MOL0     O19073   5.148  10.436   3.406  0.6527  0.5643 -0.4248
  883MOL0     C19074   5.123  10.517   3.518 -0.7934  0.5272  0.6593
  883MOL0     C19075   5.189  10.638   3.533 -0.1366  0.6843 -0.7203
  883MOL0     C19076   5.165  10.727   3.635  0.1775  0.2053  0.5241
  883MOL0     C19077   5.072  10.679   3.729 -1.0312  0.1147 -0.0267
  883MOL0     O19078   5.054  10.750   3.845  0.2408 -0.0954  0.2335
  883MOL0     C19079   4.992  10.882   3.833  0.6700  0.3924  0.3114
  883MOL0     C19080   4.943  10.939   3.965  0.0511 -0.3604  0.6482
  883MOL0     C19081   4.873  10.831   4.043 -0.0624 -0.1130 -0.3637
  883MOL0     C19082   4.763  10.862   4.148  0.5719 -0.7121  0.6910
  883MOL0     C19083   4.632  10.924   4.073  0.8244 -0.3528  0.7548
  883MOL0     C19084   4.536  10.935   4.192  0.1345 -0.2176 -0.2957
  883MOL0     C19085   4.405  11.005   4.145  0.2533  0.0226  0.2276
  883MOL0     C19086   4.327  10.944   4.021  0.4819  0.3985 -0.0533
  883MOL0     N19087   4.195  11.009   4.000 -0.2055 -0.0617 -0.3725
  883MOL0     C19088   4.083  10.966   4.070  0.2610  0.3032  0.5292
  883MOL0     C19089   3.978  11.023   3.999 -0.0415  1.2002  0.2790
  883MOL0     C19090   3.825  10.992   4.020  0.0875  0.3688 -0.4946
  883MOL0     C19091   3.770  10.929   3.888  0.0232 -0.2208 -0.6794
  883MOL0     C19092   3.743  11.029   3.769  0.2874  0.3457  0.4949
  883MOL0     C19093   3.591  11.028   3.715 -0.1466  0.0055 -0.3747
  883MOL0     O19094   3.503  10.989   3.825  0.1424 -0.8930  0.4355
  883MOL0     C19095   3.403  11.073   3.872 -0.8827 -0.2571 -0.0645
  883MOL0     C19096   3.407  11.096   4.004 -0.6597 -0.7637  0.0549
  883MOL0     C19097   3.324  11.194   4.065  0.2142 -0.4943 -0.2062
  883MOL0     C19098   3.338  11.221   4.214  0.0025 -0.2720 -0.6375
  883MOL0     C19099   3.236  11.272   3.981  0.2629  0.2314 -0.7357
  883MOL0     C19100   3.153  11.383   4.029 -0.7197 -0.0797 -0.7760
  883MOL0     O19101   3.109  11.468   3.934  0.8861 -0.0414 -0.1022
  883MOL0     C19102   2.996  11.549   3.944 -0.2013  0.5943 -0.4663
  883MOL0     C19103   2.995  11.677   3.999  0.1766 -0.5873 -0.5679
  883MOL0     C19104   2.878  11.751   4.010 -0.5498  0.7474  0.1756
  883MOL0     C19105   2.760  11.709   3.951  0.2982  0.9081  0.0511
  883MOL0     O19106   2.654  11.794   3.960 -0.0444  0.4891  0.1616
  883MOL0     C19107   2.533  11.759   3.902  1.1327  0.4979  0.4038
  883MOL0     C19108   2.420  11.866   3.887 -0.0576 -0.6781 -0.4195
  883MOL0     C19109   2.476  11.997   3.821  0.2293  0.6500  0.7636
  883MOL0     C19110   2.525  12.097   3.917  0.0163 -0.3539  0.5720
  883MOL0     C19111   2.623  12.187   3.846 -0.6667 -0.4649 -0.4327
  883MOL0     C19112   2.680  12.276   3.966 -0.9688  0.6515  0.0273
  883MOL0     C19113   2.769  12.403   3.940 -0.4513 -0.7495 -0.5842
  883MOL0     C19114   2.879  12.420   4.055 -0.0140 -0.3115 -0.2155
  883MOL0    Cl19115   2.999  12.549   4.009 -0.2104 -0.1775  0.3159
  883MOL0     C19116   2.760  11.580   3.880 -0.4429  0.1844 -0.5602
  883MOL0     C19117   2.875  11.502   3.888  0.3265  0.2639 -0.9914
  883MOL0     O19118   3.133  11.403   4.149  0.5871  0.4915 -0.5636
  883MOL0     C19119   3.238  11.243   3.848 -0.6016  0.1009  0.0652
  883MOL0     C19120   3.313  11.140   3.795  0.0853 -0.2291 -0.1476
  883MOL0     N19121   4.025  11.098   3.895 -0.0959 -0.7622  0.3098
  883MOL0     N19122   4.152  11.089   3.897  0.4648 -0.3422 -0.7006
  883MOL0     C19123   5.018  10.550   3.718 -0.4719 -0.6407  0.4620
  883MOL0     C19124   5.041  10.463   3.613  0.6306  0.8377 -0.0429
  883MOL0     C19125   5.268  10.263   3.290 -0.3219 -0.2610 -1.0254
  883MOL0     C19126   5.168  10.240   3.198  0.0572 -0.5803  0.9868
  883MOL0     C19127   5.202  10.170   3.079 -0.6781 -0.5366 -0.4058
  883MOL0     C19128   5.322  10.100   3.061  0.3308  0.2838  0.6049
  883MOL0     O19129   5.363  10.015   2.963  0.4996 -0.3862  0.3518
  883MOL0     C19130   5.282  10.000   2.851 -0.0924 -0.1868 -0.4853
  883MOL0     C19131   5.289  10.115   2.740  0.8977 -0.5410 -0.5520
  883MOL0     C19132   5.219  10.075   2.612 -0.6092  0.0310  0.0361
  883MOL0     C19133   5.290  10.139   2.492 -0.4750 -0.3935  0.1835
  883MOL0     C19134   5.215  10.120   2.371  0.6959 -0.0111  0.1247
  883MOL0     C19135   5.147  10.108   2.266 -0.3455 -0.4503  0.1150
  883MOL0     C19136   5.422  10.117   3.156  0.2278  0.8511 -0.3849
  883MOL0     C19137   5.397  10.207   3.266  0.0492  0.0989 -0.1213
  883MOL0     H19138   5.261  10.655   3.453  0.7720  2.1426  0.3591
  883MOL0     H19139   5.232  10.811   3.650  3.2959 -1.7508 -1.5067
  883MOL0     H19140   5.054  10.952   3.776 -0.4238  1.6883  0.6574
  883MOL0     H19141   4.897  10.872   3.779  1.0658  1.5272 -0.6165
  883MOL0     H19142   5.029  10.973   4.024 -0.0991 -1.2361  1.4017
  883MOL0     H19143   4.881  11.027   3.946  0.8079  0.0034 -0.1758
  883MOL0     H19144   4.843  10.749   3.978  0.1366  0.9834 -1.9016
  883MOL0     H19145   4.951  10.789   4.107 -0.7312 -1.6116 -0.4877
  883MOL0     H19146   4.726  10.775   4.204 -1.4045  0.0109  0.5795
  883MOL0     H19147   4.802  10.944   4.208  2.4206  0.0516 -1.3758
  883MOL0     H19148   4.656  11.024   4.035 -0.8479 -0.7258 -1.4739
  883MOL0     H19149   4.584  10.860   3.999  1.0232 -0.5206  0.7704
  883MOL0     H19150   4.524  10.835   4.234  0.8142  0.9434  2.9701
  883MOL0     H19151   4.574  10.996   4.274 -0.7921  0.5256 -0.3972
  883MOL0     H19152   4.331  11.016   4.224 -0.7012 -1.8081 -0.3376
  883MOL0     H19153   4.434  11.108   4.124  0.7868 -0.6146 -2.6043
  883MOL0     H19154   4.316  10.838   4.045 -0.9500  0.3751 -0.7230
  883MOL0     H19155   4.387  10.944   3.930  4.7946 -1.1236  2.5225
  883MOL0     H19156   4.078  10.892   4.149 -0.9960 -0.4000 -0.1515
  883MOL0     H19157   3.812  10.919   4.101 -0.1717 -1.8059 -2.4102
  883MOL0     H19158   3.775  11.086   4.045 -2.9995 -1.9373  3.0420
  883MOL0     H19159   3.682  10.869   3.909 -0.1267  0.1165 -0.3345
  883MOL0     H19160   3.845  10.854   3.862  2.3910  0.9634  2.1923
  883MOL0     H19161   3.797  10.983   3.687 -5.1461 -3.2146 -1.6241
  883MOL0     H19162   3.762  11.135   3.789 -2.9462  0.9663  0.8273
  883MOL0     H19163   3.584  10.946   3.643  0.2152  0.0981 -0.5176
  883MOL0     H19164   3.561  11.127   3.679  1.5893  0.0260 -1.8983
  883MOL0     H19165   3.477  11.042   4.066  0.6023 -0.3040 -0.9250
  883MOL0     H19166   3.381  11.318   4.239  0.2711 -1.0629  2.2971
  883MOL0     H19167   3.241  11.206   4.261  0.8443 -3.4151  0.3672
  883MOL0     H19168   3.404  11.155   4.271  0.2504  2.1881  2.2048
  883MOL0     H19169   3.083  11.709   4.055 -0.5041 -1.3165  0.9636
  883MOL0     H19170   2.891  11.853   4.045  3.6894  0.5780 -0.2895
  883MOL0     H19171   2.542  11.729   3.797 -0.5138 -1.0739  0.6494
  883MOL0     H19172   2.500  11.664   3.946  1.6045 -0.7364 -1.7576
  883MOL0     H19173   2.334  11.825   3.833 -1.6855  1.5446  0.3248
  883MOL0     H19174   2.367  11.886   3.981  0.3011 -0.9654 -0.1585
  883MOL0     H19175   2.404  12.037   3.749 -1.4110  0.6844  2.3316
  883MOL0     H19176   2.557  11.974   3.752 -1.9715  0.3076 -1.9041
  883MOL0     H19177   2.442  12.157   3.957 -1.6516 -2.6030  0.6542
  883MOL0     H19178   2.579  12.050   3.999  0.3945  0.2069  0.6460
  883MOL0     H19179   2.580  12.253   3.770 -4.0822 -1.0060  0.8566
  883MOL0     H19180   2.713  12.132   3.816 -0.3789  0.1236 -0.6690
  883MOL0     H19181   2.599  12.305   4.034  0.1207 -2.7808  3.0710
  883MOL0     H19182   2.742  12.205   4.021 -1.3122 -0.8293 -1.3867
  883MOL0     H19183   2.721  12.501   3.941  0.5971 -0.0749  4.0152
  883MOL0     H19184   2.824  12.394   3.846  0.7890 -0.3730  0.0885
  883MOL0     H19185   2.938  12.330   4.077  0.4749  0.5133  2.0893
  883MOL0     H19186   2.829  12.445   4.149 -1.5292 -0.7192 -0.8738
  883MOL0     H19187   2.672  11.537   3.833  0.6305 -0.8026 -1.7566
  883MOL0     H19188   2.863  11.408   3.834 -0.4837  0.1134 -0.5558
  883MOL0     H19189   3.171  11.292   3.778  0.4821 -0.2957 -1.3004
  883MOL0     H19190   3.306  11.123   3.688 -1.6645  1.2669 -0.3177
  883MOL0     H19191   4.937  10.526   3.786 -1.3163  0.9643  0.0728
  883MOL0     H19192   4.992  10.368   3.596  1.5401  0.2942  0.3526
  883MOL0     H19193   5.077  10.298   3.208  0.8794  1.2396 -1.1360
  883MOL0     H19194   5.128  10.160   3.000 -0.5342 -1.3365 -0.4470
  883MOL0     H19195   5.297   9.904   2.801  1.9835 -0.0080 -0.2798
  883MOL0     H19196   5.177  10.000   2.882  0.6244 -5.7958  3.3818
  883MOL0     H19197   5.393  10.143   2.722  3.2988 -7.3500 -0.0324
  883MOL0     H19198   5.245  10.202   2.790  1.3132 -0.4010 -0.4224
  883MOL0     H19199   5.130  10.138   2.618  1.1581  2.7065 -0.0450
  883MOL0     H19200   5.206   9.967   2.603 -1.8034  0.0581  1.0966
  883MOL0     H19201   5.392  10.101   2.482  0.0242  0.8872  0.2681
  883MOL0     H19202   5.309  10.245   2.511  1.3825 -0.6575 -0.0510
  883MOL0     H19203   5.090  10.096   2.177 -0.0748  1.5292 -0.3644
  883MOL0     H19204   5.515  10.063   3.144  1.6175  2.9916  0.2918
  883MOL0     H19205   5.474  10.220   3.341  1.3951 -0.1577 -1.4215
  884MOL0     O19206  11.061   3.799   8.619 -0.0752  0.1230  0.1516
  884MOL0     C19207  11.039   3.920   8.596 -0.4499 -0.6274  0.1561
  884MOL0     O19208  10.918   3.985   8.584  0.0736 -0.3809  0.1390
  884MOL0     C19209  10.790   3.941   8.588  0.7781 -0.3382  0.3765
  884MOL0     C19210  10.744   3.809   8.613  0.1485  0.1968  0.1268
  884MOL0     C19211  10.605   3.781   8.606 -0.7436  0.4090 -0.0824
  884MOL0     C19212  10.513   3.882   8.607  0.9166 -0.0733 -0.5523
  884MOL0     O19213  10.380   3.854   8.623 -0.0637  0.7434 -0.4293
  884MOL0     C19214  10.316   3.798   8.505 -1.2375 -0.2058  0.1622
  884MOL0     C19215  10.166   3.797   8.536 -0.2886  0.0089  1.3024
  884MOL0     C19216  10.095   3.665   8.522  0.0320  0.9416 -0.0544
  884MOL0     C19217  10.075   3.640   8.375  0.0266  0.4515 -0.1649
  884MOL0     C19218   9.949   3.560   8.339  0.9885  0.4806  0.1746
  884MOL0     C19219   9.812   3.625   8.378  0.1723 -0.5863  0.8781
  884MOL0     C19220   9.694   3.540   8.321 -0.4261 -0.1382  0.2253
  884MOL0     C19221   9.587   3.622   8.242 -0.8216  0.5275 -0.8610
  884MOL0     N19222   9.454   3.564   8.247  0.4201 -0.5917 -0.3051
  884MOL0     C19223   9.416   3.429   8.234 -0.7071 -1.1440  0.0136
  884MOL0     C19224   9.282   3.429   8.201 -0.4876  0.2552 -0.6765
  884MOL0     C19225   9.208   3.304   8.163 -0.3225  1.1264 -0.5932
  884MOL0     C19226   9.119   3.318   8.043  0.6055  0.3976  0.7336
  884MOL0     C19227   9.045   3.187   8.003 -0.7352  0.5988 -0.1361
  884MOL0     C19228   8.936   3.196   7.901  0.3002  0.2543  0.0676
  884MOL0     O19229   8.828   3.285   7.929  0.4409  0.5813  0.1458
  884MOL0     C19230   8.735   3.309   7.837  1.4793  0.0229 -0.7962
  884MOL0     C19231   8.651   3.417   7.864  0.4390 -0.4203 -0.0494
  884MOL0     C19232   8.525   3.432   7.797 -0.5976 -0.0202 -0.8265
  884MOL0     C19233   8.449   3.556   7.840  0.0404  0.6501 -0.4058
  884MOL0     C19234   8.484   3.338   7.705 -0.6995  0.0045  0.2106
  884MOL0     C19235   8.358   3.347   7.628 -0.1960 -0.8525 -1.0448
  884MOL0     O19236   8.347   3.256   7.527 -0.0659  0.2170 -0.5217
  884MOL0     C19237   8.230   3.242   7.454  0.1411  0.1532  0.5078
  884MOL0     C19238   8.102   3.221   7.520 -0.6137  0.0718  0.3778
  884MOL0     C19239   7.987   3.213   7.445  0.4880 -0.4586  0.6621
  884MOL0     C19240   7.998   3.210   7.300  0.9504 -0.6532  0.2248
  884MOL0     O19241   7.886   3.178   7.230  0.0680 -0.1800 -0.5701
  884MOL0     C19242   7.806   3.280   7.168  0.4542 -0.3584 -1.0642
  884MOL0     C19243   7.732   3.234   7.050  0.0212  0.1443 -0.3662
  884MOL0     C19244   7.823   3.215   6.934 -0.2755 -0.1356 -0.5951
  884MOL0     C19245   7.739   3.165   6.815  0.0528  1.0726  0.4271
  884MOL0     C19246   7.822   3.166   6.683 -0.7081 -0.7337  0.0961
  884MOL0     C19247   7.937   3.069   6.684 -0.1302 -0.1500 -0.0585
  884MOL0     C19248   7.879   2.925   6.677 -0.3480  0.2284  0.6161
  884MOL0     C19249   7.989   2.833   6.621  0.1607 -0.0806 -0.1857
  884MOL0    Cl19250   8.132   2.821   6.725  0.4635 -0.2934 -0.0874
  884MOL0     C19251   8.116   3.216   7.244  0.7900 -0.1579 -1.1417
  884MOL0     C19252   8.232   3.221   7.318  0.2520  0.3014 -0.3877
  884MOL0     O19253   8.277   3.436   7.649 -0.1449  0.2235 -0.4468
  884MOL0     C19254   8.572   3.229   7.679 -0.6188 -0.8244 -0.1399
  884MOL0     C19255   8.699   3.220   7.739  0.4471  0.0283  0.3673
  884MOL0     N19256   9.242   3.566   8.198 -0.5257 -0.1601 -0.3975
  884MOL0     N19257   9.342   3.643   8.212 -0.3872  0.3444 -0.1350
  884MOL0     C19258  10.551   4.010   8.584  0.5106  0.0512  0.7153
  884MOL0     C19259  10.691   4.041   8.567 -0.2552  0.1642  0.8355
  884MOL0     C19260  11.158   4.006   8.589 -0.6858 -1.0150  0.2801
  884MOL0     C19261  11.290   3.957   8.565 -0.1984  0.1850 -0.2988
  884MOL0     C19262  11.397   4.045   8.570  0.7818 -0.3983  0.6894
  884MOL0     C19263  11.385   4.180   8.569 -0.0731 -0.1866  0.0955
  884MOL0     O19264  11.488   4.273   8.561  0.6273 -0.1445  0.3924
  884MOL0     C19265  11.614   4.226   8.602  0.2862  0.2243  0.0006
  884MOL0     C19266  11.694   4.352   8.632  0.8135  0.6063  0.7242
  884MOL0     C19267  11.821   4.337   8.711 -0.1183  0.1427 -0.3889
  884MOL0     C19268  11.798   4.308   8.864  0.6293 -0.7344 -0.0354
  884MOL0     C19269  11.916   4.249   8.915  0.6969  0.1720  0.6066
  884MOL0     C19270  12.013   4.210   8.962  0.4172  0.4453  0.3570
  884MOL0     C19271  11.257   4.235   8.587  0.5643  0.6999 -1.4372
  884MOL0     C19272  11.148   4.148   8.604  0.2711  0.2426 -0.2363
  884MOL0     H19273  10.824   3.736   8.622 -0.2887 -0.2002  0.8540
  884MOL0     H19274  10.575   3.677   8.617  0.0417  0.2914  1.2289
  884MOL0     H19275  10.335   3.855   8.414  0.0296 -1.5649 -0.4657
  884MOL0     H19276  10.353   3.695   8.501  1.8181  0.7585  1.0188
  884MOL0     H19277  10.136   3.841   8.632 -1.1630 -1.4409  1.7329
  884MOL0     H19278  10.129   3.871   8.465  2.0265  2.7165  2.7132
  884MOL0     H19279  10.142   3.588   8.584  0.1292  1.8049  0.9728
  884MOL0     H19280   9.997   3.672   8.571  0.5078 -0.7053  1.2622
  884MOL0     H19281  10.060   3.728   8.312  3.0503 -0.1102 -1.8614
  884MOL0     H19282  10.162   3.585   8.338 -1.3626  0.5745 -4.0127
  884MOL0     H19283   9.945   3.559   8.230  1.6730  4.6926 -0.0199
  884MOL0     H19284   9.951   3.465   8.394 -1.8259  2.3714  4.0809
  884MOL0     H19285   9.801   3.626   8.487 -0.9065 -3.5613  0.8906
  884MOL0     H19286   9.813   3.729   8.341 -2.7613 -0.5818  0.5524
  884MOL0     H19287   9.736   3.464   8.255  2.2382  2.3084 -1.0652
  884MOL0     H19288   9.664   3.484   8.411  1.6602  1.1117  1.7742
  884MOL0     H19289   9.623   3.635   8.139  2.4225 -0.2489  0.0476
  884MOL0     H19290   9.584   3.728   8.271 -2.3707  1.1074 -2.8662
  884MOL0     H19291   9.467   3.337   8.261 -0.1055 -0.2153  2.2416
  884MOL0     H19292   9.288   3.229   8.161 -0.8598  0.4538  1.0749
  884MOL0     H19293   9.150   3.280   8.252  0.4541 -2.4425 -0.8968
  884MOL0     H19294   9.183   3.364   7.968  1.3423 -0.8996  0.5329
  884MOL0     H19295   9.038   3.391   8.053  0.4002  0.3819 -0.6305
  884MOL0     H19296   9.002   3.135   8.089 -0.3866  2.5388  1.2862
  884MOL0     H19297   9.117   3.113   7.967 -0.1336  0.6649  0.8987
  884MOL0     H19298   8.908   3.091   7.897 -1.1098  0.6365 -0.4772
  884MOL0     H19299   8.980   3.238   7.810  1.9141 -2.1192 -0.3440
  884MOL0     H19300   8.675   3.481   7.948  1.8089 -2.1076  0.9242
  884MOL0     H19301   8.530   3.616   7.883  1.4383  1.0850 -3.3943
  884MOL0     H19302   8.390   3.609   7.765 -0.0655  1.7278  0.4091
  884MOL0     H19303   8.380   3.533   7.922 -0.4404 -1.0773 -1.2536
  884MOL0     H19304   8.094   3.218   7.628 -0.9801  3.3685  0.5644
  884MOL0     H19305   7.894   3.184   7.492  0.9039  0.7659  2.3178
  884MOL0     H19306   7.742   3.320   7.246  0.7968 -0.5566 -0.6759
  884MOL0     H19307   7.875   3.355   7.127  0.6234  0.3649  0.4801
  884MOL0     H19308   7.678   3.141   7.069 -3.5994  2.0822 -0.2765
  884MOL0     H19309   7.650   3.303   7.025 -0.4307 -0.0458  0.5645
  884MOL0     H19310   7.887   3.128   6.955  1.8319  1.3574 -0.4913
  884MOL0     H19311   7.885   3.304   6.919 -0.4668  0.0827 -0.1340
  884MOL0     H19312   7.717   3.060   6.834 -0.8084  1.4118  1.3735
  884MOL0     H19313   7.647   3.221   6.801 -0.0586  1.1615  1.4321
  884MOL0     H19314   7.844   3.273   6.679 -1.9335 -0.3643  2.0558
  884MOL0     H19315   7.760   3.130   6.600 -0.4638 -0.1567 -0.3407
  884MOL0     H19316   7.995   3.085   6.592  1.7139  0.5454  1.1618
  884MOL0     H19317   8.005   3.077   6.769  0.7532 -1.2077 -0.6278
  884MOL0     H19318   7.809   2.913   6.594  0.8274  0.7285 -0.4958
  884MOL0     H19319   7.837   2.902   6.775  0.6432 -1.1903  0.7366
  884MOL0     H19320   8.021   2.885   6.530 -4.4901  0.2002 -1.9091
  884MOL0     H19321   7.954   2.732   6.598  0.9765 -0.0143 -1.9524
  884MOL0     H19322   8.133   3.203   7.137  0.9648 -1.4077 -0.9707
  884MOL0     H19323   8.327   3.240   7.268 -0.8891  1.7993 -2.1041
  884MOL0     H19324   8.531   3.157   7.609 -2.2200 -0.5697  0.4739
  884MOL0     H19325   8.755   3.133   7.706  0.1017 -0.6624  1.5496
  884MOL0     H19326  10.467   4.079   8.577 -0.6113 -1.0957  1.9963
  884MOL0     H19327  10.725   4.141   8.545 -3.3379  0.7194 -2.2530
  884MOL0     H19328  11.306   3.850   8.563  2.4783  0.4449  2.2267
  884MOL0     H19329  11.491   4.003   8.534  1.3306  1.2373  0.0925
  884MOL0     H19330  11.608   4.158   8.687 -0.4474  0.4768  0.1627
  884MOL0     H19331  11.672   4.184   8.519  1.5615  2.2815 -0.1981
  884MOL0     H19332  11.641   4.434   8.679  3.0884  4.2261 -2.4133
  884MOL0     H19333  11.710   4.402   8.536 -0.6617 -1.5577 -0.7466
  884MOL0     H19334  11.880   4.429   8.701 -1.5894  0.9892 -1.7743
  884MOL0     H19335  11.877   4.250   8.677  3.2555  1.8621  0.3727
  884MOL0     H19336  11.713   4.240   8.869 -0.8585  1.1027  0.9967
  884MOL0     H19337  11.787   4.397   8.927  0.5475 -1.0415  0.3849
  884MOL0     H19338  12.103   4.187   9.014  0.1844 -0.1429  0.5081
  884MOL0     H19339  11.235   4.341   8.592  0.4906  0.6261  1.5787
  884MOL0     H19340  11.056   4.202   8.620 -2.4649 -3.8822 -0.5797
  885MOL0     O19341  10.935   1.626   8.823 -0.3721  0.4875 -0.4517
  885MOL0     C19342  11.029   1.692   8.796  0.3378  0.2800  1.0137
  885MOL0     O19343  11.055   1.810   8.855 -0.8468  0.1000  0.2940
  885MOL0     C19344  10.983   1.827   8.976  0.6286 -0.2832  0.6175
  885MOL0     C19345  10.893   1.930   8.998 -0.0032  0.1784  1.0105
  885MOL0     C19346  10.837   1.931   9.124 -0.6962  0.4058  0.4137
  885MOL0     C19347  10.849   1.841   9.226  0.7931  0.0078 -0.0601
  885MOL0     O19348  10.767   1.845   9.330  0.0644  0.0024  0.0693
  885MOL0     C19349  10.783   1.752   9.438  0.2236 -0.5150 -0.2656
  885MOL0     C19350  10.687   1.790   9.553 -0.8173 -0.1168 -0.2798
  885MOL0     C19351  10.669   1.714   9.676 -0.4646 -0.1654  0.5858
  885MOL0     C19352  10.631   1.806   9.795  1.1843 -0.7547 -0.1478
  885MOL0     C19353  10.605   1.717   9.926 -0.0837 -0.5481  0.0706
  885MOL0     C19354  10.517   1.583   9.907  0.3238 -0.6067 -0.3025
  885MOL0     C19355  10.457   1.523  10.036 -1.1228  0.4259  0.2675
  885MOL0     C19356  10.390   1.388  10.016 -0.5350  0.4762  0.9549
  885MOL0     N19357  10.247   1.413   9.994 -0.2814 -0.4218 -0.1172
  885MOL0     C19358  10.178   1.447   9.873 -0.1524 -0.6135 -0.4896
  885MOL0     C19359  10.059   1.490   9.915 -0.4601 -0.0246  0.8593
  885MOL0     C19360   9.955   1.559   9.818 -0.2792 -0.1084 -0.2957
  885MOL0     C19361   9.858   1.463   9.743 -0.6211  0.9251 -0.4048
  885MOL0     C19362   9.772   1.524   9.638  0.5637 -0.1845  0.2475
  885MOL0     C19363   9.662   1.620   9.689  0.8155 -0.3410  1.0879
  885MOL0     O19364   9.608   1.692   9.575 -0.4873  0.8705 -0.3700
  885MOL0     C19365   9.476   1.678   9.542  0.1784 -0.1916 -0.1364
  885MOL0     C19366   9.430   1.554   9.508  0.8878 -0.7289 -0.2069
  885MOL0     C19367   9.296   1.538   9.456 -0.0999 -0.6576 -0.5667
  885MOL0     C19368   9.245   1.400   9.443 -0.2050  0.1190 -0.1290
  885MOL0     C19369   9.220   1.653   9.429  0.6358  1.1547  0.2106
  885MOL0     C19370   9.080   1.653   9.363 -0.4266 -0.2985  0.4482
  885MOL0     O19371   9.013   1.778   9.355  0.3118  0.0624  0.6950
  885MOL0     C19372   8.895   1.797   9.274 -0.3252 -0.0431  0.1365
  885MOL0     C19373   8.891   1.748   9.142 -0.2730 -0.0773 -1.1189
  885MOL0     C19374   8.782   1.763   9.066  0.8024 -0.1063 -1.0460
  885MOL0     C19375   8.661   1.836   9.116  0.6325  0.0754  0.8418
  885MOL0     O19376   8.550   1.851   9.037 -0.5929  0.0915 -0.4279
  885MOL0     C19377   8.485   1.979   9.053 -0.3677 -0.3611 -0.6215
  885MOL0     C19378   8.370   1.999   8.956 -0.2181  0.0553 -0.7827
  885MOL0     C19379   8.334   2.152   8.922 -0.5595 -0.0571 -0.7120
  885MOL0     C19380   8.201   2.166   8.855 -0.5582  0.5213 -1.0841
  885MOL0     C19381   8.167   2.312   8.831  0.0377  0.5226  0.7968
  885MOL0     C19382   8.036   2.313   8.765 -0.0411  0.8861 -0.3588
  885MOL0     C19383   7.983   2.460   8.759 -0.0874  0.5423  0.7446
  885MOL0     C19384   8.006   2.550   8.634  0.3830  0.2218  0.3245
  885MOL0    Cl19385   7.916   2.484   8.500 -0.4125 -0.0334 -0.5078
  885MOL0     C19386   8.671   1.890   9.255  0.1347  0.3534  0.7451
  885MOL0     C19387   8.794   1.871   9.332  0.4983  0.8994 -1.0948
  885MOL0     O19388   9.044   1.552   9.308  0.3904 -0.5651  0.3824
  885MOL0     C19389   9.269   1.778   9.458  0.3513  0.9082  0.9361
  885MOL0     C19390   9.400   1.790   9.502  0.8941 -0.1196 -0.0125
  885MOL0     N19391  10.057   1.479  10.051 -1.0873  0.8983  0.1624
  885MOL0     N19392  10.160   1.428  10.104  0.4531 -0.1012  0.8887
  885MOL0     C19393  10.958   1.750   9.214 -0.5364  0.5440  0.6008
  885MOL0     C19394  11.022   1.739   9.086 -1.0298  1.3842  1.1556
  885MOL0     C19395  11.118   1.663   8.680  1.1214 -0.5697 -0.3470
  885MOL0     C19396  11.210   1.759   8.641 -1.0263 -1.2533  0.1902
  885MOL0     C19397  11.301   1.719   8.533 -0.4404 -0.1025 -0.6379
  885MOL0     C19398  11.303   1.599   8.474 -1.4752 -0.1362 -0.7238
  885MOL0     O19399  11.379   1.550   8.371  0.0618 -0.0008 -1.0323
  885MOL0     C19400  11.515   1.602   8.360  0.4064 -0.0016  0.1145
  885MOL0     C19401  11.602   1.546   8.477 -0.0660  0.0933 -0.0346
  885MOL0     C19402  11.749   1.594   8.477  0.7494 -1.0761 -0.0820
  885MOL0     C19403  11.756   1.746   8.498 -1.1317 -0.3512 -0.3300
  885MOL0     C19404  11.889   1.791   8.516 -0.4390 -0.2892  1.2418
  885MOL0     C19405  11.995   1.847   8.541 -0.8374  0.4779  0.3239
  885MOL0     C19406  11.210   1.511   8.518  0.7698 -0.2134 -0.1607
  885MOL0     C19407  11.117   1.534   8.620  0.3998 -0.8115  0.1295
  885MOL0     H19408  10.888   2.008   8.922  3.2701 -1.2587 -0.9258
  885MOL0     H19409  10.766   2.012   9.141 -0.4091  0.9167 -0.7251
  885MOL0     H19410  10.768   1.648   9.404  0.0090 -0.6636  0.2735
  885MOL0     H19411  10.882   1.769   9.481  0.5208  1.9671 -1.7636
  885MOL0     H19412  10.717   1.892   9.578  1.5511 -0.4617 -1.4055
  885MOL0     H19413  10.590   1.788   9.504 -0.2132 -1.1750 -1.4907
  885MOL0     H19414  10.590   1.641   9.657 -1.9509  1.3958  0.6489
  885MOL0     H19415  10.766   1.676   9.711 -1.2878  0.6224  4.0937
  885MOL0     H19416  10.718   1.872   9.811  2.1877 -2.1284  0.2578
  885MOL0     H19417  10.539   1.857   9.766  2.3589  0.0256 -2.8599
  885MOL0     H19418  10.705   1.706   9.969  0.7410 -0.1859 -1.6613
  885MOL0     H19419  10.547   1.779   9.995 -1.4057 -1.1925 -0.4203
  885MOL0     H19420  10.426   1.608   9.853  1.2380  1.3814 -1.0335
  885MOL0     H19421  10.571   1.499   9.861 -1.7898 -0.1328 -3.9527
  885MOL0     H19422  10.537   1.519  10.110  1.7836  0.7197 -2.5895
  885MOL0     H19423  10.386   1.597  10.073 -0.7026  0.5518  0.8332
  885MOL0     H19424  10.400   1.323  10.103 -2.5156 -1.7737 -0.3802
  885MOL0     H19425  10.449   1.335   9.941 -0.0506 -1.3651  2.5557
  885MOL0     H19426  10.216   1.465   9.773 -3.3514  4.0057 -1.1830
  885MOL0     H19427   9.887   1.623   9.875 -0.8030 -1.8179  1.1068
  885MOL0     H19428  10.005   1.631   9.752  0.1261  0.9644  1.1305
  885MOL0     H19429   9.803   1.403   9.816  2.5980 -2.9116 -0.7692
  885MOL0     H19430   9.915   1.379   9.701 -1.0753 -1.0521  2.6302
  885MOL0     H19431   9.719   1.444   9.586  0.6098 -0.2474  0.2977
  885MOL0     H19432   9.840   1.574   9.569  1.5347 -0.4179  1.0235
  885MOL0     H19433   9.692   1.683   9.773  0.6252 -0.1589  1.0214
  885MOL0     H19434   9.580   1.559   9.727  2.0379 -1.0058  2.8076
  885MOL0     H19435   9.494   1.471   9.539  2.4607  0.9705  1.4049
  885MOL0     H19436   9.230   1.369   9.339  0.8771 -2.3870  0.4008
  885MOL0     H19437   9.314   1.325   9.483 -0.8865  0.2715  1.4290
  885MOL0     H19438   9.151   1.377   9.494  1.5127 -1.2759  2.6583
  885MOL0     H19439   8.973   1.688   9.103  0.2046 -0.0091 -0.2481
  885MOL0     H19440   8.765   1.716   8.970 -2.9485  3.4680 -2.4828
  885MOL0     H19441   8.447   2.016   9.149  2.6869  0.7255  0.2769
  885MOL0     H19442   8.567   2.046   9.025 -0.1228  0.3605  1.6045
  885MOL0     H19443   8.403   1.957   8.861 -0.4921 -1.2284 -0.3393
  885MOL0     H19444   8.285   1.939   8.990 -0.0132  0.8732  1.3450
  885MOL0     H19445   8.412   2.192   8.857 -0.0893 -0.3423 -0.3321
  885MOL0     H19446   8.338   2.214   9.012  2.4866 -1.4241  0.2477
  885MOL0     H19447   8.218   2.115   8.760  0.6496  1.0465 -1.1738
  885MOL0     H19448   8.127   2.111   8.915  1.5792 -0.7084  0.5847
  885MOL0     H19449   8.246   2.353   8.766  0.3102 -2.2163 -0.7873
  885MOL0     H19450   8.161   2.373   8.921  4.3082  2.2719  0.1708
  885MOL0     H19451   8.061   2.277   8.665  3.3718  0.5758  0.5072
  885MOL0     H19452   7.957   2.250   8.808 -1.3821  2.4097 -0.4910
  885MOL0     H19453   8.025   2.517   8.843  3.2620  0.9397 -1.0217
  885MOL0     H19454   7.878   2.467   8.786 -0.1444  2.3714  0.1581
  885MOL0     H19455   8.113   2.551   8.610  0.5022  0.1424  0.8392
  885MOL0     H19456   7.968   2.651   8.651 -0.4762 -0.1349  0.5840
  885MOL0     H19457   8.590   1.933   9.312 -0.2875 -2.4232  2.4099
  885MOL0     H19458   8.812   1.903   9.434 -2.7405  1.8424 -0.6902
  885MOL0     H19459   9.227   1.873   9.425 -0.6575 -0.6926 -2.9722
  885MOL0     H19460   9.430   1.894   9.516  2.4437 -0.4302 -0.8358
  885MOL0     H19461  10.988   1.688   9.297  1.3442  0.2401 -0.2415
  885MOL0     H19462  11.110   1.676   9.073 -1.9186  0.4962 -1.2045
  885MOL0     H19463  11.205   1.866   8.661  3.1210 -0.5728 -1.4956
  885MOL0     H19464  11.380   1.789   8.508  0.3580  1.0889  4.1560
  885MOL0     H19465  11.556   1.559   8.268  1.9632  1.2496  0.1799
  885MOL0     H19466  11.519   1.712   8.360  0.1847  0.0105  1.0181
  885MOL0     H19467  11.615   1.438   8.461  0.7173 -0.3373  2.8891
  885MOL0     H19468  11.555   1.557   8.575  1.1097  2.5396  0.3256
  885MOL0     H19469  11.788   1.567   8.379  0.7693 -0.1205 -0.3462
  885MOL0     H19470  11.805   1.547   8.559  2.1506  0.6907  0.0364
  885MOL0     H19471  11.705   1.767   8.593  1.4500 -0.8739  1.2724
  885MOL0     H19472  11.709   1.800   8.415 -0.7453 -1.2958 -1.1899
  885MOL0     H19473  12.094   1.888   8.546 -1.1099  1.4026 -1.2631
  885MOL0     H19474  11.213   1.408   8.482 -0.9072 -0.6715  0.9357
  885MOL0     H19475  11.046   1.462   8.660 -1.4036 -0.9991 -3.0590
  886MOL0     O19476   7.850   6.058   7.577 -0.0944  0.3100  0.0076
  886MOL0     C19477   7.964   6.056   7.622  0.0131  0.8027 -0.2091
  886MOL0     O19478   8.021   5.951   7.680  0.9588  0.8898  0.5173
  886MOL0     C19479   7.948   5.839   7.688  0.5190  0.4703  0.6117
  886MOL0     C19480   7.848   5.825   7.781 -0.1197 -0.1907  0.6940
  886MOL0     C19481   7.775   5.704   7.798  0.4960 -0.4675  0.2696
  886MOL0     C19482   7.794   5.602   7.699  0.0546  0.7260  0.3950
  886MOL0     O19483   7.718   5.485   7.718 -0.0919  0.4988  0.1568
  886MOL0     C19484   7.750   5.377   7.620 -0.0349  0.7426 -0.4468
  886MOL0     C19485   7.663   5.248   7.644 -0.0558  0.3153  0.2994
  886MOL0     C19486   7.521   5.266   7.584  0.2352  0.0230 -0.3108
  886MOL0     C19487   7.435   5.140   7.599  0.3315  0.0209 -0.4907
  886MOL0     C19488   7.320   5.149   7.505 -1.0296  0.4542  0.7101
  886MOL0     C19489   7.229   5.266   7.528 -0.1107  0.7892  0.7342
  886MOL0     C19490   7.136   5.257   7.643  0.0298  0.0985 -0.1035
  886MOL0     C19491   7.036   5.377   7.623 -0.4387  1.0269 -0.8079
  886MOL0     N19492   6.977   5.416   7.757 -1.4611  0.2877  0.5313
  886MOL0     C19493   6.877   5.350   7.825 -1.1309  0.3263 -0.1514
  886MOL0     C19494   6.828   5.459   7.905 -0.1007  1.1794 -0.7499
  886MOL0     C19495   6.718   5.433   7.997  0.1977  0.8920 -0.3265
  886MOL0     C19496   6.620   5.552   8.014 -0.0798 -0.4961 -0.0046
  886MOL0     C19497   6.679   5.647   8.112  1.4712  0.2821  0.6233
  886MOL0     C19498   6.560   5.739   8.145  0.2153  0.4027  0.0367
  886MOL0     O19499   6.528   5.807   8.031 -0.2548 -1.0326  0.0339
  886MOL0     C19500   6.553   5.937   8.008  0.5537  0.1293 -0.3805
  886MOL0     C19501   6.476   5.986   7.898  0.9581 -0.3439 -0.5802
  886MOL0     C19502   6.517   6.113   7.842 -0.2241 -0.3570 -0.4727
  886MOL0     C19503   6.437   6.170   7.730  1.0209 -0.9459  0.0321
  886MOL0     C19504   6.630   6.185   7.896 -1.1744  0.2854  0.0320
  886MOL0     C19505   6.690   6.321   7.846  0.2503 -0.0622  0.6152
  886MOL0     O19506   6.658   6.355   7.720 -0.2899 -0.0585  0.8284
  886MOL0     C19507   6.744   6.438   7.650 -0.9557  0.2847 -0.6943
  886MOL0     C19508   6.694   6.559   7.606  0.3368  0.3462 -0.2574
  886MOL0     C19509   6.785   6.651   7.543  0.8408  0.0544 -0.3466
  886MOL0     C19510   6.919   6.612   7.510  0.3948 -0.2922  0.5576
  886MOL0     O19511   6.973   6.706   7.424  0.3980 -0.4903 -0.4669
  886MOL0     C19512   7.056   6.646   7.329  0.2139  0.7096  0.5319
  886MOL0     C19513   7.094   6.746   7.215 -0.4096  0.3442  0.4822
  886MOL0     C19514   7.234   6.713   7.153  1.0707 -0.3116  0.1567
  886MOL0     C19515   7.265   6.804   7.030  0.3570  0.2575 -0.6298
  886MOL0     C19516   7.398   6.879   7.040 -0.1821 -0.2086  0.4206
  886MOL0     C19517   7.412   6.985   6.929  0.4894  1.6324 -0.7447
  886MOL0     C19518   7.550   7.045   6.918 -0.0511  0.0634 -0.4921
  886MOL0     C19519   7.557   7.157   6.820 -0.0797 -0.0798 -0.4173
  886MOL0    Cl19520   7.476   7.298   6.890  0.0771  0.1117  0.0355
  886MOL0     C19521   6.969   6.498   7.564  0.0105  0.8057 -0.3159
  886MOL0     C19522   6.884   6.410   7.640 -0.2985 -0.3494 -0.4459
  886MOL0     O19523   6.768   6.384   7.923 -0.9558 -0.2617  0.4292
  886MOL0     C19524   6.701   6.129   8.003  0.7642  0.4752 -0.5458
  886MOL0     C19525   6.660   6.009   8.062  0.7296 -0.1283 -0.0029
  886MOL0     N19526   6.896   5.570   7.884  0.1848 -0.6509 -0.1650
  886MOL0     N19527   6.990   5.542   7.804 -0.3829 -0.1559 -0.1066
  886MOL0     C19528   7.894   5.623   7.593  1.0302  0.6771 -0.5179
  886MOL0     C19529   7.966   5.744   7.583  0.3990  0.3788 -0.6430
  886MOL0     C19530   8.031   6.189   7.635 -0.5448 -1.0945  2.0233
  886MOL0     C19531   7.963   6.310   7.620  1.2435 -0.8103  0.9074
  886MOL0     C19532   8.028   6.436   7.650  0.5651 -0.3360 -0.0507
  886MOL0     C19533   8.156   6.430   7.707  0.1229  0.0793 -0.2649
  886MOL0     O19534   8.217   6.549   7.744 -0.0166  0.4861  0.1327
  886MOL0     C19535   8.137   6.612   7.841  0.3720 -0.3482 -0.1391
  886MOL0     C19536   8.208   6.598   7.980  1.4141  0.3379 -0.2854
  886MOL0     C19537   8.361   6.615   7.974 -0.3318 -0.0352  0.4954
  886MOL0     C19538   8.425   6.570   8.107 -0.6312 -0.2920  0.2715
  886MOL0     C19539   8.414   6.687   8.195  0.2869  0.4585  0.4936
  886MOL0     C19540   8.422   6.788   8.256 -0.5780  0.5285 -0.4083
  886MOL0     C19541   8.225   6.310   7.711  0.1141 -0.8854  0.1115
  886MOL0     C19542   8.165   6.192   7.669  0.2508 -0.4774 -0.3385
  886MOL0     H19543   7.831   5.906   7.851 -2.8508  1.5197 -1.7231
  886MOL0     H19544   7.706   5.695   7.881  1.0871  2.0666  1.1326
  886MOL0     H19545   7.743   5.427   7.522 -1.1917  1.7676  0.1237
  886MOL0     H19546   7.852   5.343   7.635 -0.1601  1.0928  1.5290
  886MOL0     H19547   7.720   5.170   7.592  3.2685  1.7207  1.5662
  886MOL0     H19548   7.646   5.218   7.748 -4.0766 -0.5022 -0.4228
  886MOL0     H19549   7.471   5.347   7.638  0.3457 -1.5252  2.2717
  886MOL0     H19550   7.525   5.289   7.477 -0.7590  0.1839 -0.3255
  886MOL0     H19551   7.501   5.054   7.578  0.0339 -0.3109 -0.0629
  886MOL0     H19552   7.406   5.118   7.702 -2.3724  1.1718 -0.9304
  886MOL0     H19553   7.362   5.158   7.404 -1.7873  1.6229  0.4894
  886MOL0     H19554   7.263   5.057   7.519 -1.3442  0.8661  2.2826
  886MOL0     H19555   7.276   5.365   7.522 -0.3360  0.8051 -1.8705
  886MOL0     H19556   7.163   5.276   7.442 -3.1401 -2.1149  2.4942
  886MOL0     H19557   7.074   5.166   7.646  0.1034  0.0176 -1.0346
  886MOL0     H19558   7.191   5.275   7.736 -0.4313 -0.9694  0.3957
  886MOL0     H19559   6.956   5.348   7.555 -2.4506 -0.4780  1.9890
  886MOL0     H19560   7.085   5.467   7.587  0.7772  1.2053  1.1289
  886MOL0     H19561   6.839   5.249   7.816  1.0063 -0.6560  1.1458
  886MOL0     H19562   6.665   5.346   7.957  0.7060 -0.6175  2.0212
  886MOL0     H19563   6.755   5.395   8.093  0.1985 -1.5687 -1.2046
  886MOL0     H19564   6.522   5.516   8.046 -0.2577  0.9936  1.2489
  886MOL0     H19565   6.605   5.594   7.914 -0.5814 -1.7123 -0.4685
  886MOL0     H19566   6.767   5.703   8.077  1.9643 -1.7485 -1.6658
  886MOL0     H19567   6.714   5.590   8.198  3.2799 -0.0568 -0.2694
  886MOL0     H19568   6.581   5.805   8.231 -1.1190  0.2878  0.4778
  886MOL0     H19569   6.474   5.676   8.170  1.9311 -1.7553  0.8529
  886MOL0     H19570   6.386   5.941   7.856  1.2944  0.1748 -1.9291
  886MOL0     H19571   6.419   6.276   7.749  0.3602 -0.3760 -3.1935
  886MOL0     H19572   6.479   6.146   7.632  0.5798  2.0035 -0.9888
  886MOL0     H19573   6.347   6.109   7.718  0.3425  0.0741 -0.1617
  886MOL0     H19574   6.588   6.581   7.618  0.4938  1.4080 -0.7712
  886MOL0     H19575   6.761   6.755   7.524 -1.8147 -0.3848  0.1637
  886MOL0     H19576   7.154   6.617   7.370  1.3532  2.0471 -1.0692
  886MOL0     H19577   7.009   6.555   7.292 -1.8666  1.6678  0.6892
  886MOL0     H19578   7.019   6.754   7.136  0.0251 -0.4797 -0.0278
  886MOL0     H19579   7.097   6.849   7.253 -2.1131  1.1752 -1.4381
  886MOL0     H19580   7.234   6.608   7.121  0.6035 -0.1048 -0.5334
  886MOL0     H19581   7.312   6.735   7.227 -0.0329  0.4541  1.1218
  886MOL0     H19582   7.279   6.752   6.935 -1.7603 -5.2451  1.6229
  886MOL0     H19583   7.174   6.865   7.020 -0.1599  0.5936  3.8220
  886MOL0     H19584   7.484   6.814   7.027  0.8435  0.5449  2.8438
  886MOL0     H19585   7.409   6.935   7.134  1.2139  0.0131  0.1450
  886MOL0     H19586   7.386   6.943   6.832 -2.0476 -0.5750  0.7440
  886MOL0     H19587   7.339   7.062   6.954 -2.7370 -1.0802 -1.1268
  886MOL0     H19588   7.624   6.968   6.890  0.4726  0.3369  0.0993
  886MOL0     H19589   7.577   7.078   7.019 -0.7687 -1.0547  0.0891
  886MOL0     H19590   7.527   7.114   6.723  3.0645 -0.2225 -1.4252
  886MOL0     H19591   7.661   7.179   6.796  0.0808 -1.4223 -1.0909
  886MOL0     H19592   7.070   6.469   7.539 -0.3679  0.8097 -1.9184
  886MOL0     H19593   6.930   6.320   7.679  2.1675  1.0835  0.2247
  886MOL0     H19594   6.793   6.166   8.047  0.3298  0.8399  0.0621
  886MOL0     H19595   6.724   5.971   8.141  1.4624  0.7335 -0.1607
  886MOL0     H19596   7.893   5.554   7.510 -0.5802 -1.5574  1.2060
  886MOL0     H19597   8.024   5.762   7.493 -0.4358 -2.6256 -1.8926
  886MOL0     H19598   7.864   6.306   7.575  0.4246  2.7492  2.0592
  886MOL0     H19599   7.974   6.530   7.641  4.3739  2.0262 -0.9010
  886MOL0     H19600   8.136   6.719   7.820 -1.7551 -0.3482 -0.2791
  886MOL0     H19601   8.036   6.575   7.857 -0.3575  1.2355 -0.8459
  886MOL0     H19602   8.184   6.498   8.019  2.2517  0.0613 -0.4544
  886MOL0     H19603   8.166   6.663   8.057  1.9420 -0.0838  0.3748
  886MOL0     H19604   8.403   6.711   7.943  2.1957 -1.1666  0.1624
  886MOL0     H19605   8.401   6.540   7.906 -1.1585  0.6211 -0.7577
  886MOL0     H19606   8.530   6.542   8.094 -1.0381 -1.2897 -1.1222
  886MOL0     H19607   8.377   6.486   8.158  1.0590 -1.1213  0.5729
  886MOL0     H19608   8.413   6.876   8.316  2.3032  0.0532  0.9255
  886MOL0     H19609   8.328   6.309   7.742  0.5086 -0.1000 -1.0965
  886MOL0     H19610   8.227   6.102   7.675  0.5239 -0.2619  0.1263
  887MOL0     O19611   5.277  11.316  10.859 -0.4573 -0.0362  0.3695
  887MOL0     C19612   5.289  11.244  10.964 -0.0825 -0.1781 -0.4285
  887MOL0     O19613   5.344  11.121  10.973  0.4966 -0.2414  0.1763
  887MOL0     C19614   5.420  11.087  10.864  0.2113  0.4771  0.2261
  887MOL0     C19615   5.519  11.174  10.816  0.5081  0.2888 -0.5341
  887MOL0     C19616   5.607  11.135  10.711  0.1362 -0.2106 -0.4429
  887MOL0     C19617   5.596  11.014  10.648  0.4175  0.4139  0.7237
  887MOL0     O19618   5.667  10.965  10.542  0.0654  0.8638 -0.4235
  887MOL0     C19619   5.813  10.988  10.535  0.8092  0.2665  1.0666
  887MOL0     C19620   5.899  10.895  10.610 -0.1070 -0.4511 -0.0877
  887MOL0     C19621   5.893  10.744  10.573  0.8900 -0.3830 -0.0542
  887MOL0     C19622   6.017  10.669  10.632  0.6665 -0.3172  0.7702
  887MOL0     C19623   6.003  10.514  10.625 -0.1277 -0.9030  0.2906
  887MOL0     C19624   6.015  10.452  10.480 -0.1422 -0.2617 -0.3359
  887MOL0     C19625   6.147  10.475  10.410 -0.3533 -1.0097  0.6707
  887MOL0     C19626   6.256  10.384  10.453 -0.2702  0.5981 -0.2464
  887MOL0     N19627   6.383  10.412  10.377 -0.3425 -0.1271 -0.0865
  887MOL0     C19628   6.396  10.412  10.241  0.7324  0.2375 -0.0635
  887MOL0     C19629   6.516  10.484  10.218  0.0758  1.0850  0.4458
  887MOL0     C19630   6.595  10.506  10.083  0.6223 -0.2484  0.0042
  887MOL0     C19631   6.506  10.602   9.999 -0.5043 -1.0039 -0.1613
  887MOL0     C19632   6.606  10.703   9.940 -0.6775 -0.9688 -0.2792
  887MOL0     C19633   6.575  10.770   9.803 -0.5910 -0.3818  0.3208
  887MOL0     O19634   6.447  10.843   9.806  0.3712 -0.7718  0.1031
  887MOL0     C19635   6.444  10.960   9.880  0.9691 -0.2889 -0.5997
  887MOL0     C19636   6.538  11.063   9.864  0.1756  0.4053 -0.3835
  887MOL0     C19637   6.539  11.177   9.947  0.4512 -0.2741  0.0609
  887MOL0     C19638   6.650  11.278   9.925  0.5424  0.0536 -0.9611
  887MOL0     C19639   6.441  11.191  10.050  0.4951 -0.2634 -0.6335
  887MOL0     C19640   6.421  11.303  10.136  0.2103  0.4744  1.6323
  887MOL0     O19641   6.486  11.415  10.119 -0.0272  0.7404 -0.5003
  887MOL0     C19642   6.455  11.515  10.207  0.3747 -0.6161  0.4609
  887MOL0     C19643   6.318  11.557  10.239  0.5838 -0.3464  0.3327
  887MOL0     C19644   6.295  11.670  10.307  0.3742  0.7869 -0.5195
  887MOL0     C19645   6.411  11.741  10.353 -0.5882 -0.2109 -0.5460
  887MOL0     O19646   6.380  11.832  10.442  0.6011  0.5023  0.2448
  887MOL0     C19647   6.447  11.836  10.565  0.6214 -0.0100 -0.5163
  887MOL0     C19648   6.399  11.718  10.658 -0.5425 -0.0714  0.0790
  887MOL0     C19649   6.385  11.755  10.804 -0.4070  0.8709  0.5548
  887MOL0     C19650   6.522  11.808  10.866 -0.2516 -0.2716  0.6447
  887MOL0     C19651   6.587  11.685  10.929 -0.5295 -0.1749 -0.2635
  887MOL0     C19652   6.739  11.689  10.957 -1.5339  0.1018  0.3816
  887MOL0     C19653   6.801  11.552  10.931 -0.4868 -0.2976  0.3893
  887MOL0     C19654   6.933  11.531  11.002  0.0400 -0.2710  0.6762
  887MOL0    Cl19655   6.994  11.371  10.942 -0.1316  0.7641 -0.0573
  887MOL0     C19656   6.544  11.701  10.328  0.8434 -0.2216 -0.5258
  887MOL0     C19657   6.564  11.590  10.255  1.2599  0.1403  0.4694
  887MOL0     O19658   6.363  11.277  10.243  0.4418  0.6716  0.2937
  887MOL0     C19659   6.350  11.087  10.072 -0.6768 -0.2601 -0.5917
  887MOL0     C19660   6.357  10.974   9.992  0.1654  0.3348 -1.2853
  887MOL0     N19661   6.570  10.525  10.340 -0.0858  0.3463 -0.1106
  887MOL0     N19662   6.489  10.481  10.431 -0.9451 -1.0018 -0.1864
  887MOL0     C19663   5.495  10.925  10.686  0.3905  0.8078  0.4322
  887MOL0     C19664   5.408  10.966  10.789 -0.3219 -0.1974 -0.2109
  887MOL0     C19665   5.223  11.298  11.089 -0.4230 -0.7277  0.6010
  887MOL0     C19666   5.215  11.232  11.214 -0.2993 -0.5549  0.3096
  887MOL0     C19667   5.175  11.308  11.329  0.2792  0.6015 -0.3340
  887MOL0     C19668   5.114  11.430  11.323 -0.3938 -0.4457  0.1382
  887MOL0     O19669   5.074  11.497  11.431 -0.6206  0.3652  0.2286
  887MOL0     C19670   5.159  11.611  11.447 -0.8777  0.2284  0.8458
  887MOL0     C19671   5.132  11.691  11.573 -0.1420  1.3071 -0.6670
  887MOL0     C19672   5.004  11.770  11.569  0.6887 -1.0078 -0.1431
  887MOL0     C19673   4.892  11.708  11.657 -0.5810  0.3943  0.8212
  887MOL0     C19674   4.753  11.752  11.633  0.7188  0.4022  0.0482
  887MOL0     C19675   4.630  11.776  11.611 -1.3222  0.4395 -0.2658
  887MOL0     C19676   5.113  11.488  11.198  0.8207 -1.3036  0.2208
  887MOL0     C19677   5.175  11.429  11.086  0.1634 -0.1899  0.6613
  887MOL0     H19678   5.519  11.276  10.853  0.4150  0.7809 -1.8330
  887MOL0     H19679   5.695  11.191  10.680  1.2970 -1.1579  1.0079
  887MOL0     H19680   5.837  10.965  10.431 -0.4901 -0.8481  0.9752
  887MOL0     H19681   5.839  11.092  10.554 -0.1048  0.9197 -1.0184
  887MOL0     H19682   6.005  10.919  10.614 -0.6829  2.4307  2.8670
  887MOL0     H19683   5.860  10.903  10.712  0.8266  3.1226  0.1399
  887MOL0     H19684   5.796  10.709  10.608  1.0636 -2.7066 -1.6775
  887MOL0     H19685   5.897  10.724  10.466  2.8430  3.5305 -0.9263
  887MOL0     H19686   6.110  10.695  10.582  1.1250 -2.0466  0.6407
  887MOL0     H19687   6.025  10.699  10.737  3.2399 -1.8073  1.0787
  887MOL0     H19688   6.086  10.473  10.683  2.5469  2.8215 -0.5117
  887MOL0     H19689   5.901  10.498  10.662 -0.5351 -0.6976 -0.6951
  887MOL0     H19690   5.988  10.347  10.466  1.0798 -0.6007 -0.2657
  887MOL0     H19691   5.949  10.501  10.408  0.0134 -0.0453 -0.3333
  887MOL0     H19692   6.129  10.447  10.306  2.3685 -1.8811  0.3594
  887MOL0     H19693   6.179  10.578  10.427 -1.3285 -1.0339  3.0820
  887MOL0     H19694   6.246  10.288  10.402  1.4786 -0.4496  1.2441
  887MOL0     H19695   6.267  10.384  10.562  0.4258 -2.2746 -0.2305
  887MOL0     H19696   6.334  10.356  10.172 -1.0437 -0.6115  2.0894
  887MOL0     H19697   6.701  10.532  10.096  1.3210 -2.2226 -1.3071
  887MOL0     H19698   6.597  10.410  10.030 -1.1573  0.2774 -1.1227
  887MOL0     H19699   6.435  10.661  10.059  0.1862 -2.7004  2.5051
  887MOL0     H19700   6.479  10.552   9.906  0.7902  1.1066 -1.7569
  887MOL0     H19701   6.710  10.669   9.931  0.5599  2.9317 -3.3458
  887MOL0     H19702   6.607  10.783  10.014 -0.6964 -1.2898  0.0710
  887MOL0     H19703   6.579  10.703   9.716  0.7844  0.1948 -0.0813
  887MOL0     H19704   6.651  10.847   9.789 -0.6298 -0.6083 -1.3240
  887MOL0     H19705   6.617  11.045   9.792  0.2601  1.2156 -0.5081
  887MOL0     H19706   6.703  11.285  10.020 -2.3545  3.4313  0.6707
  887MOL0     H19707   6.722  11.242   9.851 -0.1494 -1.3037 -1.0083
  887MOL0     H19708   6.614  11.381   9.912 -2.4715 -0.7644  0.1550
  887MOL0     H19709   6.225  11.509  10.210 -0.7294  0.8488  2.3551
  887MOL0     H19710   6.192  11.688  10.336  0.3490 -1.9687  1.4434
  887MOL0     H19711   6.556  11.840  10.574  0.7808  0.6236 -2.3444
  887MOL0     H19712   6.411  11.926  10.615 -0.6917  0.6284 -2.4715
  887MOL0     H19713   6.302  11.680  10.624  1.0582 -3.1091 -1.5466
  887MOL0     H19714   6.475  11.640  10.644 -0.5614 -0.1492  0.4038
  887MOL0     H19715   6.345  11.666  10.854  3.1565 -0.1900  1.7855
  887MOL0     H19716   6.318  11.841  10.802 -1.4189  0.1136  0.7017
  887MOL0     H19717   6.577  11.859  10.787 -1.6869  0.9532  0.3954
  887MOL0     H19718   6.504  11.887  10.939  0.6710  0.4262  0.1337
  887MOL0     H19719   6.573  11.599  10.862  1.0184 -0.4209 -0.2897
  887MOL0     H19720   6.537  11.674  11.025  0.5855  2.5306  0.7232
  887MOL0     H19721   6.781  11.755  10.880  0.1913 -0.4002  0.8368
  887MOL0     H19722   6.764  11.722  11.058 -4.0607  0.9834  0.7895
  887MOL0     H19723   6.819  11.549  10.823  0.2607  0.9221  0.4537
  887MOL0     H19724   6.736  11.472  10.968 -1.1294 -0.2073 -0.5221
  887MOL0     H19725   6.919  11.535  11.110  1.3536  1.5373  0.8195
  887MOL0     H19726   6.993  11.613  10.962 -0.9982 -0.9070 -2.4781
  887MOL0     H19727   6.624  11.754  10.379  2.0653 -0.8986 -1.6677
  887MOL0     H19728   6.662  11.561  10.220  1.8165 -0.6444  2.5883
  887MOL0     H19729   6.278  11.095  10.153  0.6114  1.5113  0.4396
  887MOL0     H19730   6.296  10.888  10.017  0.6219  1.0237  2.9755
  887MOL0     H19731   5.466  10.834  10.634 -0.7134  0.8951  0.8486
  887MOL0     H19732   5.327  10.900  10.820 -2.0370  1.6110 -0.6766
  887MOL0     H19733   5.249  11.131  11.235  2.0051  0.1979  0.4598
  887MOL0     H19734   5.192  11.252  11.421 -2.1451 -1.2508 -0.8914
  887MOL0     H19735   5.262  11.578  11.466 -1.3109 -0.6583  1.7179
  887MOL0     H19736   5.158  11.681  11.362  1.7520  2.1234  2.2157
  887MOL0     H19737   5.221  11.752  11.590 -0.2260  0.9188  1.3070
  887MOL0     H19738   5.129  11.625  11.660 -0.4065  2.7341  0.4245
  887MOL0     H19739   4.966  11.788  11.468 -0.1392  1.5063  0.5393
  887MOL0     H19740   5.022  11.871  11.607 -1.4056 -0.4167 -0.6054
  887MOL0     H19741   4.923  11.710  11.762  3.3447 -1.9201 -0.0567
  887MOL0     H19742   4.887  11.600  11.641  1.4620  0.7069 -3.4878
  887MOL0     H19743   4.525  11.792  11.594 -1.3845 -0.3866 -0.7141
  887MOL0     H19744   5.054  11.579  11.200 -2.1858 -3.1441  0.7121
  887MOL0     H19745   5.165  11.489  10.996 -1.3070  3.9334  3.3041
  888MOL0     O19746   5.318   8.061   3.848  0.2633  0.1986 -0.0175
  888MOL0     C19747   5.299   8.161   3.912 -0.0370 -0.3854  0.8092
  888MOL0     O19748   5.224   8.180   4.018 -0.3132 -0.1546 -0.0431
  888MOL0     C19749   5.149   8.071   4.054 -0.1038 -1.1078 -0.6316
  888MOL0     C19750   5.010   8.084   4.067 -0.1942 -0.8956 -0.0473
  888MOL0     C19751   4.937   7.980   4.127  0.3955 -0.7468  0.3993
  888MOL0     C19752   4.998   7.866   4.190  1.3961 -0.4028 -0.0413
  888MOL0     O19753   4.933   7.772   4.265  0.2983  0.2692 -0.2276
  888MOL0     C19754   4.793   7.776   4.280 -0.1664 -0.2517  0.4094
  888MOL0     C19755   4.772   7.869   4.402 -0.2191  0.4752  0.4261
  888MOL0     C19756   4.755   7.786   4.529  0.0889  0.0401  0.1129
  888MOL0     C19757   4.895   7.730   4.563  0.7884  0.5376 -0.4228
  888MOL0     C19758   4.907   7.698   4.714  0.1780 -0.2037  0.0489
  888MOL0     C19759   5.034   7.627   4.757 -1.3585 -0.6011 -0.1460
  888MOL0     C19760   5.037   7.594   4.905 -0.7783  0.3528 -0.0769
  888MOL0     C19761   5.095   7.708   4.982 -0.7639  0.1781 -0.4452
  888MOL0     N19762   5.166   7.670   5.111  0.9273  0.7922 -0.5197
  888MOL0     C19763   5.276   7.736   5.148 -0.4811 -0.3866  0.8007
  888MOL0     C19764   5.334   7.651   5.232 -0.6028 -1.4709 -0.2555
  888MOL0     C19765   5.466   7.690   5.294  0.8063 -0.1624 -0.1105
  888MOL0     C19766   5.585   7.634   5.224 -0.4379  0.0842 -0.3828
  888MOL0     C19767   5.617   7.506   5.284  0.5956  1.2017  0.7063
  888MOL0     C19768   5.750   7.467   5.244 -0.7245 -0.0765  0.2257
  888MOL0     O19769   5.861   7.534   5.309  1.0300 -0.0693 -0.1697
  888MOL0     C19770   5.927   7.463   5.411 -0.3274 -0.3863  0.5297
  888MOL0     C19771   5.872   7.371   5.499  0.0490  0.5440 -0.1701
  888MOL0     C19772   5.946   7.285   5.574  0.4350 -0.5994  0.2436
  888MOL0     C19773   5.874   7.174   5.645  0.1970 -0.4518 -0.4975
  888MOL0     C19774   6.087   7.286   5.559 -0.5168  0.2571  0.2712
  888MOL0     C19775   6.181   7.183   5.622 -0.7595  0.7181  0.8303
  888MOL0     O19776   6.272   7.224   5.710  0.3334 -0.2192 -0.8114
  888MOL0     C19777   6.357   7.131   5.757 -0.5475  0.8249  0.5650
  888MOL0     C19778   6.489   7.147   5.728 -0.5665 -0.2399  0.1429
  888MOL0     C19779   6.583   7.062   5.774  0.0775 -0.1389  0.3047
  888MOL0     C19780   6.553   6.949   5.852  0.2513 -0.3401 -0.2638
  888MOL0     O19781   6.642   6.868   5.906  0.1301 -0.3906 -0.2707
  888MOL0     C19782   6.733   6.823   5.817 -0.1795  0.5578 -0.2420
  888MOL0     C19783   6.795   6.675   5.848 -0.1412 -0.4994  0.1564
  888MOL0     C19784   6.910   6.656   5.751 -0.1466 -0.7512  0.3166
  888MOL0     C19785   6.976   6.528   5.766 -0.4221  0.1809  0.4308
  888MOL0     C19786   7.084   6.518   5.666  0.2607 -0.1106  0.0014
  888MOL0     C19787   7.169   6.397   5.664  0.3565 -0.8120 -0.6476
  888MOL0     C19788   7.111   6.280   5.580 -0.5979 -0.0308 -0.5430
  888MOL0     C19789   7.182   6.142   5.598  0.2303  0.3268  1.1747
  888MOL0    Cl19790   7.085   6.019   5.522  0.4794  0.0871 -0.3534
  888MOL0     C19791   6.419   6.936   5.888  1.3514  0.0719 -0.0309
  888MOL0     C19792   6.329   7.027   5.843 -0.3791  0.4922  0.0459
  888MOL0     O19793   6.161   7.069   5.582 -0.3599  0.7191  0.3325
  888MOL0     C19794   6.146   7.395   5.479  0.1239 -0.1689  0.0585
  888MOL0     C19795   6.064   7.480   5.411 -0.1365  0.7309 -0.2043
  888MOL0     N19796   5.256   7.542   5.255  0.4066  0.0063  0.5341
  888MOL0     N19797   5.153   7.552   5.175 -0.1827 -0.2083  1.0351
  888MOL0     C19798   5.134   7.855   4.184 -0.3110 -0.4559 -0.3383
  888MOL0     C19799   5.204   7.959   4.122  0.4272 -0.4519  0.3309
  888MOL0     C19800   5.377   8.277   3.874 -0.1957 -0.8491 -0.4290
  888MOL0     C19801   5.308   8.407   3.873 -0.7644  0.7591  0.6885
  888MOL0     C19802   5.367   8.514   3.809  0.0627 -0.7480 -0.3070
  888MOL0     C19803   5.488   8.502   3.737 -0.1828 -0.5386  1.1098
  888MOL0     O19804   5.530   8.620   3.674 -0.4726  0.2733  0.1775
  888MOL0     C19805   5.671   8.643   3.657 -0.4421  0.0853 -0.0572
  888MOL0     C19806   5.695   8.781   3.609  0.6015 -0.1878  0.7059
  888MOL0     C19807   5.836   8.799   3.545  0.1305  0.2633  0.3097
  888MOL0     C19808   5.832   8.902   3.430  0.3039  0.0946 -0.1174
  888MOL0     C19809   5.772   8.865   3.298 -0.2853 -0.2192 -1.0772
  888MOL0     C19810   5.718   8.831   3.188  0.0312 -0.1246 -0.7077
  888MOL0     C19811   5.559   8.383   3.754  0.3798  0.3011  0.6466
  888MOL0     C19812   5.509   8.272   3.817 -0.0150  0.2729  0.1363
  888MOL0     H19813   4.959   8.176   4.039  1.2819 -0.1016 -0.2278
  888MOL0     H19814   4.831   7.999   4.139  0.0859 -2.3103  0.4267
  888MOL0     H19815   4.756   7.809   4.183  1.7594 -0.9897 -0.6253
  888MOL0     H19816   4.770   7.672   4.304  2.9013 -0.6722  2.0356
  888MOL0     H19817   4.842   7.953   4.407  0.4416  0.0941 -1.5953
  888MOL0     H19818   4.670   7.908   4.391 -0.8234 -1.6048 -2.7929
  888MOL0     H19819   4.714   7.847   4.610 -2.1552 -3.2712  1.7110
  888MOL0     H19820   4.680   7.707   4.519 -1.7560  1.4851  1.6963
  888MOL0     H19821   4.912   7.633   4.515  0.5630 -0.7026  1.8674
  888MOL0     H19822   4.967   7.803   4.524  1.8689 -0.3665 -0.1589
  888MOL0     H19823   4.901   7.793   4.768 -2.7539 -1.0900  1.5214
  888MOL0     H19824   4.825   7.630   4.739  1.6923 -2.0412  0.2246
  888MOL0     H19825   5.058   7.545   4.688  3.0007  0.5442 -0.3178
  888MOL0     H19826   5.117   7.690   4.721 -1.9951 -0.8915 -2.2432
  888MOL0     H19827   4.937   7.566   4.940 -0.7306 -0.8546 -0.8667
  888MOL0     H19828   5.090   7.499   4.911  1.2722  1.4187 -0.6304
  888MOL0     H19829   5.010   7.768   5.015 -0.8657 -0.3396  0.2507
  888MOL0     H19830   5.158   7.780   4.929 -3.4809  4.4564  1.5876
  888MOL0     H19831   5.318   7.829   5.112  1.4804 -1.5955 -0.2362
  888MOL0     H19832   5.479   7.797   5.277 -0.0414 -0.2241 -1.2858
  888MOL0     H19833   5.460   7.653   5.397  3.7675  0.3188  0.3100
  888MOL0     H19834   5.667   7.703   5.245 -0.5873 -0.0690  0.7512
  888MOL0     H19835   5.570   7.631   5.115  0.3153  0.4835 -0.5065
  888MOL0     H19836   5.545   7.434   5.244 -0.9368  2.4440  1.1509
  888MOL0     H19837   5.601   7.514   5.392 -3.4275  2.7638  0.1429
  888MOL0     H19838   5.759   7.465   5.135  2.3198  1.9696  0.2976
  888MOL0     H19839   5.758   7.360   5.262  3.1946 -0.1764 -1.1046
  888MOL0     H19840   5.764   7.358   5.501  0.0547  0.3165  2.6232
  888MOL0     H19841   5.936   7.155   5.732 -0.4218 -1.8627 -0.3332
  888MOL0     H19842   5.774   7.208   5.674  0.0064 -0.2935 -1.3035
  888MOL0     H19843   5.877   7.082   5.585  1.7912  0.1348 -1.3686
  888MOL0     H19844   6.531   7.236   5.682 -0.6929 -1.2179 -1.9746
  888MOL0     H19845   6.687   7.093   5.766 -0.3593  1.0815 -1.0339
  888MOL0     H19846   6.701   6.804   5.714 -0.6401 -0.6976  0.1103
  888MOL0     H19847   6.813   6.897   5.826 -0.2526  0.5527  0.4888
  888MOL0     H19848   6.836   6.673   5.949  1.2884  1.4406 -0.3174
  888MOL0     H19849   6.720   6.597   5.832 -1.7077  1.1867 -0.9699
  888MOL0     H19850   6.983   6.731   5.781 -0.7976  1.4546 -3.0931
  888MOL0     H19851   6.882   6.665   5.645 -2.2036 -2.0356  0.6961
  888MOL0     H19852   7.023   6.512   5.864  2.6776  0.0636 -0.9693
  888MOL0     H19853   6.905   6.446   5.749  2.3002 -1.5880 -4.2740
  888MOL0     H19854   7.147   6.604   5.686  0.4596 -0.2222 -0.1397
  888MOL0     H19855   7.037   6.532   5.568  0.4381  1.2492  0.0902
  888MOL0     H19856   7.270   6.419   5.630  0.3290 -0.8841 -0.7765
  888MOL0     H19857   7.182   6.366   5.768 -2.6637 -0.0100  0.0576
  888MOL0     H19858   7.093   6.302   5.474  1.7499  3.5951 -0.3492
  888MOL0     H19859   7.016   6.261   5.630 -2.0306  1.5018 -2.5176
  888MOL0     H19860   7.202   6.120   5.703  0.8549  1.1359  1.2405
  888MOL0     H19861   7.284   6.144   5.559 -0.2187 -3.5421 -0.6444
  888MOL0     H19862   6.392   6.857   5.957  1.5345 -0.1408 -0.1987
  888MOL0     H19863   6.228   7.021   5.882 -0.3044 -0.4943  0.1083
  888MOL0     H19864   6.254   7.407   5.479  0.0151  0.9751  0.4738
  888MOL0     H19865   6.110   7.563   5.358 -0.7740  2.1827  1.4237
  888MOL0     H19866   5.198   7.770   4.206 -0.4919 -0.0363  2.0743
  888MOL0     H19867   5.312   7.944   4.126  0.8681  2.0092 -0.3097
  888MOL0     H19868   5.216   8.425   3.926  0.0807 -0.0315  2.5314
  888MOL0     H19869   5.310   8.606   3.815  1.6753  0.3102 -0.6736
  888MOL0     H19870   5.723   8.616   3.749 -2.7492 -1.3593  0.9020
  888MOL0     H19871   5.703   8.569   3.583  2.6422  1.4099 -0.1945
  888MOL0     H19872   5.675   8.848   3.694 -3.9913 -2.0668  1.3899
  888MOL0     H19873   5.627   8.814   3.530  1.5470 -0.7695 -0.3862
  888MOL0     H19874   5.873   8.702   3.513 -1.7596 -1.3151  2.5582
  888MOL0     H19875   5.898   8.840   3.626 -0.7374 -1.2848  1.8352
  888MOL0     H19876   5.930   8.939   3.399  0.3391 -0.3952 -0.6094
  888MOL0     H19877   5.777   8.988   3.468  0.8903  0.2781  0.3372
  888MOL0     H19878   5.672   8.795   3.098  0.0306  1.2228 -1.2554
  888MOL0     H19879   5.656   8.365   3.709 -1.4065 -2.4087 -2.6268
  888MOL0     H19880   5.553   8.173   3.819 -0.4852  0.0590  0.2065
  889MOL0     O19881   8.662   8.234   4.730  0.4988  0.0733  0.7172
  889MOL0     C19882   8.779   8.260   4.693  0.4598 -0.5166 -0.1619
  889MOL0     O19883   8.869   8.298   4.781  0.0976 -0.4336  0.2136
  889MOL0     C19884   8.831   8.288   4.917  0.6009 -0.7115 -0.2444
  889MOL0     C19885   8.856   8.185   5.004  0.1527 -0.2084 -0.5252
  889MOL0     C19886   8.800   8.178   5.130 -0.3468  0.4862  1.4601
  889MOL0     C19887   8.732   8.282   5.181  1.2774 -0.1259 -0.1107
  889MOL0     O19888   8.705   8.277   5.312  0.9107  0.2790  0.0136
  889MOL0     C19889   8.634   8.395   5.367 -0.2372  0.0991  0.6149
  889MOL0     C19890   8.625   8.369   5.507  0.3032  0.4816 -0.7838
  889MOL0     C19891   8.553   8.481   5.584 -0.7883 -0.2698 -0.4856
  889MOL0     C19892   8.581   8.472   5.733  0.6140 -0.4678 -0.3388
  889MOL0     C19893   8.528   8.598   5.803  0.4473 -0.1170  1.0326
  889MOL0     C19894   8.624   8.637   5.926 -0.0185 -0.0524  0.5843
  889MOL0     C19895   8.609   8.537   6.048 -0.4139 -0.6224  0.0439
  889MOL0     C19896   8.688   8.586   6.171 -0.4000  0.1509 -0.3781
  889MOL0     N19897   8.608   8.680   6.245  0.4922  0.5417 -0.0702
  889MOL0     C19898   8.494   8.654   6.310 -0.1447 -0.5300 -0.0682
  889MOL0     C19899   8.466   8.763   6.375  0.1851 -0.1428  0.4414
  889MOL0     C19900   8.354   8.782   6.470  0.8361  0.1871 -0.6927
  889MOL0     C19901   8.396   8.743   6.610  0.1187 -0.3100  0.3098
  889MOL0     C19902   8.504   8.828   6.667 -0.3498 -0.0069  0.2075
  889MOL0     C19903   8.504   8.828   6.821 -0.0913  0.4644  0.0642
  889MOL0     O19904   8.535   8.691   6.870  0.8007 -0.7356  0.7764
  889MOL0     C19905   8.588   8.674   6.999  0.6896 -0.1872 -0.4132
  889MOL0     C19906   8.607   8.767   7.094 -0.0617  0.8559  0.8032
  889MOL0     C19907   8.658   8.742   7.222  0.1653 -0.1111  0.4268
  889MOL0     C19908   8.686   8.864   7.303 -0.1177  0.1249  0.3176
  889MOL0     C19909   8.671   8.609   7.265 -0.4791 -0.7532  0.1013
  889MOL0     C19910   8.729   8.564   7.400 -0.5445  0.6555 -0.8025
  889MOL0     O19911   8.695   8.441   7.454 -0.0693  0.7353  0.6484
  889MOL0     C19912   8.777   8.393   7.550 -0.4612 -0.2243 -0.2543
  889MOL0     C19913   8.731   8.415   7.683 -0.6211 -0.0068 -0.1976
  889MOL0     C19914   8.793   8.343   7.787 -0.6553 -1.1312 -0.4598
  889MOL0     C19915   8.908   8.262   7.766 -0.2581  0.1950  0.2780
  889MOL0     O19916   8.960   8.198   7.879 -0.3958  0.0494 -0.5496
  889MOL0     C19917   9.101   8.166   7.890  0.0451  0.2972  1.3702
  889MOL0     C19918   9.150   8.191   8.032  0.3913 -0.4681  0.5385
  889MOL0     C19919   9.074   8.105   8.136 -0.4935  0.2975  0.2199
  889MOL0     C19920   9.156   7.972   8.160  0.4999 -0.3187 -0.1671
  889MOL0     C19921   9.099   7.867   8.253  0.4895 -0.4644  0.2066
  889MOL0     C19922   9.111   7.905   8.400  0.4486  0.2971 -0.5208
  889MOL0     C19923   9.045   7.810   8.499 -0.8580 -0.6870  0.1290
  889MOL0     C19924   9.127   7.680   8.509  1.3634  1.1550 -0.3115
  889MOL0    Cl19925   9.305   7.693   8.507 -0.3560 -0.1155  0.5411
  889MOL0     C19926   8.964   8.258   7.630 -0.1422 -0.2896  0.3431
  889MOL0     C19927   8.892   8.325   7.527  0.3951  0.0479  0.1231
  889MOL0     O19928   8.806   8.639   7.459  0.4667 -0.2723  0.6058
  889MOL0     C19929   8.612   8.517   7.181 -0.6796  0.6010 -0.2456
  889MOL0     C19930   8.579   8.546   7.047  0.0582  0.2379  0.6872
  889MOL0     N19931   8.563   8.857   6.356  0.3206 -0.5618  0.8248
  889MOL0     N19932   8.646   8.807   6.268  1.1474  0.5595 -0.0915
  889MOL0     C19933   8.699   8.393   5.099 -0.5971 -0.5382  1.3914
  889MOL0     C19934   8.750   8.391   4.964 -0.6143 -0.4485  0.4836
  889MOL0     C19935   8.807   8.281   4.551  0.4790 -0.5625 -0.5559
  889MOL0     C19936   8.725   8.236   4.447  0.7598 -0.8858 -1.0118
  889MOL0     C19937   8.773   8.251   4.316  0.9248 -0.1861  0.5734
  889MOL0     C19938   8.909   8.290   4.289  0.6186  0.2960 -1.0625
  889MOL0     O19939   8.961   8.298   4.164  0.1858 -0.2463  0.5998
  889MOL0     C19940   8.930   8.198   4.064 -0.7387  0.0630  1.0353
  889MOL0     C19941   8.985   8.250   3.920  0.6673 -0.3676  0.1714
  889MOL0     C19942   8.955   8.151   3.814  1.0037  0.0672  0.0110
  889MOL0     C19943   9.031   8.184   3.692  0.1599  0.1832  0.2318
  889MOL0     C19944   8.970   8.114   3.569  0.5997  1.0127 -0.6578
  889MOL0     C19945   8.920   8.071   3.469 -0.5989  0.1882 -0.4085
  889MOL0     C19946   8.993   8.330   4.388  0.2022 -0.1973  0.4917
  889MOL0     C19947   8.939   8.318   4.522 -0.2292  0.2500  0.2097
  889MOL0     H19948   8.937   8.118   4.975 -0.1844 -2.0806  2.5332
  889MOL0     H19949   8.839   8.096   5.191  0.4094  1.2283  2.0058
  889MOL0     H19950   8.691   8.488   5.359  0.7816 -0.5458  0.1747
  889MOL0     H19951   8.531   8.406   5.333  0.1768  0.2159 -0.6585
  889MOL0     H19952   8.573   8.274   5.519  2.5639 -0.5030  3.1141
  889MOL0     H19953   8.724   8.349   5.550 -0.3405 -0.9302  0.1137
  889MOL0     H19954   8.589   8.578   5.548  1.3961 -0.8076  0.0923
  889MOL0     H19955   8.444   8.472   5.582 -0.7696 -1.9386  1.8307
  889MOL0     H19956   8.542   8.384   5.784 -0.0052 -0.5823 -1.0066
  889MOL0     H19957   8.690   8.464   5.733  0.8438  1.8417  0.9881
  889MOL0     H19958   8.533   8.680   5.730  2.7088 -0.0740  1.1610
  889MOL0     H19959   8.426   8.595   5.844  1.1800 -0.5555  2.9255
  889MOL0     H19960   8.728   8.645   5.893 -0.6743 -0.6402 -1.8168
  889MOL0     H19961   8.598   8.739   5.956  2.5056  0.7367  0.3239
  889MOL0     H19962   8.505   8.520   6.077 -0.7980 -2.8341 -2.2109
  889MOL0     H19963   8.653   8.444   6.011 -1.6944 -1.1222 -0.2950
  889MOL0     H19964   8.780   8.633   6.135  1.3422 -0.5544  2.7596
  889MOL0     H19965   8.711   8.498   6.231  2.5282  0.2778 -1.1657
  889MOL0     H19966   8.432   8.565   6.320 -1.7864  0.6249  0.4938
  889MOL0     H19967   8.344   8.890   6.459 -1.6321 -0.1829 -3.1904
  889MOL0     H19968   8.260   8.736   6.436  0.0959  0.8678  0.3554
  889MOL0     H19969   8.409   8.634   6.606 -0.0824 -0.3060 -1.6477
  889MOL0     H19970   8.310   8.759   6.674  0.7546 -0.1329  1.1397
  889MOL0     H19971   8.484   8.924   6.618 -1.8803  0.5508  1.8321
  889MOL0     H19972   8.600   8.786   6.637 -0.4156 -1.9997  2.5100
  889MOL0     H19973   8.405   8.859   6.857 -0.6146 -0.4140 -0.5764
  889MOL0     H19974   8.575   8.902   6.858  1.1269 -0.6232 -0.0081
  889MOL0     H19975   8.597   8.870   7.060  1.9999 -0.0386 -3.0905
  889MOL0     H19976   8.641   8.868   7.403  1.3099  0.4754  0.9605
  889MOL0     H19977   8.795   8.862   7.308 -0.1228 -1.1248  0.1619
  889MOL0     H19978   8.655   8.951   7.243 -0.3899  0.6322  1.1803
  889MOL0     H19979   8.636   8.465   7.702 -0.2968  0.8042 -0.6565
  889MOL0     H19980   8.754   8.351   7.888 -0.7596  0.5900 -0.5973
  889MOL0     H19981   9.123   8.063   7.860  0.0813  0.0669  2.1714
  889MOL0     H19982   9.164   8.227   7.823 -1.2916 -0.0339 -0.2536
  889MOL0     H19983   9.256   8.164   8.037  0.7310  0.4685 -0.9991
  889MOL0     H19984   9.134   8.297   8.054 -0.4223 -0.1233 -1.4619
  889MOL0     H19985   8.973   8.084   8.100 -0.0373 -1.6562 -0.0462
  889MOL0     H19986   9.066   8.156   8.232 -0.6984  0.0251  0.3512
  889MOL0     H19987   9.170   7.912   8.070  0.6553  0.4485 -0.6576
  889MOL0     H19988   9.261   7.992   8.186  0.5440 -1.7473  0.9166
  889MOL0     H19989   9.160   7.778   8.237  5.0313  2.8754 -4.1988
  889MOL0     H19990   8.997   7.851   8.217  0.3109  0.4246  0.3037
  889MOL0     H19991   9.216   7.929   8.414  0.0365  1.6032  0.5584
  889MOL0     H19992   9.067   8.005   8.408 -0.2493  0.2638 -3.1571
  889MOL0     H19993   8.941   7.790   8.471 -0.2277 -1.6405 -1.7056
  889MOL0     H19994   9.061   7.850   8.600  0.9414 -1.6622  0.2747
  889MOL0     H19995   9.091   7.623   8.423 -1.8976  1.6868  0.5546
  889MOL0     H19996   9.084   7.617   8.588  2.5837 -2.1737 -2.0831
  889MOL0     H19997   9.049   8.195   7.605  0.3702  1.5935 -3.2881
  889MOL0     H19998   8.930   8.323   7.425 -0.2421  0.7894 -0.1378
  889MOL0     H19999   8.627   8.414   7.212  2.8026 -0.0286 -3.2937
  889MOL0     H20000   8.546   8.470   6.976 -0.9485  1.4756 -0.2174
  889MOL0     H20001   8.647   8.482   5.134  1.1933  0.7662  0.8646
  889MOL0     H20002   8.719   8.464   4.890 -2.1648 -0.3928  1.1690
  889MOL0     H20003   8.620   8.212   4.462  1.0648 -0.6710  2.3247
  889MOL0     H20004   8.703   8.216   4.241  0.1719  1.0169  0.6830
  889MOL0     H20005   8.960   8.097   4.093  0.5366 -0.2912 -1.2268
  889MOL0     H20006   8.823   8.194   4.042 -0.3179 -0.5376 -1.1542
  889MOL0     H20007   9.092   8.260   3.936  0.3721  3.8679  0.4135
  889MOL0     H20008   8.948   8.346   3.882 -2.6551 -1.6019 -0.1065
  889MOL0     H20009   8.847   8.161   3.797  1.0363  1.5858  0.5086
  889MOL0     H20010   8.969   8.044   3.833 -0.7250 -0.5662 -1.8816
  889MOL0     H20011   9.137   8.157   3.700  0.1759 -0.6809 -2.0999
  889MOL0     H20012   9.037   8.291   3.669 -0.6015  0.5626  1.7281
  889MOL0     H20013   8.872   8.039   3.378  1.7589 -0.7389 -1.4046
  889MOL0     H20014   9.092   8.369   4.368  0.4563 -1.2231 -0.3579
  889MOL0     H20015   9.010   8.335   4.602  2.4908  1.0833 -2.2162
  890MOL0     O20016   6.168   2.188   3.941  0.2621 -0.1804  0.1213
  890MOL0     C20017   6.203   2.081   3.998 -0.3778  0.1238  0.0100
  890MOL0     O20018   6.209   2.057   4.139  0.4736  0.1734  0.4513
  890MOL0     C20019   6.159   2.139   4.233  0.2114 -0.6668  0.2645
  890MOL0     C20020   6.189   2.108   4.365 -0.2497  0.9145  0.3871
  890MOL0     C20021   6.141   2.179   4.479  0.9586  0.5398  0.2484
  890MOL0     C20022   6.078   2.305   4.462 -0.2774  0.9761  0.1142
  890MOL0     O20023   6.057   2.376   4.573 -0.4782  0.0835  0.3766
  890MOL0     C20024   5.920   2.417   4.588 -1.1139  0.4593  0.3745
  890MOL0     C20025   5.906   2.571   4.567 -0.2802 -0.1154  0.5976
  890MOL0     C20026   5.758   2.605   4.565 -0.8715 -0.3634  0.1232
  890MOL0     C20027   5.729   2.739   4.626  0.2337 -0.3310 -0.4533
  890MOL0     C20028   5.578   2.772   4.643  0.5285 -0.3751 -0.1190
  890MOL0     C20029   5.508   2.770   4.505 -0.6045  0.5534  0.2222
  890MOL0     C20030   5.394   2.871   4.484  0.3402 -0.2198 -0.0162
  890MOL0     C20031   5.259   2.828   4.545 -0.2049  0.0505  0.8625
  890MOL0     N20032   5.273   2.847   4.693 -0.3945  0.2683  0.1824
  890MOL0     C20033   5.291   2.738   4.784 -0.0250 -0.3098  0.7683
  890MOL0     C20034   5.275   2.795   4.906  0.2752 -0.5193  0.1659
  890MOL0     C20035   5.266   2.719   5.043  0.7889 -0.8507  0.4320
  890MOL0     C20036   5.346   2.784   5.150  0.1495  0.7587 -0.6884
  890MOL0     C20037   5.310   2.753   5.293 -0.2917 -0.2690  0.4090
  890MOL0     C20038   5.311   2.602   5.321 -0.0756 -0.2445 -0.6261
  890MOL0     O20039   5.252   2.563   5.444 -0.1984  0.1046 -0.2552
  890MOL0     C20040   5.132   2.608   5.474  0.4126 -1.2453 -0.2317
  890MOL0     C20041   5.114   2.630   5.617 -0.3513  0.1701  0.4244
  890MOL0     C20042   4.997   2.692   5.670  0.3080  0.7354  0.3332
  890MOL0     C20043   4.985   2.724   5.818  0.1814 -0.2820  0.3335
  890MOL0     C20044   4.895   2.733   5.579 -0.2061  0.1271  0.1497
  890MOL0     C20045   4.774   2.811   5.613 -0.1721 -0.1206  0.2765
  890MOL0     O20046   4.780   2.880   5.724  0.2401 -0.0769 -0.0048
  890MOL0     C20047   4.676   2.955   5.783 -0.0111 -0.4493 -0.5449
  890MOL0     C20048   4.539   2.931   5.773  0.5142  0.2914  0.8429
  890MOL0     C20049   4.440   3.008   5.844 -0.0988  0.1656 -0.2461
  890MOL0     C20050   4.490   3.123   5.918 -0.1513 -0.6988 -0.2808
  890MOL0     O20051   4.422   3.201   5.999 -0.4375  0.1040  0.3760
  890MOL0     C20052   4.295   3.253   5.953 -0.5506 -0.0230  0.2873
  890MOL0     C20053   4.250   3.367   6.040  0.0435 -0.4973 -0.1317
  890MOL0     C20054   4.332   3.493   6.026  1.5182 -0.6336  0.1645
  890MOL0     C20055   4.471   3.497   6.085  0.5789 -0.5834 -0.8780
  890MOL0     C20056   4.523   3.639   6.101  0.7614 -0.7468 -0.2763
  890MOL0     C20057   4.670   3.664   6.114  0.3900 -0.3744  0.4477
  890MOL0     C20058   4.731   3.600   6.237  0.5345 -1.1183  0.0904
  890MOL0     C20059   4.876   3.665   6.263  0.1363  0.0634 -0.0266
  890MOL0    Cl20060   4.945   3.584   6.405 -0.0482 -0.1227 -0.0702
  890MOL0     C20061   4.626   3.138   5.925 -0.1120  0.5724  0.3092
  890MOL0     C20062   4.727   3.063   5.863  0.2389 -0.2788 -0.5765
  890MOL0     O20063   4.669   2.796   5.551 -0.1981 -0.0988  0.1885
  890MOL0     C20064   4.910   2.705   5.445 -0.1084 -0.3015  1.0272
  890MOL0     C20065   5.029   2.647   5.397 -0.6978  0.3406  0.3870
  890MOL0     N20066   5.243   2.930   4.883 -0.2134 -0.1477 -0.2768
  890MOL0     N20067   5.255   2.965   4.758  0.7314 -0.8729  0.3196
  890MOL0     C20068   6.048   2.340   4.331 -0.0106 -0.2503 -0.6254
  890MOL0     C20069   6.083   2.264   4.215 -0.5083 -0.3406  0.6097
  890MOL0     C20070   6.210   1.974   3.901 -0.5421  0.5526 -0.0600
  890MOL0     C20071   6.220   1.989   3.762  0.8444 -0.6585  0.1134
  890MOL0     C20072   6.258   1.872   3.684  0.2915  0.4490 -0.0551
  890MOL0     C20073   6.286   1.750   3.738  0.1757 -0.9076  0.6308
  890MOL0     O20074   6.330   1.650   3.661  0.1892 -0.3825  0.0769
  890MOL0     C20075   6.236   1.618   3.560 -0.1055  0.6558  0.0868
  890MOL0     C20076   6.283   1.500   3.475  0.8192 -0.0506  0.4033
  890MOL0     C20077   6.241   1.368   3.542  0.3242 -0.9105 -0.8899
  890MOL0     C20078   6.278   1.238   3.476 -0.3003 -0.2809 -0.0597
  890MOL0     C20079   6.256   1.117   3.546  1.6615  0.2464 -0.3629
  890MOL0     C20080   6.251   1.005   3.603  0.0271  0.0169 -1.2070
  890MOL0     C20081   6.267   1.732   3.873 -0.4066  0.3390  0.2333
  890MOL0     C20082   6.235   1.838   3.951  0.0608 -0.1957 -1.1807
  890MOL0     H20083   6.254   2.021   4.372 -1.6005 -0.2001 -0.5153
  890MOL0     H20084   6.170   2.140   4.576 -0.3304  0.1743  0.5085
  890MOL0     H20085   5.846   2.360   4.530 -0.1380 -3.0824  2.2901
  890MOL0     H20086   5.905   2.399   4.695 -1.7767  0.2258  0.2421
  890MOL0     H20087   5.953   2.619   4.653  0.0153  2.0890 -0.7307
  890MOL0     H20088   5.957   2.598   4.475 -0.6420 -1.3702  0.0042
  890MOL0     H20089   5.725   2.597   4.461  1.7952  0.7397 -0.8924
  890MOL0     H20090   5.695   2.538   4.625 -0.7272 -0.8678 -0.2797
  890MOL0     H20091   5.762   2.739   4.730 -2.6388 -0.1674  0.5507
  890MOL0     H20092   5.768   2.829   4.576 -2.0761  2.2035  1.9576
  890MOL0     H20093   5.531   2.695   4.705  1.7261 -2.3559 -1.5346
  890MOL0     H20094   5.552   2.864   4.697  1.7354 -0.0811 -0.0030
  890MOL0     H20095   5.585   2.796   4.432 -0.9137  0.0224 -0.3074
  890MOL0     H20096   5.485   2.669   4.469 -1.1903  0.9751 -0.6057
  890MOL0     H20097   5.438   2.964   4.522 -0.5467  0.8362 -1.4513
  890MOL0     H20098   5.372   2.882   4.378  0.1062 -2.7619 -0.2878
  890MOL0     H20099   5.226   2.727   4.521 -2.0621  0.1861  2.6041
  890MOL0     H20100   5.177   2.894   4.512 -1.4100 -2.0145 -0.4741
  890MOL0     H20101   5.296   2.633   4.757  2.8150 -0.5374  1.7837
  890MOL0     H20102   5.160   2.724   5.070  0.3297 -1.1021 -1.1790
  890MOL0     H20103   5.296   2.615   5.024 -0.0824 -1.6004  2.8913
  890MOL0     H20104   5.344   2.893   5.142 -2.5869  0.7049 -1.5886
  890MOL0     H20105   5.443   2.746   5.115  0.7009  3.1518 -1.9088
  890MOL0     H20106   5.211   2.797   5.307 -0.8934 -0.3022 -2.9641
  890MOL0     H20107   5.388   2.797   5.356  1.5351 -2.4608 -0.1724
  890MOL0     H20108   5.417   2.576   5.315  1.3611  3.0533  4.0552
  890MOL0     H20109   5.260   2.546   5.242  2.2518 -0.3239 -2.1530
  890MOL0     H20110   5.197   2.602   5.681 -1.0039 -1.6542  0.5474
  890MOL0     H20111   4.890   2.693   5.862 -1.6186  3.6543 -0.3382
  890MOL0     H20112   5.060   2.667   5.874  1.3654  1.0871  0.2089
  890MOL0     H20113   4.991   2.833   5.827 -1.3078 -0.1465  0.0185
  890MOL0     H20114   4.489   2.851   5.719  1.9137 -3.0939  4.1340
  890MOL0     H20115   4.334   2.989   5.836 -0.1023 -0.2138  0.6518
  890MOL0     H20116   4.314   3.279   5.848  0.0769 -2.0578 -0.1559
  890MOL0     H20117   4.232   3.164   5.958 -3.4072  1.6298 -2.8054
  890MOL0     H20118   4.145   3.377   6.013  0.2003  1.5617 -0.1777
  890MOL0     H20119   4.252   3.329   6.143 -2.1685 -4.4249 -1.3187
  890MOL0     H20120   4.268   3.565   6.078  0.7966 -2.5364  2.0080
  890MOL0     H20121   4.322   3.501   5.917 -0.0853  2.2855  0.4084
  890MOL0     H20122   4.467   3.439   6.178 -1.1426 -0.7624 -1.0394
  890MOL0     H20123   4.537   3.450   6.011  1.2524  0.0215 -0.6709
  890MOL0     H20124   4.469   3.689   6.182  0.2763  1.1654 -1.7173
  890MOL0     H20125   4.494   3.700   6.015  2.5394  0.3041 -0.1751
  890MOL0     H20126   4.727   3.634   6.026 -2.2404  0.2489 -1.5821
  890MOL0     H20127   4.686   3.772   6.126  1.1302 -0.7116  3.3156
  890MOL0     H20128   4.739   3.492   6.223  0.3548 -0.9070 -1.8817
  890MOL0     H20129   4.672   3.616   6.328  0.2569 -0.1105 -0.2559
  890MOL0     H20130   4.864   3.774   6.267  0.0283  0.0075  1.6771
  890MOL0     H20131   4.937   3.644   6.175  0.3151  1.0962 -0.1646
  890MOL0     H20132   4.653   3.225   5.984 -1.4281  1.9329 -1.0102
  890MOL0     H20133   4.833   3.087   5.861  1.0014 -3.2261 -0.4097
  890MOL0     H20134   4.829   2.714   5.373  1.2552 -0.0970 -0.5672
  890MOL0     H20135   5.046   2.613   5.295  0.7222  0.1265  0.6848
  890MOL0     H20136   6.023   2.443   4.307 -2.4690 -0.7072 -0.2225
  890MOL0     H20137   6.041   2.295   4.121 -0.5504 -0.5556  0.5568
  890MOL0     H20138   6.199   2.082   3.710 -0.4794 -2.4570 -2.8966
  890MOL0     H20139   6.286   1.880   3.579 -0.7591  3.7642 -0.1823
  890MOL0     H20140   6.137   1.606   3.605 -1.3694  2.8638 -1.8372
  890MOL0     H20141   6.226   1.697   3.484 -1.3168  0.9953  0.5768
  890MOL0     H20142   6.389   1.512   3.451  0.2343 -0.6490 -2.8646
  890MOL0     H20143   6.236   1.517   3.377 -1.6333 -0.5562  1.4054
  890MOL0     H20144   6.133   1.364   3.557  0.2917  0.9760 -0.3608
  890MOL0     H20145   6.282   1.365   3.644  0.7975  1.2034 -0.9857
  890MOL0     H20146   6.387   1.251   3.473 -0.2626  0.1084  2.0290
  890MOL0     H20147   6.231   1.223   3.378 -1.4523 -2.2434  0.7482
  890MOL0     H20148   6.240   0.915   3.661  0.3128 -0.2692 -1.5975
  890MOL0     H20149   6.292   1.633   3.911 -1.0198 -0.2925 -0.9350
  890MOL0     H20150   6.228   1.811   4.056  0.9482  1.6482 -0.5929
  891MOL0     O20151   3.212   1.144   3.785 -0.1048  0.5516 -0.7869
  891MOL0     C20152   3.307   1.151   3.874 -0.6577  0.6862  0.0770
  891MOL0     O20153   3.392   1.048   3.900 -0.3460  0.0258  0.2831
  891MOL0     C20154   3.355   0.915   3.877  0.2768 -0.2859  0.2008
  891MOL0     C20155   3.232   0.858   3.899 -0.2298 -0.5433 -0.6638
  891MOL0     C20156   3.198   0.738   3.866  0.5997  0.3916  0.4567
  891MOL0     C20157   3.293   0.645   3.830 -0.4431  0.2682  0.1061
  891MOL0     O20158   3.259   0.521   3.790 -1.2143  0.5382 -0.6556
  891MOL0     C20159   3.123   0.469   3.779 -0.2260 -0.4611 -0.2458
  891MOL0     C20160   3.078   0.491   3.633  0.1683  0.0718 -0.5861
  891MOL0     C20161   2.963   0.411   3.581  0.4066  0.6943  0.5715
  891MOL0     C20162   2.929   0.450   3.437 -0.6703  1.0269  0.2662
  891MOL0     C20163   2.797   0.392   3.383 -0.4837  0.2124 -0.0253
  891MOL0     C20164   2.673   0.446   3.450  0.0807  0.6098  0.1327
  891MOL0     C20165   2.555   0.405   3.357 -0.2186 -0.2122 -0.3808
  891MOL0     C20166   2.433   0.478   3.419  0.1896  0.2997 -0.4534
  891MOL0     N20167   2.429   0.618   3.374  1.0981 -0.6098  0.2139
  891MOL0     C20168   2.434   0.659   3.246  1.0305  0.2249 -0.1959
  891MOL0     C20169   2.406   0.794   3.246  0.3795 -0.9151  0.2413
  891MOL0     C20170   2.415   0.894   3.131  0.2672  1.0908 -0.0619
  891MOL0     C20171   2.410   0.824   3.000 -0.0515 -1.0225  0.3654
  891MOL0     C20172   2.426   0.919   2.878 -0.2084 -0.4001  0.0605
  891MOL0     C20173   2.410   0.856   2.736 -0.3121 -0.2891 -0.4176
  891MOL0     O20174   2.302   0.769   2.728  1.6995 -0.0169 -0.8588
  891MOL0     C20175   2.173   0.823   2.724 -0.5324 -0.0747  0.2248
  891MOL0     C20176   2.140   0.948   2.678 -0.5772  0.0878  0.4783
  891MOL0     C20177   2.005   0.988   2.663 -0.2146  0.1014  0.4747
  891MOL0     C20178   1.981   1.125   2.592 -1.2941 -0.1246 -0.4957
  891MOL0     C20179   1.903   0.902   2.704 -0.5062 -0.2620  0.1841
  891MOL0     C20180   1.756   0.918   2.672  0.5552 -1.1337 -0.7035
  891MOL0     O20181   1.667   0.854   2.759  0.0031 -0.6152  0.3744
  891MOL0     C20182   1.534   0.844   2.735  1.4957  0.6328  0.2698
  891MOL0     C20183   1.462   0.777   2.835 -0.5968 -0.0341 -0.0947
  891MOL0     C20184   1.324   0.760   2.821  0.4486  0.2911  0.3914
  891MOL0     C20185   1.251   0.818   2.718 -0.7986  0.3223  0.6219
  891MOL0     O20186   1.119   0.786   2.709  0.0372  0.8636  0.0163
  891MOL0     C20187   1.062   0.772   2.579  0.1260  0.0577  0.2151
  891MOL0     C20188   0.924   0.708   2.577  0.5331 -0.9101 -0.8407
  891MOL0     C20189   0.838   0.782   2.673  1.3942 -1.1583 -0.0756
  891MOL0     C20190   0.693   0.725   2.698 -0.8603  0.0538 -0.4539
  891MOL0     C20191   0.612   0.718   2.567  0.6295  0.4408 -0.0002
  891MOL0     C20192   0.467   0.669   2.579 -0.5431 -0.4485  0.0333
  891MOL0     C20193   0.408   0.656   2.433  0.2342  0.6479 -0.0398
  891MOL0     C20194   0.263   0.615   2.431  0.4171 -0.3049  0.6359
  891MOL0    Cl20195   0.168   0.734   2.517 -0.4955 -0.0465  0.4079
  891MOL0     C20196   1.317   0.894   2.624 -0.3269  0.4786 -0.1379
  891MOL0     C20197   1.461   0.908   2.633  0.1673 -0.0410 -0.2250
  891MOL0     O20198   1.729   1.000   2.580  0.1380  1.0707  0.1214
  891MOL0     C20199   1.940   0.778   2.754 -0.2273 -0.2262  0.4071
  891MOL0     C20200   2.074   0.747   2.773 -0.2202 -0.0583  0.0477
  891MOL0     N20201   2.387   0.839   3.379  1.6089  1.0255 -0.1467
  891MOL0     N20202   2.401   0.729   3.451 -0.2584  0.0442  0.0539
  891MOL0     C20203   3.424   0.683   3.816  0.1239  0.1836  1.0041
  891MOL0     C20204   3.452   0.821   3.833 -0.0613 -0.5750 -0.4891
  891MOL0     C20205   3.333   1.288   3.921  0.3049 -0.7037 -0.3133
  891MOL0     C20206   3.240   1.395   3.895  0.6918  0.2597  0.1925
  891MOL0     C20207   3.267   1.519   3.938  0.2745  0.4786  0.0252
  891MOL0     C20208   3.369   1.540   4.034  0.7182 -0.2095  0.7465
  891MOL0     O20209   3.398   1.659   4.096  0.1288 -0.5214  0.2561
  891MOL0     C20210   3.387   1.772   3.999 -0.0971 -0.5658  0.2458
  891MOL0     C20211   3.437   1.891   4.086  0.0657 -0.2152  0.3051
  891MOL0     C20212   3.439   2.013   3.991  0.1830  0.3215 -0.0238
  891MOL0     C20213   3.491   2.135   4.056 -0.3459  0.0524  0.2864
  891MOL0     C20214   3.626   2.123   4.098 -0.6489 -0.6898  0.1794
  891MOL0     C20215   3.743   2.136   4.132  0.1554 -0.3080  0.2106
  891MOL0     C20216   3.455   1.439   4.069  0.3727  0.3586  0.1309
  891MOL0     C20217   3.433   1.315   4.010 -0.7665  0.3272  0.4537
  891MOL0     H20218   3.152   0.919   3.941  0.6148 -0.1545  0.4327
  891MOL0     H20219   3.095   0.707   3.884  1.2503 -2.2010  0.1576
  891MOL0     H20220   3.132   0.362   3.799 -1.7046 -0.9524 -1.9456
  891MOL0     H20221   3.061   0.513   3.858 -0.8543  0.8261 -1.4136
  891MOL0     H20222   3.053   0.595   3.611 -0.8841 -0.1007 -0.2461
  891MOL0     H20223   3.159   0.448   3.572 -0.7422  0.7579 -2.3564
  891MOL0     H20224   2.994   0.307   3.567  0.5034  1.0856 -2.9693
  891MOL0     H20225   2.868   0.433   3.632  0.8207  2.5505  0.6102
  891MOL0     H20226   2.918   0.558   3.423  0.2221  0.8771 -2.0622
  891MOL0     H20227   3.008   0.405   3.376 -0.6140  0.8504  0.4693
  891MOL0     H20228   2.800   0.407   3.275 -0.2726 -2.9650 -0.5382
  891MOL0     H20229   2.806   0.284   3.389 -1.0929 -0.0017 -2.3053
  891MOL0     H20230   2.670   0.395   3.546 -0.3087 -1.4961 -0.9291
  891MOL0     H20231   2.657   0.553   3.465 -4.0385  0.3908 -1.3987
  891MOL0     H20232   2.573   0.440   3.255 -0.8494 -0.5450 -0.6137
  891MOL0     H20233   2.552   0.296   3.367  4.7992 -0.3954  2.2726
  891MOL0     H20234   2.436   0.486   3.528  0.7776  3.6443 -0.6093
  891MOL0     H20235   2.332   0.444   3.397  0.4191  0.1548 -1.3145
  891MOL0     H20236   2.462   0.591   3.165  2.2963 -0.0888  0.4762
  891MOL0     H20237   2.328   0.959   3.144 -2.7809 -2.4490 -1.1637
  891MOL0     H20238   2.507   0.950   3.148 -0.0314  0.9816  2.3326
  891MOL0     H20239   2.310   0.784   2.981  0.5718 -1.5965 -2.0832
  891MOL0     H20240   2.480   0.739   3.001 -0.4654 -1.3703  1.5246
  891MOL0     H20241   2.522   0.971   2.886 -0.1258 -0.8666  3.6345
  891MOL0     H20242   2.353   0.999   2.870  2.6159  2.2024 -3.0833
  891MOL0     H20243   2.499   0.804   2.699  2.6463  2.7475  1.8991
  891MOL0     H20244   2.409   0.934   2.659  1.6920 -0.1404 -0.3348
  891MOL0     H20245   2.219   1.018   2.651  1.2837 -1.9693  0.3202
  891MOL0     H20246   2.067   1.193   2.595 -2.3277  1.2629  2.9215
  891MOL0     H20247   1.952   1.095   2.491  2.2073  0.8478 -1.9342
  891MOL0     H20248   1.900   1.176   2.645 -1.2329 -0.2343 -0.2947
  891MOL0     H20249   1.513   0.731   2.919  1.8356  1.4240 -0.6546
  891MOL0     H20250   1.266   0.694   2.885 -2.5791  1.3284 -1.1070
  891MOL0     H20251   1.047   0.873   2.539  4.0236  0.6724 -0.1242
  891MOL0     H20252   1.133   0.719   2.515 -0.8672 -3.1113  1.5580
  891MOL0     H20253   0.890   0.712   2.474  4.4552 -1.1872 -2.3229
  891MOL0     H20254   0.933   0.604   2.608  0.7208 -1.2023 -1.8629
  891MOL0     H20255   0.832   0.882   2.629  2.4861 -1.5737 -1.2456
  891MOL0     H20256   0.891   0.773   2.768  3.3916 -2.9508 -1.2480
  891MOL0     H20257   0.694   0.630   2.752  1.7661  0.5694  0.5435
  891MOL0     H20258   0.634   0.798   2.753 -0.8481  0.4068 -0.9026
  891MOL0     H20259   0.671   0.665   2.491  0.8206  1.1584 -0.3711
  891MOL0     H20260   0.621   0.818   2.524 -0.9287  0.5654 -0.0730
  891MOL0     H20261   0.472   0.573   2.632  1.1630 -1.1024 -1.2413
  891MOL0     H20262   0.411   0.747   2.632  0.4187  1.3860 -1.5147
  891MOL0     H20263   0.467   0.581   2.379  0.9486  1.5108 -0.4673
  891MOL0     H20264   0.402   0.753   2.384 -0.6231  1.4619  1.6044
  891MOL0     H20265   0.257   0.525   2.493 -1.6592  2.0735  4.2960
  891MOL0     H20266   0.220   0.593   2.333  1.2734  0.1621  0.1380
  891MOL0     H20267   1.258   0.942   2.546  0.5390  0.4867 -0.8029
  891MOL0     H20268   1.506   0.959   2.548 -0.5421 -1.2662 -1.3739
  891MOL0     H20269   1.865   0.704   2.779  0.5647 -1.3575 -0.4617
  891MOL0     H20270   2.102   0.652   2.817  1.1150  1.0301  1.7154
  891MOL0     H20271   3.500   0.614   3.782  0.3672  1.2875 -0.8331
  891MOL0     H20272   3.551   0.855   3.807 -0.4468  0.6366 -0.4468
  891MOL0     H20273   3.156   1.377   3.829  0.8817  0.2149 -0.0386
  891MOL0     H20274   3.201   1.595   3.897 -1.1363 -2.7769 -4.6003
  891MOL0     H20275   3.452   1.757   3.913 -0.0952 -3.3061  0.6442
  891MOL0     H20276   3.283   1.787   3.971 -0.1291 -0.2939  0.5023
  891MOL0     H20277   3.537   1.878   4.129  1.6874  4.5016 -1.3438
  891MOL0     H20278   3.367   1.903   4.169  1.7240 -3.4327  2.3640
  891MOL0     H20279   3.335   2.028   3.962 -0.2458 -4.2931 -1.7238
  891MOL0     H20280   3.491   1.999   3.895  0.1892  0.0326  0.0186
  891MOL0     H20281   3.435   2.171   4.142  0.8143  0.9630  0.7037
  891MOL0     H20282   3.495   2.212   3.977  3.3816  0.9099  1.1029
  891MOL0     H20283   3.836   2.153   4.181 -0.7480 -1.7118  2.5654
  891MOL0     H20284   3.530   1.452   4.146  2.0343  1.6081 -1.5814
  891MOL0     H20285   3.497   1.230   4.032 -1.5139  0.1598  2.0523
  892MOL0     O20286   4.634   2.094   6.555  0.4504 -0.3998 -0.7102
  892MOL0     C20287   4.563   2.069   6.464 -0.2158 -0.4015  0.4693
  892MOL0     O20288   4.543   1.942   6.410 -0.6574 -0.9704  0.1072
  892MOL0     C20289   4.604   1.837   6.459  0.3630  0.2954 -0.8948
  892MOL0     C20290   4.643   1.817   6.594 -0.4403 -0.1491  0.2615
  892MOL0     C20291   4.678   1.691   6.639  0.1358  1.6742  0.8223
  892MOL0     C20292   4.691   1.586   6.544  0.5908  0.5659  0.3615
  892MOL0     O20293   4.731   1.458   6.565  0.1232  0.0829 -0.5124
  892MOL0     C20294   4.734   1.402   6.699 -0.1127 -0.6074  0.4485
  892MOL0     C20295   4.802   1.264   6.682 -0.6746 -0.5234 -0.3708
  892MOL0     C20296   4.814   1.202   6.821 -0.7383  0.8960 -0.2603
  892MOL0     C20297   4.894   1.073   6.818  0.9678  0.4419 -1.0051
  892MOL0     C20298   4.853   0.967   6.712  0.0839  0.2042 -0.7182
  892MOL0     C20299   4.956   0.851   6.698  0.5149 -0.3269 -0.0708
  892MOL0     C20300   4.973   0.762   6.825 -0.1257  0.3236 -0.9323
  892MOL0     C20301   5.016   0.624   6.777  0.1262 -0.2064 -0.2126
  892MOL0     N20302   5.121   0.621   6.675 -0.0585 -0.6506 -0.0749
  892MOL0     C20303   5.254   0.596   6.699  0.8377  0.4551  0.8249
  892MOL0     C20304   5.318   0.622   6.578  0.5210 -0.9795  0.0201
  892MOL0     C20305   5.461   0.609   6.557  1.0577  0.6337 -0.4242
  892MOL0     C20306   5.512   0.623   6.415  0.5239  0.8260 -0.1357
  892MOL0     C20307   5.628   0.524   6.396  0.6049 -0.3802 -0.0471
  892MOL0     C20308   5.685   0.559   6.262  0.4644  0.2759 -0.5677
  892MOL0     O20309   5.802   0.486   6.229  0.2412  0.9802  0.2928
  892MOL0     C20310   5.860   0.523   6.114 -1.1493  0.7963 -0.4384
  892MOL0     C20311   5.825   0.627   6.037 -0.3038  0.9431  1.1734
  892MOL0     C20312   5.888   0.652   5.916  0.5691  0.3148  0.5131
  892MOL0     C20313   5.810   0.761   5.843 -0.0834 -0.3443  0.5831
  892MOL0     C20314   6.012   0.584   5.881  0.2390  0.5382  1.5265
  892MOL0     C20315   6.106   0.623   5.775 -0.1461  0.1211 -0.3437
  892MOL0     O20316   6.221   0.541   5.764  0.1824 -0.8064 -0.2370
  892MOL0     C20317   6.332   0.579   5.703  0.1534 -0.5104 -0.1479
  892MOL0     C20318   6.347   0.659   5.586 -0.2955 -0.0377  0.0948
  892MOL0     C20319   6.471   0.671   5.519  0.4324 -0.3330  0.3097
  892MOL0     C20320   6.582   0.606   5.576 -0.6021 -0.4749  0.6726
  892MOL0     O20321   6.707   0.616   5.506  0.0241  0.2749  0.1660
  892MOL0     C20322   6.776   0.741   5.484  0.1235 -0.2448  0.0663
  892MOL0     C20323   6.892   0.712   5.393  0.4784 -0.4209 -0.0563
  892MOL0     C20324   6.851   0.755   5.249 -0.4014  0.3741 -0.3038
  892MOL0     C20325   6.946   0.713   5.140 -0.7228  1.3734  0.2323
  892MOL0     C20326   6.920   0.772   5.007  1.1394  0.6662 -0.4140
  892MOL0     C20327   6.972   0.685   4.885  0.4697  0.3909  0.6509
  892MOL0     C20328   7.123   0.683   4.846  0.4169  0.0764 -0.7185
  892MOL0     C20329   7.184   0.565   4.925 -0.2462 -0.4875 -1.1219
  892MOL0    Cl20330   7.334   0.539   4.837 -0.0352  0.4897 -0.6679
  892MOL0     C20331   6.567   0.528   5.683 -0.0073  0.2283  0.0192
  892MOL0     C20332   6.446   0.507   5.740  0.2290 -0.5108  0.2773
  892MOL0     O20333   6.088   0.728   5.711 -0.1004 -0.8424 -0.2213
  892MOL0     C20334   6.044   0.469   5.962 -0.0889 -0.4230 -0.0307
  892MOL0     C20335   5.974   0.451   6.075 -1.1775 -0.2266 -0.5664
  892MOL0     N20336   5.219   0.647   6.489 -0.6630  0.0527 -0.3518
  892MOL0     N20337   5.106   0.650   6.546  0.1426  0.0722  1.0915
  892MOL0     C20338   4.658   1.606   6.404  0.2955 -0.0910  0.5153
  892MOL0     C20339   4.618   1.730   6.367  0.7571 -0.7510  0.0917
  892MOL0     C20340   4.463   2.170   6.401  0.4057  0.2183  0.2733
  892MOL0     C20341   4.384   2.144   6.292  0.2304  0.1661  1.1488
  892MOL0     C20342   4.299   2.247   6.238  0.3172  0.1209  0.6823
  892MOL0     C20343   4.279   2.358   6.310 -0.2538 -1.4453  0.3303
  892MOL0     O20344   4.188   2.457   6.280 -0.2720  0.0711  0.1939
  892MOL0     C20345   4.082   2.423   6.198 -0.5988 -0.5141  1.9712
  892MOL0     C20346   4.000   2.555   6.182  0.5486 -0.1011 -0.7899
  892MOL0     C20347   4.085   2.657   6.101  0.3741 -0.5178  0.0316
  892MOL0     C20348   3.990   2.785   6.068  0.5166  0.1738 -0.4013
  892MOL0     C20349   3.891   2.762   5.961 -0.2581 -0.4548  0.0357
  892MOL0     C20350   3.821   2.751   5.867 -0.0992  0.3893  0.1153
  892MOL0     C20351   4.355   2.388   6.421  0.7112  0.6379  0.1715
  892MOL0     C20352   4.453   2.295   6.469 -0.5737  0.4206 -0.3553
  892MOL0     H20353   4.642   1.899   6.666 -1.6844  0.5621 -0.5194
  892MOL0     H20354   4.710   1.665   6.740  0.7830  0.3964  0.3109
  892MOL0     H20355   4.804   1.455   6.765 -0.0486 -2.1177  1.6668
  892MOL0     H20356   4.633   1.390   6.738  0.0730 -0.2556  1.0512
  892MOL0     H20357   4.734   1.204   6.621 -2.9438 -1.2460  2.6136
  892MOL0     H20358   4.900   1.282   6.637 -2.0079  2.3938 -2.3834
  892MOL0     H20359   4.870   1.259   6.896  0.8009 -0.2580 -0.4792
  892MOL0     H20360   4.709   1.192   6.849 -0.1876  0.3069  1.7481
  892MOL0     H20361   5.001   1.094   6.804  1.2976 -1.0190 -0.8507
  892MOL0     H20362   4.893   1.043   6.923  0.1390  1.8738 -0.5747
  892MOL0     H20363   4.753   0.935   6.741  1.1052 -0.0084  3.0346
  892MOL0     H20364   4.836   1.013   6.614 -2.4925 -0.1366 -0.5090
  892MOL0     H20365   4.920   0.793   6.613 -3.0592  4.0189 -1.9363
  892MOL0     H20366   5.053   0.887   6.666 -0.1262  1.6468  0.0578
  892MOL0     H20367   5.049   0.801   6.893  0.3453 -0.6904 -0.8609
  892MOL0     H20368   4.880   0.749   6.882  0.4746  1.8550  0.4900
  892MOL0     H20369   4.927   0.579   6.732  0.0806  0.6200 -0.9769
  892MOL0     H20370   5.053   0.564   6.861 -1.1915 -2.3892 -1.0981
  892MOL0     H20371   5.306   0.567   6.790  1.3471  1.7704  0.9838
  892MOL0     H20372   5.508   0.686   6.619 -2.3257  5.0303 -2.7466
  892MOL0     H20373   5.483   0.504   6.580 -1.8035 -0.6399 -2.8601
  892MOL0     H20374   5.544   0.725   6.393  1.1816  0.5176 -0.6639
  892MOL0     H20375   5.432   0.593   6.347  0.8026 -0.8668  0.2346
  892MOL0     H20376   5.602   0.418   6.394  0.4881 -0.3810 -2.9082
  892MOL0     H20377   5.691   0.540   6.484 -0.7786 -0.7958  1.0484
  892MOL0     H20378   5.717   0.664   6.261 -0.6239  0.6125 -0.5583
  892MOL0     H20379   5.607   0.535   6.189 -0.1758  0.6449 -0.0098
  892MOL0     H20380   5.734   0.684   6.054 -1.9667  0.3321 -3.8834
  892MOL0     H20381   5.728   0.799   5.904  0.6270  1.5737  0.4111
  892MOL0     H20382   5.874   0.848   5.824 -1.3819  0.9957  2.1111
  892MOL0     H20383   5.778   0.721   5.746  1.6042 -0.8673  0.2093
  892MOL0     H20384   6.257   0.702   5.543  0.0327 -0.3213 -0.8927
  892MOL0     H20385   6.481   0.725   5.425  1.0782 -3.3129 -1.4772
  892MOL0     H20386   6.705   0.818   5.456 -0.7276 -0.0815  2.4567
  892MOL0     H20387   6.811   0.771   5.583 -1.3640 -0.4925  0.7033
  892MOL0     H20388   6.967   0.783   5.431 -1.6076  1.8606  0.0265
  892MOL0     H20389   6.931   0.610   5.387 -0.3781 -0.7675  0.2205
  892MOL0     H20390   6.853   0.864   5.256 -4.7997  0.6116 -0.1025
  892MOL0     H20391   6.748   0.727   5.223  0.0360 -0.4722 -1.1813
  892MOL0     H20392   7.049   0.733   5.170 -0.5422  0.3120  0.3911
  892MOL0     H20393   6.939   0.606   5.119 -0.6593  1.6617 -1.3356
  892MOL0     H20394   6.945   0.878   5.013 -0.5152  1.0387  0.9193
  892MOL0     H20395   6.816   0.755   4.976  1.6061 -1.9070 -0.7989
  892MOL0     H20396   6.937   0.581   4.888  0.3766  0.2664 -2.2091
  892MOL0     H20397   6.911   0.726   4.804 -0.4348  0.1274  1.1856
  892MOL0     H20398   7.163   0.781   4.873  1.0637 -0.7506  1.5309
  892MOL0     H20399   7.141   0.661   4.740  1.4123 -2.1317 -0.1702
  892MOL0     H20400   7.123   0.474   4.927  1.4929 -1.7286  0.8855
  892MOL0     H20401   7.197   0.586   5.032  0.8665 -0.5330 -1.2331
  892MOL0     H20402   6.657   0.474   5.710  1.3122  2.4700  0.3624
  892MOL0     H20403   6.436   0.435   5.820  1.5518  0.8019  1.7026
  892MOL0     H20404   6.140   0.419   5.951  0.3869 -1.1547  5.1220
  892MOL0     H20405   6.013   0.373   6.140  1.6207  0.3631 -1.4034
  892MOL0     H20406   4.665   1.521   6.336  2.7005 -2.5571  3.5455
  892MOL0     H20407   4.586   1.740   6.263 -0.4803 -0.5212  0.4733
  892MOL0     H20408   4.395   2.046   6.247  0.8816  0.3174  0.9656
  892MOL0     H20409   4.243   2.224   6.148  1.4766  2.4138 -0.6919
  892MOL0     H20410   4.120   2.397   6.099  2.2163  3.0965  1.8822
  892MOL0     H20411   4.019   2.340   6.231  1.2338 -2.7015  0.3285
  892MOL0     H20412   3.958   2.592   6.277 -0.0599 -0.8982 -0.7330
  892MOL0     H20413   3.912   2.531   6.121 -1.8836 -0.4923  2.5448
  892MOL0     H20414   4.109   2.610   6.005 -1.8344  0.0719 -0.8726
  892MOL0     H20415   4.175   2.682   6.158  0.0513  0.0578  0.2981
  892MOL0     H20416   4.063   2.855   6.026  1.3577 -0.8399 -0.6888
  892MOL0     H20417   3.936   2.833   6.150 -1.1170 -1.4299 -0.4550
  892MOL0     H20418   3.756   2.726   5.785  1.3918 -1.1287 -0.6643
  892MOL0     H20419   4.344   2.490   6.455  0.0611 -0.0768  2.2756
  892MOL0     H20420   4.505   2.320   6.561 -2.3472 -1.4314  1.2692
  893MOL0     O20421   8.854   8.110   2.200  0.1761 -0.7978  0.4148
  893MOL0     C20422   8.893   8.081   2.082  0.1583 -0.3108 -0.3217
  893MOL0     O20423   8.848   8.140   1.968  0.5394 -0.1195  0.1183
  893MOL0     C20424   8.756   8.242   1.972  0.7992 -0.3844  0.1563
  893MOL0     C20425   8.750   8.356   2.060  0.0377  0.0877  0.6136
  893MOL0     C20426   8.648   8.457   2.056  0.5838 -0.7888  0.3004
  893MOL0     C20427   8.544   8.446   1.972  0.0277 -0.3625 -0.4384
  893MOL0     O20428   8.448   8.542   1.971  0.1402 -0.7892  0.6392
  893MOL0     C20429   8.311   8.502   1.943 -0.6646  0.1056  0.6976
  893MOL0     C20430   8.215   8.608   1.983  0.8385 -0.3571 -0.3155
  893MOL0     C20431   8.065   8.579   1.981  0.6324  0.1004 -0.0543
  893MOL0     C20432   8.002   8.590   1.833 -1.0718 -0.6350 -1.0162
  893MOL0     C20433   7.853   8.623   1.852 -0.1868  0.9209  0.6466
  893MOL0     C20434   7.778   8.492   1.860  0.2802 -0.7071 -0.5702
  893MOL0     C20435   7.628   8.515   1.851 -0.6414 -0.3467 -0.4577
  893MOL0     C20436   7.557   8.382   1.859  0.4060  0.2552 -0.0501
  893MOL0     N20437   7.433   8.399   1.937 -0.3777  0.7504  0.1966
  893MOL0     C20438   7.411   8.366   2.068 -1.5166  0.5503 -0.2254
  893MOL0     C20439   7.290   8.406   2.089  0.7628  0.0947 -0.3501
  893MOL0     C20440   7.210   8.398   2.218  0.3914  0.0312  0.9674
  893MOL0     C20441   7.214   8.252   2.274 -0.4858  0.3135  0.6353
  893MOL0     C20442   7.113   8.175   2.194 -0.0393  0.7306  1.2997
  893MOL0     C20443   7.142   8.022   2.208  0.4563  0.0172  0.3073
  893MOL0     O20444   7.281   7.974   2.184  0.2872 -0.1311  0.3602
  893MOL0     C20445   7.347   8.008   2.068 -0.3254  0.3391  0.1574
  893MOL0     C20446   7.483   8.017   2.086  1.2692  0.0366  0.6609
  893MOL0     C20447   7.558   8.040   1.972 -0.2154 -0.2772 -0.4337
  893MOL0     C20448   7.712   8.037   1.982 -0.2608 -0.4630 -0.3953
  893MOL0     C20449   7.499   8.048   1.844  0.7147  0.6243  0.0637
  893MOL0     C20450   7.575   8.055   1.715 -0.1326 -0.3662  0.3264
  893MOL0     O20451   7.702   8.100   1.712 -0.4599  0.0353 -0.1514
  893MOL0     C20452   7.794   8.084   1.605  0.2256  0.1917 -0.5115
  893MOL0     C20453   7.789   7.999   1.491 -0.1169 -0.9113  0.6892
  893MOL0     C20454   7.893   8.013   1.388  0.0223 -0.0243 -0.6482
  893MOL0     C20455   7.997   8.101   1.401  0.6005  0.1144 -0.1794
  893MOL0     O20456   8.080   8.122   1.295 -0.3319  0.0238  0.3786
  893MOL0     C20457   8.160   8.239   1.281  0.2176 -0.6965  0.5817
  893MOL0     C20458   8.182   8.275   1.134 -0.2846  0.7553  0.4053
  893MOL0     C20459   8.238   8.163   1.030 -0.1410 -0.3652 -0.6946
  893MOL0     C20460   8.387   8.133   1.065 -0.6849  0.5343  0.4971
  893MOL0     C20461   8.453   8.051   0.954 -0.3460  0.5739 -0.3255
  893MOL0     C20462   8.587   7.989   1.009  0.5171 -0.6399 -0.6856
  893MOL0     C20463   8.685   8.102   1.050  0.7913  0.6894  0.0837
  893MOL0     C20464   8.829   8.043   1.048 -0.7184 -0.6419  0.0360
  893MOL0    Cl20465   8.867   7.938   0.909  0.4555 -0.3362  0.0762
  893MOL0     C20466   8.005   8.176   1.518 -0.1442 -1.0231  0.9625
  893MOL0     C20467   7.896   8.176   1.618 -0.7586 -0.3595  0.6816
  893MOL0     O20468   7.521   8.014   1.621 -0.6698  0.3817 -0.2013
  893MOL0     C20469   7.361   8.056   1.840 -0.7561  0.5838  0.5253
  893MOL0     C20470   7.284   8.030   1.950  0.2662 -0.5306  0.1622
  893MOL0     N20471   7.238   8.460   1.975 -0.1791  0.0439 -0.5087
  893MOL0     N20472   7.327   8.448   1.886 -0.1716 -0.4021 -0.1855
  893MOL0     C20473   8.536   8.322   1.901  0.0054  0.4746 -0.4219
  893MOL0     C20474   8.644   8.229   1.893  0.3334  0.6158  0.0363
  893MOL0     C20475   9.001   7.977   2.053  0.4995 -1.1612  0.0729
  893MOL0     C20476   9.074   7.941   2.164  0.2404  0.2057 -0.0215
  893MOL0     C20477   9.178   7.847   2.143 -0.0508  0.7711  0.7663
  893MOL0     C20478   9.225   7.818   2.019 -0.8927 -0.2645 -0.5152
  893MOL0     O20479   9.332   7.728   2.015 -0.5754 -0.6061  0.4696
  893MOL0     C20480   9.451   7.764   1.939  0.4567 -0.0260  0.4821
  893MOL0     C20481   9.570   7.752   2.032 -0.3529 -0.3334 -0.4326
  893MOL0     C20482   9.588   7.612   2.090 -0.4850 -0.4698  0.8677
  893MOL0     C20483   9.669   7.597   2.222 -0.6403 -0.2920  0.5975
  893MOL0     C20484   9.703   7.454   2.259 -0.1486  0.1069  1.2874
  893MOL0     C20485   9.719   7.337   2.296  0.0315  0.5110  1.1594
  893MOL0     C20486   9.168   7.870   1.907  0.2861  0.0045  0.6490
  893MOL0     C20487   9.056   7.956   1.923 -0.6551 -0.5759 -0.7047
  893MOL0     H20488   8.830   8.371   2.132 -0.3513 -0.7901  1.2363
  893MOL0     H20489   8.665   8.547   2.114  1.4426 -0.2631 -0.7405
  893MOL0     H20490   8.304   8.481   1.836 -1.1176  0.9436  0.5452
  893MOL0     H20491   8.291   8.413   2.003  1.2970 -0.7118  0.2076
  893MOL0     H20492   8.236   8.630   2.088 -0.4022 -1.2095  0.1228
  893MOL0     H20493   8.232   8.700   1.926 -0.7835 -1.0635 -2.0728
  893MOL0     H20494   8.042   8.486   2.034  2.0900  0.9893  2.3235
  893MOL0     H20495   8.018   8.663   2.033  1.1686 -0.7358  1.8947
  893MOL0     H20496   8.040   8.680   1.784 -2.3474  0.8553  0.5914
  893MOL0     H20497   8.028   8.496   1.782 -0.1719  0.0213 -1.8009
  893MOL0     H20498   7.826   8.690   1.934  1.1321  2.0274  0.2103
  893MOL0     H20499   7.815   8.682   1.769 -0.8412 -1.3003 -0.7075
  893MOL0     H20500   7.805   8.424   1.778 -1.8202 -2.1244 -0.1556
  893MOL0     H20501   7.804   8.446   1.956  0.2548 -1.1901 -0.7906
  893MOL0     H20502   7.610   8.574   1.941 -0.3478 -1.9682  0.7139
  893MOL0     H20503   7.592   8.564   1.761 -0.5297 -0.4580 -0.5629
  893MOL0     H20504   7.634   8.321   1.907  0.0547  0.2311  0.4913
  893MOL0     H20505   7.545   8.346   1.756  0.2755  0.0837  0.0247
  893MOL0     H20506   7.480   8.322   2.139 -3.0861 -1.3760  0.2009
  893MOL0     H20507   7.264   8.454   2.295  1.4099 -3.1785  2.7700
  893MOL0     H20508   7.118   8.455   2.202  0.3116  0.0851  1.6238
  893MOL0     H20509   7.182   8.235   2.377 -0.4876 -2.6191  0.2345
  893MOL0     H20510   7.311   8.200   2.278 -1.2460 -1.1030  1.2464
  893MOL0     H20511   7.118   8.189   2.086  1.0900 -0.6976  1.1323
  893MOL0     H20512   7.009   8.188   2.222  0.1464  0.1732  2.3048
  893MOL0     H20513   7.076   7.965   2.142  2.2004 -1.0741 -0.5872
  893MOL0     H20514   7.110   7.996   2.309  0.4608  0.3692  0.4015
  893MOL0     H20515   7.525   8.011   2.186 -1.4676 -1.5136  1.8319
  893MOL0     H20516   7.746   7.944   1.937  2.5125 -1.3228  2.9987
  893MOL0     H20517   7.757   8.125   1.934  1.5657  0.1776  2.2689
  893MOL0     H20518   7.746   8.041   2.086  0.2444  3.4074 -0.5433
  893MOL0     H20519   7.698   7.942   1.476  0.1994 -1.5442  1.1437
  893MOL0     H20520   7.882   7.957   1.296  2.7081 -1.3507 -0.2565
  893MOL0     H20521   8.114   8.327   1.326  0.2911 -0.9532  1.1804
  893MOL0     H20522   8.253   8.229   1.339  1.0441 -1.1670 -0.7878
  893MOL0     H20523   8.088   8.316   1.096 -0.0567  2.0737  1.1992
  893MOL0     H20524   8.256   8.355   1.142 -0.4444  0.7861  2.1163
  893MOL0     H20525   8.235   8.211   0.931  1.7167 -0.4769 -0.8317
  893MOL0     H20526   8.175   8.073   1.036  1.6154 -1.5595  3.6198
  893MOL0     H20527   8.446   8.225   1.068  0.5636 -0.1863 -0.6589
  893MOL0     H20528   8.395   8.088   1.164 -2.2170  0.9182  0.8247
  893MOL0     H20529   8.465   8.108   0.861 -1.4298  2.4433  0.6345
  893MOL0     H20530   8.394   7.967   0.916  1.5082  0.3092 -2.9883
  893MOL0     H20531   8.557   7.923   1.090 -0.9672  0.9139  0.1109
  893MOL0     H20532   8.618   7.932   0.921  0.2933 -0.7031 -0.7239
  893MOL0     H20533   8.651   8.149   1.143 -2.3368 -0.1461 -0.5151
  893MOL0     H20534   8.692   8.187   0.982  0.3546 -0.3576 -1.3169
  893MOL0     H20535   8.841   7.986   1.141  2.3356  0.7043  0.5867
  893MOL0     H20536   8.901   8.124   1.065 -0.0346 -0.6925 -2.2586
  893MOL0     H20537   8.084   8.246   1.542 -0.5646  0.7345 -2.2312
  893MOL0     H20538   7.880   8.244   1.700 -3.1236  0.3043 -0.2458
  893MOL0     H20539   7.303   8.077   1.751 -2.1453 -0.3627  1.1716
  893MOL0     H20540   7.176   8.019   1.953  0.4107 -1.8319  2.0112
  893MOL0     H20541   8.441   8.307   1.851 -1.6738  0.5922  2.4945
  893MOL0     H20542   8.633   8.137   1.835 -1.3772  1.2796 -0.7412
  893MOL0     H20543   9.038   7.969   2.262 -0.7287 -1.1088  0.0202
  893MOL0     H20544   9.240   7.808   2.223  0.2190 -2.8156 -0.9768
  893MOL0     H20545   9.461   7.698   1.853  0.5467  0.5226  0.0623
  893MOL0     H20546   9.440   7.870   1.911  0.8946 -0.7570 -2.8737
  893MOL0     H20547   9.556   7.820   2.116 -0.2836  0.3144 -0.9378
  893MOL0     H20548   9.660   7.782   1.977  0.6729  1.2805  1.9407
  893MOL0     H20549   9.640   7.551   2.016 -0.7617  0.2792  0.0527
  893MOL0     H20550   9.492   7.560   2.098 -0.6499 -0.6733 -1.7837
  893MOL0     H20551   9.621   7.647   2.306  0.6550 -2.7952  2.9794
  893MOL0     H20552   9.764   7.651   2.213 -0.1739 -1.2685 -0.7675
  893MOL0     H20553   9.736   7.231   2.291 -0.3100  0.3883  2.2449
  893MOL0     H20554   9.205   7.861   1.805 -0.3976  1.8580  0.1879
  893MOL0     H20555   9.006   8.007   1.841  1.2644 -0.9763 -2.2145
  894MOL0     O20556   1.673   0.817   1.211  0.1388 -0.5768 -0.5566
  894MOL0     C20557   1.733   0.855   1.112  0.4214 -0.1359  0.6685
  894MOL0     O20558   1.710   0.972   1.045  0.3012  0.1872 -0.1112
  894MOL0     C20559   1.670   1.076   1.124 -0.9331  0.5186 -0.9761
  894MOL0     C20560   1.605   1.175   1.064  0.1955  0.5945 -0.2711
  894MOL0     C20561   1.568   1.290   1.128  0.6224  0.6298 -0.5585
  894MOL0     C20562   1.601   1.306   1.261  0.5654 -0.2176 -0.3876
  894MOL0     O20563   1.564   1.429   1.315 -0.0876 -0.7938  0.3715
  894MOL0     C20564   1.618   1.453   1.449 -0.5236  0.2623 -0.2063
  894MOL0     C20565   1.551   1.571   1.523  0.4624 -0.3663  0.0335
  894MOL0     C20566   1.403   1.545   1.546 -0.0541 -0.1320 -0.1096
  894MOL0     C20567   1.349   1.639   1.647 -0.0719 -0.3087 -0.5905
  894MOL0     C20568   1.204   1.595   1.701 -0.0079  0.1186  0.2304
  894MOL0     C20569   1.159   1.665   1.827 -0.2362 -0.1258  0.0725
  894MOL0     C20570   1.034   1.596   1.892 -0.5697  0.0216  0.1545
  894MOL0     C20571   1.003   1.668   2.025  0.0845 -0.3729 -0.1270
  894MOL0     N20572   0.911   1.591   2.102  0.4886  0.3977  0.2275
  894MOL0     C20573   0.925   1.463   2.148  0.0568  0.4304 -1.2369
  894MOL0     C20574   0.807   1.435   2.200  0.0194  0.0655  0.0325
  894MOL0     C20575   0.750   1.305   2.249 -0.5198  0.2365 -0.0455
  894MOL0     C20576   0.839   1.184   2.235 -0.0355 -0.6384 -1.2005
  894MOL0     C20577   0.783   1.066   2.323  0.1164  0.1935 -0.4769
  894MOL0     C20578   0.634   1.028   2.284  0.7714 -0.0067  0.6358
  894MOL0     O20579   0.542   1.109   2.354 -0.2757  0.5801 -0.1812
  894MOL0     C20580   0.403   1.090   2.345  0.5982  0.3270  1.0368
  894MOL0     C20581   0.343   1.018   2.237  0.7447  0.5185  0.1593
  894MOL0     C20582   0.207   1.000   2.235 -0.5570  0.1690 -0.1306
  894MOL0     C20583   0.160   0.943   2.109  0.1353 -0.2095 -0.7661
  894MOL0     C20584   0.121   1.054   2.331  0.0091 -0.0183 -0.0665
  894MOL0     C20585  -0.023   1.044   2.337  0.6276  0.0235  0.2683
  894MOL0     O20586  -0.076   1.032   2.467  0.1599  0.8589  0.2995
  894MOL0     C20587  -0.208   1.067   2.487 -0.7316  0.5655  0.0522
  894MOL0     C20588  -0.233   1.087   2.625  0.6793 -0.1225  0.0778
  894MOL0     C20589  -0.356   1.086   2.684 -0.5110  0.0090  0.0106
  894MOL0     C20590  -0.464   1.067   2.595  0.3368  0.9007  0.0975
  894MOL0     O20591  -0.590   1.058   2.649  0.3379 -0.0001 -0.0937
  894MOL0     C20592  -0.621   0.983   2.765 -1.2179  0.9666  0.0902
  894MOL0     C20593  -0.693   1.070   2.865  0.2518 -1.0128 -0.7668
  894MOL0     C20594  -0.831   1.109   2.805  1.2119 -0.3318  0.3960
  894MOL0     C20595  -0.928   1.156   2.916 -0.0071 -0.8111  1.1676
  894MOL0     C20596  -1.067   1.173   2.848 -0.5291  0.1737 -0.5845
  894MOL0     C20597  -1.156   1.246   2.946  0.3565  0.3004 -0.0849
  894MOL0     C20598  -1.286   1.300   2.867  0.8919  0.4480  0.0454
  894MOL0     C20599  -1.252   1.433   2.800 -0.0942  0.9418 -0.5379
  894MOL0    Cl20600  -1.396   1.538   2.811  0.2105  0.2064 -0.1152
  894MOL0     C20601  -0.448   1.061   2.453 -0.1557 -0.6828 -0.0778
  894MOL0     C20602  -0.315   1.077   2.399  0.1875 -0.3095 -0.2096
  894MOL0     O20603  -0.086   1.055   2.232 -0.2233 -0.1824  0.3608
  894MOL0     C20604   0.182   1.127   2.438 -0.1487  0.1323 -0.4676
  894MOL0     C20605   0.323   1.140   2.440 -0.2128 -0.1912  0.5441
  894MOL0     N20606   0.726   1.547   2.198 -0.9605  0.2263 -0.5147
  894MOL0     N20607   0.790   1.638   2.126  0.1528 -0.2553 -1.1588
  894MOL0     C20608   1.665   1.203   1.333 -0.6848  0.3981  0.2606
  894MOL0     C20609   1.710   1.097   1.262  0.2119  0.6408  0.4629
  894MOL0     C20610   1.831   0.767   1.051 -0.7937  0.1633 -0.4168
  894MOL0     C20611   1.895   0.801   0.926  0.1069  0.4671  0.2243
  894MOL0     C20612   1.994   0.722   0.869  0.8486 -0.3083 -0.3744
  894MOL0     C20613   2.038   0.605   0.930 -0.1328  1.0257  0.3307
  894MOL0     O20614   2.131   0.527   0.866  0.2235 -0.4506 -0.5194
  894MOL0     C20615   2.185   0.415   0.938 -0.3632  0.2942  0.1353
  894MOL0     C20616   2.287   0.331   0.847  0.0224 -0.1633 -1.1603
  894MOL0     C20617   2.418   0.414   0.814 -0.4968  0.6285  0.3867
  894MOL0     C20618   2.515   0.339   0.714 -0.3308  0.0172 -0.1837
  894MOL0     C20619   2.458   0.322   0.581  0.1950 -0.1869 -1.0664
  894MOL0     C20620   2.428   0.291   0.471 -0.1058  0.9526  1.3011
  894MOL0     C20621   1.984   0.572   1.060  0.5237  0.0406  0.5198
  894MOL0     C20622   1.878   0.652   1.118 -0.3211  0.4759  0.9673
  894MOL0     H20623   1.581   1.168   0.958 -0.6007 -3.4176  0.0198
  894MOL0     H20624   1.514   1.367   1.073  2.8662  2.2614 -0.6287
  894MOL0     H20625   1.603   1.364   1.510  2.4958  0.9693  1.7558
  894MOL0     H20626   1.726   1.467   1.439 -0.6231 -0.0246 -2.0551
  894MOL0     H20627   1.588   1.581   1.625  1.1624  0.3820 -0.2835
  894MOL0     H20628   1.566   1.659   1.459 -0.0182 -1.7059 -2.0232
  894MOL0     H20629   1.351   1.553   1.450  1.5970  1.1737 -0.9593
  894MOL0     H20630   1.389   1.443   1.583  0.5760 -0.2459 -0.1772
  894MOL0     H20631   1.420   1.635   1.730  1.3578 -1.6807 -1.8274
  894MOL0     H20632   1.339   1.737   1.598 -1.5663 -1.6669 -3.2192
  894MOL0     H20633   1.138   1.611   1.615 -0.9152  1.7940  1.1894
  894MOL0     H20634   1.200   1.486   1.707 -0.0587 -0.0852 -2.3226
  894MOL0     H20635   1.244   1.677   1.894  0.0611  0.4723 -0.4012
  894MOL0     H20636   1.132   1.763   1.789  0.4021 -0.5324 -1.5155
  894MOL0     H20637   0.950   1.601   1.822  1.4486 -0.6781 -2.4696
  894MOL0     H20638   1.052   1.490   1.911  0.2438  0.5388  2.6083
  894MOL0     H20639   0.957   1.765   2.005 -4.0688 -1.4779  2.7267
  894MOL0     H20640   1.098   1.671   2.080  0.4036  0.8713 -0.7145
  894MOL0     H20641   0.999   1.384   2.136  0.6859  1.3370 -3.9819
  894MOL0     H20642   0.718   1.323   2.353 -0.0750  3.5378 -0.3836
  894MOL0     H20643   0.659   1.291   2.190  0.2043 -0.3573 -1.0344
  894MOL0     H20644   0.943   1.208   2.260 -0.6894  3.4101 -1.7818
  894MOL0     H20645   0.841   1.153   2.130  4.8537 -2.0524 -0.9300
  894MOL0     H20646   0.806   1.077   2.429  0.2893 -0.7246 -0.4088
  894MOL0     H20647   0.845   0.986   2.280 -2.2725 -3.4040  2.1666
  894MOL0     H20648   0.610   0.924   2.308 -3.1019  0.2422 -1.3897
  894MOL0     H20649   0.619   1.034   2.175 -2.0455 -0.1603  0.9412
  894MOL0     H20650   0.405   0.970   2.162  1.7524 -0.7814  1.7687
  894MOL0     H20651   0.192   0.838   2.111  0.4835 -0.1652 -2.2556
  894MOL0     H20652   0.051   0.943   2.102 -0.0228  1.4472  0.9315
  894MOL0     H20653   0.208   0.996   2.025 -0.1681 -0.9316 -1.4095
  894MOL0     H20654  -0.152   1.104   2.694  0.4682  1.0674  0.0443
  894MOL0     H20655  -0.359   1.110   2.790 -0.7347 -1.9425  0.4764
  894MOL0     H20656  -0.683   0.899   2.730  0.3102 -0.0650 -0.2442
  894MOL0     H20657  -0.535   0.938   2.816 -0.7616 -0.0041 -1.4461
  894MOL0     H20658  -0.694   1.027   2.966  1.3935  2.3634  0.8447
  894MOL0     H20659  -0.630   1.156   2.890 -0.6350 -0.4585 -0.3589
  894MOL0     H20660  -0.887   1.042   2.740 -1.2699  2.6716 -0.7779
  894MOL0     H20661  -0.806   1.190   2.736  2.2425  0.3961  1.5656
  894MOL0     H20662  -0.937   1.080   2.993 -1.3455 -1.1720  0.6855
  894MOL0     H20663  -0.895   1.249   2.965 -1.6178 -1.1341  2.9839
  894MOL0     H20664  -1.107   1.074   2.825  0.3658 -0.6616  1.2475
  894MOL0     H20665  -1.053   1.240   2.762 -0.5874  2.3386  1.0289
  894MOL0     H20666  -1.194   1.170   3.015 -1.1255  1.6655  0.6659
  894MOL0     H20667  -1.109   1.318   3.013  1.4661 -0.8228  0.3891
  894MOL0     H20668  -1.364   1.318   2.941 -1.6362 -0.6732 -2.1725
  894MOL0     H20669  -1.320   1.235   2.786 -1.6043  1.4954  0.1881
  894MOL0     H20670  -1.234   1.409   2.695 -1.1596  0.5162 -0.6396
  894MOL0     H20671  -1.166   1.484   2.844  0.1811 -0.8899  1.1824
  894MOL0     H20672  -0.529   1.038   2.385 -0.0789 -3.5115  0.6505
  894MOL0     H20673  -0.306   1.067   2.292  3.6549  2.6946 -0.4123
  894MOL0     H20674   0.115   1.172   2.511 -0.3374 -3.7155  2.0230
  894MOL0     H20675   0.369   1.196   2.521  0.9393  0.8160 -0.7520
  894MOL0     H20676   1.707   1.207   1.433  3.3245  0.2730 -1.2596
  894MOL0     H20677   1.757   1.018   1.319  0.2156  0.2380 -0.0873
  894MOL0     H20678   1.851   0.883   0.872  0.2868  0.9616  0.8130
  894MOL0     H20679   2.027   0.740   0.767 -2.0871  1.2318 -1.1531
  894MOL0     H20680   2.247   0.444   1.024  1.0871 -3.1776  0.4362
  894MOL0     H20681   2.105   0.351   0.977  0.7508 -2.2439 -1.5105
  894MOL0     H20682   2.253   0.297   0.749  1.9669 -0.3129 -1.8289
  894MOL0     H20683   2.328   0.242   0.895  0.1650  0.2246 -0.5554
  894MOL0     H20684   2.480   0.429   0.903 -2.3247  1.3443  1.6130
  894MOL0     H20685   2.380   0.503   0.763 -1.5844 -2.1475 -4.2894
  894MOL0     H20686   2.527   0.244   0.767 -0.8670 -1.2960 -2.3170
  894MOL0     H20687   2.607   0.396   0.697  0.0515 -0.6196 -0.2794
  894MOL0     H20688   2.382   0.260   0.379 -1.0653  1.1609  1.6889
  894MOL0     H20689   2.018   0.489   1.120 -0.5071  0.1441  1.2780
  894MOL0     H20690   1.849   0.626   1.219  0.6617 -1.2566  0.8442
  895MOL0     O20691   0.227   2.461   0.149  0.0823  0.0786  0.2268
  895MOL0     C20692   0.262   2.539   0.060  0.5491 -0.3769  0.4920
  895MOL0     O20693   0.177   2.628  -0.007 -0.4394  0.9189  0.3235
  895MOL0     C20694   0.039   2.615   0.018 -0.7453 -0.5913  0.2119
  895MOL0     C20695  -0.050   2.572  -0.083 -0.1483 -0.7531  0.0625
  895MOL0     C20696  -0.183   2.565  -0.049 -0.3893 -0.6798 -0.1311
  895MOL0     C20697  -0.227   2.599   0.078  0.7808  0.8771 -0.1554
  895MOL0     O20698  -0.360   2.595   0.114 -0.2865 -0.4010  0.6582
  895MOL0     C20699  -0.443   2.690   0.040  0.1780 -0.3987 -1.1959
  895MOL0     C20700  -0.524   2.763   0.153  0.1671 -0.1197  0.3100
  895MOL0     C20701  -0.614   2.681   0.248  0.6112  0.2883  0.3009
  895MOL0     C20702  -0.766   2.673   0.203  0.7577  0.3828  0.0191
  895MOL0     C20703  -0.876   2.633   0.315 -0.3763  0.1634 -0.5348
  895MOL0     C20704  -1.018   2.644   0.268  0.1028  0.0893  0.2362
  895MOL0     C20705  -1.069   2.503   0.274  0.4888  0.1005  0.8759
  895MOL0     C20706  -1.222   2.518   0.299 -0.0915  0.5869 -0.3772
  895MOL0     N20707  -1.291   2.397   0.326 -1.2689  0.1140  0.0200
  895MOL0     C20708  -1.284   2.285   0.254 -0.4224 -0.2000  0.7415
  895MOL0     C20709  -1.357   2.189   0.311 -0.0093  0.1736 -0.2580
  895MOL0     C20710  -1.379   2.051   0.266 -0.6156 -0.0277  0.3221
  895MOL0     C20711  -1.510   2.058   0.179  0.1417  0.7057 -0.0793
  895MOL0     C20712  -1.538   1.916   0.124  0.4407 -0.4602  0.0706
  895MOL0     C20713  -1.674   1.906   0.063 -0.5350 -0.0567 -0.6333
  895MOL0     O20714  -1.701   1.773   0.024 -0.0633 -0.0119  0.4117
  895MOL0     C20715  -1.822   1.739  -0.025  0.3250 -0.6735  0.2132
  895MOL0     C20716  -1.888   1.821  -0.119 -0.0947  0.0019 -1.1574
  895MOL0     C20717  -2.020   1.791  -0.153  0.4265  0.1041 -0.0448
  895MOL0     C20718  -2.091   1.881  -0.252 -0.2576 -0.6938 -0.5191
  895MOL0     C20719  -2.078   1.663  -0.109 -0.3598  0.1208  0.2597
  895MOL0     C20720  -2.226   1.622  -0.131  0.4722  0.2237  0.6974
  895MOL0     O20721  -2.306   1.727  -0.170  0.8781 -0.3940 -1.2040
  895MOL0     C20722  -2.436   1.704  -0.207  0.9673 -0.0672  0.0306
  895MOL0     C20723  -2.539   1.753  -0.132  0.7087  0.3174 -0.5954
  895MOL0     C20724  -2.679   1.733  -0.169 -0.4352  0.9789 -0.0761
  895MOL0     C20725  -2.714   1.655  -0.279  0.0040 -0.1180  0.8467
  895MOL0     O20726  -2.847   1.642  -0.299 -0.2829 -0.1413 -0.0308
  895MOL0     C20727  -2.888   1.561  -0.405  1.0247  0.8222  0.3125
  895MOL0     C20728  -3.016   1.499  -0.384  0.5970 -0.2363 -0.4481
  895MOL0     C20729  -3.127   1.590  -0.333 -0.8838 -0.1789 -0.2707
  895MOL0     C20730  -3.122   1.644  -0.188  0.0999  0.1592 -0.5685
  895MOL0     C20731  -3.259   1.672  -0.129 -0.0715  0.1359  0.5276
  895MOL0     C20732  -3.273   1.771  -0.014 -0.1868  0.1305 -0.1984
  895MOL0     C20733  -3.161   1.868   0.007  0.3122  0.7488 -0.1930
  895MOL0     C20734  -3.159   1.978  -0.096 -0.8839  0.0275  0.0036
  895MOL0    Cl20735  -3.011   2.088  -0.079  0.3923  0.0660 -0.0257
  895MOL0     C20736  -2.611   1.606  -0.358 -0.1153 -0.1134  0.3184
  895MOL0     C20737  -2.474   1.632  -0.328  0.5986 -0.4988 -0.1960
  895MOL0     O20738  -2.259   1.506  -0.111  1.4954  0.2487  0.2864
  895MOL0     C20739  -2.002   1.575  -0.035  0.4910  0.3799 -0.9169
  895MOL0     C20740  -1.879   1.615   0.017  0.4780 -0.1455 -1.1143
  895MOL0     N20741  -1.408   2.247   0.431 -0.6737 -0.1201  0.3062
  895MOL0     N20742  -1.362   2.371   0.433  0.0005 -1.0380 -0.9629
  895MOL0     C20743  -0.141   2.643   0.174 -0.1615  0.1016 -0.3504
  895MOL0     C20744  -0.010   2.653   0.141 -0.8170  0.0128 -1.0660
  895MOL0     C20745   0.408   2.541   0.017 -0.4233 -0.4179 -1.1531
  895MOL0     C20746   0.512   2.475   0.097 -0.4268 -1.1346  0.4846
  895MOL0     C20747   0.646   2.491   0.064 -0.1671  0.5071 -0.4212
  895MOL0     C20748   0.684   2.551  -0.053 -0.2724 -0.3699  0.4261
  895MOL0     O20749   0.811   2.560  -0.103  0.2568 -0.0229  0.5037
  895MOL0     C20750   0.834   2.479  -0.224  0.9128 -0.6418 -0.7827
  895MOL0     C20751   0.899   2.349  -0.185  0.4870  0.6435 -0.5113
  895MOL0     C20752   0.915   2.244  -0.294  0.0576  0.4197  0.0490
  895MOL0     C20753   1.037   2.157  -0.298  0.0022  0.7946  0.0160
  895MOL0     C20754   1.015   2.024  -0.364 -0.3985  0.3470 -0.1287
  895MOL0     C20755   0.972   1.918  -0.404 -1.0809 -0.0704  0.2986
  895MOL0     C20756   0.580   2.614  -0.128  0.4647 -0.7495  0.5369
  895MOL0     C20757   0.446   2.613  -0.092  0.1220 -0.7132 -0.2301
  895MOL0     H20758  -0.019   2.561  -0.186 -0.2209  2.0593 -0.3469
  895MOL0     H20759  -0.256   2.533  -0.124 -0.2038 -0.6988 -0.3025
  895MOL0     H20760  -0.374   2.755  -0.013  1.8028 -1.2994 -0.2653
  895MOL0     H20761  -0.505   2.626  -0.024  0.8413  0.5169 -2.8197
  895MOL0     H20762  -0.443   2.812   0.207  2.0001 -1.6123 -0.9438
  895MOL0     H20763  -0.586   2.841   0.107  0.1093 -0.6502 -0.5450
  895MOL0     H20764  -0.573   2.581   0.264  0.9211  0.2236 -0.8378
  895MOL0     H20765  -0.623   2.741   0.339 -1.5624  2.1439 -1.0262
  895MOL0     H20766  -0.802   2.763   0.151 -0.9168 -0.4577 -0.3437
  895MOL0     H20767  -0.770   2.593   0.128 -0.0705  1.3247 -0.9657
  895MOL0     H20768  -0.852   2.535   0.355 -0.9118  0.4529  0.5431
  895MOL0     H20769  -0.864   2.694   0.405 -0.4479 -0.2937 -0.2120
  895MOL0     H20770  -1.076   2.716   0.327 -1.5341  0.2582 -1.4721
  895MOL0     H20771  -1.015   2.667   0.161 -0.5291 -0.3630  0.1142
  895MOL0     H20772  -1.051   2.450   0.179 -0.7807 -2.7536  2.0960
  895MOL0     H20773  -1.025   2.437   0.349 -2.1202 -1.0863  1.4884
  895MOL0     H20774  -1.268   2.575   0.218  0.9542  4.3359  1.4567
  895MOL0     H20775  -1.236   2.579   0.389  1.7128 -1.4814  1.4297
  895MOL0     H20776  -1.224   2.277   0.164  2.1932  2.0843  2.1100
  895MOL0     H20777  -1.294   2.020   0.204  0.1885 -0.9602  1.8550
  895MOL0     H20778  -1.399   1.980   0.346  0.9975 -1.7070 -0.6715
  895MOL0     H20779  -1.501   2.123   0.091 -0.9033 -1.2361 -1.6921
  895MOL0     H20780  -1.596   2.094   0.236 -1.8653 -4.1349  0.4298
  895MOL0     H20781  -1.521   1.840   0.201 -3.7748  0.2598  2.0175
  895MOL0     H20782  -1.467   1.902   0.043 -1.9358 -1.1366 -2.0133
  895MOL0     H20783  -1.678   1.971  -0.025  1.3770  0.7843 -0.1552
  895MOL0     H20784  -1.748   1.939   0.137  0.0342  2.9739 -1.2531
  895MOL0     H20785  -1.847   1.914  -0.156  2.2993 -0.3680  0.3247
  895MOL0     H20786  -2.154   1.957  -0.204 -2.1557 -1.7594 -1.2139
  895MOL0     H20787  -2.011   1.931  -0.306  1.6432 -1.8384  1.1200
  895MOL0     H20788  -2.152   1.826  -0.324 -0.6983  1.5009 -1.9308
  895MOL0     H20789  -2.526   1.795  -0.033 -0.6668 -0.4898 -0.0378
  895MOL0     H20790  -2.764   1.755  -0.106 -3.1655  2.4591 -3.8753
  895MOL0     H20791  -2.901   1.625  -0.493  1.0647 -1.8084 -1.7103
  895MOL0     H20792  -2.827   1.473  -0.423 -2.1127 -1.9930  2.2531
  895MOL0     H20793  -3.068   1.456  -0.470  1.0563 -1.8207  0.0234
  895MOL0     H20794  -3.002   1.417  -0.313 -1.7670  0.2383  0.6620
  895MOL0     H20795  -3.220   1.536  -0.351 -2.3217  1.8398  0.6293
  895MOL0     H20796  -3.140   1.682  -0.391  0.1209  2.3068  3.1324
  895MOL0     H20797  -3.068   1.573  -0.124 -0.0675  1.1136  0.6548
  895MOL0     H20798  -3.054   1.729  -0.180  0.0714  0.3458 -2.0984
  895MOL0     H20799  -3.315   1.580  -0.112  1.4050 -1.3083 -1.8536
  895MOL0     H20800  -3.308   1.726  -0.210  0.2287  4.0873  2.7271
  895MOL0     H20801  -3.368   1.825  -0.018 -0.3332 -0.1088  0.0086
  895MOL0     H20802  -3.262   1.711   0.076  2.4557  0.2012 -0.4049
  895MOL0     H20803  -3.062   1.823   0.009  0.0857  0.1806 -1.0926
  895MOL0     H20804  -3.181   1.919   0.101 -1.9936 -0.6680  0.1612
  895MOL0     H20805  -3.246   2.043  -0.082  1.4289  3.4678 -0.3914
  895MOL0     H20806  -3.171   1.931  -0.194 -3.3552  4.0619 -1.9039
  895MOL0     H20807  -2.632   1.549  -0.448  0.8633 -0.5557  0.3616
  895MOL0     H20808  -2.388   1.609  -0.391  1.7937  0.3371  1.0598
  895MOL0     H20809  -2.038   1.475  -0.014 -1.7479  1.1358 -0.9191
  895MOL0     H20810  -1.812   1.546   0.067  1.6770  1.5167 -0.3463
  895MOL0     H20811  -0.185   2.686   0.263  1.5250  1.2701 -0.0199
  895MOL0     H20812   0.068   2.681   0.211  0.1036  0.4046 -2.2368
  895MOL0     H20813   0.468   2.423   0.181 -0.6523 -1.9136 -0.1023
  895MOL0     H20814   0.724   2.459   0.133  1.1744 -0.2372 -2.2027
  895MOL0     H20815   0.743   2.477  -0.284  1.1884 -0.0550 -1.2331
  895MOL0     H20816   0.915   2.525  -0.281  0.9339  2.5517  1.5167
  895MOL0     H20817   0.842   2.306  -0.102  1.1935  0.0979 -0.2981
  895MOL0     H20818   0.999   2.371  -0.146  0.6571  2.4411 -1.8612
  895MOL0     H20819   0.913   2.296  -0.390  0.8851 -0.0882 -0.2571
  895MOL0     H20820   0.830   2.176  -0.296  1.3387 -1.2537 -1.4360
  895MOL0     H20821   1.070   2.135  -0.196 -1.1959 -3.5133 -0.3632
  895MOL0     H20822   1.115   2.213  -0.351  1.3812 -0.4886  0.6266
  895MOL0     H20823   0.929   1.826  -0.440 -1.3591  0.9062 -2.0962
  895MOL0     H20824   0.611   2.664  -0.219 -1.9955  0.8135  0.4619
  895MOL0     H20825   0.390   2.670  -0.165  2.9126 -0.0684 -1.9901
  896MOL0     O20826   3.491   6.020   2.392 -0.1821  0.0839  0.2498
  896MOL0     C20827   3.554   6.064   2.486 -0.3957 -0.3650  0.1259
  896MOL0     O20828   3.579   5.998   2.606  0.7315  0.2335  0.1482
  896MOL0     C20829   3.507   5.883   2.634 -0.0723  0.8943 -0.3214
  896MOL0     C20830   3.455   5.882   2.764 -0.0018  0.4330  0.4142
  896MOL0     C20831   3.389   5.767   2.808  0.5239  0.1685 -0.6089
  896MOL0     C20832   3.366   5.663   2.726  0.6287 -0.8161 -0.1480
  896MOL0     O20833   3.308   5.547   2.766  0.4627  1.2788  0.1613
  896MOL0     C20834   3.273   5.534   2.908  0.1678  0.6331 -0.4530
  896MOL0     C20835   3.179   5.410   2.926  0.4513  0.2766  0.0442
  896MOL0     C20836   3.259   5.280   2.894  0.1136  0.2190  0.5272
  896MOL0     C20837   3.260   5.244   2.744  0.3265  0.0150  0.7727
  896MOL0     C20838   3.130   5.163   2.712 -0.7512  0.3202 -0.4943
  896MOL0     C20839   3.120   5.127   2.562  0.2945 -0.6816 -0.1378
  896MOL0     C20840   2.974   5.100   2.514  1.3441 -0.3405  0.3526
  896MOL0     C20841   2.888   5.232   2.518  0.5351 -0.0671 -0.8843
  896MOL0     N20842   2.907   5.334   2.408  0.5926 -0.1600  1.0518
  896MOL0     C20843   3.009   5.425   2.389 -0.2137 -0.5061  0.2735
  896MOL0     C20844   3.018   5.450   2.261  0.5849  0.4966 -0.0645
  896MOL0     C20845   3.120   5.537   2.193  0.2619  0.1107 -0.2948
  896MOL0     C20846   3.087   5.681   2.212 -0.2645 -0.3165  0.0929
  896MOL0     C20847   3.207   5.770   2.173  0.4471 -0.0018 -0.2688
  896MOL0     C20848   3.157   5.915   2.141 -0.2547 -0.6237  0.1237
  896MOL0     O20849   3.144   5.986   2.265 -0.5218  0.1283  0.3497
  896MOL0     C20850   3.193   6.112   2.267  0.0842 -0.5033  0.4996
  896MOL0     C20851   3.224   6.159   2.397  1.2452 -0.7596 -0.7581
  896MOL0     C20852   3.281   6.286   2.419  0.7525  0.2612  0.3874
  896MOL0     C20853   3.316   6.307   2.570 -0.1633 -0.8264 -1.1895
  896MOL0     C20854   3.306   6.378   2.307 -0.4525 -0.2577 -0.6508
  896MOL0     C20855   3.384   6.498   2.331 -0.2735 -0.3275  0.6624
  896MOL0     O20856   3.395   6.581   2.227 -0.2068  0.6484  0.1121
  896MOL0     C20857   3.468   6.700   2.225  0.2724 -0.0214  0.1942
  896MOL0     C20858   3.492   6.779   2.333  1.0015  0.1934  0.2314
  896MOL0     C20859   3.573   6.892   2.319 -0.4100  0.6881  0.8851
  896MOL0     C20860   3.617   6.928   2.193  0.1049 -0.2066 -0.4762
  896MOL0     O20861   3.693   7.047   2.168 -0.1461 -0.9669  0.0835
  896MOL0     C20862   3.800   7.080   2.256  0.1601  0.5068  0.1693
  896MOL0     C20863   3.936   7.057   2.182  0.4124 -0.0773  0.5279
  896MOL0     C20864   4.063   7.070   2.267 -0.4322  0.4005 -0.4171
  896MOL0     C20865   4.085   6.955   2.373 -0.2597  0.1174 -0.3537
  896MOL0     C20866   4.230   6.935   2.412  0.4596 -1.0266  0.1935
  896MOL0     C20867   4.264   7.037   2.517 -0.1548 -0.6291 -0.1068
  896MOL0     C20868   4.422   7.034   2.545 -0.7477 -0.2526  0.5373
  896MOL0     C20869   4.469   6.909   2.623  0.5354  0.5015 -0.9653
  896MOL0    Cl20870   4.411   6.930   2.785 -0.0842 -0.3879 -0.2401
  896MOL0     C20871   3.594   6.846   2.082 -0.5379 -0.1260 -0.0843
  896MOL0     C20872   3.528   6.727   2.103 -1.5128 -0.0712  0.7716
  896MOL0     O20873   3.436   6.519   2.433 -0.3385  0.4261 -1.0580
  896MOL0     C20874   3.262   6.329   2.180 -0.0719 -0.0999  0.0010
  896MOL0     C20875   3.214   6.198   2.154  0.3125 -0.5193  0.8546
  896MOL0     N20876   2.920   5.377   2.198  0.6765 -0.1614  0.0148
  896MOL0     N20877   2.848   5.310   2.278 -0.8236  0.3447 -0.1106
  896MOL0     C20878   3.407   5.668   2.599  0.3589  0.1592 -0.3138
  896MOL0     C20879   3.483   5.773   2.550 -0.9296  0.2073 -0.3228
  896MOL0     C20880   3.644   6.186   2.475  0.9780 -0.5235 -0.4107
  896MOL0     C20881   3.661   6.257   2.346 -0.3115  1.1118  0.5058
  896MOL0     C20882   3.722   6.381   2.343  0.3016  0.2378 -0.4146
  896MOL0     C20883   3.789   6.435   2.459  0.3834  0.6620  0.0622
  896MOL0     O20884   3.864   6.548   2.461  0.5452  0.1307  0.4165
  896MOL0     C20885   3.875   6.628   2.338  0.0945 -0.1599 -0.1731
  896MOL0     C20886   3.988   6.580   2.244  0.5345  0.1615  0.0839
  896MOL0     C20887   4.125   6.569   2.315  0.5580  0.0414 -0.4714
  896MOL0     C20888   4.244   6.562   2.213 -0.0521  0.1260 -0.0185
  896MOL0     C20889   4.370   6.611   2.269 -0.9018 -0.2713  0.1714
  896MOL0     C20890   4.476   6.634   2.324  0.1862 -0.5734  0.2189
  896MOL0     C20891   3.784   6.359   2.571  0.7240 -0.1962 -0.2873
  896MOL0     C20892   3.708   6.242   2.589 -0.0620  0.0045  0.5742
  896MOL0     H20893   3.486   5.968   2.821 -2.0489  1.9502 -0.6347
  896MOL0     H20894   3.345   5.765   2.907  0.4656  0.7742 -0.6180
  896MOL0     H20895   3.357   5.502   2.971  0.5273  0.7033 -0.8866
  896MOL0     H20896   3.224   5.621   2.953  1.1497 -0.3669  2.8448
  896MOL0     H20897   3.164   5.415   3.034  0.9684 -1.2528  0.2165
  896MOL0     H20898   3.085   5.421   2.871  0.5602  1.7300  0.1268
  896MOL0     H20899   3.356   5.282   2.945 -0.8419 -0.5152  2.4846
  896MOL0     H20900   3.210   5.194   2.941  0.8573  0.5019  1.8911
  896MOL0     H20901   3.255   5.327   2.673 -0.4813 -1.6587 -1.2410
  896MOL0     H20902   3.349   5.187   2.714  1.4995  1.5647  1.1511
  896MOL0     H20903   3.134   5.065   2.760 -1.3808 -0.3127 -1.6792
  896MOL0     H20904   3.045   5.218   2.754 -0.9124  0.4002 -0.9227
  896MOL0     H20905   3.167   5.208   2.504  0.6127  0.6103  1.8369
  896MOL0     H20906   3.184   5.041   2.540  3.1246  0.4237  3.0123
  896MOL0     H20907   2.965   5.071   2.409  0.5112 -2.2394  0.8870
  896MOL0     H20908   2.927   5.025   2.579 -0.5783  0.2223 -0.2972
  896MOL0     H20909   2.910   5.276   2.615 -2.6141 -1.0938  0.4468
  896MOL0     H20910   2.785   5.196   2.529  1.1037 -1.3719  0.6560
  896MOL0     H20911   3.088   5.452   2.458 -0.5562  0.0922  0.4443
  896MOL0     H20912   3.214   5.513   2.243  0.6255  1.8154 -0.1071
  896MOL0     H20913   3.114   5.518   2.086 -0.8203 -1.4410  0.0076
  896MOL0     H20914   3.061   5.712   2.314  2.1962  0.4523  0.5430
  896MOL0     H20915   2.995   5.701   2.155 -1.7184  0.0803  2.4393
  896MOL0     H20916   3.258   5.729   2.085 -1.7645 -4.1937  0.1378
  896MOL0     H20917   3.276   5.773   2.258  1.4506  0.1660 -1.0701
  896MOL0     H20918   3.057   5.906   2.097  0.2892  2.5463 -2.0761
  896MOL0     H20919   3.224   5.970   2.075  1.1906 -1.6719  0.6504
  896MOL0     H20920   3.202   6.087   2.475 -4.6303 -0.0273 -1.2928
  896MOL0     H20921   3.422   6.334   2.581  0.1138 -2.3350  0.1884
  896MOL0     H20922   3.257   6.386   2.618 -0.5349  1.6833 -5.3592
  896MOL0     H20923   3.306   6.217   2.631  4.8909 -0.5752  0.5475
  896MOL0     H20924   3.444   6.764   2.429 -1.0937  1.3151 -0.5730
  896MOL0     H20925   3.602   6.965   2.394  1.4931 -0.7931  1.6773
  896MOL0     H20926   3.805   7.184   2.291  1.0222  0.2784  0.7705
  896MOL0     H20927   3.812   7.019   2.346  3.8648  0.9166  0.1357
  896MOL0     H20928   3.933   6.956   2.139 -2.1292  0.1786 -0.0626
  896MOL0     H20929   3.942   7.126   2.098 -1.7656 -0.0438  0.3408
  896MOL0     H20930   4.049   7.163   2.323 -1.1417 -0.0793  0.2213
  896MOL0     H20931   4.144   7.075   2.193  0.7964 -2.1335  0.6273
  896MOL0     H20932   4.028   6.988   2.461 -0.4565 -1.2879  0.0625
  896MOL0     H20933   4.055   6.858   2.335  1.1924  0.1500 -1.6928
  896MOL0     H20934   4.294   6.946   2.324  0.0769  1.9407  0.1649
  896MOL0     H20935   4.252   6.836   2.452  0.1550 -2.3042 -2.6242
  896MOL0     H20936   4.236   7.137   2.485  1.0612 -0.7359 -1.6491
  896MOL0     H20937   4.210   7.008   2.608 -1.9736  0.6091 -0.7542
  896MOL0     H20938   4.464   7.130   2.578  2.6923 -0.8810 -1.5857
  896MOL0     H20939   4.468   7.013   2.448  5.0427  0.4936  2.7222
  896MOL0     H20940   4.578   6.902   2.621  0.6698  2.3108 -0.9456
  896MOL0     H20941   4.424   6.821   2.576  1.1237  0.2481 -1.0650
  896MOL0     H20942   3.647   6.869   1.990  1.4462 -2.4459  0.3636
  896MOL0     H20943   3.513   6.653   2.025 -3.2190  1.2303 -0.2124
  896MOL0     H20944   3.281   6.391   2.093  0.3439  1.1004  0.9308
  896MOL0     H20945   3.183   6.163   2.056  3.8169  1.0402 -1.0128
  896MOL0     H20946   3.391   5.578   2.540 -2.2879  2.5785 -3.7293
  896MOL0     H20947   3.503   5.761   2.444 -3.8887 -1.5113 -0.8056
  896MOL0     H20948   3.608   6.210   2.264 -0.5970  1.3437  0.5540
  896MOL0     H20949   3.722   6.432   2.247  1.9689  0.6782 -0.2135
  896MOL0     H20950   3.785   6.626   2.275 -0.8835 -0.9102  1.1753
  896MOL0     H20951   3.886   6.732   2.372 -0.3125  0.6164 -2.2495
  896MOL0     H20952   3.994   6.660   2.169 -0.5769 -1.5367 -1.9193
  896MOL0     H20953   3.955   6.486   2.199  0.2775  0.0906  0.4134
  896MOL0     H20954   4.108   6.480   2.378 -2.1037 -0.4270 -1.7121
  896MOL0     H20955   4.148   6.655   2.379 -0.6131 -0.8564  1.2593
  896MOL0     H20956   4.233   6.623   2.123  0.5278  0.9122  0.4272
  896MOL0     H20957   4.256   6.457   2.184  0.5389 -0.7291  3.0251
  896MOL0     H20958   4.570   6.648   2.375 -0.0549  1.3610  0.1926
  896MOL0     H20959   3.825   6.398   2.663  1.5544 -1.1257 -0.2432
  896MOL0     H20960   3.717   6.203   2.690  0.4020 -0.4087  0.3735
  897MOL0     O20961   7.605   0.495   2.981  0.5674 -0.6196 -0.4366
  897MOL0     C20962   7.535   0.393   2.999 -0.2545 -0.1203 -0.1390
  897MOL0     O20963   7.576   0.259   3.021 -0.0729  0.0144 -0.2328
  897MOL0     C20964   7.710   0.226   3.007  0.3946  1.3670  0.9016
  897MOL0     C20965   7.799   0.290   2.918 -0.0518  0.4444  0.4901
  897MOL0     C20966   7.931   0.242   2.897  0.1214 -0.4939  0.2989
  897MOL0     C20967   7.989   0.139   2.970  0.6692  1.1913  0.4235
  897MOL0     O20968   8.118   0.089   2.968 -0.9735 -0.6477  0.4652
  897MOL0     C20969   8.182   0.073   2.844  0.1390  0.9937  0.4656
  897MOL0     C20970   8.316  -0.004   2.860  1.6432  0.0566  0.6474
  897MOL0     C20971   8.405  -0.028   2.735  0.7131 -0.9385  0.2457
  897MOL0     C20972   8.543  -0.079   2.799  0.5147  0.4407 -0.0854
  897MOL0     C20973   8.643  -0.082   2.687  0.0339 -0.2644 -0.0330
  897MOL0     C20974   8.781  -0.139   2.718 -1.0089  0.1257 -0.2956
  897MOL0     C20975   8.896  -0.124   2.615  0.2963 -0.6820 -0.0926
  897MOL0     C20976   9.022  -0.191   2.668 -0.4550 -0.3327 -0.0728
  897MOL0     N20977   9.149  -0.139   2.600  0.0097  0.2912  0.2004
  897MOL0     C20978   9.276  -0.178   2.641 -0.4749 -0.0315  0.3210
  897MOL0     C20979   9.351  -0.139   2.537  0.3711  0.4606  0.4911
  897MOL0     C20980   9.499  -0.139   2.518  0.7752  0.0405  0.0085
  897MOL0     C20981   9.557  -0.271   2.567  0.1139  1.3394 -0.2801
  897MOL0     C20982   9.574  -0.379   2.448  0.7162  0.5187 -1.0943
  897MOL0     C20983   9.666  -0.333   2.349  0.4207  0.9793 -0.0471
  897MOL0     O20984   9.776  -0.425   2.343 -0.6849 -0.0875  0.2070
  897MOL0     C20985   9.887  -0.385   2.272 -1.0034  0.6418  0.4330
  897MOL0     C20986   9.952  -0.498   2.206  0.1986 -0.8579 -0.2778
  897MOL0     C20987  10.052  -0.480   2.111  0.4558  0.2589 -0.1672
  897MOL0     C20988  10.136  -0.598   2.068  0.1373  1.4294 -0.0352
  897MOL0     C20989  10.098  -0.349   2.082 -0.2775  0.1548 -0.2704
  897MOL0     C20990  10.219  -0.305   1.991  0.0273  0.6446 -0.0514
  897MOL0     O20991  10.251  -0.168   1.987  0.0228 -0.6845  0.4523
  897MOL0     C20992  10.372  -0.112   1.953  0.0191 -0.1380 -0.4374
  897MOL0     C20993  10.367   0.018   1.893 -0.2110 -0.5168 -0.1686
  897MOL0     C20994  10.496   0.074   1.864  0.1802 -1.0027  0.3170
  897MOL0     C20995  10.622   0.015   1.875  0.4899  0.1095  0.5041
  897MOL0     O20996  10.740   0.076   1.834 -0.6528  0.6373  0.0911
  897MOL0     C20997  10.730   0.179   1.741  0.2118 -0.6095  0.2997
  897MOL0     C20998  10.872   0.243   1.730  0.6428 -0.6272  0.2610
  897MOL0     C20999  10.950   0.148   1.628 -0.2615 -0.6896  0.7362
  897MOL0     C21000  10.985   0.218   1.493  0.0527 -0.5642 -0.1952
  897MOL0     C21001  11.033   0.118   1.382  0.1698 -1.0349  0.2995
  897MOL0     C21002  11.028   0.189   1.246 -0.6738  0.6885  0.4771
  897MOL0     C21003  11.039   0.084   1.133 -0.7262  0.5843  0.5922
  897MOL0     C21004  10.990   0.145   1.002 -0.3810 -0.8842  0.2853
  897MOL0    Cl21005  11.128   0.222   0.911 -0.6466 -0.6637  0.1366
  897MOL0     C21006  10.619  -0.115   1.929 -0.1848 -0.8297 -0.0634
  897MOL0     C21007  10.496  -0.170   1.974  0.2429 -0.1423  0.0782
  897MOL0     O21008  10.270  -0.386   1.911  0.2971  0.0438 -0.3122
  897MOL0     C21009  10.037  -0.236   2.150  0.0338  0.7083 -0.3724
  897MOL0     C21010   9.925  -0.256   2.240  0.3087  1.1897 -0.3000
  897MOL0     N21011   9.280  -0.081   2.440 -0.0701 -0.6477  0.0832
  897MOL0     N21012   9.159  -0.068   2.484  0.6541  0.1836  0.7257
  897MOL0     C21013   7.900   0.077   3.059 -0.2391 -0.3716 -0.0741
  897MOL0     C21014   7.765   0.117   3.080 -0.2340  0.1700 -0.2038
  897MOL0     C21015   7.385   0.400   3.020  0.4379 -0.0417  0.4110
  897MOL0     C21016   7.307   0.288   2.989  0.8762  0.3942  0.4904
  897MOL0     C21017   7.168   0.301   2.989 -0.1669  0.0450 -0.5251
  897MOL0     C21018   7.107   0.423   3.014 -0.2472 -0.6359 -0.6331
  897MOL0     O21019   6.972   0.432   2.998 -0.0654  0.4047 -0.2632
  897MOL0     C21020   6.925   0.536   2.917  0.5244  0.3305 -0.2451
  897MOL0     C21021   6.771   0.521   2.880 -0.5372 -0.5928  0.0985
  897MOL0     C21022   6.671   0.511   3.000  0.3642 -0.3470  1.5446
  897MOL0     C21023   6.527   0.523   2.955  0.3494 -0.0065 -0.4395
  897MOL0     C21024   6.427   0.487   3.055 -0.3081  0.4773  0.1304
  897MOL0     C21025   6.341   0.462   3.131  0.6013  0.3235 -0.1874
  897MOL0     C21026   7.187   0.538   3.059  0.5140  0.5302 -0.0038
  897MOL0     C21027   7.320   0.522   3.058 -1.2279 -0.5631 -0.2170
  897MOL0     H21028   7.773   0.377   2.859 -0.9514  0.6620  1.1614
  897MOL0     H21029   7.983   0.306   2.826 -0.9427 -1.2106 -1.1771
  897MOL0     H21030   8.120   0.021   2.770  2.0268  2.1209 -2.0694
  897MOL0     H21031   8.191   0.169   2.791  0.8661  0.4046 -0.5353
  897MOL0     H21032   8.361   0.050   2.944 -1.5535 -1.6128  3.7001
  897MOL0     H21033   8.294  -0.109   2.882  2.2998 -0.0624  0.7658
  897MOL0     H21034   8.360  -0.111   2.681  1.6137 -0.6217 -1.0376
  897MOL0     H21035   8.417   0.059   2.670  2.0293  0.1402  1.8371
  897MOL0     H21036   8.572  -0.001   2.870 -0.0581  2.4552 -1.9379
  897MOL0     H21037   8.526  -0.178   2.842 -1.9159  1.0025  0.3353
  897MOL0     H21038   8.590  -0.131   2.605 -1.5336  0.5574  0.4673
  897MOL0     H21039   8.645   0.023   2.654  1.4164 -0.6813 -1.4264
  897MOL0     H21040   8.816  -0.085   2.806 -0.6298  0.4432 -0.6334
  897MOL0     H21041   8.774  -0.243   2.753 -0.6156  0.2882  0.2736
  897MOL0     H21042   8.867  -0.163   2.517 -0.8375 -0.5519  0.1687
  897MOL0     H21043   8.914  -0.016   2.610  4.4796 -1.1780  0.8968
  897MOL0     H21044   9.007  -0.295   2.637 -3.5223  0.1610 -0.5084
  897MOL0     H21045   9.036  -0.180   2.776  1.0655  0.1758 -0.2948
  897MOL0     H21046   9.301  -0.223   2.736 -1.3201 -0.7361  0.2156
  897MOL0     H21047   9.522  -0.118   2.413  0.5544  1.2358  0.1883
  897MOL0     H21048   9.542  -0.073   2.593 -0.9576 -2.2099  3.2210
  897MOL0     H21049   9.501  -0.313   2.651  3.3042 -1.7697  0.5427
  897MOL0     H21050   9.649  -0.239   2.618  0.5678  0.1814 -0.3445
  897MOL0     H21051   9.477  -0.394   2.399 -0.7102 -0.7682  1.8428
  897MOL0     H21052   9.605  -0.472   2.495  1.6811  2.1540  1.7439
  897MOL0     H21053   9.703  -0.233   2.375 -0.3179  1.5638 -1.1379
  897MOL0     H21054   9.625  -0.327   2.247  0.7246  2.5083 -0.1080
  897MOL0     H21055   9.930  -0.601   2.231  2.7156 -1.1324  1.1476
  897MOL0     H21056  10.072  -0.684   2.091  1.6972 -0.3001 -1.7983
  897MOL0     H21057  10.161  -0.617   1.963 -0.0460 -1.0577  0.3151
  897MOL0     H21058  10.235  -0.599   2.115  0.6728  0.7162 -1.1502
  897MOL0     H21059  10.276   0.071   1.866  0.2686 -1.4427 -4.2363
  897MOL0     H21060  10.476   0.161   1.803 -1.0569  0.5569  2.7827
  897MOL0     H21061  10.678   0.148   1.650  2.1708 -1.5867 -0.5461
  897MOL0     H21062  10.663   0.252   1.787  0.3660 -1.5948  2.2141
  897MOL0     H21063  10.869   0.341   1.682  2.0796 -0.8013 -0.2252
  897MOL0     H21064  10.924   0.248   1.827  1.8047 -1.0547 -0.3195
  897MOL0     H21065  10.896   0.054   1.608  0.6638 -0.6455 -2.3839
  897MOL0     H21066  11.047   0.116   1.669  0.5047 -0.8407 -1.1184
  897MOL0     H21067  10.899   0.282   1.473 -0.1414 -0.9842 -0.7401
  897MOL0     H21068  11.060   0.295   1.514 -1.1506  0.5158  0.2876
  897MOL0     H21069  10.966   0.031   1.377 -1.7277  0.3938 -0.6201
  897MOL0     H21070  11.133   0.084   1.408  1.9653  1.2320 -2.8878
  897MOL0     H21071  10.928   0.235   1.249 -2.3137 -2.4956 -0.6283
  897MOL0     H21072  11.108   0.263   1.244  0.6608 -0.7278 -0.5614
  897MOL0     H21073  10.967   0.004   1.151  1.2399 -1.6313 -0.7942
  897MOL0     H21074  11.141   0.043   1.130 -1.2496 -0.7197 -2.1078
  897MOL0     H21075  10.910   0.212   1.033  0.7134  0.4224  0.3854
  897MOL0     H21076  10.942   0.070   0.939  2.5915 -3.7646  1.1417
  897MOL0     H21077  10.717  -0.161   1.928 -0.1205 -0.8775 -3.6962
  897MOL0     H21078  10.503  -0.266   2.024  1.9240 -0.0313  0.1024
  897MOL0     H21079  10.069  -0.133   2.139 -0.2567  0.9256  0.6513
  897MOL0     H21080   9.887  -0.158   2.265  0.7589  1.6085 -1.1922
  897MOL0     H21081   7.944  -0.005   3.115 -1.2134 -1.2286 -0.5396
  897MOL0     H21082   7.713   0.052   3.149  0.8053 -0.3373  0.1039
  897MOL0     H21083   7.360   0.194   2.979  1.3756  0.6029  1.1200
  897MOL0     H21084   7.106   0.212   2.977  1.4808 -1.0457 -1.3825
  897MOL0     H21085   6.938   0.635   2.962  3.2577 -0.4403  0.8668
  897MOL0     H21086   6.981   0.536   2.822  1.5014 -0.0131  0.3173
  897MOL0     H21087   6.769   0.425   2.828 -0.6096 -2.0399  2.6211
  897MOL0     H21088   6.748   0.604   2.812 -0.3017 -0.5828  0.0298
  897MOL0     H21089   6.701   0.585   3.075  0.6588  0.8023  0.3173
  897MOL0     H21090   6.688   0.413   3.046  1.3590 -1.1227 -0.3604
  897MOL0     H21091   6.518   0.453   2.871 -1.1010 -3.0238  1.9958
  897MOL0     H21092   6.504   0.625   2.926  1.5819  0.6103  0.6317
  897MOL0     H21093   6.271   0.426   3.204  1.8392 -3.2525 -0.6036
  897MOL0     H21094   7.139   0.631   3.086 -0.9925 -0.0374 -0.6207
  897MOL0     H21095   7.387   0.600   3.094 -2.2185 -0.2440  0.9933
  898MOL0     O21096   6.604   4.793   7.710 -1.0580  0.1483 -0.2980
  898MOL0     C21097   6.512   4.785   7.783 -0.0086  1.0933  1.3163
  898MOL0     O21098   6.445   4.888   7.839  0.6743 -0.3055  1.2549
  898MOL0     C21099   6.451   5.028   7.800 -0.4058  1.2536 -0.1714
  898MOL0     C21100   6.399   5.115   7.895  0.0599  0.0772  1.1698
  898MOL0     C21101   6.404   5.249   7.873  0.4717 -0.8346  0.1098
  898MOL0     C21102   6.475   5.298   7.762 -0.5984  0.4731 -0.6633
  898MOL0     O21103   6.476   5.437   7.760 -0.1862 -0.1477  0.1410
  898MOL0     C21104   6.526   5.508   7.637 -0.8317  0.9448 -0.2207
  898MOL0     C21105   6.468   5.646   7.657  0.7343 -0.5682 -0.6376
  898MOL0     C21106   6.560   5.758   7.601 -0.1973  0.3978  0.1045
  898MOL0     C21107   6.697   5.777   7.686  0.4032 -0.2206  0.2588
  898MOL0     C21108   6.760   5.916   7.664 -0.7262  0.3285  0.3770
  898MOL0     C21109   6.883   5.902   7.761  0.9304  0.1148  0.4944
  898MOL0     C21110   6.954   6.034   7.776 -0.1636  1.1027  0.7753
  898MOL0     C21111   7.062   6.007   7.885  0.6131 -0.5883  0.3209
  898MOL0     N21112   7.140   6.121   7.921 -0.5999 -0.2572 -0.0479
  898MOL0     C21113   7.119   6.260   7.888 -0.0421  0.4861 -0.0299
  898MOL0     C21114   7.217   6.321   7.958 -0.1163  0.3303  0.3007
  898MOL0     C21115   7.225   6.470   8.002  0.7638  0.4595 -1.0011
  898MOL0     C21116   7.188   6.559   7.885  1.2694  0.3084 -0.1665
  898MOL0     C21117   7.295   6.657   7.835  0.5586  0.6211  0.1239
  898MOL0     C21118   7.248   6.754   7.725  0.7044 -0.3582 -0.3163
  898MOL0     O21119   7.355   6.838   7.678 -0.5590 -0.6699 -0.8360
  898MOL0     C21120   7.434   6.791   7.579  0.6972 -0.4744  0.7699
  898MOL0     C21121   7.437   6.664   7.518 -0.1158 -0.1415  0.1140
  898MOL0     C21122   7.533   6.633   7.416 -0.9102 -0.2780 -0.3587
  898MOL0     C21123   7.536   6.493   7.364 -0.5445 -0.5407  0.3478
  898MOL0     C21124   7.626   6.742   7.375 -0.1801  0.5161 -0.8167
  898MOL0     C21125   7.739   6.732   7.275 -0.9220 -0.4256 -0.1729
  898MOL0     O21126   7.785   6.852   7.218 -0.3219  0.2247 -0.8192
  898MOL0     C21127   7.851   6.850   7.101 -0.0216 -0.2655  0.8378
  898MOL0     C21128   7.840   6.750   6.998  0.1350  0.0376  0.5989
  898MOL0     C21129   7.902   6.764   6.873  0.6025 -0.0666 -0.9193
  898MOL0     C21130   7.976   6.883   6.849 -0.5399  0.6317 -0.0936
  898MOL0     O21131   8.045   6.895   6.735  0.4272 -0.5803 -0.3187
  898MOL0     C21132   7.959   6.928   6.621  0.2138 -0.9340  0.6621
  898MOL0     C21133   8.055   7.007   6.522  0.2626  1.1306 -0.9451
  898MOL0     C21134   8.001   7.070   6.401 -0.4842  0.3471 -0.1402
  898MOL0     C21135   7.953   6.961   6.295 -1.3226 -0.1975 -0.8169
  898MOL0     C21136   7.943   7.048   6.169 -0.0048  0.0777  0.1400
  898MOL0     C21137   7.887   6.983   6.049 -0.3916  0.8140 -0.1269
  898MOL0     C21138   7.830   7.077   5.939 -0.5868  0.1759 -0.1665
  898MOL0     C21139   7.702   7.018   5.872  0.6577  0.3278  0.3874
  898MOL0    Cl21140   7.760   6.866   5.774  0.0390  0.3720  0.0780
  898MOL0     C21141   7.985   6.981   6.941 -0.2046 -0.8700  0.1932
  898MOL0     C21142   7.922   6.968   7.068 -0.4859 -0.1168  0.4227
  898MOL0     O21143   7.762   6.618   7.241 -0.3566  0.3711  0.5948
  898MOL0     C21144   7.613   6.870   7.443 -0.1777  0.2459  0.1294
  898MOL0     C21145   7.520   6.891   7.549 -0.2612  0.1650 -0.0341
  898MOL0     N21146   7.311   6.227   7.990  0.0999  0.1939 -0.8102
  898MOL0     N21147   7.265   6.105   7.978  0.1241  0.0051  0.6118
  898MOL0     C21148   6.532   5.218   7.666 -0.2595 -1.0090 -0.3988
  898MOL0     C21149   6.524   5.083   7.690 -0.1849  0.3431 -0.2811
  898MOL0     C21150   6.497   4.653   7.842  0.7275  0.1041  0.6020
  898MOL0     C21151   6.578   4.543   7.803 -0.2408 -0.3786  0.4008
  898MOL0     C21152   6.571   4.426   7.873  0.1930  0.5805 -0.4173
  898MOL0     C21153   6.485   4.398   7.983  0.7277  0.4962 -0.0199
  898MOL0     O21154   6.481   4.261   8.023 -0.7796  0.6121 -0.4364
  898MOL0     C21155   6.370   4.220   8.097  0.5026  0.4128 -0.7466
  898MOL0     C21156   6.370   4.076   8.142  0.0252 -0.9274  0.1849
  898MOL0     C21157   6.468   4.051   8.261  0.5484  0.4987  0.0086
  898MOL0     C21158   6.607   4.093   8.238  0.0511 -0.0205 -0.3969
  898MOL0     C21159   6.717   4.009   8.288 -0.3100 -0.0262 -0.5881
  898MOL0     C21160   6.814   3.952   8.337 -0.2034  0.1377  0.0256
  898MOL0     C21161   6.403   4.503   8.018  0.0486  1.2371  0.7654
  898MOL0     C21162   6.407   4.627   7.949  0.8363  0.3498 -0.1993
  898MOL0     H21163   6.342   5.073   7.977 -1.9901 -1.5995 -0.9705
  898MOL0     H21164   6.374   5.331   7.938  1.5104  0.9733 -1.5484
  898MOL0     H21165   6.635   5.510   7.625 -0.6967  0.0039  0.6661
  898MOL0     H21166   6.480   5.464   7.549  0.9259 -0.7894 -0.3385
  898MOL0     H21167   6.371   5.655   7.607 -0.1227 -2.6634  0.5044
  898MOL0     H21168   6.450   5.661   7.764 -1.2372 -0.6406 -0.9276
  898MOL0     H21169   6.582   5.718   7.502  0.2661 -0.9111  0.7135
  898MOL0     H21170   6.500   5.849   7.593 -1.7864 -0.5714  0.4404
  898MOL0     H21171   6.655   5.765   7.787 -0.7281 -0.1480 -0.1850
  898MOL0     H21172   6.767   5.697   7.661  0.0932 -1.0022  1.7496
  898MOL0     H21173   6.783   5.924   7.557 -3.7406 -0.8695 -0.4733
  898MOL0     H21174   6.702   6.002   7.698  0.9067  0.8558  2.0010
  898MOL0     H21175   6.835   5.876   7.855 -2.6552  3.2292 -0.2351
  898MOL0     H21176   6.954   5.827   7.722  1.4520  1.3163 -0.9846
  898MOL0     H21177   7.011   6.047   7.683 -0.2204  0.4912  0.6532
  898MOL0     H21178   6.889   6.120   7.793 -2.3411 -0.5741  1.2901
  898MOL0     H21179   7.139   5.944   7.839  1.7308  1.6600 -1.0523
  898MOL0     H21180   7.005   5.960   7.966 -1.8666  1.0992 -0.3573
  898MOL0     H21181   7.029   6.315   7.863 -2.4509 -2.7403  0.8848
  898MOL0     H21182   7.170   6.488   8.095  1.5363  0.9331 -0.6264
  898MOL0     H21183   7.330   6.491   8.028  0.4136 -0.3080  1.2833
  898MOL0     H21184   7.109   6.629   7.914  0.2197 -0.8711 -0.1242
  898MOL0     H21185   7.150   6.502   7.800 -0.3778  1.3581 -0.1913
  898MOL0     H21186   7.379   6.604   7.788 -1.7584 -2.1623 -1.2356
  898MOL0     H21187   7.325   6.704   7.929  3.2599 -0.7042  0.0117
  898MOL0     H21188   7.175   6.825   7.767  2.3022  1.7364 -0.9169
  898MOL0     H21189   7.204   6.698   7.642 -0.1002 -0.5121  0.1971
  898MOL0     H21190   7.368   6.582   7.537  1.3440 -1.3346  0.4686
  898MOL0     H21191   7.620   6.442   7.414 -0.5452 -0.1419  0.7658
  898MOL0     H21192   7.448   6.438   7.400 -1.1632 -1.5895 -2.5131
  898MOL0     H21193   7.544   6.479   7.256 -0.3639  0.3855  0.2357
  898MOL0     H21194   7.782   6.663   7.026 -2.0860  0.1129 -3.1420
  898MOL0     H21195   7.893   6.685   6.799  0.7414 -1.1926  0.2426
  898MOL0     H21196   7.915   6.834   6.585 -1.3920 -0.2390  0.7694
  898MOL0     H21197   7.885   7.005   6.643 -0.4277 -0.9777 -1.1866
  898MOL0     H21198   8.114   7.080   6.578  2.1476  0.0708 -1.4703
  898MOL0     H21199   8.122   6.931   6.483 -0.5000  1.4568 -3.0103
  898MOL0     H21200   8.073   7.143   6.364 -4.2435  2.1666 -4.9379
  898MOL0     H21201   7.907   7.122   6.422 -0.1628  1.1444 -0.6190
  898MOL0     H21202   8.029   6.885   6.273 -1.1609  0.7405 -3.9274
  898MOL0     H21203   7.862   6.910   6.326  0.8258 -3.6169  0.5318
  898MOL0     H21204   8.036   7.095   6.136 -0.8068 -0.5381 -3.3659
  898MOL0     H21205   7.878   7.131   6.200  3.6439  2.7809  1.3460
  898MOL0     H21206   7.960   6.922   5.995 -0.9801 -0.6366  0.6481
  898MOL0     H21207   7.809   6.918   6.089  1.0267 -0.7439  0.2043
  898MOL0     H21208   7.916   7.090   5.873  0.5569 -2.0842  0.7677
  898MOL0     H21209   7.808   7.168   5.997  3.2773  0.4486  1.1531
  898MOL0     H21210   7.653   7.090   5.806 -0.1693  0.6806  1.3616
  898MOL0     H21211   7.639   6.986   5.954 -1.2291  2.1073 -0.2934
  898MOL0     H21212   8.040   7.073   6.928 -3.2054  0.7519 -2.5957
  898MOL0     H21213   7.926   7.043   7.145  1.9033 -0.2678  0.5282
  898MOL0     H21214   7.679   6.950   7.412  0.2078 -0.4913 -1.0188
  898MOL0     H21215   7.514   6.989   7.595 -3.1375  1.6342 -3.1186
  898MOL0     H21216   6.580   5.262   7.579  3.7734  0.2162  2.1786
  898MOL0     H21217   6.576   5.018   7.621 -1.9530 -1.6072  0.1224
  898MOL0     H21218   6.613   4.538   7.700 -0.5800 -3.5886  0.3626
  898MOL0     H21219   6.636   4.348   7.834  1.8571  1.5845  0.2280
  898MOL0     H21220   6.365   4.276   8.191  2.5262 -1.4047  0.5552
  898MOL0     H21221   6.286   4.230   8.028 -0.1540 -3.0339 -0.6129
  898MOL0     H21222   6.395   4.023   8.049 -2.8540 -2.0431 -0.0528
  898MOL0     H21223   6.269   4.053   8.176  1.0919 -4.1418  1.6618
  898MOL0     H21224   6.453   3.944   8.281 -2.6192  0.7794 -0.3831
  898MOL0     H21225   6.428   4.108   8.345  0.2602  0.7636 -0.3048
  898MOL0     H21226   6.617   4.191   8.286  1.3029 -1.5993  2.8761
  898MOL0     H21227   6.624   4.104   8.131 -2.8631 -2.3665 -1.2065
  898MOL0     H21228   6.897   3.912   8.393  1.4882  1.7763 -1.1932
  898MOL0     H21229   6.337   4.498   8.104  1.2886  1.0073  1.7438
  898MOL0     H21230   6.342   4.706   7.984 -2.2832 -1.7924 -0.7806
  899MOL0     O21231   6.999  11.004   3.547 -0.0694 -0.5387  0.2908
  899MOL0     C21232   7.095  10.935   3.576  0.6640 -0.5151 -0.5480
  899MOL0     O21233   7.181  10.965   3.672  0.4558 -0.6824 -0.0136
  899MOL0     C21234   7.186  11.087   3.738  1.4506 -0.1843  0.5001
  899MOL0     C21235   7.068  11.155   3.789 -0.5405 -0.3925 -0.0166
  899MOL0     C21236   7.083  11.284   3.854 -0.1905  0.5934 -0.5928
  899MOL0     C21237   7.211  11.336   3.871  0.1026 -0.1806  0.2968
  899MOL0     O21238   7.247  11.454   3.930  0.9580  1.1828  1.2414
  899MOL0     C21239   7.144  11.549   3.958  0.4043 -0.6857  0.7038
  899MOL0     C21240   7.199  11.649   4.049 -0.6107  0.2405 -0.4923
  899MOL0     C21241   7.089  11.718   4.127  0.8641  0.0502  0.2637
  899MOL0     C21242   7.155  11.789   4.252  0.1623  0.0753 -0.2289
  899MOL0     C21243   7.044  11.870   4.333 -0.8239 -0.1823  0.7815
  899MOL0     C21244   7.103  11.952   4.447 -1.1410  0.4592 -0.3401
  899MOL0     C21245   7.133  12.096   4.409  0.6785 -0.6896  0.5498
  899MOL0     C21246   7.270  12.154   4.467 -0.7571  0.4867 -0.2877
  899MOL0     N21247   7.392  12.108   4.389 -0.2780  0.0347 -0.4970
  899MOL0     C21248   7.468  12.004   4.446 -0.5768 -0.1522 -0.2014
  899MOL0     C21249   7.548  11.958   4.347 -0.0481 -0.1824  0.5020
  899MOL0     C21250   7.627  11.838   4.339 -0.3223 -0.2037 -0.5795
  899MOL0     C21251   7.541  11.730   4.285 -0.7154  0.2229 -0.2256
  899MOL0     C21252   7.614  11.595   4.307 -0.3083 -0.4648  0.2384
  899MOL0     C21253   7.526  11.477   4.267  0.0138 -0.5181  0.6731
  899MOL0     O21254   7.581  11.356   4.294 -0.0847  0.6067 -0.2578
  899MOL0     C21255   7.710  11.322   4.247  0.2565  0.0465 -0.0806
  899MOL0     C21256   7.721  11.295   4.110  0.3135 -0.3176  0.0411
  899MOL0     C21257   7.849  11.261   4.059  0.0492 -0.8786 -0.7258
  899MOL0     C21258   7.860  11.218   3.913  0.0014  0.3111  0.4135
  899MOL0     C21259   7.968  11.277   4.151 -0.1160  0.2162 -0.6698
  899MOL0     C21260   8.105  11.249   4.112  0.2941 -0.1991 -0.4642
  899MOL0     O21261   8.204  11.315   4.188 -0.2735 -0.2903  0.0237
  899MOL0     C21262   8.334  11.270   4.178  1.0167  0.4014 -0.1241
  899MOL0     C21263   8.357  11.133   4.196  0.2887  1.0066  0.3700
  899MOL0     C21264   8.487  11.088   4.199 -0.0099 -0.0431 -0.1898
  899MOL0     C21265   8.589  11.179   4.159 -0.6911  1.0419 -0.4150
  899MOL0     O21266   8.721  11.131   4.128  1.1731  1.3027 -0.4420
  899MOL0     C21267   8.754  11.002   4.184  0.1949 -0.9032 -0.6338
  899MOL0     C21268   8.909  10.981   4.169 -0.3642  0.4862  0.3716
  899MOL0     C21269   8.943  10.840   4.225  0.9325 -0.1999  1.1518
  899MOL0     C21270   9.084  10.811   4.196  0.2214  0.0596 -0.4459
  899MOL0     C21271   9.118  10.665   4.235 -0.2878  0.4539  0.1806
  899MOL0     C21272   9.254  10.610   4.188  0.3297  0.6997 -0.3462
  899MOL0     C21273   9.325  10.552   4.305 -0.1137 -0.1715 -0.0962
  899MOL0     C21274   9.476  10.532   4.265 -0.4427 -0.3047 -0.4292
  899MOL0    Cl21275   9.557  10.478   4.411  0.0075 -0.3186 -0.2897
  899MOL0     C21276   8.561  11.308   4.129  0.7488 -0.9757  0.0165
  899MOL0     C21277   8.438  11.366   4.152  0.8640  0.0623 -0.3165
  899MOL0     O21278   8.127  11.187   4.006 -0.6134 -0.3421 -0.3359
  899MOL0     C21279   7.947  11.300   4.282  0.4288  0.7816 -0.5663
  899MOL0     C21280   7.819  11.321   4.336 -0.0126  0.3469  0.0449
  899MOL0     N21281   7.518  12.040   4.238  0.2289  0.3149  0.3467
  899MOL0     N21282   7.429  12.124   4.263 -0.0313 -0.2209  0.2444
  899MOL0     C21283   7.318  11.263   3.821 -0.1796 -0.3310  0.6786
  899MOL0     C21284   7.304  11.144   3.768 -0.5796 -0.2651 -0.4634
  899MOL0     C21285   7.116  10.810   3.497 -0.5438  0.1445  0.1331
  899MOL0     C21286   7.079  10.789   3.359  0.0489 -0.3470 -0.8281
  899MOL0     C21287   7.093  10.661   3.304  0.2265  0.2644  0.1300
  899MOL0     C21288   7.173  10.567   3.360 -1.0223  0.0695 -0.2362
  899MOL0     O21289   7.207  10.442   3.311  0.2439 -0.1567 -0.2057
  899MOL0     C21290   7.145  10.404   3.185 -0.4464 -0.2455  0.9274
  899MOL0     C21291   7.199  10.268   3.139  0.5461 -0.2677  0.0199
  899MOL0     C21292   7.107  10.196   3.029 -0.6924  0.1703 -0.9088
  899MOL0     C21293   7.053  10.277   2.918 -0.3071  0.2714  0.5079
  899MOL0     C21294   6.991  10.186   2.821 -0.4024  0.5665 -0.7114
  899MOL0     C21295   6.927  10.109   2.746  0.7706  0.4083  0.3131
  899MOL0     C21296   7.222  10.594   3.486 -0.0443  0.0619  0.3629
  899MOL0     C21297   7.194  10.709   3.553  0.1307 -1.1136  0.2919
  899MOL0     H21298   6.977  11.102   3.766 -0.6333 -2.3030  3.9677
  899MOL0     H21299   6.994  11.325   3.900 -0.0957  1.5908 -1.2575
  899MOL0     H21300   7.104  11.596   3.867  0.4209  0.2337  1.1612
  899MOL0     H21301   7.063  11.493   4.004 -1.6153 -0.6538 -2.5184
  899MOL0     H21302   7.272  11.598   4.112  0.7735 -0.4043 -2.5119
  899MOL0     H21303   7.248  11.726   3.989 -0.8571  0.5538 -0.2915
  899MOL0     H21304   7.034  11.791   4.067  0.0343 -0.6031  0.2004
  899MOL0     H21305   7.012  11.644   4.149 -1.7970  1.5677 -3.0344
  899MOL0     H21306   7.198  11.718   4.324 -0.7944 -0.7899 -0.4825
  899MOL0     H21307   7.222  11.867   4.216 -1.4928  0.3853 -2.9474
  899MOL0     H21308   7.013  11.947   4.262 -2.3756 -1.6031 -0.1580
  899MOL0     H21309   6.962  11.810   4.374 -1.6483 -1.1972 -2.0716
  899MOL0     H21310   7.043  11.958   4.539  1.0779 -0.7098  1.2954
  899MOL0     H21311   7.201  11.912   4.478 -1.6329 -0.0297  0.6594
  899MOL0     H21312   7.140  12.111   4.301  0.8837  0.5912  0.7268
  899MOL0     H21313   7.050  12.158   4.444  0.2435 -2.3863  2.7615
  899MOL0     H21314   7.280  12.128   4.573 -0.6296  0.8749 -0.2041
  899MOL0     H21315   7.274  12.263   4.470  1.0420  0.5263 -1.9922
  899MOL0     H21316   7.456  11.976   4.550  0.5878  1.3625  0.3721
  899MOL0     H21317   7.715  11.854   4.277  1.6966  0.5378  2.2596
  899MOL0     H21318   7.657  11.807   4.440 -1.3224  0.1162 -0.1685
  899MOL0     H21319   7.515  11.748   4.180 -2.0995 -1.1678 -0.1605
  899MOL0     H21320   7.441  11.726   4.331 -1.1443  0.2048 -1.1398
  899MOL0     H21321   7.649  11.592   4.411 -1.6908  4.4379  1.0837
  899MOL0     H21322   7.697  11.603   4.237 -1.1842  3.0447 -0.6077
  899MOL0     H21323   7.486  11.482   4.165 -1.9939 -1.4269  1.3822
  899MOL0     H21324   7.440  11.484   4.333 -0.2473 -0.6512  0.3504
  899MOL0     H21325   7.632  11.286   4.049 -0.6308 -0.0037  1.3410
  899MOL0     H21326   7.904  11.119   3.899 -1.2037  0.0542 -2.0802
  899MOL0     H21327   7.758  11.221   3.873  1.2078  1.2046 -2.9291
  899MOL0     H21328   7.916  11.289   3.851 -2.2500  0.3476 -1.7000
  899MOL0     H21329   8.286  11.052   4.190  1.9316 -0.5262  0.7457
  899MOL0     H21330   8.508  10.983   4.214  3.0826  0.4600 -0.3319
  899MOL0     H21331   8.726  11.001   4.290 -2.1738 -1.3588 -1.1988
  899MOL0     H21332   8.702  10.920   4.135 -3.6549  1.0115 -0.1203
  899MOL0     H21333   8.941  10.984   4.064  2.1023  0.5353  1.0592
  899MOL0     H21334   8.963  11.057   4.226  0.1833  1.4079 -1.2918
  899MOL0     H21335   8.879  10.767   4.174 -0.4868  1.5001  0.3758
  899MOL0     H21336   8.928  10.837   4.334  1.5508 -0.4198  1.2308
  899MOL0     H21337   9.099  10.821   4.088 -0.0917  1.7650 -0.3474
  899MOL0     H21338   9.151  10.876   4.253 -1.8899 -1.6516  4.5773
  899MOL0     H21339   9.033  10.606   4.200 -1.4919 -0.0265  3.6047
  899MOL0     H21340   9.114  10.664   4.344 -0.2347  2.8348  0.2719
  899MOL0     H21341   9.247  10.537   4.108  1.1396  0.0495  0.1610
  899MOL0     H21342   9.300  10.700   4.145 -3.2035  2.0948 -1.5775
  899MOL0     H21343   9.284  10.455   4.337  2.8054 -1.3790  0.2911
  899MOL0     H21344   9.337  10.620   4.390 -1.7813 -1.5449  1.3516
  899MOL0     H21345   9.517  10.626   4.227 -1.1196 -0.0684 -0.5900
  899MOL0     H21346   9.498  10.459   4.187  0.4011 -2.4103  1.6412
  899MOL0     H21347   8.643  11.372   4.097 -1.7284  1.9797 -0.8395
  899MOL0     H21348   8.407  11.470   4.140  0.9937  0.2059  0.5576
  899MOL0     H21349   8.025  11.299   4.357 -1.7252  2.3046  1.8496
  899MOL0     H21350   7.802  11.345   4.440  0.8906  0.5729  0.1494
  899MOL0     H21351   7.421  11.293   3.835  0.8591 -1.4047 -3.4219
  899MOL0     H21352   7.391  11.096   3.726  0.7484 -0.1015  1.9507
  899MOL0     H21353   7.027  10.860   3.295  1.9577 -1.0923 -3.3446
  899MOL0     H21354   7.058  10.640   3.204  2.4741 -2.1115 -0.2732
  899MOL0     H21355   7.036  10.395   3.190 -0.7510 -0.1229 -2.8047
  899MOL0     H21356   7.174  10.470   3.104  0.3161  0.8215  2.0414
  899MOL0     H21357   7.193  10.213   3.234 -2.4252  1.2408  0.8284
  899MOL0     H21358   7.304  10.275   3.109  1.2745 -0.6746  2.2385
  899MOL0     H21359   7.017  10.162   3.082  0.3184 -0.3569  0.5209
  899MOL0     H21360   7.165  10.107   3.000  1.3879  1.6962 -1.6735
  899MOL0     H21361   7.142  10.330   2.883  1.6554 -2.1069  1.6442
  899MOL0     H21362   6.982  10.354   2.951  0.8878  1.6954 -0.1025
  899MOL0     H21363   6.874  10.042   2.682 -0.8493  1.1764  0.7948
  899MOL0     H21364   7.292  10.524   3.531 -2.5847 -3.4251 -0.7307
  899MOL0     H21365   7.225  10.718   3.657 -0.2097  1.6757  0.2500
  900MOL0     O21366  11.045   8.914   0.190 -0.3790 -0.8116 -0.2336
  900MOL0     C21367  10.967   8.955   0.279 -0.8233  0.2433  0.1278
  900MOL0     O21368  11.000   9.012   0.395  0.0029  0.3627  0.0851
  900MOL0     C21369  11.130   9.031   0.431  0.6702  0.6064 -0.0519
  900MOL0     C21370  11.239   8.936   0.411  0.2102  0.4350  0.1709
  900MOL0     C21371  11.362   8.953   0.477  1.0093  0.4363 -0.3899
  900MOL0     C21372  11.389   9.070   0.547 -0.0308  1.4679 -0.0211
  900MOL0     O21373  11.515   9.100   0.595  0.0925  0.1176  0.9106
  900MOL0     C21374  11.608   9.099   0.493  0.4201  0.1251 -0.4924
  900MOL0     C21375  11.742   9.158   0.554  0.5679  0.0228  1.0346
  900MOL0     C21376  11.853   9.142   0.449 -0.9889  1.3621  0.0266
  900MOL0     C21377  11.987   9.174   0.518 -0.5605 -0.4274  0.5876
  900MOL0     C21378  12.101   9.151   0.418  0.6050 -0.5513 -0.6646
  900MOL0     C21379  12.142   9.002   0.437 -0.2707 -1.2972 -0.6160
  900MOL0     C21380  12.196   8.934   0.318  1.2014 -0.5117 -0.5142
  900MOL0     C21381  12.346   8.967   0.291 -0.2377 -0.0696 -0.0394
  900MOL0     N21382  12.375   9.105   0.237  0.5083  0.1616 -0.0851
  900MOL0     C21383  12.300   9.160   0.135 -1.1091  0.8438  0.3815
  900MOL0     C21384  12.323   9.284   0.138  1.2129 -0.1618  0.3966
  900MOL0     C21385  12.259   9.396   0.051  0.3138  0.6747  0.8944
  900MOL0     C21386  12.338   9.527   0.029 -0.0488  0.6958 -0.8870
  900MOL0     C21387  12.299   9.616   0.148 -0.4453 -0.5576  0.5784
  900MOL0     C21388  12.383   9.742   0.154 -0.4993 -0.2100  0.1171
  900MOL0     O21389  12.402   9.818   0.027  0.0781 -0.2737  0.1083
  900MOL0     C21390  12.341   9.944   0.008  0.4389  0.9305 -0.1620
  900MOL0     C21391  12.416  10.049  -0.025  0.3181 -0.5862 -0.3756
  900MOL0     C21392  12.357  10.176  -0.039 -0.1392 -0.0503 -0.3752
  900MOL0     C21393  12.454  10.281  -0.077 -0.5715 -0.0133 -0.0938
  900MOL0     C21394  12.226  10.203  -0.021  0.3087 -0.1796 -0.5489
  900MOL0     C21395  12.155  10.343  -0.039  1.0483 -0.2508  0.0927
  900MOL0     O21396  12.022  10.330  -0.057  0.3706  0.1489  0.5660
  900MOL0     C21397  11.948  10.434  -0.110  0.5007  0.5297  0.2649
  900MOL0     C21398  11.821  10.470  -0.060  0.5956 -0.4178  0.5575
  900MOL0     C21399  11.741  10.562  -0.132 -0.2127 -1.5898  0.1659
  900MOL0     C21400  11.798  10.644  -0.237 -0.5254  0.8685 -0.2929
  900MOL0     O21401  11.734  10.737  -0.307  0.5054  0.3405 -0.1264
  900MOL0     C21402  11.627  10.812  -0.246  0.4052 -0.3983  0.8957
  900MOL0     C21403  11.560  10.903  -0.355 -0.2874  0.2884  0.1155
  900MOL0     C21404  11.405  10.932  -0.341  0.3515 -0.3800 -0.0879
  900MOL0     C21405  11.360  11.042  -0.436 -0.4794  0.0599  0.5963
  900MOL0     C21406  11.222  11.097  -0.404  0.3321  0.3699  0.1190
  900MOL0     C21407  11.236  11.204  -0.295 -0.3313 -0.4276 -0.0629
  900MOL0     C21408  11.114  11.294  -0.296  0.0145 -0.6428  0.5588
  900MOL0     C21409  11.135  11.412  -0.214 -0.4069  0.1197 -0.3090
  900MOL0    Cl21410  11.205  11.543  -0.311  0.2972  0.7384  0.1053
  900MOL0     C21411  11.925  10.619  -0.276  0.1209 -0.8020 -0.1609
  900MOL0     C21412  11.990  10.502  -0.222 -0.6280 -0.4890  0.1277
  900MOL0     O21413  12.219  10.453  -0.032  0.7501 -0.2395  0.0967
  900MOL0     C21414  12.145  10.086  -0.011  0.2013  0.6214  0.5278
  900MOL0     C21415  12.198   9.954   0.015  0.2377  0.0529  0.3061
  900MOL0     N21416  12.410   9.305   0.249  0.0267 -0.8434 -0.0607
  900MOL0     N21417  12.435   9.200   0.320 -0.1928 -0.1381 -0.3129
  900MOL0     C21418  11.293   9.169   0.557 -0.0943  0.7323 -0.1459
  900MOL0     C21419  11.165   9.145   0.508  0.4273  1.0547  0.5962
  900MOL0     C21420  10.820   8.958   0.257  0.4670 -0.3090  0.1837
  900MOL0     C21421  10.727   9.039   0.334 -0.2159 -1.9606 -0.5673
  900MOL0     C21422  10.595   9.037   0.312 -0.3109 -0.8525 -0.3656
  900MOL0     C21423  10.543   8.958   0.208  0.2788 -0.6865 -0.9052
  900MOL0     O21424  10.411   8.974   0.184  0.1955 -0.3811  0.7202
  900MOL0     C21425  10.341   8.893   0.089 -0.3307 -0.6553 -0.8905
  900MOL0     C21426  10.323   8.752   0.133  0.7131  0.1233 -0.9137
  900MOL0     C21427  10.200   8.733   0.227 -0.1879 -0.4212  0.6310
  900MOL0     C21428  10.189   8.593   0.279 -0.3108  0.4095  0.7404
  900MOL0     C21429  10.130   8.574   0.409  0.5081  0.1759  0.3016
  900MOL0     C21430  10.082   8.556   0.521 -0.0049 -0.4242 -0.7501
  900MOL0     C21431  10.631   8.876   0.129 -0.3274  1.3241 -0.4165
  900MOL0     C21432  10.764   8.873   0.155 -0.6198  0.4825  0.5555
  900MOL0     H21433  11.208   8.856   0.344 -2.5870  2.8115 -1.6418
  900MOL0     H21434  11.433   8.873   0.460  1.4938  0.5291  1.0803
  900MOL0     H21435  11.628   8.994   0.470 -1.0327 -0.9467  2.6127
  900MOL0     H21436  11.578   9.152   0.402 -1.2040  0.9149  0.4559
  900MOL0     H21437  11.731   9.266   0.565  0.1943  0.3850 -2.0214
  900MOL0     H21438  11.768   9.105   0.646 -0.7224  0.3814  1.6244
  900MOL0     H21439  11.857   9.039   0.412  1.0704  0.9978  1.1171
  900MOL0     H21440  11.849   9.213   0.366  1.6356  1.7358  0.1504
  900MOL0     H21441  11.980   9.282   0.536 -0.0753 -0.6208  2.1380
  900MOL0     H21442  12.002   9.126   0.616 -1.2817 -1.1543  0.3441
  900MOL0     H21443  12.062   9.177   0.319 -3.9863 -2.1888  0.4560
  900MOL0     H21444  12.182   9.220   0.441  1.4795 -1.8301  0.2467
  900MOL0     H21445  12.219   8.997   0.515 -0.8095 -1.2023 -0.0660
  900MOL0     H21446  12.059   8.944   0.479 -0.5201  0.5268  1.6107
  900MOL0     H21447  12.185   8.828   0.343 -1.0084 -0.4430 -0.9940
  900MOL0     H21448  12.138   8.962   0.230  0.1813 -1.1169 -0.0595
  900MOL0     H21449  12.398   8.902   0.220 -0.1585  0.8247 -0.8295
  900MOL0     H21450  12.398   8.960   0.387 -2.1164 -0.4223  0.9952
  900MOL0     H21451  12.225   9.111   0.073 -1.2255  3.4444 -1.7511
  900MOL0     H21452  12.249   9.352  -0.049 -2.8625  1.7791  0.6133
  900MOL0     H21453  12.156   9.407   0.088 -0.3034 -0.0716 -0.5226
  900MOL0     H21454  12.307   9.586  -0.058  1.6691  0.8225 -1.4388
  900MOL0     H21455  12.445   9.506   0.029 -0.4758 -1.8465 -1.6688
  900MOL0     H21456  12.308   9.555   0.238 -0.7948 -0.9777  0.3317
  900MOL0     H21457  12.201   9.655   0.120  1.3136  2.0888 -2.4940
  900MOL0     H21458  12.482   9.720   0.195 -0.5758 -2.3280 -0.7430
  900MOL0     H21459  12.343   9.812   0.229  1.3508 -1.3640  2.3287
  900MOL0     H21460  12.523  10.039  -0.041  1.0747  0.5543  3.0872
  900MOL0     H21461  12.413  10.321  -0.170 -0.2491  2.1219  0.6205
  900MOL0     H21462  12.463  10.363  -0.006  1.3704  0.2782 -0.6079
  900MOL0     H21463  12.553  10.241  -0.102 -0.7907  0.6732 -2.2011
  900MOL0     H21464  11.778  10.440   0.034 -3.1971  2.2683 -0.1033
  900MOL0     H21465  11.639  10.575  -0.095  0.6891  1.0769  2.0134
  900MOL0     H21466  11.556  10.734  -0.214 -0.7171 -0.7682 -2.2106
  900MOL0     H21467  11.668  10.860  -0.156 -1.2552  1.3800  0.7682
  900MOL0     H21468  11.615  10.998  -0.355  3.0499 -1.4894  0.9927
  900MOL0     H21469  11.571  10.866  -0.457 -1.7297 -1.3752  0.5235
  900MOL0     H21470  11.376  10.965  -0.241 -0.0698  0.0721 -0.3567
  900MOL0     H21471  11.356  10.837  -0.365  0.4107 -0.7979  1.3505
  900MOL0     H21472  11.436  11.120  -0.440  0.2736 -0.7154 -1.2505
  900MOL0     H21473  11.343  11.003  -0.536  0.1065 -3.2694  1.6677
  900MOL0     H21474  11.152  11.022  -0.366  2.3117 -1.0920  1.0957
  900MOL0     H21475  11.167  11.131  -0.492 -0.8307 -1.7632 -0.0659
  900MOL0     H21476  11.262  11.159  -0.199 -0.6200 -3.6935 -1.3578
  900MOL0     H21477  11.325  11.265  -0.316 -0.0511 -0.3331  1.2887
  900MOL0     H21478  11.025  11.240  -0.263  0.8414 -1.1601  2.0169
  900MOL0     H21479  11.091  11.335  -0.395  0.1400 -0.6447  0.5276
  900MOL0     H21480  11.193  11.377  -0.127  2.1439 -3.8511 -3.2441
  900MOL0     H21481  11.047  11.455  -0.165  1.0550  0.8256  1.8478
  900MOL0     H21482  11.963  10.685  -0.354 -0.5534  2.4162  2.0420
  900MOL0     H21483  12.076  10.476  -0.283 -0.6407  3.5886 -1.9709
  900MOL0     H21484  12.040  10.085  -0.037  0.1893 -2.5950  0.3421
  900MOL0     H21485  12.142   9.862   0.027  2.3746 -1.4631 -0.7798
  900MOL0     H21486  11.323   9.268   0.591  1.6145  0.4952 -0.8389
  900MOL0     H21487  11.085   9.216   0.524 -2.0578 -1.5703  0.6118
  900MOL0     H21488  10.765   9.106   0.410  0.0590  0.5250 -2.7404
  900MOL0     H21489  10.536   9.099   0.378 -0.4746 -0.3572 -0.9682
  900MOL0     H21490  10.245   8.937   0.063 -0.9852 -1.6625 -0.2253
  900MOL0     H21491  10.404   8.910   0.001 -1.0452 -2.8270 -1.8729
  900MOL0     H21492  10.413   8.705   0.174 -0.6905 -1.6853  0.2656
  900MOL0     H21493  10.303   8.700   0.039 -1.1169 -0.6669 -0.1464
  900MOL0     H21494  10.109   8.761   0.173  0.3690 -2.6649 -1.6371
  900MOL0     H21495  10.213   8.802   0.311  2.8812  1.0357 -0.8846
  900MOL0     H21496  10.292   8.557   0.279 -0.2558  0.5623  1.0764
  900MOL0     H21497  10.134   8.537   0.204 -1.5668  1.6313  0.6992
  900MOL0     H21498  10.050   8.525   0.619  1.5145 -2.4986 -0.8380
  900MOL0     H21499  10.591   8.790   0.077  1.2025 -1.1431  2.1660
  900MOL0     H21500  10.842   8.816   0.106 -1.0748  0.2184  0.1391
  901MOL0     O21501   5.824  10.089   2.956 -0.3898 -0.0024 -0.7299
  901MOL0     C21502   5.931  10.109   3.020 -0.1691 -0.1310 -0.5382
  901MOL0     O21503   6.028  10.023   3.058  0.2943 -0.3363 -0.4557
  901MOL0     C21504   6.014   9.901   3.006 -0.1235  0.3574  0.3447
  901MOL0     C21505   5.953   9.802   3.076 -0.3076  0.9558  0.1764
  901MOL0     C21506   5.920   9.676   3.018 -0.1562  0.2233 -0.3907
  901MOL0     C21507   5.958   9.644   2.885  1.0313  0.4131  0.7439
  901MOL0     O21508   5.954   9.518   2.831 -0.1438  0.5756  0.5548
  901MOL0     C21509   5.834   9.449   2.867 -0.6283 -0.1341 -0.7506
  901MOL0     C21510   5.864   9.361   2.993  0.0197 -0.2052  0.3366
  901MOL0     C21511   5.941   9.229   2.967  0.2220  0.5760  0.2286
  901MOL0     C21512   5.896   9.104   3.033  0.4576  0.9890  0.3072
  901MOL0     C21513   5.948   8.974   2.955  0.8217 -1.7331 -0.3277
  901MOL0     C21514   5.904   8.966   2.806  0.1686  0.1405 -0.9124
  901MOL0     C21515   5.881   8.825   2.755  0.3927 -0.2978  0.3103
  901MOL0     C21516   5.819   8.830   2.619  0.7665  0.3903  0.2180
  901MOL0     N21517   5.669   8.847   2.622  0.1962 -0.4608 -1.0149
  901MOL0     C21518   5.567   8.754   2.627 -0.8493 -1.1562  0.8202
  901MOL0     C21519   5.453   8.820   2.632 -0.0892  0.2263  0.1518
  901MOL0     C21520   5.320   8.746   2.617 -0.2541  0.3487 -0.2805
  901MOL0     C21521   5.196   8.810   2.699 -0.5639  1.2410  0.0918
  901MOL0     C21522   5.205   8.798   2.847  0.3439 -0.8576 -0.1950
  901MOL0     C21523   5.079   8.878   2.899 -0.4110 -0.6453 -0.3965
  901MOL0     O21524   4.953   8.827   2.862 -0.4487 -0.5195 -0.8127
  901MOL0     C21525   4.839   8.883   2.911 -0.2710  0.3545 -0.0854
  901MOL0     C21526   4.828   9.001   2.982  0.1139 -1.0853 -0.0981
  901MOL0     C21527   4.700   9.047   3.027 -0.0203  0.5908  0.6305
  901MOL0     C21528   4.703   9.166   3.110 -0.6624 -0.4089 -0.4626
  901MOL0     C21529   4.582   8.966   3.000  0.1594  0.4679  0.1243
  901MOL0     C21530   4.446   9.024   3.012 -0.0032  0.4776 -0.7495
  901MOL0     O21531   4.345   8.938   3.045  0.6306 -0.4461 -0.1680
  901MOL0     C21532   4.220   8.993   3.061  0.1402 -0.3079 -0.4826
  901MOL0     C21533   4.129   9.002   2.954 -0.5193  0.0349 -0.6461
  901MOL0     C21534   3.991   9.038   2.975  0.3548  0.4406  0.6104
  901MOL0     C21535   3.950   9.061   3.105 -0.3647  0.0214  0.3603
  901MOL0     O21536   3.818   9.084   3.120  0.9385 -0.1417 -0.5563
  901MOL0     C21537   3.772   9.149   3.242 -0.2373 -1.1004  0.7119
  901MOL0     C21538   3.627   9.189   3.227  0.0271 -0.3833  0.4628
  901MOL0     C21539   3.526   9.069   3.216 -0.5845  0.1500 -0.0804
  901MOL0     C21540   3.373   9.119   3.245  0.0556  0.2226  0.0386
  901MOL0     C21541   3.281   9.003   3.202  0.0954 -0.2586 -0.4803
  901MOL0     C21542   3.234   9.028   3.054 -0.1139  0.1960  0.4991
  901MOL0     C21543   3.154   8.919   2.984 -0.0277 -0.2382  0.1969
  901MOL0     C21544   3.122   8.942   2.833  0.3237 -0.0299  0.0613
  901MOL0    Cl21545   3.090   9.108   2.799 -0.4157  0.0698 -0.0799
  901MOL0     C21546   4.034   9.043   3.213 -0.2528  0.4529  1.0351
  901MOL0     C21547   4.171   9.013   3.192 -0.4379  0.1788  1.7103
  901MOL0     O21548   4.432   9.138   2.963  0.3303 -0.1593  0.5255
  901MOL0     C21549   4.606   8.851   2.924  0.4317  0.1684  0.0343
  901MOL0     C21550   4.728   8.812   2.883  0.0596  0.2880  0.3491
  901MOL0     N21551   5.481   8.962   2.626 -0.3992  0.1435  0.1574
  901MOL0     N21552   5.608   8.970   2.625  0.7220  0.2653  0.6706
  901MOL0     C21553   6.035   9.738   2.821 -0.6561 -0.3619  0.4938
  901MOL0     C21554   6.051   9.866   2.875  0.6574 -0.1134 -0.0413
  901MOL0     C21555   5.956  10.254   3.058  0.8069  0.1270  0.7537
  901MOL0     C21556   5.858  10.356   3.054 -0.9585  0.3584  0.3507
  901MOL0     C21557   5.891  10.487   3.073 -0.2920  0.4843 -0.3569
  901MOL0     C21558   6.025  10.523   3.103 -0.5907 -0.3785 -1.1070
  901MOL0     O21559   6.037  10.668   3.130  0.5259 -0.8536 -0.6627
  901MOL0     C21560   6.164  10.732   3.152 -0.0394 -0.3004 -0.1230
  901MOL0     C21561   6.247  10.726   3.022 -0.0487  0.7729  0.2857
  901MOL0     C21562   6.154  10.774   2.900  0.1352 -0.9449 -0.0676
  901MOL0     C21563   6.128  10.924   2.912  0.3129  0.5598 -0.2904
  901MOL0     C21564   6.038  10.971   2.805  0.5379 -0.9506  0.3091
  901MOL0     C21565   5.962  10.994   2.715  0.5715  0.3638 -0.0829
  901MOL0     C21566   6.121  10.426   3.119  0.5179  0.1216  0.7064
  901MOL0     C21567   6.090  10.293   3.091  0.3460  1.2396  0.1380
  901MOL0     H21568   5.926   9.820   3.179 -0.0709 -0.5294  0.5264
  901MOL0     H21569   5.873   9.616   3.095  2.2157 -1.0957  0.1139
  901MOL0     H21570   5.753   9.519   2.889 -1.4114 -1.3280  0.3113
  901MOL0     H21571   5.798   9.388   2.783 -0.5297  1.1144 -1.7355
  901MOL0     H21572   5.917   9.420   3.067 -1.2221 -1.2005  2.0893
  901MOL0     H21573   5.770   9.329   3.038  0.1780 -0.3326  0.5764
  901MOL0     H21574   5.957   9.218   2.860 -1.1998  0.3475  0.0102
  901MOL0     H21575   6.043   9.238   3.004 -0.0884  0.2444  1.2085
  901MOL0     H21576   5.928   9.109   3.137  0.6001  0.2438  0.3035
  901MOL0     H21577   5.786   9.103   3.029  0.4383  1.9372  0.2030
  901MOL0     H21578   6.056   8.983   2.957  0.6787  0.8359 -1.0533
  901MOL0     H21579   5.917   8.889   3.017  1.6749 -1.3580  0.6314
  901MOL0     H21580   5.812   9.024   2.799 -0.0733 -0.0044  0.7071
  901MOL0     H21581   5.979   9.015   2.744  0.3543 -1.3514 -1.9209
  901MOL0     H21582   5.972   8.764   2.760  1.6568  1.2524 -2.0848
  901MOL0     H21583   5.807   8.793   2.829 -2.1263  2.1336 -0.9791
  901MOL0     H21584   5.837   8.735   2.568  1.4049  0.5771  0.0879
  901MOL0     H21585   5.855   8.913   2.558 -1.3056  1.0012 -0.2515
  901MOL0     H21586   5.589   8.648   2.626  0.1009 -0.9849 -1.0365
  901MOL0     H21587   5.289   8.741   2.513 -4.7987  1.7307  0.7582
  901MOL0     H21588   5.326   8.644   2.656 -1.8378 -0.9923 -3.2205
  901MOL0     H21589   5.108   8.751   2.673 -0.6557  0.8375  1.2924
  901MOL0     H21590   5.183   8.916   2.676 -2.6137  0.6226 -2.0949
  901MOL0     H21591   5.302   8.836   2.882  0.8655 -1.0334 -1.4108
  901MOL0     H21592   5.213   8.691   2.870  2.5286 -1.3719 -2.8011
  901MOL0     H21593   5.093   8.983   2.872 -0.6540 -0.6297 -0.4612
  901MOL0     H21594   5.088   8.866   3.008 -0.0314 -3.2839 -0.6474
  901MOL0     H21595   4.913   9.066   2.999 -0.4275 -0.4783  0.3364
  901MOL0     H21596   4.600   9.193   3.136 -1.0784 -2.5321  0.3559
  901MOL0     H21597   4.753   9.153   3.206 -0.8259  1.3941 -0.1065
  901MOL0     H21598   4.753   9.253   3.068  2.8534 -1.7124  0.6883
  901MOL0     H21599   4.154   8.984   2.850  0.4716  4.4691 -1.4063
  901MOL0     H21600   3.913   9.045   2.900 -0.6936  2.3123  1.7805
  901MOL0     H21601   3.783   9.079   3.325  2.2530 -0.2524  1.1872
  901MOL0     H21602   3.839   9.230   3.273  1.5304 -2.2501  0.0612
  901MOL0     H21603   3.599   9.245   3.316 -0.5229 -3.3713  2.3331
  901MOL0     H21604   3.616   9.253   3.139  1.4417 -1.7905 -0.8180
  901MOL0     H21605   3.552   8.992   3.290 -1.6983  0.6655  0.8798
  901MOL0     H21606   3.532   9.010   3.124  0.0424 -1.4768  0.9625
  901MOL0     H21607   3.362   9.128   3.354  1.4004  1.9458  0.0714
  901MOL0     H21608   3.342   9.215   3.204 -2.1920 -0.5866 -0.3434
  901MOL0     H21609   3.201   9.003   3.276 -1.6042 -4.9998 -1.9931
  901MOL0     H21610   3.339   8.911   3.213 -0.7000 -0.5704  1.4084
  901MOL0     H21611   3.183   9.124   3.061 -0.0807  0.1807  1.0047
  901MOL0     H21612   3.327   9.042   2.998 -0.0128 -1.7238  0.0967
  901MOL0     H21613   3.064   8.924   3.046  0.1595  2.5627  0.3548
  901MOL0     H21614   3.207   8.823   2.985 -1.3225 -1.1011 -2.9564
  901MOL0     H21615   3.033   8.882   2.812  0.4819 -0.3030  0.1613
  901MOL0     H21616   3.203   8.905   2.769  2.1267 -0.0238  2.2059
  901MOL0     H21617   3.996   9.041   3.315 -2.1810  2.7880  0.4677
  901MOL0     H21618   4.242   9.002   3.274  0.0391 -1.2109  1.1514
  901MOL0     H21619   4.515   8.812   2.879  0.4606  0.3491 -0.1837
  901MOL0     H21620   4.737   8.721   2.824  0.2006  1.5329 -1.6510
  901MOL0     H21621   6.086   9.713   2.728 -0.8323  3.4923 -0.8089
  901MOL0     H21622   6.094   9.930   2.799  3.3118 -3.4694 -1.6367
  901MOL0     H21623   5.759  10.320   3.026 -2.2536  3.5108  0.5093
  901MOL0     H21624   5.814  10.564   3.072  0.1607  0.9523 -1.5395
  901MOL0     H21625   6.141  10.835   3.178 -2.3487 -0.5800 -0.8286
  901MOL0     H21626   6.218  10.699   3.242  1.0283  1.8145  0.0551
  901MOL0     H21627   6.280  10.624   3.000  0.5823  1.1650 -0.6198
  901MOL0     H21628   6.330  10.796   3.024 -0.0145  0.9192 -2.3802
  901MOL0     H21629   6.057  10.723   2.897  0.9376 -2.8217  2.3630
  901MOL0     H21630   6.195  10.756   2.801 -0.5003 -0.3996 -0.4397
  901MOL0     H21631   6.222  10.974   2.885 -0.0884  0.0157 -2.9797
  901MOL0     H21632   6.093  10.953   3.011 -1.4222 -2.5299  0.1047
  901MOL0     H21633   5.889  11.017   2.640  1.6309 -1.3250 -1.7343
  901MOL0     H21634   6.223  10.444   3.150  1.2590 -2.3446 -0.0988
  901MOL0     H21635   6.169  10.220   3.100 -0.7654  0.0685  0.7812
  902MOL0     O21636   2.032   7.243   0.752  0.1034  0.2854  0.3930
  902MOL0     C21637   1.940   7.179   0.709  0.0963  0.0941 -0.2800
  902MOL0     O21638   1.916   7.149   0.580  0.2822  0.6200  0.1819
  902MOL0     C21639   2.010   7.168   0.471 -0.6337 -0.6634 -0.0544
  902MOL0     C21640   2.149   7.195   0.486 -0.5786 -0.4301 -0.3774
  902MOL0     C21641   2.229   7.213   0.373 -0.4395 -0.2942  0.2140
  902MOL0     C21642   2.179   7.200   0.246 -0.6551 -0.5616  0.6307
  902MOL0     O21643   2.265   7.217   0.136  0.4627  0.1937  0.0830
  902MOL0     C21644   2.200   7.272   0.017 -0.9969  0.2286 -0.4905
  902MOL0     C21645   2.299   7.347  -0.077  0.0393 -0.4201  0.3284
  902MOL0     C21646   2.216   7.405  -0.198  0.1493 -0.8695 -0.1373
  902MOL0     C21647   2.305   7.442  -0.314  1.5160  0.5029  0.0295
  902MOL0     C21648   2.224   7.468  -0.447  0.5497 -0.1796 -0.3647
  902MOL0     C21649   2.120   7.594  -0.432 -0.0025  0.1407 -0.2947
  902MOL0     C21650   2.000   7.602  -0.520  0.5467 -0.7562  0.3387
  902MOL0     C21651   2.036   7.602  -0.675  0.7550 -0.4740 -0.3022
  902MOL0     N21652   2.086   7.729  -0.724  0.0161 -0.1502  0.4158
  902MOL0     C21653   2.224   7.744  -0.743  0.6832 -0.7439  0.2733
  902MOL0     C21654   2.255   7.876  -0.720 -0.5879  0.0976  0.4487
  902MOL0     C21655   2.398   7.927  -0.704 -0.5332  0.0177 -0.9222
  902MOL0     C21656   2.417   8.067  -0.637  1.1134  0.1885  1.0535
  902MOL0     C21657   2.566   8.108  -0.649 -1.1740 -0.2575 -0.3902
  902MOL0     C21658   2.570   8.259  -0.632  0.4130  0.7785 -0.1534
  902MOL0     O21659   2.514   8.292  -0.506 -0.1455 -0.0701 -0.2654
  902MOL0     C21660   2.592   8.322  -0.394  0.1275  0.9778  0.7385
  902MOL0     C21661   2.656   8.446  -0.381 -0.1382 -0.3624 -1.3976
  902MOL0     C21662   2.755   8.463  -0.285 -0.5906  0.1464 -0.4945
  902MOL0     C21663   2.825   8.598  -0.295  0.0707 -0.1782 -0.3792
  902MOL0     C21664   2.784   8.354  -0.194 -0.2233  0.4735 -0.0850
  902MOL0     C21665   2.892   8.363  -0.094  0.0693  0.1237  0.1112
  902MOL0     O21666   2.891   8.282   0.014 -0.7764  0.3413  0.6696
  902MOL0     C21667   2.994   8.283   0.099 -0.6633  0.0095 -0.3560
  902MOL0     C21668   3.054   8.169   0.146  0.4730 -0.2022  0.5832
  902MOL0     C21669   3.163   8.175   0.232 -1.4449  0.8516 -0.7096
  902MOL0     C21670   3.200   8.288   0.298 -0.1421  0.4125 -0.9043
  902MOL0     O21671   3.302   8.279   0.392 -0.1496  0.9410 -0.1679
  902MOL0     C21672   3.324   8.383   0.488  0.8258  0.8518 -0.9334
  902MOL0     C21673   3.464   8.437   0.457 -0.5008  0.1802  0.1251
  902MOL0     C21674   3.542   8.500   0.567 -0.6230  0.3043 -0.0789
  902MOL0     C21675   3.691   8.535   0.535 -0.6574  0.6194  0.8827
  902MOL0     C21676   3.789   8.566   0.655  0.3856  0.6088 -0.2296
  902MOL0     C21677   3.722   8.624   0.777 -0.4874 -0.4670  0.2213
  902MOL0     C21678   3.827   8.657   0.893 -0.3829  0.2233  0.3542
  902MOL0     C21679   3.813   8.807   0.939 -0.3743 -0.5003  0.5195
  902MOL0    Cl21680   3.864   8.821   1.109 -0.0475  0.2772 -0.1129
  902MOL0     C21681   3.138   8.401   0.259  0.7688  0.3345  0.1909
  902MOL0     C21682   3.045   8.402   0.156  0.6778 -0.1170  0.3862
  902MOL0     O21683   2.985   8.435  -0.130  0.4687  0.1634  0.2415
  902MOL0     C21684   2.708   8.234  -0.204  0.2867  0.1026  0.5759
  902MOL0     C21685   2.612   8.221  -0.310  0.5948  0.5441  0.3076
  902MOL0     N21686   2.135   7.931  -0.687  0.0932 -0.1102 -0.6293
  902MOL0     N21687   2.037   7.851  -0.689 -0.0180  0.8120 -0.8500
  902MOL0     C21688   2.050   7.160   0.227  0.1095 -0.7474 -0.1959
  902MOL0     C21689   1.970   7.145   0.333  0.0027 -0.3671  0.1542
  902MOL0     C21690   1.847   7.121   0.806  0.0176  0.7590  0.4143
  902MOL0     C21691   1.871   7.141   0.937  1.0185 -0.2419 -0.0429
  902MOL0     C21692   1.772   7.109   1.030  0.2556 -0.5675  0.3766
  902MOL0     C21693   1.650   7.055   0.999 -0.2625  0.2348 -0.1249
  902MOL0     O21694   1.556   7.037   1.098 -0.4979  0.7714 -0.0536
  902MOL0     C21695   1.435   7.111   1.096  0.4666  0.2303 -0.7749
  902MOL0     C21696   1.435   7.217   1.204 -0.1379  0.4922  0.7900
  902MOL0     C21697   1.447   7.155   1.349 -0.8176 -0.3298 -0.3833
  902MOL0     C21698   1.314   7.076   1.392  0.7373 -0.7974  0.5128
  902MOL0     C21699   1.187   7.158   1.366 -0.2473 -0.8761  0.5970
  902MOL0     C21700   1.091   7.220   1.332  0.3081 -0.5397 -1.1431
  902MOL0     C21701   1.629   7.024   0.864  0.5645  0.2207 -0.7689
  902MOL0     C21702   1.727   7.054   0.765 -0.1104  0.1342 -0.6354
  902MOL0     H21703   2.194   7.177   0.583 -0.8513 -1.7050 -0.4778
  902MOL0     H21704   2.337   7.226   0.377 -0.5208  0.1342  2.2441
  902MOL0     H21705   2.142   7.197  -0.038  0.2412  0.7434 -2.5922
  902MOL0     H21706   2.137   7.355   0.050  2.0536  1.9908  1.3848
  902MOL0     H21707   2.349   7.433  -0.032  0.2678  2.0489 -4.1156
  902MOL0     H21708   2.371   7.274  -0.115 -2.6533 -2.3393 -1.4595
  902MOL0     H21709   2.131   7.342  -0.228 -2.2402  1.7969  0.6254
  902MOL0     H21710   2.154   7.487  -0.160 -2.1272 -2.0187 -1.1363
  902MOL0     H21711   2.358   7.535  -0.292  1.5896  0.2633  0.8853
  902MOL0     H21712   2.369   7.353  -0.319  1.0966 -0.1168  3.5072
  902MOL0     H21713   2.291   7.482  -0.532  1.0674 -4.2110 -0.7836
  902MOL0     H21714   2.184   7.369  -0.468 -0.7993  0.2148  0.2630
  902MOL0     H21715   2.090   7.610  -0.328 -1.4702 -3.4702 -0.0182
  902MOL0     H21716   2.177   7.684  -0.457 -1.4125  1.2597  0.3745
  902MOL0     H21717   1.934   7.517  -0.498 -1.1004  0.4182  0.1534
  902MOL0     H21718   1.942   7.694  -0.513 -1.3952 -1.6794 -1.8732
  902MOL0     H21719   1.941   7.585  -0.728  0.6003  1.0700 -0.5946
  902MOL0     H21720   2.109   7.522  -0.687 -0.3533 -1.9479  2.1690
  902MOL0     H21721   2.295   7.662  -0.751  1.0606 -0.4364  0.4209
  902MOL0     H21722   2.442   7.854  -0.635  0.8982  0.9202 -0.8347
  902MOL0     H21723   2.447   7.916  -0.801  1.1348 -0.6059 -0.0587
  902MOL0     H21724   2.380   8.060  -0.535 -0.0865  1.7207  0.7612
  902MOL0     H21725   2.353   8.142  -0.685 -0.5503 -0.7033  1.7943
  902MOL0     H21726   2.610   8.088  -0.747  2.4879 -2.6662  1.5249
  902MOL0     H21727   2.621   8.055  -0.571  0.1346 -1.5085 -2.0659
  902MOL0     H21728   2.518   8.315  -0.711 -1.7670  0.2737  0.8266
  902MOL0     H21729   2.674   8.292  -0.630  0.5868  0.1856  2.0818
  902MOL0     H21730   2.648   8.519  -0.461  1.6702 -1.8940 -3.0610
  902MOL0     H21731   2.860   8.640  -0.201 -2.6588  0.9425  0.2128
  902MOL0     H21732   2.908   8.580  -0.364 -0.3457  0.9810 -1.2190
  902MOL0     H21733   2.762   8.680  -0.331  3.1473  1.4503 -2.5652
  902MOL0     H21734   3.015   8.073   0.113  2.3312 -0.8711  0.1728
  902MOL0     H21735   3.210   8.080   0.254 -1.4637  1.1563  0.7676
  902MOL0     H21736   3.252   8.466   0.483 -2.4507 -1.8404 -1.4841
  902MOL0     H21737   3.316   8.346   0.590  1.3980  3.2739  0.0796
  902MOL0     H21738   3.527   8.363   0.408  0.7673  3.0746 -3.0764
  902MOL0     H21739   3.455   8.505   0.371  0.5624 -1.5091 -1.3887
  902MOL0     H21740   3.529   8.432   0.652 -3.2540 -0.9162 -1.3362
  902MOL0     H21741   3.486   8.589   0.594 -1.1735 -0.0444 -0.0615
  902MOL0     H21742   3.745   8.456   0.481  2.0162  0.4730  3.4972
  902MOL0     H21743   3.694   8.617   0.462 -1.8671  0.1470  0.2759
  902MOL0     H21744   3.886   8.602   0.619 -0.2802  0.5144 -2.2518
  902MOL0     H21745   3.808   8.464   0.688  0.4607 -0.0397 -2.1190
  902MOL0     H21746   3.685   8.720   0.740 -0.0277 -1.0133 -1.7713
  902MOL0     H21747   3.635   8.570   0.815  0.2293 -0.4317  1.9765
  902MOL0     H21748   3.930   8.636   0.862 -0.9059  0.9906 -2.2164
  902MOL0     H21749   3.804   8.592   0.977  4.4228 -0.9875  1.0321
  902MOL0     H21750   3.715   8.854   0.923  1.1775  2.5336 -0.8809
  902MOL0     H21751   3.882   8.864   0.878 -0.4693 -0.2902  0.6068
  902MOL0     H21752   3.162   8.496   0.307  1.4673 -0.3373  1.2266
  902MOL0     H21753   3.009   8.498   0.122  2.9461  1.1387  1.3223
  902MOL0     H21754   2.724   8.157  -0.128  2.7525 -1.7522 -1.6370
  902MOL0     H21755   2.550   8.132  -0.318  0.2493  0.8267 -0.2689
  902MOL0     H21756   2.007   7.143   0.129  1.8467 -1.1674 -0.9081
  902MOL0     H21757   1.869   7.111   0.312 -0.0607  1.3767 -2.9156
  902MOL0     H21758   1.965   7.181   0.971 -1.1144  3.3449  2.3408
  902MOL0     H21759   1.781   7.140   1.134 -4.5900  0.8118  0.6348
  902MOL0     H21760   1.424   7.169   1.004 -0.9426  2.9586  0.9841
  902MOL0     H21761   1.352   7.039   1.095  0.0653  0.6389  0.5195
  902MOL0     H21762   1.338   7.265   1.196 -0.2326  0.2776  0.6526
  902MOL0     H21763   1.518   7.285   1.182 -0.3184  0.1458 -1.0624
  902MOL0     H21764   1.464   7.248   1.404 -1.2254 -1.0919  1.0805
  902MOL0     H21765   1.521   7.077   1.367 -3.7644 -3.0981  0.9680
  902MOL0     H21766   1.325   7.042   1.495  0.1070 -0.8912  0.5549
  902MOL0     H21767   1.302   6.979   1.341  2.6828 -1.3734  1.0701
  902MOL0     H21768   1.027   7.287   1.277  0.6831  0.4930 -0.3614
  902MOL0     H21769   1.538   6.975   0.830  0.0603  0.3741  0.3387
  902MOL0     H21770   1.709   7.037   0.659  0.9962  1.0225 -0.9879
  903MOL0     O21771   3.092   6.618   6.750 -0.3390 -0.0292 -0.2954
  903MOL0     C21772   3.074   6.672   6.857  0.9537  0.7132 -0.3764
  903MOL0     O21773   2.953   6.692   6.913 -1.2837  0.4217  0.0393
  903MOL0     C21774   2.844   6.648   6.847 -0.3806 -0.1643  0.6726
  903MOL0     C21775   2.802   6.524   6.877  0.3693  1.3120  0.1979
  903MOL0     C21776   2.683   6.471   6.823  0.4621  0.0012  0.7003
  903MOL0     C21777   2.605   6.549   6.725  0.3337  0.1235 -0.0592
  903MOL0     O21778   2.486   6.499   6.664 -0.3060  0.2970  0.2514
  903MOL0     C21779   2.479   6.511   6.514  0.4332  0.3475  0.8781
  903MOL0     C21780   2.338   6.481   6.465  0.1956 -0.1111 -0.1963
  903MOL0     C21781   2.239   6.590   6.514 -0.8481  0.9579  1.0615
  903MOL0     C21782   2.247   6.720   6.429 -0.5802 -0.3368 -0.0014
  903MOL0     C21783   2.207   6.838   6.512  0.5251  0.0033 -0.2389
  903MOL0     C21784   2.305   6.874   6.622  0.2398 -0.1168  0.3747
  903MOL0     C21785   2.249   6.985   6.714 -0.1375 -0.3334 -0.1484
  903MOL0     C21786   2.351   7.069   6.785  0.9935  0.1170  0.3778
  903MOL0     N21787   2.286   7.134   6.903  0.2228 -1.0607  0.3749
  903MOL0     C21788   2.357   7.223   6.981 -0.6762  0.1291  0.3877
  903MOL0     C21789   2.271   7.248   7.081 -0.7086  0.3895 -0.7598
  903MOL0     C21790   2.327   7.313   7.210  0.8695 -0.1834 -0.1961
  903MOL0     C21791   2.227   7.363   7.320 -0.5060 -0.6841 -0.0093
  903MOL0     C21792   2.135   7.473   7.266 -0.6701 -0.1638  0.7161
  903MOL0     C21793   2.038   7.521   7.371 -0.2687  0.0327 -0.5726
  903MOL0     O21794   1.964   7.631   7.326 -0.0870  0.3894  0.2956
  903MOL0     C21795   1.858   7.684   7.399 -0.1663  1.0669  0.1206
  903MOL0     C21796   1.804   7.800   7.341 -0.1486  0.5216 -0.7922
  903MOL0     C21797   1.711   7.879   7.412 -0.2092  2.1718 -0.6012
  903MOL0     C21798   1.646   7.996   7.340  0.6030  0.6536 -0.3366
  903MOL0     C21799   1.676   7.825   7.543 -0.3243  0.4175 -0.2306
  903MOL0     C21800   1.564   7.894   7.624  0.5783 -0.8051  1.5431
  903MOL0     O21801   1.579   7.897   7.764  0.0967  0.5759 -0.0572
  903MOL0     C21802   1.495   7.960   7.854 -0.3175  0.0807 -0.5610
  903MOL0     C21803   1.394   8.055   7.822 -0.4898  0.4357  0.0995
  903MOL0     C21804   1.329   8.126   7.919 -0.1150 -0.7829 -1.3203
  903MOL0     C21805   1.357   8.112   8.052 -0.4616  0.0017  1.3223
  903MOL0     O21806   1.310   8.182   8.156  0.5809 -0.6884 -0.1774
  903MOL0     C21807   1.203   8.274   8.130  0.3393  0.3686  0.1053
  903MOL0     C21808   1.149   8.325   8.265 -1.2070  0.3866  0.3452
  903MOL0     C21809   1.021   8.409   8.252  0.0840 -0.1789 -0.2958
  903MOL0     C21810   1.058   8.559   8.241  0.1518  0.5122  0.0130
  903MOL0     C21811   0.930   8.636   8.217 -0.5238 -0.6435  0.3231
  903MOL0     C21812   0.976   8.786   8.197 -0.3932  0.0335 -0.0508
  903MOL0     C21813   0.870   8.895   8.181 -0.4804 -0.0593 -0.2632
  903MOL0     C21814   0.760   8.886   8.289  0.1761  0.4216  0.4469
  903MOL0    Cl21815   0.805   8.877   8.459  0.1408  0.0886 -0.4662
  903MOL0     C21816   1.453   8.018   8.085  0.2730  1.0844 -0.3898
  903MOL0     C21817   1.517   7.936   7.990  0.3035  0.4297  0.3416
  903MOL0     O21818   1.470   7.938   7.556 -0.5909  0.6630 -0.4360
  903MOL0     C21819   1.740   7.721   7.603 -0.3915 -0.0454 -0.2689
  903MOL0     C21820   1.825   7.638   7.529 -0.0321  0.9344 -0.2972
  903MOL0     N21821   2.148   7.200   7.058  0.0361  0.3761  0.2266
  903MOL0     N21822   2.161   7.136   6.945 -0.0833  0.0305  0.4478
  903MOL0     C21823   2.648   6.677   6.695 -0.8000 -0.7834  0.4862
  903MOL0     C21824   2.762   6.733   6.761  0.4031  0.5910 -0.3506
  903MOL0     C21825   3.190   6.740   6.915 -1.8770 -0.1454 -1.4226
  903MOL0     C21826   3.318   6.719   6.860  0.0842 -0.4008 -0.1877
  903MOL0     C21827   3.428   6.774   6.931  0.3359  0.3672  0.2151
  903MOL0     C21828   3.411   6.843   7.049  0.3633 -0.0945 -0.5484
  903MOL0     O21829   3.513   6.911   7.118 -0.0877 -0.5063  0.0734
  903MOL0     C21830   3.641   6.836   7.129 -0.2900 -1.0025 -0.0028
  903MOL0     C21831   3.627   6.701   7.192 -0.8162  0.3236  0.8701
  903MOL0     C21832   3.587   6.726   7.339  0.6682 -0.9167  0.3469
  903MOL0     C21833   3.553   6.612   7.433  0.2792 -0.6831 -0.2743
  903MOL0     C21834   3.671   6.526   7.443  0.0680 -0.1583 -0.2172
  903MOL0     C21835   3.766   6.451   7.418 -0.6774 -0.0597 -0.2173
  903MOL0     C21836   3.289   6.865   7.100  1.0946  0.0075  0.2876
  903MOL0     C21837   3.177   6.818   7.030  0.8006 -0.3223 -0.1500
  903MOL0     H21838   2.847   6.463   6.955  0.8521  1.9661  0.4344
  903MOL0     H21839   2.657   6.368   6.844  1.8807 -0.8605 -1.4340
  903MOL0     H21840   2.501   6.614   6.485  0.3506 -0.0624 -0.7519
  903MOL0     H21841   2.560   6.456   6.464 -0.5288 -1.6379  1.3825
  903MOL0     H21842   2.334   6.476   6.356  0.5367  0.1021 -0.2207
  903MOL0     H21843   2.312   6.383   6.505  1.5658 -0.5846 -0.4147
  903MOL0     H21844   2.142   6.538   6.504  0.7985 -2.2570  0.3650
  903MOL0     H21845   2.244   6.590   6.623 -0.4910 -0.5130  1.0697
  903MOL0     H21846   2.351   6.740   6.404 -0.0418 -2.1173  0.7130
  903MOL0     H21847   2.191   6.715   6.335  0.0641  0.4715 -0.4440
  903MOL0     H21848   2.194   6.925   6.447  0.8604 -0.3193 -0.7447
  903MOL0     H21849   2.109   6.809   6.552  0.6317 -0.4958 -0.3366
  903MOL0     H21850   2.341   6.792   6.685  1.0062  0.6402  0.9519
  903MOL0     H21851   2.399   6.909   6.578 -1.1124  0.8721 -1.9149
  903MOL0     H21852   2.180   7.050   6.658 -0.9118 -0.1159  1.0035
  903MOL0     H21853   2.183   6.939   6.789  0.0882  0.5411  0.6218
  903MOL0     H21854   2.399   7.144   6.722  4.6045  0.1321  2.8293
  903MOL0     H21855   2.438   7.011   6.815  0.5600  0.5934  2.7251
  903MOL0     H21856   2.462   7.251   6.985 -0.7071  0.1199  3.0775
  903MOL0     H21857   2.397   7.241   7.253  1.3615  0.9195  0.9295
  903MOL0     H21858   2.391   7.400   7.192 -0.0443  1.7141  4.2568
  903MOL0     H21859   2.276   7.412   7.405 -3.3584 -0.6748  1.7569
  903MOL0     H21860   2.164   7.285   7.363  0.6686 -0.9484  1.3066
  903MOL0     H21861   2.076   7.432   7.183 -0.6251  0.9639  0.0923
  903MOL0     H21862   2.205   7.550   7.232  1.0887 -1.6128  0.9442
  903MOL0     H21863   2.099   7.551   7.456 -0.0524  1.3164 -1.1612
  903MOL0     H21864   1.968   7.437   7.380  1.8200 -1.6851  0.2795
  903MOL0     H21865   1.836   7.819   7.239  1.0250  1.6053 -0.2449
  903MOL0     H21866   1.629   8.078   7.410  2.3439  0.3009  0.5589
  903MOL0     H21867   1.719   8.037   7.270 -1.4817  1.9142 -1.9062
  903MOL0     H21868   1.556   7.971   7.283  2.2730 -1.0818 -2.4040
  903MOL0     H21869   1.368   8.080   7.719 -1.5236 -1.2196 -0.0687
  903MOL0     H21870   1.251   8.197   7.892  2.3917  2.0100 -1.7191
  903MOL0     H21871   1.240   8.359   8.073 -0.5275  1.9350  1.7816
  903MOL0     H21872   1.137   8.218   8.063  0.8689  1.1599 -1.1030
  903MOL0     H21873   1.132   8.248   8.341 -2.7269  2.8512  2.6792
  903MOL0     H21874   1.237   8.383   8.294  0.5940 -0.6611 -2.6217
  903MOL0     H21875   0.950   8.404   8.335  1.6576  0.5160  1.1492
  903MOL0     H21876   0.960   8.371   8.169  1.5185 -0.1267 -1.4238
  903MOL0     H21877   1.118   8.586   8.329 -1.4557 -1.4758  1.8356
  903MOL0     H21878   1.133   8.555   8.162  0.4999 -3.5113  0.3663
  903MOL0     H21879   0.862   8.617   8.300 -0.2650 -1.2286  0.4058
  903MOL0     H21880   0.885   8.610   8.121 -0.1592  1.8949 -0.6122
  903MOL0     H21881   1.028   8.823   8.286 -4.3539 -0.9879  2.9722
  903MOL0     H21882   1.057   8.797   8.124 -0.7683  0.9333 -0.3488
  903MOL0     H21883   0.838   8.907   8.078  0.3061  0.6188 -0.4404
  903MOL0     H21884   0.923   8.988   8.205 -0.2838 -0.3730  0.5662
  903MOL0     H21885   0.701   8.799   8.261  0.8772  0.6335 -1.9948
  903MOL0     H21886   0.699   8.972   8.261 -0.4765 -1.0202 -3.1690
  903MOL0     H21887   1.490   8.009   8.187 -1.5557 -2.1204  0.1221
  903MOL0     H21888   1.602   7.879   8.025 -0.5267 -0.8788  0.2749
  903MOL0     H21889   1.711   7.686   7.701 -0.4565  2.2445  0.6072
  903MOL0     H21890   1.860   7.545   7.573 -1.0412  1.3861  1.5994
  903MOL0     H21891   2.585   6.731   6.625  0.8046 -0.2410 -0.5890
  903MOL0     H21892   2.795   6.835   6.743  1.3182 -0.0887 -2.9946
  903MOL0     H21893   3.329   6.663   6.767  3.6733  0.3625 -0.3711
  903MOL0     H21894   3.530   6.766   6.894  0.3522  3.4132 -0.7582
  903MOL0     H21895   3.691   6.842   7.032 -1.9660 -1.1910 -0.9148
  903MOL0     H21896   3.714   6.888   7.191  2.1607 -1.9011 -1.9397
  903MOL0     H21897   3.724   6.652   7.184 -1.2786 -0.3382 -1.4250
  903MOL0     H21898   3.553   6.639   7.141 -0.3670  0.1210  0.4547
  903MOL0     H21899   3.503   6.796   7.339 -0.5985 -2.2799 -2.3689
  903MOL0     H21900   3.661   6.793   7.384 -1.9553  2.8677 -0.4845
  903MOL0     H21901   3.455   6.573   7.405  0.1946 -0.9573  0.3938
  903MOL0     H21902   3.546   6.635   7.539  0.2236 -1.8630 -0.0117
  903MOL0     H21903   3.860   6.400   7.413 -0.2117  0.8192 -0.5490
  903MOL0     H21904   3.279   6.919   7.193  4.0345 -2.2324  2.0763
  903MOL0     H21905   3.078   6.836   7.071  0.6069  0.4903 -0.9429
  904MOL0     O21906   1.447   4.294   8.495 -0.1357 -0.3047  0.0472
  904MOL0     C21907   1.324   4.316   8.486  0.3960 -0.0802 -0.4617
  904MOL0     O21908   1.249   4.372   8.585  0.5030 -0.4856  0.3302
  904MOL0     C21909   1.302   4.439   8.691  0.1602 -0.4393 -0.7078
  904MOL0     C21910   1.389   4.546   8.673 -0.5174 -0.3330 -0.4637
  904MOL0     C21911   1.447   4.600   8.790  0.3911  0.3384 -0.7236
  904MOL0     C21912   1.413   4.558   8.918 -0.0930  0.8058 -0.4731
  904MOL0     O21913   1.481   4.618   9.025 -0.4554  0.4829  0.0926
  904MOL0     C21914   1.426   4.606   9.154 -0.0275 -0.5533 -0.4203
  904MOL0     C21915   1.468   4.483   9.244  0.7408 -1.0964  0.3839
  904MOL0     C21916   1.622   4.477   9.262 -0.5863  0.0921 -0.1216
  904MOL0     C21917   1.712   4.431   9.149  0.2227  0.7373 -0.2316
  904MOL0     C21918   1.720   4.275   9.126 -0.1417  0.2931 -0.2702
  904MOL0     C21919   1.732   4.188   9.249  0.6608  0.0207  0.7268
  904MOL0     C21920   1.718   4.036   9.212  0.1841 -0.3908 -0.2593
  904MOL0     C21921   1.848   3.968   9.246 -0.1255 -0.2191 -0.1486
  904MOL0     N21922   1.854   3.825   9.201  1.0759 -1.0433 -0.0454
  904MOL0     C21923   1.828   3.780   9.075 -0.2582  0.7037  0.3323
  904MOL0     C21924   1.854   3.647   9.087 -0.6240  0.6216 -0.0399
  904MOL0     C21925   1.838   3.548   8.982  0.8191 -0.6888 -0.8363
  904MOL0     C21926   1.971   3.490   8.927 -0.4005 -0.6051 -0.0765
  904MOL0     C21927   1.946   3.402   8.807  0.3556 -0.0437 -0.1515
  904MOL0     C21928   1.834   3.296   8.820 -0.2348  0.2163 -0.4219
  904MOL0     O21929   1.703   3.347   8.823 -0.7109  0.0456 -0.6103
  904MOL0     C21930   1.596   3.263   8.823 -0.0813  0.0250  1.6470
  904MOL0     C21931   1.598   3.126   8.836  0.1263  0.0866  0.4149
  904MOL0     C21932   1.479   3.053   8.859 -0.3673  0.5212  1.2038
  904MOL0     C21933   1.492   2.904   8.880  0.9138 -0.5709 -1.3344
  904MOL0     C21934   1.350   3.121   8.843  0.0108 -0.1005 -0.3135
  904MOL0     C21935   1.217   3.065   8.862 -1.4672  1.1974  0.4591
  904MOL0     O21936   1.124   3.144   8.922 -0.1907  0.6684  0.6713
  904MOL0     C21937   0.989   3.107   8.907  0.2444  0.0036  0.7405
  904MOL0     C21938   0.922   3.042   9.011  0.3185  1.0986 -0.0911
  904MOL0     C21939   0.783   3.023   9.000 -0.2172 -0.8920 -0.3596
  904MOL0     C21940   0.720   3.057   8.881 -0.6206  1.0108  0.2183
  904MOL0     O21941   0.584   3.040   8.868 -0.3252  0.6899 -0.3822
  904MOL0     C21942   0.528   3.036   8.736 -0.3844 -0.0984  0.6812
  904MOL0     C21943   0.397   2.955   8.738  0.2924 -0.7394 -0.6639
  904MOL0     C21944   0.305   2.976   8.622  0.3131  0.0133 -1.0777
  904MOL0     C21945   0.182   2.881   8.657 -0.7139  0.2927 -0.6258
  904MOL0     C21946   0.106   2.867   8.522  0.0479 -0.9815  0.3471
  904MOL0     C21947  -0.012   2.960   8.512 -0.3645 -0.0122 -0.3308
  904MOL0     C21948  -0.064   2.964   8.371  0.1587  0.9526 -0.2961
  904MOL0     C21949  -0.091   3.106   8.322  1.1448  0.0997 -0.1576
  904MOL0    Cl21950   0.058   3.198   8.316 -0.1462 -0.1665  0.1012
  904MOL0     C21951   0.793   3.129   8.775 -0.1900  0.5789 -0.1757
  904MOL0     C21952   0.926   3.153   8.788 -0.1066  0.2373 -0.9935
  904MOL0     O21953   1.209   2.947   8.832  0.2100  0.4468  0.1273
  904MOL0     C21954   1.357   3.267   8.827  0.7367 -0.4390 -0.1750
  904MOL0     C21955   1.480   3.332   8.819  0.5339 -0.1038  1.4206
  904MOL0     N21956   1.908   3.618   9.213 -0.0893 -0.3935 -0.6510
  904MOL0     N21957   1.902   3.725   9.280  0.6056 -0.4596 -0.0762
  904MOL0     C21958   1.322   4.456   8.929 -0.1463 -0.3952 -0.1026
  904MOL0     C21959   1.260   4.399   8.821 -0.5604 -1.0653 -0.4307
  904MOL0     C21960   1.259   4.259   8.376 -0.0389  0.1556  0.3725
  904MOL0     C21961   1.321   4.157   8.303  0.1582 -0.2450  0.2556
  904MOL0     C21962   1.259   4.101   8.188  0.0227 -0.3688  0.5980
  904MOL0     C21963   1.143   4.158   8.141  0.4689 -0.1193  0.1582
  904MOL0     O21964   1.074   4.121   8.030  0.0984  0.9566  0.7352
  904MOL0     C21965   1.080   3.979   7.998 -0.6382 -0.6141 -0.3059
  904MOL0     C21966   0.951   3.930   7.917  0.0955  0.5506  1.2341
  904MOL0     C21967   0.821   3.940   8.000  0.4518 -0.1624  0.2942
  904MOL0     C21968   0.778   3.810   8.081  0.0572 -0.3499  0.7980
  904MOL0     C21969   0.682   3.840   8.177 -0.3700 -0.4088 -0.2716
  904MOL0     C21970   0.606   3.879   8.262 -0.6846  0.6008 -0.5417
  904MOL0     C21971   1.085   4.258   8.216  0.0389  0.2601  0.0907
  904MOL0     C21972   1.136   4.303   8.332 -0.1227 -0.6154 -0.1635
  904MOL0     H21973   1.398   4.592   8.576 -2.6325 -3.9446 -2.6057
  904MOL0     H21974   1.502   4.688   8.761 -0.5505  0.5776 -1.8742
  904MOL0     H21975   1.478   4.688   9.204  2.8400 -1.9744 -0.8330
  904MOL0     H21976   1.318   4.618   9.145  0.0192  2.1580  1.4863
  904MOL0     H21977   1.422   4.505   9.341  0.3864 -1.9967  0.4398
  904MOL0     H21978   1.429   4.390   9.202 -0.3295 -0.1724 -0.7240
  904MOL0     H21979   1.661   4.577   9.284 -0.3502  0.2205 -1.0468
  904MOL0     H21980   1.642   4.420   9.353 -1.6056 -1.4554 -0.8443
  904MOL0     H21981   1.697   4.485   9.055 -2.9241  2.0276  0.8941
  904MOL0     H21982   1.807   4.465   9.191 -0.2662  1.1009  0.6019
  904MOL0     H21983   1.629   4.248   9.072 -1.7697  3.1654  0.8175
  904MOL0     H21984   1.809   4.251   9.067 -1.5093 -0.1004 -2.2915
  904MOL0     H21985   1.831   4.216   9.286  1.3235 -0.2821 -0.7310
  904MOL0     H21986   1.657   4.219   9.323  1.4298 -0.5918  1.7857
  904MOL0     H21987   1.628   3.991   9.253 -0.5080  1.4687  0.3610
  904MOL0     H21988   1.697   4.026   9.105  1.4769  2.7272 -0.9186
  904MOL0     H21989   1.871   3.966   9.353 -0.7935 -1.1033 -0.0123
  904MOL0     H21990   1.925   4.027   9.196  0.8107 -1.1305  0.1820
  904MOL0     H21991   1.791   3.837   8.990  1.2137  3.8750  1.6483
  904MOL0     H21992   1.773   3.472   9.027  1.1752 -1.3821 -1.4635
  904MOL0     H21993   1.793   3.599   8.896 -0.4554  1.1816  0.8405
  904MOL0     H21994   2.033   3.429   8.993  0.0868 -1.4298 -1.2655
  904MOL0     H21995   2.029   3.579   8.902 -1.8154  1.0008  2.0328
  904MOL0     H21996   2.031   3.339   8.781 -0.1025 -2.3389  3.2576
  904MOL0     H21997   1.923   3.466   8.721  2.0765 -0.9601 -1.3269
  904MOL0     H21998   1.848   3.247   8.916  1.6208  2.5066  0.5834
  904MOL0     H21999   1.848   3.229   8.735  2.7116 -0.6585  0.6666
  904MOL0     H22000   1.685   3.063   8.846 -0.3353 -0.2881  2.6838
  904MOL0     H22001   1.486   2.845   8.789  3.6951 -1.4066 -1.0610
  904MOL0     H22002   1.591   2.881   8.921  1.3250  1.9096 -0.7771
  904MOL0     H22003   1.414   2.877   8.951  1.7230 -0.9909 -0.5832
  904MOL0     H22004   0.987   3.013   9.093 -0.6221 -0.6903  0.0911
  904MOL0     H22005   0.716   2.996   9.081 -1.1388 -1.2017 -1.2033
  904MOL0     H22006   0.501   3.140   8.717  2.3190  0.2483 -1.8284
  904MOL0     H22007   0.596   3.003   8.657 -1.6294 -0.4202 -0.2966
  904MOL0     H22008   0.427   2.853   8.759  1.0035  0.0696  3.0407
  904MOL0     H22009   0.341   2.983   8.828 -0.4378 -0.6141 -1.1407
  904MOL0     H22010   0.350   2.930   8.533 -0.0767 -2.6808  0.0077
  904MOL0     H22011   0.282   3.082   8.607  1.1645  0.2392 -0.8394
  904MOL0     H22012   0.225   2.785   8.689 -0.1151  0.6760 -0.2661
  904MOL0     H22013   0.116   2.920   8.735  0.3172 -0.3295  0.5836
  904MOL0     H22014   0.068   2.765   8.510 -4.3773  0.6626 -2.2844
  904MOL0     H22015   0.175   2.882   8.439 -3.0154 -1.3160 -2.4928
  904MOL0     H22016  -0.097   2.921   8.570  0.7490 -0.9593  0.7239
  904MOL0     H22017   0.014   3.059   8.550 -0.7159  0.2946 -0.8728
  904MOL0     H22018  -0.153   2.902   8.360  1.9165 -1.7536 -0.3366
  904MOL0     H22019   0.007   2.918   8.301 -0.9861 -2.9231  0.8132
  904MOL0     H22020  -0.167   3.152   8.386  1.2852 -0.6104  0.5403
  904MOL0     H22021  -0.130   3.095   8.221 -2.3151  2.5442  0.7198
  904MOL0     H22022   0.751   3.170   8.684 -0.6136  0.6196  0.0366
  904MOL0     H22023   0.989   3.217   8.727 -0.9384  1.8859 -0.1804
  904MOL0     H22024   1.273   3.331   8.802  0.8859 -0.8947 -1.9990
  904MOL0     H22025   1.476   3.439   8.798 -2.0053 -0.4329 -0.2498
  904MOL0     H22026   1.289   4.427   9.028 -1.6231 -0.1149 -0.4901
  904MOL0     H22027   1.192   4.316   8.839 -3.9277  1.7440  0.7610
  904MOL0     H22028   1.418   4.113   8.325 -0.1412 -0.1872  1.7987
  904MOL0     H22029   1.313   4.022   8.137 -3.6517 -1.5030 -1.9168
  904MOL0     H22030   1.170   3.962   7.938 -2.0530  1.1914 -3.1269
  904MOL0     H22031   1.084   3.920   8.090 -1.6112  1.6974  1.2897
  904MOL0     H22032   0.960   3.824   7.893  1.7756  0.7731  0.7739
  904MOL0     H22033   0.953   3.980   7.820  1.8265  0.9457  1.4397
  904MOL0     H22034   0.746   3.962   7.924  2.6540 -0.2615 -2.0484
  904MOL0     H22035   0.835   4.029   8.062 -0.1340  0.9641 -1.1477
  904MOL0     H22036   0.874   3.777   8.120  1.5904 -0.1341 -2.4541
  904MOL0     H22037   0.736   3.743   8.005 -0.7019  1.4162 -0.4018
  904MOL0     H22038   0.538   3.921   8.333  0.3945 -0.0068  0.9104
  904MOL0     H22039   0.996   4.307   8.176  1.7394  2.2930 -1.4153
  904MOL0     H22040   1.094   4.391   8.380  0.5396 -2.0229  3.3151
  905MOL0     O22041   1.872   7.659   1.693 -0.7707 -0.0679  0.6016
  905MOL0     C22042   1.923   7.555   1.720  0.3127 -0.2323 -0.1302
  905MOL0     O22043   1.942   7.449   1.632  0.1302 -0.3088  0.2675
  905MOL0     C22044   1.909   7.453   1.499 -0.0249 -0.4963  0.3507
  905MOL0     C22045   1.992   7.395   1.397  0.0675 -0.0616  0.4478
  905MOL0     C22046   1.965   7.420   1.263  0.0127  0.6081  0.6064
  905MOL0     C22047   1.848   7.486   1.225  0.4551 -0.1404 -0.7351
  905MOL0     O22048   1.832   7.489   1.087 -0.3892  0.0284 -0.7266
  905MOL0     C22049   1.710   7.541   1.038  0.8558 -0.2725  1.0433
  905MOL0     C22050   1.696   7.522   0.883  0.2872 -0.5569  0.4912
  905MOL0     C22051   1.564   7.582   0.843  0.2937 -0.5920  0.8283
  905MOL0     C22052   1.569   7.588   0.686 -0.3962 -0.1416  0.1979
  905MOL0     C22053   1.449   7.663   0.623  0.7049  0.4410 -0.7649
  905MOL0     C22054   1.313   7.574   0.651  0.5278 -0.1718 -0.2195
  905MOL0     C22055   1.294   7.459   0.558 -0.3015 -0.1457 -0.0685
  905MOL0     C22056   1.192   7.489   0.446 -0.3365  0.3277 -0.1875
  905MOL0     N22057   1.229   7.579   0.342  0.0025 -0.3104  0.2629
  905MOL0     C22058   1.165   7.689   0.290  0.2966 -0.1483  0.3952
  905MOL0     C22059   1.241   7.730   0.183 -1.0823 -0.2281  0.3073
  905MOL0     C22060   1.207   7.841   0.096 -0.0986  0.9347  0.1731
  905MOL0     C22061   1.214   7.816  -0.058 -0.4088 -0.4597 -0.1330
  905MOL0     C22062   1.225   7.953  -0.137 -0.4934 -0.3131  0.3048
  905MOL0     C22063   1.108   8.048  -0.120  0.2630 -0.3441  0.6166
  905MOL0     O22064   1.098   8.102   0.009 -0.2279 -0.3215  0.2193
  905MOL0     C22065   1.017   8.205   0.030 -0.4551 -0.0877 -0.8988
  905MOL0     C22066   1.054   8.282   0.146  0.0796  0.3230 -0.5085
  905MOL0     C22067   0.996   8.405   0.174 -0.0111 -0.0120 -0.3246
  905MOL0     C22068   1.052   8.481   0.289  0.7623  0.3904  0.1927
  905MOL0     C22069   0.907   8.451   0.080 -0.0076 -0.1898  0.4600
  905MOL0     C22070   0.840   8.587   0.083  0.2474  0.3642 -0.7045
  905MOL0     O22071   0.716   8.598   0.024  0.6970  0.4626  0.1565
  905MOL0     C22072   0.674   8.729  -0.008  0.8267 -0.0156 -0.6251
  905MOL0     C22073   0.562   8.780   0.052 -0.0842  0.9885 -0.4537
  905MOL0     C22074   0.516   8.904   0.002  0.6523  1.3494 -0.4937
  905MOL0     C22075   0.572   8.978  -0.097 -0.0876 -0.0372 -0.0658
  905MOL0     O22076   0.516   9.096  -0.111  0.2619 -0.5254  0.0460
  905MOL0     C22077   0.538   9.155  -0.243 -0.0866  0.6807 -0.1392
  905MOL0     C22078   0.479   9.302  -0.250 -0.9081  0.1647  0.0199
  905MOL0     C22079   0.336   9.302  -0.205  0.1497  0.2698 -0.1445
  905MOL0     C22080   0.278   9.446  -0.170 -0.1152 -0.4979  0.7728
  905MOL0     C22081   0.127   9.446  -0.127 -0.2365 -0.5302 -0.4644
  905MOL0     C22082   0.066   9.580  -0.085  0.3277 -1.1701 -0.7625
  905MOL0     C22083  -0.072   9.583  -0.030  1.5519 -0.6631 -0.2307
  905MOL0     C22084  -0.183   9.630  -0.123 -0.0641  0.7284  0.5194
  905MOL0    Cl22085  -0.156   9.816  -0.141  0.0841  0.5017  0.3284
  905MOL0     C22086   0.684   8.920  -0.156 -0.1914 -0.3052 -0.3333
  905MOL0     C22087   0.732   8.795  -0.115 -0.1944  0.2668  0.3630
  905MOL0     O22088   0.911   8.678   0.107 -0.0141 -0.6248 -0.3693
  905MOL0     C22089   0.861   8.374  -0.029  0.4655  0.8027  0.3927
  905MOL0     C22090   0.916   8.247  -0.054  0.1389  0.4174  0.3662
  905MOL0     N22091   1.337   7.637   0.166 -0.5065 -0.4715 -0.4351
  905MOL0     N22092   1.321   7.544   0.260 -0.4566  0.5626  0.1892
  905MOL0     C22093   1.755   7.528   1.323  0.7530 -0.0289  0.1766
  905MOL0     C22094   1.782   7.512   1.456 -1.0116 -0.4746 -0.0208
  905MOL0     C22095   1.964   7.556   1.856  0.0676 -0.2570  1.4867
  905MOL0     C22096   2.009   7.667   1.924 -0.2614 -0.0159  0.0487
  905MOL0     C22097   2.050   7.659   2.056  0.3373 -0.7237 -0.7493
  905MOL0     C22098   2.041   7.545   2.127 -0.0273 -0.0233 -0.2483
  905MOL0     O22099   2.074   7.561   2.260  0.0320 -0.5481 -0.1201
  905MOL0     C22100   2.005   7.471   2.346  0.2473 -0.1475 -0.4774
  905MOL0     C22101   1.980   7.529   2.478  0.3502  1.5324  0.4142
  905MOL0     C22102   1.868   7.636   2.472 -0.8395  0.1299  0.4952
  905MOL0     C22103   1.806   7.668   2.611  0.8166  1.0984 -0.0149
  905MOL0     C22104   1.716   7.560   2.654 -0.6010  0.8806 -0.4283
  905MOL0     C22105   1.659   7.454   2.683  0.5430 -0.4016  0.0994
  905MOL0     C22106   2.001   7.427   2.055  1.0068 -0.1208 -0.1612
  905MOL0     C22107   1.972   7.434   1.918  0.0229  0.3497  0.1469
  905MOL0     H22108   2.083   7.345   1.429  0.1578  0.4057  0.9294
  905MOL0     H22109   2.042   7.395   1.191  1.3919  1.7050  1.6489
  905MOL0     H22110   1.627   7.495   1.092 -1.2858  3.8228  1.6677
  905MOL0     H22111   1.698   7.649   1.051  0.8600 -0.1542  0.1216
  905MOL0     H22112   1.778   7.583   0.845 -0.9818  1.9615  1.5943
  905MOL0     H22113   1.720   7.423   0.844  1.9985 -0.0300  0.1298
  905MOL0     H22114   1.478   7.521   0.872  1.9341 -2.9093  1.0697
  905MOL0     H22115   1.549   7.681   0.888  0.1200 -0.4169  0.3923
  905MOL0     H22116   1.662   7.638   0.658 -1.2943  2.0103  0.7808
  905MOL0     H22117   1.560   7.489   0.641 -0.6125  2.0665 -5.4213
  905MOL0     H22118   1.422   7.752   0.680 -1.9021 -1.1631  0.7421
  905MOL0     H22119   1.470   7.670   0.516  2.2254 -1.4201 -0.6371
  905MOL0     H22120   1.316   7.547   0.757  0.3727  1.5191  0.2490
  905MOL0     H22121   1.229   7.642   0.635  0.6186 -0.4733 -2.1417
  905MOL0     H22122   1.391   7.431   0.516  0.9051  0.7326  2.0022
  905MOL0     H22123   1.257   7.374   0.617  1.6050 -0.4874  0.7109
  905MOL0     H22124   1.103   7.527   0.499  0.5467  0.3223  1.3709
  905MOL0     H22125   1.164   7.397   0.395 -0.2622  0.7495 -0.9980
  905MOL0     H22126   1.072   7.730   0.329  0.5296 -0.8205  1.7157
  905MOL0     H22127   1.107   7.882   0.114 -0.8988  1.1317 -3.7454
  905MOL0     H22128   1.282   7.917   0.123  1.4681 -0.6608  0.4582
  905MOL0     H22129   1.123   7.766  -0.090  0.5641 -3.3256  1.2204
  905MOL0     H22130   1.297   7.750  -0.084 -0.3638 -0.5298  0.1743
  905MOL0     H22131   1.235   7.915  -0.239 -3.0105 -0.5994  0.0855
  905MOL0     H22132   1.315   8.002  -0.098 -1.2905  0.0036  1.8390
  905MOL0     H22133   1.018   7.987  -0.134 -1.4674  1.3152  3.5122
  905MOL0     H22134   1.110   8.125  -0.198 -1.5095  0.8029  1.6229
  905MOL0     H22135   1.137   8.243   0.205 -1.4148 -1.2622  0.6651
  905MOL0     H22136   1.019   8.585   0.292  0.7424  0.4617 -1.4586
  905MOL0     H22137   1.005   8.436   0.377  0.6720  0.9170  0.4155
  905MOL0     H22138   1.161   8.470   0.292  0.6795 -1.2901 -1.2886
  905MOL0     H22139   0.514   8.721   0.129  3.3080 -1.0539  0.2781
  905MOL0     H22140   0.429   8.945   0.052  1.5355  3.6940 -0.7446
  905MOL0     H22141   0.646   9.157  -0.261  0.4705  0.0448  2.6906
  905MOL0     H22142   0.489   9.097  -0.322 -0.1847  2.9957 -1.8884
  905MOL0     H22143   0.529   9.373  -0.184 -1.3548 -0.6039  1.2162
  905MOL0     H22144   0.479   9.345  -0.351 -4.2846  1.3874  0.4137
  905MOL0     H22145   0.325   9.245  -0.112 -0.5729  1.9165  0.8283
  905MOL0     H22146   0.275   9.257  -0.284  0.5316  0.2407 -0.4224
  905MOL0     H22147   0.342   9.484  -0.089 -0.3364  0.9597  0.3042
  905MOL0     H22148   0.294   9.503  -0.262 -0.6837 -0.8749  0.4345
  905MOL0     H22149   0.126   9.371  -0.048 -1.6117 -2.1572 -1.9639
  905MOL0     H22150   0.070   9.414  -0.215 -0.9004 -2.2939  0.5662
  905MOL0     H22151   0.133   9.627  -0.012 -0.5943 -1.2632  0.1686
  905MOL0     H22152   0.071   9.647  -0.172 -2.5516 -0.9552 -0.8789
  905MOL0     H22153  -0.082   9.648   0.057 -1.5717  0.1738 -1.1111
  905MOL0     H22154  -0.098   9.481  -0.000  0.0647  0.0588  1.1001
  905MOL0     H22155  -0.283   9.612  -0.084 -0.3203  1.3324  0.1521
  905MOL0     H22156  -0.176   9.591  -0.225 -0.7134 -1.5459  1.2989
  905MOL0     H22157   0.751   8.968  -0.228  2.6804  0.7449  2.7736
  905MOL0     H22158   0.819   8.748  -0.158  0.4252  1.4033  0.3392
  905MOL0     H22159   0.789   8.408  -0.102  1.4528  1.4806 -0.2814
  905MOL0     H22160   0.886   8.178  -0.133  2.0025  1.8454 -1.7323
  905MOL0     H22161   1.653   7.554   1.294  0.6346 -0.1534  0.4772
  905MOL0     H22162   1.707   7.552   1.523 -2.1629  0.3066 -1.6895
  905MOL0     H22163   2.003   7.767   1.882  0.9458  0.6968  1.4811
  905MOL0     H22164   2.098   7.745   2.100  3.5948 -2.1509 -1.2642
  905MOL0     H22165   1.912   7.424   2.313 -1.0855  0.6497  1.9289
  905MOL0     H22166   2.064   7.380   2.362 -1.9965 -1.5484  0.2603
  905MOL0     H22167   2.072   7.571   2.520  1.2909 -3.0970  3.8248
  905MOL0     H22168   1.963   7.444   2.544  0.3156 -0.8886 -2.5157
  905MOL0     H22169   1.786   7.626   2.400 -1.7289  4.9434  0.5232
  905MOL0     H22170   1.923   7.723   2.435  1.4732 -1.4702 -0.0136
  905MOL0     H22171   1.730   7.746   2.605  0.2975  0.6482  0.6141
  905MOL0     H22172   1.886   7.694   2.680  2.6325 -1.2681 -1.0610
  905MOL0     H22173   1.602   7.363   2.692  1.7682 -1.1259  0.7550
  905MOL0     H22174   2.019   7.337   2.114 -2.2074 -0.1883  0.8862
  905MOL0     H22175   1.964   7.342   1.861  0.7721 -0.3856  1.1988
  906MOL0     O22176   4.866   0.429   1.517  0.0716 -0.3062 -0.2928
  906MOL0     C22177   4.916   0.387   1.623 -0.1160  0.3652  0.4524
  906MOL0     O22178   4.857   0.394   1.744  0.2072  0.3853  0.6227
  906MOL0     C22179   4.749   0.479   1.756  0.2748 -0.2950 -0.6891
  906MOL0     C22180   4.617   0.429   1.781  0.0372 -0.2504 -0.1949
  906MOL0     C22181   4.507   0.521   1.781  0.3540  0.1873  0.9144
  906MOL0     C22182   4.515   0.658   1.779 -0.3540  0.6532  0.3989
  906MOL0     O22183   4.402   0.735   1.776  0.1315  0.3108  0.1210
  906MOL0     C22184   4.412   0.877   1.767  0.4054  0.7015 -0.5221
  906MOL0     C22185   4.273   0.938   1.735 -1.8309  0.7584  0.0354
  906MOL0     C22186   4.229   0.954   1.586 -0.5152 -0.0453  1.2992
  906MOL0     C22187   4.102   0.880   1.555 -0.2039  0.1757  0.2771
  906MOL0     C22188   4.071   0.884   1.405 -0.0771 -0.5939 -0.0337
  906MOL0     C22189   3.932   0.825   1.398  0.6079  0.0514  0.0742
  906MOL0     C22190   3.900   0.804   1.254  0.8597  0.0666 -0.0980
  906MOL0     C22191   3.765   0.731   1.255 -1.4406  0.0558 -0.1684
  906MOL0     N22192   3.659   0.794   1.335  0.3333  0.0565  0.2760
  906MOL0     C22193   3.601   0.922   1.307 -0.4596 -0.4546 -0.6529
  906MOL0     C22194   3.508   0.919   1.398 -0.4670  0.0355 -1.2408
  906MOL0     C22195   3.403   1.016   1.425 -0.0396  0.8747  0.5787
  906MOL0     C22196   3.456   1.142   1.502 -1.2216 -0.0781 -0.0577
  906MOL0     C22197   3.377   1.264   1.471  0.9028 -0.5421 -0.2652
  906MOL0     C22198   3.402   1.393   1.551 -0.8024  0.3244  0.5080
  906MOL0     O22199   3.402   1.510   1.464  0.1415  0.5271 -0.3663
  906MOL0     C22200   3.285   1.557   1.433  1.3516 -1.1851  0.8074
  906MOL0     C22201   3.224   1.514   1.311 -0.1988  0.4092  0.0603
  906MOL0     C22202   3.097   1.559   1.278  0.4274 -0.9766  0.1165
  906MOL0     C22203   3.037   1.519   1.139  0.2229 -0.3141 -0.7876
  906MOL0     C22204   3.034   1.653   1.360  0.7460  0.3080  0.7759
  906MOL0     C22205   2.896   1.707   1.332  0.7282 -1.3309 -0.9740
  906MOL0     O22206   2.854   1.806   1.418 -0.2691 -0.1165  0.0230
  906MOL0     C22207   2.719   1.839   1.425  0.4072  1.3584 -0.5289
  906MOL0     C22208   2.630   1.788   1.520  0.2278 -0.5576 -0.3893
  906MOL0     C22209   2.505   1.841   1.531  0.0904  0.3656 -0.1946
  906MOL0     C22210   2.470   1.946   1.440 -0.2200  0.2474 -0.3948
  906MOL0     O22211   2.346   1.999   1.437  0.1899 -0.7492 -0.7986
  906MOL0     C22212   2.226   1.924   1.455 -0.3560  0.2783 -1.6065
  906MOL0     C22213   2.169   1.953   1.588  0.2976 -0.0091  0.8297
  906MOL0     C22214   2.034   1.866   1.591  0.4006  0.3395 -0.0851
  906MOL0     C22215   1.982   1.837   1.733 -0.3310  0.8732  0.5621
  906MOL0     C22216   1.851   1.750   1.738 -0.2455 -0.6676  0.3631
  906MOL0     C22217   1.837   1.639   1.848 -0.2863  0.5748  0.5482
  906MOL0     C22218   1.790   1.697   1.989 -0.6672 -0.8012  0.0598
  906MOL0     C22219   1.719   1.600   2.086  0.2683  0.3575  0.9136
  906MOL0    Cl22220   1.538   1.573   2.040  0.0521 -0.3880 -0.0062
  906MOL0     C22221   2.567   1.999   1.348  0.3731 -0.2908 -0.6764
  906MOL0     C22222   2.688   1.945   1.340 -0.7235  0.3897  0.7298
  906MOL0     O22223   2.819   1.652   1.255 -0.9377  0.0910 -0.3150
  906MOL0     C22224   3.094   1.692   1.490  0.3310  0.3893  0.6517
  906MOL0     C22225   3.222   1.641   1.523  0.6857  0.0700 -0.3956
  906MOL0     N22226   3.504   0.805   1.477 -0.3231 -0.5803 -0.3222
  906MOL0     N22227   3.616   0.748   1.455  0.0274 -0.3403 -0.0427
  906MOL0     C22228   4.649   0.712   1.766 -0.0910  0.9504  0.3544
  906MOL0     C22229   4.758   0.621   1.758  0.3309  0.2850 -0.2352
  906MOL0     C22230   5.041   0.307   1.611 -0.5471  0.2002  0.0023
  906MOL0     C22231   5.109   0.297   1.491  0.1242  0.8612  0.1637
  906MOL0     C22232   5.225   0.221   1.470  0.2168 -0.1735  0.3218
  906MOL0     C22233   5.274   0.146   1.576  0.2468 -0.5486  0.6837
  906MOL0     O22234   5.392   0.075   1.560 -0.1639 -0.5038  0.4846
  906MOL0     C22235   5.510   0.151   1.539  0.0807  0.4473 -0.6144
  906MOL0     C22236   5.634   0.069   1.570 -0.4897 -1.0877  0.7821
  906MOL0     C22237   5.745   0.133   1.489 -0.1977  0.3316  0.4673
  906MOL0     C22238   5.885   0.086   1.536  0.0124 -0.3337 -0.6800
  906MOL0     C22239   5.985   0.123   1.434 -0.1998  0.4202  0.4758
  906MOL0     C22240   6.081   0.124   1.357 -0.2323  1.1609 -0.8221
  906MOL0     C22241   5.211   0.162   1.702 -0.3685 -1.3708  0.6489
  906MOL0     C22242   5.098   0.244   1.716 -0.4257  0.6694 -0.1760
  906MOL0     H22243   4.610   0.321   1.791  1.3845 -0.6835 -3.0434
  906MOL0     H22244   4.405   0.489   1.800 -0.2025  0.2688 -1.6218
  906MOL0     H22245   4.450   0.910   1.864 -0.9917 -1.3629  0.8148
  906MOL0     H22246   4.485   0.904   1.691 -0.7247  0.5533 -1.7008
  906MOL0     H22247   4.192   0.886   1.788 -0.2508 -1.5093  0.3896
  906MOL0     H22248   4.291   1.041   1.765  0.3584  0.3831  0.1435
  906MOL0     H22249   4.196   1.056   1.566 -0.2672 -0.2125 -0.0086
  906MOL0     H22250   4.301   0.913   1.515 -1.5143  0.3126  0.0433
  906MOL0     H22251   4.105   0.782   1.603  0.3584  1.0426  2.0918
  906MOL0     H22252   4.017   0.930   1.603 -1.9588 -2.9890  0.7911
  906MOL0     H22253   4.067   0.984   1.360  0.1870 -1.0655 -1.1489
  906MOL0     H22254   4.140   0.833   1.338 -0.2535 -0.7967 -0.0616
  906MOL0     H22255   3.924   0.737   1.462  2.3076  0.7834  1.4032
  906MOL0     H22256   3.865   0.894   1.451  1.3356 -0.9821  2.4811
  906MOL0     H22257   3.881   0.899   1.204 -0.1560  1.9624  3.4685
  906MOL0     H22258   3.965   0.738   1.196  0.1008 -2.0850  1.3364
  906MOL0     H22259   3.779   0.633   1.302 -1.7616 -0.9561 -2.0968
  906MOL0     H22260   3.734   0.709   1.152  5.0018 -1.0839 -2.3270
  906MOL0     H22261   3.635   0.996   1.235  1.6389 -1.5206 -0.8269
  906MOL0     H22262   3.347   1.046   1.336  1.0913  1.1072 -0.0807
  906MOL0     H22263   3.331   0.960   1.486 -0.7836 -0.6702 -1.5708
  906MOL0     H22264   3.561   1.161   1.480 -1.1123  1.1087  1.3555
  906MOL0     H22265   3.447   1.113   1.607 -1.5156  0.4345  0.0634
  906MOL0     H22266   3.274   1.229   1.486  1.2495 -1.0025  1.1411
  906MOL0     H22267   3.390   1.283   1.364 -2.8945 -3.2987 -1.4693
  906MOL0     H22268   3.498   1.378   1.600 -0.8892  2.7739  1.5310
  906MOL0     H22269   3.336   1.403   1.638 -1.2917  0.0997  0.1713
  906MOL0     H22270   3.270   1.439   1.247  0.1335  0.8870 -0.2711
  906MOL0     H22271   3.125   1.492   1.079  1.0345  0.6985 -0.0944
  906MOL0     H22272   2.963   1.440   1.148 -0.1008  0.0002 -0.6590
  906MOL0     H22273   2.993   1.599   1.079  0.3596  0.2358 -0.1714
  906MOL0     H22274   2.667   1.715   1.591  0.4686  1.4423  1.6602
  906MOL0     H22275   2.443   1.814   1.616  3.9621  1.1347  3.2303
  906MOL0     H22276   2.172   1.962   1.367 -0.5100  3.2471 -0.3361
  906MOL0     H22277   2.238   1.817   1.433 -0.5045  0.4291 -2.4756
  906MOL0     H22278   2.227   1.915   1.672  1.1424  0.6332  0.5505
  906MOL0     H22279   2.142   2.058   1.605 -1.1734 -0.1303 -0.5369
  906MOL0     H22280   2.053   1.774   1.535  0.0337  0.8841 -1.1314
  906MOL0     H22281   1.949   1.900   1.530  0.6256  0.4937 -0.3163
  906MOL0     H22282   2.068   1.810   1.794  0.4558 -1.1998 -1.3298
  906MOL0     H22283   1.959   1.932   1.783  4.0235 -0.4281  5.9250
  906MOL0     H22284   1.827   1.708   1.640 -2.2139  0.7932  0.1613
  906MOL0     H22285   1.771   1.824   1.747 -0.8810 -1.1973 -0.7112
  906MOL0     H22286   1.757   1.574   1.812 -1.1756  1.0539  1.6026
  906MOL0     H22287   1.930   1.581   1.856 -0.8019 -0.0568  2.5381
  906MOL0     H22288   1.729   1.782   1.958 -0.0264 -1.4824 -3.6013
  906MOL0     H22289   1.871   1.733   2.053 -1.5256  0.2863  0.5480
  906MOL0     H22290   1.716   1.651   2.183  0.3098  0.4388  0.8730
  906MOL0     H22291   1.762   1.500   2.096  0.3805  0.3841  0.7161
  906MOL0     H22292   2.529   2.073   1.278 -0.8180 -0.7282 -0.5306
  906MOL0     H22293   2.772   1.971   1.277  0.0190 -1.4047  0.9008
  906MOL0     H22294   3.049   1.759   1.562  1.1852  0.4827  1.1008
  906MOL0     H22295   3.273   1.676   1.612  1.8818  0.7453 -1.3146
  906MOL0     H22296   4.673   0.811   1.730  3.6911  0.4117  0.9183
  906MOL0     H22297   4.861   0.649   1.740  0.1150  0.2653 -1.6183
  906MOL0     H22298   5.062   0.350   1.409 -1.7304  2.8250  2.3548
  906MOL0     H22299   5.267   0.201   1.372 -0.7873 -2.5545  0.3149
  906MOL0     H22300   5.513   0.180   1.433 -0.2520 -1.9064 -1.3191
  906MOL0     H22301   5.502   0.234   1.610 -1.0969 -0.0052 -0.2032
  906MOL0     H22302   5.618  -0.032   1.531  0.2949 -1.8076  2.2356
  906MOL0     H22303   5.649   0.058   1.678  1.0656  1.2652  0.8642
  906MOL0     H22304   5.739   0.240   1.513 -2.0424  0.1741  0.8129
  906MOL0     H22305   5.737   0.118   1.381 -1.6803  0.3269  0.5619
  906MOL0     H22306   5.879  -0.024   1.535  0.2901 -0.3779  0.6992
  906MOL0     H22307   5.912   0.108   1.639 -2.8009  0.6417 -0.0650
  906MOL0     H22308   6.163   0.120   1.288 -1.6436 -4.3351 -2.6598
  906MOL0     H22309   5.267   0.109   1.778 -2.5616 -2.3093  1.6986
  906MOL0     H22310   5.048   0.250   1.812  0.8192 -2.5053  0.8020
  907MOL0     O22311   1.894   2.006   4.943 -0.2229 -0.0566  0.4775
  907MOL0     C22312   2.012   2.036   4.926 -0.2142  0.3557 -0.9434
  907MOL0     O22313   2.061   2.164   4.899 -0.7578  1.0243 -0.6087
  907MOL0     C22314   1.991   2.256   4.830  0.1365  0.4280  0.9711
  907MOL0     C22315   2.056   2.376   4.807  0.0269  0.3338 -0.2406
  907MOL0     C22316   2.012   2.473   4.720  0.6260  0.1073  0.1629
  907MOL0     C22317   1.903   2.443   4.646 -0.5060  0.0219 -0.0972
  907MOL0     O22318   1.847   2.529   4.559  0.5972  0.6926 -0.1460
  907MOL0     C22319   1.759   2.631   4.611  1.2484 -0.2502 -0.9364
  907MOL0     C22320   1.711   2.730   4.502  0.1259 -0.1404 -0.7006
  907MOL0     C22321   1.573   2.692   4.451  0.0260  0.3858  0.4816
  907MOL0     C22322   1.521   2.806   4.357  0.2959 -0.6264 -1.5401
  907MOL0     C22323   1.410   2.763   4.260  0.0271  0.6916 -0.2743
  907MOL0     C22324   1.374   2.895   4.189  0.6322 -0.0008  0.1802
  907MOL0     C22325   1.279   2.878   4.067  0.4640 -0.1602  0.0356
  907MOL0     C22326   1.128   2.869   4.106 -0.0124 -0.5526 -0.6449
  907MOL0     N22327   1.083   3.001   4.158 -0.1496 -0.3336  0.1271
  907MOL0     C22328   0.958   3.012   4.217  0.7798  0.2011  0.9667
  907MOL0     C22329   0.932   3.147   4.200  0.0640  1.1077  0.2704
  907MOL0     C22330   0.809   3.211   4.246  0.1735  0.2150  0.2792
  907MOL0     C22331   0.822   3.298   4.371  0.5397 -0.6412  0.4474
  907MOL0     C22332   0.704   3.312   4.459 -0.5056 -0.2520 -0.2024
  907MOL0     C22333   0.667   3.178   4.522 -0.6629 -0.1447  0.4747
  907MOL0     O22334   0.773   3.119   4.604  0.1239 -0.0987 -0.4449
  907MOL0     C22335   0.799   3.170   4.729  0.1269  0.7434 -0.4675
  907MOL0     C22336   0.927   3.143   4.781 -0.7316  0.0817 -0.1582
  907MOL0     C22337   0.962   3.174   4.914  0.3078 -0.1215 -0.7197
  907MOL0     C22338   1.104   3.137   4.955  0.2988 -0.3267  0.0860
  907MOL0     C22339   0.867   3.237   5.000  0.1350 -1.1028 -0.0686
  907MOL0     C22340   0.903   3.290   5.132 -0.2172 -0.5771  0.0739
  907MOL0     O22341   0.857   3.413   5.170 -0.2437  0.3474  0.6990
  907MOL0     C22342   0.898   3.456   5.296 -0.5866  0.4055 -0.3091
  907MOL0     C22343   1.018   3.520   5.328 -0.8846 -0.7889 -0.4170
  907MOL0     C22344   1.050   3.555   5.465  0.6061  1.1227  0.0255
  907MOL0     C22345   0.970   3.505   5.573 -0.8351 -0.5068 -0.1619
  907MOL0     O22346   1.016   3.540   5.696 -0.1157 -1.1745  0.2251
  907MOL0     C22347   0.991   3.439   5.799 -0.3588 -0.6711  0.6884
  907MOL0     C22348   1.110   3.436   5.892  0.3376 -0.3740 -0.0959
  907MOL0     C22349   1.165   3.570   5.941 -0.6831 -0.1451  0.1073
  907MOL0     C22350   1.068   3.642   6.038  0.1189 -0.1376 -0.5255
  907MOL0     C22351   1.114   3.775   6.088 -0.6118 -0.3435  0.4049
  907MOL0     C22352   0.994   3.879   6.121 -0.3326  0.5995  0.1775
  907MOL0     C22353   1.048   4.020   6.147 -0.1986 -0.2152 -0.1868
  907MOL0     C22354   1.142   4.076   6.034  0.4572  0.1781  0.4024
  907MOL0    Cl22355   1.053   4.078   5.874 -0.4911 -0.1453  0.4219
  907MOL0     C22356   0.855   3.432   5.547 -0.8138 -0.5160  0.0051
  907MOL0     C22357   0.823   3.411   5.409 -1.3913 -0.5736  0.2898
  907MOL0     O22358   0.970   3.214   5.207 -0.0572  0.3130 -0.5520
  907MOL0     C22359   0.737   3.262   4.948 -0.8592  0.2955  0.6493
  907MOL0     C22360   0.707   3.221   4.822 -0.1752 -0.5034  1.2001
  907MOL0     N22361   1.040   3.217   4.151  0.5094  0.0719  0.4193
  907MOL0     N22362   1.124   3.127   4.117  0.0895 -0.0487  0.7505
  907MOL0     C22363   1.832   2.327   4.674  0.8425 -0.6113  0.1340
  907MOL0     C22364   1.862   2.232   4.767  0.8649 -1.1773  0.7008
  907MOL0     C22365   2.111   1.926   4.960  0.4023  1.0491  0.3148
  907MOL0     C22366   2.249   1.926   4.925  0.0447 -0.7051 -0.2377
  907MOL0     C22367   2.338   1.830   4.960  0.5646  0.3501 -0.3089
  907MOL0     C22368   2.292   1.715   5.025  0.1485 -0.1139  0.7035
  907MOL0     O22369   2.357   1.597   5.052 -0.5827 -0.4518 -0.3351
  907MOL0     C22370   2.495   1.600   5.082 -0.5996 -1.0047  0.1301
  907MOL0     C22371   2.518   1.673   5.215  0.8933 -0.3720  0.2102
  907MOL0     C22372   2.449   1.605   5.335  0.0634 -0.7355 -0.6512
  907MOL0     C22373   2.558   1.543   5.438  0.3620 -0.3545  0.3733
  907MOL0     C22374   2.622   1.421   5.379 -0.3124 -0.0892  0.1484
  907MOL0     C22375   2.670   1.319   5.334  0.5530  0.3486 -1.0150
  907MOL0     C22376   2.158   1.714   5.067 -0.3482  0.5325 -0.6858
  907MOL0     C22377   2.069   1.812   5.038  0.5992  0.2494 -1.2009
  907MOL0     H22378   2.151   2.400   4.853  1.2177 -0.5894 -2.1214
  907MOL0     H22379   2.064   2.566   4.703 -0.3002  0.5022 -0.5758
  907MOL0     H22380   1.677   2.581   4.662  3.2969 -1.5679  1.2718
  907MOL0     H22381   1.818   2.692   4.680  0.1973 -0.8563  0.5486
  907MOL0     H22382   1.720   2.830   4.545  0.3982  0.7369 -2.6579
  907MOL0     H22383   1.787   2.733   4.424  0.4110 -0.8712 -0.4537
  907MOL0     H22384   1.581   2.600   4.392  1.4349  0.6615  0.2081
  907MOL0     H22385   1.507   2.679   4.537 -2.5412  1.9922 -1.1185
  907MOL0     H22386   1.486   2.897   4.407 -0.6624 -2.0530  0.5124
  907MOL0     H22387   1.609   2.837   4.300  0.0784  1.9211 -0.6029
  907MOL0     H22388   1.445   2.683   4.195 -0.4566 -0.9013  1.3386
  907MOL0     H22389   1.320   2.738   4.318 -2.0644  3.9813 -1.8011
  907MOL0     H22390   1.330   2.959   4.266 -1.8500  0.2946 -1.3731
  907MOL0     H22391   1.460   2.940   4.139  0.0863  0.6760 -0.1591
  907MOL0     H22392   1.271   2.962   3.997 -2.0098  0.6614  1.1577
  907MOL0     H22393   1.292   2.785   4.011 -1.9832 -0.4427 -0.1687
  907MOL0     H22394   1.116   2.802   4.192  1.8636  0.0464  0.1358
  907MOL0     H22395   1.071   2.837   4.019 -2.6964 -0.9207  1.1290
  907MOL0     H22396   0.897   2.938   4.269  1.0817 -0.6207  0.1838
  907MOL0     H22397   0.768   3.269   4.162 -1.0432 -0.9315  0.0584
  907MOL0     H22398   0.747   3.123   4.261  0.9757 -0.5364 -0.6617
  907MOL0     H22399   0.852   3.397   4.336 -1.1648  0.0780  0.9250
  907MOL0     H22400   0.904   3.267   4.437  3.0666  4.0914 -0.0314
  907MOL0     H22401   0.619   3.354   4.404 -0.4205 -0.6819 -0.6672
  907MOL0     H22402   0.721   3.382   4.541 -1.4206 -1.9072  1.4882
  907MOL0     H22403   0.648   3.107   4.440  0.8508  0.2800 -0.2892
  907MOL0     H22404   0.577   3.189   4.583 -0.9918 -1.9671  0.3832
  907MOL0     H22405   0.995   3.086   4.718 -2.4062 -1.0073 -1.0465
  907MOL0     H22406   1.146   3.184   5.044  1.6480  0.8761 -1.1099
  907MOL0     H22407   1.117   3.029   4.967 -3.0977 -0.7538  0.8558
  907MOL0     H22408   1.171   3.168   4.874 -1.3032 -0.6667 -1.4315
  907MOL0     H22409   1.070   3.570   5.246 -2.1432  1.6876  0.1885
  907MOL0     H22410   1.132   3.621   5.489  2.5440 -1.1331  0.0087
  907MOL0     H22411   0.897   3.465   5.847 -0.3052 -0.1363  0.5001
  907MOL0     H22412   0.998   3.335   5.764 -0.8200 -1.3038  2.3533
  907MOL0     H22413   1.089   3.366   5.973  1.0477 -0.1665  0.2831
  907MOL0     H22414   1.187   3.379   5.840 -1.0730 -1.0795 -1.4968
  907MOL0     H22415   1.196   3.636   5.860 -0.3774 -0.5596 -0.1149
  907MOL0     H22416   1.257   3.552   5.998 -1.0148  0.7161  0.9530
  907MOL0     H22417   0.972   3.654   5.988 -1.0128 -1.0027  1.3062
  907MOL0     H22418   1.046   3.581   6.126  0.6164  0.1640 -0.1838
  907MOL0     H22419   1.173   3.825   6.011  1.5797  0.1137  2.2613
  907MOL0     H22420   1.185   3.762   6.171  1.5252  2.3879 -0.8658
  907MOL0     H22421   0.919   3.881   6.041  1.1103  0.6087 -1.2192
  907MOL0     H22422   0.926   3.857   6.204 -0.0596 -0.1574  0.2049
  907MOL0     H22423   1.119   4.019   6.230 -0.8082  0.2916  0.3528
  907MOL0     H22424   0.966   4.089   6.172  0.3541  0.5771 -0.5045
  907MOL0     H22425   1.234   4.018   6.027 -1.5969 -3.6982  2.4009
  907MOL0     H22426   1.185   4.168   6.077 -0.7596 -0.0829  2.2936
  907MOL0     H22427   0.794   3.378   5.618 -1.4797 -1.7578 -1.4712
  907MOL0     H22428   0.749   3.335   5.384 -1.1755 -0.0517 -2.1191
  907MOL0     H22429   0.653   3.309   4.998 -3.4592 -2.3684 -0.8898
  907MOL0     H22430   0.603   3.240   4.796 -0.1414 -0.1813  1.3034
  907MOL0     H22431   1.738   2.302   4.625  0.4279  0.5185  0.3175
  907MOL0     H22432   1.797   2.147   4.785  0.2379 -0.4258  2.1834
  907MOL0     H22433   2.292   2.010   4.871 -0.9417 -1.1203 -1.7163
  907MOL0     H22434   2.443   1.826   4.932 -0.0966 -0.1989 -3.0504
  907MOL0     H22435   2.534   1.498   5.090  1.8238 -0.1209  0.3382
  907MOL0     H22436   2.551   1.656   5.007  0.2730 -1.5711  0.3452
  907MOL0     H22437   2.487   1.777   5.204 -0.3498 -0.9361 -2.4079
  907MOL0     H22438   2.625   1.672   5.239  1.3478 -4.2514 -1.1783
  907MOL0     H22439   2.375   1.532   5.304 -2.2974  1.3857 -0.3733
  907MOL0     H22440   2.395   1.684   5.389 -0.0730 -2.1584  1.3963
  907MOL0     H22441   2.513   1.518   5.535  1.1235 -2.9596  0.1355
  907MOL0     H22442   2.631   1.619   5.468 -0.9539  1.1200 -0.0234
  907MOL0     H22443   2.715   1.227   5.303  0.5430 -0.0768  0.1704
  907MOL0     H22444   2.135   1.628   5.129  4.4003  0.7073  1.8242
  907MOL0     H22445   1.971   1.792   5.080  0.4936 -3.8622 -2.8400
  908MOL0     O22446   5.336   6.137   0.501  0.7254 -0.1683  0.1727
  908MOL0     C22447   5.338   6.242   0.439 -0.6506  0.0038 -0.7177
  908MOL0     O22448   5.359   6.251   0.311 -0.2263  0.0981 -0.2226
  908MOL0     C22449   5.391   6.156   0.222  1.0546  1.2932 -0.1155
  908MOL0     C22450   5.448   6.197   0.106  0.7567  0.2059  0.7907
  908MOL0     C22451   5.476   6.102   0.002  0.3993  0.0974 -0.7374
  908MOL0     C22452   5.462   5.965   0.024 -1.0031 -0.6384  0.0247
  908MOL0     O22453   5.493   5.862  -0.063  0.1823 -0.4219  0.3186
  908MOL0     C22454   5.581   5.893  -0.171  0.0719  0.4799  0.9161
  908MOL0     C22455   5.554   5.786  -0.277  0.7286 -0.7043 -0.5387
  908MOL0     C22456   5.433   5.823  -0.368  0.1962 -0.1996  0.2438
  908MOL0     C22457   5.313   5.733  -0.334  0.6091  0.8429 -0.6364
  908MOL0     C22458   5.333   5.592  -0.390 -0.1220  0.8590 -0.9683
  908MOL0     C22459   5.218   5.494  -0.349  1.1091 -0.2985  0.5085
  908MOL0     C22460   5.232   5.455  -0.195 -0.1325 -0.0127  0.7500
  908MOL0     C22461   5.362   5.400  -0.145  0.0532  0.0863 -0.2219
  908MOL0     N22462   5.372   5.368   0.002  0.1069  0.1193  0.4768
  908MOL0     C22463   5.336   5.446   0.107  0.6457 -0.4049  0.1014
  908MOL0     C22464   5.349   5.370   0.218 -0.5343 -0.5603 -0.2867
  908MOL0     C22465   5.333   5.433   0.358 -1.0784 -0.0901  0.1686
  908MOL0     C22466   5.192   5.426   0.401 -0.4498 -0.1415  0.4236
  908MOL0     C22467   5.175   5.527   0.517 -0.0811  0.5024  0.2859
  908MOL0     C22468   5.027   5.564   0.541 -0.4063 -0.5652 -0.9782
  908MOL0     O22469   4.964   5.431   0.575 -1.3358  0.1778 -0.6486
  908MOL0     C22470   4.829   5.426   0.554  0.3263 -0.3837  1.0046
  908MOL0     C22471   4.748   5.537   0.558  0.0041 -0.5792  0.4005
  908MOL0     C22472   4.603   5.522   0.546  0.8656 -0.2817 -0.5089
  908MOL0     C22473   4.520   5.654   0.574 -0.5647 -0.6017  0.1454
  908MOL0     C22474   4.553   5.394   0.501  0.1969  0.1406 -0.0493
  908MOL0     C22475   4.406   5.377   0.463 -0.2676  0.4966 -0.8764
  908MOL0     O22476   4.380   5.266   0.391  0.3471  0.1851  0.6978
  908MOL0     C22477   4.257   5.238   0.340 -0.1301 -0.5815  0.7960
  908MOL0     C22478   4.174   5.156   0.412  0.5226  0.2140 -0.1740
  908MOL0     C22479   4.052   5.130   0.364  0.4744 -0.4062  0.5946
  908MOL0     C22480   4.000   5.184   0.244 -0.6282  0.1076  0.0929
  908MOL0     O22481   3.874   5.158   0.192 -0.4426 -0.1755  0.6806
  908MOL0     C22482   3.771   5.202   0.279 -0.5927 -0.9311  0.3177
  908MOL0     C22483   3.641   5.232   0.204  0.2031  0.0916 -0.3053
  908MOL0     C22484   3.646   5.351   0.102 -1.1485 -0.2930  0.3236
  908MOL0     C22485   3.538   5.345  -0.003  0.5061  1.4953  0.5768
  908MOL0     C22486   3.551   5.465  -0.086  0.0419 -0.3490 -0.2287
  908MOL0     C22487   3.433   5.461  -0.177 -0.1573 -0.8965 -0.1170
  908MOL0     C22488   3.410   5.581  -0.267  0.4992  0.5831 -0.1664
  908MOL0     C22489   3.398   5.713  -0.193  0.4022  0.3875  0.1851
  908MOL0    Cl22490   3.556   5.788  -0.200 -0.3407 -0.3651 -0.0977
  908MOL0     C22491   4.096   5.260   0.165  0.4449 -0.4337 -0.1545
  908MOL0     C22492   4.213   5.294   0.219 -0.5288 -0.0267  0.1212
  908MOL0     O22493   4.323   5.449   0.508  0.0341 -0.0501 -0.7853
  908MOL0     C22494   4.645   5.292   0.481  0.2726 -0.7171  0.1300
  908MOL0     C22495   4.780   5.302   0.515  0.1008  0.3388 -0.3071
  908MOL0     N22496   5.385   5.242   0.179  0.1287 -0.1254  0.5054
  908MOL0     N22497   5.414   5.245   0.052 -0.3774 -0.4153  0.5116
  908MOL0     C22498   5.404   5.923   0.142  0.3462 -0.5601  0.3762
  908MOL0     C22499   5.377   6.014   0.242 -0.3986 -0.0138  0.2540
  908MOL0     C22500   5.321   6.365   0.520 -0.2886 -0.2246  0.1189
  908MOL0     C22501   5.263   6.374   0.650 -0.1009  0.2600  0.0900
  908MOL0     C22502   5.215   6.487   0.703 -0.6469 -1.1866  0.1123
  908MOL0     C22503   5.230   6.609   0.639  0.3973  0.3320  0.4330
  908MOL0     O22504   5.179   6.717   0.706 -0.0097  1.0692  0.6088
  908MOL0     C22505   5.227   6.848   0.670 -0.8685  0.0521 -0.6983
  908MOL0     C22506   5.210   6.935   0.789 -0.2342 -0.7950  1.2064
  908MOL0     C22507   5.265   7.086   0.767  0.1041  0.2804  0.3264
  908MOL0     C22508   5.223   7.170   0.892 -0.6085 -0.5915  0.6246
  908MOL0     C22509   5.310   7.292   0.886  0.3183  0.2014  0.7191
  908MOL0     C22510   5.368   7.398   0.889 -0.6539  0.2295  0.0035
  908MOL0     C22511   5.285   6.606   0.512  0.1809 -0.0799 -0.3046
  908MOL0     C22512   5.340   6.492   0.450 -0.9604  0.1574 -0.7045
  908MOL0     H22513   5.469   6.303   0.092  1.6449  0.1693  1.6558
  908MOL0     H22514   5.512   6.145  -0.091  0.9506  0.3165 -0.4290
  908MOL0     H22515   5.565   5.990  -0.219  1.1870  0.8777  1.3354
  908MOL0     H22516   5.683   5.888  -0.134  0.7334  3.0071 -0.3733
  908MOL0     H22517   5.641   5.775  -0.343  1.1767 -1.1155  0.1125
  908MOL0     H22518   5.545   5.690  -0.227  0.7357 -0.0343  0.7977
  908MOL0     H22519   5.411   5.928  -0.350  1.3753 -0.0509  0.9124
  908MOL0     H22520   5.455   5.801  -0.473  1.3990 -0.2331  0.4894
  908MOL0     H22521   5.304   5.729  -0.225 -0.8677  0.2498 -0.7478
  908MOL0     H22522   5.219   5.771  -0.374  1.2337  0.5477 -2.4533
  908MOL0     H22523   5.330   5.593  -0.500  0.3191 -2.4918 -1.0995
  908MOL0     H22524   5.425   5.549  -0.349 -0.0111 -1.2926 -3.2263
  908MOL0     H22525   5.121   5.539  -0.371  1.7505  1.6561  1.4484
  908MOL0     H22526   5.223   5.404  -0.411  0.6859  0.2264 -0.2975
  908MOL0     H22527   5.204   5.540  -0.131 -3.7493  0.5703 -1.3168
  908MOL0     H22528   5.147   5.389  -0.178  0.3366 -0.3455  1.8858
  908MOL0     H22529   5.431   5.484  -0.153  0.1416  0.3860  2.6815
  908MOL0     H22530   5.393   5.309  -0.198  1.3723  0.4597 -0.1159
  908MOL0     H22531   5.302   5.549   0.110  0.9943 -0.2576  3.5103
  908MOL0     H22532   5.398   5.376   0.424 -0.8305 -1.2460 -1.0332
  908MOL0     H22533   5.361   5.539   0.354 -1.5213  0.0441  0.5018
  908MOL0     H22534   5.165   5.324   0.430 -1.4791  0.5266  1.9453
  908MOL0     H22535   5.121   5.448   0.321 -0.6679 -1.2290  0.2969
  908MOL0     H22536   5.229   5.620   0.497  1.1814 -0.8586 -3.2768
  908MOL0     H22537   5.202   5.480   0.613  0.5729 -0.8185 -0.5197
  908MOL0     H22538   4.977   5.607   0.453  1.0367  1.1614 -1.0139
  908MOL0     H22539   5.011   5.626   0.630 -3.0982 -1.6121 -0.6251
  908MOL0     H22540   4.786   5.636   0.580 -1.1063 -0.0952  0.2164
  908MOL0     H22541   4.479   5.702   0.484 -1.1169  5.0137  2.9846
  908MOL0     H22542   4.445   5.644   0.653  2.0281  1.6588  3.1523
  908MOL0     H22543   4.591   5.722   0.621  0.1381 -1.7322  0.7560
  908MOL0     H22544   4.201   5.111   0.507  0.5276  1.4735  0.4333
  908MOL0     H22545   3.974   5.084   0.423 -0.1549 -0.6312 -0.4003
  908MOL0     H22546   3.749   5.119   0.347  1.1495 -1.3057  0.4558
  908MOL0     H22547   3.806   5.293   0.329 -2.4820  1.0910 -1.7464
  908MOL0     H22548   3.610   5.141   0.151  3.0880 -0.7579 -0.6843
  908MOL0     H22549   3.564   5.251   0.280 -0.3170  0.4604 -0.9183
  908MOL0     H22550   3.746   5.354   0.056 -0.2574 -1.7424  2.0603
  908MOL0     H22551   3.634   5.443   0.160 -3.8121 -1.0075  1.0589
  908MOL0     H22552   3.562   5.255  -0.061  2.1112  3.1528 -1.5053
  908MOL0     H22553   3.441   5.329   0.045  1.0261 -3.2790  0.5435
  908MOL0     H22554   3.649   5.454  -0.134  0.6793 -0.2535  0.9978
  908MOL0     H22555   3.558   5.565  -0.041 -2.0659 -0.1458 -0.2564
  908MOL0     H22556   3.445   5.378  -0.248  2.0177 -1.4388  0.7923
  908MOL0     H22557   3.345   5.445  -0.115  1.1475 -2.3543  1.4734
  908MOL0     H22558   3.316   5.562  -0.320  0.4203 -0.3247  0.2750
  908MOL0     H22559   3.490   5.588  -0.342  2.0711  2.7321  1.5705
  908MOL0     H22560   3.350   5.711  -0.095 -2.3484 -0.5453 -1.0638
  908MOL0     H22561   3.335   5.778  -0.254  2.2055  0.8021 -1.3320
  908MOL0     H22562   4.077   5.294   0.063 -0.8929 -0.7699 -0.0450
  908MOL0     H22563   4.288   5.349   0.162 -1.0871  0.4937 -0.1182
  908MOL0     H22564   4.604   5.194   0.461 -3.4176  0.2763  1.9799
  908MOL0     H22565   4.853   5.222   0.511 -2.2890 -2.2063  2.1559
  908MOL0     H22566   5.383   5.817   0.154 -2.0405 -0.1456  0.2707
  908MOL0     H22567   5.336   5.973   0.334  1.5489  0.5282  1.4133
  908MOL0     H22568   5.250   6.282   0.706  0.1865 -0.1234 -0.4587
  908MOL0     H22569   5.178   6.476   0.804  2.0069 -0.4949  1.2365
  908MOL0     H22570   5.330   6.852   0.634 -0.7557  0.7047 -0.3095
  908MOL0     H22571   5.165   6.887   0.588 -1.7717 -0.4246 -0.2584
  908MOL0     H22572   5.264   6.900   0.877  1.2734  2.5677  1.8081
  908MOL0     H22573   5.103   6.941   0.810  0.3301  2.6919  4.0910
  908MOL0     H22574   5.233   7.133   0.674 -0.3691  1.3722  1.0246
  908MOL0     H22575   5.373   7.070   0.767 -0.1540 -1.8147  0.7146
  908MOL0     H22576   5.248   7.120   0.986  1.2011 -2.9620 -1.0044
  908MOL0     H22577   5.118   7.196   0.880  0.1575  1.4859 -3.5725
  908MOL0     H22578   5.396   7.501   0.900 -0.7967  0.1314  1.5845
  908MOL0     H22579   5.291   6.703   0.465 -0.9027  1.2529  2.1232
  908MOL0     H22580   5.384   6.501   0.351 -2.2248  1.2764 -1.1995
  909MOL0     O22581   4.594   7.264   8.328  0.0378  0.1551 -0.2961
  909MOL0     C22582   4.643   7.371   8.282  0.2712  0.8593  0.1429
  909MOL0     O22583   4.672   7.474   8.359  0.1294  0.0651  0.6735
  909MOL0     C22584   4.624   7.479   8.485  0.3439  0.3071 -0.7056
  909MOL0     C22585   4.710   7.496   8.593  0.7716 -0.1575  0.1025
  909MOL0     C22586   4.657   7.534   8.719 -0.2521 -0.8494 -1.0018
  909MOL0     C22587   4.522   7.540   8.750 -0.3315 -0.3114  0.1641
  909MOL0     O22588   4.490   7.541   8.882  0.2260 -0.3590 -0.6831
  909MOL0     C22589   4.351   7.563   8.937  0.0046 -0.0500 -0.7465
  909MOL0     C22590   4.292   7.450   9.022  0.4688 -0.4496 -0.7384
  909MOL0     C22591   4.155   7.485   9.080  0.2452  0.3087  0.3293
  909MOL0     C22592   4.096   7.352   9.125  0.7214 -0.1660 -0.4524
  909MOL0     C22593   3.967   7.389   9.196 -0.3083 -0.2057 -0.3375
  909MOL0     C22594   3.901   7.253   9.246  0.0744 -0.1856  0.1551
  909MOL0     C22595   3.770   7.286   9.313 -0.1681 -0.4143 -0.2878
  909MOL0     C22596   3.701   7.152   9.343  0.6819 -0.0184 -0.0034
  909MOL0     N22597   3.608   7.203   9.444 -0.0914  0.1758 -0.3847
  909MOL0     C22598   3.636   7.218   9.575 -0.4720  0.9938 -0.9666
  909MOL0     C22599   3.515   7.244   9.633 -0.4690  0.2114 -0.2245
  909MOL0     C22600   3.496   7.267   9.777 -0.8189  0.1830 -0.2314
  909MOL0     C22601   3.470   7.133   9.857  0.3802 -0.0506 -0.4698
  909MOL0     C22602   3.325   7.069   9.831 -0.4573  0.3916 -0.3516
  909MOL0     C22603   3.201   7.158   9.859  0.5115  0.7887 -0.2495
  909MOL0     O22604   3.195   7.218   9.991  0.1553 -0.2755  0.0104
  909MOL0     C22605   3.081   7.255  10.047 -0.5464  0.0700  0.1445
  909MOL0     C22606   3.072   7.267  10.180 -0.2616  0.4717  0.0261
  909MOL0     C22607   2.955   7.298  10.249  0.0357 -0.2084  1.3877
  909MOL0     C22608   2.979   7.320  10.398 -0.1913 -0.6855  0.6538
  909MOL0     C22609   2.830   7.319  10.175 -0.0391 -0.7209 -0.3892
  909MOL0     C22610   2.713   7.377  10.237 -0.2603 -0.0930  0.1655
  909MOL0     O22611   2.590   7.334  10.199 -0.3157  0.3107  0.4850
  909MOL0     C22612   2.479   7.400  10.242 -0.7038  0.0996  0.3121
  909MOL0     C22613   2.373   7.371  10.162 -0.7761  0.8122  0.4571
  909MOL0     C22614   2.253   7.438  10.174  0.0205 -0.4068 -0.9155
  909MOL0     C22615   2.249   7.553  10.259 -0.4921 -0.9700 -0.1578
  909MOL0     O22616   2.130   7.615  10.252  0.1701  0.3443 -0.1244
  909MOL0     C22617   2.091   7.699  10.351  0.3982  0.0928  0.7404
  909MOL0     C22618   1.958   7.750  10.328  0.1188 -0.3037  0.3465
  909MOL0     C22619   1.860   7.654  10.374 -0.8069  0.8472 -0.9231
  909MOL0     C22620   1.715   7.687  10.365  0.3277 -0.3668  0.1166
  909MOL0     C22621   1.664   7.724  10.220  0.4431  0.2413 -0.6821
  909MOL0     C22622   1.506   7.716  10.208  0.2471  0.3581  0.7320
  909MOL0     C22623   1.466   7.745  10.059 -0.1251 -0.5337 -0.4954
  909MOL0     C22624   1.493   7.628   9.974  0.2400 -0.4584  0.6017
  909MOL0    Cl22625   1.418   7.479  10.033 -0.0101 -0.0674  0.1611
  909MOL0     C22626   2.350   7.565  10.352  0.2285  0.6629 -0.0659
  909MOL0     C22627   2.464   7.485  10.349 -0.3730  0.7521 -0.2354
  909MOL0     O22628   2.740   7.471  10.314 -0.2118  0.3347  0.2963
  909MOL0     C22629   2.842   7.319  10.032 -0.2713  0.2668  0.0477
  909MOL0     C22630   2.965   7.280   9.976 -1.5514  0.6706 -0.1493
  909MOL0     N22631   3.420   7.243   9.539  0.6918  0.8224 -0.3661
  909MOL0     N22632   3.475   7.227   9.423 -0.5062 -0.0724 -0.4670
  909MOL0     C22633   4.437   7.521   8.636 -0.1788  0.7633  0.1687
  909MOL0     C22634   4.490   7.505   8.507  0.7886 -0.2863 -0.4964
  909MOL0     C22635   4.702   7.379   8.141 -0.5598  0.1369 -1.0946
  909MOL0     C22636   4.796   7.478   8.100  0.1833  0.8150  0.0937
  909MOL0     C22637   4.835   7.488   7.971 -0.2677  0.9884 -0.0532
  909MOL0     C22638   4.789   7.399   7.873  0.1833  0.1989 -0.5628
  909MOL0     O22639   4.829   7.411   7.741  0.4279  0.1520 -0.2084
  909MOL0     C22640   4.932   7.310   7.721  0.4363  0.1016  0.7401
  909MOL0     C22641   4.932   7.276   7.565 -0.6197 -0.6114 -0.4707
  909MOL0     C22642   4.826   7.171   7.537  0.1805  0.3202  0.3487
  909MOL0     C22643   4.884   7.031   7.544 -0.1555  0.0118 -0.8542
  909MOL0     C22644   4.901   6.987   7.682  0.6414 -0.0637 -0.1362
  909MOL0     C22645   4.918   6.937   7.795 -1.1012  0.0053  0.7320
  909MOL0     C22646   4.697   7.297   7.913 -0.5181 -0.2206 -0.0565
  909MOL0     C22647   4.660   7.295   8.047  0.5624 -0.1990  0.4698
  909MOL0     H22648   4.817   7.502   8.577  1.0770  1.4399  2.3412
  909MOL0     H22649   4.735   7.528   8.794 -2.3337 -0.4363  1.3447
  909MOL0     H22650   4.353   7.657   8.993  3.5807 -0.6072  0.3404
  909MOL0     H22651   4.284   7.571   8.852 -1.4104  1.8025  0.4639
  909MOL0     H22652   4.305   7.353   8.973  1.2990 -0.1477 -1.1149
  909MOL0     H22653   4.354   7.448   9.112 -1.6471 -0.7328  0.8111
  909MOL0     H22654   4.158   7.563   9.156  0.8733  0.4451  0.1708
  909MOL0     H22655   4.080   7.517   9.006  0.1179 -1.4294 -0.3647
  909MOL0     H22656   4.079   7.280   9.045  1.4796 -0.5281 -0.2940
  909MOL0     H22657   4.171   7.313   9.194  1.9494  2.2477 -0.3199
  909MOL0     H22658   3.987   7.458   9.279  0.2160  0.5438 -1.0810
  909MOL0     H22659   3.896   7.440   9.131  2.9699 -0.8031 -4.7768
  909MOL0     H22660   3.894   7.182   9.164  1.1861 -0.2592  0.1065
  909MOL0     H22661   3.980   7.215   9.312 -0.1885 -1.4906 -0.2708
  909MOL0     H22662   3.774   7.350   9.402 -1.4579 -1.7658  0.7909
  909MOL0     H22663   3.703   7.334   9.242  0.0710  0.7603  0.2510
  909MOL0     H22664   3.778   7.079   9.370  1.0224  0.7781  1.2685
  909MOL0     H22665   3.640   7.115   9.261  2.0602  2.2120 -2.2154
  909MOL0     H22666   3.731   7.210   9.628 -1.6470 -2.9418  0.9083
  909MOL0     H22667   3.587   7.308   9.821 -0.7376 -1.6387  1.4100
  909MOL0     H22668   3.416   7.337   9.802  0.1999  1.7438 -1.1739
  909MOL0     H22669   3.470   7.154   9.965  0.5501 -1.0429 -0.2737
  909MOL0     H22670   3.550   7.069   9.819 -0.2789  0.3784 -2.7264
  909MOL0     H22671   3.308   6.987   9.902 -0.2313 -0.4623 -1.2530
  909MOL0     H22672   3.332   7.028   9.729  2.9537 -3.0974  1.0269
  909MOL0     H22673   3.113   7.097   9.835 -0.6348  2.0530  0.5972
  909MOL0     H22674   3.205   7.233   9.779  2.2998  0.5134 -0.4539
  909MOL0     H22675   3.164   7.243  10.233 -0.3674  0.6762  0.3012
  909MOL0     H22676   3.016   7.422  10.402 -0.1302 -0.2246 -4.7900
  909MOL0     H22677   2.892   7.302  10.462 -0.9487 -0.4898 -0.2886
  909MOL0     H22678   3.065   7.260  10.431  0.0905 -1.3883 -1.2375
  909MOL0     H22679   2.401   7.297  10.086 -1.1482 -2.0882  2.9441
  909MOL0     H22680   2.171   7.427  10.104 -0.4561 -0.7500 -0.3172
  909MOL0     H22681   2.089   7.641  10.444  1.6807 -0.1713  0.6236
  909MOL0     H22682   2.159   7.783  10.364  0.0649  0.0256  3.5222
  909MOL0     H22683   1.935   7.848  10.371 -2.1554  0.7764 -2.9400
  909MOL0     H22684   1.943   7.753  10.220 -1.8198 -1.8093  0.5105
  909MOL0     H22685   1.881   7.627  10.478  0.5809  2.3864 -0.7626
  909MOL0     H22686   1.881   7.569  10.309 -1.5517 -1.4577  1.6742
  909MOL0     H22687   1.656   7.602  10.400  2.0548 -1.4626  0.5074
  909MOL0     H22688   1.702   7.776  10.427  0.1758  1.0800 -1.8956
  909MOL0     H22689   1.708   7.644  10.159  0.8357  0.4135 -0.6256
  909MOL0     H22690   1.692   7.821  10.177 -1.0888  0.2982 -1.6242
  909MOL0     H22691   1.472   7.618  10.243 -3.4008  1.9020  2.0168
  909MOL0     H22692   1.460   7.788  10.275 -0.7781 -0.4240  0.9012
  909MOL0     H22693   1.522   7.831  10.021 -0.7171  0.0642 -0.0416
  909MOL0     H22694   1.362   7.776  10.065 -0.0995 -0.6891  2.6850
  909MOL0     H22695   1.600   7.607   9.988 -0.1671 -2.5828  0.8627
  909MOL0     H22696   1.465   7.651   9.871  2.4144 -2.6517 -0.5952
  909MOL0     H22697   2.329   7.637  10.430  0.5309  1.0481 -0.3355
  909MOL0     H22698   2.532   7.493  10.433  1.9253 -2.3986 -1.5859
  909MOL0     H22699   2.751   7.326   9.974 -0.2423 -2.3568 -0.4385
  909MOL0     H22700   2.976   7.274   9.868  3.0208  1.7050  0.0541
  909MOL0     H22701   4.330   7.535   8.644 -0.2101  1.2245 -0.8862
  909MOL0     H22702   4.419   7.506   8.425 -0.9542  0.6730  0.9375
  909MOL0     H22703   4.837   7.550   8.171  1.4322 -0.3633  0.6198
  909MOL0     H22704   4.908   7.564   7.949  0.0948  0.8372  0.5881
  909MOL0     H22705   5.026   7.360   7.744 -0.3800  1.4117  1.3130
  909MOL0     H22706   4.928   7.222   7.786 -0.6841  0.2811  0.9348
  909MOL0     H22707   5.035   7.249   7.542  0.0761  0.4601  1.1811
  909MOL0     H22708   4.913   7.372   7.515  2.1061  0.6285  0.7289
  909MOL0     H22709   4.812   7.187   7.430  2.0541  0.0146  0.0170
  909MOL0     H22710   4.731   7.191   7.586 -0.3517  2.4200 -1.3784
  909MOL0     H22711   4.984   7.022   7.501  0.6782 -4.2502  1.4063
  909MOL0     H22712   4.827   6.954   7.491 -0.9359  0.3058 -0.4682
  909MOL0     H22713   4.921   6.904   7.897 -2.9377 -3.7112 -0.2686
  909MOL0     H22714   4.654   7.224   7.846 -0.5285  0.2068 -0.5242
  909MOL0     H22715   4.576   7.231   8.072 -0.0491  0.4826  0.2197
  910MOL0     O22716   1.647   2.341   2.105  0.2831  0.7509  1.2326
  910MOL0     C22717   1.630   2.423   2.012 -0.4404 -0.8574 -0.5639
  910MOL0     O22718   1.521   2.518   2.000 -0.1794  0.0216 -0.4989
  910MOL0     C22719   1.406   2.520   2.078 -0.3399  0.4553 -0.3405
  910MOL0     C22720   1.347   2.640   2.118  0.3997  0.2730  0.2233
  910MOL0     C22721   1.233   2.639   2.201 -0.3056  0.4737  0.9048
  910MOL0     C22722   1.166   2.522   2.243 -1.0415 -0.1311 -0.0199
  910MOL0     O22723   1.053   2.531   2.320  0.2254 -0.1184 -0.4320
  910MOL0     C22724   0.960   2.426   2.340  0.9623 -0.2748  0.3028
  910MOL0     C22725   0.830   2.460   2.425  0.0001 -0.0712  0.8153
  910MOL0     C22726   0.735   2.574   2.381  0.1399  0.2047  0.1210
  910MOL0     C22727   0.675   2.543   2.246 -0.5484 -1.0477  0.0735
  910MOL0     C22728   0.540   2.618   2.217  0.2395 -0.3086 -0.8839
  910MOL0     C22729   0.486   2.595   2.081  0.2816 -0.0174  0.8398
  910MOL0     C22730   0.342   2.641   2.058  0.0167  0.2705 -0.5187
  910MOL0     C22731   0.327   2.794   2.070  0.2100  0.1905  0.3357
  910MOL0     N22732   0.186   2.827   2.046  0.2454  0.2450  0.6631
  910MOL0     C22733   0.134   2.898   1.942 -1.0745 -0.2260  0.2025
  910MOL0     C22734   0.006   2.932   1.976 -0.2812 -1.1381  0.1330
  910MOL0     C22735  -0.079   3.009   1.882  0.7445  0.5169 -0.0154
  910MOL0     C22736  -0.040   3.144   1.843  0.2596 -0.5958 -1.0726
  910MOL0     C22737  -0.007   3.233   1.962 -0.5702 -0.3749 -0.3347
  910MOL0     C22738  -0.013   3.386   1.935  0.2384 -0.1282  0.1335
  910MOL0     O22739  -0.146   3.430   1.910  0.0308 -0.8998 -0.8005
  910MOL0     C22740  -0.236   3.458   2.015  0.0098 -0.4847 -0.6059
  910MOL0     C22741  -0.191   3.496   2.144  0.4062 -0.6263  0.1562
  910MOL0     C22742  -0.281   3.530   2.250  0.4322 -1.1263  0.1784
  910MOL0     C22743  -0.218   3.567   2.382 -0.2214 -0.3026 -0.1194
  910MOL0     C22744  -0.423   3.513   2.227 -1.0097 -0.1620  0.4854
  910MOL0     C22745  -0.529   3.546   2.327 -0.2199 -0.7046 -0.7310
  910MOL0     O22746  -0.641   3.619   2.289 -0.1124  1.0548  1.0481
  910MOL0     C22747  -0.727   3.676   2.375  0.7076 -0.1757 -0.9283
  910MOL0     C22748  -0.831   3.737   2.315 -1.0401  0.3095  1.0788
  910MOL0     C22749  -0.941   3.807   2.380  0.1437 -0.3839 -0.3982
  910MOL0     C22750  -0.941   3.800   2.517  1.2028  0.4840 -0.1803
  910MOL0     O22751  -1.043   3.846   2.607  0.2640 -0.6930  0.3091
  910MOL0     C22752  -1.164   3.892   2.534  0.8285 -0.3764 -0.0084
  910MOL0     C22753  -1.253   3.944   2.646  0.3759  0.1518  0.3580
  910MOL0     C22754  -1.371   4.031   2.589 -0.0991 -0.3697  0.0603
  910MOL0     C22755  -1.492   4.032   2.681  0.1727  0.2539 -1.1038
  910MOL0     C22756  -1.611   4.092   2.592 -0.4414  1.7984 -0.0245
  910MOL0     C22757  -1.733   4.101   2.676 -0.2197 -0.1693  0.6486
  910MOL0     C22758  -1.865   4.129   2.594 -0.0826  0.4672  0.2319
  910MOL0     C22759  -1.986   4.120   2.687 -0.5984  0.2890 -0.0056
  910MOL0    Cl22760  -2.134   4.152   2.599  0.6832  0.1179 -0.4341
  910MOL0     C22761  -0.832   3.747   2.592 -0.0346  0.1666  0.1309
  910MOL0     C22762  -0.724   3.683   2.522  0.4183 -0.5222  0.3507
  910MOL0     O22763  -0.524   3.488   2.436 -0.2555 -0.0486 -0.5656
  910MOL0     C22764  -0.464   3.486   2.091 -0.2390  0.4338 -0.1642
  910MOL0     C22765  -0.370   3.462   1.993  0.0941  0.3218  0.3390
  910MOL0     N22766  -0.019   2.878   2.096 -0.4203  0.8991  0.0301
  910MOL0     N22767   0.083   2.811   2.136 -0.9060  0.7065  0.7039
  910MOL0     C22768   1.228   2.402   2.205 -0.4091  0.1173  0.4334
  910MOL0     C22769   1.350   2.399   2.119  0.6875  0.0868 -0.4312
  910MOL0     C22770   1.736   2.437   1.904  0.9851  0.1690 -0.5375
  910MOL0     C22771   1.836   2.334   1.893 -0.2266 -0.3127 -0.3925
  910MOL0     C22772   1.933   2.343   1.790 -0.9663 -0.2578 -0.2703
  910MOL0     C22773   1.940   2.453   1.715  0.9939 -0.8785  0.8123
  910MOL0     O22774   2.032   2.467   1.615  0.6001  0.1169  0.0773
  910MOL0     C22775   2.162   2.431   1.649 -0.7451  0.6712 -0.1719
  910MOL0     C22776   2.264   2.426   1.533 -0.3395 -0.5717  0.2836
  910MOL0     C22777   2.402   2.383   1.580  0.4791 -0.3267  0.0356
  910MOL0     C22778   2.503   2.389   1.466 -0.5656 -1.0688  0.6256
  910MOL0     C22779   2.640   2.348   1.499  0.0378 -0.2514  0.3170
  910MOL0     C22780   2.753   2.323   1.527 -0.6735  0.1375 -0.3676
  910MOL0     C22781   1.838   2.543   1.722 -0.0822 -0.1588 -0.2209
  910MOL0     C22782   1.732   2.543   1.810  1.2712  1.4763  0.1026
  910MOL0     H22783   1.390   2.736   2.090  1.6893 -1.5371 -5.1107
  910MOL0     H22784   1.194   2.736   2.231 -0.9449  0.7140 -0.5841
  910MOL0     H22785   0.930   2.392   2.240 -1.0727 -0.0648  0.7993
  910MOL0     H22786   1.012   2.346   2.395  0.2831 -0.2294  1.0235
  910MOL0     H22787   0.767   2.371   2.429 -1.0192  0.4276 -2.0573
  910MOL0     H22788   0.872   2.477   2.525  1.2407 -0.4465  0.3754
  910MOL0     H22789   0.649   2.574   2.449 -1.3037 -0.5639 -1.6143
  910MOL0     H22790   0.801   2.660   2.397  0.7628 -0.5444  1.8984
  910MOL0     H22791   0.754   2.572   2.176  3.1298 -3.5357  2.7600
  910MOL0     H22792   0.646   2.438   2.239 -0.5156 -0.9561 -2.1213
  910MOL0     H22793   0.475   2.580   2.296  3.2542  1.0307  2.5267
  910MOL0     H22794   0.548   2.726   2.232 -0.3531 -0.2559 -0.9170
  910MOL0     H22795   0.555   2.636   2.006 -1.0986  0.1828 -0.3597
  910MOL0     H22796   0.484   2.488   2.061  0.8268  0.3035 -1.1916
  910MOL0     H22797   0.308   2.606   1.960 -1.7681 -0.7555  0.4296
  910MOL0     H22798   0.274   2.596   2.130 -0.1566  0.3476 -0.6337
  910MOL0     H22799   0.382   2.846   1.992 -1.2857 -0.7268 -1.4172
  910MOL0     H22800   0.355   2.843   2.164  0.2351  3.0491 -1.0701
  910MOL0     H22801   0.185   2.931   1.852 -2.1022  2.8091  0.6167
  910MOL0     H22802  -0.088   2.946   1.793  1.4295 -1.6530  1.3884
  910MOL0     H22803  -0.183   3.010   1.917  0.7342  2.5882  0.0489
  910MOL0     H22804  -0.141   3.173   1.813 -1.1825 -1.7717  2.1872
  910MOL0     H22805   0.036   3.142   1.765  3.1411  0.2941  1.5268
  910MOL0     H22806   0.097   3.219   1.994 -0.5478  2.0534  0.9125
  910MOL0     H22807  -0.066   3.207   2.051 -1.1168  0.3053 -0.4925
  910MOL0     H22808   0.037   3.393   1.838 -1.8278 -2.7234 -1.2382
  910MOL0     H22809   0.039   3.451   2.006 -0.3950  0.5295  0.0067
  910MOL0     H22810  -0.087   3.479   2.169  0.1804 -1.0217  0.8462
  910MOL0     H22811  -0.176   3.668   2.372  0.2870 -0.4737  0.2219
  910MOL0     H22812  -0.307   3.578   2.444 -1.9439 -0.4859 -2.4471
  910MOL0     H22813  -0.155   3.491   2.430 -0.3964  0.2571  1.0378
  910MOL0     H22814  -0.826   3.726   2.207 -4.1007 -1.7669  1.0062
  910MOL0     H22815  -1.017   3.864   2.328  1.2686  1.2870 -0.3068
  910MOL0     H22816  -1.145   3.983   2.477  0.1833  0.9302  1.7629
  910MOL0     H22817  -1.213   3.814   2.475 -0.8108 -1.6532  2.8064
  910MOL0     H22818  -1.297   3.853   2.688 -0.7331 -1.0024 -2.9699
  910MOL0     H22819  -1.189   3.992   2.720  1.4874 -3.7613  2.2333
  910MOL0     H22820  -1.391   3.993   2.488 -0.6777  1.9317 -0.7518
  910MOL0     H22821  -1.332   4.131   2.567 -0.8235 -0.7425 -3.6319
  910MOL0     H22822  -1.523   3.935   2.721 -0.4080  1.4263  1.4938
  910MOL0     H22823  -1.480   4.091   2.772  0.2419 -0.1664 -0.8406
  910MOL0     H22824  -1.623   4.028   2.503  1.2332  0.5206  0.6188
  910MOL0     H22825  -1.582   4.193   2.562  1.1615  0.6058 -2.9046
  910MOL0     H22826  -1.736   4.020   2.749  0.4715 -1.1571 -0.3789
  910MOL0     H22827  -1.714   4.195   2.728 -1.4259  1.0461 -0.9946
  910MOL0     H22828  -1.876   4.082   2.496 -0.1017  1.6125 -0.3267
  910MOL0     H22829  -1.861   4.234   2.563 -0.8800  0.0459 -1.4188
  910MOL0     H22830  -1.979   4.181   2.778  1.2332 -1.1362  0.8699
  910MOL0     H22831  -1.999   4.021   2.733 -0.9047  1.6749  3.1403
  910MOL0     H22832  -0.846   3.740   2.699 -1.0946 -1.4042 -0.0731
  910MOL0     H22833  -0.645   3.641   2.583 -0.0387  0.6090  1.7889
  910MOL0     H22834  -0.565   3.495   2.053 -0.1834 -2.1838 -1.1338
  910MOL0     H22835  -0.396   3.438   1.890  2.0016  2.3301 -0.6776
  910MOL0     H22836   1.191   2.304   2.235  1.6960 -1.1415 -0.8096
  910MOL0     H22837   1.397   2.303   2.097  0.2360  0.2445 -2.3190
  910MOL0     H22838   1.840   2.249   1.961 -0.3254 -0.6553 -0.8035
  910MOL0     H22839   2.007   2.263   1.793 -1.6394 -0.9696  3.5518
  910MOL0     H22840   2.196   2.502   1.725 -1.0697 -1.4868  2.1324
  910MOL0     H22841   2.168   2.338   1.706 -0.4846  1.1355  0.5799
  910MOL0     H22842   2.275   2.524   1.486 -1.0800 -0.0608  1.1478
  910MOL0     H22843   2.233   2.353   1.457 -1.3314  1.6830 -1.6185
  910MOL0     H22844   2.406   2.280   1.616 -0.0278  0.0266  1.1365
  910MOL0     H22845   2.427   2.457   1.656  1.2990  1.4637 -1.8729
  910MOL0     H22846   2.492   2.485   1.416  0.3202 -0.7358  1.0507
  910MOL0     H22847   2.454   2.320   1.397  1.3822 -1.0692 -0.8297
  910MOL0     H22848   2.858   2.304   1.536 -0.4816  1.1032 -0.4163
  910MOL0     H22849   1.857   2.625   1.653  2.8991 -0.6689 -0.1644
  910MOL0     H22850   1.656   2.620   1.810 -1.0023 -0.4950 -2.8136
  911MOL0     O22851   1.839   5.986   0.760 -0.0887  0.8907 -0.5403
  911MOL0     C22852   1.808   6.039   0.875 -0.4854 -0.3619  0.7183
  911MOL0     O22853   1.697   6.113   0.901 -0.4411  0.6264 -0.0964
  911MOL0     C22854   1.608   6.128   0.796  1.4678 -1.0172 -0.1254
  911MOL0     C22855   1.505   6.040   0.781  0.5771 -0.2046  0.4140
  911MOL0     C22856   1.423   6.048   0.667  0.3504  0.2452  1.2855
  911MOL0     C22857   1.451   6.152   0.572 -0.3626  0.5848 -0.5100
  911MOL0     O22858   1.376   6.160   0.457  0.5811  0.2541  0.3111
  911MOL0     C22859   1.279   6.061   0.418  0.3374  0.4551 -0.5299
  911MOL0     C22860   1.234   6.124   0.290 -0.5467 -0.6597 -0.5383
  911MOL0     C22861   1.085   6.107   0.270  0.2318  0.1430 -0.7338
  911MOL0     C22862   1.043   6.179   0.139 -0.5833  0.5512 -0.1157
  911MOL0     C22863   0.895   6.211   0.150  0.6794 -0.2448 -0.2183
  911MOL0     C22864   0.814   6.266   0.030  0.4991 -0.4058  0.4777
  911MOL0     C22865   0.666   6.287   0.051 -0.2487  0.0633  0.1389
  911MOL0     C22866   0.604   6.144   0.039  0.2310  0.0109  0.0512
  911MOL0     N22867   0.462   6.128   0.073 -0.2001  0.4059  0.7815
  911MOL0     C22868   0.368   6.087  -0.017  0.5437 -1.0225 -0.2112
  911MOL0     C22869   0.256   6.062   0.057  0.2767  0.2282  0.0531
  911MOL0     C22870   0.119   6.024   0.006 -0.6205 -1.1026 -0.5533
  911MOL0     C22871   0.031   6.141  -0.026  0.8439 -0.7106  0.2967
  911MOL0     C22872  -0.122   6.114  -0.009  0.7178 -0.8507  1.1575
  911MOL0     C22873  -0.203   6.244  -0.028  0.0512  0.1435  0.2004
  911MOL0     O22874  -0.184   6.303  -0.158 -0.3068  0.6227 -0.5146
  911MOL0     C22875  -0.270   6.262  -0.264 -1.0776 -0.0716 -0.3660
  911MOL0     C22876  -0.369   6.159  -0.267 -0.3073  0.0338 -0.0255
  911MOL0     C22877  -0.430   6.111  -0.385 -0.4172 -0.1158 -0.2415
  911MOL0     C22878  -0.534   6.003  -0.372  0.2227  0.2184 -0.7085
  911MOL0     C22879  -0.400   6.178  -0.509  0.2307  0.8954 -0.0721
  911MOL0     C22880  -0.441   6.138  -0.650  0.0951 -0.7444 -0.9249
  911MOL0     O22881  -0.464   6.245  -0.732 -0.0116  0.8017  0.0488
  911MOL0     C22882  -0.505   6.219  -0.858 -0.2925  0.2502  0.6026
  911MOL0     C22883  -0.411   6.209  -0.962 -0.4307  0.2488  0.2964
  911MOL0     C22884  -0.451   6.208  -1.101 -0.1091 -0.2554 -0.1971
  911MOL0     C22885  -0.587   6.210  -1.130 -0.3611 -0.2017 -0.1856
  911MOL0     O22886  -0.631   6.195  -1.257 -0.0282 -0.5006  0.5576
  911MOL0     C22887  -0.542   6.157  -1.369  0.2022  0.2421  0.0962
  911MOL0     C22888  -0.625   6.176  -1.499 -0.3326 -1.6350  0.6899
  911MOL0     C22889  -0.728   6.066  -1.528 -0.7402  0.0497  0.4792
  911MOL0     C22890  -0.674   5.923  -1.562 -0.4717  0.1058 -0.6953
  911MOL0     C22891  -0.779   5.844  -1.630 -0.5904  0.1800 -0.4566
  911MOL0     C22892  -0.869   5.776  -1.534  0.0233 -0.4026  0.5815
  911MOL0     C22893  -0.975   5.682  -1.594 -0.1469 -0.3945  0.1604
  911MOL0     C22894  -1.061   5.753  -1.710  0.4487  0.8013 -0.6042
  911MOL0    Cl22895  -1.215   5.667  -1.728  0.3295 -0.4502 -0.0793
  911MOL0     C22896  -0.684   6.219  -1.028 -0.0467  0.8610  0.6108
  911MOL0     C22897  -0.642   6.209  -0.897 -0.3921 -0.5968  0.8097
  911MOL0     O22898  -0.467   6.022  -0.675 -0.2540 -0.4580  0.7171
  911MOL0     C22899  -0.304   6.284  -0.503  0.0133 -0.9114  0.1412
  911MOL0     C22900  -0.242   6.319  -0.386 -0.1287 -0.0050 -0.1169
  911MOL0     N22901   0.287   6.086   0.187 -0.0792 -0.9734 -0.1484
  911MOL0     N22902   0.410   6.132   0.200  0.4782  1.0038 -0.6304
  911MOL0     C22903   1.545   6.253   0.603  0.9501 -0.5628 -0.0708
  911MOL0     C22904   1.634   6.243   0.712  1.3809  0.5505  1.1802
  911MOL0     C22905   1.906   6.022   0.974  0.5882 -0.1142 -0.0219
  911MOL0     C22906   2.035   5.974   0.953  0.6326  0.2774  0.2001
  911MOL0     C22907   2.126   5.951   1.058 -0.3473  0.1556  0.2789
  911MOL0     C22908   2.093   5.979   1.183  0.1760  0.7678 -0.7060
  911MOL0     O22909   2.166   5.965   1.297 -0.7770  0.0711 -0.1241
  911MOL0     C22910   2.310   5.949   1.288  0.5309  0.0625  0.1065
  911MOL0     C22911   2.385   5.940   1.419  0.1727  0.7722 -0.7574
  911MOL0     C22912   2.532   5.981   1.398  0.3028  0.3899  0.5337
  911MOL0     C22913   2.554   6.125   1.455 -0.2098 -0.3097  0.9366
  911MOL0     C22914   2.496   6.225   1.360 -0.8124 -0.2044 -0.4565
  911MOL0     C22915   2.447   6.308   1.295 -0.0029 -0.0520  0.3048
  911MOL0     C22916   1.965   6.037   1.206 -0.6220  0.2577 -0.1158
  911MOL0     C22917   1.875   6.054   1.104 -0.8237  0.2053  0.0407
  911MOL0     H22918   1.481   5.966   0.856 -2.6438  1.2701  1.0283
  911MOL0     H22919   1.337   5.981   0.662 -1.6764  2.7917 -0.9022
  911MOL0     H22920   1.315   5.960   0.398  1.5166  1.2298 -2.6488
  911MOL0     H22921   1.193   6.061   0.486  0.5813 -0.1869 -0.2184
  911MOL0     H22922   1.255   6.231   0.291 -1.1180 -0.5419 -1.0710
  911MOL0     H22923   1.286   6.082   0.203  2.4661  2.7000 -0.6199
  911MOL0     H22924   1.057   6.001   0.270 -0.1186  0.2168  1.0100
  911MOL0     H22925   1.033   6.146   0.357  0.4153  2.0601 -1.4225
  911MOL0     H22926   1.101   6.270   0.124  0.1924 -0.3493 -3.5854
  911MOL0     H22927   1.057   6.109   0.055  0.4103  0.5498  0.0443
  911MOL0     H22928   0.841   6.119   0.173 -5.0438  2.4962 -0.9258
  911MOL0     H22929   0.884   6.288   0.227 -2.2583  0.5455 -1.2911
  911MOL0     H22930   0.849   6.365   0.000 -1.1648  0.0894  0.0264
  911MOL0     H22931   0.827   6.197  -0.054  0.9384 -1.3201  1.2795
  911MOL0     H22932   0.651   6.339   0.146 -0.2569  0.9630 -0.3425
  911MOL0     H22933   0.637   6.359  -0.026 -0.1390 -0.4131 -0.3503
  911MOL0     H22934   0.654   6.082   0.113 -1.9656  1.3996  2.9157
  911MOL0     H22935   0.621   6.109  -0.063 -0.9344 -1.5257  0.3363
  911MOL0     H22936   0.372   6.079  -0.125  0.7133  1.2839 -0.4168
  911MOL0     H22937   0.135   5.962  -0.083 -0.1028  1.1691 -2.1327
  911MOL0     H22938   0.057   5.978   0.083  1.6856  1.5182  3.2364
  911MOL0     H22939   0.042   6.183  -0.126  0.6487  0.7718  0.8834
  911MOL0     H22940   0.070   6.214   0.045  4.0300 -0.2623 -1.7481
  911MOL0     H22941  -0.145   6.076   0.091 -1.8991  3.9288  2.6810
  911MOL0     H22942  -0.163   6.038  -0.077 -0.1754  1.3074 -0.8354
  911MOL0     H22943  -0.170   6.321   0.043 -0.7856 -0.0148  0.7849
  911MOL0     H22944  -0.308   6.224  -0.004  0.5978 -0.6717  2.1051
  911MOL0     H22945  -0.392   6.116  -0.170 -3.5404 -1.3690 -1.2876
  911MOL0     H22946  -0.513   5.915  -0.433  2.2342 -0.3822  0.7435
  911MOL0     H22947  -0.532   5.968  -0.268  2.4453  1.6083 -0.1917
  911MOL0     H22948  -0.631   6.049  -0.393 -0.0408  1.0080  1.8651
  911MOL0     H22949  -0.305   6.204  -0.939 -0.4618  2.0794  0.9856
  911MOL0     H22950  -0.385   6.188  -1.185 -0.4170  1.0110 -0.7589
  911MOL0     H22951  -0.449   6.214  -1.377  0.4596  0.0550  1.5739
  911MOL0     H22952  -0.509   6.053  -1.359 -0.8905 -0.0864  0.3901
  911MOL0     H22953  -0.677   6.272  -1.500 -1.9593 -2.4446 -1.6770
  911MOL0     H22954  -0.563   6.181  -1.589 -4.6360  1.3782 -2.5953
  911MOL0     H22955  -0.770   6.105  -1.622 -0.7491 -2.5061 -0.6380
  911MOL0     H22956  -0.790   6.057  -1.439  0.7050 -1.6333  1.3781
  911MOL0     H22957  -0.591   5.932  -1.633  1.1314 -1.4826  0.8710
  911MOL0     H22958  -0.644   5.871  -1.470  2.6940  1.7466 -0.6625
  911MOL0     H22959  -0.719   5.765  -1.678  0.6890 -0.3992  1.9327
  911MOL0     H22960  -0.835   5.906  -1.700 -0.5014  0.5449 -0.2046
  911MOL0     H22961  -0.818   5.709  -1.464 -1.8064 -1.8182  0.6163
  911MOL0     H22962  -0.916   5.855  -1.474  1.7508  2.4285 -1.5136
  911MOL0     H22963  -1.044   5.666  -1.511  0.8187  0.8906  1.2682
  911MOL0     H22964  -0.931   5.587  -1.624  3.2087  1.6124 -1.9605
  911MOL0     H22965  -1.003   5.736  -1.802 -0.9866 -1.5333 -1.1670
  911MOL0     H22966  -1.082   5.859  -1.691  1.1345  0.3785  3.2191
  911MOL0     H22967  -0.790   6.211  -1.053  0.3749  0.5937 -1.2403
  911MOL0     H22968  -0.715   6.236  -0.822 -0.1502  1.9847  0.2086
  911MOL0     H22969  -0.277   6.331  -0.596 -0.6152  3.1834  1.7878
  911MOL0     H22970  -0.177   6.406  -0.390  0.6368 -0.5442  0.2125
  911MOL0     H22971   1.552   6.342   0.541 -2.3030 -0.4757 -0.4741
  911MOL0     H22972   1.714   6.313   0.734  3.1890 -0.9646 -0.2454
  911MOL0     H22973   2.068   5.951   0.852 -0.7935  0.8114 -0.4145
  911MOL0     H22974   2.212   5.890   1.033 -0.9303 -0.0367 -1.3786
  911MOL0     H22975   2.349   5.870   1.224  0.1558 -2.0349  2.3238
  911MOL0     H22976   2.341   6.038   1.232 -0.8000  0.2147 -0.4334
  911MOL0     H22977   2.364   5.841   1.459  1.9973  1.5355  2.3616
  911MOL0     H22978   2.343   6.007   1.495 -2.0310 -0.5198 -0.7302
  911MOL0     H22979   2.557   5.977   1.292 -0.9098  1.0990  0.2013
  911MOL0     H22980   2.600   5.910   1.447 -0.1854 -0.1995  0.3776
  911MOL0     H22981   2.663   6.137   1.451 -0.0336 -1.7471  0.6133
  911MOL0     H22982   2.518   6.144   1.556 -0.6692  0.6763  0.5960
  911MOL0     H22983   2.395   6.383   1.239 -3.0234 -1.7429  0.6202
  911MOL0     H22984   1.946   6.081   1.303  0.7439  2.2517 -0.6901
  911MOL0     H22985   1.782   6.096   1.141 -0.7972  1.4752 -1.2040
  912MOL0     O22986   9.080   6.644   7.539 -0.0764  0.3393  0.3518
  912MOL0     C22987   9.134   6.559   7.465  0.2549  0.9230  0.3364
  912MOL0     O22988   9.065   6.446   7.411 -0.9367 -0.6991 -0.3677
  912MOL0     C22989   8.929   6.438   7.442 -0.7273 -0.3056 -0.3980
  912MOL0     C22990   8.875   6.345   7.525  0.2552  0.7403 -0.8448
  912MOL0     C22991   8.739   6.347   7.551 -0.8624 -1.3468 -0.4482
  912MOL0     C22992   8.652   6.432   7.483  0.1081  0.4577  0.2082
  912MOL0     O22993   8.523   6.421   7.523  0.7777  0.1219 -0.1026
  912MOL0     C22994   8.428   6.445   7.426 -0.8151 -0.1228  0.1717
  912MOL0     C22995   8.443   6.364   7.300  0.0939 -0.7016  0.3170
  912MOL0     C22996   8.371   6.235   7.324 -0.2498  0.0533 -0.5194
  912MOL0     C22997   8.396   6.139   7.211 -0.3169  0.4710 -0.5917
  912MOL0     C22998   8.324   6.001   7.247  0.4647 -1.0463 -0.2678
  912MOL0     C22999   8.404   5.908   7.337 -0.2017  0.1829  0.3200
  912MOL0     C23000   8.313   5.790   7.375 -0.2057  0.2209  0.2863
  912MOL0     C23001   8.374   5.691   7.483 -0.0917  0.4949  0.0374
  912MOL0     N23002   8.302   5.567   7.509  1.2444 -0.5651 -0.6344
  912MOL0     C23003   8.264   5.455   7.429  0.5828 -0.0957  0.3633
  912MOL0     C23004   8.182   5.373   7.507  1.3461 -0.6263  0.3764
  912MOL0     C23005   8.104   5.254   7.453  0.3502 -0.5655  0.3842
  912MOL0     C23006   8.168   5.122   7.502 -0.6314  0.6582  0.4393
  912MOL0     C23007   8.101   4.999   7.443  0.0760 -0.0550 -0.8371
  912MOL0     C23008   7.948   4.979   7.475  0.5766  0.4768  0.0716
  912MOL0     O23009   7.875   5.046   7.375  0.0452 -0.2033  0.1361
  912MOL0     C23010   7.818   4.971   7.282 -0.7230  0.3830 -0.2006
  912MOL0     C23011   7.887   4.869   7.211 -0.3570  1.2846  0.5673
  912MOL0     C23012   7.821   4.782   7.121  0.1688 -0.4661  0.4817
  912MOL0     C23013   7.897   4.686   7.031 -0.3563  0.0245 -0.5819
  912MOL0     C23014   7.678   4.785   7.118  0.1197 -0.0393  0.0497
  912MOL0     C23015   7.596   4.702   7.027 -0.0997 -0.0052 -0.7448
  912MOL0     O23016   7.476   4.677   7.092  0.8950 -0.1997  0.9102
  912MOL0     C23017   7.368   4.621   7.032 -1.1362  0.6791  0.5632
  912MOL0     C23018   7.281   4.541   7.116 -0.4315 -0.2529 -0.6722
  912MOL0     C23019   7.158   4.507   7.061 -0.2727 -0.3017 -0.0495
  912MOL0     C23020   7.124   4.533   6.924 -0.5309  0.3382 -0.2263
  912MOL0     O23021   6.995   4.505   6.886 -0.3145 -0.3648  0.3734
  912MOL0     C23022   6.971   4.497   6.744 -0.0854  0.3419  0.2105
  912MOL0     C23023   6.827   4.453   6.742 -0.1555  0.2187  0.1536
  912MOL0     C23024   6.775   4.427   6.600 -0.8105  0.6504 -0.5034
  912MOL0     C23025   6.621   4.398   6.604  0.2565  1.0353 -0.6326
  912MOL0     C23026   6.561   4.348   6.468  0.0243  0.6945 -0.7197
  912MOL0     C23027   6.554   4.191   6.456 -0.5311 -0.1249 -0.3312
  912MOL0     C23028   6.470   4.122   6.564 -0.9061 -0.1672 -0.5858
  912MOL0     C23029   6.337   4.199   6.590 -0.1791 -0.5796 -0.6148
  912MOL0    Cl23030   6.252   4.225   6.435 -0.4797  0.0252  0.4882
  912MOL0     C23031   7.213   4.602   6.843  0.8593 -0.7353 -0.4723
  912MOL0     C23032   7.330   4.650   6.893  0.1770 -0.0222 -0.1410
  912MOL0     O23033   7.621   4.666   6.916 -1.2523 -0.0830  0.7214
  912MOL0     C23034   7.611   4.879   7.199  0.6684 -0.3962  0.0183
  912MOL0     C23035   7.682   4.976   7.266  0.8449  0.0712  0.0247
  912MOL0     N23036   8.166   5.431   7.627 -0.9500  0.4110  0.9156
  912MOL0     N23037   8.241   5.539   7.627  0.1295 -0.7292 -1.1123
  912MOL0     C23038   8.710   6.524   7.399  0.3872  0.5450  0.3831
  912MOL0     C23039   8.844   6.528   7.389  0.1750  1.1938  0.7930
  912MOL0     C23040   9.275   6.562   7.446  0.5240  0.0013 -0.1704
  912MOL0     C23041   9.365   6.650   7.511  0.2036  0.2905  0.2437
  912MOL0     C23042   9.504   6.640   7.486  0.3816 -0.5847  0.9632
  912MOL0     C23043   9.552   6.555   7.384 -0.3812 -0.3352 -1.3149
  912MOL0     O23044   9.680   6.559   7.345  0.3605  0.7471 -0.1571
  912MOL0     C23045   9.790   6.564   7.435 -0.1213  0.2885  0.4069
  912MOL0     C23046   9.925   6.574   7.354 -0.3133  0.1288  1.1300
  912MOL0     C23047   9.932   6.688   7.250 -0.2834  0.3328 -0.4067
  912MOL0     C23048  10.059   6.682   7.167 -0.0732 -0.0856  0.6519
  912MOL0     C23049  10.049   6.562   7.074 -0.4291 -0.0384 -0.2533
  912MOL0     C23050  10.052   6.479   6.990  0.0896 -0.0572 -0.8699
  912MOL0     C23051   9.468   6.463   7.322  0.0541  1.2196 -0.0902
  912MOL0     C23052   9.333   6.468   7.355  0.2576  0.8252 -0.0750
  912MOL0     H23053   8.933   6.268   7.576  1.4077  2.0655 -0.0818
  912MOL0     H23054   8.708   6.266   7.616  0.2429  0.0334  1.9602
  912MOL0     H23055   8.326   6.423   7.458 -2.7602  3.0058 -3.0700
  912MOL0     H23056   8.450   6.547   7.394  0.1982 -0.9634 -2.0002
  912MOL0     H23057   8.387   6.403   7.214  2.5769 -0.8760 -1.5022
  912MOL0     H23058   8.547   6.358   7.268  0.8290  1.6724  1.9697
  912MOL0     H23059   8.407   6.191   7.418 -1.8320  0.8208  0.4793
  912MOL0     H23060   8.264   6.254   7.330 -0.7875 -2.7793  0.7508
  912MOL0     H23061   8.348   6.173   7.119 -2.2959  1.0136  0.5820
  912MOL0     H23062   8.504   6.125   7.205 -0.3407 -0.8054  1.1294
  912MOL0     H23063   8.227   6.034   7.287  0.3502  2.3513 -2.9223
  912MOL0     H23064   8.308   5.954   7.150  1.6430 -3.5170  0.6333
  912MOL0     H23065   8.499   5.877   7.293  0.4186  1.4150  0.7457
  912MOL0     H23066   8.422   5.965   7.429 -0.8144 -1.3918  1.4692
  912MOL0     H23067   8.225   5.826   7.429  0.6895  1.8475  0.7206
  912MOL0     H23068   8.288   5.736   7.284  0.8967  1.9568 -1.1113
  912MOL0     H23069   8.387   5.750   7.574  1.9799  0.0074  0.0977
  912MOL0     H23070   8.472   5.667   7.441  0.6551 -1.0732  2.5017
  912MOL0     H23071   8.274   5.454   7.321 -0.3494  3.7118  0.0984
  912MOL0     H23072   7.999   5.261   7.483  0.3319  0.2715  0.1313
  912MOL0     H23073   8.106   5.244   7.344 -0.5699 -0.8470  0.3828
  912MOL0     H23074   8.168   5.120   7.611 -0.0584  0.8629  0.4487
  912MOL0     H23075   8.269   5.109   7.461 -0.8292  0.5330 -0.0125
  912MOL0     H23076   8.155   4.911   7.477 -1.3713 -1.2822 -1.5765
  912MOL0     H23077   8.114   5.000   7.334 -0.4007 -1.2684 -0.9229
  912MOL0     H23078   7.913   5.006   7.575 -1.3163 -0.4427 -0.2874
  912MOL0     H23079   7.925   4.872   7.464  1.1151  0.2613  1.0030
  912MOL0     H23080   7.993   4.855   7.232 -0.6497 -0.9231  0.8004
  912MOL0     H23081   7.858   4.666   6.930  2.0104 -1.7054 -1.2529
  912MOL0     H23082   7.995   4.735   7.019 -0.1386 -0.1818  0.3058
  912MOL0     H23083   7.919   4.596   7.089  3.0547  2.9850  3.3259
  912MOL0     H23084   7.307   4.509   7.217  2.9719 -0.0370 -1.3434
  912MOL0     H23085   7.091   4.447   7.122  1.5398  0.2484  2.6320
  912MOL0     H23086   6.983   4.593   6.693  0.0448  0.5232  0.5811
  912MOL0     H23087   7.039   4.426   6.695 -1.0258  1.1457 -2.4875
  912MOL0     H23088   6.811   4.357   6.790  3.5082 -0.9666 -0.7043
  912MOL0     H23089   6.762   4.528   6.788 -0.9974 -1.6643  2.2312
  912MOL0     H23090   6.828   4.343   6.552 -0.5228  0.5266  0.0267
  912MOL0     H23091   6.799   4.514   6.539 -1.3768  1.1408 -0.0314
  912MOL0     H23092   6.611   4.324   6.684  0.7941  1.1855 -0.4254
  912MOL0     H23093   6.572   4.490   6.637 -0.9370 -0.1463  1.0634
  912MOL0     H23094   6.621   4.389   6.386  1.9977 -0.4372  0.0869
  912MOL0     H23095   6.464   4.398   6.466 -0.5827 -0.1691  2.1209
  912MOL0     H23096   6.502   4.182   6.359 -2.5439 -2.8521  0.8708
  912MOL0     H23097   6.655   4.150   6.452 -0.6636 -0.4550 -0.3368
  912MOL0     H23098   6.533   4.103   6.651 -0.6447 -0.4536 -0.8343
  912MOL0     H23099   6.447   4.020   6.533 -0.6687 -0.2119 -0.6195
  912MOL0     H23100   6.348   4.291   6.647 -3.4011 -0.0522 -0.6246
  912MOL0     H23101   6.278   4.129   6.650  0.9992  1.4881  3.2876
  912MOL0     H23102   7.185   4.630   6.742  1.8397 -0.7984 -0.7698
  912MOL0     H23103   7.397   4.710   6.832 -0.4699  1.3057  0.4214
  912MOL0     H23104   7.505   4.879   7.223  0.2028  4.4794 -0.9885
  912MOL0     H23105   7.619   5.051   7.313 -0.9485  0.0441 -2.1359
  912MOL0     H23106   8.647   6.599   7.353  3.3868  1.7977 -2.0390
  912MOL0     H23107   8.893   6.606   7.331  1.7916 -0.3197  0.0251
  912MOL0     H23108   9.317   6.726   7.573 -2.2211 -1.2253  0.3582
  912MOL0     H23109   9.565   6.706   7.547  2.7165 -0.9623 -0.8046
  912MOL0     H23110   9.778   6.659   7.488 -0.8345  0.1919  0.4297
  912MOL0     H23111   9.803   6.483   7.508 -2.5180  1.0306  1.8017
  912MOL0     H23112   9.943   6.479   7.303 -1.0526  0.0904  0.9286
  912MOL0     H23113  10.007   6.593   7.424 -0.5541  4.3508  0.4805
  912MOL0     H23114   9.923   6.785   7.300 -2.0957  0.8187 -1.5859
  912MOL0     H23115   9.851   6.680   7.177 -0.1790  3.5763 -0.9979
  912MOL0     H23116  10.148   6.682   7.231  0.5351 -0.1785 -0.1680
  912MOL0     H23117  10.063   6.773   7.107 -1.3131  0.5640  1.5039
  912MOL0     H23118  10.036   6.401   6.918 -0.8059 -1.3005  0.6266
  912MOL0     H23119   9.500   6.392   7.247  0.7152  0.3775  0.9448
  912MOL0     H23120   9.272   6.393   7.306  3.1326 -0.4893 -1.9282
  913MOL0     O23121  11.344   8.846   7.334 -0.4381 -0.1723 -0.4192
  913MOL0     C23122  11.322   8.806   7.217  0.6395  0.6570  0.2909
  913MOL0     O23123  11.203   8.805   7.159  0.7213 -0.6073  0.0555
  913MOL0     C23124  11.091   8.858   7.220  0.1514 -0.0747 -0.1912
  913MOL0     C23125  11.087   8.992   7.250 -1.1183  0.1071 -0.4143
  913MOL0     C23126  10.970   9.062   7.287  1.0868  0.7020  0.2156
  913MOL0     C23127  10.850   8.990   7.290  0.4236  1.2042  0.4384
  913MOL0     O23128  10.723   9.034   7.307  0.5310 -0.7668 -0.2108
  913MOL0     C23129  10.688   9.164   7.357 -0.3239 -0.1433  0.1363
  913MOL0     C23130  10.543   9.172   7.354  0.7035 -0.6006 -0.5548
  913MOL0     C23131  10.487   9.312   7.403 -0.0481 -0.0081 -0.7095
  913MOL0     C23132  10.501   9.323   7.560  0.0579 -1.2573  0.1335
  913MOL0     C23133  10.388   9.245   7.642 -1.0334  0.1373 -0.1931
  913MOL0     C23134  10.421   9.243   7.793 -0.2574 -0.0926 -0.6334
  913MOL0     C23135  10.358   9.132   7.872 -1.0155 -1.1966 -0.1771
  913MOL0     C23136  10.200   9.123   7.855 -0.2165 -0.0023 -0.4171
  913MOL0     N23137  10.131   9.026   7.945 -0.1883  0.5303  1.0096
  913MOL0     C23138  10.117   8.899   7.906 -0.9307  0.2771  0.1922
  913MOL0     C23139  10.060   8.852   8.012  0.4296  0.0917 -0.2156
  913MOL0     C23140  10.014   8.716   8.026  0.1654  0.7422  0.5663
  913MOL0     C23141   9.881   8.679   8.093 -1.2582  0.0820  0.0095
  913MOL0     C23142   9.871   8.698   8.244  0.4328  0.0929  0.3935
  913MOL0     C23143   9.976   8.644   8.331  0.0165  0.4264 -0.2282
  913MOL0     O23144   9.962   8.501   8.335  1.0709 -0.2658 -0.2767
  913MOL0     C23145  10.073   8.433   8.364 -0.0311 -0.6602 -0.5346
  913MOL0     C23146  10.141   8.351   8.271  0.3819 -0.3644 -0.3790
  913MOL0     C23147  10.266   8.294   8.306  0.0279 -0.0076 -0.4609
  913MOL0     C23148  10.329   8.211   8.185 -1.2287  0.7974 -0.3577
  913MOL0     C23149  10.323   8.323   8.436 -0.3002 -0.1266 -0.0611
  913MOL0     C23150  10.444   8.263   8.489 -0.9274  0.4510 -0.3412
  913MOL0     O23151  10.483   8.153   8.420  0.6979 -0.8745  0.4982
  913MOL0     C23152  10.593   8.080   8.458 -0.0582  1.1049 -0.6707
  913MOL0     C23153  10.691   8.057   8.350  0.3857 -0.1394  0.0974
  913MOL0     C23154  10.797   7.972   8.386  0.3015 -0.3453 -0.5996
  913MOL0     C23155  10.801   7.910   8.518  0.0177  0.0612 -0.4546
  913MOL0     O23156  10.904   7.825   8.531 -0.2248  0.4205 -0.5541
  913MOL0     C23157  10.970   7.824   8.659  0.7100 -0.1723 -0.0880
  913MOL0     C23158  11.106   7.760   8.623  0.9964  0.5321  0.6240
  913MOL0     C23159  11.188   7.745   8.747  0.0698  0.2708 -0.2524
  913MOL0     C23160  11.329   7.712   8.730  0.0452 -0.0753 -0.0252
  913MOL0     C23161  11.340   7.563   8.701  0.3456 -0.4918  0.3655
  913MOL0     C23162  11.485   7.526   8.671  0.4300 -0.7123 -0.5893
  913MOL0     C23163  11.509   7.376   8.656  0.5361  0.7796  0.2451
  913MOL0     C23164  11.612   7.353   8.554 -0.1253 -0.1676 -0.4220
  913MOL0    Cl23165  11.769   7.442   8.583  0.1867  0.5643 -0.0973
  913MOL0     C23166  10.717   7.941   8.618  0.2081 -0.4985  0.3401
  913MOL0     C23167  10.609   8.011   8.581  0.3761 -0.2201 -0.2574
  913MOL0     O23168  10.500   8.308   8.588 -0.1310  0.0192 -0.5676
  913MOL0     C23169  10.244   8.392   8.531  0.1598  0.9683  0.3682
  913MOL0     C23170  10.130   8.456   8.489  0.5182  0.5151  0.6883
  913MOL0     N23171  10.069   8.941   8.115  0.1243  0.8100  0.2795
  913MOL0     N23172  10.110   9.053   8.070 -0.5327 -0.8283 -0.1149
  913MOL0     C23173  10.849   8.848   7.259 -0.6144  0.2651  0.0418
  913MOL0     C23174  10.970   8.785   7.209  1.5266  0.5269 -0.2396
  913MOL0     C23175  11.436   8.748   7.137  0.8680 -0.3593 -0.0535
  913MOL0     C23176  11.426   8.712   6.999  0.6312 -0.3076 -0.1730
  913MOL0     C23177  11.535   8.666   6.923  0.0023 -1.3127  0.5347
  913MOL0     C23178  11.659   8.677   6.974 -0.4583 -0.9231 -0.1185
  913MOL0     O23179  11.784   8.654   6.912  0.7247 -0.2140 -0.4625
  913MOL0     C23180  11.797   8.677   6.778 -0.2671 -0.5270  0.7952
  913MOL0     C23181  11.915   8.587   6.724 -0.3372  0.6679 -0.1870
  913MOL0     C23182  12.043   8.582   6.822  0.6971  0.3658 -0.3993
  913MOL0     C23183  12.172   8.548   6.742  0.0859 -0.6433  0.2962
  913MOL0     C23184  12.221   8.673   6.670 -0.4963  0.4781 -0.7112
  913MOL0     C23185  12.249   8.781   6.638  0.6387 -0.2650  0.3697
  913MOL0     C23186  11.676   8.696   7.111  0.0317  0.6558  0.2193
  913MOL0     C23187  11.560   8.732   7.189 -0.0165  0.2341  0.3033
  913MOL0     H23188  11.182   9.043   7.263 -1.8746  0.7832  4.7570
  913MOL0     H23189  10.980   9.166   7.318  0.2726  1.2123 -1.1223
  913MOL0     H23190  10.732   9.186   7.455  0.8977  2.1695 -0.8266
  913MOL0     H23191  10.730   9.239   7.289 -0.6154 -1.8228 -2.0168
  913MOL0     H23192  10.510   9.149   7.253 -0.1168 -0.9140 -0.2220
  913MOL0     H23193  10.506   9.091   7.417  0.2218 -0.3906 -0.5691
  913MOL0     H23194  10.540   9.390   7.347 -0.2937 -0.4754 -1.6152
  913MOL0     H23195  10.379   9.325   7.389 -0.1385  1.8366  1.2588
  913MOL0     H23196  10.601   9.292   7.589 -0.2000 -0.0675  2.5218
  913MOL0     H23197  10.478   9.425   7.592 -1.1996 -1.7240  0.8043
  913MOL0     H23198  10.288   9.287   7.626 -1.0693 -0.0972 -0.6042
  913MOL0     H23199  10.402   9.139   7.616  4.2565  0.5650 -0.2164
  913MOL0     H23200  10.528   9.233   7.812  0.9860  1.0776 -5.6287
  913MOL0     H23201  10.386   9.335   7.841 -1.5061 -2.4596  3.4076
  913MOL0     H23202  10.419   9.046   7.842 -2.0239 -1.1187 -2.7624
  913MOL0     H23203  10.378   9.160   7.976 -1.1969  3.3343 -1.1166
  913MOL0     H23204  10.168   9.099   7.753 -1.4426 -0.4638  0.0581
  913MOL0     H23205  10.156   9.219   7.882 -1.5359 -0.7200  0.0561
  913MOL0     H23206  10.115   8.848   7.811  0.2526  2.5919 -1.1605
  913MOL0     H23207  10.014   8.660   7.932 -3.1651  0.9375  0.3217
  913MOL0     H23208  10.083   8.664   8.092  0.6647 -1.0736 -1.2841
  913MOL0     H23209   9.855   8.573   8.090 -0.9712 -0.0161  0.7660
  913MOL0     H23210   9.803   8.739   8.045 -1.6699 -1.3231 -1.1307
  913MOL0     H23211   9.775   8.652   8.269 -0.5487  2.7915  2.1562
  913MOL0     H23212   9.862   8.803   8.274 -0.3536  0.0915  0.1813
  913MOL0     H23213   9.960   8.691   8.428 -3.0443  0.8950 -0.8664
  913MOL0     H23214  10.080   8.670   8.306  0.4428 -1.5541 -0.6747
  913MOL0     H23215  10.103   8.353   8.169 -3.6829  0.7385  0.9754
  913MOL0     H23216  10.281   8.226   8.087  2.3438  3.5458 -1.9315
  913MOL0     H23217  10.433   8.240   8.171 -0.1795 -2.4626  0.0120
  913MOL0     H23218  10.315   8.106   8.209 -5.3252  0.9555 -1.2357
  913MOL0     H23219  10.690   8.093   8.247  0.0120 -1.4232 -0.3618
  913MOL0     H23220  10.875   7.953   8.313 -1.4212  0.4176 -2.7358
  913MOL0     H23221  10.980   7.927   8.695 -1.9580  0.0986  0.0743
  913MOL0     H23222  10.919   7.767   8.737 -0.9492  1.3033 -0.0100
  913MOL0     H23223  11.084   7.663   8.577  5.1372  0.2659 -1.1853
  913MOL0     H23224  11.164   7.814   8.548 -0.1677  0.9084 -0.0264
  913MOL0     H23225  11.141   7.669   8.810 -0.1566  0.0775 -0.6549
  913MOL0     H23226  11.195   7.841   8.800  0.1016  0.6393 -0.9160
  913MOL0     H23227  11.364   7.772   8.645 -1.6029  1.4834  0.3366
  913MOL0     H23228  11.386   7.738   8.819 -1.5699 -0.6929  1.2536
  913MOL0     H23229  11.280   7.521   8.620  2.2102 -3.0541  0.1689
  913MOL0     H23230  11.314   7.508   8.792  1.1124 -1.6685 -0.0995
  913MOL0     H23231  11.519   7.579   8.582  0.6135  1.2746  0.5935
  913MOL0     H23232  11.547   7.550   8.758  0.6261 -2.3436 -0.2485
  913MOL0     H23233  11.419   7.325   8.620  1.4413  0.4861 -1.7659
  913MOL0     H23234  11.535   7.333   8.753 -0.6930 -3.4195 -1.0819
  913MOL0     H23235  11.569   7.369   8.455  0.1392  1.9157 -0.2602
  913MOL0     H23236  11.640   7.248   8.545  5.0894  1.0083 -1.4332
  913MOL0     H23237  10.726   7.901   8.719  0.1079 -1.5916 -0.0695
  913MOL0     H23238  10.549   8.018   8.671  5.6789 -2.5531  4.0512
  913MOL0     H23239  10.271   8.394   8.636 -0.5270 -0.0747  0.5842
  913MOL0     H23240  10.070   8.515   8.557 -0.5381 -0.2855  0.4586
  913MOL0     H23241  10.761   8.785   7.250  0.8148 -1.5629 -2.1446
  913MOL0     H23242  10.952   8.683   7.176  3.7378 -0.2325  0.6914
  913MOL0     H23243  11.326   8.715   6.955 -0.0594  0.2658  1.3692
  913MOL0     H23244  11.520   8.630   6.821  5.4593 -0.6607 -0.8209
  913MOL0     H23245  11.704   8.649   6.728  0.4173  0.1041 -0.8952
  913MOL0     H23246  11.808   8.784   6.758 -1.3925 -0.5058  0.2300
  913MOL0     H23247  11.932   8.618   6.621 -1.0388 -0.5535 -0.6818
  913MOL0     H23248  11.873   8.487   6.729  0.4236  0.3874  1.1779
  913MOL0     H23249  12.014   8.505   6.894  1.1364  0.8272  0.2874
  913MOL0     H23250  12.049   8.668   6.890 -1.8546 -0.3846  0.9051
  913MOL0     H23251  12.161   8.450   6.696  0.2097 -1.1013  1.2202
  913MOL0     H23252  12.249   8.538   6.820  1.4841 -1.8571 -1.1643
  913MOL0     H23253  12.255   8.884   6.608  0.1589 -0.3569 -0.0670
  913MOL0     H23254  11.773   8.694   7.161 -0.5824  2.7641  1.6348
  913MOL0     H23255  11.574   8.745   7.295 -1.8589  0.7848  0.5127
  914MOL0     O23256   4.147  10.281   7.696  0.7328  0.4762  0.9810
  914MOL0     C23257   4.249  10.336   7.730  0.1253  0.2533  0.1344
  914MOL0     O23258   4.346  10.395   7.651  0.1450 -1.0344  0.7672
  914MOL0     C23259   4.338  10.386   7.516  0.4001 -0.1224  0.8269
  914MOL0     C23260   4.364  10.499   7.437  0.4498  0.9309  0.2972
  914MOL0     C23261   4.363  10.486   7.294  0.1825  0.1438 -0.7254
  914MOL0     C23262   4.353  10.356   7.240  0.6901 -0.2448 -0.1977
  914MOL0     O23263   4.357  10.336   7.109  0.7170  0.6247 -0.1905
  914MOL0     C23264   4.453  10.411   7.034  0.1250  0.3808  0.2802
  914MOL0     C23265   4.508  10.329   6.912  0.1594  0.0214 -0.2069
  914MOL0     C23266   4.422  10.345   6.788 -0.4842  0.2649 -0.1456
  914MOL0     C23267   4.452  10.234   6.673  0.5183  0.5451 -0.0830
  914MOL0     C23268   4.370  10.280   6.553  0.4008 -0.0958  0.4642
  914MOL0     C23269   4.362  10.171   6.450  0.4353  0.0644  0.3173
  914MOL0     C23270   4.498  10.095   6.424 -0.2181 -0.5236  1.1289
  914MOL0     C23271   4.598  10.197   6.359  0.5757 -0.3259  0.2234
  914MOL0     N23272   4.710  10.141   6.289  0.2775  0.2310 -0.5462
  914MOL0     C23273   4.798  10.057   6.347 -0.9809  0.5017 -0.1103
  914MOL0     C23274   4.864   9.997   6.245  1.0765 -0.0766 -0.7442
  914MOL0     C23275   4.957   9.892   6.256  0.1579  0.3159  0.1126
  914MOL0     C23276   5.101   9.931   6.314 -0.7881 -0.8115  0.5717
  914MOL0     C23277   5.184  10.005   6.203 -0.1581  0.5357 -1.1250
  914MOL0     C23278   5.335  10.011   6.243  0.3325  0.3021  0.0166
  914MOL0     O23279   5.366  10.147   6.293 -0.3781 -0.3558 -0.0897
  914MOL0     C23280   5.441  10.163   6.402 -0.7330  0.7513 -0.2136
  914MOL0     C23281   5.472  10.063   6.495 -0.4019  0.2606 -0.4931
  914MOL0     C23282   5.558  10.097   6.606  0.2332  0.6176  0.1446
  914MOL0     C23283   5.588   9.970   6.691  0.4158  0.2359  1.0778
  914MOL0     C23284   5.617  10.221   6.618 -0.3389  0.4914 -0.3895
  914MOL0     C23285   5.711  10.259   6.726 -0.1545  0.0583  0.0665
  914MOL0     O23286   5.716  10.386   6.758  0.0457  0.1015  0.6080
  914MOL0     C23287   5.799  10.432   6.859  0.9501 -0.9395 -0.0916
  914MOL0     C23288   5.932  10.459   6.844 -0.5612 -0.3273  0.9402
  914MOL0     C23289   6.010  10.512   6.944  0.4168 -0.0120 -1.4943
  914MOL0     C23290   5.945  10.541   7.070 -0.5621  0.2164 -0.3026
  914MOL0     O23291   6.003  10.591   7.181  0.0935  0.5209  0.5175
  914MOL0     C23292   6.098  10.697   7.156  0.2264 -0.7814 -0.1247
  914MOL0     C23293   6.099  10.802   7.268  0.0609  0.0107 -0.8006
  914MOL0     C23294   6.096  10.950   7.230  0.5770  0.1441  0.3241
  914MOL0     C23295   6.208  10.988   7.136  0.0027  0.3728 -0.0208
  914MOL0     C23296   6.344  10.942   7.187  0.1667  0.0285  0.1806
  914MOL0     C23297   6.451  11.019   7.117 -0.7578  0.2468  0.6709
  914MOL0     C23298   6.443  10.983   6.963 -0.6387 -0.2284  0.2147
  914MOL0     C23299   6.570  11.037   6.894  0.7701 -0.3942  0.3729
  914MOL0    Cl23300   6.581  10.955   6.738  0.0137 -0.0282  0.0001
  914MOL0     C23301   5.812  10.505   7.084 -0.6804 -0.0865  0.1551
  914MOL0     C23302   5.744  10.433   6.984 -0.1252 -0.0932 -0.3012
  914MOL0     O23303   5.783  10.174   6.768 -0.6676 -0.0007  0.0454
  914MOL0     C23304   5.588  10.309   6.519 -0.0949  0.2165 -1.2431
  914MOL0     C23305   5.507  10.288   6.415 -0.5516  0.4973 -0.6526
  914MOL0     N23306   4.809  10.048   6.123 -0.1313  0.8940  0.3655
  914MOL0     N23307   4.713  10.126   6.155 -0.7541 -0.2550  0.1492
  914MOL0     C23308   4.337  10.245   7.319 -0.2027 -0.6440 -0.6285
  914MOL0     C23309   4.317  10.258   7.450  0.3104  0.4738  0.1133
  914MOL0     C23310   4.256  10.350   7.877  0.6894  0.6903  0.3271
  914MOL0     C23311   4.140  10.334   7.954 -0.8289  0.2379  0.3641
  914MOL0     C23312   4.142  10.343   8.097 -0.1827 -0.0831  0.2595
  914MOL0     C23313   4.263  10.354   8.166 -0.0459 -0.1391 -0.1319
  914MOL0     O23314   4.279  10.375   8.306  0.0890 -0.2255  0.5121
  914MOL0     C23315   4.170  10.383   8.392 -0.0761 -0.4431  0.4780
  914MOL0     C23316   4.216  10.395   8.538  1.1665 -0.4240  0.4807
  914MOL0     C23317   4.317  10.288   8.575 -0.6141 -0.8611  0.8682
  914MOL0     C23318   4.331  10.287   8.729 -0.6016  0.8437  0.2022
  914MOL0     C23319   4.429  10.386   8.776  0.1168 -0.4782 -0.0877
  914MOL0     C23320   4.511  10.469   8.819 -0.3785  0.0152  0.2796
  914MOL0     C23321   4.378  10.370   8.087 -0.5688 -0.3912 -0.3417
  914MOL0     C23322   4.373  10.357   7.943 -0.5557  0.2760  0.0170
  914MOL0     H23323   4.384  10.598   7.478  0.9156  0.8340  0.3109
  914MOL0     H23324   4.382  10.565   7.221  1.8124  1.9496  1.5257
  914MOL0     H23325   4.402  10.501   7.000 -1.8303 -0.6663  0.3023
  914MOL0     H23326   4.539  10.421   7.101  2.2949  0.2677 -2.3523
  914MOL0     H23327   4.607  10.367   6.887  0.5397  0.6039  1.9346
  914MOL0     H23328   4.529  10.226   6.941  1.5395  0.5630  0.8127
  914MOL0     H23329   4.321  10.342   6.829 -0.5096  1.0599 -0.1432
  914MOL0     H23330   4.435  10.445   6.746  2.7872 -0.0296 -0.0753
  914MOL0     H23331   4.559  10.225   6.655  0.6317  1.0321  0.3157
  914MOL0     H23332   4.423  10.133   6.703  0.2488  0.8172  0.6059
  914MOL0     H23333   4.268  10.311   6.577 -0.6222 -2.2650 -0.8130
  914MOL0     H23334   4.425  10.365   6.512  0.4626  0.8559  2.4151
  914MOL0     H23335   4.290  10.094   6.479  1.3958 -0.0054  2.7346
  914MOL0     H23336   4.333  10.220   6.357  0.6680  2.0508  1.2425
  914MOL0     H23337   4.543  10.040   6.507  2.1101  0.0069  0.2782
  914MOL0     H23338   4.469  10.024   6.346  0.9028 -0.5841  0.7608
  914MOL0     H23339   4.624  10.264   6.442 -1.4266  1.4438 -0.5114
  914MOL0     H23340   4.548  10.266   6.291  1.7323  2.5569  2.0838
  914MOL0     H23341   4.806  10.045   6.454  0.8012  0.5740 -0.2003
  914MOL0     H23342   4.914   9.820   6.327 -1.4176  2.4387  1.4251
  914MOL0     H23343   4.964   9.857   6.153 -2.1160 -3.0302  0.9217
  914MOL0     H23344   5.154   9.840   6.344 -0.9417 -1.8255 -1.9286
  914MOL0     H23345   5.094   9.992   6.404 -0.0014 -1.7237  1.2632
  914MOL0     H23346   5.145  10.107   6.195 -0.3272  0.6608  0.7991
  914MOL0     H23347   5.180   9.954   6.106  0.7668 -0.3423 -0.7136
  914MOL0     H23348   5.382   9.991   6.147 -0.2468 -0.2497 -0.1573
  914MOL0     H23349   5.353   9.924   6.307 -1.3601 -0.3610 -0.3589
  914MOL0     H23350   5.432   9.963   6.486 -0.0833 -0.0903  1.4794
  914MOL0     H23351   5.533   9.882   6.657  1.9270 -0.7700  1.1407
  914MOL0     H23352   5.692   9.941   6.675  0.2439  0.5311 -0.7590
  914MOL0     H23353   5.558   9.988   6.795 -0.4892 -1.6883  1.1887
  914MOL0     H23354   5.985  10.443   6.751 -2.7147  0.6350 -0.5233
  914MOL0     H23355   6.117  10.525   6.934  1.0024 -2.3187  0.7194
  914MOL0     H23356   6.199  10.657   7.150  0.4999 -0.1947  0.4334
  914MOL0     H23357   6.078  10.754   7.064  1.0143  0.7711  0.6169
  914MOL0     H23358   6.017  10.789   7.340  0.4329 -0.1442 -0.3981
  914MOL0     H23359   6.193  10.803   7.324  1.7345  3.1452 -3.3895
  914MOL0     H23360   6.099  11.015   7.318  1.1872  1.0408 -0.3487
  914MOL0     H23361   6.003  10.975   7.179  0.8333  2.2970  0.8071
  914MOL0     H23362   6.187  10.948   7.036 -0.2898  1.5161 -0.4356
  914MOL0     H23363   6.219  11.097   7.144  0.1142  0.2041  4.5112
  914MOL0     H23364   6.352  10.834   7.171  0.6250 -0.0015  0.5814
  914MOL0     H23365   6.364  10.961   7.293  0.5743 -0.8773  0.2824
  914MOL0     H23366   6.430  11.126   7.131 -4.2286  0.2574 -2.8778
  914MOL0     H23367   6.550  10.992   7.156  0.7362  1.6106 -1.8847
  914MOL0     H23368   6.354  11.012   6.907  1.9352  0.2384 -4.1037
  914MOL0     H23369   6.434  10.877   6.937 -1.5083  0.4754 -2.7490
  914MOL0     H23370   6.662  11.031   6.953  1.8357  0.8837 -1.0853
  914MOL0     H23371   6.546  11.141   6.873 -1.3366 -1.0272 -0.6032
  914MOL0     H23372   5.771  10.527   7.182  0.0809  2.1638  0.0098
  914MOL0     H23373   5.646  10.400   7.018 -1.3805  3.2154 -0.3565
  914MOL0     H23374   5.627  10.410   6.526 -0.8411  0.4410  0.0270
  914MOL0     H23375   5.505  10.362   6.335  1.2154 -0.3273 -1.5306
  914MOL0     H23376   4.341  10.157   7.254 -1.6742  0.3553 -2.1801
  914MOL0     H23377   4.291  10.173   7.513 -0.4032 -0.1491 -0.9854
  914MOL0     H23378   4.038  10.317   7.923 -1.8017  1.8490  2.4426
  914MOL0     H23379   4.055  10.341   8.161 -0.4374  3.4523  0.2109
  914MOL0     H23380   4.103  10.467   8.368 -0.9523 -0.8126  1.5379
  914MOL0     H23381   4.107  10.296   8.372 -0.3922 -0.4836  1.6287
  914MOL0     H23382   4.126  10.383   8.600  0.8633 -3.4932 -0.3740
  914MOL0     H23383   4.252  10.497   8.553 -1.1650  0.5102  0.0981
  914MOL0     H23384   4.418  10.314   8.540  0.2514 -1.6297  2.6454
  914MOL0     H23385   4.282  10.192   8.536  0.0886  0.3597 -3.1898
  914MOL0     H23386   4.382  10.192   8.751  1.7389  2.0012  0.0701
  914MOL0     H23387   4.230  10.304   8.766 -1.1467  1.2191 -1.3720
  914MOL0     H23388   4.569  10.542   8.871 -1.0401 -0.2379  1.3972
  914MOL0     H23389   4.473  10.396   8.132 -2.2055  3.0389  1.5342
  914MOL0     H23390   4.469  10.353   7.893  0.5523  2.5157  1.7717
  915MOL0     O23391   2.001   4.971   6.421  0.2286 -0.0225  0.8534
  915MOL0     C23392   2.100   4.927   6.362  0.1065  0.3437  0.3296
  915MOL0     O23393   2.229   4.988   6.344 -0.3089 -0.4354  0.1219
  915MOL0     C23394   2.286   5.076   6.428 -0.6207  0.3907 -0.9287
  915MOL0     C23395   2.201   5.181   6.470 -0.8016 -0.5124 -0.3889
  915MOL0     C23396   2.249   5.288   6.541  0.7341 -0.0405 -1.0925
  915MOL0     C23397   2.387   5.299   6.564  0.8805  0.2599 -0.4664
  915MOL0     O23398   2.457   5.396   6.636 -0.9300  0.3244 -0.8153
  915MOL0     C23399   2.392   5.472   6.727  0.2281 -0.0096  0.4336
  915MOL0     C23400   2.485   5.561   6.810  0.1211  0.4294  0.5857
  915MOL0     C23401   2.562   5.480   6.915 -0.6951 -0.1253  0.4808
  915MOL0     C23402   2.565   5.572   7.045 -0.4054  0.6288  0.0627
  915MOL0     C23403   2.649   5.516   7.163 -1.0180  0.2532 -0.2189
  915MOL0     C23404   2.781   5.452   7.127  0.7983 -0.0590 -0.6898
  915MOL0     C23405   2.884   5.544   7.058  0.2689  0.0197  0.9421
  915MOL0     C23406   2.958   5.638   7.149 -0.8309 -0.3549 -0.7703
  915MOL0     N23407   3.064   5.707   7.076  0.6262 -0.1422 -0.2181
  915MOL0     C23408   3.042   5.841   7.049  0.0763  0.0378  0.5067
  915MOL0     C23409   3.153   5.873   6.994  0.7606 -1.3129  0.0588
  915MOL0     C23410   3.183   6.020   6.938  0.1912  1.1292  0.2740
  915MOL0     C23411   3.049   6.084   6.886  0.1175 -0.1305  0.3605
  915MOL0     C23412   3.066   6.226   6.826  0.4433 -0.0842  0.1818
  915MOL0     C23413   3.134   6.313   6.927  0.0312 -0.2007  0.1687
  915MOL0     O23414   3.051   6.315   7.042  0.5607 -0.5727 -0.6640
  915MOL0     C23415   3.074   6.398   7.144 -0.7389 -0.4617 -0.5514
  915MOL0     C23416   2.975   6.407   7.235  0.5533  0.6041 -0.3913
  915MOL0     C23417   2.993   6.490   7.346 -0.9655 -0.1670 -0.6974
  915MOL0     C23418   2.882   6.495   7.443 -0.5686  0.4286  0.5169
  915MOL0     C23419   3.103   6.583   7.359  0.0681 -0.5714 -0.0911
  915MOL0     C23420   3.108   6.679   7.471 -1.3673  0.1592  0.0221
  915MOL0     O23421   3.148   6.801   7.437  0.4381 -0.0819 -0.7447
  915MOL0     C23422   3.160   6.895   7.544 -0.5800  0.4267 -0.5176
  915MOL0     C23423   3.279   6.971   7.541 -0.3207  0.0616  0.2772
  915MOL0     C23424   3.308   7.064   7.641  0.2365 -0.0768 -0.3152
  915MOL0     C23425   3.209   7.091   7.738 -0.3573 -0.0529 -0.2635
  915MOL0     O23426   3.208   7.190   7.831 -0.0844  0.1811 -0.4306
  915MOL0     C23427   3.342   7.258   7.835  0.2372 -0.2881 -0.3942
  915MOL0     C23428   3.341   7.385   7.928  0.0999  0.5472 -0.5399
  915MOL0     C23429   3.243   7.494   7.896 -0.4928  0.5132  0.1405
  915MOL0     C23430   3.293   7.588   7.780  0.6172 -0.1306 -0.9352
  915MOL0     C23431   3.183   7.674   7.706 -0.1839  0.7437  0.2688
  915MOL0     C23432   3.229   7.724   7.569  0.0593  0.0918 -0.5855
  915MOL0     C23433   3.365   7.795   7.577  0.4785 -0.6189 -0.1868
  915MOL0     C23434   3.396   7.859   7.445 -0.1071 -0.0986  0.3160
  915MOL0    Cl23435   3.481   7.737   7.348 -0.0925  0.4359 -0.0728
  915MOL0     C23436   3.089   7.021   7.737  0.1685 -0.4561  0.4484
  915MOL0     C23437   3.067   6.917   7.644  0.2488  0.5596 -1.3023
  915MOL0     O23438   3.088   6.637   7.585 -0.4128 -0.6841  0.0060
  915MOL0     C23439   3.203   6.582   7.258  0.0602 -0.3623 -0.5396
  915MOL0     C23440   3.191   6.485   7.158 -0.5925 -0.1163 -0.3393
  915MOL0     N23441   3.242   5.782   7.005 -0.1084  0.2159  0.3607
  915MOL0     N23442   3.188   5.667   7.054 -0.8053 -1.1537  0.7938
  915MOL0     C23443   2.473   5.194   6.530 -0.1204 -0.1336  0.6168
  915MOL0     C23444   2.427   5.086   6.458  0.6054  0.2759  0.1456
  915MOL0     C23445   2.082   4.795   6.299 -0.7497  0.2834  0.1887
  915MOL0     C23446   2.196   4.705   6.283 -0.4770  0.5654  0.0225
  915MOL0     C23447   2.179   4.583   6.236  1.2846  0.9804  0.8057
  915MOL0     C23448   2.050   4.529   6.200 -1.0462 -0.5614  0.1101
  915MOL0     O23449   2.032   4.401   6.151 -0.0682 -0.2436  0.5045
  915MOL0     C23450   2.150   4.330   6.119  0.5474  1.0084  0.3162
  915MOL0     C23451   2.133   4.184   6.066  0.8010  0.2552  0.2412
  915MOL0     C23452   2.057   4.169   5.921  0.0464  0.4291 -0.1248
  915MOL0     C23453   2.084   4.027   5.864  0.6765  0.3762  0.0622
  915MOL0     C23454   1.975   4.001   5.772 -0.3505  0.6829 -0.1281
  915MOL0     C23455   1.899   3.976   5.679 -0.4245 -0.4257 -0.5570
  915MOL0     C23456   1.943   4.614   6.225  0.1424  0.3311 -0.3566
  915MOL0     C23457   1.957   4.748   6.263  0.4009 -0.9415  0.4435
  915MOL0     H23458   2.094   5.182   6.450 -0.7539 -2.1664 -0.9070
  915MOL0     H23459   2.185   5.369   6.576  2.7118  2.0679 -2.1279
  915MOL0     H23460   2.325   5.535   6.667  0.7166 -1.3815 -1.6238
  915MOL0     H23461   2.321   5.420   6.792 -2.4349  2.5528 -0.1842
  915MOL0     H23462   2.551   5.619   6.745 -0.4564  1.5478  0.9779
  915MOL0     H23463   2.417   5.635   6.852 -1.9188 -0.0521 -1.6486
  915MOL0     H23464   2.503   5.390   6.933  0.8737 -1.7023 -1.6491
  915MOL0     H23465   2.659   5.447   6.876 -1.6768 -2.5246 -0.0623
  915MOL0     H23466   2.632   5.651   7.010  2.9231 -1.4313  1.2942
  915MOL0     H23467   2.464   5.609   7.066 -1.2980 -0.7051 -1.6290
  915MOL0     H23468   2.675   5.601   7.226 -0.8871 -1.3509  2.0007
  915MOL0     H23469   2.583   5.447   7.218  0.2810 -0.1029  0.9575
  915MOL0     H23470   2.819   5.410   7.220 -1.5761  2.0068  1.3464
  915MOL0     H23471   2.768   5.372   7.053  0.7288  0.2347 -0.9962
  915MOL0     H23472   2.958   5.475   7.016 -3.0156 -1.9202 -2.1522
  915MOL0     H23473   2.832   5.594   6.976 -0.3847  0.0986  1.3954
  915MOL0     H23474   2.995   5.579   7.233  2.9642  0.8839 -1.3794
  915MOL0     H23475   2.884   5.708   7.190 -1.2647 -0.5035 -1.2833
  915MOL0     H23476   2.956   5.903   7.072  0.4439 -0.1958  2.7549
  915MOL0     H23477   3.215   6.086   7.018  2.1641  2.6185 -1.6318
  915MOL0     H23478   3.252   6.015   6.853  0.3492  0.1283  0.4489
  915MOL0     H23479   2.971   6.081   6.962  0.5842 -4.2136  0.9513
  915MOL0     H23480   3.006   6.026   6.803 -2.5131  2.0542  0.0797
  915MOL0     H23481   2.963   6.259   6.811  0.4254  1.0120  2.4270
  915MOL0     H23482   3.122   6.230   6.731  0.4487  1.1755  0.2233
  915MOL0     H23483   3.130   6.412   6.881 -0.1147 -0.4916 -0.4626
  915MOL0     H23484   3.240   6.291   6.944 -0.5112 -0.6972  3.4083
  915MOL0     H23485   2.882   6.351   7.241  0.0333  1.1001 -2.7036
  915MOL0     H23486   2.857   6.595   7.479 -1.5270  1.4790 -2.7414
  915MOL0     H23487   2.785   6.457   7.410 -0.6708 -0.5355  1.8260
  915MOL0     H23488   2.910   6.437   7.532 -0.5597 -0.7356 -0.2351
  915MOL0     H23489   3.354   6.951   7.465 -0.6331  1.0698 -0.3096
  915MOL0     H23490   3.401   7.119   7.627  0.0807  0.1128 -0.6066
  915MOL0     H23491   3.412   7.186   7.877  0.8457 -0.4735 -1.6965
  915MOL0     H23492   3.374   7.286   7.734  0.2229  1.9495  0.1676
  915MOL0     H23493   3.315   7.346   8.027 -1.1258 -1.0960 -1.4619
  915MOL0     H23494   3.441   7.429   7.933  0.1975  0.4191 -1.2526
  915MOL0     H23495   3.205   7.557   7.977  1.1024  3.1977 -1.0503
  915MOL0     H23496   3.152   7.449   7.853 -1.0063  1.8393 -0.2143
  915MOL0     H23497   3.361   7.652   7.838 -0.0315 -1.3136  1.2232
  915MOL0     H23498   3.349   7.531   7.705  0.1564 -0.1419 -1.2757
  915MOL0     H23499   3.160   7.760   7.770  2.2939  1.9723 -0.3578
  915MOL0     H23500   3.093   7.613   7.702  1.5607 -1.9370 -1.7312
  915MOL0     H23501   3.222   7.644   7.496 -0.8772 -1.9055  1.5743
  915MOL0     H23502   3.155   7.795   7.531 -0.2237  0.1369  0.0237
  915MOL0     H23503   3.447   7.732   7.613  2.3403  0.7430 -1.7596
  915MOL0     H23504   3.353   7.882   7.643 -4.7564  2.1073 -4.0085
  915MOL0     H23505   3.465   7.944   7.454 -0.5964  0.6204 -1.8931
  915MOL0     H23506   3.311   7.895   7.385  0.1865 -0.0130 -0.0504
  915MOL0     H23507   3.011   7.039   7.811  0.8701  0.5498  0.9610
  915MOL0     H23508   2.972   6.866   7.659  0.7236  0.0062  0.0409
  915MOL0     H23509   3.279   6.660   7.251 -0.4772  0.3752  1.2347
  915MOL0     H23510   3.268   6.472   7.082 -1.1736 -0.9382 -0.8162
  915MOL0     H23511   2.581   5.203   6.532 -0.2089  0.9420  1.3263
  915MOL0     H23512   2.499   5.011   6.425  0.5147  0.5875 -0.8092
  915MOL0     H23513   2.297   4.740   6.300 -0.0932  2.1132 -4.2436
  915MOL0     H23514   2.269   4.526   6.217  0.3798  0.1923 -1.4036
  915MOL0     H23515   2.219   4.380   6.050  1.9634 -1.8222 -0.4600
  915MOL0     H23516   2.191   4.322   6.220 -0.5527 -1.9629  0.6046
  915MOL0     H23517   2.087   4.123   6.144  2.0477 -0.4759  0.4337
  915MOL0     H23518   2.236   4.152   6.050  0.3528 -1.4010  0.4846
  915MOL0     H23519   2.086   4.249   5.852 -1.4549  1.0153 -0.1179
  915MOL0     H23520   1.953   4.188   5.947 -1.0339 -3.5583 -0.9251
  915MOL0     H23521   2.100   3.941   5.930  1.8398 -2.0485 -3.0923
  915MOL0     H23522   2.179   4.023   5.810  2.0751 -3.0313  2.3985
  915MOL0     H23523   1.840   3.962   5.591  1.2417  0.8994 -1.9557
  915MOL0     H23524   1.841   4.582   6.207  0.2767 -1.2399  1.4588
  915MOL0     H23525   1.878   4.823   6.269  0.4552 -0.8275 -0.2416
  916MOL0     O23526   2.676   5.472   5.000  0.0806  0.7100 -0.3359
  916MOL0     C23527   2.691   5.499   4.881 -0.5047  0.3543 -0.6679
  916MOL0     O23528   2.805   5.548   4.830  0.1752  0.0032  0.5487
  916MOL0     C23529   2.913   5.603   4.890 -0.4268  0.7350  0.9550
  916MOL0     C23530   2.977   5.543   4.991  0.2972 -0.8617 -1.2843
  916MOL0     C23531   3.090   5.599   5.053 -0.6165  0.3156 -0.4794
  916MOL0     C23532   3.129   5.727   5.012 -0.1246  1.0651 -0.3083
  916MOL0     O23533   3.241   5.789   5.062  0.3862  0.1765 -0.1635
  916MOL0     C23534   3.251   5.781   5.198 -0.5713  0.6817 -0.9673
  916MOL0     C23535   3.355   5.866   5.271 -0.8231 -0.1534 -0.5798
  916MOL0     C23536   3.326   6.011   5.308  0.2211 -0.8406 -0.7601
  916MOL0     C23537   3.242   6.012   5.438 -0.3148  0.5166  1.1338
  916MOL0     C23538   3.198   6.160   5.472  0.1366 -0.7278  0.9540
  916MOL0     C23539   3.048   6.187   5.432 -0.3599 -0.5042  0.6266
  916MOL0     C23540   3.009   6.340   5.432 -0.4206  0.6625  0.0245
  916MOL0     C23541   2.864   6.367   5.394 -0.0333  0.0003  0.5833
  916MOL0     N23542   2.851   6.410   5.251 -0.0039 -0.8966 -0.0620
  916MOL0     C23543   2.907   6.354   5.140 -1.0759  0.5913 -0.3694
  916MOL0     C23544   2.895   6.457   5.046 -1.0129 -0.2537  0.1353
  916MOL0     C23545   2.941   6.454   4.904  0.9713 -0.2052 -0.0412
  916MOL0     C23546   3.099   6.435   4.906  0.0339 -0.0556 -0.7551
  916MOL0     C23547   3.161   6.457   4.762  0.1336 -0.1830 -0.5921
  916MOL0     C23548   3.076   6.406   4.638 -0.3476 -0.0108 -0.0217
  916MOL0     O23549   3.093   6.265   4.640  0.0015  0.2553 -0.1932
  916MOL0     C23550   3.032   6.187   4.542  0.4074  1.0745  0.4633
  916MOL0     C23551   2.984   6.055   4.570 -0.3754  0.4234  0.5222
  916MOL0     C23552   2.929   5.982   4.459 -0.2192 -0.2966 -0.0663
  916MOL0     C23553   2.886   5.843   4.486 -0.7875  0.3581 -0.0883
  916MOL0     C23554   2.913   6.040   4.330 -0.4422  0.5733 -0.7741
  916MOL0     C23555   2.854   5.962   4.218 -0.7864  0.2693  0.2836
  916MOL0     O23556   2.902   5.837   4.186 -0.5224  0.5427 -0.0065
  916MOL0     C23557   2.852   5.766   4.076  0.4204  0.1541 -0.1364
  916MOL0     C23558   2.765   5.656   4.091 -0.2515 -0.3717 -0.8127
  916MOL0     C23559   2.731   5.569   3.988  0.1973 -0.5137  0.4981
  916MOL0     C23560   2.791   5.588   3.861  0.5232 -0.4180 -0.9421
  916MOL0     O23561   2.738   5.513   3.761 -0.1170  0.0162 -0.3595
  916MOL0     C23562   2.830   5.450   3.670  0.5960  0.5620  0.0927
  916MOL0     C23563   2.766   5.429   3.531  0.1690 -0.6136  0.1969
  916MOL0     C23564   2.861   5.372   3.433 -0.1102 -0.7969 -0.4134
  916MOL0     C23565   2.794   5.352   3.295 -0.7452  0.4102  0.1200
  916MOL0     C23566   2.886   5.276   3.199  0.1605  0.7538  0.8923
  916MOL0     C23567   2.808   5.241   3.074 -0.2246 -0.4280  1.5064
  916MOL0     C23568   2.895   5.157   2.980  0.2629  0.5133 -0.1109
  916MOL0     C23569   2.795   5.070   2.889 -0.5821 -0.8528  0.9122
  916MOL0    Cl23570   2.673   5.172   2.821  0.2675 -0.0951 -0.1108
  916MOL0     C23571   2.880   5.691   3.850  0.3578 -0.6860  0.5144
  916MOL0     C23572   2.923   5.770   3.948 -0.0422 -1.0498 -0.2786
  916MOL0     O23573   2.766   6.022   4.162  0.1196 -0.2453 -0.3896
  916MOL0     C23574   2.945   6.175   4.312 -0.2884 -0.7113 -0.5053
  916MOL0     C23575   3.011   6.245   4.415 -0.0980  0.2789 -0.5548
  916MOL0     N23576   2.842   6.569   5.097  0.9863  0.4053 -0.6185
  916MOL0     N23577   2.797   6.532   5.219  0.1062 -0.7107 -0.1187
  916MOL0     C23578   3.056   5.796   4.917  0.6564 -0.3453  0.8998
  916MOL0     C23579   2.945   5.733   4.855 -0.6444  0.6738 -0.3363
  916MOL0     C23580   2.577   5.481   4.795  0.3937  0.6564  0.1302
  916MOL0     C23581   2.587   5.478   4.653 -0.0789  0.2183  0.1075
  916MOL0     C23582   2.472   5.471   4.573  0.4994 -0.2199 -0.1352
  916MOL0     C23583   2.345   5.448   4.626 -0.2660  0.5540 -0.1911
  916MOL0     O23584   2.249   5.444   4.526 -0.4541 -0.4131  0.1821
  916MOL0     C23585   2.106   5.431   4.551  0.2616  0.5662  0.0171
  916MOL0     C23586   2.048   5.300   4.496 -0.0023 -0.3216  0.5161
  916MOL0     C23587   2.054   5.281   4.346 -0.8308 -0.4476  0.3042
  916MOL0     C23588   1.991   5.156   4.279  0.0406  0.2883 -0.0992
  916MOL0     C23589   2.061   5.026   4.328 -0.1077  0.4547 -0.0373
  916MOL0     C23590   2.119   4.923   4.360 -0.2899 -0.3726  0.1354
  916MOL0     C23591   2.329   5.441   4.765 -0.0804  0.0746 -0.5460
  916MOL0     C23592   2.443   5.458   4.848  0.1614 -0.8171 -0.0020
  916MOL0     H23593   2.943   5.446   5.027 -2.5759  0.5158 -0.0197
  916MOL0     H23594   3.145   5.544   5.129  2.1449  1.6963 -1.3433
  916MOL0     H23595   3.152   5.799   5.242 -0.6839 -2.0203  0.0743
  916MOL0     H23596   3.285   5.678   5.208  0.5541  0.7608 -3.3330
  916MOL0     H23597   3.390   5.816   5.361  0.2601  2.4604  0.5482
  916MOL0     H23598   3.445   5.867   5.209  0.0716 -0.6508  0.6856
  916MOL0     H23599   3.409   6.081   5.322 -1.0765  1.6009 -3.9373
  916MOL0     H23600   3.268   6.056   5.227  0.0682  0.0943 -0.1531
  916MOL0     H23601   3.156   5.945   5.433 -1.7581  2.3858 -0.6354
  916MOL0     H23602   3.307   5.990   5.523  0.5553  4.0289  1.5304
  916MOL0     H23603   3.198   6.179   5.579 -0.5779  0.4316  0.7718
  916MOL0     H23604   3.274   6.221   5.421 -0.7813 -2.3004 -2.5871
  916MOL0     H23605   3.029   6.156   5.329  1.1301  2.5211 -0.6941
  916MOL0     H23606   2.994   6.132   5.510 -0.1520 -1.2760  0.2362
  916MOL0     H23607   3.043   6.379   5.528 -1.6297 -0.7208  1.0679
  916MOL0     H23608   3.070   6.391   5.357 -1.8909 -0.2772 -1.9100
  916MOL0     H23609   2.820   6.445   5.457  2.7119  0.7264  1.7418
  916MOL0     H23610   2.810   6.273   5.404  0.7316 -0.4221  0.8138
  916MOL0     H23611   2.957   6.259   5.125 -1.8540 -0.0507  0.9329
  916MOL0     H23612   2.897   6.377   4.840  2.3396 -0.3803 -0.7986
  916MOL0     H23613   2.926   6.550   4.854  0.6567 -0.7440 -1.0118
  916MOL0     H23614   3.133   6.336   4.937  0.4424 -0.9765 -3.7928
  916MOL0     H23615   3.137   6.510   4.975 -1.5738  2.1001 -2.0796
  916MOL0     H23616   3.260   6.410   4.761  0.9496  1.4070  0.5937
  916MOL0     H23617   3.172   6.565   4.747  0.4461 -0.3564 -1.7139
  916MOL0     H23618   3.114   6.448   4.545  0.4344  0.3869  0.4652
  916MOL0     H23619   2.977   6.451   4.642  0.4834  1.8912 -0.0731
  916MOL0     H23620   3.006   6.009   4.666  2.2758  2.1496  0.8499
  916MOL0     H23621   2.857   5.778   4.403  2.7630 -1.1941 -0.2844
  916MOL0     H23622   2.969   5.789   4.532  2.4277  4.2012 -0.8536
  916MOL0     H23623   2.801   5.843   4.555 -0.1619  0.0429  0.6977
  916MOL0     H23624   2.722   5.628   4.186  0.6948  3.5424  0.9473
  916MOL0     H23625   2.662   5.486   3.999  0.7782 -1.3301 -1.5259
  916MOL0     H23626   2.909   5.524   3.677 -0.8736  2.0324  2.2497
  916MOL0     H23627   2.847   5.349   3.710 -2.2774  0.8885  2.5485
  916MOL0     H23628   2.668   5.382   3.543 -0.2776 -0.3485 -2.0159
  916MOL0     H23629   2.734   5.528   3.497 -2.6368 -1.8642 -1.1096
  916MOL0     H23630   2.892   5.277   3.477 -1.2815 -1.2084 -0.4443
  916MOL0     H23631   2.950   5.434   3.424 -0.9801  1.0486  2.4111
  916MOL0     H23632   2.693   5.312   3.295 -1.3839  1.9637 -0.1060
  916MOL0     H23633   2.774   5.457   3.271 -1.6938  0.8337  2.4388
  916MOL0     H23634   2.909   5.184   3.253  2.6645  1.0545  0.4259
  916MOL0     H23635   2.983   5.317   3.169 -1.0814  1.8978 -1.9561
  916MOL0     H23636   2.729   5.167   3.091 -0.0964 -2.0450 -3.3346
  916MOL0     H23637   2.761   5.330   3.032  2.2928  1.0723  1.6597
  916MOL0     H23638   2.958   5.082   3.028 -2.1050 -1.4671  0.0747
  916MOL0     H23639   2.947   5.229   2.915  1.9729 -0.6573 -0.1091
  916MOL0     H23640   2.745   5.004   2.959 -1.2802  0.0131  1.2523
  916MOL0     H23641   2.849   5.011   2.814  1.0393  0.4371  1.0034
  916MOL0     H23642   2.915   5.713   3.749 -0.8413 -0.2135  0.1838
  916MOL0     H23643   2.989   5.852   3.920  3.8489 -2.5529  3.4381
  916MOL0     H23644   2.914   6.217   4.216 -0.8342  0.9257  0.3634
  916MOL0     H23645   3.031   6.351   4.400  2.1263 -0.1580 -1.0100
  916MOL0     H23646   3.087   5.889   4.872 -1.2679  1.1259  2.4600
  916MOL0     H23647   2.879   5.778   4.782 -0.0677  0.4350 -1.0143
  916MOL0     H23648   2.687   5.482   4.611 -0.5731  3.4263 -1.0495
  916MOL0     H23649   2.490   5.478   4.466  1.2268  0.6179  0.0342
  916MOL0     H23650   2.079   5.434   4.657 -3.1583 -3.8771 -0.4037
  916MOL0     H23651   2.052   5.518   4.512 -1.2875  0.0910  0.9782
  916MOL0     H23652   1.943   5.297   4.525 -0.1884  2.7936  0.5104
  916MOL0     H23653   2.096   5.219   4.551 -2.6015 -3.1573 -1.1009
  916MOL0     H23654   2.158   5.296   4.316 -1.0513  4.0790  1.1832
  916MOL0     H23655   2.014   5.363   4.287  2.6477  0.1467 -1.4837
  916MOL0     H23656   2.010   5.180   4.174  1.6595  2.3311  0.5983
  916MOL0     H23657   1.884   5.155   4.303 -0.1273 -2.3439 -0.6050
  916MOL0     H23658   2.161   4.825   4.372 -1.5226 -1.2597 -2.1851
  916MOL0     H23659   2.230   5.445   4.810 -0.2273  0.6902 -0.9153
  916MOL0     H23660   2.426   5.471   4.954 -1.3315 -1.8677 -0.0816
  917MOL0     O23661   5.876  10.953   9.634 -0.0962 -0.7193  0.3187
  917MOL0     C23662   5.956  10.936   9.539  0.1135 -0.2642  0.0714
  917MOL0     O23663   6.060  11.011   9.512  0.6408 -0.3701 -0.0803
  917MOL0     C23664   6.081  11.126   9.575  0.0012 -0.5665 -0.1145
  917MOL0     C23665   6.186  11.123   9.676  0.1553 -0.5719 -0.0588
  917MOL0     C23666   6.212  11.245   9.744 -0.2812  0.7128 -0.0269
  917MOL0     C23667   6.133  11.356   9.731 -0.9499  0.0791 -0.2952
  917MOL0     O23668   6.183  11.460   9.804  0.0788  0.3338 -0.2755
  917MOL0     C23669   6.134  11.593   9.781  0.3781  0.3100  0.1235
  917MOL0     C23670   6.188  11.689   9.889  0.2570 -0.3808  0.2660
  917MOL0     C23671   6.338  11.701   9.883 -0.0858  0.3537 -0.6858
  917MOL0     C23672   6.390  11.814   9.974  0.1971 -0.2690 -0.7354
  917MOL0     C23673   6.514  11.880   9.919 -0.7218 -0.0260 -0.1164
  917MOL0     C23674   6.632  11.800   9.860 -0.2365  0.6504  0.1482
  917MOL0     C23675   6.740  11.904   9.816 -0.1194 -0.4244 -0.2993
  917MOL0     C23676   6.873  11.851   9.767  0.7074 -0.1424  0.9465
  917MOL0     N23677   6.869  11.826   9.623 -0.5158  0.0494  0.6096
  917MOL0     C23678   6.806  11.717   9.566  0.0541 -0.1241 -0.2828
  917MOL0     C23679   6.774  11.753   9.439  0.4646  1.2382 -0.0206
  917MOL0     C23680   6.695  11.671   9.336  0.0303  0.0755 -0.0944
  917MOL0     C23681   6.547  11.690   9.354 -0.7523  0.1118  0.0843
  917MOL0     C23682   6.483  11.612   9.482 -0.2542 -0.1147 -0.9406
  917MOL0     C23683   6.494  11.461   9.479  0.1186  0.7889 -0.5377
  917MOL0     O23684   6.630  11.417   9.513 -0.1402  0.0010 -0.2488
  917MOL0     C23685   6.660  11.281   9.517 -0.6674 -0.8750  0.5593
  917MOL0     C23686   6.571  11.178   9.512  0.1015 -0.1905  0.4099
  917MOL0     C23687   6.614  11.049   9.494  0.2651 -0.1809  1.8321
  917MOL0     C23688   6.502  10.951   9.457 -0.5030  0.0412  0.2874
  917MOL0     C23689   6.748  11.009   9.496  0.4288 -0.2764 -0.2855
  917MOL0     C23690   6.785  10.875   9.462 -1.3090 -0.1948 -0.4108
  917MOL0     O23691   6.712  10.772   9.508 -0.1623  0.6182 -0.8658
  917MOL0     C23692   6.761  10.648   9.470  0.0917  0.2304  0.2556
  917MOL0     C23693   6.666  10.564   9.411  0.5229 -0.1996  0.0233
  917MOL0     C23694   6.689  10.428   9.369  0.8698  0.2703  0.2305
  917MOL0     C23695   6.827  10.391   9.363  0.3400 -0.1425  0.7058
  917MOL0     O23696   6.852  10.263   9.315  0.4271 -0.4511 -1.0390
  917MOL0     C23697   6.958  10.260   9.217 -0.2827  0.2051  0.1336
  917MOL0     C23698   6.946  10.125   9.140  0.2601 -0.2641  0.1039
  917MOL0     C23699   7.077  10.109   9.061  0.0829  0.5905 -0.4437
  917MOL0     C23700   7.067  10.174   8.929  0.5218 -0.2553  0.4950
  917MOL0     C23701   7.184  10.134   8.848 -0.5912  0.0169  0.4716
  917MOL0     C23702   7.198  10.205   8.719 -0.3401 -0.6254 -0.2925
  917MOL0     C23703   7.072  10.197   8.635  0.2770  0.6635  0.1094
  917MOL0     C23704   7.025  10.050   8.605 -0.4298 -0.0460 -0.0482
  917MOL0    Cl23705   6.880  10.073   8.485 -0.1383  0.0331 -0.6952
  917MOL0     C23706   6.922  10.481   9.402 -0.7029  0.2554  0.2740
  917MOL0     C23707   6.898  10.609   9.461 -0.2608  0.3992 -0.0574
  917MOL0     O23708   6.863  10.861   9.370 -0.1157 -0.0834 -0.0436
  917MOL0     C23709   6.842  11.113   9.508  0.3602  1.1408  0.0889
  917MOL0     C23710   6.791  11.245   9.525 -0.5543 -0.1679  0.5824
  917MOL0     N23711   6.817  11.885   9.420  0.3070  0.5134  0.6845
  917MOL0     N23712   6.862  11.923   9.530 -0.1883 -0.2175 -0.4265
  917MOL0     C23713   6.030  11.355   9.646 -0.3575  0.0079  0.0909
  917MOL0     C23714   5.999  11.237   9.565  0.4754 -0.1170  0.0151
  917MOL0     C23715   5.943  10.812   9.468 -0.1450 -0.5270 -0.6894
  917MOL0     C23716   6.012  10.786   9.346 -1.0437  0.2077 -0.2798
  917MOL0     C23717   5.996  10.670   9.278  0.8090 -0.2150 -0.4482
  917MOL0     C23718   5.908  10.570   9.325 -0.1733 -0.1524  0.8315
  917MOL0     O23719   5.902  10.459   9.247  0.0693  0.8924 -0.5385
  917MOL0     C23720   5.787  10.384   9.262 -0.6655 -0.7987 -0.0646
  917MOL0     C23721   5.742  10.346   9.114  0.2792  0.0787  0.1802
  917MOL0     C23722   5.727  10.453   9.013  0.0217 -0.2542 -0.0017
  917MOL0     C23723   5.683  10.389   8.876 -0.7227 -1.1441 -0.3861
  917MOL0     C23724   5.548  10.339   8.878 -0.4132 -0.1246 -0.0372
  917MOL0     C23725   5.435  10.292   8.892  0.6328 -0.0468 -0.4842
  917MOL0     C23726   5.836  10.598   9.435 -0.2926 -0.5413 -1.0179
  917MOL0     C23727   5.850  10.716   9.506 -0.2229  0.1539  0.1814
  917MOL0     H23728   6.256  11.039   9.683  1.9125  0.9152  1.1735
  917MOL0     H23729   6.296  11.235   9.812 -0.9525  1.7593  0.9838
  917MOL0     H23730   6.156  11.622   9.678 -2.4583 -0.2246 -0.7121
  917MOL0     H23731   6.025  11.590   9.788  0.4380  0.3738  1.2735
  917MOL0     H23732   6.147  11.788   9.867  0.1492 -0.6268 -0.6635
  917MOL0     H23733   6.145  11.658   9.985  2.4729  0.6026  1.6643
  917MOL0     H23734   6.379  11.606   9.917 -0.0440  0.0311 -1.6015
  917MOL0     H23735   6.377  11.702   9.781 -0.3165  1.4425 -0.7758
  917MOL0     H23736   6.310  11.888   9.983  0.3729 -0.1503 -0.0893
  917MOL0     H23737   6.415  11.767  10.070 -0.5553 -0.6160 -0.7011
  917MOL0     H23738   6.472  11.949   9.845 -0.3571  2.9846  2.3140
  917MOL0     H23739   6.555  11.941   9.999 -1.8294 -2.2240  2.2721
  917MOL0     H23740   6.675  11.724   9.925 -0.5435 -2.0177 -2.5872
  917MOL0     H23741   6.595  11.745   9.773 -0.7238 -2.0491  1.9377
  917MOL0     H23742   6.695  11.982   9.754 -0.3787 -0.7141 -0.4756
  917MOL0     H23743   6.772  11.959   9.905  1.9582  1.9138 -2.3389
  917MOL0     H23744   6.891  11.760   9.823  1.7035 -1.2979 -1.1254
  917MOL0     H23745   6.954  11.920   9.793  0.6589  1.4499 -2.4960
  917MOL0     H23746   6.787  11.625   9.622  0.1007  1.2287  2.0670
  917MOL0     H23747   6.730  11.710   9.240  0.8313 -1.6403 -0.5386
  917MOL0     H23748   6.716  11.564   9.338  1.5042  0.3608  0.7007
  917MOL0     H23749   6.493  11.656   9.265  0.0503  0.6968 -0.6429
  917MOL0     H23750   6.526  11.798   9.356 -2.5208 -0.1486 -1.3308
  917MOL0     H23751   6.375  11.626   9.489 -0.5033 -1.9793 -0.5140
  917MOL0     H23752   6.525  11.658   9.573  1.6904  1.2189 -2.4313
  917MOL0     H23753   6.466  11.423   9.380  1.6230 -1.5732 -0.1435
  917MOL0     H23754   6.417  11.421   9.545 -1.2634  3.8407 -0.1564
  917MOL0     H23755   6.464  11.189   9.512  0.2418  1.3500  0.9106
  917MOL0     H23756   6.407  11.002   9.441 -0.3854 -0.3625 -2.0822
  917MOL0     H23757   6.524  10.885   9.373 -2.3503 -0.0425 -0.1839
  917MOL0     H23758   6.475  10.886   9.541  1.7869  2.4658  3.1392
  917MOL0     H23759   6.564  10.601   9.401  1.3583  2.5070  0.7797
  917MOL0     H23760   6.613  10.355   9.347  0.3226  1.5010 -2.4436
  917MOL0     H23761   6.947  10.347   9.151 -0.9901  0.0430  0.0358
  917MOL0     H23762   7.055  10.275   9.265 -0.5001 -0.8494  0.9276
  917MOL0     H23763   6.920  10.046   9.210 -0.2844 -1.0408 -0.9434
  917MOL0     H23764   6.855  10.131   9.079 -0.6175 -3.6552  0.8817
  917MOL0     H23765   7.091  10.002   9.046 -0.0949  0.4804  0.1465
  917MOL0     H23766   7.166  10.140   9.116  1.0381  1.2337 -2.2651
  917MOL0     H23767   6.980  10.130   8.879  1.0375 -3.5653  2.2314
  917MOL0     H23768   7.060  10.283   8.942 -1.0437 -0.3126  0.3244
  917MOL0     H23769   7.171  10.027   8.830 -1.3408 -0.1270  1.6874
  917MOL0     H23770   7.280  10.151   8.899  1.0480 -2.2788 -1.6678
  917MOL0     H23771   7.215  10.309   8.746 -0.4055 -1.6668  4.6109
  917MOL0     H23772   7.290  10.166   8.675  2.5501  0.0500  4.5296
  917MOL0     H23773   7.084  10.259   8.545 -3.1923  2.3192  0.6108
  917MOL0     H23774   6.992  10.254   8.682  0.7692  2.6107 -1.2850
  917MOL0     H23775   7.002   9.991   8.694  2.0612 -0.8820  0.1055
  917MOL0     H23776   7.106  10.009   8.543  0.6330  1.7406  0.1050
  917MOL0     H23777   7.026  10.449   9.398 -0.0923  1.8950 -5.3289
  917MOL0     H23778   6.987  10.658   9.499  0.4782 -0.0326 -1.1723
  917MOL0     H23779   6.949  11.096   9.499  0.0294  0.3545 -3.6191
  917MOL0     H23780   6.871  11.318   9.525  0.1967 -0.9629 -0.2158
  917MOL0     H23781   5.964  11.440   9.630 -0.3617 -0.0343 -0.1239
  917MOL0     H23782   5.928  11.251   9.484  2.2009 -0.0267 -1.5365
  917MOL0     H23783   6.078  10.867   9.314 -0.5702 -0.1145 -0.1194
  917MOL0     H23784   6.055  10.640   9.192  1.0280 -1.9624  0.2880
  917MOL0     H23785   5.801  10.291   9.318  1.0589 -1.6020 -1.7458
  917MOL0     H23786   5.705  10.439   9.310 -0.6857  1.5853 -2.5988
  917MOL0     H23787   5.644  10.299   9.127  0.5216 -0.3436  0.5407
  917MOL0     H23788   5.816  10.274   9.079  1.6857  2.3572 -1.7999
  917MOL0     H23789   5.821  10.509   9.009 -0.7227  1.0346  0.2187
  917MOL0     H23790   5.657  10.529   9.049 -1.0083 -1.0778 -0.2079
  917MOL0     H23791   5.762  10.316   8.855 -0.1098 -1.0594  1.4615
  917MOL0     H23792   5.695  10.465   8.799  0.5285 -2.0544 -1.1414
  917MOL0     H23793   5.348  10.246   8.932  2.6746  0.8573  6.2836
  917MOL0     H23794   5.764  10.526   9.473  2.5444 -2.5740  0.9221
  917MOL0     H23795   5.786  10.736   9.591  1.7605 -1.1065  2.0720
  918MOL0     O23796  10.316  10.635   6.160  0.6564 -0.3801 -0.4009
  918MOL0     C23797  10.370  10.617   6.270  0.6570 -0.1994 -0.2129
  918MOL0     O23798  10.439  10.708   6.345  0.1237  0.0732  0.5512
  918MOL0     C23799  10.462  10.840   6.302  0.5573 -0.5573  0.2227
  918MOL0     C23800  10.365  10.917   6.225  0.0760 -0.7249  0.2027
  918MOL0     C23801  10.400  11.049   6.191 -0.1593 -0.7544  0.1012
  918MOL0     C23802  10.514  11.106   6.241 -0.0892 -0.1716  1.0407
  918MOL0     O23803  10.534  11.233   6.208  0.2019  0.4827  0.8036
  918MOL0     C23804  10.583  11.326   6.306 -0.0914 -0.7468 -0.3229
  918MOL0     C23805  10.468  11.357   6.407 -0.0667  0.6905  0.2567
  918MOL0     C23806  10.338  11.386   6.329  0.2030 -0.3001 -0.2869
  918MOL0     C23807  10.244  11.449   6.429  0.3415  0.0178 -0.6647
  918MOL0     C23808  10.123  11.505   6.352 -0.4619  0.6284  0.5251
  918MOL0     C23809  10.022  11.586   6.429  0.6219 -0.4451 -0.1461
  918MOL0     C23810   9.908  11.640   6.342 -0.0959  0.2514  1.4857
  918MOL0     C23811   9.833  11.747   6.423  0.2036  0.6663  0.1470
  918MOL0     N23812   9.725  11.813   6.362  0.1813 -0.1236  0.4755
  918MOL0     C23813   9.652  11.785   6.249 -0.8849  0.3114  1.2843
  918MOL0     C23814   9.542  11.863   6.251 -1.2066  0.5693  0.2510
  918MOL0     C23815   9.424  11.843   6.166 -0.5099 -0.1089  0.6323
  918MOL0     C23816   9.336  11.963   6.160  0.5516  0.2478 -0.0116
  918MOL0     C23817   9.254  11.962   6.298  0.4039 -0.5643  0.2916
  918MOL0     C23818   9.131  12.052   6.276 -0.4106 -0.0295 -0.6360
  918MOL0     O23819   9.070  12.056   6.399 -0.3687  0.6937 -0.1755
  918MOL0     C23820   8.965  12.141   6.415 -0.4384  1.1670 -0.0346
  918MOL0     C23821   8.949  12.270   6.358 -0.2416  0.4028  0.1514
  918MOL0     C23822   8.825  12.326   6.349  0.1350 -0.8796 -0.2755
  918MOL0     C23823   8.821  12.470   6.285  0.4446  0.9159  0.1564
  918MOL0     C23824   8.709  12.264   6.403  0.0299  0.6799  0.0938
  918MOL0     C23825   8.581  12.326   6.420  0.5758  0.1881  0.0904
  918MOL0     O23826   8.572  12.463   6.419 -0.0766 -0.3387  0.1821
  918MOL0     C23827   8.443  12.507   6.432  0.5288 -0.7029 -0.0860
  918MOL0     C23828   8.370  12.517   6.310 -0.1290 -0.0339  0.3324
  918MOL0     C23829   8.239  12.559   6.305 -0.3617  0.0373 -0.0052
  918MOL0     C23830   8.178  12.580   6.424  0.1359  0.5905 -0.4803
  918MOL0     O23831   8.043  12.618   6.416 -0.4596  0.4596  0.5813
  918MOL0     C23832   7.969  12.550   6.515  1.3469  0.5824  0.0661
  918MOL0     C23833   7.810  12.575   6.491  0.5053  0.0928  0.1313
  918MOL0     C23834   7.730  12.493   6.601  0.8454  0.5362 -0.0991
  918MOL0     C23835   7.587  12.469   6.567  0.9637 -0.4447  0.1904
  918MOL0     C23836   7.511  12.598   6.575  0.2982 -0.8923 -0.2141
  918MOL0     C23837   7.458  12.644   6.711 -0.7716  0.0407  0.5018
  918MOL0     C23838   7.369  12.757   6.701  0.5079  0.6052 -0.4796
  918MOL0     C23839   7.436  12.887   6.656  0.1959  0.2110 -0.3178
  918MOL0    Cl23840   7.581  12.933   6.762 -0.3451 -0.2796 -0.1762
  918MOL0     C23841   8.251  12.576   6.541 -0.1744 -0.0547  0.2323
  918MOL0     C23842   8.380  12.529   6.555  0.1134  0.1752  0.7762
  918MOL0     O23843   8.478  12.249   6.443 -0.5102 -0.6071  0.2358
  918MOL0     C23844   8.734  12.139   6.467  1.2330 -0.8512 -0.3891
  918MOL0     C23845   8.859  12.086   6.480 -0.7009 -0.6603  0.1923
  918MOL0     N23846   9.561  11.944   6.356 -0.6246 -1.4083 -0.1241
  918MOL0     N23847   9.669  11.920   6.411 -0.4802  0.5224  0.0914
  918MOL0     C23848  10.607  11.033   6.311  0.4956  0.3709 -1.0437
  918MOL0     C23849  10.577  10.904   6.339  0.1232  0.0055 -0.3652
  918MOL0     C23850  10.359  10.491   6.328  0.3120  0.1301 -0.1602
  918MOL0     C23851  10.403  10.473   6.463 -0.1829 -0.6230  0.1461
  918MOL0     C23852  10.393  10.352   6.525  0.9136 -0.4526 -0.7997
  918MOL0     C23853  10.336  10.248   6.456 -0.3713  0.3285 -0.6619
  918MOL0     O23854  10.342  10.128   6.529  0.1497  0.1133 -0.3737
  918MOL0     C23855  10.314  10.008   6.460 -0.6517  0.8714  0.6118
  918MOL0     C23856  10.343   9.886   6.552 -0.6378  0.5591  0.7977
  918MOL0     C23857  10.274   9.758   6.497  1.0395 -0.3047  0.3559
  918MOL0     C23858  10.347   9.630   6.530 -0.5203  0.1260  0.9077
  918MOL0     C23859  10.467   9.616   6.445  0.0199  0.0813  0.3103
  918MOL0     C23860  10.563   9.606   6.375 -0.6704  0.3576 -0.6645
  918MOL0     C23861  10.294  10.256   6.327  0.2026 -0.3270 -0.8462
  918MOL0     C23862  10.309  10.376   6.264 -0.2174 -0.3905  0.1952
  918MOL0     H23863  10.281  10.876   6.168 -0.8640  0.3848  0.7596
  918MOL0     H23864  10.337  11.104   6.123 -1.9920 -2.0216  0.7004
  918MOL0     H23865  10.672  11.290   6.359  0.5622 -2.4750 -2.4002
  918MOL0     H23866  10.606  11.423   6.260 -1.8799  0.4561  1.1947
  918MOL0     H23867  10.442  11.269   6.467 -1.6255  0.6595 -0.4158
  918MOL0     H23868  10.497  11.433   6.480 -0.6635  1.7228 -0.5444
  918MOL0     H23869  10.361  11.452   6.245  0.8304 -0.1319  0.0089
  918MOL0     H23870  10.288  11.299   6.287  1.3364 -1.0815 -0.0700
  918MOL0     H23871  10.214  11.377   6.506 -0.6790  0.5032 -0.5938
  918MOL0     H23872  10.289  11.537   6.477 -0.6954 -0.1963  0.7883
  918MOL0     H23873  10.164  11.566   6.271 -3.5991  0.0856 -1.6230
  918MOL0     H23874  10.086  11.412   6.309  2.3153 -1.0643  1.5043
  918MOL0     H23875   9.969  11.521   6.498 -0.6425 -1.2209 -1.7933
  918MOL0     H23876  10.079  11.671   6.469  2.0387 -1.8001  0.8044
  918MOL0     H23877   9.937  11.688   6.248 -3.3153  0.0299  0.2356
  918MOL0     H23878   9.828  11.567   6.327 -2.8738  3.4056 -0.6059
  918MOL0     H23879   9.903  11.827   6.449  1.7442 -0.8885  0.9613
  918MOL0     H23880   9.802  11.698   6.515 -2.8598 -1.3664 -1.7779
  918MOL0     H23881   9.676  11.710   6.174 -2.8776  1.6845 -0.8405
  918MOL0     H23882   9.464  11.818   6.067 -0.5640 -0.4010  0.6833
  918MOL0     H23883   9.377  11.752   6.204  1.6255 -2.0512 -1.0722
  918MOL0     H23884   9.267  11.944   6.077 -3.5889 -1.7733  3.4754
  918MOL0     H23885   9.399  12.052   6.155 -1.4170  1.7757  0.7489
  918MOL0     H23886   9.310  12.004   6.382  0.5321  1.0836 -0.5600
  918MOL0     H23887   9.218  11.862   6.323  1.7355 -0.9776  0.6439
  918MOL0     H23888   9.084  11.994   6.196  0.5226 -2.1365  0.2653
  918MOL0     H23889   9.156  12.153   6.244 -0.3926 -0.7510 -3.0710
  918MOL0     H23890   9.034  12.315   6.308  0.1304 -0.4439 -0.0081
  918MOL0     H23891   8.899  12.486   6.210  1.0844 -0.2683  0.5377
  918MOL0     H23892   8.728  12.480   6.228 -0.1135 -0.0507  0.8610
  918MOL0     H23893   8.844  12.552   6.354  2.6027  1.6186 -1.2884
  918MOL0     H23894   8.422  12.496   6.216 -2.8124 -0.4364 -1.1577
  918MOL0     H23895   8.190  12.583   6.212 -0.2143 -0.0453 -0.1040
  918MOL0     H23896   7.998  12.445   6.502  0.7886  0.2393  1.4175
  918MOL0     H23897   7.994  12.574   6.619 -1.4073  1.0032  0.7027
  918MOL0     H23898   7.783  12.681   6.492 -0.4634 -0.0895 -1.5182
  918MOL0     H23899   7.784  12.542   6.390  0.4683  2.3327 -0.6520
  918MOL0     H23900   7.735  12.532   6.703  0.1915 -0.2816  0.2597
  918MOL0     H23901   7.772  12.392   6.610  0.8847  0.5072 -0.5943
  918MOL0     H23902   7.584  12.432   6.465  2.6965  2.1651 -0.9189
  918MOL0     H23903   7.540  12.402   6.640 -1.4725  2.5996  1.6311
  918MOL0     H23904   7.416  12.590   6.522 -0.7969 -0.3961  1.5989
  918MOL0     H23905   7.572  12.676   6.529 -3.5768  1.1532 -2.4156
  918MOL0     H23906   7.409  12.557   6.756  3.4392 -2.2782  1.0973
  918MOL0     H23907   7.547  12.658   6.772  0.5679 -0.2677 -1.3008
  918MOL0     H23908   7.329  12.779   6.801 -0.0370  1.8915 -0.9472
  918MOL0     H23909   7.285  12.721   6.641 -0.9862  0.6153  1.5038
  918MOL0     H23910   7.373  12.976   6.661 -0.9760 -0.6456  2.5811
  918MOL0     H23911   7.477  12.883   6.555  0.0757  2.7573 -0.5272
  918MOL0     H23912   8.209  12.629   6.626 -0.0658  2.3406 -1.1236
  918MOL0     H23913   8.439  12.521   6.646  1.3196  0.9750  0.0991
  918MOL0     H23914   8.658  12.083   6.520  2.4214 -0.8914  1.3658
  918MOL0     H23915   8.884  11.993   6.530 -2.6551 -0.4057  1.7997
  918MOL0     H23916  10.706  11.070   6.335  0.8848 -2.1457  1.9624
  918MOL0     H23917  10.647  10.849   6.402  1.9449  1.5118 -0.9862
  918MOL0     H23918  10.464  10.543   6.520  0.0871 -1.5601  1.0431
  918MOL0     H23919  10.433  10.329   6.623  2.0186  0.2500 -1.0640
  918MOL0     H23920  10.216   9.990   6.415 -0.7370 -1.4586  1.5620
  918MOL0     H23921  10.380  10.010   6.374 -0.3387  2.9313  0.8712
  918MOL0     H23922  10.315   9.909   6.655 -1.2409 -0.5814  0.8977
  918MOL0     H23923  10.449   9.858   6.554 -0.9107 -1.1930 -2.4579
  918MOL0     H23924  10.252   9.760   6.390  0.0737 -0.8657  0.5309
  918MOL0     H23925  10.183   9.750   6.558  0.6327 -1.5615 -0.3815
  918MOL0     H23926  10.295   9.534   6.520  0.8813 -0.5680  0.0176
  918MOL0     H23927  10.406   9.643   6.621 -0.5253 -0.4389  0.9970
  918MOL0     H23928  10.653   9.593   6.318  1.3017 -2.2167  2.7161
  918MOL0     H23929  10.248  10.170   6.279 -4.2735  0.0690  2.1109
  918MOL0     H23930  10.287  10.382   6.158  1.7443  3.0288 -0.1499
  919MOL0     O23931  10.805   4.399  11.296 -0.0912 -0.2091  0.2882
  919MOL0     C23932  10.924   4.384  11.287 -0.7015  0.2807 -0.2175
  919MOL0     O23933  11.008   4.471  11.231 -0.0019  0.5108 -0.6150
  919MOL0     C23934  10.962   4.592  11.194 -0.4691  0.0087 -0.2144
  919MOL0     C23935  10.969   4.628  11.058  0.8811 -0.2026 -0.2761
  919MOL0     C23936  10.909   4.743  11.014 -0.1142 -0.5458 -0.1630
  919MOL0     C23937  10.846   4.824  11.095 -1.2802 -0.8226  0.9962
  919MOL0     O23938  10.787   4.936  11.029  0.0077  1.2668  0.2468
  919MOL0     C23939  10.647   4.944  11.036  0.2122 -0.2180  1.1968
  919MOL0     C23940  10.618   5.033  10.914 -0.0025 -0.0447 -0.0851
  919MOL0     C23941  10.628   4.970  10.778 -0.1777  0.8238 -0.6542
  919MOL0     C23942  10.604   5.073  10.666  0.5360 -1.0538 -0.6287
  919MOL0     C23943  10.636   5.008  10.540 -0.7516  0.1563  0.4694
  919MOL0     C23944  10.632   5.120  10.439  0.3397 -0.2452  0.3139
  919MOL0     C23945  10.604   5.064  10.294 -0.7057 -0.2126  0.4581
  919MOL0     C23946  10.721   4.975  10.236  0.3108  0.1198 -0.4587
  919MOL0     N23947  10.721   4.836  10.284  0.0069  0.1609 -0.8044
  919MOL0     C23948  10.832   4.767  10.332  0.1913 -0.8977 -0.5947
  919MOL0     C23949  10.795   4.639  10.347 -0.0335 -0.3434  0.4343
  919MOL0     C23950  10.873   4.524  10.400 -0.0787 -0.5960  1.2136
  919MOL0     C23951  11.005   4.572  10.462  0.5803  0.0465 -0.3571
  919MOL0     C23952  11.102   4.460  10.514  1.0304  0.3110  0.7111
  919MOL0     C23953  11.120   4.483  10.657 -0.7167 -0.5722 -0.0157
  919MOL0     O23954  11.221   4.579  10.688 -0.4131 -0.0652  0.3933
  919MOL0     C23955  11.293   4.551  10.801  0.6008 -1.2169  0.9935
  919MOL0     C23956  11.280   4.641  10.911  0.3170 -1.0498 -0.1303
  919MOL0     C23957  11.325   4.592  11.033  0.4360 -0.9735 -1.1717
  919MOL0     C23958  11.293   4.656  11.160 -0.3548 -0.7620 -0.2596
  919MOL0     C23959  11.395   4.470  11.038  0.3882  0.3417  0.1944
  919MOL0     C23960  11.447   4.413  11.159 -0.1593  0.5976  0.1876
  919MOL0     O23961  11.531   4.494  11.222 -1.2650  0.3440 -0.0471
  919MOL0     C23962  11.615   4.431  11.314 -0.4340  0.1699 -0.7669
  919MOL0     C23963  11.629   4.498  11.438  0.4826  0.6254  0.8007
  919MOL0     C23964  11.708   4.437  11.533 -0.0938 -0.3854  0.0218
  919MOL0     C23965  11.767   4.310  11.523 -0.3610  0.1578  0.2297
  919MOL0     O23966  11.844   4.246  11.621 -0.4323 -0.6517 -0.7490
  919MOL0     C23967  11.883   4.341  11.724  0.7842  1.0076  0.2496
  919MOL0     C23968  11.991   4.280  11.802 -0.4520 -0.0617 -0.0958
  919MOL0     C23969  12.107   4.247  11.708  0.3840  0.1234 -0.0577
  919MOL0     C23970  12.220   4.231  11.815 -1.0748 -0.6489 -0.2177
  919MOL0     C23971  12.355   4.197  11.744 -0.8034  0.0921  0.0973
  919MOL0     C23972  12.468   4.177  11.844 -0.6465  0.8709 -0.0947
  919MOL0     C23973  12.604   4.161  11.774  0.7191 -0.3214 -0.5237
  919MOL0     C23974  12.714   4.188  11.872 -0.3378  0.4045  1.0735
  919MOL0    Cl23975  12.869   4.136  11.796 -0.1627 -0.1175 -0.4687
  919MOL0     C23976  11.761   4.252  11.397 -0.1053  0.0117  0.6902
  919MOL0     C23977  11.688   4.312  11.292 -0.5231 -0.5936  0.1195
  919MOL0     O23978  11.393   4.310  11.199  0.4289 -0.0574  0.5813
  919MOL0     C23979  11.436   4.398  10.921  0.5198 -0.3505 -0.0338
  919MOL0     C23980  11.383   4.443  10.800 -0.1200 -1.2061  0.7976
  919MOL0     N23981  10.671   4.623  10.289 -0.0786  1.2703  0.1950
  919MOL0     N23982  10.628   4.742  10.260 -0.6687  0.2673 -0.5687
  919MOL0     C23983  10.839   4.791  11.227 -0.4986  0.4562 -0.0776
  919MOL0     C23984  10.900   4.675  11.280 -0.0334  0.1002  0.0825
  919MOL0     C23985  10.972   4.257  11.339 -0.6104 -0.3112 -0.1573
  919MOL0     C23986  10.896   4.173  11.423 -0.2144  0.1236 -1.3201
  919MOL0     C23987  10.942   4.046  11.443  1.0456 -0.0596  0.6213
  919MOL0     C23988  11.072   4.006  11.417  0.0838 -1.0522  0.3614
  919MOL0     O23989  11.130   3.890  11.468  0.7571  0.1593 -0.0667
  919MOL0     C23990  11.061   3.821  11.582 -0.3582  0.5747 -0.1186
  919MOL0     C23991  10.953   3.716  11.551 -0.3974  0.0972  0.0315
  919MOL0     C23992  11.017   3.608  11.466  0.3019  0.4153  0.4472
  919MOL0     C23993  10.915   3.491  11.445 -0.3561  0.0954 -1.0727
  919MOL0     C23994  10.965   3.365  11.388 -0.5299 -0.5014 -0.7010
  919MOL0     C23995  11.023   3.266  11.334  0.6493  0.5218  0.6864
  919MOL0     C23996  11.159   4.099  11.358  0.1387  0.1848 -0.2240
  919MOL0     C23997  11.106   4.224  11.313  0.2020  0.9332  1.0370
  919MOL0     H23998  11.031   4.570  10.990  0.3982 -0.2594 -0.6758
  919MOL0     H23999  10.912   4.763  10.907  2.1923  0.9922  0.1268
  919MOL0     H24000  10.604   4.843  11.038  0.6249 -0.4017  0.8291
  919MOL0     H24001  10.601   4.994  11.122 -0.1659 -0.6821  1.2707
  919MOL0     H24002  10.515   5.067  10.922 -0.2195 -0.1913 -1.8264
  919MOL0     H24003  10.681   5.123  10.912 -1.9687  1.3991  0.1402
  919MOL0     H24004  10.729   4.928  10.770 -1.2866 -2.2117 -0.1932
  919MOL0     H24005  10.563   4.882  10.770  2.4696 -1.3288 -0.2335
  919MOL0     H24006  10.500   5.108  10.663  0.7102 -0.5778 -2.0117
  919MOL0     H24007  10.669   5.158  10.689  0.9403 -0.7701 -2.6255
  919MOL0     H24008  10.736   4.963  10.542 -0.8636 -0.1481 -0.2301
  919MOL0     H24009  10.564   4.931  10.512 -0.0823  0.0647 -1.1461
  919MOL0     H24010  10.551   5.192  10.452  2.3365  2.7078 -2.2911
  919MOL0     H24011  10.725   5.176  10.441  0.6767 -0.5393  5.0488
  919MOL0     H24012  10.516   5.000  10.287 -1.1342  0.2343  1.4904
  919MOL0     H24013  10.583   5.143  10.222  0.4943  1.8203  2.2021
  919MOL0     H24014  10.820   5.021  10.245  1.7704 -3.1768  3.9612
  919MOL0     H24015  10.706   4.976  10.128  1.7548  2.4873 -0.7233
  919MOL0     H24016  10.921   4.826  10.356 -1.8481  2.1118  0.1778
  919MOL0     H24017  10.804   4.463  10.460 -0.0734 -2.1613 -0.3040
  919MOL0     H24018  10.913   4.459  10.322  1.2739 -0.9546  2.1579
  919MOL0     H24019  10.983   4.657  10.526  0.5573 -0.0705 -0.2105
  919MOL0     H24020  11.059   4.614  10.376 -1.5850  1.5779 -1.0546
  919MOL0     H24021  11.197   4.471  10.461  0.7007  0.4308  0.1272
  919MOL0     H24022  11.066   4.358  10.503  1.4776 -0.0300  2.2424
  919MOL0     H24023  11.141   4.385  10.701  0.0295 -0.0535  0.8369
  919MOL0     H24024  11.031   4.529  10.702 -1.7897 -0.7781 -1.8512
  919MOL0     H24025  11.230   4.737  10.905  2.0330 -0.1830 -1.4091
  919MOL0     H24026  11.377   4.700  11.214 -0.9942  1.2440 -0.8283
  919MOL0     H24027  11.218   4.735  11.153  2.6719  2.3080 -0.5567
  919MOL0     H24028  11.246   4.588  11.232  0.9415 -3.0334 -1.4659
  919MOL0     H24029  11.586   4.593  11.468 -0.3828  0.3432  0.4802
  919MOL0     H24030  11.726   4.494  11.623  0.6868 -1.0288  0.2813
  919MOL0     H24031  11.927   4.438  11.699  5.4978 -1.1900 -1.0663
  919MOL0     H24032  11.793   4.357  11.784  0.5477 -0.3438  0.2897
  919MOL0     H24033  12.022   4.360  11.871  1.1107 -1.2337  0.6044
  919MOL0     H24034  11.962   4.192  11.860  1.8590 -0.5049  0.4567
  919MOL0     H24035  12.135   4.322  11.633  2.1792 -0.1310  0.2961
  919MOL0     H24036  12.099   4.150  11.659 -2.4322  0.0547  0.4212
  919MOL0     H24037  12.233   4.330  11.860  1.6223 -0.7120 -0.6569
  919MOL0     H24038  12.194   4.164  11.897  0.7326 -0.0860  0.8634
  919MOL0     H24039  12.386   4.280  11.679 -1.0992 -1.3251 -1.9672
  919MOL0     H24040  12.356   4.107  11.682 -3.6071 -1.2129  1.7587
  919MOL0     H24041  12.483   4.263  11.911  2.2305  1.2335 -1.0641
  919MOL0     H24042  12.447   4.094  11.911 -1.5124 -0.2314 -1.6873
  919MOL0     H24043  12.621   4.218  11.682  0.4315  1.9330  0.7582
  919MOL0     H24044  12.623   4.055  11.754  1.7189 -0.7038  2.0261
  919MOL0     H24045  12.711   4.147  11.974  0.1801  0.3013  1.0506
  919MOL0     H24046  12.714   4.295  11.895 -0.1561  0.1389  2.4380
  919MOL0     H24047  11.795   4.149  11.386 -0.7282 -0.1289  0.0172
  919MOL0     H24048  11.685   4.269  11.192  1.8406  0.8395 -0.6451
  919MOL0     H24049  11.491   4.305  10.923 -0.4457 -0.9537 -0.7088
  919MOL0     H24050  11.418   4.402  10.706  1.9641  0.5020  0.7474
  919MOL0     H24051  10.769   4.850  11.285 -2.9530 -1.8068 -0.5799
  919MOL0     H24052  10.917   4.647  11.384  0.4607  0.3784  0.0853
  919MOL0     H24053  10.793   4.189  11.454 -0.2173 -2.5286  0.3834
  919MOL0     H24054  10.882   3.970  11.493  2.4549  0.4492  3.3325
  919MOL0     H24055  11.142   3.777  11.641 -1.3359 -0.8853  0.2082
  919MOL0     H24056  11.011   3.895  11.646 -2.2505 -0.5517 -0.1999
  919MOL0     H24057  10.869   3.762  11.499 -0.2838 -0.8075 -0.9952
  919MOL0     H24058  10.914   3.670  11.642  1.6702 -1.4122  0.2531
  919MOL0     H24059  11.102   3.557  11.512  0.3807 -2.3504 -2.4145
  919MOL0     H24060  11.049   3.658  11.375 -1.3807  1.7535  0.5262
  919MOL0     H24061  10.830   3.541  11.397 -1.0252  1.2505  1.1880
  919MOL0     H24062  10.871   3.456  11.539  1.0038 -1.1550 -0.8699
  919MOL0     H24063  11.057   3.176  11.287  1.9836  0.5881  1.4708
  919MOL0     H24064  11.260   4.067  11.337 -0.1121 -1.5728  1.0204
  919MOL0     H24065  11.161   4.294  11.251 -0.0820  0.0188 -0.2881
  920MOL0     O24066   7.506   1.779   9.264 -0.0020  0.0442  0.1880
  920MOL0     C24067   7.611   1.837   9.250 -0.6587  1.4405  0.1047
  920MOL0     O24068   7.729   1.781   9.289  0.0643  0.1350  0.0846
  920MOL0     C24069   7.742   1.646   9.332 -0.4520 -0.4608  0.2857
  920MOL0     C24070   7.651   1.593   9.420  0.3054 -0.3493 -0.5666
  920MOL0     C24071   7.653   1.459   9.454  0.6938 -0.7694  0.1407
  920MOL0     C24072   7.747   1.376   9.404 -0.5380  0.4917 -0.6428
  920MOL0     O24073   7.729   1.242   9.439 -0.3221  0.0462 -1.1073
  920MOL0     C24074   7.785   1.140   9.359  0.5593 -0.4450 -0.3527
  920MOL0     C24075   7.908   1.074   9.426  0.1692 -0.1022 -0.0124
  920MOL0     C24076   7.869   0.970   9.527  0.5166 -0.1670  0.9576
  920MOL0     C24077   7.971   0.897   9.594  0.0964  0.3487  0.2251
  920MOL0     C24078   7.921   0.846   9.732  0.1894 -0.7786  0.3099
  920MOL0     C24079   7.807   0.746   9.719 -0.4623  0.0122 -0.6522
  920MOL0     C24080   7.833   0.618   9.633  0.6208 -0.1091 -0.5466
  920MOL0     C24081   7.958   0.543   9.677  0.4913 -0.3670  0.0677
  920MOL0     N24082   7.979   0.421   9.598  0.1247 -0.0192  0.4111
  920MOL0     C24083   8.021   0.432   9.465 -1.0640 -0.3524 -0.6523
  920MOL0     C24084   8.029   0.308   9.430  0.1424 -0.0753  1.4448
  920MOL0     C24085   8.070   0.262   9.293 -0.1234 -0.9682 -0.8172
  920MOL0     C24086   8.173   0.359   9.235 -0.2433 -0.6517  0.6280
  920MOL0     C24087   8.241   0.293   9.105  0.6195 -0.1289  0.4227
  920MOL0     C24088   8.355   0.374   9.049  0.3122  0.0066  0.4135
  920MOL0     O24089   8.476   0.366   9.122 -0.2484  0.3504 -0.2130
  920MOL0     C24090   8.556   0.254   9.136 -0.1341  0.1064  1.2779
  920MOL0     C24091   8.648   0.262   9.231  0.9802  0.2037 -1.0101
  920MOL0     C24092   8.730   0.167   9.273  0.0472  0.9524  0.5639
  920MOL0     C24093   8.840   0.184   9.385 -0.5649 -0.5255  0.3079
  920MOL0     C24094   8.733   0.043   9.202  0.1320  0.9356 -0.1177
  920MOL0     C24095   8.835  -0.065   9.225  1.2133 -0.1004 -0.1485
  920MOL0     O24096   8.961  -0.018   9.239 -0.3413 -0.5891 -0.4549
  920MOL0     C24097   9.069  -0.099   9.250 -0.3874  0.2427 -1.0725
  920MOL0     C24098   9.165  -0.060   9.349 -0.2918 -0.7609  0.3570
  920MOL0     C24099   9.282  -0.136   9.364  0.3505 -0.1566 -0.3753
  920MOL0     C24100   9.310  -0.242   9.276  0.0860 -0.5339  1.1681
  920MOL0     O24101   9.430  -0.315   9.282 -0.0755 -0.2932  0.2245
  920MOL0     C24102   9.552  -0.263   9.342  0.5019  0.8108 -0.6047
  920MOL0     C24103   9.617  -0.155   9.257 -0.0337 -0.3141 -0.3214
  920MOL0     C24104   9.693  -0.222   9.141 -0.8656 -1.0385  0.0351
  920MOL0     C24105   9.777  -0.129   9.039 -0.2282  0.0039 -0.3797
  920MOL0     C24106   9.695  -0.045   8.944 -0.9950 -0.0749  0.5198
  920MOL0     C24107   9.776   0.000   8.822 -0.5590 -0.6289  0.1291
  920MOL0     C24108   9.896   0.093   8.844 -0.0386  0.1849 -0.1131
  920MOL0     C24109   9.970   0.137   8.724  0.3411 -1.0106 -0.2211
  920MOL0    Cl24110  10.026   0.008   8.608 -0.2286 -0.2383 -0.1390
  920MOL0     C24111   9.222  -0.269   9.175 -0.4841  0.3829 -0.3817
  920MOL0     C24112   9.103  -0.195   9.159 -0.5696  0.5195 -0.0397
  920MOL0     O24113   8.795  -0.185   9.228  0.0141 -0.3022  0.3109
  920MOL0     C24114   8.624   0.019   9.112 -0.5214  0.1718 -0.7019
  920MOL0     C24115   8.544   0.123   9.070  0.9162 -0.2437 -0.0520
  920MOL0     N24116   7.972   0.222   9.525 -0.3395 -0.0914 -0.6501
  920MOL0     N24117   7.943   0.301   9.633  1.1409 -0.0692  0.4918
  920MOL0     C24118   7.849   1.432   9.324 -0.6560  0.5442 -0.7214
  920MOL0     C24119   7.842   1.568   9.281 -0.2447  0.2508  1.2272
  920MOL0     C24120   7.603   1.958   9.170  0.3931  1.2355 -0.3549
  920MOL0     C24121   7.494   1.977   9.082  0.8607  0.8363 -0.1785
  920MOL0     C24122   7.473   2.094   9.022 -0.4844 -1.2337  0.2434
  920MOL0     C24123   7.578   2.190   9.019  0.4811  0.9875 -0.5259
  920MOL0     O24124   7.546   2.299   8.947 -0.0709 -0.3723 -0.9649
  920MOL0     C24125   7.649   2.391   8.909 -0.5240 -0.9255 -0.0929
  920MOL0     C24126   7.634   2.501   9.010  0.6061 -0.0270 -0.5725
  920MOL0     C24127   7.487   2.571   9.004  1.1590  0.1249  0.5082
  920MOL0     C24128   7.458   2.649   9.133 -0.3696 -0.4150 -0.6245
  920MOL0     C24129   7.322   2.677   9.154 -0.7795 -0.5588  0.9961
  920MOL0     C24130   7.204   2.686   9.171 -0.3436  0.4240  0.2110
  920MOL0     C24131   7.686   2.166   9.105  0.7959 -0.1880  0.9845
  920MOL0     C24132   7.699   2.047   9.174  0.1317 -0.4366 -0.3029
  920MOL0     H24133   7.569   1.655   9.456  0.7319  0.7519 -1.4497
  920MOL0     H24134   7.581   1.414   9.522 -4.5986  3.8661 -1.5336
  920MOL0     H24135   7.706   1.066   9.341  0.3565 -0.2955 -0.0846
  920MOL0     H24136   7.821   1.178   9.263 -0.9830 -0.9308 -1.1672
  920MOL0     H24137   7.962   1.025   9.345 -1.1347  1.6480 -2.0533
  920MOL0     H24138   7.984   1.143   9.462 -0.4418  0.7178 -0.2693
  920MOL0     H24139   7.807   1.019   9.603  2.2856  2.6273  0.7401
  920MOL0     H24140   7.804   0.908   9.465 -1.6626 -0.0707  2.9760
  920MOL0     H24141   8.007   0.816   9.530 -0.9188  1.0064 -1.2194
  920MOL0     H24142   8.058   0.961   9.614  0.8912 -0.8270  0.6206
  920MOL0     H24143   8.006   0.796   9.779 -0.0833 -0.0286  1.6289
  920MOL0     H24144   7.902   0.930   9.799  1.1553  0.9608 -1.5072
  920MOL0     H24145   7.768   0.708   9.814 -2.6124  2.7557 -0.2942
  920MOL0     H24146   7.715   0.787   9.676 -2.0318  0.2934  2.6136
  920MOL0     H24147   7.747   0.552   9.644  1.2745 -1.0256 -0.8201
  920MOL0     H24148   7.833   0.629   9.524 -0.4701 -4.2022 -1.1208
  920MOL0     H24149   7.939   0.528   9.784 -0.3975 -2.7540 -0.3670
  920MOL0     H24150   8.052   0.600   9.676  0.1340  0.2990  1.5039
  920MOL0     H24151   8.065   0.516   9.413  1.2348 -2.3128 -2.1171
  920MOL0     H24152   8.108   0.160   9.303  1.1284 -0.3088  2.9117
  920MOL0     H24153   7.986   0.252   9.223  0.8824  0.6079 -2.3346
  920MOL0     H24154   8.258   0.375   9.301 -0.9386  0.2745  1.3207
  920MOL0     H24155   8.138   0.459   9.208 -0.0078 -0.8890 -0.6445
  920MOL0     H24156   8.170   0.272   9.025  1.1794  0.8468 -0.3416
  920MOL0     H24157   8.296   0.204   9.138  0.6353 -0.5966 -0.8458
  920MOL0     H24158   8.318   0.476   9.039  2.5238  0.7683 -0.6046
  920MOL0     H24159   8.375   0.346   8.945  1.9480  3.9583 -0.5033
  920MOL0     H24160   8.656   0.357   9.284  2.1053 -1.3481  1.8020
  920MOL0     H24161   8.873   0.090   9.430  1.9899  0.8501  1.5148
  920MOL0     H24162   8.926   0.242   9.352 -1.5652 -0.1805 -1.9041
  920MOL0     H24163   8.788   0.247   9.458 -0.8956  2.2693 -2.1228
  920MOL0     H24164   9.149   0.016   9.424 -0.7250 -1.9950  1.5507
  920MOL0     H24165   9.354  -0.113   9.442 -0.5452  0.8171  0.1906
  920MOL0     H24166   9.530  -0.231   9.444 -1.3038  0.5784 -0.8968
  920MOL0     H24167   9.625  -0.345   9.351  0.5128  1.0094  2.1073
  920MOL0     H24168   9.537  -0.093   9.217  2.1683  2.7592 -0.3347
  920MOL0     H24169   9.677  -0.081   9.312 -1.5543  1.2300 -0.6560
  920MOL0     H24170   9.607  -0.263   9.088 -1.9757 -0.3831  1.2572
  920MOL0     H24171   9.769  -0.290   9.182  2.5480  1.5324 -1.5632
  920MOL0     H24172   9.852  -0.068   9.091  0.0562  0.2739 -1.1035
  920MOL0     H24173   9.844  -0.193   8.980  0.8198  1.4679 -0.8348
  920MOL0     H24174   9.644   0.030   9.007 -0.2372  1.0030 -0.1221
  920MOL0     H24175   9.616  -0.106   8.899 -0.3855 -1.7071  1.5535
  920MOL0     H24176   9.820  -0.085   8.770  0.5834  0.3975 -0.6341
  920MOL0     H24177   9.708   0.041   8.747 -1.9650 -1.2305  1.0350
  920MOL0     H24178   9.963   0.044   8.916  1.3994 -0.9290 -2.1032
  920MOL0     H24179   9.857   0.179   8.898 -4.3323 -2.8835  2.2955
  920MOL0     H24180  10.051   0.191   8.774 -1.5227 -0.9175  2.9879
  920MOL0     H24181   9.914   0.211   8.666  0.8404  0.0009  0.5540
  920MOL0     H24182   9.232  -0.356   9.111  0.3495  0.9587 -1.0538
  920MOL0     H24183   9.041  -0.219   9.073 -1.2688 -0.0296  0.6092
  920MOL0     H24184   8.616  -0.074   9.056 -1.9219 -1.1856  1.6212
  920MOL0     H24185   8.476   0.105   8.988 -0.8398  2.3335  0.7146
  920MOL0     H24186   7.917   1.358   9.283 -0.3385  1.5160 -1.9854
  920MOL0     H24187   7.913   1.602   9.207 -0.2668  0.1710  1.1694
  920MOL0     H24188   7.413   1.906   9.065 -0.5748  1.2829  3.7222
  920MOL0     H24189   7.387   2.107   8.956  0.7479  1.7154 -0.9442
  920MOL0     H24190   7.746   2.341   8.918 -0.8603 -1.7344 -0.8036
  920MOL0     H24191   7.641   2.422   8.805  1.1688 -0.9339 -0.2560
  920MOL0     H24192   7.711   2.573   8.982  3.7851 -3.8000 -2.3152
  920MOL0     H24193   7.659   2.464   9.110  1.9935 -0.3030 -1.0105
  920MOL0     H24194   7.410   2.496   8.983  1.2471  0.3311 -0.6115
  920MOL0     H24195   7.486   2.632   8.914 -4.5352  0.1500  0.2814
  920MOL0     H24196   7.509   2.746   9.138 -0.7336 -0.0754 -2.5821
  920MOL0     H24197   7.506   2.595   9.216 -0.3501  0.3750 -0.1153
  920MOL0     H24198   7.097   2.684   9.172 -0.4608 -0.6649 -2.7658
  920MOL0     H24199   7.760   2.246   9.114  0.5963  0.0521  0.5316
  920MOL0     H24200   7.785   2.022   9.234  1.0010 -2.5494 -2.2982
  921MOL0     O24201   6.605   5.118   2.897 -0.3275  0.3925  0.7430
  921MOL0     C24202   6.510   5.076   2.837 -0.1322 -1.0242 -0.4117
  921MOL0     O24203   6.384   5.132   2.848 -0.3248 -0.5210 -0.7227
  921MOL0     C24204   6.286   5.098   2.750  0.1227  0.3114 -0.2344
  921MOL0     C24205   6.304   5.141   2.618  0.3332 -1.0623  0.0778
  921MOL0     C24206   6.198   5.128   2.528  0.0712 -0.2613 -0.2929
  921MOL0     C24207   6.071   5.078   2.565 -0.4798  0.3651  0.0785
  921MOL0     O24208   5.960   5.065   2.482 -0.5241 -0.2811 -0.4704
  921MOL0     C24209   5.967   5.130   2.347  0.6735  0.4010 -1.1701
  921MOL0     C24210   6.028   5.030   2.257 -0.5531 -0.4522  0.9444
  921MOL0     C24211   5.918   4.952   2.168  0.9153 -0.0999  0.1328
  921MOL0     C24212   5.842   4.846   2.249 -0.4476 -0.2138 -0.1263
  921MOL0     C24213   5.885   4.703   2.235 -0.4969  0.6910  0.2277
  921MOL0     C24214   5.824   4.627   2.106  0.1471 -0.1536 -0.2888
  921MOL0     C24215   5.924   4.525   2.051  1.0490 -0.1807 -0.2712
  921MOL0     C24216   5.975   4.550   1.911 -0.2593 -0.8549  0.1982
  921MOL0     N24217   6.067   4.440   1.872 -0.1350  0.5937 -0.1951
  921MOL0     C24218   6.202   4.440   1.900  0.1361 -0.1359  0.0894
  921MOL0     C24219   6.235   4.325   1.841 -0.1986 -0.6934  0.8830
  921MOL0     C24220   6.373   4.281   1.852 -0.0977  0.4326 -0.8358
  921MOL0     C24221   6.467   4.315   1.733  0.5406 -0.3395 -0.9198
  921MOL0     C24222   6.534   4.446   1.763  0.3146 -0.3736  0.3535
  921MOL0     C24223   6.621   4.491   1.646  0.2427 -0.5859 -0.0162
  921MOL0     O24224   6.693   4.612   1.662  0.0972 -0.0389  0.2068
  921MOL0     C24225   6.634   4.733   1.652  0.3424  0.1496  1.0813
  921MOL0     C24226   6.500   4.750   1.618  0.1804 -0.0951  0.4035
  921MOL0     C24227   6.442   4.878   1.602 -0.2767 -0.9709 -0.6526
  921MOL0     C24228   6.294   4.870   1.567 -0.2036 -0.8049 -0.2465
  921MOL0     C24229   6.525   4.998   1.603  0.3697 -0.5163  0.1469
  921MOL0     C24230   6.469   5.145   1.582  0.0831  0.0611  0.2401
  921MOL0     O24231   6.547   5.245   1.621 -0.9040  0.1863 -0.5752
  921MOL0     C24232   6.531   5.372   1.592 -0.3517  0.3949 -0.3028
  921MOL0     C24233   6.511   5.453   1.706 -0.5294 -0.4577  0.8062
  921MOL0     C24234   6.528   5.587   1.700  0.6770 -0.7947 -0.4630
  921MOL0     C24235   6.562   5.650   1.579 -0.1779 -0.3646  0.6206
  921MOL0     O24236   6.581   5.785   1.571 -0.7183 -0.1517  0.0646
  921MOL0     C24237   6.510   5.874   1.662 -0.0401  0.1076  0.6238
  921MOL0     C24238   6.541   6.019   1.619 -0.0394  0.0214 -0.6043
  921MOL0     C24239   6.442   6.083   1.517 -0.2336 -0.6687  0.3689
  921MOL0     C24240   6.305   6.112   1.575 -1.0882  0.9524 -0.3423
  921MOL0     C24241   6.204   6.170   1.464 -0.0788  0.4372 -0.5638
  921MOL0     C24242   6.081   6.200   1.533  0.4963  0.7730  0.3776
  921MOL0     C24243   5.997   6.293   1.433  0.7512 -0.1106 -0.7384
  921MOL0     C24244   5.887   6.360   1.520 -0.5439  0.0713  0.6162
  921MOL0    Cl24245   5.783   6.452   1.406  0.3723  0.3850  0.1033
  921MOL0     C24246   6.579   5.573   1.463 -0.3527  0.0485 -0.0847
  921MOL0     C24247   6.565   5.429   1.472  0.2811  0.6794  0.5700
  921MOL0     O24248   6.355   5.164   1.537  0.7654  0.1414 -0.7804
  921MOL0     C24249   6.658   4.980   1.646  0.3901 -0.4774  0.0270
  921MOL0     C24250   6.706   4.847   1.661 -0.8426 -0.5387 -0.4644
  921MOL0     N24251   6.132   4.262   1.770  0.2873 -0.3259 -0.3075
  921MOL0     N24252   6.024   4.341   1.787 -0.0072 -0.4802  0.0512
  921MOL0     C24253   6.061   5.019   2.692 -0.1864 -0.3063 -0.3149
  921MOL0     C24254   6.164   5.038   2.789  0.4574  0.0590 -0.0187
  921MOL0     C24255   6.547   4.971   2.735 -0.2986 -1.2519 -0.4634
  921MOL0     C24256   6.644   5.004   2.641 -0.3884  0.1857 -0.3814
  921MOL0     C24257   6.675   4.908   2.535 -0.0252 -0.2032 -0.4329
  921MOL0     C24258   6.595   4.789   2.523 -0.0546  1.0891 -0.3571
  921MOL0     O24259   6.626   4.711   2.416 -0.2699  0.5913  0.3076
  921MOL0     C24260   6.593   4.573   2.417 -0.6321  0.3395  0.0341
  921MOL0     C24261   6.671   4.502   2.301 -0.2911  1.0799 -0.1104
  921MOL0     C24262   6.823   4.535   2.290 -0.0809 -0.3650 -1.0738
  921MOL0     C24263   6.901   4.428   2.218  0.7685 -0.0288 -0.2170
  921MOL0     C24264   6.873   4.423   2.069 -0.5713  0.6688  0.0182
  921MOL0     C24265   6.849   4.414   1.953 -0.5390 -0.2950  0.9676
  921MOL0     C24266   6.494   4.760   2.614 -0.5334 -0.2227 -0.5443
  921MOL0     C24267   6.474   4.855   2.718  0.0234  0.3745 -0.7605
  921MOL0     H24268   6.396   5.190   2.587 -0.1623 -1.6760 -2.5712
  921MOL0     H24269   6.219   5.152   2.424  1.9935  1.4800  0.4302
  921MOL0     H24270   5.862   5.140   2.319 -0.3488 -1.7466  1.3824
  921MOL0     H24271   6.015   5.228   2.357  1.1081 -0.0487  3.1663
  921MOL0     H24272   6.099   5.078   2.190  0.1601 -1.0537  1.2566
  921MOL0     H24273   6.086   4.953   2.309  0.0439 -2.8513 -2.9267
  921MOL0     H24274   5.843   5.021   2.129  0.2046 -1.3954 -0.8855
  921MOL0     H24275   5.969   4.908   2.082  1.4921 -1.8361  1.3060
  921MOL0     H24276   5.856   4.868   2.355 -2.0677  1.5995 -0.2378
  921MOL0     H24277   5.734   4.851   2.233 -0.3168 -1.4076 -1.5262
  921MOL0     H24278   5.993   4.708   2.221  0.1610  0.3199  4.1842
  921MOL0     H24279   5.872   4.640   2.323  4.1627 -1.9020 -0.6099
  921MOL0     H24280   5.729   4.584   2.138 -0.8817  1.8879 -0.4051
  921MOL0     H24281   5.791   4.688   2.021 -1.5839 -1.8389 -0.8952
  921MOL0     H24282   6.006   4.513   2.121  0.9790 -0.3023 -0.2101
  921MOL0     H24283   5.862   4.435   2.044  1.7270 -0.6909  0.2181
  921MOL0     H24284   6.028   4.646   1.909 -1.8969  0.0757 -0.7548
  921MOL0     H24285   5.899   4.560   1.833  0.1377  1.4046  0.0453
  921MOL0     H24286   6.268   4.504   1.958 -1.8906  1.4737  0.7100
  921MOL0     H24287   6.414   4.304   1.950 -0.9721  0.6632 -0.5172
  921MOL0     H24288   6.363   4.172   1.847 -0.1513  0.4368 -0.8152
  921MOL0     H24289   6.423   4.299   1.634  4.1012 -1.0359 -2.5757
  921MOL0     H24290   6.539   4.232   1.738 -1.2298 -1.8689  0.6472
  921MOL0     H24291   6.603   4.435   1.848  1.5311 -0.6522 -0.6438
  921MOL0     H24292   6.459   4.519   1.793 -1.6977 -2.4367  0.5650
  921MOL0     H24293   6.575   4.481   1.548 -0.3867 -0.9327  0.3077
  921MOL0     H24294   6.707   4.423   1.643  1.8816  0.9992  3.7655
  921MOL0     H24295   6.433   4.665   1.611 -1.6765  1.3315  0.1501
  921MOL0     H24296   6.287   4.862   1.458  0.7163 -1.0065 -0.2964
  921MOL0     H24297   6.243   4.782   1.608  0.1721 -1.8468 -1.9178
  921MOL0     H24298   6.250   4.962   1.607 -0.5133 -0.7857 -0.6211
  921MOL0     H24299   6.500   5.402   1.801 -2.8923 -0.4861  0.5828
  921MOL0     H24300   6.530   5.649   1.789  0.2730 -0.9493 -0.3441
  921MOL0     H24301   6.404   5.852   1.679  0.2027 -0.4578  1.4444
  921MOL0     H24302   6.550   5.850   1.761 -1.2350 -0.4544  0.9890
  921MOL0     H24303   6.549   6.094   1.697  0.7195  0.0495 -0.7027
  921MOL0     H24304   6.641   6.020   1.575  0.7814 -3.0403  0.9133
  921MOL0     H24305   6.445   6.019   1.427  3.7148 -1.6108  0.9849
  921MOL0     H24306   6.479   6.181   1.485  1.6716 -1.5790 -0.3992
  921MOL0     H24307   6.267   6.013   1.603  0.2594  0.4475 -0.2369
  921MOL0     H24308   6.313   6.177   1.662  0.8492  1.5404 -0.9121
  921MOL0     H24309   6.185   6.092   1.390 -0.3243 -0.3946  0.3603
  921MOL0     H24310   6.250   6.257   1.417  2.5846 -1.1563 -1.1175
  921MOL0     H24311   6.027   6.108   1.559 -0.9576  1.5884  0.3849
  921MOL0     H24312   6.103   6.246   1.630  3.0193 -3.4061  2.0751
  921MOL0     H24313   5.949   6.230   1.357 -0.9741 -1.2831  1.2067
  921MOL0     H24314   6.061   6.365   1.382  2.5404 -1.3747 -0.4064
  921MOL0     H24315   5.938   6.426   1.590  0.6458 -0.6219  0.4195
  921MOL0     H24316   5.835   6.282   1.575  2.2103 -0.3004  2.8989
  921MOL0     H24317   6.594   5.624   1.369 -1.5781  0.4105 -0.0949
  921MOL0     H24318   6.593   5.376   1.381  0.3042  1.2311  0.2534
  921MOL0     H24319   6.720   5.068   1.660  1.5477 -0.8006 -2.4940
  921MOL0     H24320   6.808   4.832   1.693 -0.7675  0.6213 -0.1262
  921MOL0     H24321   5.972   4.960   2.715  0.5416 -0.9009  1.1319
  921MOL0     H24322   6.144   5.018   2.894 -1.9997  0.9558 -0.2558
  921MOL0     H24323   6.710   5.089   2.660  1.3848 -1.7537  3.0772
  921MOL0     H24324   6.755   4.921   2.462  0.5601  1.2526  0.4260
  921MOL0     H24325   6.632   4.529   2.510  0.1054 -0.6073 -0.7026
  921MOL0     H24326   6.487   4.553   2.403 -0.8993  1.4452  0.3569
  921MOL0     H24327   6.619   4.514   2.206 -0.5981  0.4645 -0.0254
  921MOL0     H24328   6.668   4.395   2.326  0.3203  0.6182 -1.9272
  921MOL0     H24329   6.867   4.556   2.388 -1.1838  0.3644 -0.7179
  921MOL0     H24330   6.834   4.632   2.239 -1.0603 -0.3553 -1.2818
  921MOL0     H24331   6.870   4.331   2.257  0.8365 -0.0375 -0.1854
  921MOL0     H24332   7.003   4.447   2.252  0.6015  2.5308 -0.9383
  921MOL0     H24333   6.824   4.416   1.849 -1.0432 -2.8598  0.9718
  921MOL0     H24334   6.441   4.667   2.600  0.1551 -0.8597  0.8260
  921MOL0     H24335   6.382   4.835   2.772 -1.0510  0.8569 -2.3315
  922MOL0     O24336   6.743   1.617   3.116 -0.1938 -0.5641 -0.2265
  922MOL0     C24337   6.858   1.641   3.078 -0.2080  0.8810 -0.2035
  922MOL0     O24338   6.897   1.678   2.950 -1.0890  0.2747  0.2768
  922MOL0     C24339   6.810   1.702   2.843 -0.3900  0.1760  0.3143
  922MOL0     C24340   6.692   1.774   2.853 -0.2067 -0.3081 -0.7342
  922MOL0     C24341   6.608   1.788   2.741  0.0252 -0.5919 -0.0617
  922MOL0     C24342   6.653   1.761   2.615  0.1978  0.6544  0.5788
  922MOL0     O24343   6.576   1.780   2.499 -0.4724  0.2720 -0.0245
  922MOL0     C24344   6.640   1.832   2.382  0.6541 -0.5759  0.0116
  922MOL0     C24345   6.550   1.940   2.313  0.3559  0.1312  0.2747
  922MOL0     C24346   6.415   1.882   2.262 -0.3505 -0.2583  0.5444
  922MOL0     C24347   6.333   1.993   2.196 -0.6992 -0.8692 -0.8951
  922MOL0     C24348   6.235   1.925   2.106  0.0929 -1.0026  0.4644
  922MOL0     C24349   6.157   2.036   2.031  0.3257  0.3337  0.2799
  922MOL0     C24350   6.051   1.978   1.935 -1.3371  0.1992  0.0623
  922MOL0     C24351   5.988   2.090   1.857  0.2293  0.7672 -0.2465
  922MOL0     N24352   5.885   2.031   1.763  0.2703 -0.7458  0.3818
  922MOL0     C24353   5.752   2.005   1.794 -0.6165 -0.3515 -0.8369
  922MOL0     C24354   5.702   1.968   1.679 -0.1877  0.2967 -0.7552
  922MOL0     C24355   5.557   1.936   1.665  0.8310 -0.4782 -0.4815
  922MOL0     C24356   5.523   1.798   1.701  0.5986  0.2660 -0.1661
  922MOL0     C24357   5.374   1.764   1.757 -0.3332  1.3620 -0.6030
  922MOL0     C24358   5.264   1.831   1.672 -0.0815 -0.6525 -0.9477
  922MOL0     O24359   5.254   1.775   1.538 -0.3962 -0.0628  0.1275
  922MOL0     C24360   5.189   1.862   1.447 -0.1125 -0.2356  0.3260
  922MOL0     C24361   5.138   1.983   1.469  0.1040 -0.5138 -0.1285
  922MOL0     C24362   5.072   2.061   1.372  0.7251 -0.2188 -0.2921
  922MOL0     C24363   5.045   2.204   1.400 -0.2235  0.6920 -1.3487
  922MOL0     C24364   5.051   2.002   1.242  0.3554  0.6234  0.3687
  922MOL0     C24365   4.984   2.071   1.121 -0.0800  0.2444  0.8256
  922MOL0     O24366   5.009   2.024   0.992  0.8374 -1.3573  0.2246
  922MOL0     C24367   4.930   2.081   0.893  0.0085 -0.3665 -0.4098
  922MOL0     C24368   4.819   2.014   0.852  0.4763 -0.2470  0.0291
  922MOL0     C24369   4.756   2.050   0.741 -0.4096  0.1098  0.4098
  922MOL0     C24370   4.800   2.159   0.656 -0.6502 -0.5268 -0.1555
  922MOL0     O24371   4.739   2.201   0.537 -0.3360 -0.4100 -0.8620
  922MOL0     C24372   4.675   2.095   0.469  0.1161 -0.2923  0.3149
  922MOL0     C24373   4.646   2.143   0.324 -0.5149 -0.4942 -0.2230
  922MOL0     C24374   4.561   2.265   0.316  0.7561 -0.4300 -0.9144
  922MOL0     C24375   4.561   2.321   0.173 -0.6497 -1.1997 -1.2101
  922MOL0     C24376   4.528   2.465   0.180  0.8341 -0.4079  0.4834
  922MOL0     C24377   4.399   2.504   0.236  0.1895 -0.0839 -0.4085
  922MOL0     C24378   4.376   2.660   0.218  0.7074  0.3635 -0.4153
  922MOL0     C24379   4.276   2.727   0.310  0.1684  0.3266  0.5912
  922MOL0    Cl24380   4.102   2.714   0.266 -0.4164  0.0524 -0.5610
  922MOL0     C24381   4.908   2.235   0.706 -0.7015  0.1378 -0.0813
  922MOL0     C24382   4.974   2.194   0.822  0.1715 -0.2149 -0.1977
  922MOL0     O24383   4.911   2.164   1.147 -0.3842 -0.4103 -0.3945
  922MOL0     C24384   5.103   1.872   1.219  0.6840 -1.0201 -0.5986
  922MOL0     C24385   5.167   1.804   1.324  0.3374 -0.8381 -0.5304
  922MOL0     N24386   5.791   1.973   1.580 -0.4642  0.8138 -0.8204
  922MOL0     N24387   5.911   2.008   1.632 -0.2025 -0.1135 -0.0129
  922MOL0     C24388   6.770   1.687   2.605  0.9238 -1.1349 -0.5290
  922MOL0     C24389   6.842   1.654   2.715 -0.0246  0.1545 -0.4032
  922MOL0     C24390   6.963   1.602   3.174 -0.2947  0.2797  0.4614
  922MOL0     C24391   6.933   1.559   3.302 -0.0224  0.4144 -0.3876
  922MOL0     C24392   7.020   1.523   3.402 -0.1453 -0.2055 -0.5436
  922MOL0     C24393   7.153   1.519   3.372 -0.1825 -0.4087  0.0072
  922MOL0     O24394   7.237   1.513   3.480 -0.2725  0.1497  0.2375
  922MOL0     C24395   7.342   1.412   3.468 -0.2243 -0.5838 -0.2959
  922MOL0     C24396   7.434   1.417   3.587  0.1609 -0.3534 -0.1480
  922MOL0     C24397   7.537   1.309   3.575 -1.0083 -0.3188 -0.2308
  922MOL0     C24398   7.642   1.319   3.686 -0.1694 -0.6320  0.0533
  922MOL0     C24399   7.698   1.186   3.703 -0.5522  0.6152 -0.6696
  922MOL0     C24400   7.750   1.076   3.722  0.9362  0.4510 -0.7758
  922MOL0     C24401   7.199   1.537   3.242 -0.0985  1.1920  0.7758
  922MOL0     C24402   7.102   1.585   3.145 -0.0683 -0.5412  0.7073
  922MOL0     H24403   6.665   1.817   2.949 -0.3219 -1.3967 -0.2610
  922MOL0     H24404   6.505   1.820   2.757  0.3825  0.7153 -0.2734
  922MOL0     H24405   6.735   1.881   2.408  0.3070  0.2997 -0.3136
  922MOL0     H24406   6.668   1.753   2.312  1.8070 -0.4195  0.2705
  922MOL0     H24407   6.513   2.020   2.378 -1.3626  1.6832 -2.4140
  922MOL0     H24408   6.612   1.979   2.231  0.2739  0.7420  0.4973
  922MOL0     H24409   6.453   1.817   2.183  0.9530  0.6494  0.3924
  922MOL0     H24410   6.369   1.843   2.354 -0.8441  1.6552  1.1372
  922MOL0     H24411   6.292   2.069   2.262  1.2412 -2.5841  2.5496
  922MOL0     H24412   6.403   2.058   2.143  0.9396  0.8245  2.9743
  922MOL0     H24413   6.284   1.861   2.032  1.6763 -2.0236  2.3012
  922MOL0     H24414   6.173   1.859   2.167  2.7014 -5.9246 -1.6291
  922MOL0     H24415   6.109   2.110   2.096  1.1137  0.4582  0.7438
  922MOL0     H24416   6.232   2.096   1.979  1.9392 -1.6237  0.2387
  922MOL0     H24417   6.089   1.915   1.854 -1.0972 -0.4624  0.6784
  922MOL0     H24418   5.968   1.919   1.978 -1.9956  0.8415 -0.3116
  922MOL0     H24419   6.071   2.135   1.802  0.7335  1.5076  1.0629
  922MOL0     H24420   5.937   2.163   1.920  0.3328 -1.4429  2.6033
  922MOL0     H24421   5.703   2.017   1.890 -0.3223 -1.8735 -0.4618
  922MOL0     H24422   5.490   1.994   1.729 -1.9117 -1.0995 -2.5942
  922MOL0     H24423   5.537   1.959   1.560  5.1083  0.7827 -1.2085
  922MOL0     H24424   5.601   1.771   1.772  2.7545  1.0106 -2.1296
  922MOL0     H24425   5.539   1.722   1.625 -1.5238 -2.1085  1.5714
  922MOL0     H24426   5.369   1.797   1.861 -1.0003 -0.2954 -0.0727
  922MOL0     H24427   5.347   1.658   1.765 -2.3428  1.9470  1.8449
  922MOL0     H24428   5.285   1.939   1.675 -3.0271 -0.0281  0.1111
  922MOL0     H24429   5.165   1.820   1.716 -0.5625 -0.8513 -2.0600
  922MOL0     H24430   5.141   2.028   1.568 -1.1195  1.3369 -0.8746
  922MOL0     H24431   4.937   2.219   1.404 -0.3166 -0.0978 -0.7184
  922MOL0     H24432   5.094   2.229   1.495 -1.3303  0.1401 -0.6147
  922MOL0     H24433   5.104   2.275   1.340  1.4504  2.0381  1.6500
  922MOL0     H24434   4.765   1.933   0.901 -1.8432  1.0895 -0.1652
  922MOL0     H24435   4.670   1.986   0.722 -2.7990  1.1406  5.8747
  922MOL0     H24436   4.744   2.011   0.465  3.4239  2.2810 -1.5114
  922MOL0     H24437   4.581   2.080   0.524  0.6060 -0.0770  1.2184
  922MOL0     H24438   4.741   2.172   0.277 -0.6792 -1.3673 -1.1347
  922MOL0     H24439   4.595   2.068   0.263 -0.1915  0.9849 -2.4099
  922MOL0     H24440   4.591   2.341   0.389 -0.7971 -0.9035  0.2937
  922MOL0     H24441   4.461   2.232   0.346  0.7330  0.5513  0.1752
  922MOL0     H24442   4.649   2.313   0.108  0.2256 -1.0959 -0.0567
  922MOL0     H24443   4.481   2.269   0.119 -1.1230  0.9660 -2.7362
  922MOL0     H24444   4.536   2.510   0.080  0.9466  0.8069  1.0208
  922MOL0     H24445   4.598   2.518   0.245  1.9001  1.4299 -1.9955
  922MOL0     H24446   4.316   2.448   0.193 -0.4349  1.0583 -0.7091
  922MOL0     H24447   4.392   2.483   0.343 -3.0468 -1.9178 -0.8539
  922MOL0     H24448   4.335   2.681   0.119  0.1525  3.6449  0.3881
  922MOL0     H24449   4.468   2.718   0.222 -0.3605  2.1562 -0.8160
  922MOL0     H24450   4.298   2.834   0.313 -3.9993  1.5701 -3.2475
  922MOL0     H24451   4.294   2.700   0.415  0.8901 -2.2006 -0.1110
  922MOL0     H24452   4.949   2.311   0.641  0.7290 -0.7407 -0.2636
  922MOL0     H24453   5.060   2.248   0.862 -1.6532  0.1549  3.7633
  922MOL0     H24454   5.093   1.830   1.120  1.3461  0.0453 -1.1412
  922MOL0     H24455   5.203   1.703   1.309 -2.1492 -2.1779  1.8891
  922MOL0     H24456   6.793   1.656   2.503  2.3372  1.3073 -1.0246
  922MOL0     H24457   6.930   1.592   2.697  2.6014  3.2518  0.7412
  922MOL0     H24458   6.830   1.565   3.335 -0.2675  1.3799 -1.2660
  922MOL0     H24459   6.994   1.486   3.501  2.8335  2.5597  1.4832
  922MOL0     H24460   7.295   1.313   3.472  2.7453 -2.0811  0.4558
  922MOL0     H24461   7.398   1.412   3.374  0.9285  1.0487  0.3447
  922MOL0     H24462   7.377   1.405   3.680  0.3486 -1.4801 -0.1693
  922MOL0     H24463   7.486   1.513   3.577  1.7336 -1.2107 -0.4295
  922MOL0     H24464   7.594   1.317   3.482 -0.4151 -1.2909  0.0346
  922MOL0     H24465   7.503   1.205   3.570  1.7197 -1.2481 -2.3532
  922MOL0     H24466   7.598   1.365   3.775  0.9745 -0.0642  0.3446
  922MOL0     H24467   7.725   1.378   3.647  0.5143 -1.7988 -0.2866
  922MOL0     H24468   7.778   0.975   3.746  0.3633  0.5625  0.4242
  922MOL0     H24469   7.303   1.528   3.212 -1.1872  0.3621 -3.4324
  922MOL0     H24470   7.138   1.598   3.044 -0.4661  1.7676  0.8038
  923MOL0     O24471  11.266   9.322  10.347  0.2444  0.1553  0.9328
  923MOL0     C24472  11.148   9.319  10.382 -0.2257 -0.6132 -0.1537
  923MOL0     O24473  11.096   9.242  10.483  0.5424 -0.8323 -0.4486
  923MOL0     C24474  11.152   9.138  10.555  0.5218 -0.0898 -0.5741
  923MOL0     C24475  11.072   9.032  10.587 -0.7103  0.0007  0.2247
  923MOL0     C24476  11.118   8.914  10.655  1.1348  0.1375  0.5166
  923MOL0     C24477  11.251   8.903  10.688 -0.2122  0.3386  1.2744
  923MOL0     O24478  11.292   8.787  10.752  0.0319 -0.0552 -0.7933
  923MOL0     C24479  11.394   8.801  10.848 -0.2871 -0.0088  0.1587
  923MOL0     C24480  11.530   8.755  10.782 -0.5963  0.4712 -0.2164
  923MOL0     C24481  11.645   8.793  10.874  1.2168 -0.0954 -1.0120
  923MOL0     C24482  11.778   8.810  10.809 -0.6236  0.6249  0.4998
  923MOL0     C24483  11.867   8.676  10.794  0.9383 -1.0437 -0.3300
  923MOL0     C24484  11.834   8.598  10.663  0.2944  0.1555  0.5125
  923MOL0     C24485  11.904   8.463  10.661  0.3213 -0.5179 -0.6648
  923MOL0     C24486  11.886   8.386  10.532  0.2871  0.2280 -0.2364
  923MOL0     N24487  11.946   8.252  10.537 -0.6623 -0.2415 -0.2767
  923MOL0     C24488  11.955   8.158  10.643  0.1759 -0.4589 -0.2940
  923MOL0     C24489  12.035   8.061  10.599 -0.2826 -1.5860 -0.7565
  923MOL0     C24490  12.073   7.947  10.677  0.6624  0.1499 -0.3000
  923MOL0     C24491  11.951   7.855  10.715  0.2975  0.6083 -0.2764
  923MOL0     C24492  11.870   7.797  10.592  1.2010  0.0179 -0.6045
  923MOL0     C24493  11.794   7.894  10.502  0.2732 -0.2303  0.8032
  923MOL0     O24494  11.708   7.982  10.582  0.6789 -0.0083 -0.9878
  923MOL0     C24495  11.642   8.086  10.529  0.2431 -0.6482  0.7459
  923MOL0     C24496  11.590   8.184  10.616  0.8833  0.3037  0.2576
  923MOL0     C24497  11.537   8.305  10.570 -0.4731 -0.2833  0.6074
  923MOL0     C24498  11.480   8.397  10.676  0.4173  0.3072 -0.4317
  923MOL0     C24499  11.519   8.325  10.432  0.4251 -0.3706 -0.1412
  923MOL0     C24500  11.460   8.449  10.375 -0.2522 -0.9119  0.2554
  923MOL0     O24501  11.503   8.568  10.432  0.5544  0.2300  0.1928
  923MOL0     C24502  11.492   8.675  10.345  1.0151  0.6119 -0.6004
  923MOL0     C24503  11.581   8.701  10.249  0.5845 -0.0856 -0.7405
  923MOL0     C24504  11.566   8.813  10.163 -0.2798 -0.0945 -0.5243
  923MOL0     C24505  11.457   8.906  10.185  0.6151 -0.8029 -0.3656
  923MOL0     O24506  11.434   9.017  10.098  0.6127  0.2025 -0.6141
  923MOL0     C24507  11.545   9.108  10.087  0.4930  0.1259  1.4765
  923MOL0     C24508  11.501   9.244  10.103 -0.0610 -0.2576  0.6299
  923MOL0     C24509  11.404   9.286  10.002 -0.3891 -0.0398 -0.3943
  923MOL0     C24510  11.355   9.426  10.020  0.3278  0.0271 -0.1312
  923MOL0     C24511  11.246   9.452   9.925 -0.5621 -0.1284 -0.7332
  923MOL0     C24512  11.221   9.597   9.887  0.0251  0.1496  1.5355
  923MOL0     C24513  11.091   9.603   9.806  0.4819 -0.5668 -0.4205
  923MOL0     C24514  11.066   9.753   9.768 -0.5960 -0.6894  0.9240
  923MOL0    Cl24515  10.925   9.752   9.647  0.0278 -0.1473 -0.0567
  923MOL0     C24516  11.366   8.872  10.281  0.1787  0.6198 -0.1148
  923MOL0     C24517  11.383   8.754  10.368  0.2352  0.4096 -0.6771
  923MOL0     O24518  11.378   8.429  10.286 -0.3468 -0.5450  0.4076
  923MOL0     C24519  11.570   8.231  10.344 -0.2593  0.0460  0.3538
  923MOL0     C24520  11.624   8.110  10.392 -0.9520  0.4411  1.0779
  923MOL0     N24521  12.078   8.093  10.473 -0.3855 -0.0672 -0.1754
  923MOL0     N24522  12.022   8.206  10.431  0.7383  0.0695  0.3123
  923MOL0     C24523  11.339   8.995  10.642 -0.4864 -0.4567  0.7988
  923MOL0     C24524  11.293   9.114  10.574  0.2918 -0.3117 -1.2484
  923MOL0     C24525  11.049   9.409  10.325  0.8160  0.2121  0.2632
  923MOL0     C24526  10.924   9.349  10.299  0.1123 -1.2832  0.6018
  923MOL0     C24527  10.820   9.432  10.237 -0.5288 -0.0738 -0.2695
  923MOL0     C24528  10.845   9.562  10.196  0.1203 -0.1825  0.5778
  923MOL0     O24529  10.736   9.617  10.140 -1.0720 -0.5709  0.1170
  923MOL0     C24530  10.751   9.744  10.082 -0.1092 -0.8084 -0.0812
  923MOL0     C24531  10.611   9.806  10.046  0.0017 -0.1148  0.2137
  923MOL0     C24532  10.638   9.948   9.979 -0.1667  0.1818  0.4317
  923MOL0     C24533  10.520  10.026   9.925 -0.1549 -0.1245  0.5413
  923MOL0     C24534  10.424  10.078  10.028  0.3864  0.8501  0.8906
  923MOL0     C24535  10.342  10.115  10.109 -0.0572 -0.5116  0.0869
  923MOL0     C24536  10.974   9.618  10.215  0.2630  0.1945  0.1052
  923MOL0     C24537  11.079   9.543  10.280 -0.2614 -0.3357 -0.3614
  923MOL0     H24538  10.972   9.044  10.545 -0.9738  0.5924  1.0017
  923MOL0     H24539  11.052   8.828  10.662  3.5406 -1.9443 -0.6612
  923MOL0     H24540  11.413   8.902  10.886  1.8114 -0.2538 -0.1169
  923MOL0     H24541  11.376   8.729  10.928 -1.1197 -0.4135 -0.3772
  923MOL0     H24542  11.517   8.646  10.775 -0.5233  0.3861  0.8657
  923MOL0     H24543  11.551   8.791  10.681  1.4884  2.6577  0.9015
  923MOL0     H24544  11.614   8.883  10.929 -1.5082 -2.6369  2.0842
  923MOL0     H24545  11.648   8.720  10.956  2.9615  1.2737  0.2007
  923MOL0     H24546  11.775   8.851  10.708  0.7431  0.0741  0.2080
  923MOL0     H24547  11.832   8.888  10.866  0.2087 -0.6785  1.5597
  923MOL0     H24548  11.975   8.696  10.797  1.0727 -1.2526 -2.4576
  923MOL0     H24549  11.845   8.619  10.885  2.9957 -1.9217 -0.3440
  923MOL0     H24550  11.728   8.577  10.648  0.4209  1.3043 -2.9089
  923MOL0     H24551  11.875   8.655  10.579  1.9773 -0.7583  0.6777
  923MOL0     H24552  12.013   8.475  10.671  0.3820 -0.7005 -1.0604
  923MOL0     H24553  11.861   8.406  10.743  1.6598  0.0556  0.4646
  923MOL0     H24554  11.937   8.440  10.452  0.0731  0.7557 -0.0214
  923MOL0     H24555  11.779   8.382  10.508  0.1240 -1.2871  0.5683
  923MOL0     H24556  11.910   8.159  10.742  2.9664 -0.5542  1.0827
  923MOL0     H24557  12.149   7.896  10.617  1.6430  2.9083 -1.5731
  923MOL0     H24558  12.120   7.982  10.769 -0.7178  1.3861 -0.0290
  923MOL0     H24559  11.880   7.908  10.780 -1.1684 -0.0484 -1.2806
  923MOL0     H24560  11.997   7.777  10.776  0.7746  2.3133  1.6491
  923MOL0     H24561  11.792   7.731  10.631 -0.3638  2.2501  0.2675
  923MOL0     H24562  11.942   7.741  10.532  0.3436 -1.2266 -0.4978
  923MOL0     H24563  11.735   7.836  10.430 -1.4420  3.9655 -1.5462
  923MOL0     H24564  11.864   7.946  10.436  0.6542 -1.9790 -0.2107
  923MOL0     H24565  11.593   8.176  10.725 -3.2250 -2.0467  0.4191
  923MOL0     H24566  11.554   8.408  10.756 -1.5699 -0.3045  1.5954
  923MOL0     H24567  11.448   8.498  10.651  2.9394  1.3172  0.1281
  923MOL0     H24568  11.386   8.353  10.711  0.2156 -1.5749 -2.9957
  923MOL0     H24569  11.664   8.633  10.236 -0.1315 -1.2500  0.4898
  923MOL0     H24570  11.629   8.828  10.076  0.8191  0.6027  0.3686
  923MOL0     H24571  11.633   9.092  10.150  0.3536 -0.1819  1.5956
  923MOL0     H24572  11.582   9.106   9.984 -3.0583 -0.7077  0.0551
  923MOL0     H24573  11.467   9.255  10.206  2.4945  0.1360  1.5093
  923MOL0     H24574  11.590   9.307  10.087 -1.1836  0.7047 -2.3891
  923MOL0     H24575  11.312   9.228  10.006 -0.2064 -0.2741  0.8134
  923MOL0     H24576  11.449   9.273   9.903 -1.9682 -2.4193 -0.8757
  923MOL0     H24577  11.321   9.435  10.123 -0.4843 -0.2877 -0.3632
  923MOL0     H24578  11.435   9.500  10.010  0.5354  0.1122  1.8300
  923MOL0     H24579  11.160   9.396   9.964  0.4704 -2.2462 -1.3530
  923MOL0     H24580  11.268   9.399   9.832 -0.8679 -2.4338  0.4483
  923MOL0     H24581  11.206   9.662   9.974  0.4552 -1.0438  2.5314
  923MOL0     H24582  11.303   9.638   9.827 -2.8224  0.6685 -2.4167
  923MOL0     H24583  11.011   9.556   9.864  1.4859  0.1704  1.6807
  923MOL0     H24584  11.101   9.554   9.709  0.9580  1.7166 -1.6119
  923MOL0     H24585  11.154   9.790   9.713 -0.7245  0.9483  1.7970
  923MOL0     H24586  11.056   9.812   9.859 -1.2418 -0.4490  0.7004
  923MOL0     H24587  11.282   8.939  10.296 -0.2924  0.0313 -0.0753
  923MOL0     H24588  11.314   8.719  10.444  1.1357 -1.6608 -0.7427
  923MOL0     H24589  11.575   8.231  10.235 -0.0232 -0.8268  0.3593
  923MOL0     H24590  11.662   8.043  10.316  0.2724  1.2567  0.9525
  923MOL0     H24591  11.445   8.986  10.661  0.0753  0.1538 -1.6873
  923MOL0     H24592  11.360   9.192  10.540 -2.2917  2.7020  0.0100
  923MOL0     H24593  10.897   9.248  10.328 -0.8823 -0.6199  2.1118
  923MOL0     H24594  10.717   9.397  10.236 -0.4670 -0.2842  0.1595
  923MOL0     H24595  10.799   9.819  10.146 -0.0591  1.1028 -2.2107
  923MOL0     H24596  10.817   9.734   9.995  0.5037  0.6463  0.1864
  923MOL0     H24597  10.553   9.828  10.136  1.6180  1.1934  0.9940
  923MOL0     H24598  10.550   9.742   9.982 -1.1331  0.6029  0.5338
  923MOL0     H24599  10.712   9.930   9.901  0.1021  1.8506  0.2566
  923MOL0     H24600  10.697  10.005  10.052  2.1228 -0.8822 -0.5168
  923MOL0     H24601  10.461   9.968   9.853 -1.1348  0.8850  0.5173
  923MOL0     H24602  10.552  10.111   9.863  0.2044 -0.0687  0.7980
  923MOL0     H24603  10.273  10.139  10.187  0.4513 -2.6948  1.3151
  923MOL0     H24604  10.996   9.720  10.185  0.7345 -0.3344 -1.4503
  923MOL0     H24605  11.169   9.593  10.314  0.1646 -1.4995  0.2815
  924MOL0     O24606   9.963   7.535   4.132  0.0965 -0.1961 -0.7709
  924MOL0     C24607   9.955   7.574   4.013  0.0045  0.1223  0.4310
  924MOL0     O24608  10.065   7.599   3.928  0.2880  0.2155  0.2815
  924MOL0     C24609  10.188   7.597   3.972 -0.2504  0.2810 -0.0962
  924MOL0     C24610  10.257   7.721   3.973  0.3841  0.3354 -0.6917
  924MOL0     C24611  10.383   7.719   4.026 -0.1486 -0.0700  0.5298
  924MOL0     C24612  10.446   7.602   4.077  0.1346 -0.5480  0.0250
  924MOL0     O24613  10.567   7.599   4.137 -0.2582 -0.0081 -0.7814
  924MOL0     C24614  10.652   7.717   4.129 -0.4345  0.6220  0.2171
  924MOL0     C24615  10.805   7.662   4.120  0.7856  0.5175 -0.2735
  924MOL0     C24616  10.876   7.733   4.004  0.2377  0.2958  0.1044
  924MOL0     C24617  10.994   7.648   3.952 -0.0616 -0.6500  0.8812
  924MOL0     C24618  11.102   7.742   3.889 -0.6648 -0.3045 -0.8235
  924MOL0     C24619  11.050   7.829   3.773 -0.0098  0.0517  0.5510
  924MOL0     C24620  11.164   7.917   3.717  0.7005 -0.0830  0.4689
  924MOL0     C24621  11.107   7.992   3.596  0.8415  0.4571  0.1563
  924MOL0     N24622  11.006   8.096   3.624 -0.3138 -1.1106  0.0413
  924MOL0     C24623  10.967   8.191   3.528 -0.0625  0.1251 -0.1518
  924MOL0     C24624  10.864   8.261   3.588  0.0623  0.5177  0.3647
  924MOL0     C24625  10.794   8.385   3.539  1.3452 -0.3901  0.3299
  924MOL0     C24626  10.690   8.353   3.435  0.2348 -0.1489  0.4235
  924MOL0     C24627  10.561   8.303   3.493 -0.8995 -0.0852  0.1003
  924MOL0     C24628  10.465   8.257   3.385 -1.3323 -0.2311 -0.2176
  924MOL0     O24629  10.339   8.222   3.447  0.4603 -0.5952  0.3461
  924MOL0     C24630  10.221   8.227   3.368 -0.3315 -1.0050 -0.4297
  924MOL0     C24631  10.114   8.290   3.425 -0.1959 -0.4310 -0.3141
  924MOL0     C24632   9.999   8.334   3.352 -0.7689  0.4863 -0.1909
  924MOL0     C24633   9.898   8.416   3.423 -0.5367 -0.2083 -0.5460
  924MOL0     C24634   9.991   8.292   3.226  0.9713  0.0728  0.6003
  924MOL0     C24635   9.867   8.324   3.138 -0.4552  0.4929 -0.1738
  924MOL0     O24636   9.883   8.423   3.045 -0.0900 -0.5717  1.3001
  924MOL0     C24637   9.776   8.492   2.990 -0.0845 -0.2319 -0.4579
  924MOL0     C24638   9.637   8.483   3.043  0.0420  0.1916  0.0989
  924MOL0     C24639   9.542   8.580   2.993  0.4945  0.2096  0.6694
  924MOL0     C24640   9.570   8.678   2.903  0.0256 -0.5766 -0.0688
  924MOL0     O24641   9.475   8.772   2.885  0.4258  0.1669 -0.2119
  924MOL0     C24642   9.525   8.904   2.876 -0.0013 -0.8087  0.3373
  924MOL0     C24643   9.592   8.952   3.008  0.1478  0.3991 -1.0002
  924MOL0     C24644   9.464   8.972   3.103 -0.5497 -0.6086  0.1860
  924MOL0     C24645   9.398   9.103   3.068  0.4134 -0.9448  0.9099
  924MOL0     C24646   9.301   9.138   3.175  0.3697  0.2007  0.6302
  924MOL0     C24647   9.219   9.255   3.127 -0.8125 -0.9448  0.1369
  924MOL0     C24648   9.116   9.302   3.234  0.3240  0.1851  0.3506
  924MOL0     C24649   8.977   9.266   3.215 -0.3610  0.3690  0.7172
  924MOL0    Cl24650   8.903   9.281   3.379 -0.5344 -0.3237 -0.1396
  924MOL0     C24651   9.704   8.666   2.844  0.1588 -0.7561 -1.0330
  924MOL0     C24652   9.804   8.579   2.885 -0.2177 -0.7171  0.1888
  924MOL0     O24653   9.774   8.248   3.157 -0.1963  0.2449  0.0403
  924MOL0     C24654  10.095   8.222   3.169 -0.4202 -0.5941  0.6284
  924MOL0     C24655  10.218   8.195   3.230  0.3135 -0.2193 -0.6814
  924MOL0     N24656  10.853   8.212   3.715  0.1818 -0.3444  0.6892
  924MOL0     N24657  10.938   8.111   3.736  0.7853  0.1546  0.2805
  924MOL0     C24658  10.384   7.482   4.061  0.1655 -0.0963 -0.3016
  924MOL0     C24659  10.255   7.481   4.010 -0.5024  0.9205 -0.0426
  924MOL0     C24660   9.824   7.578   3.942 -1.0941 -0.4554  0.3198
  924MOL0     C24661   9.807   7.651   3.824 -0.2215  0.1033  0.1023
  924MOL0     C24662   9.684   7.663   3.762 -0.4359  0.0952  0.2560
  924MOL0     C24663   9.569   7.604   3.815 -0.6171  0.5228 -0.1126
  924MOL0     O24664   9.451   7.610   3.749 -0.7548 -0.5002  0.0992
  924MOL0     C24665   9.329   7.610   3.827  0.3834  0.4036  0.5206
  924MOL0     C24666   9.221   7.685   3.741 -0.6126  0.1247  0.5391
  924MOL0     C24667   9.088   7.678   3.804  0.2847 -0.2492  0.4421
  924MOL0     C24668   8.971   7.700   3.704  0.9170 -0.0554 -0.2712
  924MOL0     C24669   8.952   7.573   3.629  0.6576  0.4982 -0.2612
  924MOL0     C24670   8.949   7.473   3.562  0.0464 -0.3189 -0.7328
  924MOL0     C24671   9.582   7.536   3.935 -0.3060 -0.0575  0.5658
  924MOL0     C24672   9.711   7.530   4.001  0.0312  0.6557  0.3646
  924MOL0     H24673  10.209   7.811   3.935 -2.3315 -0.7606 -0.0822
  924MOL0     H24674  10.433   7.816   4.025  0.7203 -0.4934  1.4119
  924MOL0     H24675  10.635   7.772   4.036  1.4501 -0.0313 -0.5554
  924MOL0     H24676  10.648   7.778   4.220  1.8051  0.0135  0.7953
  924MOL0     H24677  10.855   7.698   4.211  1.7376  2.3779 -1.4658
  924MOL0     H24678  10.799   7.553   4.121  0.5131  0.4841  2.1836
  924MOL0     H24679  10.808   7.754   3.921  3.3531  1.0702 -2.4389
  924MOL0     H24680  10.919   7.829   4.033  1.2901  0.0868 -0.7239
  924MOL0     H24681  11.035   7.588   4.034 -2.9292 -1.0583  2.1329
  924MOL0     H24682  10.961   7.573   3.880  2.6880 -3.2742  2.1125
  924MOL0     H24683  11.139   7.816   3.961 -0.8535 -0.5456 -0.4764
  924MOL0     H24684  11.184   7.675   3.864  0.2934  0.7466 -0.6048
  924MOL0     H24685  11.015   7.759   3.697  0.6354 -2.0720  2.1214
  924MOL0     H24686  10.977   7.900   3.815  1.0769  1.6354 -0.1392
  924MOL0     H24687  11.206   7.987   3.789  1.5834  1.7129 -1.6845
  924MOL0     H24688  11.250   7.860   3.681  0.1201  0.9298 -2.8543
  924MOL0     H24689  11.075   7.912   3.530  2.1338 -0.4028  0.5418
  924MOL0     H24690  11.199   8.033   3.555  0.2849  2.4372  0.7561
  924MOL0     H24691  11.018   8.219   3.436 -2.0938  3.5679 -0.3878
  924MOL0     H24692  10.752   8.445   3.620  2.4265  3.7446 -1.8531
  924MOL0     H24693  10.875   8.446   3.498 -2.9430  3.0857 -4.3660
  924MOL0     H24694  10.733   8.279   3.367  2.6065  1.0621  0.4869
  924MOL0     H24695  10.677   8.450   3.385  2.0709 -0.8423 -1.5625
  924MOL0     H24696  10.515   8.391   3.541  0.7195  0.9906 -0.2417
  924MOL0     H24697  10.582   8.222   3.562 -3.3573 -0.2391  0.7453
  924MOL0     H24698  10.507   8.177   3.324 -0.2744 -0.2454  0.5150
  924MOL0     H24699  10.433   8.341   3.322 -1.1666 -0.6688 -0.9006
  924MOL0     H24700  10.132   8.319   3.528  1.2863 -0.2876 -0.5898
  924MOL0     H24701   9.905   8.393   3.529  0.1046  0.6193 -0.3994
  924MOL0     H24702   9.918   8.523   3.410 -3.7417  0.8371  1.7936
  924MOL0     H24703   9.792   8.402   3.398 -0.3395  2.4165 -3.6016
  924MOL0     H24704   9.599   8.424   3.126 -0.2405  2.8606  2.0279
  924MOL0     H24705   9.447   8.571   3.047  0.8904  2.2412  1.8087
  924MOL0     H24706   9.591   8.913   2.790 -2.4660  0.8575 -1.5112
  924MOL0     H24707   9.445   8.974   2.848  2.1971  2.9060  2.4808
  924MOL0     H24708   9.652   8.878   3.063 -1.9910  0.0086  0.9515
  924MOL0     H24709   9.643   9.047   2.988  1.1111  0.3741  0.9945
  924MOL0     H24710   9.506   8.974   3.204  2.6882  0.5330 -1.0488
  924MOL0     H24711   9.395   8.887   3.100 -0.3039 -0.8052 -2.5588
  924MOL0     H24712   9.473   9.173   3.029  1.8306 -1.3149  2.8505
  924MOL0     H24713   9.344   9.094   2.973  2.4668  1.5526 -0.6496
  924MOL0     H24714   9.356   9.159   3.267  3.0770 -2.0246 -0.3371
  924MOL0     H24715   9.237   9.049   3.181  0.9694 -0.2208  0.8529
  924MOL0     H24716   9.282   9.343   3.108 -1.4437 -0.5156  0.0058
  924MOL0     H24717   9.177   9.229   3.029 -0.2088 -1.2277 -0.0501
  924MOL0     H24718   9.107   9.411   3.233 -4.9120  0.1156  3.6023
  924MOL0     H24719   9.160   9.278   3.331  0.1589  2.2487  0.9912
  924MOL0     H24720   8.977   9.164   3.176 -1.0213 -0.6594  3.1734
  924MOL0     H24721   8.940   9.328   3.133  0.5267  0.9607  0.7448
  924MOL0     H24722   9.724   8.732   2.760  0.5817  1.1981  0.5278
  924MOL0     H24723   9.898   8.583   2.831 -0.2278 -1.3349  0.1273
  924MOL0     H24724  10.086   8.168   3.076 -1.0998 -2.2224  1.5860
  924MOL0     H24725  10.291   8.138   3.173  0.9516  0.6983 -0.8097
  924MOL0     H24726  10.433   7.393   4.098  2.8633  1.7967  1.0161
  924MOL0     H24727  10.212   7.382   4.015  2.1054 -0.5003 -2.6435
  924MOL0     H24728   9.889   7.715   3.794 -1.4330  1.1802 -1.0397
  924MOL0     H24729   9.675   7.709   3.664  0.2560 -1.4638 -0.5822
  924MOL0     H24730   9.302   7.505   3.840 -2.0116  1.0656  1.3912
  924MOL0     H24731   9.338   7.658   3.925 -2.7699  0.2507  0.9670
  924MOL0     H24732   9.212   7.632   3.646  0.7695 -0.7957  0.8914
  924MOL0     H24733   9.243   7.792   3.729 -1.0723  0.4571  2.3785
  924MOL0     H24734   9.084   7.762   3.874 -3.9450  0.1564 -0.0414
  924MOL0     H24735   9.060   7.585   3.854  1.3630 -1.6314 -1.3817
  924MOL0     H24736   8.981   7.790   3.643 -1.8663 -0.1639 -1.0025
  924MOL0     H24737   8.883   7.706   3.769 -0.4588 -0.9983 -1.9735
  924MOL0     H24738   8.937   7.375   3.519 -2.5450  0.6255 -2.4574
  924MOL0     H24739   9.496   7.486   3.978  0.6859 -1.1419  1.3777
  924MOL0     H24740   9.722   7.477   4.095  0.2586  2.0494  1.1519
  925MOL0     O24741   9.204   0.569   4.551 -0.0827  0.7242  0.1688
  925MOL0     C24742   9.118   0.496   4.495 -0.7398  0.0056 -0.2244
  925MOL0     O24743   9.140   0.420   4.377  0.3424 -0.1265  0.0292
  925MOL0     C24744   9.246   0.408   4.291  0.2872  0.1959  0.3124
  925MOL0     C24745   9.231   0.336   4.179  0.2210  0.3152  0.1233
  925MOL0     C24746   9.328   0.317   4.090 -0.4518 -0.4288 -0.4446
  925MOL0     C24747   9.465   0.357   4.117 -0.1382 -0.4781  0.0471
  925MOL0     O24748   9.579   0.339   4.034 -0.5566 -0.3053  0.1489
  925MOL0     C24749   9.576   0.257   3.918  0.3187 -0.2258  0.5718
  925MOL0     C24750   9.542   0.337   3.797 -1.0579  0.0871  0.3652
  925MOL0     C24751   9.570   0.266   3.665 -0.1843 -0.2970 -0.5180
  925MOL0     C24752   9.483   0.135   3.644 -1.1590  0.0203 -0.8196
  925MOL0     C24753   9.489   0.086   3.501  0.6420 -0.3937 -0.6347
  925MOL0     C24754   9.614   0.018   3.470 -0.5064 -0.0011  0.0924
  925MOL0     C24755   9.630   0.000   3.314  0.7636  0.2819 -0.1045
  925MOL0     C24756   9.778  -0.021   3.279 -0.1514  0.1463  0.6416
  925MOL0     N24757   9.813  -0.162   3.310 -0.5103  0.2979 -0.2487
  925MOL0     C24758   9.884  -0.212   3.417 -0.7353  0.4071 -0.3888
  925MOL0     C24759   9.902  -0.350   3.393  0.1498  0.6404 -0.5409
  925MOL0     C24760  10.004  -0.452   3.445  0.9585  0.6232 -0.1794
  925MOL0     C24761  10.018  -0.446   3.599 -0.3275  0.1447  0.4584
  925MOL0     C24762   9.895  -0.509   3.667  0.4831 -0.2278  0.4633
  925MOL0     C24763   9.912  -0.517   3.815  0.9463 -0.2799 -0.0010
  925MOL0     O24764   9.787  -0.543   3.880 -0.4486  0.3702  0.6961
  925MOL0     C24765   9.689  -0.454   3.897  0.3142  0.5658 -0.8313
  925MOL0     C24766   9.557  -0.502   3.943 -0.7185 -0.6770 -0.2268
  925MOL0     C24767   9.456  -0.407   3.985 -1.5516 -0.1881  0.1487
  925MOL0     C24768   9.333  -0.453   4.062 -0.6270 -0.1562 -0.2915
  925MOL0     C24769   9.480  -0.262   3.963 -0.4835  0.0601 -0.9291
  925MOL0     C24770   9.380  -0.157   3.996 -0.1725  0.0958  0.3648
  925MOL0     O24771   9.281  -0.166   4.097 -0.5625  0.0191  0.4372
  925MOL0     C24772   9.175  -0.078   4.108  0.3795  0.7998  0.4741
  925MOL0     C24773   9.094  -0.095   4.222  0.9940  0.3836 -0.3268
  925MOL0     C24774   8.988  -0.007   4.251  0.5663  0.6917 -0.4858
  925MOL0     C24775   8.954   0.096   4.157  0.8838  1.6348  0.4696
  925MOL0     O24776   8.861   0.189   4.196  0.0487  0.5999 -0.4316
  925MOL0     C24777   8.793   0.280   4.103 -0.7988 -0.1059 -0.3821
  925MOL0     C24778   8.708   0.377   4.174 -0.3171 -0.6690 -0.2332
  925MOL0     C24779   8.595   0.315   4.258 -0.8656  0.7750  0.3903
  925MOL0     C24780   8.501   0.431   4.302  1.0643 -0.4512 -0.0702
  925MOL0     C24781   8.393   0.393   4.405 -0.0329 -0.1529 -0.2328
  925MOL0     C24782   8.297   0.293   4.347  0.8789  0.2131  0.3602
  925MOL0     C24783   8.183   0.271   4.448  0.0696  0.5732  0.3812
  925MOL0     C24784   8.079   0.171   4.393  0.1896 -0.9465  0.5427
  925MOL0    Cl24785   7.964   0.136   4.521 -0.0366 -0.1893 -0.0762
  925MOL0     C24786   9.020   0.100   4.036 -0.1005 -0.0259  0.6506
  925MOL0     C24787   9.129   0.019   4.010  0.3820  0.3575 -0.2676
  925MOL0     O24788   9.392  -0.064   3.918  0.8288  0.1172 -0.6562
  925MOL0     C24789   9.599  -0.225   3.905 -0.3482 -0.2888 -0.2563
  925MOL0     C24790   9.699  -0.318   3.871  0.7585  0.0936 -0.2769
  925MOL0     N24791   9.814  -0.377   3.285 -0.3122  0.0361  0.6734
  925MOL0     N24792   9.763  -0.267   3.240 -0.6057  0.9680  0.3395
  925MOL0     C24793   9.480   0.425   4.245  0.2103 -0.2279 -1.1322
  925MOL0     C24794   9.373   0.452   4.325  0.2459  0.1575 -0.2636
  925MOL0     C24795   8.982   0.487   4.557 -0.5155  0.4777  0.6725
  925MOL0     C24796   8.946   0.568   4.664  0.4924 -0.3091 -0.3395
  925MOL0     C24797   8.836   0.538   4.740 -0.0560 -0.5150 -0.5554
  925MOL0     C24798   8.747   0.429   4.712  0.0686 -0.8607  0.2808
  925MOL0     O24799   8.645   0.394   4.796  0.0706  0.4779 -0.1754
  925MOL0     C24800   8.571   0.493   4.869 -0.2164  0.5443  0.6451
  925MOL0     C24801   8.440   0.446   4.923 -0.1335  0.7095 -0.8575
  925MOL0     C24802   8.329   0.424   4.819 -0.0034  0.4739 -0.3482
  925MOL0     C24803   8.259   0.554   4.766 -0.0670 -0.7721 -0.6640
  925MOL0     C24804   8.195   0.623   4.879 -0.2643 -0.2753  0.5020
  925MOL0     C24805   8.121   0.654   4.968  0.5249  0.4418 -0.2930
  925MOL0     C24806   8.779   0.359   4.600  0.0870 -0.6373 -0.2655
  925MOL0     C24807   8.894   0.388   4.522 -0.1317 -0.2663  0.0900
  925MOL0     H24808   9.138   0.294   4.144  0.9071  0.3354 -1.8141
  925MOL0     H24809   9.311   0.274   3.991 -0.5556 -1.4231 -0.0065
  925MOL0     H24810   9.673   0.206   3.911 -1.1418 -3.1508  0.1846
  925MOL0     H24811   9.504   0.176   3.930 -0.4224  0.2851 -0.3320
  925MOL0     H24812   9.434   0.359   3.796 -1.4087 -1.5101  0.6815
  925MOL0     H24813   9.590   0.435   3.793  3.6052 -2.0072 -2.0120
  925MOL0     H24814   9.552   0.348   3.594 -2.0947 -0.0430  0.2049
  925MOL0     H24815   9.675   0.235   3.653  1.0877  3.2473  0.3131
  925MOL0     H24816   9.522   0.053   3.704  1.1125  1.5087 -0.1375
  925MOL0     H24817   9.380   0.152   3.678 -0.7161 -0.5567  0.9068
  925MOL0     H24818   9.408   0.016   3.478  0.2683 -0.5385  0.9781
  925MOL0     H24819   9.479   0.168   3.429 -1.5925  0.6214  0.7052
  925MOL0     H24820   9.700   0.074   3.508 -0.3076 -0.1811 -0.0885
  925MOL0     H24821   9.615  -0.079   3.520 -4.1857  1.4609  3.5045
  925MOL0     H24822   9.564  -0.081   3.283  1.3592 -0.5127  0.6458
  925MOL0     H24823   9.607   0.096   3.266 -1.3925  0.2186  0.6847
  925MOL0     H24824   9.847   0.056   3.316  1.2875  0.1399 -1.8000
  925MOL0     H24825   9.798  -0.010   3.172  2.2356 -0.2800  0.9901
  925MOL0     H24826   9.935  -0.158   3.496  3.0478  0.7489 -2.7703
  925MOL0     H24827   9.962  -0.548   3.413 -1.2415  1.3037  0.5031
  925MOL0     H24828  10.101  -0.432   3.397  1.1876 -0.0974 -0.0334
  925MOL0     H24829  10.039  -0.345   3.634  3.2210 -0.4573  0.4640
  925MOL0     H24830  10.101  -0.514   3.620 -0.9893 -1.2829 -1.2632
  925MOL0     H24831   9.883  -0.607   3.620  0.6917  0.0516 -0.1934
  925MOL0     H24832   9.805  -0.456   3.636  1.1568  0.6572 -0.0585
  925MOL0     H24833   9.958  -0.435   3.872  1.5517 -1.2793  0.9891
  925MOL0     H24834   9.969  -0.609   3.828  1.7088 -0.0111 -1.3374
  925MOL0     H24835   9.543  -0.609   3.953  2.1477 -1.0882  0.4268
  925MOL0     H24836   9.245  -0.413   4.011 -0.6082  0.0955 -0.1269
  925MOL0     H24837   9.326  -0.561   4.076  0.4110  0.0678  2.7596
  925MOL0     H24838   9.349  -0.399   4.156 -2.4802  3.4751 -1.8859
  925MOL0     H24839   9.130  -0.170   4.293  0.9014  0.6115 -0.0369
  925MOL0     H24840   8.928  -0.002   4.342  0.4247  1.6149 -0.6213
  925MOL0     H24841   8.862   0.328   4.034 -0.6438 -0.4524 -0.4695
  925MOL0     H24842   8.718   0.223   4.046 -1.0263  0.8709 -1.0785
  925MOL0     H24843   8.771   0.440   4.236  1.0934  0.0744 -2.3111
  925MOL0     H24844   8.654   0.448   4.110 -0.1094  4.0990  4.2410
  925MOL0     H24845   8.627   0.254   4.343  0.6953  1.8040  0.5883
  925MOL0     H24846   8.549   0.238   4.196  1.0471 -1.4269  1.5699
  925MOL0     H24847   8.563   0.498   4.362  1.1543 -0.5932 -0.0057
  925MOL0     H24848   8.457   0.480   4.215 -2.6322 -2.9229  0.1566
  925MOL0     H24849   8.343   0.489   4.425 -1.9281 -0.3833 -3.2234
  925MOL0     H24850   8.441   0.354   4.496  2.4268  0.5210 -1.1702
  925MOL0     H24851   8.264   0.340   4.254  1.7073 -1.8607 -1.0698
  925MOL0     H24852   8.345   0.197   4.325  2.0507  0.3288  2.1851
  925MOL0     H24853   8.129   0.363   4.474  2.0994  1.5626  1.3990
  925MOL0     H24854   8.219   0.231   4.543  0.4619 -1.3586 -0.5519
  925MOL0     H24855   8.119   0.076   4.357 -0.9527 -0.6266 -1.7623
  925MOL0     H24856   8.036   0.210   4.300  2.4860  0.7414  0.0812
  925MOL0     H24857   9.005   0.174   3.958 -2.7039  1.5560  2.4829
  925MOL0     H24858   9.173   0.009   3.911  0.4988 -0.7250 -0.1145
  925MOL0     H24859   9.625  -0.125   3.875  0.8055 -0.8677 -1.2638
  925MOL0     H24860   9.781  -0.260   3.829  0.1984  0.8294 -0.3740
  925MOL0     H24861   9.579   0.458   4.277  0.1834 -1.8216  0.7675
  925MOL0     H24862   9.384   0.508   4.417 -1.2658  0.0005  0.0490
  925MOL0     H24863   9.011   0.652   4.684 -1.2031  1.1479 -0.6828
  925MOL0     H24864   8.815   0.601   4.826  0.3376  0.3706 -1.0900
  925MOL0     H24865   8.638   0.527   4.948 -1.6991  0.0492  2.1517
  925MOL0     H24866   8.554   0.579   4.803  2.2173  1.0629  0.5926
  925MOL0     H24867   8.407   0.526   4.989 -0.6417  0.6158 -0.9948
  925MOL0     H24868   8.445   0.347   4.970  0.9963 -0.2544 -2.8531
  925MOL0     H24869   8.265   0.341   4.849 -3.9773  3.0938 -0.7686
  925MOL0     H24870   8.381   0.383   4.732 -1.4329  0.2210 -1.1198
  925MOL0     H24871   8.192   0.532   4.682  0.0461  0.0458 -0.9749
  925MOL0     H24872   8.339   0.614   4.722 -1.3319  0.3487 -1.5217
  925MOL0     H24873   8.059   0.680   5.052 -2.7455 -1.8589 -1.7944
  925MOL0     H24874   8.700   0.288   4.576 -0.8566  0.7546 -1.4686
  925MOL0     H24875   8.920   0.327   4.436 -2.2339  1.8336 -2.2135
  926MOL0     O24876   3.280   6.470   4.305 -0.0466 -0.1974  0.2923
  926MOL0     C24877   3.368   6.548   4.271 -0.8966 -0.0024 -0.1406
  926MOL0     O24878   3.370   6.678   4.317 -0.2376 -0.2396  0.5415
  926MOL0     C24879   3.281   6.712   4.407  0.5940  0.4734  0.1318
  926MOL0     C24880   3.323   6.765   4.527 -0.4464 -0.6436  0.3656
  926MOL0     C24881   3.232   6.812   4.626 -0.3399  0.5356  1.2028
  926MOL0     C24882   3.100   6.813   4.597 -0.3779  0.3613  0.9576
  926MOL0     O24883   2.999   6.863   4.672  1.1402  0.0420 -0.1188
  926MOL0     C24884   3.013   6.881   4.811  0.4844  0.9370 -0.1599
  926MOL0     C24885   2.875   6.889   4.871  0.2505 -0.0256  0.0377
  926MOL0     C24886   2.810   7.037   4.856 -0.6360 -0.6056 -0.0427
  926MOL0     C24887   2.793   7.068   4.700 -0.3541 -0.4640  0.8449
  926MOL0     C24888   2.692   7.183   4.664 -0.5736 -0.4885  0.5073
  926MOL0     C24889   2.755   7.320   4.684  0.3124  1.1231 -0.8713
  926MOL0     C24890   2.673   7.427   4.615  0.6606 -0.2885  0.6847
  926MOL0     C24891   2.680   7.574   4.670  0.4864  0.4134  1.4709
  926MOL0     N24892   2.821   7.615   4.663 -0.0996  0.1367 -0.7023
  926MOL0     C24893   2.880   7.683   4.764  0.1479  0.4932  0.2303
  926MOL0     C24894   2.986   7.742   4.714  0.2632  0.6763  0.0645
  926MOL0     C24895   3.080   7.820   4.803 -0.0161  0.1956 -0.1669
  926MOL0     C24896   3.187   7.737   4.870  0.0479 -0.1929 -0.4849
  926MOL0     C24897   3.307   7.710   4.772  0.1791  0.5293  0.2246
  926MOL0     C24898   3.437   7.691   4.863  0.6736 -0.0962 -0.1838
  926MOL0     O24899   3.479   7.823   4.901  0.1193 -0.1797  0.5859
  926MOL0     C24900   3.594   7.828   4.983  0.4913  0.4684 -0.8152
  926MOL0     C24901   3.653   7.954   4.994 -0.0884  0.6340  0.6208
  926MOL0     C24902   3.772   7.976   5.064  0.1736 -0.4208  0.2055
  926MOL0     C24903   3.830   8.109   5.052 -0.1081  0.3955  0.0779
  926MOL0     C24904   3.837   7.867   5.129 -0.4510 -0.3499 -0.6524
  926MOL0     C24905   3.977   7.867   5.169  0.0327 -0.2092  0.6364
  926MOL0     O24906   4.018   7.756   5.247  1.2331 -0.0212  0.1541
  926MOL0     C24907   4.137   7.766   5.310  0.9940  1.1823 -1.2811
  926MOL0     C24908   4.179   7.860   5.402  0.3748  0.0747  0.4051
  926MOL0     C24909   4.315   7.851   5.441  1.1548 -0.2401  0.8054
  926MOL0     C24910   4.384   7.721   5.423  0.0817 -1.2629  0.0450
  926MOL0     O24911   4.499   7.712   5.492  0.7400  0.2344  0.1304
  926MOL0     C24912   4.601   7.620   5.450  0.0544  0.1904  0.2953
  926MOL0     C24913   4.726   7.621   5.545  1.4736 -0.2006 -0.3688
  926MOL0     C24914   4.841   7.563   5.482  1.3388  0.0233  0.3233
  926MOL0     C24915   4.943   7.509   5.580 -0.7484  0.0447  0.1480
  926MOL0     C24916   5.088   7.480   5.531 -0.1542  0.3331  0.3729
  926MOL0     C24917   5.168   7.441   5.649  0.2023 -0.6828 -1.5321
  926MOL0     C24918   5.316   7.413   5.621  0.1034 -0.0407  0.2259
  926MOL0     C24919   5.322   7.285   5.525  0.0662 -0.2852  0.5398
  926MOL0    Cl24920   5.483   7.264   5.464 -0.3394 -0.3162 -0.5576
  926MOL0     C24921   4.332   7.621   5.345 -0.1613 -0.6687  0.4089
  926MOL0     C24922   4.217   7.655   5.279 -0.1102  0.1741 -1.1805
  926MOL0     O24923   4.053   7.949   5.119 -0.4933 -0.5781 -0.2761
  926MOL0     C24924   3.777   7.742   5.111 -1.2617  0.1123 -0.8175
  926MOL0     C24925   3.653   7.717   5.051 -0.2234  0.2732  0.2755
  926MOL0     N24926   3.005   7.710   4.577 -1.4359 -0.1915 -0.9839
  926MOL0     N24927   2.890   7.641   4.549 -0.5914 -0.9388 -0.7107
  926MOL0     C24928   3.054   6.776   4.468 -0.3558  0.6429 -0.0493
  926MOL0     C24929   3.146   6.723   4.376 -0.0327 -1.5860  0.5006
  926MOL0     C24930   3.491   6.508   4.195 -0.0828  0.4310  0.4844
  926MOL0     C24931   3.508   6.374   4.149 -0.4141  0.6035 -0.3115
  926MOL0     C24932   3.631   6.339   4.092  0.2108  0.0248 -0.1322
  926MOL0     C24933   3.731   6.435   4.062  0.0398  0.0347 -0.8523
  926MOL0     O24934   3.837   6.382   3.989 -0.2230 -0.1357 -0.1163
  926MOL0     C24935   3.963   6.455   3.977  0.1243 -0.3413  0.6788
  926MOL0     C24936   3.986   6.478   3.831  0.4688 -0.1073  1.1007
  926MOL0     C24937   3.876   6.564   3.773 -0.3056 -0.1698 -0.0857
  926MOL0     C24938   3.912   6.633   3.640 -0.0871 -0.0225  1.4317
  926MOL0     C24939   3.915   6.526   3.535 -0.7286 -0.4998  0.0185
  926MOL0     C24940   3.897   6.429   3.467 -0.8428  0.8631  0.3174
  926MOL0     C24941   3.710   6.567   4.095 -0.4988 -0.3117 -0.4867
  926MOL0     C24942   3.590   6.603   4.156  0.2047  0.2524 -0.1342
  926MOL0     H24943   3.430   6.753   4.537 -0.5791 -3.6352 -0.7825
  926MOL0     H24944   3.252   6.826   4.732  0.0799 -1.9762  1.5088
  926MOL0     H24945   3.075   6.807   4.862 -1.8337 -0.9693  0.1140
  926MOL0     H24946   3.056   6.981   4.821 -1.0494  1.5160  1.2573
  926MOL0     H24947   2.811   6.817   4.819  0.8382  0.9439 -2.1414
  926MOL0     H24948   2.879   6.854   4.975 -2.0259 -1.6658 -0.3295
  926MOL0     H24949   2.711   7.031   4.902 -1.4845  1.0314 -1.5068
  926MOL0     H24950   2.874   7.108   4.910  1.9095 -1.6325 -1.4900
  926MOL0     H24951   2.897   7.093   4.675 -0.2146 -0.2266  1.6496
  926MOL0     H24952   2.753   6.980   4.649 -5.1320 -0.2231  3.6025
  926MOL0     H24953   2.683   7.164   4.557  3.0853 -1.2168  0.1826
  926MOL0     H24954   2.597   7.168   4.717 -0.3151 -0.0884  1.0963
  926MOL0     H24955   2.756   7.345   4.791  0.7989  4.2895 -1.5419
  926MOL0     H24956   2.862   7.324   4.663  1.3679 -1.1461  3.0110
  926MOL0     H24957   2.699   7.428   4.509 -2.1685 -1.5092 -0.1076
  926MOL0     H24958   2.567   7.401   4.619  1.2909 -3.5558 -0.3767
  926MOL0     H24959   2.633   7.586   4.768 -4.0198 -3.3562  0.1272
  926MOL0     H24960   2.629   7.635   4.595  3.1967  0.9967 -0.0420
  926MOL0     H24961   2.841   7.696   4.864  1.9936  0.4297  1.0000
  926MOL0     H24962   3.124   7.906   4.753 -0.8245 -0.2903 -1.8232
  926MOL0     H24963   3.014   7.867   4.876 -1.1298  0.6663 -1.4164
  926MOL0     H24964   3.129   7.651   4.904 -1.9060  0.5191 -1.7915
  926MOL0     H24965   3.221   7.801   4.952  2.4066  1.2616 -2.4415
  926MOL0     H24966   3.303   7.799   4.708  3.6042  1.7389  1.4666
  926MOL0     H24967   3.290   7.625   4.705 -1.0917  2.1047 -1.5626
  926MOL0     H24968   3.507   7.640   4.796 -0.5952  1.3866 -2.7613
  926MOL0     H24969   3.408   7.621   4.942 -1.5676 -2.6748 -3.0840
  926MOL0     H24970   3.613   8.028   4.926  0.3555  0.4817  0.1905
  926MOL0     H24971   3.900   8.140   5.130  1.7993 -0.6540 -1.1313
  926MOL0     H24972   3.872   8.130   4.953 -0.9869  0.1472 -0.3631
  926MOL0     H24973   3.748   8.181   5.057 -1.2492 -0.7945 -0.7360
  926MOL0     H24974   4.115   7.942   5.434  0.8651  0.2062  1.0931
  926MOL0     H24975   4.368   7.925   5.500  1.2982  1.0932 -0.9405
  926MOL0     H24976   4.556   7.520   5.448 -0.5652  0.4299  1.3698
  926MOL0     H24977   4.637   7.658   5.354 -0.7799 -1.5388 -0.7441
  926MOL0     H24978   4.754   7.720   5.580 -2.8472  0.7149  1.2072
  926MOL0     H24979   4.698   7.559   5.631 -0.4580  0.5219 -0.4279
  926MOL0     H24980   4.888   7.634   5.413 -1.8472  0.3496 -1.7079
  926MOL0     H24981   4.805   7.473   5.430  0.5877 -1.3776  3.1089
  926MOL0     H24982   4.940   7.577   5.666  2.5332 -0.2270  0.5784
  926MOL0     H24983   4.904   7.412   5.610  1.4491 -1.0515 -0.3428
  926MOL0     H24984   5.136   7.570   5.490  0.7411  0.4166  1.5531
  926MOL0     H24985   5.073   7.399   5.459 -0.0607  0.6198  0.0228
  926MOL0     H24986   5.162   7.516   5.728 -1.8122 -2.1051 -0.2189
  926MOL0     H24987   5.118   7.357   5.699  1.3609  0.2553  1.4563
  926MOL0     H24988   5.375   7.407   5.713  0.4399 -2.4734 -0.0653
  926MOL0     H24989   5.365   7.496   5.571 -2.6540  1.1552 -0.6817
  926MOL0     H24990   5.263   7.312   5.437 -2.8612  1.6733  2.9142
  926MOL0     H24991   5.278   7.193   5.564 -2.9718 -0.0004 -1.8338
  926MOL0     H24992   4.386   7.530   5.321  0.6238 -0.0139 -0.3538
  926MOL0     H24993   4.195   7.559   5.233 -0.3703 -0.8039  0.8739
  926MOL0     H24994   3.832   7.654   5.145  0.0423 -0.1326 -3.3165
  926MOL0     H24995   3.605   7.621   5.070  0.1344  0.1876  0.7609
  926MOL0     H24996   2.948   6.794   4.456 -0.8260  2.0463  4.4691
  926MOL0     H24997   3.119   6.681   4.280 -1.2002 -1.6369  0.8311
  926MOL0     H24998   3.440   6.292   4.170  2.1241 -1.4571  0.4933
  926MOL0     H24999   3.651   6.236   4.064 -0.2302 -0.0121 -0.3203
  926MOL0     H25000   3.974   6.552   4.027 -2.7217 -0.8094  2.4384
  926MOL0     H25001   4.037   6.396   4.032  3.1759  0.9644 -1.7498
  926MOL0     H25002   4.000   6.385   3.774  0.0114  1.5602 -1.9273
  926MOL0     H25003   4.085   6.525   3.832  0.5624 -0.1018 -1.5466
  926MOL0     H25004   3.848   6.644   3.842 -1.8924 -0.2802 -0.5785
  926MOL0     H25005   3.800   6.487   3.759  0.0418 -0.8499  1.4708
  926MOL0     H25006   4.003   6.694   3.640 -1.5564  2.3470 -0.1018
  926MOL0     H25007   3.830   6.704   3.626  1.8485  1.7778 -2.0431
  926MOL0     H25008   3.886   6.341   3.407  0.9975  0.2384  0.8382
  926MOL0     H25009   3.784   6.643   4.077 -1.9876  2.0608  2.5339
  926MOL0     H25010   3.565   6.705   4.186 -0.9776  1.1023 -3.5271
  927MOL0     O25011   6.674   9.285   3.310  0.1692 -0.8430  0.6609
  927MOL0     C25012   6.646   9.183   3.372  0.4603  0.2033  0.8090
  927MOL0     O25013   6.570   9.172   3.488  0.7298  0.4971  0.3262
  927MOL0     C25014   6.547   9.280   3.567  0.3747  0.4204 -0.0401
  927MOL0     C25015   6.491   9.398   3.515  0.0685  0.9904  0.0990
  927MOL0     C25016   6.491   9.517   3.598  0.1205  0.8766 -0.0861
  927MOL0     C25017   6.530   9.502   3.730  0.2416 -0.0545  0.2943
  927MOL0     O25018   6.552   9.622   3.794 -0.1993  0.3416 -0.6850
  927MOL0     C25019   6.648   9.633   3.904 -0.3170  0.0635 -0.0653
  927MOL0     C25020   6.753   9.741   3.875  0.1535  0.4389  0.5068
  927MOL0     C25021   6.694   9.879   3.831  0.9955 -0.2583  0.5864
  927MOL0     C25022   6.599   9.944   3.936 -0.6710 -0.6933 -0.6562
  927MOL0     C25023   6.532  10.082   3.904  0.1995 -0.3263 -0.1781
  927MOL0     C25024   6.438  10.080   3.770 -1.0492  0.7116 -0.1844
  927MOL0     C25025   6.390  10.223   3.729  0.6334  0.0544  0.0723
  927MOL0     C25026   6.348  10.244   3.584 -0.0533  0.1012  0.0389
  927MOL0     N25027   6.295  10.380   3.558  0.3899  0.0892 -0.1152
  927MOL0     C25028   6.152  10.414   3.570 -0.3253  0.0466 -0.3929
  927MOL0     C25029   6.146  10.545   3.525  0.7882  0.4152 -1.0519
  927MOL0     C25030   6.024  10.630   3.530 -0.0718 -0.0180 -0.2032
  927MOL0     C25031   6.059  10.785   3.530  0.1378  0.2865 -0.0150
  927MOL0     C25032   6.136  10.825   3.649 -0.6061 -0.1760 -0.4645
  927MOL0     C25033   6.195  10.960   3.618  0.6064  0.1164  0.2655
  927MOL0     O25034   6.240  11.025   3.734 -0.3569 -0.5630  0.2808
  927MOL0     C25035   6.268  11.161   3.725 -0.1362  0.5761  0.0023
  927MOL0     C25036   6.294  11.225   3.603 -0.4682  0.5542  1.0447
  927MOL0     C25037   6.307  11.364   3.600  0.6533  0.3743 -0.2443
  927MOL0     C25038   6.321  11.429   3.462 -0.0887 -0.4765  0.3026
  927MOL0     C25039   6.293  11.437   3.722  0.0422 -0.0599  0.2427
  927MOL0     C25040   6.300  11.586   3.722  0.3716  0.6223 -0.3744
  927MOL0     O25041   6.240  11.655   3.616 -0.4604  0.7007 -0.4382
  927MOL0     C25042   6.199  11.783   3.631  0.2301 -0.1575 -0.4980
  927MOL0     C25043   6.242  11.873   3.545  0.0432  0.6029  0.9296
  927MOL0     C25044   6.188  12.006   3.546  0.0897 -0.9778  1.1171
  927MOL0     C25045   6.094  12.048   3.641  0.3140  0.1090 -0.7396
  927MOL0     O25046   6.054  12.178   3.635  0.1211 -0.4320  0.4634
  927MOL0     C25047   5.962  12.225   3.741 -0.3014  0.2011 -0.0760
  927MOL0     C25048   5.925  12.370   3.731 -1.4317 -0.4215 -0.4907
  927MOL0     C25049   5.820  12.391   3.619  0.1347  0.4185 -0.2593
  927MOL0     C25050   5.811  12.539   3.588 -0.3605 -0.9415 -0.2136
  927MOL0     C25051   5.731  12.635   3.679 -0.5819  0.2372 -0.9559
  927MOL0     C25052   5.722  12.780   3.635  0.4925 -0.6017  0.1323
  927MOL0     C25053   5.640  12.790   3.504  0.1239  1.3561  0.2882
  927MOL0     C25054   5.631  12.932   3.465  0.0431  0.9987 -0.3906
  927MOL0    Cl25055   5.760  12.974   3.353 -0.4404  0.3356  0.4658
  927MOL0     C25056   6.058  11.950   3.742  0.5421 -0.3136 -0.7265
  927MOL0     C25057   6.100  11.817   3.734  0.0535 -0.1201 -0.6279
  927MOL0     O25058   6.341  11.645   3.826 -0.1506 -0.7924  0.8972
  927MOL0     C25059   6.283  11.370   3.846 -0.1217  0.8565 -0.0480
  927MOL0     C25060   6.266  11.227   3.844 -0.3556 -0.5674  0.2375
  927MOL0     N25061   6.279  10.579   3.492  0.1003 -0.2037  0.6759
  927MOL0     N25062   6.360  10.486   3.508 -1.7347 -0.3228 -0.5632
  927MOL0     C25063   6.571   9.383   3.789  0.2998 -0.3667  0.3963
  927MOL0     C25064   6.581   9.273   3.709  0.2365  0.3436 -0.7702
  927MOL0     C25065   6.707   9.056   3.321 -0.2954 -0.8161  0.0999
  927MOL0     C25066   6.752   9.055   3.183  0.2978  0.3156 -0.2212
  927MOL0     C25067   6.807   8.933   3.139 -0.0476 -0.0141 -0.3364
  927MOL0     C25068   6.838   8.826   3.219 -0.0379  1.0362 -0.2435
  927MOL0     O25069   6.882   8.704   3.166  0.2027  0.3289  0.3113
  927MOL0     C25070   6.878   8.594   3.261  0.6458  0.1479 -0.6738
  927MOL0     C25071   6.884   8.463   3.186  0.0788  0.0086 -0.0570
  927MOL0     C25072   7.031   8.427   3.141  0.0811  0.4266  0.0906
  927MOL0     C25073   7.144   8.405   3.243 -0.1200 -0.0263 -0.0633
  927MOL0     C25074   7.121   8.280   3.314  0.1425  0.0268  0.7863
  927MOL0     C25075   7.104   8.172   3.355  0.7427 -0.2956  0.5083
  927MOL0     C25076   6.794   8.835   3.358 -0.6847 -0.4083 -0.1712
  927MOL0     C25077   6.737   8.950   3.412 -0.1601 -0.1808  0.6595
  927MOL0     H25078   6.468   9.402   3.409 -1.1265 -0.0424  0.2984
  927MOL0     H25079   6.468   9.611   3.551  1.1892 -0.1047 -2.7552
  927MOL0     H25080   6.599   9.671   3.995  0.2321  1.4044 -0.3090
  927MOL0     H25081   6.697   9.541   3.937  0.8900  0.6736 -0.1339
  927MOL0     H25082   6.817   9.759   3.963 -2.1137 -0.9664  2.5809
  927MOL0     H25083   6.818   9.714   3.792 -2.8181  0.4222 -1.9603
  927MOL0     H25084   6.771   9.952   3.805  1.4691 -0.5313  1.1815
  927MOL0     H25085   6.629   9.866   3.744 -3.0755 -0.7678  3.4016
  927MOL0     H25086   6.521   9.871   3.959 -1.1179 -0.3574 -1.1032
  927MOL0     H25087   6.661   9.969   4.023  4.0273  1.7316 -4.2151
  927MOL0     H25088   6.469  10.098   3.992  3.3911 -1.0413  2.4106
  927MOL0     H25089   6.615  10.152   3.890  2.5549 -3.1858 -1.6438
  927MOL0     H25090   6.508  10.050   3.692  0.0941  4.5621 -0.8089
  927MOL0     H25091   6.354  10.010   3.775  0.9038 -1.9114 -1.1648
  927MOL0     H25092   6.302  10.238   3.792  0.2469 -1.5322 -0.0220
  927MOL0     H25093   6.461  10.297   3.765  1.5700 -0.5933 -0.4024
  927MOL0     H25094   6.284  10.166   3.544 -1.7941  1.2776  0.4234
  927MOL0     H25095   6.447  10.240   3.538  0.0997 -1.5293  0.4608
  927MOL0     H25096   6.072  10.355   3.614  0.4665 -0.0061  1.0434
  927MOL0     H25097   5.969  10.601   3.440 -2.2239 -1.5095  1.4836
  927MOL0     H25098   5.964  10.607   3.619  0.2035  0.6948  0.1744
  927MOL0     H25099   5.966  10.842   3.528 -0.6902 -0.9930  0.6501
  927MOL0     H25100   6.113  10.803   3.436 -2.6269 -4.0358 -2.8065
  927MOL0     H25101   6.226  10.765   3.659 -0.1169  0.6235  0.1239
  927MOL0     H25102   6.071  10.822   3.737 -0.5036  1.3583 -0.2935
  927MOL0     H25103   6.125  11.024   3.563  0.6773  0.8092  0.9668
  927MOL0     H25104   6.282  10.943   3.553  0.4193 -0.4220  0.1554
  927MOL0     H25105   6.296  11.160   3.516  0.2393  0.2456  1.2790
  927MOL0     H25106   6.365  11.361   3.389 -1.3738  0.4336 -1.4145
  927MOL0     H25107   6.223  11.459   3.423  0.3753 -0.9201 -1.2735
  927MOL0     H25108   6.390  11.511   3.485 -0.1567 -0.8131  1.8595
  927MOL0     H25109   6.312  11.844   3.468  1.2869  0.6127  2.0347
  927MOL0     H25110   6.215  12.083   3.474  0.2459 -0.0047  2.1903
  927MOL0     H25111   5.872  12.164   3.746 -2.5487  3.3590  1.8304
  927MOL0     H25112   6.001  12.209   3.841 -2.5744 -1.2416  0.6474
  927MOL0     H25113   5.870  12.390   3.824  0.1737  0.8369  0.2358
  927MOL0     H25114   6.015  12.432   3.725 -1.1130 -1.0094 -2.1113
  927MOL0     H25115   5.719  12.363   3.650  0.2836 -1.4793 -1.3490
  927MOL0     H25116   5.844  12.331   3.531 -5.9336  0.2150 -2.2509
  927MOL0     H25117   5.907  12.588   3.568 -1.9406  1.8044 -1.6967
  927MOL0     H25118   5.759  12.540   3.491  0.2114  3.0412 -0.6620
  927MOL0     H25119   5.777  12.653   3.777 -1.1328  0.3136 -0.7106
  927MOL0     H25120   5.637  12.583   3.696  0.9126 -2.8089 -1.3871
  927MOL0     H25121   5.681  12.843   3.714 -3.9709 -3.5011  0.4774
  927MOL0     H25122   5.823  12.803   3.600 -0.1963  0.7451 -1.0262
  927MOL0     H25123   5.544  12.740   3.520  0.6347  0.0457 -0.4842
  927MOL0     H25124   5.688  12.734   3.423 -0.0177  2.3269 -0.4851
  927MOL0     H25125   5.629  12.994   3.555 -3.2900 -0.4022  0.6445
  927MOL0     H25126   5.536  12.949   3.414 -0.8027 -0.5542  0.5811
  927MOL0     H25127   6.006  11.975   3.834 -4.8610 -0.1065 -3.4257
  927MOL0     H25128   6.090  11.743   3.812  0.9628 -0.5076 -0.8642
  927MOL0     H25129   6.289  11.435   3.933  3.4180  0.2058  0.3428
  927MOL0     H25130   6.236  11.172   3.933  1.0319 -0.0248  1.0755
  927MOL0     H25131   6.601   9.368   3.892  0.7139  1.3110  0.5588
  927MOL0     H25132   6.630   9.183   3.745 -2.0600 -1.0808 -1.0536
  927MOL0     H25133   6.744   9.137   3.113  0.8930 -0.8093 -1.6592
  927MOL0     H25134   6.839   8.936   3.035  2.5170  0.7441  0.4122
  927MOL0     H25135   6.959   8.611   3.332 -0.9160  1.6905  0.8323
  927MOL0     H25136   6.780   8.586   3.310 -0.4272 -1.9900 -2.9709
  927MOL0     H25137   6.817   8.456   3.100 -2.8176 -0.5402  2.1066
  927MOL0     H25138   6.846   8.393   3.260 -1.7827 -2.6336 -3.2143
  927MOL0     H25139   7.052   8.505   3.067 -0.7910  1.9980  1.4206
  927MOL0     H25140   7.020   8.337   3.080 -0.4031  0.2961  0.3619
  927MOL0     H25141   7.154   8.492   3.308 -1.3116  0.7229 -0.8400
  927MOL0     H25142   7.239   8.382   3.192 -0.2914  2.2659 -1.5641
  927MOL0     H25143   7.087   8.077   3.402 -0.1581 -0.4265 -0.0698
  927MOL0     H25144   6.816   8.760   3.434  2.1689  2.6414  2.2920
  927MOL0     H25145   6.718   8.964   3.518 -0.1521  2.8873  0.3271
  928MOL0     O25146   8.433   3.510   1.895 -0.4719  0.8261 -1.3619
  928MOL0     C25147   8.549   3.481   1.862  0.2115  0.5750 -0.3563
  928MOL0     O25148   8.584   3.411   1.747 -0.1226 -0.2151 -0.8043
  928MOL0     C25149   8.477   3.349   1.678 -0.4223  0.3394  0.2179
  928MOL0     C25150   8.476   3.217   1.655 -0.1323  0.8223  1.3322
  928MOL0     C25151   8.376   3.147   1.575  0.3255  0.2974  0.6732
  928MOL0     C25152   8.273   3.220   1.507 -0.0384 -0.2023  0.4507
  928MOL0     O25153   8.183   3.157   1.420 -0.5403 -0.3560 -0.0843
  928MOL0     C25154   8.051   3.216   1.405  0.3779 -0.8633  0.8961
  928MOL0     C25155   7.983   3.124   1.307 -0.2787  0.2785  0.6684
  928MOL0     C25156   7.833   3.147   1.308  0.1576 -0.2356  0.3623
  928MOL0     C25157   7.744   3.035   1.238  0.1449 -1.0852  0.0886
  928MOL0     C25158   7.782   3.007   1.091  0.1035 -0.4371 -0.4668
  928MOL0     C25159   7.785   3.141   1.018  0.4870  0.3492 -1.1478
  928MOL0     C25160   7.789   3.110   0.864 -0.2378 -0.5668  0.0969
  928MOL0     C25161   7.770   3.250   0.788 -0.4494  0.7984 -0.1351
  928MOL0     N25162   7.882   3.340   0.810  0.4945 -0.9609 -0.2117
  928MOL0     C25163   8.012   3.319   0.773 -0.1310 -0.0442  0.5136
  928MOL0     C25164   8.079   3.428   0.819  0.3000 -0.3696  1.0393
  928MOL0     C25165   8.234   3.447   0.806  0.8627  0.6499  0.2969
  928MOL0     C25166   8.302   3.404   0.938  0.0624 -0.5884  0.3219
  928MOL0     C25167   8.296   3.255   0.971 -0.6931 -0.1225  0.5226
  928MOL0     C25168   8.372   3.216   1.090  0.4702  0.1067  0.1228
  928MOL0     O25169   8.335   3.081   1.129  0.3685 -0.4208 -0.2479
  928MOL0     C25170   8.415   3.014   1.220  0.2220  0.0818  0.3800
  928MOL0     C25171   8.366   2.889   1.265  0.8835  0.0534 -0.2636
  928MOL0     C25172   8.441   2.806   1.346 -0.3219  0.2579  0.5075
  928MOL0     C25173   8.394   2.670   1.379 -0.0387  0.8363 -0.6486
  928MOL0     C25174   8.558   2.850   1.411 -0.2581 -0.5953 -0.2548
  928MOL0     C25175   8.632   2.773   1.519 -0.4861 -0.1885 -0.6820
  928MOL0     O25176   8.564   2.711   1.627  0.6252  0.7091  0.9391
  928MOL0     C25177   8.630   2.680   1.741  0.0858 -0.1651 -0.7795
  928MOL0     C25178   8.736   2.600   1.749 -0.0677 -0.0007  0.6544
  928MOL0     C25179   8.793   2.559   1.868 -0.4095 -0.3432 -0.2895
  928MOL0     C25180   8.760   2.634   1.979  0.3764  0.5986  0.6174
  928MOL0     O25181   8.818   2.619   2.103  0.5243 -1.1414  0.1532
  928MOL0     C25182   8.949   2.561   2.126 -0.2577  0.2378  0.4243
  928MOL0     C25183   8.937   2.470   2.253 -0.2886  0.8568  0.4903
  928MOL0     C25184   9.075   2.429   2.314  0.9119 -0.1715  0.1707
  928MOL0     C25185   9.126   2.294   2.264  1.1864 -0.1899  0.5523
  928MOL0     C25186   9.235   2.234   2.353 -0.0228  0.5087 -0.1639
  928MOL0     C25187   9.355   2.325   2.365  0.3043 -0.3300 -0.0274
  928MOL0     C25188   9.427   2.344   2.227 -0.2482 -0.2478 -0.0309
  928MOL0     C25189   9.568   2.408   2.247 -0.0130  0.3618 -0.0578
  928MOL0    Cl25190   9.663   2.376   2.092 -0.4279 -0.0887 -0.1571
  928MOL0     C25191   8.661   2.731   1.977  0.1328 -0.0253  0.0676
  928MOL0     C25192   8.597   2.756   1.851 -0.3745 -0.6259 -0.4132
  928MOL0     O25193   8.751   2.768   1.505 -0.1308  0.2286  0.0518
  928MOL0     C25194   8.605   2.981   1.365  0.0644  0.3195 -0.0399
  928MOL0     C25195   8.540   3.059   1.272  0.8772  0.1035  0.1159
  928MOL0     N25196   7.992   3.513   0.886 -0.8243 -0.0234 -0.0368
  928MOL0     N25197   7.872   3.459   0.883  0.4057  0.0727  0.8977
  928MOL0     C25198   8.278   3.362   1.522  0.1953  0.2235 -0.0676
  928MOL0     C25199   8.382   3.424   1.604  0.0064  0.1233  0.0969
  928MOL0     C25200   8.663   3.526   1.951 -0.3624 -0.1779  0.0695
  928MOL0     C25201   8.795   3.491   1.934  0.7980  0.4797  0.8119
  928MOL0     C25202   8.891   3.544   2.020  0.1820  0.6478 -0.1872
  928MOL0     C25203   8.859   3.635   2.131  0.3112  0.9319  0.9765
  928MOL0     O25204   8.962   3.672   2.206 -0.4112 -0.9160 -0.4914
  928MOL0     C25205   8.949   3.704   2.343  0.6767  0.5364  0.1856
  928MOL0     C25206   9.091   3.744   2.391 -0.3545 -0.1478 -0.3869
  928MOL0     C25207   9.102   3.766   2.542  0.6849 -0.7848  0.4452
  928MOL0     C25208   9.244   3.798   2.595  0.3590 -0.2418  0.1780
  928MOL0     C25209   9.338   3.688   2.575  0.1135 -0.2986 -0.4967
  928MOL0     C25210   9.414   3.591   2.554 -0.2729  0.0287 -1.4000
  928MOL0     C25211   8.722   3.654   2.154  0.2067 -0.0944 -0.7960
  928MOL0     C25212   8.628   3.608   2.067  0.0250  0.8238  0.9870
  928MOL0     H25213   8.557   3.155   1.691 -1.8887 -0.8576  2.5493
  928MOL0     H25214   8.376   3.043   1.543 -2.0615  1.3901 -3.6980
  928MOL0     H25215   8.000   3.235   1.500  1.3423  3.1576  0.8147
  928MOL0     H25216   8.051   3.308   1.344  0.3676 -0.1370  1.9655
  928MOL0     H25217   8.023   3.127   1.205 -0.3637 -0.3999  0.6055
  928MOL0     H25218   8.001   3.022   1.342  2.9450  1.2022  2.0525
  928MOL0     H25219   7.800   3.162   1.411 -2.3803  1.5970 -0.6047
  928MOL0     H25220   7.818   3.245   1.263 -3.7272 -1.2364 -0.9586
  928MOL0     H25221   7.743   2.946   1.301 -0.5802 -0.5082  0.9162
  928MOL0     H25222   7.643   3.075   1.226  1.6375  2.9964 -0.4680
  928MOL0     H25223   7.881   2.962   1.098  1.5287  2.6703  1.9422
  928MOL0     H25224   7.712   2.940   1.040 -0.6242  0.6686 -0.9809
  928MOL0     H25225   7.691   3.185   1.054  0.6051 -1.7487  2.0256
  928MOL0     H25226   7.870   3.204   1.046  0.0197  1.1675 -1.5081
  928MOL0     H25227   7.888   3.072   0.834 -0.1071 -0.4646  0.4008
  928MOL0     H25228   7.713   3.036   0.838  2.9571 -4.6045  1.0919
  928MOL0     H25229   7.672   3.293   0.813 -0.9087 -0.6561  0.6569
  928MOL0     H25230   7.785   3.216   0.685  1.3750 -3.8890  1.4682
  928MOL0     H25231   8.052   3.239   0.711 -0.0360  0.2757  0.1569
  928MOL0     H25232   8.267   3.379   0.727 -3.4739 -0.8417 -0.5087
  928MOL0     H25233   8.246   3.552   0.778 -0.9518  0.7301 -0.3294
  928MOL0     H25234   8.249   3.459   1.016 -3.0566 -3.3573  0.3826
  928MOL0     H25235   8.403   3.446   0.932 -0.3832  0.6214  1.0197
  928MOL0     H25236   8.346   3.203   0.888  4.0425  2.6055  1.3096
  928MOL0     H25237   8.191   3.226   0.978 -1.1814  1.9317  3.8006
  928MOL0     H25238   8.348   3.284   1.172 -1.0839  0.2204 -0.3941
  928MOL0     H25239   8.479   3.221   1.069  0.6843 -2.1083  0.4348
  928MOL0     H25240   8.274   2.853   1.221  1.8821 -3.7057  0.3371
  928MOL0     H25241   8.477   2.600   1.370  0.1980  1.3576 -5.4637
  928MOL0     H25242   8.341   2.667   1.474  1.6241 -1.4687  0.2967
  928MOL0     H25243   8.323   2.630   1.305 -3.0941  1.6337  1.6546
  928MOL0     H25244   8.766   2.559   1.653 -0.6037 -0.6666  0.7653
  928MOL0     H25245   8.871   2.484   1.858  1.0892  1.2399 -1.0041
  928MOL0     H25246   8.993   2.512   2.038  0.1415  2.1406 -0.5063
  928MOL0     H25247   9.022   2.636   2.157  0.7559  1.7084 -4.6253
  928MOL0     H25248   8.884   2.525   2.331 -0.9771 -1.6231  1.8962
  928MOL0     H25249   8.878   2.381   2.228  0.9631 -0.2663  1.4113
  928MOL0     H25250   9.068   2.420   2.423  0.5421 -3.2623 -0.0224
  928MOL0     H25251   9.150   2.498   2.274  1.1233 -1.8142 -2.4977
  928MOL0     H25252   9.049   2.219   2.241 -1.8787  3.3473 -2.0265
  928MOL0     H25253   9.170   2.308   2.165  2.0590 -2.4455  0.5543
  928MOL0     H25254   9.281   2.146   2.306  0.7488  0.5818  0.4324
  928MOL0     H25255   9.192   2.203   2.448 -0.8430  1.3033 -0.2652
  928MOL0     H25256   9.326   2.422   2.406 -2.0226 -0.2582 -1.6260
  928MOL0     H25257   9.425   2.278   2.435  0.3439  1.1679  0.9857
  928MOL0     H25258   9.362   2.406   2.166 -2.2517 -1.4022  0.8458
  928MOL0     H25259   9.443   2.247   2.179  1.3135  1.0461 -2.3140
  928MOL0     H25260   9.626   2.354   2.322 -0.3786  0.3143  0.1958
  928MOL0     H25261   9.557   2.515   2.270  0.1712  0.5920 -0.9861
  928MOL0     H25262   8.642   2.775   2.075  1.3844  1.7483 -0.4370
  928MOL0     H25263   8.518   2.830   1.856 -0.4926 -0.0882 -5.2459
  928MOL0     H25264   8.697   3.013   1.412 -0.1026 -1.9206  2.0386
  928MOL0     H25265   8.571   3.159   1.243 -2.5849  1.0598 -0.7673
  928MOL0     H25266   8.212   3.414   1.453  1.1381  1.0467 -0.3694
  928MOL0     H25267   8.402   3.531   1.596 -0.9225  0.4730  1.8923
  928MOL0     H25268   8.814   3.432   1.845  3.7036  2.2262  0.1483
  928MOL0     H25269   8.996   3.514   2.016  0.3997  1.2682  0.5961
  928MOL0     H25270   8.877   3.784   2.362 -1.1894 -1.4056  1.7661
  928MOL0     H25271   8.925   3.622   2.411  5.4289 -0.6998  0.7208
  928MOL0     H25272   9.113   3.835   2.334  2.3874 -1.7351 -2.0934
  928MOL0     H25273   9.163   3.667   2.360 -2.3988 -2.5111  0.3805
  928MOL0     H25274   9.062   3.673   2.583  0.6542 -0.8356  0.2999
  928MOL0     H25275   9.036   3.849   2.567 -1.1914 -1.0642 -3.0349
  928MOL0     H25276   9.239   3.831   2.699  0.0412  2.8381 -0.7299
  928MOL0     H25277   9.275   3.886   2.538 -2.2341  1.0116  0.5885
  928MOL0     H25278   9.483   3.520   2.513  0.3937  0.5203 -1.1442
  928MOL0     H25279   8.700   3.694   2.253 -0.2560 -2.9536  0.3587
  928MOL0     H25280   8.527   3.639   2.092  0.6277  1.5034  2.8189
  929MOL0     O25281   8.293   9.406   8.524 -0.4388  0.2273  0.2294
  929MOL0     C25282   8.406   9.413   8.568  0.2573 -0.6639 -0.5796
  929MOL0     O25283   8.514   9.460   8.503  0.2443  0.4082  0.1618
  929MOL0     C25284   8.514   9.500   8.372 -0.1644  0.7180 -0.6641
  929MOL0     C25285   8.408   9.534   8.290  1.3669  0.3270  0.6584
  929MOL0     C25286   8.424   9.576   8.156  0.1606 -0.3525 -0.2465
  929MOL0     C25287   8.550   9.574   8.102  0.2010  0.4865  1.2187
  929MOL0     O25288   8.549   9.584   7.964  0.0856  0.0772 -0.6758
  929MOL0     C25289   8.646   9.664   7.898  0.9457  0.1563  0.7380
  929MOL0     C25290   8.610   9.817   7.898  0.8881  0.3391  0.0803
  929MOL0     C25291   8.724   9.908   7.848  1.3818 -0.5031 -0.3037
  929MOL0     C25292   8.738   9.891   7.698  0.1278 -0.8023 -0.9860
  929MOL0     C25293   8.854   9.969   7.636 -0.5181 -0.0097  1.0162
  929MOL0     C25294   8.991   9.911   7.684 -0.6217 -0.2545 -0.1493
  929MOL0     C25295   9.099   9.969   7.583 -0.4181  0.1906 -0.7517
  929MOL0     C25296   9.240   9.915   7.624  0.5188 -0.9458  0.4597
  929MOL0     N25297   9.348   9.973   7.543 -0.0584  0.2498  0.1616
  929MOL0     C25298   9.363   9.945   7.410  0.1657 -1.0167  0.8394
  929MOL0     C25299   9.466  10.025   7.367 -0.1218  0.1836  0.1685
  929MOL0     C25300   9.504  10.036   7.225 -0.0621  0.0662  0.3083
  929MOL0     C25301   9.490  10.183   7.189 -0.3173 -0.2791  1.0725
  929MOL0     C25302   9.355  10.248   7.208 -0.4302 -1.2810  0.4611
  929MOL0     C25303   9.257  10.217   7.096 -1.2095  0.1310 -0.4738
  929MOL0     O25304   9.195  10.093   7.125 -0.1186  0.1367  0.0478
  929MOL0     C25305   9.070  10.098   7.172  0.1298  0.3367 -0.5002
  929MOL0     C25306   9.003  10.212   7.216 -0.3320  0.4067  0.1383
  929MOL0     C25307   8.861  10.221   7.226 -0.5392  0.2233 -0.4342
  929MOL0     C25308   8.796  10.355   7.257  0.0468 -0.1277  0.4438
  929MOL0     C25309   8.785  10.100   7.191 -0.3868  0.0674 -0.2311
  929MOL0     C25310   8.639  10.099   7.179  0.0711  0.1009 -0.2446
  929MOL0     O25311   8.567  10.189   7.258 -0.3443 -0.0350  0.2362
  929MOL0     C25312   8.441  10.226   7.228 -0.1697 -0.8498  0.5183
  929MOL0     C25313   8.410  10.279   7.106  0.6648  0.2609  0.8257
  929MOL0     C25314   8.283  10.319   7.068  0.0288  0.2342  0.1017
  929MOL0     C25315   8.179  10.319   7.158 -0.5254  0.7607 -0.9135
  929MOL0     O25316   8.045  10.345   7.127  1.0931  0.8019 -0.0403
  929MOL0     C25317   7.997  10.275   7.007 -1.2209  0.3284 -0.4040
  929MOL0     C25318   7.852  10.267   6.994 -0.3534 -0.4072  1.6388
  929MOL0     C25319   7.810  10.141   6.915 -0.7849  0.9752 -0.0363
  929MOL0     C25320   7.664  10.128   6.874 -0.0366  0.3262  0.5072
  929MOL0     C25321   7.626  10.000   6.796  0.8109 -0.5359 -0.2542
  929MOL0     C25322   7.713   9.992   6.672 -1.1056  0.1242  0.8039
  929MOL0     C25323   7.681   9.874   6.585 -1.1778  0.2942 -0.4109
  929MOL0     C25324   7.744   9.883   6.443  0.1083  0.2355  0.5558
  929MOL0    Cl25325   7.685   9.770   6.320  0.5967  0.2936  0.0840
  929MOL0     C25326   8.199  10.272   7.289 -0.1338 -0.2996  0.2456
  929MOL0     C25327   8.329  10.220   7.320  0.1537 -0.1052  0.3927
  929MOL0     O25328   8.579  10.039   7.089  0.5326 -0.0749  0.2302
  929MOL0     C25329   8.854   9.984   7.159 -0.8810  0.4211  0.4326
  929MOL0     C25330   8.997   9.986   7.153  0.4296 -0.4365  0.2956
  929MOL0     N25331   9.516  10.092   7.480  0.5814  0.7673  0.0154
  929MOL0     N25332   9.447  10.062   7.584 -0.2915  0.7052  0.3785
  929MOL0     C25333   8.662   9.542   8.175 -0.7126 -1.6102  0.1254
  929MOL0     C25334   8.643   9.506   8.308  0.0128  0.0882 -0.2915
  929MOL0     C25335   8.424   9.368   8.713 -0.6057 -0.3409 -0.1206
  929MOL0     C25336   8.324   9.300   8.774  0.4855  0.4956 -1.1878
  929MOL0     C25337   8.332   9.238   8.897  0.3245  0.4367 -0.9732
  929MOL0     C25338   8.448   9.262   8.971  0.1338  0.3857 -0.4170
  929MOL0     O25339   8.477   9.210   9.096 -0.1400  0.1496 -0.5846
  929MOL0     C25340   8.371   9.181   9.181 -0.0014  0.3980  0.4257
  929MOL0     C25341   8.406   9.233   9.327 -0.4388  0.1813 -0.1392
  929MOL0     C25342   8.526   9.162   9.380  0.3227  0.1104 -0.0978
  929MOL0     C25343   8.510   9.004   9.384  0.6948  0.2636 -0.7409
  929MOL0     C25344   8.391   8.967   9.472 -1.9504  0.0380  0.2819
  929MOL0     C25345   8.306   8.956   9.557 -0.0584 -0.5569 -0.2254
  929MOL0     C25346   8.547   9.339   8.908 -0.1132 -1.2560  0.1978
  929MOL0     C25347   8.542   9.392   8.786 -0.1119 -0.1125 -0.6227
  929MOL0     H25348   8.304   9.522   8.320  0.7553  0.8553 -1.1510
  929MOL0     H25349   8.338   9.597   8.093 -0.6814 -1.0108  0.6563
  929MOL0     H25350   8.748   9.657   7.939 -0.1783  0.4744  3.8433
  929MOL0     H25351   8.652   9.626   7.795 -1.3648 -3.4653  1.7718
  929MOL0     H25352   8.517   9.825   7.841  0.5758  0.6149  0.6253
  929MOL0     H25353   8.595   9.861   7.997 -0.4757  0.9197 -0.3666
  929MOL0     H25354   8.700  10.012   7.871  0.0830 -0.8131 -0.1892
  929MOL0     H25355   8.817   9.877   7.897  1.7969 -0.6250 -1.1559
  929MOL0     H25356   8.754   9.784   7.681  1.3412 -1.0192  1.1336
  929MOL0     H25357   8.642   9.922   7.657  1.3006  2.4970 -1.5618
  929MOL0     H25358   8.846   9.937   7.531  0.2917  2.6890  0.0634
  929MOL0     H25359   8.846  10.078   7.636 -4.5894 -0.1631  0.0489
  929MOL0     H25360   9.013   9.940   7.786 -0.6753 -2.6568  0.6109
  929MOL0     H25361   8.992   9.802   7.675  0.1942 -0.0772 -4.1578
  929MOL0     H25362   9.070   9.937   7.483  2.2842 -0.8445 -1.3002
  929MOL0     H25363   9.096  10.078   7.595  1.7573  0.1532  0.8554
  929MOL0     H25364   9.244   9.805   7.619 -1.3071 -1.0120 -1.4598
  929MOL0     H25365   9.248   9.941   7.729  1.8211 -0.8912  0.3628
  929MOL0     H25366   9.299   9.877   7.354 -3.2728  0.8151  2.2592
  929MOL0     H25367   9.611  10.013   7.228 -0.6253 -3.0643 -0.5647
  929MOL0     H25368   9.451   9.964   7.162 -0.8549  1.3283 -0.5354
  929MOL0     H25369   9.509  10.192   7.081 -3.6625 -0.4871  0.3622
  929MOL0     H25370   9.571  10.237   7.240  0.9158 -0.0972 -0.9607
  929MOL0     H25371   9.372  10.356   7.211 -0.3284 -1.2300 -1.1522
  929MOL0     H25372   9.314  10.229   7.308 -0.3404  0.5005  0.8761
  929MOL0     H25373   9.305  10.211   6.998 -2.1248 -1.9343 -0.8625
  929MOL0     H25374   9.191  10.304   7.086  2.2830  3.0970  0.2134
  929MOL0     H25375   9.057  10.304   7.238 -1.2638  0.9468  0.2103
  929MOL0     H25376   8.881  10.412   7.295  1.3241 -0.6393 -1.4926
  929MOL0     H25377   8.754  10.400   7.167 -3.1216 -2.1094  0.7534
  929MOL0     H25378   8.726  10.359   7.341 -0.6167  1.2592 -0.1525
  929MOL0     H25379   8.493  10.300   7.040 -0.4134  0.2938 -0.5577
  929MOL0     H25380   8.256  10.344   6.965 -1.1474 -0.1563  0.3026
  929MOL0     H25381   8.057  10.309   6.922  2.0447 -1.0410  1.1480
  929MOL0     H25382   8.035  10.174   7.027 -2.9839 -0.2111  0.4492
  929MOL0     H25383   7.810  10.272   7.095  1.2414 -0.0098  2.3141
  929MOL0     H25384   7.815  10.347   6.929  2.1413 -0.3530  0.1535
  929MOL0     H25385   7.838  10.045   6.957 -0.6484  0.2838 -1.6436
  929MOL0     H25386   7.871  10.147   6.825 -0.1624  1.6885  0.4190
  929MOL0     H25387   7.607  10.126   6.967 -0.7934 -0.0692  0.0458
  929MOL0     H25388   7.633  10.218   6.821  0.9032 -0.1164 -0.8639
  929MOL0     H25389   7.523  10.002   6.759  1.5094  0.9523 -2.3034
  929MOL0     H25390   7.641   9.912   6.859 -0.7599 -0.7181 -0.1042
  929MOL0     H25391   7.699  10.075   6.602  1.6075 -1.0494 -1.2798
  929MOL0     H25392   7.820   9.988   6.695 -0.7536  3.6656  0.2760
  929MOL0     H25393   7.573   9.871   6.571 -0.9605  0.3107 -2.4745
  929MOL0     H25394   7.692   9.781   6.641 -2.4268 -0.5194 -1.4440
  929MOL0     H25395   7.851   9.864   6.450  0.4081 -0.3583 -3.2848
  929MOL0     H25396   7.723   9.982   6.400  3.4330  0.0439 -1.8991
  929MOL0     H25397   8.113  10.262   7.355 -0.9735  4.2826  0.2311
  929MOL0     H25398   8.356  10.161   7.407  1.5513 -0.6629 -0.3884
  929MOL0     H25399   8.796   9.894   7.143  0.2526 -0.1894 -0.2965
  929MOL0     H25400   9.053   9.899   7.121  2.5678  1.0035 -0.1370
  929MOL0     H25401   8.762   9.527   8.136  0.0859  2.3030  0.2711
  929MOL0     H25402   8.733   9.483   8.366  2.2616 -0.4657 -3.7301
  929MOL0     H25403   8.230   9.287   8.721 -0.0769 -2.0867  0.2594
  929MOL0     H25404   8.253   9.172   8.933  0.2249 -0.1786 -2.2912
  929MOL0     H25405   8.281   9.233   9.147 -2.3588 -3.2174  0.5626
  929MOL0     H25406   8.343   9.075   9.177  0.3635  0.0626  3.7828
  929MOL0     H25407   8.325   9.230   9.400 -2.4527  0.9668 -2.2236
  929MOL0     H25408   8.434   9.338   9.312 -0.2971  0.6224  2.7275
  929MOL0     H25409   8.539   9.188   9.485  0.9892 -1.5077  0.2474
  929MOL0     H25410   8.617   9.199   9.331  0.5178  1.4265  1.1942
  929MOL0     H25411   8.607   8.971   9.423  1.0234  2.7772  0.8205
  929MOL0     H25412   8.506   8.959   9.285 -0.9179 -1.5890  0.1153
  929MOL0     H25413   8.232   8.942   9.633  0.3746  0.4587  0.4017
  929MOL0     H25414   8.642   9.367   8.951 -1.3759  1.6501  1.3625
  929MOL0     H25415   8.623   9.458   8.756  1.5870 -1.0904  1.5511
  930MOL0     O25416   2.248   8.539   9.207 -0.6502  0.3738 -0.0710
  930MOL0     C25417   2.272   8.542   9.089 -0.1445 -0.8437 -0.6591
  930MOL0     O25418   2.297   8.655   9.017 -0.7933 -0.4640 -0.1647
  930MOL0     C25419   2.283   8.785   9.077  0.7717  0.9056  0.3970
  930MOL0     C25420   2.239   8.889   8.995  0.6236  0.7033 -0.6674
  930MOL0     C25421   2.260   9.023   9.029 -0.6407  0.0382  0.3689
  930MOL0     C25422   2.335   9.061   9.139 -0.3075 -0.1574  0.1388
  930MOL0     O25423   2.367   9.200   9.162 -0.0735  0.3708  0.5251
  930MOL0     C25424   2.382   9.251   9.302 -0.3145  0.6990  0.3569
  930MOL0     C25425   2.381   9.394   9.301 -0.0419 -0.0168  0.8052
  930MOL0     C25426   2.250   9.468   9.279 -0.7345  0.5305  0.7006
  930MOL0     C25427   2.206   9.452   9.134 -0.1061 -0.5516  0.3303
  930MOL0     C25428   2.107   9.552   9.096 -0.2519  0.4979 -0.8448
  930MOL0     C25429   1.975   9.541   9.180  0.2975  0.1599  0.0188
  930MOL0     C25430   1.872   9.648   9.145  0.4138  0.4959  0.8554
  930MOL0     C25431   1.745   9.637   9.230  0.5866 -0.3910  0.1677
  930MOL0     N25432   1.634   9.734   9.196 -0.3319  0.7897 -0.7396
  930MOL0     C25433   1.593   9.758   9.070  0.0114 -0.5608 -0.2722
  930MOL0     C25434   1.489   9.844   9.080 -0.1504 -0.3518  0.5481
  930MOL0     C25435   1.404   9.906   8.972  0.1196  0.3017  0.3295
  930MOL0     C25436   1.329   9.797   8.887  0.1200  1.1634 -0.7707
  930MOL0     C25437   1.186   9.840   8.855 -0.5254  0.3085  0.2342
  930MOL0     C25438   1.200   9.956   8.752  0.0735  0.1350  0.1426
  930MOL0     O25439   1.072   9.990   8.708  0.4977  0.4186 -0.7713
  930MOL0     C25440   1.002   9.917   8.612 -0.4022 -0.0381  0.4812
  930MOL0     C25441   0.864   9.950   8.594 -0.2496  0.1731  0.7375
  930MOL0     C25442   0.781   9.877   8.509  0.1279  0.0850 -0.0152
  930MOL0     C25443   0.637   9.908   8.496 -0.1426  0.6216  0.3700
  930MOL0     C25444   0.844   9.766   8.435  0.9771 -0.4343  0.1579
  930MOL0     C25445   0.770   9.671   8.347  0.9225  0.1186 -1.1254
  930MOL0     O25446   0.835   9.627   8.242 -0.7378 -0.0844 -0.4192
  930MOL0     C25447   0.788   9.510   8.179 -0.5866 -0.0076 -0.7500
  930MOL0     C25448   0.820   9.386   8.233 -0.3498  0.8497  0.0835
  930MOL0     C25449   0.771   9.276   8.162 -0.4440  0.4765  0.3575
  930MOL0     C25450   0.704   9.282   8.041  0.3222  0.4272 -1.1264
  930MOL0     O25451   0.662   9.169   7.973  0.7464 -0.3906 -0.4363
  930MOL0     C25452   0.566   9.180   7.858 -0.8584 -0.1134 -0.5073
  930MOL0     C25453   0.553   9.037   7.803 -0.1121  0.1571 -1.0971
  930MOL0     C25454   0.688   8.975   7.762  0.3157  0.1802  0.1887
  930MOL0     C25455   0.657   8.845   7.682 -0.0855 -0.1549  0.1812
  930MOL0     C25456   0.708   8.717   7.763  0.6666 -0.5483 -0.6593
  930MOL0     C25457   0.848   8.683   7.731  0.1334  0.5842 -0.1279
  930MOL0     C25458   0.870   8.535   7.725  0.1092  1.8604 -0.5141
  930MOL0     C25459   1.018   8.506   7.705 -0.7861  0.6836  0.5704
  930MOL0    Cl25460   1.043   8.327   7.684 -0.1689  0.2915  0.6055
  930MOL0     C25461   0.678   9.408   7.993  0.9185 -0.5476  0.4556
  930MOL0     C25462   0.716   9.527   8.060 -0.3475  0.5491 -0.2872
  930MOL0     O25463   0.648   9.634   8.375  0.4383 -0.3743 -0.6801
  930MOL0     C25464   0.973   9.741   8.457 -0.3985 -0.7618  0.2441
  930MOL0     C25465   1.056   9.814   8.544  1.0367  0.5625 -0.5018
  930MOL0     N25466   1.467   9.868   9.219 -0.1152  0.3842  0.0447
  930MOL0     N25467   1.560   9.801   9.285  0.1825  0.2101 -0.0552
  930MOL0     C25468   2.384   8.956   9.222 -1.4798 -0.7642 -0.5721
  930MOL0     C25469   2.349   8.821   9.196  0.8296 -0.6809 -0.2465
  930MOL0     C25470   2.293   8.408   9.032 -0.5564 -0.1033 -0.5262
  930MOL0     C25471   2.286   8.391   8.892 -0.3532 -0.2585  0.6235
  930MOL0     C25472   2.267   8.264   8.829 -0.5074 -0.7406 -0.2889
  930MOL0     C25473   2.269   8.150   8.915  0.6570 -0.5089  0.1305
  930MOL0     O25474   2.247   8.035   8.854 -0.7211  0.6842  0.3681
  930MOL0     C25475   2.355   7.938   8.860 -1.0042  0.5510 -0.3574
  930MOL0     C25476   2.311   7.816   8.945  0.9312  0.7409  0.1052
  930MOL0     C25477   2.413   7.717   8.989 -0.7071  0.4926 -0.1437
  930MOL0     C25478   2.479   7.745   9.123 -0.6220 -0.5132 -0.2468
  930MOL0     C25479   2.551   7.874   9.117 -0.5108 -0.8084  0.6198
  930MOL0     C25480   2.605   7.983   9.093  0.0640 -0.1655  0.7169
  930MOL0     C25481   2.272   8.165   9.054 -0.0686  0.7128 -0.1200
  930MOL0     C25482   2.280   8.290   9.110  0.2407 -0.2336  0.0017
  930MOL0     H25483   2.198   8.863   8.898  0.8646 -1.0093 -0.3383
  930MOL0     H25484   2.222   9.103   8.966  0.1435  0.1789  0.0573
  930MOL0     H25485   2.295   9.218   9.360 -1.9793  3.0866 -0.5937
  930MOL0     H25486   2.476   9.221   9.348  0.3952  0.3540 -1.2919
  930MOL0     H25487   2.422   9.437   9.393 -1.3441 -1.3431  2.0654
  930MOL0     H25488   2.450   9.420   9.221  0.5038 -0.7267  1.0358
  930MOL0     H25489   2.179   9.422   9.348  0.8584 -1.8518  0.8528
  930MOL0     H25490   2.262   9.576   9.291  0.9875  0.1830  2.6106
  930MOL0     H25491   2.299   9.463   9.077  0.4311 -3.0604  0.5929
  930MOL0     H25492   2.173   9.350   9.112  3.3322 -1.4220 -1.5780
  930MOL0     H25493   2.155   9.648   9.121  0.7398  0.0675 -1.0615
  930MOL0     H25494   2.076   9.551   8.991  0.5582 -1.6807 -1.0960
  930MOL0     H25495   1.928   9.443   9.169 -0.7855  0.8098 -1.4030
  930MOL0     H25496   2.001   9.555   9.285 -1.5771  1.2463  0.3758
  930MOL0     H25497   1.911   9.749   9.139 -1.6940  1.3704  1.0467
  930MOL0     H25498   1.845   9.630   9.041 -1.6612 -1.6758  1.6577
  930MOL0     H25499   1.774   9.659   9.333  0.6642  1.0129 -0.1373
  930MOL0     H25500   1.698   9.540   9.209 -0.7519  0.0261  1.1001
  930MOL0     H25501   1.626   9.721   8.973 -0.6875 -0.3872 -0.5820
  930MOL0     H25502   1.344   9.982   9.023  1.3216  0.5864  1.3631
  930MOL0     H25503   1.473   9.957   8.903  0.6669 -0.6889  0.1280
  930MOL0     H25504   1.313   9.698   8.931  1.4308  1.0783 -0.4669
  930MOL0     H25505   1.384   9.790   8.793  1.0004  1.8079 -0.3127
  930MOL0     H25506   1.129   9.870   8.943 -1.3389  0.6879 -0.4076
  930MOL0     H25507   1.133   9.759   8.804 -1.9837  1.4477 -0.1331
  930MOL0     H25508   1.264   9.934   8.667 -0.0464 -0.0058  0.0883
  930MOL0     H25509   1.234  10.051   8.795  1.1997 -0.8709  1.5806
  930MOL0     H25510   0.827  10.025   8.663 -0.5941  0.4347  0.2704
  930MOL0     H25511   0.586   9.828   8.550 -4.6290  0.7677 -3.0512
  930MOL0     H25512   0.613  10.009   8.530  1.9737  1.3026  0.0375
  930MOL0     H25513   0.609   9.903   8.390 -0.7081  1.3295  0.4791
  930MOL0     H25514   0.870   9.366   8.327  1.0648  1.1205 -0.5712
  930MOL0     H25515   0.783   9.185   8.220 -0.7021  0.1189 -0.1382
  930MOL0     H25516   0.474   9.214   7.906 -1.2618 -0.2635 -1.1610
  930MOL0     H25517   0.601   9.248   7.779 -1.3517  1.4921  0.6116
  930MOL0     H25518   0.503   8.973   7.877 -2.0278  1.2870 -1.3445
  930MOL0     H25519   0.483   9.048   7.720 -0.0574 -0.6758 -1.2613
  930MOL0     H25520   0.754   8.970   7.849 -0.9862  1.9223  1.3573
  930MOL0     H25521   0.744   9.048   7.703  1.5074  1.8465  3.1556
  930MOL0     H25522   0.550   8.833   7.661 -0.7340 -0.9106  3.3271
  930MOL0     H25523   0.717   8.860   7.592  0.4852  0.4836  0.6550
  930MOL0     H25524   0.643   8.634   7.733  1.4552 -1.8280  0.9743
  930MOL0     H25525   0.702   8.732   7.871 -0.7179 -0.7106 -0.6924
  930MOL0     H25526   0.868   8.713   7.628  2.1346 -2.6183 -0.8206
  930MOL0     H25527   0.912   8.741   7.798 -1.0804  0.1516  1.4719
  930MOL0     H25528   0.814   8.481   7.648  1.6394 -1.6770  0.6512
  930MOL0     H25529   0.842   8.493   7.822 -0.9723  1.5411 -0.9505
  930MOL0     H25530   1.071   8.537   7.795 -4.5168  2.1856  2.4853
  930MOL0     H25531   1.054   8.557   7.616  0.4958 -0.6615  0.2701
  930MOL0     H25532   0.619   9.429   7.905  0.0680 -3.1063  0.3470
  930MOL0     H25533   0.692   9.622   8.014 -0.6133 -0.3303 -2.0874
  930MOL0     H25534   1.029   9.660   8.410  1.1136  1.1852 -1.4919
  930MOL0     H25535   1.158   9.777   8.547  0.6534 -0.6233  3.7657
  930MOL0     H25536   2.451   8.987   9.302  1.9290 -0.4430 -3.3129
  930MOL0     H25537   2.409   8.752   9.256  1.7274 -0.0536 -0.4068
  930MOL0     H25538   2.278   8.482   8.833 -0.7569 -1.5683 -1.4634
  930MOL0     H25539   2.264   8.270   8.720 -1.6438 -0.0750 -0.2416
  930MOL0     H25540   2.380   7.921   8.754  0.1800  0.1993 -0.0345
  930MOL0     H25541   2.449   7.976   8.902  1.3361 -2.0530 -2.7553
  930MOL0     H25542   2.233   7.758   8.894  0.8755  0.2467  0.7325
  930MOL0     H25543   2.268   7.860   9.035  0.5715 -0.4385  0.5377
  930MOL0     H25544   2.491   7.699   8.914  0.4968 -0.2881  1.2373
  930MOL0     H25545   2.355   7.624   8.994 -0.6477  0.4878  3.6056
  930MOL0     H25546   2.556   7.671   9.146 -0.9535 -0.4181  1.2367
  930MOL0     H25547   2.408   7.739   9.205  1.8052 -1.3581  1.9309
  930MOL0     H25548   2.647   8.082   9.089 -1.5631  0.6080  1.5490
  930MOL0     H25549   2.261   8.078   9.119 -1.1897  1.1914  0.3532
  930MOL0     H25550   2.276   8.298   9.218 -0.0123  2.5975 -0.1476
  931MOL0     O25551   7.362   9.395   4.928  0.0640 -0.2225 -0.4789
  931MOL0     C25552   7.293   9.497   4.911 -0.0702 -0.9950 -0.0997
  931MOL0     O25553   7.201   9.541   4.997  0.1211  0.0409 -0.3926
  931MOL0     C25554   7.177   9.471   5.115  0.2456  0.5025  0.1770
  931MOL0     C25555   7.162   9.551   5.229  0.2154 -0.5370 -0.1946
  931MOL0     C25556   7.120   9.500   5.349 -0.8134 -0.0072  0.8135
  931MOL0     C25557   7.096   9.364   5.357 -1.3004 -0.2696 -0.1115
  931MOL0     O25558   7.046   9.310   5.471 -0.6265 -0.0552  0.0743
  931MOL0     C25559   7.008   9.403   5.578  0.1789  0.7311 -0.4941
  931MOL0     C25560   6.947   9.314   5.694 -0.1034 -0.3393  0.6454
  931MOL0     C25561   7.050   9.206   5.741 -1.2245  0.2242 -0.4310
  931MOL0     C25562   6.986   9.116   5.848  0.3726 -0.1886 -0.0791
  931MOL0     C25563   7.081   9.067   5.953 -0.2463  0.9739  0.1782
  931MOL0     C25564   7.005   8.995   6.060 -0.3941 -0.1005  0.9591
  931MOL0     C25565   7.106   8.964   6.173  0.3326 -0.2909 -0.1673
  931MOL0     C25566   7.150   9.080   6.264 -0.6432 -0.3728  0.7401
  931MOL0     N25567   7.223   9.033   6.375 -0.1203  0.4643 -0.0359
  931MOL0     C25568   7.157   9.021   6.499  0.5557  0.8347  0.7767
  931MOL0     C25569   7.260   8.987   6.584  0.2839 -0.8178 -0.3753
  931MOL0     C25570   7.242   8.956   6.726 -0.6324  0.2082 -1.1617
  931MOL0     C25571   7.296   9.077   6.817  0.0066  0.0942  0.3440
  931MOL0     C25572   7.317   9.033   6.960  0.3547  0.5700 -0.4241
  931MOL0     C25573   7.344   9.157   7.064 -0.8303 -0.1456  0.4059
  931MOL0     O25574   7.332   9.104   7.193 -0.0670 -0.8553  0.6374
  931MOL0     C25575   7.408   9.006   7.236 -0.2457  0.2464 -0.3726
  931MOL0     C25576   7.547   9.006   7.223 -0.3992  0.2460  0.6282
  931MOL0     C25577   7.624   8.903   7.271  1.2487 -0.2820  1.0378
  931MOL0     C25578   7.775   8.932   7.273 -0.1653 -0.2273 -0.3622
  931MOL0     C25579   7.564   8.799   7.344 -0.0696 -0.0277 -0.0913
  931MOL0     C25580   7.621   8.672   7.391 -0.2266  0.1306 -0.0657
  931MOL0     O25581   7.542   8.598   7.475 -0.2044  0.7775  0.2973
  931MOL0     C25582   7.610   8.502   7.547  0.4163  0.2989 -0.5710
  931MOL0     C25583   7.706   8.547   7.641 -0.7169  0.4610 -0.4043
  931MOL0     C25584   7.792   8.443   7.703 -0.3586 -0.2865 -0.1943
  931MOL0     C25585   7.758   8.309   7.692  0.0024 -0.6841  0.7183
  931MOL0     O25586   7.819   8.220   7.771  0.1716 -0.1967 -0.3387
  931MOL0     C25587   7.840   8.082   7.726 -0.1971 -0.3658 -0.1219
  931MOL0     C25588   7.931   8.013   7.830  0.0385 -1.0794  0.1584
  931MOL0     C25589   7.960   7.869   7.795  0.5831 -0.3249  0.7695
  931MOL0     C25590   8.053   7.815   7.906 -0.5122  0.4511  0.3514
  931MOL0     C25591   8.078   7.661   7.889  0.0833  1.0901  0.6138
  931MOL0     C25592   8.217   7.612   7.941 -0.9260 -0.0384 -0.4230
  931MOL0     C25593   8.239   7.626   8.092  0.4265  0.2241  0.6820
  931MOL0     C25594   8.376   7.572   8.142  0.7205  0.8797 -0.3924
  931MOL0    Cl25595   8.426   7.411   8.091 -0.0840  0.0852 -0.0826
  931MOL0     C25596   7.649   8.271   7.611 -0.6647  0.1850  0.1083
  931MOL0     C25597   7.585   8.364   7.535  0.0799 -0.3729  0.4116
  931MOL0     O25598   7.723   8.627   7.340 -0.3373  0.3140  0.1090
  931MOL0     C25599   7.422   8.812   7.364  0.0444  0.3498 -0.5316
  931MOL0     C25600   7.342   8.909   7.309 -1.0731 -0.4450  0.0206
  931MOL0     N25601   7.373   8.996   6.517  0.0287  0.0290  0.4380
  931MOL0     N25602   7.359   9.031   6.394 -0.1694 -0.1924 -0.7619
  931MOL0     C25603   7.123   9.281   5.251  0.2075 -0.4901  0.1740
  931MOL0     C25604   7.151   9.336   5.129 -0.8214 -0.1890  0.6347
  931MOL0     C25605   7.306   9.571   4.786  0.6683  0.6230 -0.5972
  931MOL0     C25606   7.386   9.523   4.677  0.8669 -0.0704  0.4446
  931MOL0     C25607   7.366   9.582   4.552  0.8611  0.2608  0.2919
  931MOL0     C25608   7.279   9.696   4.529  0.3017 -0.5251 -0.4675
  931MOL0     O25609   7.251   9.767   4.416  0.2747 -0.2121  0.1283
  931MOL0     C25610   7.289   9.702   4.292 -0.0211 -0.6079  0.2927
  931MOL0     C25611   7.267   9.788   4.172 -0.3969  0.5195  1.0066
  931MOL0     C25612   7.117   9.810   4.152 -0.6990 -0.4629  0.7110
  931MOL0     C25613   7.086   9.909   4.027 -0.6413 -0.1150  0.1733
  931MOL0     C25614   7.127  10.053   4.029 -0.2015  0.4975  0.1742
  931MOL0     C25615   7.177  10.164   4.020 -0.4895 -0.6215 -0.3711
  931MOL0     C25616   7.226   9.753   4.652 -0.4972 -0.7397  0.7279
  931MOL0     C25617   7.233   9.689   4.771 -0.2255  0.4612 -0.4267
  931MOL0     H25618   7.178   9.657   5.211  0.6492 -0.3474  1.2488
  931MOL0     H25619   7.108   9.575   5.426 -0.1804  1.2132 -0.2309
  931MOL0     H25620   7.100   9.443   5.622  0.2970  0.1148 -0.1581
  931MOL0     H25621   6.936   9.477   5.543 -0.3195 -0.4687 -2.1087
  931MOL0     H25622   6.915   9.379   5.776  0.5254 -1.1859  1.5769
  931MOL0     H25623   6.853   9.268   5.663 -0.3358 -0.2218  1.1706
  931MOL0     H25624   7.078   9.142   5.657 -0.8283 -1.3797  0.8689
  931MOL0     H25625   7.141   9.256   5.775 -0.6140 -1.0328 -0.1387
  931MOL0     H25626   6.916   9.171   5.912 -0.9267 -3.8287  1.9791
  931MOL0     H25627   6.919   9.037   5.810 -4.5052  0.9589  4.8225
  931MOL0     H25628   7.158   9.009   5.902 -2.3499 -1.9650  0.0688
  931MOL0     H25629   7.132   9.152   5.999 -1.4495  1.5136  0.5433
  931MOL0     H25630   6.922   9.059   6.090 -0.8462  1.1132 -2.4649
  931MOL0     H25631   6.963   8.908   6.008 -1.3515  1.5614 -1.2358
  931MOL0     H25632   7.059   8.893   6.241  2.5438 -0.8499  0.8570
  931MOL0     H25633   7.189   8.913   6.124  0.5211 -1.1814  1.0373
  931MOL0     H25634   7.064   9.139   6.299 -1.7553  0.6172 -3.1158
  931MOL0     H25635   7.208   9.148   6.200 -0.8783  2.6269  3.4644
  931MOL0     H25636   7.052   9.033   6.522  0.3485  1.1401 -0.2947
  931MOL0     H25637   7.137   8.935   6.748 -0.3837  0.5251  0.4672
  931MOL0     H25638   7.292   8.859   6.733 -0.2806  0.3750 -1.3398
  931MOL0     H25639   7.231   9.165   6.810 -0.6835 -0.3557  0.9100
  931MOL0     H25640   7.393   9.104   6.774  0.0323 -2.1269 -1.1117
  931MOL0     H25641   7.391   8.953   6.960 -1.0374 -0.7783 -2.1977
  931MOL0     H25642   7.219   8.991   6.980 -0.5686  2.8103  0.1310
  931MOL0     H25643   7.269   9.232   7.039  1.6442  1.7607 -1.7791
  931MOL0     H25644   7.444   9.198   7.048 -1.1086  0.2734 -0.2547
  931MOL0     H25645   7.589   9.096   7.177  0.5438  0.1730  1.3152
  931MOL0     H25646   7.798   9.038   7.260  0.1461 -0.4407 -1.6959
  931MOL0     H25647   7.823   8.875   7.354  0.9808 -1.1858 -1.6603
  931MOL0     H25648   7.815   8.890   7.181 -0.8984  0.7403 -1.1388
  931MOL0     H25649   7.713   8.654   7.657 -1.6568  0.3594  0.8488
  931MOL0     H25650   7.869   8.472   7.774 -1.4175  0.4430  0.6939
  931MOL0     H25651   7.742   8.034   7.716  0.5828 -2.0185 -0.1546
  931MOL0     H25652   7.877   8.073   7.623 -1.0199 -1.3799 -0.3495
  931MOL0     H25653   8.020   8.076   7.823 -2.1224  2.2136 -0.2307
  931MOL0     H25654   7.895   8.025   7.932  3.0450 -0.0975  1.2069
  931MOL0     H25655   8.010   7.849   7.700 -1.8887 -1.3020 -0.4052
  931MOL0     H25656   7.869   7.808   7.792  0.8320 -0.6686 -1.4848
  931MOL0     H25657   8.142   7.876   7.892  0.4054 -0.8274  0.3876
  931MOL0     H25658   8.016   7.835   8.007  2.5126 -1.5246  1.9791
  931MOL0     H25659   8.084   7.655   7.780 -0.5060 -1.4609  0.6632
  931MOL0     H25660   7.992   7.606   7.927 -2.3228  2.9772 -1.7457
  931MOL0     H25661   8.237   7.506   7.923  1.5637 -0.2125  2.6300
  931MOL0     H25662   8.295   7.671   7.892  0.4149  1.7000  3.4034
  931MOL0     H25663   8.174   7.553   8.141 -3.5502  0.8819 -3.0765
  931MOL0     H25664   8.234   7.727   8.134  0.4208  2.4071 -4.0426
  931MOL0     H25665   8.367   7.574   8.251  0.2274 -0.3421 -0.3938
  931MOL0     H25666   8.450   7.645   8.107 -0.5092  1.7231 -1.3260
  931MOL0     H25667   7.616   8.168   7.610 -0.9211  0.2597 -1.4481
  931MOL0     H25668   7.516   8.324   7.462 -0.1755 -0.2879  0.6043
  931MOL0     H25669   7.356   8.740   7.411  0.3994  2.1476  3.0151
  931MOL0     H25670   7.237   8.915   7.337 -1.3526  0.0729 -1.1126
  931MOL0     H25671   7.107   9.174   5.263  1.9520 -0.8584 -0.5229
  931MOL0     H25672   7.156   9.270   5.043 -2.8386 -1.9756  1.7923
  931MOL0     H25673   7.434   9.426   4.683 -0.2653 -0.7335 -0.7260
  931MOL0     H25674   7.401   9.525   4.467 -1.1398  0.0768 -0.4635
  931MOL0     H25675   7.394   9.676   4.304  1.3022  3.8452  0.0936
  931MOL0     H25676   7.229   9.616   4.261 -1.2010  0.4081 -0.3465
  931MOL0     H25677   7.303   9.737   4.082 -2.5595  3.4537 -1.7699
  931MOL0     H25678   7.325   9.880   4.173 -0.1570  0.3659  1.4547
  931MOL0     H25679   7.085   9.851   4.248  2.6685 -0.4048  1.9374
  931MOL0     H25680   7.072   9.713   4.131 -2.8601  0.7893 -0.7884
  931MOL0     H25681   6.980   9.901   4.004 -0.3545 -0.8951 -0.9906
  931MOL0     H25682   7.137   9.874   3.936  3.0703  2.0995  1.1957
  931MOL0     H25683   7.206  10.263   3.989 -1.3367  0.1270  1.0893
  931MOL0     H25684   7.160   9.839   4.648  1.8419  1.1239 -1.9451
  931MOL0     H25685   7.191   9.739   4.857  0.4317 -3.1660  2.2362
  932MOL0     O25686   1.272  10.414   3.133  0.0988  0.1803  0.2055
  932MOL0     C25687   1.345  10.489   3.064  0.5975 -0.3671 -1.1726
  932MOL0     O25688   1.299  10.585   2.979 -0.2865 -0.4026 -0.4342
  932MOL0     C25689   1.178  10.631   3.011  0.8344  0.8768 -0.4597
  932MOL0     C25690   1.059  10.574   2.955 -0.1707 -0.9668  0.2310
  932MOL0     C25691   0.938  10.637   2.979  1.0311 -0.0231  0.0091
  932MOL0     C25692   0.925  10.755   3.052 -0.1014  0.3481  0.1170
  932MOL0     O25693   0.801  10.813   3.059 -0.1237  0.4300  0.0087
  932MOL0     C25694   0.779  10.952   3.064 -0.8959 -0.0146 -0.4762
  932MOL0     C25695   0.726  10.998   3.202 -0.1549  1.0300  0.7801
  932MOL0     C25696   0.629  11.115   3.194  0.8006 -0.4931 -0.4699
  932MOL0     C25697   0.586  11.151   3.339 -0.2045  0.4323 -0.4503
  932MOL0     C25698   0.471  11.251   3.351 -0.0361 -0.2152  0.7315
  932MOL0     C25699   0.465  11.375   3.247  0.1877  0.2806 -0.5842
  932MOL0     C25700   0.327  11.442   3.263 -0.6135 -0.4517  0.0343
  932MOL0     C25701   0.222  11.398   3.164 -0.6838 -0.4174  0.1862
  932MOL0     N25702   0.114  11.494   3.142 -0.3272 -0.0013 -0.2798
  932MOL0     C25703  -0.005  11.509   3.202 -0.4873 -0.0609  0.0389
  932MOL0     C25704  -0.073  11.610   3.141 -0.4498 -0.2493 -0.1452
  932MOL0     C25705  -0.201  11.663   3.195 -0.2013  0.1982 -0.0328
  932MOL0     C25706  -0.304  11.556   3.216  0.4923  0.2932  0.7168
  932MOL0     C25707  -0.446  11.614   3.225  0.6157 -0.7543  0.0117
  932MOL0     C25708  -0.558  11.513   3.226  0.5325  0.0863 -0.5977
  932MOL0     O25709  -0.548  11.439   3.348 -0.3537 -0.3526  0.8350
  932MOL0     C25710  -0.661  11.382   3.403  0.4281 -0.4347  0.2556
  932MOL0     C25711  -0.757  11.318   3.320 -1.4859  0.7687 -0.1760
  932MOL0     C25712  -0.865  11.240   3.369 -0.0044  0.3740  0.0018
  932MOL0     C25713  -0.965  11.169   3.279 -0.4908 -0.7072 -0.3626
  932MOL0     C25714  -0.877  11.238   3.508 -0.1852  0.9657 -0.0794
  932MOL0     C25715  -0.985  11.164   3.580  0.2536 -0.2668 -0.0416
  932MOL0     O25716  -0.944  11.116   3.702  0.5754  0.0772  0.2880
  932MOL0     C25717  -1.041  11.060   3.783 -0.6351 -0.1969  0.0864
  932MOL0     C25718  -1.140  11.136   3.844  0.2413 -0.8529 -0.1544
  932MOL0     C25719  -1.222  11.088   3.944  0.5117  0.2964 -0.2646
  932MOL0     C25720  -1.213  10.955   3.993  0.8781  0.0980 -0.1425
  932MOL0     O25721  -1.286  10.921   4.107 -0.3520 -0.0071 -0.4254
  932MOL0     C25722  -1.352  10.798   4.116  0.0647 -0.5612  0.2987
  932MOL0     C25723  -1.287  10.706   4.224  0.7430  0.8680 -0.5025
  932MOL0     C25724  -1.365  10.596   4.275  0.5459  0.3802  0.0411
  932MOL0     C25725  -1.409  10.508   4.167  0.0918 -0.1045  0.2453
  932MOL0     C25726  -1.446  10.367   4.218 -0.2223 -0.3777 -0.1929
  932MOL0     C25727  -1.512  10.288   4.101 -0.0653 -0.0099  0.6702
  932MOL0     C25728  -1.660  10.291   4.111  0.7992 -0.8878  0.4263
  932MOL0     C25729  -1.730  10.203   4.013 -0.2973 -0.5403  0.3102
  932MOL0    Cl25730  -1.894  10.164   4.085 -0.2350  0.0202  0.1901
  932MOL0     C25731  -1.126  10.877   3.931  0.0910 -0.3744 -0.7072
  932MOL0     C25732  -1.043  10.923   3.821  0.4677 -0.4468 -0.1326
  932MOL0     O25733  -1.091  11.144   3.536  0.4281  0.2206 -0.3333
  932MOL0     C25734  -0.785  11.301   3.587  0.2330 -1.0694 -0.3426
  932MOL0     C25735  -0.685  11.374   3.537  0.4074 -0.1625 -0.9012
  932MOL0     N25736   0.004  11.654   3.041  0.1545  0.0979 -0.7951
  932MOL0     N25737   0.117  11.583   3.037  0.2466 -0.7824 -0.5912
  932MOL0     C25738   1.040  10.809   3.124  0.4951  1.1800  0.2381
  932MOL0     C25739   1.165  10.746   3.100 -0.4908  0.6171  0.5350
  932MOL0     C25740   1.488  10.445   3.048  0.2305 -0.0542  0.3689
  932MOL0     C25741   1.569  10.509   2.947 -0.2055 -0.5813  1.1205
  932MOL0     C25742   1.703  10.467   2.940  0.1854 -0.1609 -0.5427
  932MOL0     C25743   1.756  10.375   3.035 -0.0992  0.6480  0.4496
  932MOL0     O25744   1.885  10.348   3.016 -0.3969 -0.3570  0.8719
  932MOL0     C25745   1.973  10.346   3.133  0.9489 -0.7178 -0.4078
  932MOL0     C25746   2.013  10.491   3.164 -0.2909 -0.6279 -0.5609
  932MOL0     C25747   2.108  10.489   3.280  0.0574 -0.2056  0.7586
  932MOL0     C25748   2.044  10.445   3.410 -0.3713  1.2728  0.1288
  932MOL0     C25749   2.077  10.525   3.525 -0.3888 -0.5899 -0.2712
  932MOL0     C25750   2.118  10.605   3.609  0.0093  0.5424  0.6120
  932MOL0     C25751   1.679  10.306   3.123 -0.5781  0.6681  0.2624
  932MOL0     C25752   1.545  10.345   3.124 -0.1578  0.0976 -0.0804
  932MOL0     H25753   1.063  10.486   2.892  1.6222 -0.1197 -0.9210
  932MOL0     H25754   0.854  10.593   2.925  0.9361 -0.9882  0.9152
  932MOL0     H25755   0.854  11.029   3.047 -0.4789 -0.0990  0.8419
  932MOL0     H25756   0.698  10.976   2.994 -3.0495  0.1042  1.8889
  932MOL0     H25757   0.666  10.914   3.237 -1.4939  1.3479 -0.6511
  932MOL0     H25758   0.813  11.014   3.268  0.9537 -1.4618  0.0542
  932MOL0     H25759   0.682  11.191   3.136  0.5373 -1.2266 -1.7159
  932MOL0     H25760   0.537  11.083   3.144 -0.3623  0.5312  0.9263
  932MOL0     H25761   0.569  11.065   3.404  0.8555  1.6659  1.5457
  932MOL0     H25762   0.672  11.199   3.385 -2.1385  1.8031  1.9875
  932MOL0     H25763   0.380  11.190   3.357 -3.0433  3.8031  0.2677
  932MOL0     H25764   0.480  11.291   3.453  0.7113  0.7283  0.3081
  932MOL0     H25765   0.550  11.439   3.273  2.5146 -2.5058 -0.8525
  932MOL0     H25766   0.485  11.329   3.150 -1.8025 -1.9876 -0.0131
  932MOL0     H25767   0.291  11.430   3.365  2.7239  0.7470  1.4935
  932MOL0     H25768   0.345  11.549   3.243  2.5855 -1.5770 -5.3019
  932MOL0     H25769   0.165  11.311   3.200 -3.5203  0.7460 -1.1749
  932MOL0     H25770   0.274  11.371   3.072 -3.1423  0.5967 -1.6134
  932MOL0     H25771  -0.041  11.440   3.278  1.1211  0.3927  1.2759
  932MOL0     H25772  -0.188  11.703   3.296 -0.2893  1.2396 -0.4159
  932MOL0     H25773  -0.253  11.744   3.142 -1.7322 -0.2795  0.6831
  932MOL0     H25774  -0.290  11.502   3.310  0.1534  0.0322  0.6199
  932MOL0     H25775  -0.310  11.481   3.136 -1.6987 -0.6779  1.7178
  932MOL0     H25776  -0.477  11.679   3.143 -3.5568 -1.8298  0.4749
  932MOL0     H25777  -0.449  11.681   3.311 -2.7104 -0.2618 -0.3612
  932MOL0     H25778  -0.566  11.454   3.134 -1.1016  1.2477 -1.2420
  932MOL0     H25779  -0.651  11.571   3.222 -0.1378 -1.0089 -1.8834
  932MOL0     H25780  -0.741  11.316   3.212  0.0910 -0.3166  0.0419
  932MOL0     H25781  -0.931  11.193   3.178 -0.0032  1.4934  0.2853
  932MOL0     H25782  -0.960  11.060   3.287  1.8684 -1.0165 -3.7974
  932MOL0     H25783  -1.067  11.207   3.292  0.9298  3.4555  0.1774
  932MOL0     H25784  -1.150  11.236   3.805  0.2103 -0.0718  1.7417
  932MOL0     H25785  -1.302  11.153   3.979  0.6063  0.4506 -0.3290
  932MOL0     H25786  -1.457  10.814   4.142 -1.2231 -1.7893 -3.4438
  932MOL0     H25787  -1.366  10.750   4.018 -0.6525 -0.1594  0.1929
  932MOL0     H25788  -1.190  10.672   4.187  0.3432 -0.1005 -0.6889
  932MOL0     H25789  -1.273  10.768   4.314 -0.9707 -2.7663  2.5154
  932MOL0     H25790  -1.442  10.622   4.348  0.5054  0.3061  0.0239
  932MOL0     H25791  -1.292  10.539   4.335  1.0294  2.7199  1.8303
  932MOL0     H25792  -1.489  10.565   4.118 -0.8795 -2.5507 -1.2205
  932MOL0     H25793  -1.338  10.489   4.085 -1.2459 -1.2371 -0.6964
  932MOL0     H25794  -1.500  10.365   4.313  1.2273 -0.0515  0.6657
  932MOL0     H25795  -1.349  10.319   4.237  0.0515 -0.3108 -1.3485
  932MOL0     H25796  -1.473  10.320   4.004  2.7489 -0.4053  1.5907
  932MOL0     H25797  -1.472  10.187   4.115 -0.6369 -0.4292 -0.5237
  932MOL0     H25798  -1.675  10.394   4.077  0.1388 -1.4622 -1.1347
  932MOL0     H25799  -1.685  10.262   4.213  4.2233  1.2088  1.9968
  932MOL0     H25800  -1.685  10.104   4.002 -0.5977 -0.5407 -1.0545
  932MOL0     H25801  -1.726  10.249   3.914 -0.4632 -0.5485  0.3003
  932MOL0     H25802  -1.109  10.778   3.973  1.5375 -0.6093 -1.7841
  932MOL0     H25803  -0.976  10.847   3.782  1.8928  1.0254 -0.6528
  932MOL0     H25804  -0.791  11.297   3.695  3.3308  0.4181 -0.0099
  932MOL0     H25805  -0.615  11.422   3.605  3.7731 -2.6639 -2.3431
  932MOL0     H25806   1.026  10.896   3.187 -1.0599 -0.3890  2.2083
  932MOL0     H25807   1.257  10.785   3.140 -0.6691  3.2726 -1.3500
  932MOL0     H25808   1.517  10.567   2.871  0.0658 -0.8982  0.6851
  932MOL0     H25809   1.760  10.485   2.850 -3.0307 -1.6834 -3.0909
  932MOL0     H25810   1.934  10.303   3.226  4.6708 -2.2172  0.6395
  932MOL0     H25811   2.055  10.281   3.103  4.3834  1.7688  2.7640
  932MOL0     H25812   1.927  10.557   3.181  0.5855  1.0166 -2.1872
  932MOL0     H25813   2.067  10.537   3.081 -1.6418  1.6366 -0.2854
  932MOL0     H25814   2.143  10.590   3.301 -1.1391  0.0721  1.5286
  932MOL0     H25815   2.194  10.426   3.257 -2.0512 -3.5270  1.2116
  932MOL0     H25816   2.092  10.352   3.439  2.1575  2.7267  0.9214
  932MOL0     H25817   1.935  10.449   3.403 -0.4503 -0.1780  0.2731
  932MOL0     H25818   2.150  10.674   3.684  3.5364  2.4260 -2.2826
  932MOL0     H25819   1.705  10.227   3.192 -2.9585  2.0797  2.9875
  932MOL0     H25820   1.483  10.290   3.194  1.5364 -3.9276 -1.4561
  933MOL0     O25821   7.425   5.999   6.627 -0.6568 -0.4556 -0.1750
  933MOL0     C25822   7.344   5.927   6.690  0.5935  1.2048  0.3875
  933MOL0     O25823   7.207   5.950   6.688 -0.3579 -0.0086 -0.6074
  933MOL0     C25824   7.163   6.064   6.616  1.0916  0.9344  0.2028
  933MOL0     C25825   7.086   6.162   6.685  0.0745  0.3536  0.2340
  933MOL0     C25826   7.037   6.276   6.613 -0.0303 -0.4541 -0.1717
  933MOL0     C25827   7.049   6.281   6.471 -0.7936 -0.0153 -0.2762
  933MOL0     O25828   6.989   6.373   6.387  0.6315 -0.0596  0.0513
  933MOL0     C25829   6.951   6.507   6.442 -0.7908 -0.1258 -0.3410
  933MOL0     C25830   6.884   6.596   6.332  0.0008 -0.1790  0.1370
  933MOL0     C25831   6.874   6.743   6.386 -0.3345  0.1265  0.5819
  933MOL0     C25832   6.830   6.841   6.276  0.7380 -0.0300  0.4916
  933MOL0     C25833   6.803   6.986   6.319  0.1010  0.3513  0.1402
  933MOL0     C25834   6.747   7.066   6.189  0.3718 -0.0467 -0.1881
  933MOL0     C25835   6.693   7.206   6.211 -0.2887  0.3330 -0.7708
  933MOL0     C25836   6.579   7.230   6.304  0.5135  0.1023 -0.4479
  933MOL0     N25837   6.455   7.177   6.242 -0.1294 -0.5708  0.2965
  933MOL0     C25838   6.421   7.051   6.224  0.1655  0.1429  0.5455
  933MOL0     C25839   6.288   7.062   6.203 -0.2188  0.5096  0.1593
  933MOL0     C25840   6.179   6.959   6.171  0.0402 -0.2947 -0.4482
  933MOL0     C25841   6.146   6.857   6.283 -0.6035  0.4742  0.6656
  933MOL0     C25842   6.220   6.723   6.278 -0.1543  1.5294 -0.0542
  933MOL0     C25843   6.206   6.642   6.404  0.2579 -0.0153  0.4430
  933MOL0     O25844   6.233   6.505   6.389 -0.5071  1.0950 -0.1413
  933MOL0     C25845   6.227   6.432   6.509  0.0514  0.3836 -0.1261
  933MOL0     C25846   6.183   6.476   6.634 -0.6474  0.1526 -0.4301
  933MOL0     C25847   6.174   6.380   6.734  0.6609 -0.2372 -0.8172
  933MOL0     C25848   6.108   6.425   6.864 -1.1833 -0.6102  0.2226
  933MOL0     C25849   6.217   6.244   6.719 -0.7006  0.7323  0.1875
  933MOL0     C25850   6.226   6.135   6.830 -0.3913 -0.4250 -1.0942
  933MOL0     O25851   6.323   6.041   6.808  0.9176  0.0643 -1.0593
  933MOL0     C25852   6.358   5.959   6.908 -0.9192  0.0945 -0.8209
  933MOL0     C25853   6.480   5.979   6.967 -0.0385 -0.8773 -0.2689
  933MOL0     C25854   6.524   5.890   7.064 -0.3187 -0.6156  0.0255
  933MOL0     C25855   6.469   5.770   7.087 -0.2428  0.6809 -0.2573
  933MOL0     O25856   6.517   5.678   7.176  0.4968  0.8587 -0.3151
  933MOL0     C25857   6.654   5.649   7.162  0.0916  0.0009 -0.3451
  933MOL0     C25858   6.679   5.527   7.253  0.4697 -0.3936  0.9061
  933MOL0     C25859   6.631   5.399   7.170 -0.7505 -0.1120  0.8942
  933MOL0     C25860   6.602   5.287   7.266  0.0354 -0.3873 -0.8294
  933MOL0     C25861   6.545   5.159   7.195 -0.4602 -0.1084  0.3761
  933MOL0     C25862   6.507   5.054   7.293 -0.2705  0.7033  0.0638
  933MOL0     C25863   6.485   4.923   7.224 -0.8969 -0.5906 -0.3806
  933MOL0     C25864   6.394   4.827   7.305  0.4365 -0.9683  0.8791
  933MOL0    Cl25865   6.480   4.749   7.438 -0.1604  0.1717  0.1331
  933MOL0     C25866   6.345   5.743   7.021 -0.3521  0.0649  0.4958
  933MOL0     C25867   6.293   5.835   6.939 -0.5135 -0.3148 -0.1381
  933MOL0     O25868   6.147   6.132   6.924  0.1374  0.4216  0.6648
  933MOL0     C25869   6.261   6.210   6.592  0.4712  0.0812  0.8525
  933MOL0     C25870   6.258   6.299   6.482  0.7702 -0.9253  0.1925
  933MOL0     N25871   6.250   7.193   6.192  0.3371 -0.2384  0.1363
  933MOL0     N25872   6.351   7.267   6.213  0.0208 -0.1758  0.1924
  933MOL0     C25873   7.132   6.181   6.412 -0.1819  0.6147 -0.6946
  933MOL0     C25874   7.186   6.072   6.475  0.4346  0.4953 -0.1985
  933MOL0     C25875   7.384   5.797   6.771  0.9976 -0.2371  0.5767
  933MOL0     C25876   7.288   5.702   6.796  0.5518  0.0117 -0.5034
  933MOL0     C25877   7.309   5.582   6.864 -0.8445 -0.5347  0.6519
  933MOL0     C25878   7.441   5.542   6.881 -0.0129 -0.6629 -0.0457
  933MOL0     O25879   7.458   5.414   6.920 -0.5856 -0.2923 -0.3207
  933MOL0     C25880   7.596   5.359   6.942  0.1478  0.3414 -1.1149
  933MOL0     C25881   7.600   5.209   6.961 -0.0944 -0.1918 -0.1318
  933MOL0     C25882   7.565   5.143   6.830 -0.1876  1.0908  0.1746
  933MOL0     C25883   7.554   4.994   6.837  0.4911 -0.7079 -0.9976
  933MOL0     C25884   7.497   4.949   6.712  0.4019 -0.2234  0.3378
  933MOL0     C25885   7.443   4.925   6.608 -0.1600  0.5171 -0.5759
  933MOL0     C25886   7.539   5.640   6.869  0.3258  0.1615 -0.5274
  933MOL0     C25887   7.508   5.769   6.819 -0.3275  0.1457 -0.2233
  933MOL0     H25888   7.081   6.148   6.792  0.3218 -0.4119  0.1539
  933MOL0     H25889   6.960   6.339   6.656  0.5257  0.7713 -0.9071
  933MOL0     H25890   6.884   6.512   6.529  1.6114 -0.3447  1.6405
  933MOL0     H25891   7.045   6.548   6.480  0.1584 -1.0387 -1.6527
  933MOL0     H25892   6.927   6.573   6.235 -0.8325 -0.0008 -0.2805
  933MOL0     H25893   6.779   6.567   6.318  0.9969 -2.8990 -2.8799
  933MOL0     H25894   6.797   6.726   6.462  0.1575 -1.6611  0.7237
  933MOL0     H25895   6.970   6.776   6.426 -1.1926  2.3687  0.8939
  933MOL0     H25896   6.909   6.850   6.200  0.8740 -0.6349  0.5580
  933MOL0     H25897   6.747   6.784   6.235  0.9471  1.2432 -1.9069
  933MOL0     H25898   6.744   6.970   6.410  1.8702 -0.6487  1.1852
  933MOL0     H25899   6.888   7.039   6.364 -1.0330  1.6748  0.7833
  933MOL0     H25900   6.836   7.066   6.126  1.9444 -0.2279  1.9130
  933MOL0     H25901   6.673   6.996   6.147 -0.9966 -0.1372  2.1954
  933MOL0     H25902   6.782   7.262   6.242 -0.5323 -0.5559  1.7555
  933MOL0     H25903   6.668   7.251   6.114 -0.0697 -1.4095 -1.6769
  933MOL0     H25904   6.578   7.339   6.319 -1.1416  0.0195  0.3156
  933MOL0     H25905   6.578   7.184   6.403 -1.5029 -0.2791 -0.6037
  933MOL0     H25906   6.488   6.966   6.227  0.1953  0.1799  0.9890
  933MOL0     H25907   6.087   7.012   6.146 -2.2723 -3.8178 -0.1009
  933MOL0     H25908   6.197   6.898   6.082 -0.6143 -0.0519 -0.7542
  933MOL0     H25909   6.039   6.848   6.302 -0.4938  0.1996  1.1614
  933MOL0     H25910   6.182   6.900   6.377 -0.6017  1.9998  0.0063
  933MOL0     H25911   6.327   6.727   6.256  0.6037  0.4024  2.9074
  933MOL0     H25912   6.174   6.662   6.200  0.3282  2.5608 -1.1886
  933MOL0     H25913   6.107   6.646   6.451 -0.4293 -1.7022 -0.7598
  933MOL0     H25914   6.276   6.668   6.484  3.2487  0.6144 -2.1979
  933MOL0     H25915   6.163   6.581   6.653 -0.9541  0.1446 -0.7053
  933MOL0     H25916   6.025   6.360   6.895 -0.6010 -0.8832  1.2822
  933MOL0     H25917   6.187   6.407   6.937 -1.0571 -4.2471 -0.5933
  933MOL0     H25918   6.068   6.526   6.851  1.0406 -0.0363 -3.6004
  933MOL0     H25919   6.537   6.065   6.933 -0.5761 -0.6578 -0.6212
  933MOL0     H25920   6.621   5.895   7.112  0.0331 -1.4254 -0.5881
  933MOL0     H25921   6.675   5.628   7.057  1.2591  3.0329 -0.8116
  933MOL0     H25922   6.725   5.727   7.190  0.3190  1.0702 -3.5249
  933MOL0     H25923   6.783   5.510   7.282  0.5832 -0.2168  0.6062
  933MOL0     H25924   6.631   5.539   7.350  1.8108 -0.2479  1.5676
  933MOL0     H25925   6.713   5.370   7.104 -1.9856  1.3767 -1.4365
  933MOL0     H25926   6.546   5.410   7.101 -2.8069  0.6497  3.4010
  933MOL0     H25927   6.693   5.261   7.320 -1.3708 -0.7454  1.5245
  933MOL0     H25928   6.540   5.324   7.349  0.7624  0.9766 -0.8600
  933MOL0     H25929   6.624   5.127   7.127 -0.3072  1.2876 -0.1316
  933MOL0     H25930   6.463   5.193   7.131  1.3642  1.7987 -1.1008
  933MOL0     H25931   6.587   5.035   7.365 -1.4820 -2.8235  0.6828
  933MOL0     H25932   6.416   5.072   7.351  0.8384 -0.8252  2.4754
  933MOL0     H25933   6.577   4.865   7.210  1.0929  2.4715 -1.0175
  933MOL0     H25934   6.455   4.960   7.126 -1.0934  2.2998  0.6842
  933MOL0     H25935   6.357   4.746   7.241 -1.8639 -0.4419  1.4768
  933MOL0     H25936   6.301   4.879   7.328  1.1341  1.1832 -0.9131
  933MOL0     H25937   6.297   5.649   7.045 -0.2160  0.3361  1.9098
  933MOL0     H25938   6.194   5.814   6.899 -1.1772  2.4118 -0.1370
  933MOL0     H25939   6.293   6.108   6.574  1.7566  0.7809 -1.0820
  933MOL0     H25940   6.288   6.270   6.382 -2.2807 -1.0246 -0.7846
  933MOL0     H25941   7.158   6.193   6.307  1.4523  5.5974  0.0258
  933MOL0     H25942   7.232   5.985   6.429 -1.8914 -0.3461 -1.0636
  933MOL0     H25943   7.188   5.715   6.755 -0.4876  2.3300  2.3870
  933MOL0     H25944   7.232   5.506   6.875 -0.5168 -1.1729 -1.1915
  933MOL0     H25945   7.655   5.387   6.854 -0.6869  1.5307 -1.3098
  933MOL0     H25946   7.648   5.408   7.025 -2.8351  1.1445  0.4048
  933MOL0     H25947   7.532   5.175   7.039 -1.2756  0.1128 -1.0091
  933MOL0     H25948   7.699   5.181   7.000  0.0819  3.5980  2.8070
  933MOL0     H25949   7.640   5.163   6.753 -1.4180  1.0459 -1.0847
  933MOL0     H25950   7.465   5.177   6.800 -0.7739 -1.7793 -1.5093
  933MOL0     H25951   7.483   4.963   6.914  0.0184  0.8406 -0.7563
  933MOL0     H25952   7.647   4.939   6.856  0.1725 -1.0868 -0.5223
  933MOL0     H25953   7.398   4.916   6.511 -1.5680 -1.6651  0.2116
  933MOL0     H25954   7.641   5.628   6.903  1.0321 -0.2732 -2.6058
  933MOL0     H25955   7.582   5.848   6.828 -1.2187  0.8546  1.1738
  934MOL0     O25956   7.376   3.755   6.360  0.3882 -0.4063  0.1701
  934MOL0     C25957   7.333   3.840   6.288  0.3266 -0.8794 -0.1369
  934MOL0     O25958   7.215   3.913   6.305 -0.3170  0.2208  0.3532
  934MOL0     C25959   7.123   3.851   6.385  0.5225 -0.4245  0.4780
  934MOL0     C25960   7.002   3.818   6.334 -0.2745  0.3790 -0.5259
  934MOL0     C25961   6.906   3.772   6.418 -0.6429  0.6114  1.2136
  934MOL0     C25962   6.922   3.750   6.551  0.2080  0.5983 -1.2653
  934MOL0     O25963   6.828   3.679   6.625  0.2085  0.2656  0.8507
  934MOL0     C25964   6.850   3.622   6.757  0.5583  0.2841 -0.5401
  934MOL0     C25965   6.941   3.504   6.763  0.7403  0.0653 -0.0280
  934MOL0     C25966   6.964   3.422   6.898 -0.5431 -0.2635 -0.7720
  934MOL0     C25967   6.961   3.522   7.015 -0.3473 -0.2509 -0.4591
  934MOL0     C25968   7.011   3.465   7.151  0.3372 -0.2629 -0.1833
  934MOL0     C25969   6.993   3.576   7.254 -0.2931 -0.3752  0.1126
  934MOL0     C25970   7.004   3.522   7.397 -0.9266 -0.7076  1.0377
  934MOL0     C25971   6.880   3.463   7.461 -0.2450  0.2513  0.2502
  934MOL0     N25972   6.761   3.546   7.444 -0.4856  1.1364 -0.1511
  934MOL0     C25973   6.752   3.678   7.477 -0.4587 -0.2539 -0.1821
  934MOL0     C25974   6.619   3.711   7.473  0.5216  0.5933 -0.5762
  934MOL0     C25975   6.546   3.842   7.484 -0.3018 -0.0973  0.1582
  934MOL0     C25976   6.620   3.938   7.574 -0.1218 -0.3087 -0.4509
  934MOL0     C25977   6.606   3.887   7.721 -0.4460 -0.6008 -0.2033
  934MOL0     C25978   6.671   3.996   7.820 -0.5685 -0.9000 -0.9073
  934MOL0     O25979   6.811   4.031   7.782  0.7461  0.6094  0.4926
  934MOL0     C25980   6.890   4.112   7.862 -1.1942 -0.1690 -0.6433
  934MOL0     C25981   6.854   4.200   7.958  0.7199 -0.7007 -0.0884
  934MOL0     C25982   6.943   4.293   8.012 -0.0701 -0.2639 -1.3539
  934MOL0     C25983   6.894   4.374   8.131  0.3152 -0.2416 -0.0468
  934MOL0     C25984   7.071   4.300   7.962 -0.4243 -0.3893 -0.0368
  934MOL0     C25985   7.176   4.401   8.006  0.5332  0.1291 -0.6002
  934MOL0     O25986   7.268   4.446   7.919 -0.5646 -0.0314  0.4918
  934MOL0     C25987   7.337   4.560   7.958 -0.1841 -0.9487 -1.0208
  934MOL0     C25988   7.475   4.560   7.975 -0.0138 -0.1555 -0.4066
  934MOL0     C25989   7.538   4.673   8.030  0.1351  0.0295  1.0143
  934MOL0     C25990   7.469   4.788   8.062 -1.1997 -0.6654 -0.1760
  934MOL0     O25991   7.527   4.912   8.110  0.0909  0.4084 -0.1434
  934MOL0     C25992   7.647   4.914   8.187 -0.4589  0.1528  0.5192
  934MOL0     C25993   7.684   5.054   8.244 -1.2579  0.5035  0.8806
  934MOL0     C25994   7.565   5.164   8.264 -1.0347  0.1405 -0.1284
  934MOL0     C25995   7.536   5.229   8.125 -0.1915 -0.7426  0.8360
  934MOL0     C25996   7.384   5.245   8.109 -1.0171 -0.3067  0.2699
  934MOL0     C25997   7.353   5.330   7.981  0.5907 -0.2576 -0.0481
  934MOL0     C25998   7.383   5.474   8.008  0.3933  0.3816  0.3104
  934MOL0     C25999   7.358   5.561   7.889  0.1447 -1.1483  0.2256
  934MOL0    Cl26000   7.342   5.749   7.928 -0.2323  0.4915  0.1480
  934MOL0     C26001   7.329   4.783   8.045  0.0250 -0.3807 -0.3965
  934MOL0     C26002   7.265   4.674   7.993  0.0751  0.3714 -0.1360
  934MOL0     O26003   7.168   4.443   8.124  0.1885 -0.0910  0.7393
  934MOL0     C26004   7.105   4.219   7.853 -0.3136  1.5089 -0.9874
  934MOL0     C26005   7.018   4.123   7.814  0.5553  0.3524  0.6604
  934MOL0     N26006   6.547   3.590   7.443 -0.3759  0.1349  0.1266
  934MOL0     N26007   6.639   3.499   7.417  0.9397 -0.6130  0.3875
  934MOL0     C26008   7.046   3.783   6.606  0.7072 -1.5756 -0.5238
  934MOL0     C26009   7.148   3.829   6.522  0.7231 -0.4826  0.6541
  934MOL0     C26010   7.414   3.878   6.171 -0.3647 -0.5801  0.0132
  934MOL0     C26011   7.364   3.959   6.073  0.0794  0.8177  1.5691
  934MOL0     C26012   7.424   3.973   5.941 -0.1743  0.2184 -0.0745
  934MOL0     C26013   7.542   3.906   5.916  0.2545 -0.0724 -0.1757
  934MOL0     O26014   7.615   3.916   5.797 -0.0790 -0.0637  0.4566
  934MOL0     C26015   7.543   3.931   5.674 -0.3686  0.8643  0.4932
  934MOL0     C26016   7.539   4.076   5.626 -0.0249 -1.1680  0.1909
  934MOL0     C26017   7.675   4.137   5.588 -0.2071  0.5505 -0.0002
  934MOL0     C26018   7.736   4.231   5.691 -0.9637  0.7093 -0.2177
  934MOL0     C26019   7.881   4.231   5.664  0.0767 -0.2493  1.0688
  934MOL0     C26020   8.000   4.235   5.649 -0.5781  0.3158  0.3992
  934MOL0     C26021   7.595   3.823   6.017  0.6686 -0.1236  0.4504
  934MOL0     C26022   7.539   3.809   6.145  0.6694 -0.3825  0.5974
  934MOL0     H26023   6.988   3.847   6.231 -0.1584  0.4254 -0.5286
  934MOL0     H26024   6.811   3.737   6.378 -1.5759  1.7055  2.3712
  934MOL0     H26025   6.880   3.712   6.813 -0.6989  1.5810 -1.8632
  934MOL0     H26026   6.756   3.591   6.805 -1.5732  1.1365 -3.8457
  934MOL0     H26027   6.919   3.431   6.684  0.8941  0.1857 -0.1836
  934MOL0     H26028   7.044   3.531   6.735  1.1787 -2.1305 -0.7936
  934MOL0     H26029   6.886   3.346   6.911  0.0170 -0.8370 -0.7483
  934MOL0     H26030   7.064   3.378   6.892 -0.4464 -0.0039 -1.1523
  934MOL0     H26031   7.027   3.608   6.999  1.2550 -1.1084  1.2220
  934MOL0     H26032   6.860   3.564   7.021  0.0422  0.8487 -1.2279
  934MOL0     H26033   6.944   3.379   7.157 -1.4607  1.0595 -0.3815
  934MOL0     H26034   7.116   3.434   7.147  0.4124 -1.3597  4.4960
  934MOL0     H26035   7.075   3.647   7.238 -0.6962 -0.6119 -4.0188
  934MOL0     H26036   6.895   3.619   7.232 -2.3717 -5.4720 -2.2088
  934MOL0     H26037   7.079   3.444   7.410 -0.9396 -0.7038  1.1378
  934MOL0     H26038   7.037   3.607   7.459  1.1023 -0.5637 -0.1464
  934MOL0     H26039   6.909   3.446   7.565  3.0670  1.5346 -0.3456
  934MOL0     H26040   6.864   3.372   7.403 -2.4804  1.1375 -0.6463
  934MOL0     H26041   6.833   3.746   7.500 -0.0503 -0.4922 -0.9151
  934MOL0     H26042   6.541   3.889   7.385 -0.2640  0.1767  0.2830
  934MOL0     H26043   6.444   3.840   7.525 -0.3728  0.3528  0.0186
  934MOL0     H26044   6.574   4.037   7.574  1.0037  0.2361  0.3273
  934MOL0     H26045   6.723   3.958   7.543 -0.6107  2.8213 -0.4398
  934MOL0     H26046   6.655   3.790   7.727  1.8295  0.3987 -1.3966
  934MOL0     H26047   6.504   3.880   7.758 -0.2761  1.0207  0.6744
  934MOL0     H26048   6.664   3.968   7.925  2.1150  0.7565 -0.2037
  934MOL0     H26049   6.613   4.088   7.813 -1.4325 -1.2661  0.9373
  934MOL0     H26050   6.752   4.198   7.996  1.4727 -1.3940  2.0657
  934MOL0     H26051   6.934   4.475   8.125 -1.5406  0.4966 -0.7112
  934MOL0     H26052   6.785   4.379   8.144  0.2504  2.6887 -1.1439
  934MOL0     H26053   6.929   4.335   8.227 -0.5835 -0.6369  0.1338
  934MOL0     H26054   7.527   4.470   7.942 -0.6928  0.3693 -3.1217
  934MOL0     H26055   7.646   4.670   8.044 -0.0080  2.1356  3.3625
  934MOL0     H26056   7.610   4.860   8.275 -1.6263 -2.0741 -1.2185
  934MOL0     H26057   7.728   4.857   8.140 -1.5757  0.0263 -1.3622
  934MOL0     H26058   7.725   5.037   8.345  5.2369  0.5651 -1.2685
  934MOL0     H26059   7.765   5.098   8.185 -1.4778 -0.0778  0.1348
  934MOL0     H26060   7.607   5.240   8.330  0.4160  0.6230 -1.5092
  934MOL0     H26061   7.478   5.116   8.307  1.5082 -4.8280  0.1450
  934MOL0     H26062   7.598   5.318   8.137  1.8020 -2.3401  3.3403
  934MOL0     H26063   7.574   5.181   8.034 -0.6328  2.0466 -0.9598
  934MOL0     H26064   7.357   5.283   8.209  2.7610 -0.8364  1.6548
  934MOL0     H26065   7.330   5.151   8.095 -2.1638  0.5361 -1.3588
  934MOL0     H26066   7.398   5.297   7.887  0.6753 -4.1097  1.2038
  934MOL0     H26067   7.248   5.317   7.955 -0.0403  2.0743  1.0471
  934MOL0     H26068   7.486   5.488   8.043  0.5945 -0.7862  0.2039
  934MOL0     H26069   7.322   5.513   8.090 -0.0413  0.0974  0.1255
  934MOL0     H26070   7.270   5.536   7.830  1.2807  0.6162 -2.3520
  934MOL0     H26071   7.444   5.557   7.823 -0.9577  0.0571 -1.3436
  934MOL0     H26072   7.276   4.872   8.078 -1.0194 -1.2468  0.3332
  934MOL0     H26073   7.156   4.670   7.986  0.1181 -0.9845 -0.3310
  934MOL0     H26074   7.205   4.211   7.812  0.6071 -2.0793  1.4582
  934MOL0     H26075   7.040   4.057   7.731  1.7397  1.3459  0.1470
  934MOL0     H26076   7.078   3.780   6.710  1.1843 -0.0643 -0.6070
  934MOL0     H26077   7.241   3.857   6.569  1.0948 -2.0004  0.8714
  934MOL0     H26078   7.272   4.008   6.102 -1.4910 -0.1528 -1.4164
  934MOL0     H26079   7.380   4.026   5.858 -1.3882 -4.2490 -2.6014
  934MOL0     H26080   7.586   3.867   5.596 -0.0610  3.0058 -1.2059
  934MOL0     H26081   7.446   3.882   5.686  0.7974 -1.6500  0.2267
  934MOL0     H26082   7.513   4.135   5.715  0.4803 -0.1186 -0.3356
  934MOL0     H26083   7.471   4.099   5.544 -1.2688 -1.3001  1.1449
  934MOL0     H26084   7.669   4.208   5.505 -1.5792  0.3544 -0.0855
  934MOL0     H26085   7.750   4.065   5.553  0.6788  0.8695  1.1892
  934MOL0     H26086   7.723   4.183   5.788  3.6561  0.5771  0.5538
  934MOL0     H26087   7.687   4.328   5.691  0.2226  1.3462 -1.4368
  934MOL0     H26088   8.106   4.249   5.648 -0.3992 -0.8891 -0.5549
  934MOL0     H26089   7.681   3.760   5.993 -0.6013 -2.7896  2.3702
  934MOL0     H26090   7.582   3.733   6.210 -0.8617 -3.4377 -1.6840
  935MOL0     O26091   6.709  11.315   8.775 -0.2744 -0.3327 -0.3653
  935MOL0     C26092   6.712  11.436   8.766 -0.2547 -0.9621  1.0166
  935MOL0     O26093   6.825  11.524   8.776  0.6114  0.7815 -0.4937
  935MOL0     C26094   6.956  11.480   8.795  1.4497 -0.5097  0.6906
  935MOL0     C26095   6.995  11.349   8.809 -1.2679 -0.6218  0.4019
  935MOL0     C26096   7.132  11.318   8.831 -0.1241 -0.3986 -0.1567
  935MOL0     C26097   7.225  11.422   8.838 -0.0003 -0.8611  0.2450
  935MOL0     O26098   7.350  11.377   8.856 -0.8502 -0.3549 -0.4105
  935MOL0     C26099   7.456  11.475   8.897  0.5453  0.2757  0.3730
  935MOL0     C26100   7.580  11.383   8.913  0.1006  0.0882  0.4110
  935MOL0     C26101   7.698  11.470   8.918 -0.3019  0.9622  0.9515
  935MOL0     C26102   7.820  11.396   8.977 -0.0421 -0.0865  0.3105
  935MOL0     C26103   7.875  11.277   8.905  0.1043  0.7589  0.1572
  935MOL0     C26104   7.951  11.299   8.770  0.0610  0.1963 -0.0094
  935MOL0     C26105   8.013  11.167   8.714  0.6606 -0.3061 -1.4537
  935MOL0     C26106   8.149  11.134   8.777 -0.0359  0.8532 -0.4728
  935MOL0     N26107   8.259  11.216   8.728 -0.6710 -0.1347 -0.1613
  935MOL0     C26108   8.355  11.185   8.642  0.5761  0.1784  0.6478
  935MOL0     C26109   8.443  11.285   8.641  0.2106 -0.4169  0.5739
  935MOL0     C26110   8.569  11.292   8.560 -0.1322  0.3976  0.4387
  935MOL0     C26111   8.687  11.225   8.616  0.7061  0.1477  0.6562
  935MOL0     C26112   8.817  11.237   8.538 -0.0794 -0.0249  0.1197
  935MOL0     C26113   8.948  11.217   8.618  0.6488  0.7532  0.4296
  935MOL0     O26114   8.980  11.074   8.620 -0.1974  0.1647  0.1757
  935MOL0     C26115   9.105  11.031   8.661 -0.7998 -0.2190 -0.1746
  935MOL0     C26116   9.118  10.903   8.706  1.4503  0.1617  0.6817
  935MOL0     C26117   9.239  10.846   8.744  0.3146 -0.3045 -0.8746
  935MOL0     C26118   9.227  10.699   8.770 -0.0316 -0.3273 -0.6202
  935MOL0     C26119   9.351  10.925   8.755 -0.1663  0.4029 -0.0624
  935MOL0     C26120   9.492  10.868   8.801 -0.3696 -0.4057  0.4494
  935MOL0     O26121   9.589  10.966   8.814  0.7086  0.8830  0.2750
  935MOL0     C26122   9.716  10.936   8.851 -0.4424 -0.4982  0.2316
  935MOL0     C26123   9.754  10.840   8.949 -0.2562 -0.0520 -1.2749
  935MOL0     C26124   9.889  10.841   8.985  0.2766 -0.4090 -0.8449
  935MOL0     C26125   9.990  10.920   8.932 -0.1886 -0.0184  1.6994
  935MOL0     O26126  10.120  10.884   8.943  0.6120 -0.1956  1.0037
  935MOL0     C26127  10.163  10.825   9.072 -0.2806  0.2694  0.0105
  935MOL0     C26128  10.181  10.663   9.073 -1.1974  0.1707  0.2439
  935MOL0     C26129  10.216  10.610   8.930  0.0725  0.3361 -0.8123
  935MOL0     C26130  10.200  10.459   8.931  0.3099 -1.0741 -0.3715
  935MOL0     C26131  10.257  10.413   8.792  0.1366 -0.1442 -0.1532
  935MOL0     C26132  10.407  10.388   8.810 -0.6924  0.5668  0.2720
  935MOL0     C26133  10.451  10.313   8.679  0.3347 -0.4845 -0.0132
  935MOL0     C26134  10.564  10.216   8.700  0.5787  0.5181  1.0598
  935MOL0    Cl26135  10.509  10.097   8.815  0.3398  0.2920 -0.6486
  935MOL0     C26136   9.952  11.000   8.827  0.5274  0.7143  0.6766
  935MOL0     C26137   9.810  11.017   8.793 -0.0299  0.2555 -1.0315
  935MOL0     O26138   9.520  10.746   8.807  0.2679 -0.1927 -0.0105
  935MOL0     C26139   9.334  11.060   8.726 -0.3502 -0.3618  0.0386
  935MOL0     C26140   9.216  11.112   8.683  0.2500  0.6618 -1.0335
  935MOL0     N26141   8.404  11.379   8.732 -0.7303 -0.3948  0.8356
  935MOL0     N26142   8.287  11.344   8.782 -0.3395  0.0380 -0.2512
  935MOL0     C26143   7.182  11.557   8.833  0.2856 -0.7894  0.5991
  935MOL0     C26144   7.046  11.585   8.802  0.3401  0.0941 -0.5633
  935MOL0     C26145   6.588  11.510   8.741  0.7698 -0.3590  0.2447
  935MOL0     C26146   6.470  11.453   8.696 -0.5914  0.4035 -0.3521
  935MOL0     C26147   6.355  11.527   8.671 -0.3002  0.2358  0.8333
  935MOL0     C26148   6.353  11.657   8.696  0.4068 -0.6538  0.2574
  935MOL0     O26149   6.242  11.725   8.639 -0.0124 -0.1868  0.0595
  935MOL0     C26150   6.231  11.861   8.646  0.5685  0.0844 -0.1966
  935MOL0     C26151   6.164  11.903   8.782  0.2853 -0.0327 -0.3470
  935MOL0     C26152   6.021  11.849   8.798  0.3117 -0.1592  0.1546
  935MOL0     C26153   5.924  11.862   8.676 -0.4610  1.1236  0.5468
  935MOL0     C26154   5.785  11.814   8.702 -1.1356 -0.2720 -0.9588
  935MOL0     C26155   5.676  11.783   8.737 -0.0717 -0.6748  0.0502
  935MOL0     C26156   6.460  11.715   8.763 -0.0122 -0.2465 -0.1447
  935MOL0     C26157   6.578  11.640   8.776 -1.0167  0.1631  0.4562
  935MOL0     H26158   6.931  11.263   8.792  0.7366 -1.6182 -2.9746
  935MOL0     H26159   7.175  11.220   8.844 -1.0355 -0.8100 -0.1549
  935MOL0     H26160   7.466  11.552   8.820  2.2602 -0.5615 -0.3020
  935MOL0     H26161   7.428  11.514   8.995  0.3669 -1.0829  0.8864
  935MOL0     H26162   7.565  11.322   9.004 -1.6658 -1.2156 -0.6894
  935MOL0     H26163   7.592  11.311   8.832 -0.1329 -0.2275  0.6486
  935MOL0     H26164   7.724  11.516   8.822 -1.6783  2.4089  1.2389
  935MOL0     H26165   7.676  11.548   8.992 -0.7411  0.2826  1.5469
  935MOL0     H26166   7.895  11.468   9.011 -1.8223  0.4350  3.5296
  935MOL0     H26167   7.791  11.354   9.074  1.5535  0.9867  1.2881
  935MOL0     H26168   7.943  11.233   8.979 -0.8734  2.5521  2.2245
  935MOL0     H26169   7.793  11.207   8.889  1.4372 -0.9928  0.6483
  935MOL0     H26170   7.881  11.332   8.692 -1.5479 -3.3592 -0.2543
  935MOL0     H26171   8.027  11.373   8.796 -1.1779  1.2569  0.7403
  935MOL0     H26172   7.951  11.081   8.739 -0.4753  1.5966  3.5341
  935MOL0     H26173   8.033  11.173   8.607  1.6611  0.8147 -1.2391
  935MOL0     H26174   8.179  11.034   8.747 -3.3207 -0.9910  1.7154
  935MOL0     H26175   8.151  11.149   8.886  1.7927 -0.1395 -0.3409
  935MOL0     H26176   8.361  11.089   8.591 -0.8273  1.0472 -1.2891
  935MOL0     H26177   8.553  11.249   8.461 -2.9279  2.8568 -0.3422
  935MOL0     H26178   8.590  11.400   8.558  1.6220  0.1010  1.0055
  935MOL0     H26179   8.672  11.117   8.625 -1.0856  0.3984  1.0314
  935MOL0     H26180   8.695  11.257   8.720 -0.7791  0.3064  0.7448
  935MOL0     H26181   8.816  11.342   8.505  2.9028 -0.9382 -3.6600
  935MOL0     H26182   8.809  11.184   8.443 -1.7490  1.4088 -0.5989
  935MOL0     H26183   8.931  11.263   8.716 -4.5755  0.6270 -0.1383
  935MOL0     H26184   9.026  11.271   8.564 -1.2665  0.6498 -2.7464
  935MOL0     H26185   9.024  10.849   8.709  1.3171  0.1538 -1.5919
  935MOL0     H26186   9.277  10.638   8.694  3.2540  0.9432  0.3447
  935MOL0     H26187   9.271  10.666   8.864 -1.5312 -4.2684 -1.1386
  935MOL0     H26188   9.123  10.676   8.793  0.2381  1.3087  2.7509
  935MOL0     H26189   9.689  10.771   9.003  0.5025 -0.5782 -1.0305
  935MOL0     H26190   9.902  10.772   9.068 -0.8295 -1.7391 -1.7156
  935MOL0     H26191  10.267  10.856   9.082 -0.4825  1.9526 -2.2438
  935MOL0     H26192  10.112  10.866   9.160  2.5370  2.0574  0.9489
  935MOL0     H26193  10.253  10.634   9.149  0.3385 -2.1557 -1.9166
  935MOL0     H26194  10.086  10.617   9.101 -0.3182 -0.5962  2.0796
  935MOL0     H26195  10.317  10.631   8.893  0.6877 -4.4693 -2.4884
  935MOL0     H26196  10.142  10.652   8.861  0.4968  1.5763 -0.5469
  935MOL0     H26197  10.239  10.415   9.023 -3.8198 -2.6931  0.8206
  935MOL0     H26198  10.093  10.436   8.923  0.0122 -0.0278  0.4832
  935MOL0     H26199  10.233  10.478   8.708 -0.7172  0.0687  0.2503
  935MOL0     H26200  10.218  10.313   8.773  1.0793 -0.8495  1.3947
  935MOL0     H26201  10.464  10.482   8.816  0.0139  0.0934  1.1983
  935MOL0     H26202  10.429  10.339   8.905  1.1562  0.5126 -0.1286
  935MOL0     H26203  10.476  10.390   8.606 -2.4589 -1.0629 -1.7156
  935MOL0     H26204  10.369  10.252   8.640  0.1321 -0.5079  0.4471
  935MOL0     H26205  10.652  10.265   8.743  0.3823  1.1051  0.8020
  935MOL0     H26206  10.593  10.159   8.611  1.6926 -0.1318  1.8103
  935MOL0     H26207  10.013  11.055   8.756 -1.3252  1.6240 -0.2787
  935MOL0     H26208   9.773  11.095   8.727 -1.9766 -0.3959 -0.7856
  935MOL0     H26209   9.415  11.130   8.744 -0.2052 -0.0206 -1.7314
  935MOL0     H26210   9.217  11.218   8.661 -0.1978  1.0904  0.8853
  935MOL0     H26211   7.249  11.641   8.846 -0.3348 -0.5079  2.3300
  935MOL0     H26212   7.010  11.687   8.796  1.3492  0.4137 -2.0585
  935MOL0     H26213   6.477  11.345   8.689 -0.5702  0.4533 -1.2068
  935MOL0     H26214   6.269  11.481   8.624 -1.9275  0.8602  3.0316
  935MOL0     H26215   6.327  11.913   8.641  0.0422  1.4052  2.1511
  935MOL0     H26216   6.165  11.901   8.569 -0.6367  2.8024  2.1066
  935MOL0     H26217   6.163  12.010   8.803  1.0555 -0.2038  0.6160
  935MOL0     H26218   6.218  11.858   8.865  0.9585  0.4616 -0.5112
  935MOL0     H26219   5.975  11.903   8.881 -1.8025 -1.8344  0.1566
  935MOL0     H26220   6.031  11.744   8.827  0.8952 -0.4136 -0.9187
  935MOL0     H26221   5.972  11.800   8.600  1.5206 -0.6409  3.0241
  935MOL0     H26222   5.917  11.964   8.637 -2.0556  1.6029  1.9573
  935MOL0     H26223   5.578  11.744   8.750  0.0593 -1.2194 -0.5461
  935MOL0     H26224   6.459  11.823   8.775 -2.9735 -0.1655 -0.4118
  935MOL0     H26225   6.654  11.691   8.833 -1.8057  5.7875 -2.7002
  936MOL0     O26226  11.196   6.532   7.436  0.4180 -0.1377  0.2191
  936MOL0     C26227  11.281   6.580   7.508 -0.0326  0.3216 -0.2775
  936MOL0     O26228  11.378   6.512   7.578  0.2769  0.5215 -0.0844
  936MOL0     C26229  11.383   6.371   7.562 -0.1234  0.2133 -0.2196
  936MOL0     C26230  11.394   6.288   7.677 -0.2722 -0.0960  0.2110
  936MOL0     C26231  11.401   6.152   7.674 -0.9658 -0.0364 -0.9240
  936MOL0     C26232  11.390   6.082   7.550  0.1707  0.6057  0.2170
  936MOL0     O26233  11.380   5.943   7.557 -0.3740 -0.7192  0.2701
  936MOL0     C26234  11.274   5.893   7.467 -0.0898 -0.0863 -0.7113
  936MOL0     C26235  11.347   5.816   7.356  0.1442  1.4478  0.7796
  936MOL0     C26236  11.260   5.763   7.234 -0.2874  0.1512 -0.7333
  936MOL0     C26237  11.268   5.864   7.119  0.1565 -0.1395  1.1113
  936MOL0     C26238  11.166   5.848   7.010 -0.1243 -0.3115  0.0563
  936MOL0     C26239  11.215   5.746   6.910 -0.1211  0.5668 -0.7146
  936MOL0     C26240  11.125   5.707   6.797 -0.2730  0.0235 -0.8126
  936MOL0     C26241  11.171   5.584   6.722  0.4522 -0.8696  0.7049
  936MOL0     N26242  11.092   5.560   6.601 -0.0406  0.5009 -0.7290
  936MOL0     C26243  11.137   5.504   6.483 -0.5555  0.0838  0.0618
  936MOL0     C26244  11.023   5.474   6.413  0.4884 -0.7647  0.5467
  936MOL0     C26245  11.012   5.417   6.284  0.1106 -0.0782  0.4706
  936MOL0     C26246  11.134   5.433   6.190  0.2768  0.8929  0.5403
  936MOL0     C26247  11.164   5.591   6.153 -0.0994  0.0169  0.3890
  936MOL0     C26248  11.062   5.659   6.055  0.3366 -0.0180  0.3513
  936MOL0     O26249  10.934   5.677   6.108 -0.1532  0.1283  0.0446
  936MOL0     C26250  10.910   5.753   6.222  0.3778 -0.1189  0.4887
  936MOL0     C26251  10.981   5.871   6.257 -0.3952 -0.4565  0.4047
  936MOL0     C26252  10.949   5.944   6.373 -0.3953  0.2150 -0.9064
  936MOL0     C26253  11.016   6.078   6.407 -0.3347 -0.3274 -0.1522
  936MOL0     C26254  10.854   5.886   6.457 -0.0586  0.5318 -0.7890
  936MOL0     C26255  10.806   5.950   6.585 -0.3396 -0.4162  0.0774
  936MOL0     O26256  10.684   5.917   6.617  0.6481 -0.2347  0.2526
  936MOL0     C26257  10.621   5.993   6.709 -1.0145  0.1345 -0.2951
  936MOL0     C26258  10.664   5.983   6.840 -0.0674  0.3152 -0.2436
  936MOL0     C26259  10.595   6.052   6.940  0.8648  0.0493 -0.9837
  936MOL0     C26260  10.477   6.122   6.914  0.8853  0.7017 -0.3155
  936MOL0     O26261  10.397   6.183   7.012  0.1795 -0.0712 -0.3541
  936MOL0     C26262  10.416   6.121   7.142  0.2355  0.7876 -0.1246
  936MOL0     C26263  10.309   6.169   7.243 -0.6132 -0.1637 -0.5015
  936MOL0     C26264  10.164   6.123   7.207 -0.3291 -0.1820  1.0475
  936MOL0     C26265  10.063   6.188   7.310  0.0704 -0.7533 -0.1441
  936MOL0     C26266  10.072   6.149   7.465  0.0951 -0.3782  0.8893
  936MOL0     C26267   9.932   6.177   7.532  0.0554 -0.1344 -0.2507
  936MOL0     C26268   9.952   6.217   7.681  0.6509 -1.0094 -0.2271
  936MOL0     C26269   9.829   6.258   7.752  1.0536  0.7036 -0.4216
  936MOL0    Cl26270   9.704   6.128   7.774  0.1707  0.2519 -0.0095
  936MOL0     C26271  10.444   6.122   6.779  0.5641  0.1351 -0.0697
  936MOL0     C26272  10.510   6.058   6.675 -0.5366  0.3562  0.5266
  936MOL0     O26273  10.877   6.031   6.646 -0.4146 -0.0012 -0.2525
  936MOL0     C26274  10.775   5.776   6.412  0.3064 -0.5221 -0.1962
  936MOL0     C26275  10.810   5.705   6.298  0.3690  0.3980 -0.0353
  936MOL0     N26276  10.917   5.509   6.493  0.3026 -0.3514 -0.0552
  936MOL0     N26277  10.957   5.567   6.603 -0.7917  0.7621  0.1252
  936MOL0     C26278  11.392   6.158   7.429 -0.7940 -0.3024 -0.8025
  936MOL0     C26279  11.389   6.298   7.437  0.5034 -0.5285 -0.1717
  936MOL0     C26280  11.279   6.731   7.524 -0.0522  1.4777 -0.3214
  936MOL0     C26281  11.395   6.790   7.578  0.9988 -0.1469 -0.1041
  936MOL0     C26282  11.401   6.930   7.597  1.0498 -0.0807  0.9206
  936MOL0     C26283  11.282   7.004   7.569  0.0581 -0.3396 -0.5286
  936MOL0     O26284  11.295   7.137   7.599 -1.0438  0.3346  0.2016
  936MOL0     C26285  11.180   7.219   7.591 -0.0729  0.7545  0.1822
  936MOL0     C26286  11.189   7.358   7.642  0.5457  0.5056  0.4949
  936MOL0     C26287  11.239   7.368   7.785 -0.1686 -0.4012  0.9949
  936MOL0     C26288  11.146   7.302   7.898  0.0582 -1.1217  0.1484
  936MOL0     C26289  11.026   7.376   7.920  0.2157 -0.9193  0.7223
  936MOL0     C26290  10.923   7.434   7.940  0.6087  0.1582  1.0115
  936MOL0     C26291  11.163   6.936   7.542  0.7114 -1.1289  1.0796
  936MOL0     C26292  11.158   6.801   7.517 -0.3110 -0.0657  0.0271
  936MOL0     H26293  11.396   6.329   7.778  1.9849  2.1641 -0.6510
  936MOL0     H26294  11.405   6.098   7.768  1.5364  1.2469 -0.2051
  936MOL0     H26295  11.213   5.822   7.524  1.5307 -0.9290  0.0446
  936MOL0     H26296  11.215   5.978   7.431  1.6778  2.7029  2.4229
  936MOL0     H26297  11.420   5.889   7.317  1.9521 -0.6618  0.0152
  936MOL0     H26298  11.396   5.729   7.399 -0.7093  1.7578  2.4818
  936MOL0     H26299  11.291   5.666   7.193 -2.6889 -1.9163  1.9329
  936MOL0     H26300  11.160   5.747   7.275  0.5423 -0.7285  1.0513
  936MOL0     H26301  11.246   5.961   7.166  0.3410  0.2369  0.4254
  936MOL0     H26302  11.365   5.856   7.070 -1.2458 -2.9677 -1.5462
  936MOL0     H26303  11.071   5.814   7.052 -0.2419 -1.0686 -0.8112
  936MOL0     H26304  11.151   5.939   6.952 -1.3650 -2.2246 -2.8490
  936MOL0     H26305  11.307   5.782   6.861  0.7373  1.3899  1.3905
  936MOL0     H26306  11.236   5.654   6.964 -4.6210  0.9209  2.1337
  936MOL0     H26307  11.024   5.685   6.835 -0.6354  1.7526 -0.6743
  936MOL0     H26308  11.117   5.796   6.733 -2.1054  0.3855 -0.1542
  936MOL0     H26309  11.168   5.493   6.783  1.4046 -1.5884 -0.2744
  936MOL0     H26310  11.277   5.596   6.702  0.0910 -0.0993 -0.9019
  936MOL0     H26311  11.230   5.472   6.438 -1.7455 -0.5297 -2.1348
  936MOL0     H26312  10.977   5.313   6.283  0.0145 -0.1514 -3.4789
  936MOL0     H26313  10.929   5.464   6.230  0.8250  0.1576 -0.4474
  936MOL0     H26314  11.113   5.370   6.103 -1.6149 -0.9711  2.2453
  936MOL0     H26315  11.225   5.390   6.234  1.2529 -0.7388 -2.7245
  936MOL0     H26316  11.258   5.579   6.100 -0.2184 -2.8190  0.6661
  936MOL0     H26317  11.175   5.655   6.241 -1.3420  2.4655 -1.1290
  936MOL0     H26318  11.057   5.600   5.963  3.9237 -0.2900  0.2054
  936MOL0     H26319  11.108   5.753   6.024  1.6626 -0.8136 -0.1753
  936MOL0     H26320  11.050   5.903   6.180 -1.0034  1.0668  0.4701
  936MOL0     H26321  11.076   6.095   6.317  0.3681  2.1145  0.7085
  936MOL0     H26322  10.937   6.151   6.421 -0.8320 -0.9970  0.6121
  936MOL0     H26323  11.086   6.076   6.491 -2.0260  2.6184  1.4846
  936MOL0     H26324  10.745   5.919   6.874 -3.2156 -1.5604  4.8233
  936MOL0     H26325  10.630   6.056   7.043 -0.7649  0.6845 -0.4273
  936MOL0     H26326  10.398   6.013   7.137  2.8994  0.1866  1.3758
  936MOL0     H26327  10.513   6.128   7.193  0.2767 -0.4896  0.0031
  936MOL0     H26328  10.333   6.130   7.342 -2.3004 -2.1668 -0.8056
  936MOL0     H26329  10.323   6.277   7.235  2.2769 -0.5426 -1.7347
  936MOL0     H26330  10.156   6.014   7.212 -2.0159 -0.0840  0.8058
  936MOL0     H26331  10.132   6.157   7.109 -1.1388 -0.4625  1.2137
  936MOL0     H26332  10.081   6.295   7.297  2.5526 -1.3464 -2.3863
  936MOL0     H26333   9.958   6.162   7.291 -1.1877  1.8534  2.3091
  936MOL0     H26334  10.149   6.208   7.515  0.7930 -1.8253  1.5738
  936MOL0     H26335  10.095   6.042   7.471  3.8702  0.2660  0.4268
  936MOL0     H26336   9.895   6.261   7.472 -0.4889 -0.6170 -0.5981
  936MOL0     H26337   9.867   6.090   7.522 -1.0176  0.7913 -1.7609
  936MOL0     H26338  10.015   6.307   7.685  0.6683 -1.0709  2.4101
  936MOL0     H26339  10.007   6.140   7.736  1.2318 -1.0587 -0.8618
  936MOL0     H26340   9.785   6.343   7.699  0.7378 -0.0709 -1.4532
  936MOL0     H26341   9.860   6.285   7.853 -0.4390 -2.8828  1.1603
  936MOL0     H26342  10.354   6.179   6.757  2.5299  2.8279 -1.6006
  936MOL0     H26343  10.467   6.048   6.576 -0.4663 -1.7580  0.6753
  936MOL0     H26344  10.687   5.734   6.459 -0.2135  0.6941 -0.0562
  936MOL0     H26345  10.761   5.608   6.289 -1.1077  0.7888  2.7138
  936MOL0     H26346  11.395   6.105   7.334  4.5748 -3.5794  0.7130
  936MOL0     H26347  11.396   6.354   7.344  2.3296  1.2825  0.9594
  936MOL0     H26348  11.477   6.727   7.609  0.2080 -1.5496 -0.7320
  936MOL0     H26349  11.490   6.983   7.631 -0.9973  5.0891 -0.8267
  936MOL0     H26350  11.145   7.220   7.487 -0.1752 -0.1678  0.1908
  936MOL0     H26351  11.107   7.162   7.650  0.6978 -1.4621 -0.8740
  936MOL0     H26352  11.089   7.403   7.638  0.4300  0.1719 -0.9449
  936MOL0     H26353  11.256   7.414   7.577 -1.6180 -0.6767 -3.0613
  936MOL0     H26354  11.268   7.469   7.815 -0.0761 -0.0040 -0.3845
  936MOL0     H26355  11.330   7.307   7.788  2.0941  2.5923 -0.5958
  936MOL0     H26356  11.197   7.291   7.994  1.7576  1.4377 -0.3722
  936MOL0     H26357  11.123   7.198   7.873  0.7649 -1.5872  1.3519
  936MOL0     H26358  10.827   7.479   7.953 -0.5097 -1.7191 -0.3053
  936MOL0     H26359  11.069   6.986   7.525  3.1279  3.1515 -1.2709
  936MOL0     H26360  11.063   6.753   7.491 -2.1594  4.0128 -1.6268
  937MOL0     O26361   9.683   1.073  11.363 -0.5220 -0.6375 -0.2880
  937MOL0     C26362   9.571   1.108  11.322 -0.9873  0.1747 -0.8314
  937MOL0     O26363   9.518   1.081  11.200 -0.5976  0.4268  0.6293
  937MOL0     C26364   9.569   0.989  11.111 -0.1259 -0.0159 -0.5639
  937MOL0     C26365   9.533   0.989  10.976  1.1485  0.2789  0.1806
  937MOL0     C26366   9.583   0.899  10.889  0.6181  1.3574 -0.5223
  937MOL0     C26367   9.673   0.796  10.922  0.5414 -1.0427 -0.4335
  937MOL0     O26368   9.724   0.720  10.824  0.2913  0.5069  0.2715
  937MOL0     C26369   9.671   0.585  10.825  0.6485  0.3936 -0.2675
  937MOL0     C26370   9.765   0.484  10.768  0.8798 -0.1865  0.2431
  937MOL0     C26371   9.842   0.525  10.646  0.1598 -0.5505 -1.0550
  937MOL0     C26372   9.896   0.404  10.565  0.0059 -0.2862 -0.1305
  937MOL0     C26373   9.986   0.452  10.449  0.0677 -0.0108  0.8319
  937MOL0     C26374  10.057   0.322  10.392  0.2848  0.0904 -1.1165
  937MOL0     C26375  10.136   0.356  10.264 -0.3306  0.3555  1.1801
  937MOL0     C26376  10.205   0.224  10.235 -0.0026  1.2025  0.0491
  937MOL0     N26377  10.334   0.209  10.301  0.1444 -0.6329  0.4236
  937MOL0     C26378  10.451   0.275  10.258  0.2723  0.0813 -0.1563
  937MOL0     C26379  10.535   0.263  10.362 -0.6495 -0.5788 -0.2251
  937MOL0     C26380  10.671   0.319  10.380  0.0504  0.3975 -0.2065
  937MOL0     C26381  10.780   0.291  10.271  0.8270 -0.3405  0.3645
  937MOL0     C26382  10.830   0.150  10.277 -1.5179  0.2186 -0.3468
  937MOL0     C26383  10.968   0.148  10.343 -0.5325  0.5393 -0.2019
  937MOL0     O26384  10.978   0.209  10.473  0.3408 -0.6751  0.4852
  937MOL0     C26385  10.926   0.146  10.590 -0.6760  0.0425 -0.4164
  937MOL0     C26386  10.930   0.218  10.703 -0.5981 -0.2891 -1.0742
  937MOL0     C26387  10.891   0.169  10.832 -0.0650  0.7116 -0.3215
  937MOL0     C26388  10.923   0.261  10.943 -0.3499 -0.1736 -0.0764
  937MOL0     C26389  10.827   0.040  10.847 -0.0005  0.3012  0.5764
  937MOL0     C26390  10.791  -0.030  10.967  0.8273 -0.5455  0.1425
  937MOL0     O26391  10.759  -0.164  10.961  0.1786 -0.6732 -0.5494
  937MOL0     C26392  10.759  -0.240  11.077  1.4430 -0.2665 -0.7302
  937MOL0     C26393  10.822  -0.367  11.064 -0.6456 -0.7051  0.4300
  937MOL0     C26394  10.845  -0.454  11.173  0.3651  0.5344  0.3891
  937MOL0     C26395  10.791  -0.421  11.296 -0.3522 -0.5151  0.3910
  937MOL0     O26396  10.811  -0.499  11.409 -0.1934 -0.0394  0.4519
  937MOL0     C26397  10.896  -0.611  11.408  0.1499 -0.8774 -0.0657
  937MOL0     C26398  10.820  -0.737  11.359 -0.5229 -0.3301 -0.3501
  937MOL0     C26399  10.730  -0.782  11.471  0.6707 -0.1697 -0.6820
  937MOL0     C26400  10.624  -0.894  11.425 -0.1310  0.4235  0.2405
  937MOL0     C26401  10.489  -0.874  11.490 -0.1450 -0.2980 -0.1707
  937MOL0     C26402  10.394  -0.987  11.449 -0.6149  0.0799 -0.5213
  937MOL0     C26403  10.262  -0.961  11.512  0.5084 -0.3099  0.1487
  937MOL0     C26404  10.165  -1.077  11.505  0.0724  0.4707  0.2021
  937MOL0    Cl26405  10.037  -1.039  11.619  0.4731 -0.1660  0.2658
  937MOL0     C26406  10.705  -0.309  11.303  1.0560 -0.5257 -0.4121
  937MOL0     C26407  10.697  -0.209  11.212  0.5823  0.1370  0.2641
  937MOL0     O26408  10.780   0.041  11.065  0.6219 -0.1201  0.3760
  937MOL0     C26409  10.813  -0.037  10.722  0.5930  1.1916 -0.6349
  937MOL0     C26410  10.862   0.018  10.599  0.7071  0.0852 -0.2211
  937MOL0     N26411  10.470   0.185  10.461  0.2288 -1.1599  0.8511
  937MOL0     N26412  10.359   0.145  10.416  0.2910 -0.2417  0.2835
  937MOL0     C26413   9.709   0.788  11.059 -0.8299  0.7310 -0.5205
  937MOL0     C26414   9.653   0.877  11.149 -0.3020 -0.3253 -0.7707
  937MOL0     C26415   9.478   1.165  11.417  0.2285  0.4599 -0.4736
  937MOL0     C26416   9.518   1.213  11.540  0.3012  0.6818  0.2741
  937MOL0     C26417   9.432   1.291  11.622 -0.1114  0.5005  1.4703
  937MOL0     C26418   9.294   1.290  11.593  0.0516 -0.8653 -0.6962
  937MOL0     O26419   9.210   1.349  11.684  0.1838  0.7717  0.5360
  937MOL0     C26420   9.155   1.465  11.641 -0.2577 -0.1128 -0.2162
  937MOL0     C26421   9.008   1.449  11.603  0.2146  1.1813  0.4068
  937MOL0     C26422   8.923   1.380  11.709 -0.5554 -0.2757 -0.5994
  937MOL0     C26423   8.777   1.393  11.681  0.0454  0.7058 -0.1570
  937MOL0     C26424   8.686   1.337  11.785 -0.1097 -1.3562 -0.0957
  937MOL0     C26425   8.612   1.290  11.869 -0.1259 -0.1536 -0.2678
  937MOL0     C26426   9.252   1.234  11.477  0.0205 -0.1998 -0.2480
  937MOL0     C26427   9.343   1.172  11.390 -0.3318 -1.3327 -0.8304
  937MOL0     H26428   9.451   1.055  10.949  2.3370  1.1565 -1.4969
  937MOL0     H26429   9.543   0.898  10.788 -1.4738 -3.9614  0.0116
  937MOL0     H26430   9.644   0.541  10.921  1.5671 -0.7117 -0.5094
  937MOL0     H26431   9.580   0.592  10.764  0.1912  4.4926  0.5408
  937MOL0     H26432   9.841   0.456  10.842  2.9716 -1.6106 -2.2735
  937MOL0     H26433   9.704   0.395  10.752 -0.1549  0.2501  1.5599
  937MOL0     H26434   9.788   0.584  10.572 -0.8023 -0.2260 -0.1179
  937MOL0     H26435   9.914   0.593  10.693 -1.5319  0.9044 -0.4470
  937MOL0     H26436   9.956   0.350  10.639 -1.4080  2.9137  3.7059
  937MOL0     H26437   9.810   0.343  10.535  1.3471 -1.5875 -1.5315
  937MOL0     H26438   9.922   0.496  10.372  1.2482 -0.2423 -0.3017
  937MOL0     H26439  10.067   0.521  10.475  1.3004 -1.7076  1.6741
  937MOL0     H26440  10.120   0.292  10.476 -2.3653 -2.1018  0.2346
  937MOL0     H26441   9.974   0.251  10.380  0.2073  0.2244 -1.3922
  937MOL0     H26442  10.070   0.384  10.182 -1.2766  1.3052  2.2303
  937MOL0     H26443  10.208   0.433  10.291 -0.4343  0.2809  1.6976
  937MOL0     H26444  10.231   0.223  10.129 -1.6661  1.2642 -0.3786
  937MOL0     H26445  10.142   0.138  10.258  1.5786 -0.5698 -1.8302
  937MOL0     H26446  10.453   0.316  10.157 -0.5284 -0.8499 -0.5642
  937MOL0     H26447  10.662   0.428  10.373 -0.2161  0.2957 -1.9311
  937MOL0     H26448  10.704   0.290  10.480  0.9050  1.2695 -0.2134
  937MOL0     H26449  10.864   0.358  10.293  1.0572 -0.3095 -0.5478
  937MOL0     H26450  10.748   0.320  10.171 -1.9951  1.8052  1.7606
  937MOL0     H26451  10.842   0.110  10.176  3.4137 -1.2379  0.5829
  937MOL0     H26452  10.762   0.093  10.341 -0.6073 -0.9565 -0.4151
  937MOL0     H26453  11.039   0.198  10.276 -0.9609  0.0079 -1.0804
  937MOL0     H26454  11.014   0.049  10.345  3.3359  2.1792  0.5329
  937MOL0     H26455  10.972   0.318  10.704  0.1256 -0.4300  3.7976
  937MOL0     H26456  10.840   0.277  11.013  0.6655 -0.0178  1.1381
  937MOL0     H26457  10.996   0.223  11.015 -1.0752  3.2369  2.7385
  937MOL0     H26458  10.969   0.353  10.905  2.4298 -2.7182 -3.5065
  937MOL0     H26459  10.866  -0.401  10.971  1.8979 -0.0918  1.3161
  937MOL0     H26460  10.885  -0.552  11.151  1.0031  0.9892 -0.5555
  937MOL0     H26461  10.981  -0.595  11.342  1.3810 -0.0922  1.6344
  937MOL0     H26462  10.940  -0.638  11.504  0.8718  1.3564  0.2831
  937MOL0     H26463  10.764  -0.715  11.268  2.1455 -3.6095 -3.0660
  937MOL0     H26464  10.894  -0.813  11.331  0.2777  0.1185  0.4906
  937MOL0     H26465  10.666  -0.696  11.491 -2.8052 -3.0134  1.5756
  937MOL0     H26466  10.796  -0.806  11.555  1.6050  2.5189 -0.5537
  937MOL0     H26467  10.621  -0.900  11.316  3.6056  3.4652 -0.2320
  937MOL0     H26468  10.670  -0.986  11.463  2.1526  0.8141 -1.3264
  937MOL0     H26469  10.442  -0.778  11.465  0.7561 -0.0470 -0.9375
  937MOL0     H26470  10.502  -0.877  11.599  3.1253  2.7264 -0.2999
  937MOL0     H26471  10.392  -0.989  11.340 -1.7534  0.3488 -0.5247
  937MOL0     H26472  10.444  -1.080  11.476  1.9923  1.0072 -1.8920
  937MOL0     H26473  10.213  -0.876  11.463  1.1312  2.0491  3.3398
  937MOL0     H26474  10.282  -0.939  11.617  4.6080 -0.4847 -0.4512
  937MOL0     H26475  10.218  -1.160  11.551 -0.8747 -0.1156  0.2598
  937MOL0     H26476  10.131  -1.098  11.403  2.6427  3.2857 -1.4248
  937MOL0     H26477  10.644  -0.294  11.391 -1.4176 -0.3382 -2.0643
  937MOL0     H26478  10.624  -0.131  11.232 -0.5149 -1.1165  1.3646
  937MOL0     H26479  10.767  -0.135  10.713  2.8506  0.2249 -2.6702
  937MOL0     H26480  10.848  -0.041  10.509  0.5699 -2.1588  1.1695
  937MOL0     H26481   9.769   0.709  11.104 -3.9926 -1.6102 -0.0260
  937MOL0     H26482   9.667   0.861  11.256  3.2776 -2.1801 -1.3891
  937MOL0     H26483   9.618   1.201  11.579  0.7992  1.4566 -0.6938
  937MOL0     H26484   9.477   1.339  11.708 -0.8597  3.1268  0.4892
  937MOL0     H26485   9.154   1.534  11.726  0.9000 -0.4434  0.0760
  937MOL0     H26486   9.217   1.513  11.566  2.2483  1.6160  2.7243
  937MOL0     H26487   8.984   1.388  11.515  0.0407 -0.0683  1.2914
  937MOL0     H26488   8.967   1.547  11.576 -2.6644 -0.8251 -3.5967
  937MOL0     H26489   8.947   1.430  11.803  1.2191  3.4507 -2.7838
  937MOL0     H26490   8.951   1.277  11.731  0.4784  0.5348  2.2823
  937MOL0     H26491   8.749   1.337  11.591 -1.2229  1.8131 -0.4954
  937MOL0     H26492   8.738   1.494  11.668 -0.4049  0.9632  2.6833
  937MOL0     H26493   8.547   1.248  11.943 -0.6437 -0.5098 -0.9245
  937MOL0     H26494   9.145   1.244  11.460 -0.1773  1.2285  1.5819
  937MOL0     H26495   9.294   1.142  11.298  0.1169  0.1456 -1.5853
  938MOL0     O26496  10.427   2.499   3.692  0.1998  0.0617  1.0149
  938MOL0     C26497  10.433   2.578   3.593  0.2542 -0.7211  0.2126
  938MOL0     O26498  10.342   2.605   3.499  0.0632  0.4568  0.6786
  938MOL0     C26499  10.224   2.530   3.488  0.2699 -0.0019  1.0839
  938MOL0     C26500  10.112   2.585   3.419  0.0195 -0.5042 -0.0229
  938MOL0     C26501   9.994   2.512   3.394 -0.4277 -0.1767 -0.5151
  938MOL0     C26502   9.988   2.380   3.422  1.1892  0.4250  0.4869
  938MOL0     O26503   9.885   2.303   3.376  0.0958 -0.1685  0.5840
  938MOL0     C26504   9.923   2.175   3.316  0.0544  0.2328  0.8230
  938MOL0     C26505   9.808   2.117   3.239  0.2610 -0.7577 -0.8203
  938MOL0     C26506   9.674   2.125   3.319 -0.0359  0.4066  0.3854
  938MOL0     C26507   9.573   2.070   3.220 -0.6325  0.5493 -0.7938
  938MOL0     C26508   9.428   2.052   3.271 -0.3378 -0.4825  0.2674
  938MOL0     C26509   9.317   2.032   3.169  0.0515 -0.5716 -0.5566
  938MOL0     C26510   9.176   2.096   3.204 -0.0986  0.8043  0.4411
  938MOL0     C26511   9.062   2.042   3.112 -0.3645  0.0389 -0.4190
  938MOL0     N26512   8.925   2.100   3.152  0.0543 -0.0586 -0.2927
  938MOL0     C26513   8.852   2.188   3.076 -1.2140 -0.2063 -0.4876
  938MOL0     C26514   8.738   2.211   3.145 -0.5300  0.8107  0.3711
  938MOL0     C26515   8.638   2.314   3.110 -0.3372  0.3662 -0.8793
  938MOL0     C26516   8.523   2.328   3.214  0.7236  0.6615  1.0144
  938MOL0     C26517   8.436   2.454   3.174  0.4020  0.7112 -0.6387
  938MOL0     C26518   8.301   2.463   3.239 -0.3119  1.2627  0.2041
  938MOL0     O26519   8.213   2.373   3.175  0.5637 -0.0953  0.5208
  938MOL0     C26520   8.097   2.335   3.242  0.1609 -0.3460  0.0644
  938MOL0     C26521   8.050   2.209   3.209  0.3624 -0.8849 -0.7504
  938MOL0     C26522   7.935   2.156   3.277 -0.7805 -0.5051  0.1485
  938MOL0     C26523   7.894   2.020   3.232 -0.1202  0.0876  0.1063
  938MOL0     C26524   7.871   2.228   3.374 -0.2036  0.4464  0.5174
  938MOL0     C26525   7.760   2.182   3.456  0.0969 -0.5053  0.7730
  938MOL0     O26526   7.723   2.049   3.439 -0.3146 -0.2093  0.2692
  938MOL0     C26527   7.642   1.987   3.533  0.3816  0.0137 -0.9628
  938MOL0     C26528   7.508   2.034   3.552  0.7685  0.3023  0.7108
  938MOL0     C26529   7.420   1.969   3.644 -0.5866 -0.9297 -0.1489
  938MOL0     C26530   7.466   1.863   3.718 -0.8316 -0.1653 -0.3448
  938MOL0     O26531   7.394   1.804   3.819 -0.6759 -0.3355 -0.4829
  938MOL0     C26532   7.371   1.667   3.809  0.2575 -0.7592  0.1427
  938MOL0     C26533   7.299   1.608   3.938 -0.0637  0.4055 -0.0803
  938MOL0     C26534   7.367   1.647   4.067 -0.3748 -0.0983 -0.6470
  938MOL0     C26535   7.307   1.559   4.183 -0.4151 -0.5679  1.0290
  938MOL0     C26536   7.171   1.597   4.233  0.2641 -0.1383  0.0780
  938MOL0     C26537   7.098   1.482   4.303  0.7148  0.8212  0.1933
  938MOL0     C26538   6.949   1.523   4.347 -0.4953  0.2471  0.7981
  938MOL0     C26539   6.864   1.424   4.421  0.6861 -0.3167 -0.0010
  938MOL0    Cl26540   6.848   1.285   4.311 -0.2843 -0.1128  0.2927
  938MOL0     C26541   7.593   1.809   3.688  0.2208  0.7940 -0.1746
  938MOL0     C26542   7.684   1.865   3.593  0.5971  0.6611 -0.3000
  938MOL0     O26543   7.713   2.254   3.539  0.6370 -0.1161  0.4817
  938MOL0     C26544   7.917   2.360   3.403 -0.1171 -0.0546  0.9990
  938MOL0     C26545   8.028   2.416   3.335  0.2674  0.1729  0.0283
  938MOL0     N26546   8.738   2.133   3.259 -0.0368  0.2741  0.0186
  938MOL0     N26547   8.852   2.066   3.258  0.0732  0.4216 -0.9576
  938MOL0     C26548  10.099   2.323   3.492 -0.2463  0.2445 -0.2424
  938MOL0     C26549  10.208   2.399   3.522 -0.2027 -0.3278  0.0376
  938MOL0     C26550  10.560   2.656   3.584 -0.6239 -0.5436  0.3278
  938MOL0     C26551  10.592   2.734   3.470  1.3190 -0.3056  0.3657
  938MOL0     C26552  10.718   2.791   3.450 -0.4969 -0.0230  0.1271
  938MOL0     C26553  10.815   2.786   3.553 -0.0670  0.2486  0.5332
  938MOL0     O26554  10.934   2.849   3.524 -0.2056 -0.5436  0.7784
  938MOL0     C26555  11.025   2.892   3.625 -0.8561  0.0708  0.3036
  938MOL0     C26556  11.169   2.902   3.570  1.1348  0.4600  0.2683
  938MOL0     C26557  11.276   2.909   3.672 -0.5028 -0.4017  0.9684
  938MOL0     C26558  11.412   2.914   3.605  0.8634  0.1012 -0.3232
  938MOL0     C26559  11.515   2.901   3.704 -0.1143  0.2570 -0.5144
  938MOL0     C26560  11.606   2.896   3.787 -0.1028  0.3251  0.2942
  938MOL0     C26561  10.784   2.708   3.675 -0.3845 -0.3140  0.5224
  938MOL0     C26562  10.662   2.642   3.680 -0.5011  0.0102  0.7463
  938MOL0     H26563  10.122   2.689   3.389  1.1031 -0.6106 -0.0858
  938MOL0     H26564   9.915   2.559   3.336  0.2313  2.8458  0.8370
  938MOL0     H26565  10.003   2.193   3.244  0.6077  0.3194  1.4463
  938MOL0     H26566   9.962   2.108   3.393  0.9339 -0.7930 -0.4750
  938MOL0     H26567   9.799   2.157   3.137  3.5087 -1.5092 -1.4965
  938MOL0     H26568   9.828   2.010   3.226 -1.0507 -0.7713 -3.6242
  938MOL0     H26569   9.680   2.064   3.409 -2.2071 -2.4321 -1.2306
  938MOL0     H26570   9.657   2.232   3.337  2.6572  0.5020  2.9714
  938MOL0     H26571   9.568   2.140   3.135 -0.3462  1.7198  0.1230
  938MOL0     H26572   9.606   1.974   3.180 -1.2182  0.5572 -1.3140
  938MOL0     H26573   9.433   1.963   3.335 -0.4967 -0.8199 -0.1865
  938MOL0     H26574   9.403   2.141   3.330  0.7142  1.4742 -2.0608
  938MOL0     H26575   9.340   2.078   3.073 -3.8847  2.0770 -0.4784
  938MOL0     H26576   9.299   1.924   3.167  1.8332 -1.0331  2.3828
  938MOL0     H26577   9.156   2.080   3.310  2.9014  0.7388  1.0946
  938MOL0     H26578   9.187   2.203   3.186 -1.6057  0.6600 -1.6454
  938MOL0     H26579   9.034   1.938   3.129 -3.3764  0.9046  0.3888
  938MOL0     H26580   9.091   2.058   3.008  0.4920  1.2930 -0.0181
  938MOL0     H26581   8.878   2.260   2.998 -2.4511  1.4776  0.5991
  938MOL0     H26582   8.692   2.407   3.093 -1.0095  0.4958 -2.5421
  938MOL0     H26583   8.600   2.282   3.012  0.6940 -0.9426 -0.8929
  938MOL0     H26584   8.571   2.345   3.310  1.7278 -0.6158  0.7668
  938MOL0     H26585   8.482   2.228   3.198  1.2107  0.7045 -0.6933
  938MOL0     H26586   8.426   2.467   3.065 -2.1792  4.7677 -0.1341
  938MOL0     H26587   8.504   2.532   3.211 -2.3209  2.1482  1.6894
  938MOL0     H26588   8.264   2.566   3.238  1.1283  1.8283  1.2680
  938MOL0     H26589   8.303   2.427   3.342 -1.4592 -0.7998 -0.4286
  938MOL0     H26590   8.095   2.165   3.120  1.0047 -0.5435 -0.6008
  938MOL0     H26591   7.926   1.948   3.308  4.4994 -0.0632 -1.6931
  938MOL0     H26592   7.787   2.013   3.210 -0.3002  1.0999  0.5785
  938MOL0     H26593   7.950   2.005   3.139 -0.1137  1.2607 -0.0944
  938MOL0     H26594   7.477   2.122   3.497 -3.5390 -2.0531 -1.0945
  938MOL0     H26595   7.317   2.000   3.658 -0.5206 -0.3432 -0.8488
  938MOL0     H26596   7.305   1.636   3.728  0.7819 -0.6701 -0.3307
  938MOL0     H26597   7.468   1.615   3.805  0.6722  0.0392 -1.7707
  938MOL0     H26598   7.194   1.639   3.944 -0.4009 -0.6948 -0.0704
  938MOL0     H26599   7.294   1.499   3.944  1.6906  0.3719  5.3982
  938MOL0     H26600   7.363   1.754   4.089 -1.1534 -0.0664 -0.9018
  938MOL0     H26601   7.470   1.614   4.052 -0.3514 -0.8399  0.9620
  938MOL0     H26602   7.306   1.454   4.154  1.5748 -0.8492  1.8497
  938MOL0     H26603   7.377   1.575   4.265  0.1823  2.1172  0.1246
  938MOL0     H26604   7.110   1.633   4.150  4.1359 -0.0137 -3.0573
  938MOL0     H26605   7.188   1.680   4.302  1.6814 -0.2130 -0.1398
  938MOL0     H26606   7.110   1.384   4.255  1.3531 -1.3316  4.3315
  938MOL0     H26607   7.154   1.459   4.395  0.1787 -1.1990  0.0764
  938MOL0     H26608   6.903   1.562   4.256  3.8916 -0.8849 -2.2597
  938MOL0     H26609   6.952   1.613   4.409 -0.4736  2.0342 -1.6470
  938MOL0     H26610   6.767   1.468   4.446  0.9151 -0.1503  0.5917
  938MOL0     H26611   6.905   1.399   4.519  0.0516 -2.8718 -0.2878
  938MOL0     H26612   7.637   1.721   3.735 -2.6064  0.0960  1.4196
  938MOL0     H26613   7.777   1.820   3.558 -0.1633  0.7763 -2.6494
  938MOL0     H26614   7.868   2.422   3.478  1.3914  1.4588  0.7910
  938MOL0     H26615   8.058   2.517   3.359  0.5875 -0.0411  0.5519
  938MOL0     H26616  10.103   2.217   3.511  0.9383 -0.1345 -2.3236
  938MOL0     H26617  10.290   2.347   3.570  0.9899  3.8469  3.1084
  938MOL0     H26618  10.521   2.744   3.389  0.8660 -1.0509  0.6618
  938MOL0     H26619  10.740   2.852   3.363  2.8861  0.4740  1.1550
  938MOL0     H26620  10.997   2.994   3.653  1.2248  1.1006 -1.0966
  938MOL0     H26621  11.030   2.833   3.718 -0.5276  0.4023  0.5013
  938MOL0     H26622  11.177   2.997   3.518 -1.4316  0.5124 -0.1389
  938MOL0     H26623  11.187   2.828   3.492  0.2083  0.5596 -0.0407
  938MOL0     H26624  11.274   2.817   3.731  2.8129 -2.1449 -1.3310
  938MOL0     H26625  11.269   2.993   3.742 -0.4973 -0.2499  0.7870
  938MOL0     H26626  11.430   3.011   3.559 -0.2704  0.8240  0.6969
  938MOL0     H26627  11.409   2.827   3.538 -1.8926  0.7317 -1.1292
  938MOL0     H26628  11.678   2.885   3.866  0.3659 -2.7849 -0.4228
  938MOL0     H26629  10.860   2.699   3.752 -1.0098  0.1874  1.2011
  938MOL0     H26630  10.634   2.575   3.761 -4.0403 -0.5967 -0.7631
  939MOL0     O26631   1.677   5.518   9.056 -0.0154  0.4370  0.3914
  939MOL0     C26632   1.611   5.548   9.153  0.5795  0.2584  0.7274
  939MOL0     O26633   1.482   5.519   9.166 -0.7780 -0.3579 -0.2666
  939MOL0     C26634   1.408   5.485   9.054  0.7116 -0.1536 -0.6860
  939MOL0     C26635   1.336   5.362   9.058  0.1817  0.6208  0.3130
  939MOL0     C26636   1.247   5.335   8.955 -0.0678 -0.6530  0.8417
  939MOL0     C26637   1.221   5.436   8.854  0.1817  0.6253  0.3434
  939MOL0     O26638   1.127   5.429   8.758 -0.3860 -0.8749  0.7769
  939MOL0     C26639   1.115   5.527   8.656  0.1313 -0.5289  0.3191
  939MOL0     C26640   1.010   5.481   8.560 -0.3938  0.5555  0.1109
  939MOL0     C26641   0.866   5.461   8.624 -0.7152  0.2751  0.3183
  939MOL0     C26642   0.779   5.410   8.513  0.7433  0.6580 -0.1651
  939MOL0     C26643   0.628   5.414   8.550 -0.2415 -0.8454 -0.4030
  939MOL0     C26644   0.535   5.354   8.443 -0.0208 -0.1915  0.0031
  939MOL0     C26645   0.392   5.335   8.487  0.0109  0.0067 -0.6648
  939MOL0     C26646   0.359   5.186   8.479 -0.5546  0.5008  0.1944
  939MOL0     N26647   0.223   5.154   8.495  1.0784  0.0349 -0.1905
  939MOL0     C26648   0.172   5.059   8.580  0.3859  0.2162 -0.2981
  939MOL0     C26649   0.041   5.082   8.610 -0.7327  0.6353  1.0324
  939MOL0     C26650  -0.047   5.008   8.708 -0.1507  0.0470  0.4447
  939MOL0     C26651  -0.196   5.021   8.655 -1.0403  0.6316 -0.2914
  939MOL0     C26652  -0.228   4.952   8.517  0.7711  0.0721  0.2569
  939MOL0     C26653  -0.176   4.813   8.496  1.2531  0.2978 -0.0496
  939MOL0     O26654  -0.194   4.778   8.356  0.1521 -0.9611 -0.4563
  939MOL0     C26655  -0.313   4.732   8.307  1.1374  0.4158  0.1854
  939MOL0     C26656  -0.408   4.656   8.377 -0.5904 -1.0853  0.9377
  939MOL0     C26657  -0.527   4.609   8.319  1.1767  0.0171  0.5839
  939MOL0     C26658  -0.607   4.511   8.408 -0.6234  0.1709 -0.6359
  939MOL0     C26659  -0.553   4.636   8.182 -0.7150 -0.7162 -0.0286
  939MOL0     C26660  -0.665   4.595   8.107 -0.0286  0.2978  0.3039
  939MOL0     O26661  -0.644   4.553   7.971  0.5118  0.2314  0.2688
  939MOL0     C26662  -0.757   4.500   7.912  0.1950 -0.8403  0.6168
  939MOL0     C26663  -0.813   4.393   7.985 -0.4262  0.4720  0.8363
  939MOL0     C26664  -0.934   4.336   7.938 -0.2983 -0.3349 -0.4759
  939MOL0     C26665  -0.995   4.381   7.819 -0.9010 -0.2674 -0.3665
  939MOL0     O26666  -1.113   4.328   7.780 -1.0056 -0.5592 -0.4211
  939MOL0     C26667  -1.193   4.399   7.682  1.0230 -0.0277  0.3457
  939MOL0     C26668  -1.340   4.357   7.694  0.5786  0.0755  0.6015
  939MOL0     C26669  -1.376   4.240   7.598 -0.1885  0.2815  0.7201
  939MOL0     C26670  -1.526   4.216   7.605 -0.1369 -0.0712 -0.7813
  939MOL0     C26671  -1.583   4.114   7.504 -0.0439  0.6059  0.1267
  939MOL0     C26672  -1.504   3.990   7.488 -0.1110 -0.1129  1.4541
  939MOL0     C26673  -1.589   3.917   7.383 -0.4433  0.0382  0.8165
  939MOL0     C26674  -1.562   3.764   7.379 -0.4137 -0.2584 -0.1948
  939MOL0    Cl26675  -1.387   3.741   7.361  0.5535 -0.1556 -0.6294
  939MOL0     C26676  -0.930   4.483   7.747  0.2208 -0.0835 -0.0130
  939MOL0     C26677  -0.810   4.545   7.792  0.6506  0.4399  0.5786
  939MOL0     O26678  -0.779   4.613   8.159 -0.2979  0.3205 -0.0110
  939MOL0     C26679  -0.455   4.709   8.108  0.1453 -0.2411  0.2155
  939MOL0     C26680  -0.343   4.751   8.172 -0.2259 -0.2615 -0.2386
  939MOL0     N26681   0.014   5.194   8.533  1.0296 -0.1444 -0.5283
  939MOL0     N26682   0.116   5.231   8.472  0.1550 -0.3343 -0.2076
  939MOL0     C26683   1.299   5.551   8.849 -0.7832  0.0480 -0.9948
  939MOL0     C26684   1.386   5.581   8.956 -0.8559 -0.3601 -0.4563
  939MOL0     C26685   1.681   5.611   9.270 -0.1135  0.3073 -0.3406
  939MOL0     C26686   1.808   5.662   9.250  0.2972  0.1758  0.5610
  939MOL0     C26687   1.883   5.746   9.337 -0.3946 -0.1802 -0.0152
  939MOL0     C26688   1.834   5.777   9.461 -1.1310  0.0640  0.5686
  939MOL0     O26689   1.908   5.860   9.541  0.4054 -0.0334 -0.5585
  939MOL0     C26690   1.868   5.919   9.672  0.5639  0.4988 -0.0016
  939MOL0     C26691   1.913   5.842   9.795 -0.6636  0.1553  0.0261
  939MOL0     C26692   1.865   5.697   9.812  0.6093  0.2532  0.6247
  939MOL0     C26693   1.882   5.650   9.955  0.6105 -0.2203 -1.0765
  939MOL0     C26694   1.856   5.506   9.960 -0.3217 -0.3248 -0.1811
  939MOL0     C26695   1.829   5.389   9.963  0.3392 -0.5407  0.4775
  939MOL0     C26696   1.703   5.727   9.491  0.4343  0.5227  0.4928
  939MOL0     C26697   1.626   5.656   9.398  0.7230 -0.3501  0.1803
  939MOL0     H26698   1.335   5.293   9.141 -3.0658 -1.3442 -1.1584
  939MOL0     H26699   1.188   5.244   8.962  0.7501 -1.2280  0.4230
  939MOL0     H26700   1.077   5.620   8.700  1.3145 -0.0194  0.3055
  939MOL0     H26701   1.201   5.540   8.590 -2.4466  1.0622 -2.9611
  939MOL0     H26702   1.009   5.544   8.470  1.4978 -0.7808 -0.9396
  939MOL0     H26703   1.034   5.382   8.518 -2.8208 -0.2449  0.4355
  939MOL0     H26704   0.862   5.402   8.716 -1.7719 -1.1758 -0.6114
  939MOL0     H26705   0.828   5.561   8.648  2.0459  1.3430  0.5910
  939MOL0     H26706   0.797   5.467   8.421 -2.5490 -0.9145 -1.9886
  939MOL0     H26707   0.783   5.302   8.492 -0.6378  0.1169  2.0001
  939MOL0     H26708   0.612   5.358   8.642 -3.3767  1.0288  0.3490
  939MOL0     H26709   0.606   5.521   8.562  0.1163 -0.9416  1.3601
  939MOL0     H26710   0.536   5.428   8.362 -0.2767 -0.8636 -0.6250
  939MOL0     H26711   0.568   5.252   8.422  0.1544 -0.3588  1.0439
  939MOL0     H26712   0.375   5.362   8.591 -2.4566  0.4818 -1.1349
  939MOL0     H26713   0.318   5.386   8.424  0.2278  0.1742 -0.7843
  939MOL0     H26714   0.418   5.138   8.558  4.4509  1.3073 -2.6762
  939MOL0     H26715   0.378   5.156   8.376  0.8709 -0.6924  0.7686
  939MOL0     H26716   0.234   4.979   8.619  2.2299  1.2278 -1.0503
  939MOL0     H26717  -0.018   4.903   8.707  3.4494  0.9195 -0.2444
  939MOL0     H26718  -0.032   5.046   8.810  1.1083 -2.4737  1.2797
  939MOL0     H26719  -0.220   5.126   8.639 -2.2259  0.2234 -1.4442
  939MOL0     H26720  -0.273   4.982   8.722 -0.8963 -1.0900 -1.0479
  939MOL0     H26721  -0.182   5.008   8.436 -2.2526 -0.1887 -1.8122
  939MOL0     H26722  -0.333   4.946   8.484  1.8333 -1.4937 -3.3932
  939MOL0     H26723  -0.209   4.738   8.569  3.2138  1.0730  1.7589
  939MOL0     H26724  -0.068   4.808   8.516  0.9168 -1.3706  1.6255
  939MOL0     H26725  -0.388   4.643   8.482  0.7078  0.1738  0.8935
  939MOL0     H26726  -0.547   4.420   8.403 -2.0653 -0.7724 -1.3346
  939MOL0     H26727  -0.593   4.542   8.512  1.8469 -1.0170 -0.5403
  939MOL0     H26728  -0.715   4.493   8.398 -0.9766  0.2344  2.2374
  939MOL0     H26729  -0.775   4.344   8.074 -0.3444  0.0764  0.5867
  939MOL0     H26730  -0.967   4.256   8.004  0.3424  1.7228  2.5238
  939MOL0     H26731  -1.192   4.507   7.698  3.5420  0.4675 -2.2335
  939MOL0     H26732  -1.157   4.387   7.579  0.9841 -1.7149  0.5021
  939MOL0     H26733  -1.367   4.331   7.796  1.6530 -3.6178  0.1112
  939MOL0     H26734  -1.402   4.440   7.658 -3.9685 -3.1569  0.1219
  939MOL0     H26735  -1.305   4.161   7.627  0.3812  0.4535 -0.1678
  939MOL0     H26736  -1.354   4.262   7.493  2.7390  0.9218  1.3966
  939MOL0     H26737  -1.558   4.184   7.704 -3.1960 -0.0616 -1.6603
  939MOL0     H26738  -1.570   4.314   7.582  2.9186  1.9788  1.2571
  939MOL0     H26739  -1.580   4.168   7.409  1.2778  1.1228  0.4396
  939MOL0     H26740  -1.687   4.093   7.530  0.2648  2.3166  3.2147
  939MOL0     H26741  -1.400   3.997   7.458 -0.2811 -1.7482  0.4011
  939MOL0     H26742  -1.491   3.935   7.582 -0.5043 -1.9931  0.4616
  939MOL0     H26743  -1.567   3.971   7.291 -0.1455  0.2314  0.9987
  939MOL0     H26744  -1.697   3.926   7.393 -0.6339  0.4162 -1.1718
  939MOL0     H26745  -1.603   3.702   7.300 -1.3750 -1.1720  0.9763
  939MOL0     H26746  -1.598   3.724   7.475  2.0791 -1.7995  0.2066
  939MOL0     H26747  -0.964   4.522   7.652  1.7275  2.0257  0.2542
  939MOL0     H26748  -0.750   4.615   7.735  1.0356 -1.8568 -2.0328
  939MOL0     H26749  -0.475   4.740   8.006 -1.8756 -1.4952  0.1723
  939MOL0     H26750  -0.262   4.799   8.117 -2.5293  0.2760 -3.4187
  939MOL0     H26751   1.298   5.627   8.771  0.2662  1.1161 -0.0152
  939MOL0     H26752   1.443   5.672   8.970  1.7545 -2.1022  0.9467
  939MOL0     H26753   1.866   5.643   9.160 -1.6707  2.0994 -1.2463
  939MOL0     H26754   1.986   5.778   9.329  0.6655 -2.8243  1.9091
  939MOL0     H26755   1.911   6.019   9.669  2.1828 -0.1299  1.0461
  939MOL0     H26756   1.759   5.926   9.676  0.5721  1.0272 -0.5310
  939MOL0     H26757   1.884   5.900   9.884 -2.2431  1.2059 -1.1064
  939MOL0     H26758   2.022   5.849   9.799 -0.6584 -0.7032  2.4141
  939MOL0     H26759   1.918   5.636   9.739 -0.1011 -0.2674  0.5339
  939MOL0     H26760   1.758   5.693   9.793  0.5332 -1.2041  1.2269
  939MOL0     H26761   1.826   5.709  10.028  3.2670 -0.9249  1.7782
  939MOL0     H26762   1.987   5.660   9.986 -0.5852  1.2256  3.1988
  939MOL0     H26763   1.819   5.283   9.952  3.5591 -0.9290  0.3817
  939MOL0     H26764   1.657   5.755   9.585  0.2932 -1.2630  0.9871
  939MOL0     H26765   1.528   5.617   9.423  0.5988 -1.2138 -1.5258
  940MOL0     O26766  11.138   2.598   6.862 -0.0651 -0.5630 -0.0270
  940MOL0     C26767  11.214   2.614   6.765  0.6075 -0.3656 -0.9465
  940MOL0     O26768  11.171   2.618   6.634 -0.5665  0.6458 -0.2401
  940MOL0     C26769  11.041   2.589   6.605  0.6120 -1.1047 -0.9758
  940MOL0     C26770  11.007   2.467   6.558  0.7363 -0.0158 -0.2486
  940MOL0     C26771  10.876   2.427   6.532  0.8179  0.1958  0.7720
  940MOL0     C26772  10.778   2.511   6.571  0.3142 -0.4530 -0.1099
  940MOL0     O26773  10.648   2.484   6.545  0.9324  0.1670  0.1388
  940MOL0     C26774  10.618   2.360   6.469 -0.1122 -0.2030  0.4660
  940MOL0     C26775  10.467   2.360   6.443  0.2743  0.4627  0.0193
  940MOL0     C26776  10.390   2.349   6.583 -0.8692 -0.6140  0.5369
  940MOL0     C26777  10.245   2.359   6.574  0.1962  0.3300 -0.1112
  940MOL0     C26778  10.203   2.501   6.625  0.0977 -0.5280  0.9137
  940MOL0     C26779  10.242   2.553   6.764  0.0773 -0.1205  0.2184
  940MOL0     C26780  10.224   2.708   6.778 -0.9603  0.1029  0.1459
  940MOL0     C26781  10.072   2.732   6.784 -0.2259 -0.7219  0.3083
  940MOL0     N26782  10.012   2.701   6.910  0.5406  0.7637 -0.5605
  940MOL0     C26783  10.003   2.779   7.017  0.9284  0.1819 -0.3653
  940MOL0     C26784   9.961   2.709   7.118 -0.1860  0.2465  0.2023
  940MOL0     C26785   9.953   2.754   7.262  0.5584 -0.5174 -0.6402
  940MOL0     C26786   9.806   2.776   7.283 -1.1586 -0.4527 -0.2302
  940MOL0     C26787   9.787   2.831   7.426  1.0592  0.0435 -0.3952
  940MOL0     C26788   9.644   2.853   7.473 -0.1726 -0.8823  0.0409
  940MOL0     O26789   9.580   2.938   7.378  0.4572 -0.1958  0.1990
  940MOL0     C26790   9.476   2.913   7.302 -1.2622 -0.1874  0.4429
  940MOL0     C26791   9.375   2.818   7.335 -0.1134 -0.1405  0.8786
  940MOL0     C26792   9.273   2.785   7.246 -0.0507 -0.4714 -0.1195
  940MOL0     C26793   9.183   2.681   7.292 -0.3308 -0.6710  0.3444
  940MOL0     C26794   9.263   2.855   7.118 -0.1339 -0.0246 -0.6279
  940MOL0     C26795   9.161   2.815   7.019  0.7960  0.6461 -1.0759
  940MOL0     O26796   9.212   2.825   6.892 -0.0869  0.0831  0.0116
  940MOL0     C26797   9.147   2.793   6.774  0.8532  0.3421 -0.0312
  940MOL0     C26798   9.159   2.884   6.675  0.1200 -0.4889 -0.6409
  940MOL0     C26799   9.102   2.872   6.551  0.1283  0.3114  0.3144
  940MOL0     C26800   9.032   2.750   6.526  1.1519  0.3875 -1.0844
  940MOL0     O26801   8.985   2.721   6.398  0.2004 -0.5905 -0.5065
  940MOL0     C26802   8.848   2.750   6.368 -0.3260  0.4024  0.9299
  940MOL0     C26803   8.828   2.894   6.324 -0.1358  0.2241 -0.2090
  940MOL0     C26804   8.906   2.918   6.191  0.4174 -0.0059 -0.0149
  940MOL0     C26805   8.873   2.846   6.063  0.0268  0.5190  0.0714
  940MOL0     C26806   8.967   2.889   5.947 -0.0935  0.2079 -0.1587
  940MOL0     C26807   9.058   2.761   5.914  0.4911  0.3602  0.9068
  940MOL0     C26808   9.175   2.791   5.819  0.1032 -0.1670  0.4287
  940MOL0     C26809   9.129   2.827   5.676 -0.9553 -0.6068  0.2307
  940MOL0    Cl26810   9.253   2.923   5.602  0.5094  0.2809  0.2227
  940MOL0     C26811   9.033   2.651   6.619 -0.0083  1.1060 -0.6983
  940MOL0     C26812   9.085   2.675   6.746 -0.0440 -0.9186  0.0092
  940MOL0     O26813   9.047   2.767   7.048 -0.1903 -0.3442 -0.4833
  940MOL0     C26814   9.362   2.951   7.091  0.4050 -0.6541  0.8396
  940MOL0     C26815   9.463   2.980   7.183  0.2915  0.8222  0.0968
  940MOL0     N26816   9.928   2.586   7.077 -0.3474 -0.1561  0.2092
  940MOL0     N26817   9.959   2.585   6.951 -0.6264  0.7479 -0.1181
  940MOL0     C26818  10.811   2.639   6.637  0.3406 -0.5647  0.8692
  940MOL0     C26819  10.944   2.680   6.641 -0.5193 -0.3556  0.8148
  940MOL0     C26820  11.354   2.637   6.802 -0.4573  0.1066 -0.0187
  940MOL0     C26821  11.408   2.627   6.930 -0.3667  0.0758 -0.2831
  940MOL0     C26822  11.545   2.662   6.956 -0.2070 -0.1863  0.4485
  940MOL0     C26823  11.623   2.709   6.848  1.1456 -0.8032 -0.8058
  940MOL0     O26824  11.757   2.737   6.864 -0.7221  0.6256 -0.2345
  940MOL0     C26825  11.827   2.654   6.965  0.3228  0.2924 -0.4282
  940MOL0     C26826  11.973   2.674   6.963 -0.4785 -0.5353 -0.0192
  940MOL0     C26827  12.014   2.658   6.817  0.1430  0.4433 -0.2875
  940MOL0     C26828  12.020   2.510   6.766  0.0986  0.0327 -0.0933
  940MOL0     C26829  12.109   2.432   6.848 -0.5736  0.3551 -0.9590
  940MOL0     C26830  12.178   2.363   6.920  0.0688  0.1677  0.8934
  940MOL0     C26831  11.574   2.705   6.720  0.0570  0.1805  0.0334
  940MOL0     C26832  11.446   2.659   6.697  0.7210  0.7563  0.6283
  940MOL0     H26833  11.088   2.404   6.525 -1.6564 -3.1147 -0.6615
  940MOL0     H26834  10.852   2.332   6.484  3.5955  0.0757 -0.6094
  940MOL0     H26835  10.678   2.356   6.377  0.4776  0.1823  0.8240
  940MOL0     H26836  10.630   2.267   6.525  0.4873  0.2317  1.0807
  940MOL0     H26837  10.432   2.453   6.397 -1.1948 -0.6122 -1.1230
  940MOL0     H26838  10.436   2.278   6.378  1.0014 -1.4013  1.9200
  940MOL0     H26839  10.429   2.251   6.613  0.3310 -0.6732 -1.0983
  940MOL0     H26840  10.426   2.426   6.652 -2.1653  0.6197 -0.1027
  940MOL0     H26841  10.205   2.353   6.472  0.9467 -0.6225 -0.3667
  940MOL0     H26842  10.208   2.280   6.638  0.1899  0.0230 -0.4894
  940MOL0     H26843  10.235   2.573   6.549 -2.4412 -1.3730 -1.1293
  940MOL0     H26844  10.094   2.506   6.612  0.3960 -1.6338 -4.9989
  940MOL0     H26845  10.177   2.498   6.833 -2.8750  2.7718  0.0113
  940MOL0     H26846  10.340   2.516   6.795  1.4706  2.7774 -0.3174
  940MOL0     H26847  10.273   2.751   6.866  0.6381  1.5589 -1.3737
  940MOL0     H26848  10.266   2.772   6.699  1.2238 -2.3174 -0.7977
  940MOL0     H26849  10.023   2.681   6.701  0.1591 -0.1762 -0.2656
  940MOL0     H26850  10.042   2.837   6.770  2.3290  0.0544  0.1318
  940MOL0     H26851  10.040   2.882   7.018 -1.0542  0.9290  0.8295
  940MOL0     H26852   9.999   2.688   7.335  2.9728  3.7136  2.1088
  940MOL0     H26853  10.006   2.848   7.280 -0.8062  0.1643 -0.0513
  940MOL0     H26854   9.752   2.682   7.268  0.7913 -1.3408 -2.6129
  940MOL0     H26855   9.778   2.851   7.208 -2.9466  0.6727  1.4858
  940MOL0     H26856   9.829   2.932   7.428 -1.4335  1.1560 -0.8399
  940MOL0     H26857   9.836   2.759   7.492 -1.1701  0.8639  2.3149
  940MOL0     H26858   9.642   2.893   7.575  0.2616  2.7443 -1.2091
  940MOL0     H26859   9.586   2.760   7.477 -1.2709 -0.1833  0.9005
  940MOL0     H26860   9.380   2.765   7.430 -3.0002  0.5725  1.5556
  940MOL0     H26861   9.092   2.725   7.335 -1.3166 -0.3622 -1.9163
  940MOL0     H26862   9.150   2.614   7.212  2.3135 -0.5827 -0.8991
  940MOL0     H26863   9.221   2.626   7.379  0.9188  0.1745  0.3484
  940MOL0     H26864   9.210   2.979   6.687 -0.3883  0.1451 -3.0230
  940MOL0     H26865   9.121   2.953   6.482  1.4587  0.6516  1.0405
  940MOL0     H26866   8.813   2.691   6.283 -0.9622 -0.0936  1.5229
  940MOL0     H26867   8.780   2.717   6.448 -1.0557  0.1139  0.2101
  940MOL0     H26868   8.721   2.897   6.301  0.1581 -4.0396 -3.3304
  940MOL0     H26869   8.859   2.978   6.386  2.0521 -1.3434  0.9650
  940MOL0     H26870   9.013   2.901   6.203  0.1158 -1.0645  1.5320
  940MOL0     H26871   8.888   3.023   6.168  0.6042  0.0455  0.0698
  940MOL0     H26872   8.879   2.738   6.074 -0.9923  0.4093 -0.3193
  940MOL0     H26873   8.768   2.863   6.036  0.2075 -0.5059 -1.3616
  940MOL0     H26874   9.036   2.970   5.973  2.6413 -2.0250 -0.0247
  940MOL0     H26875   8.912   2.921   5.857 -0.7414  1.6344  0.7075
  940MOL0     H26876   9.103   2.716   6.003 -0.7350  0.5372  1.6515
  940MOL0     H26877   9.000   2.688   5.857 -1.9243  0.8944  2.5361
  940MOL0     H26878   9.242   2.705   5.830 -1.1745 -0.9716  2.5957
  940MOL0     H26879   9.242   2.868   5.859  0.8480 -0.9651  0.7483
  940MOL0     H26880   9.033   2.880   5.675 -0.4203  0.4058  1.1480
  940MOL0     H26881   9.120   2.735   5.618  1.4954 -0.9868  0.3562
  940MOL0     H26882   8.989   2.555   6.594  0.5211 -0.9474  4.7303
  940MOL0     H26883   9.082   2.601   6.825  1.4787  0.7639  1.7644
  940MOL0     H26884   9.358   2.998   6.993  2.6380  2.5789  2.1018
  940MOL0     H26885   9.528   3.062   7.154  1.5043 -0.7195 -1.8080
  940MOL0     H26886  10.736   2.702   6.685  1.4705 -0.2222  2.2417
  940MOL0     H26887  10.964   2.770   6.698 -0.5242 -0.3149  0.7522
  940MOL0     H26888  11.340   2.581   7.001  0.8684  1.7263  2.0661
  940MOL0     H26889  11.576   2.636   7.057 -0.6113  1.5304  1.0379
  940MOL0     H26890  11.801   2.697   7.062 -0.4043 -1.3150  0.1230
  940MOL0     H26891  11.806   2.547   6.962  1.1582  0.0175  1.6505
  940MOL0     H26892  12.021   2.612   7.040 -0.2108 -0.9820 -0.5456
  940MOL0     H26893  11.995   2.775   6.998 -4.3920 -0.4142  2.8372
  940MOL0     H26894  12.114   2.700   6.801  0.5111  1.6375  3.9733
  940MOL0     H26895  11.947   2.722   6.758  0.6136  2.6838  1.4815
  940MOL0     H26896  12.064   2.511   6.667 -0.1240  1.4325 -0.2029
  940MOL0     H26897  11.922   2.460   6.768  0.2015 -0.1674  1.3047
  940MOL0     H26898  12.233   2.306   6.993  3.4719  0.0734 -1.5311
  940MOL0     H26899  11.635   2.719   6.631 -1.5435 -1.4755 -1.4192
  940MOL0     H26900  11.414   2.627   6.598  0.2429  3.6394 -0.2444
  941MOL0     O26901   2.312   4.979   5.901  0.5241 -0.3062  0.1516
  941MOL0     C26902   2.429   4.946   5.923  0.1646 -0.6236 -0.3258
  941MOL0     O26903   2.493   4.838   5.888 -0.1307 -0.4341  0.1108
  941MOL0     C26904   2.414   4.747   5.825  0.1266 -0.1720 -0.2373
  941MOL0     C26905   2.466   4.690   5.710 -0.1264  0.6614  0.6969
  941MOL0     C26906   2.393   4.583   5.640 -0.3854 -0.0293  0.0986
  941MOL0     C26907   2.281   4.530   5.700  0.7215  0.1418  1.0605
  941MOL0     O26908   2.220   4.421   5.649 -0.0269 -0.3633 -0.2421
  941MOL0     C26909   2.241   4.398   5.510  0.0370  0.0476  0.3941
  941MOL0     C26910   2.142   4.289   5.457  0.7078 -0.5379 -0.5259
  941MOL0     C26911   2.133   4.274   5.302  0.4663  0.1894  0.0411
  941MOL0     C26912   2.040   4.165   5.269  0.1185 -0.1565  0.4621
  941MOL0     C26913   2.045   4.120   5.127  0.0867  0.1695  0.2604
  941MOL0     C26914   1.942   4.009   5.088 -0.3592 -1.0128 -0.5491
  941MOL0     C26915   1.968   3.969   4.944 -0.8012  0.1519  0.4405
  941MOL0     C26916   1.897   3.840   4.909 -0.1801  0.0020 -1.5607
  941MOL0     N26917   1.753   3.840   4.917  0.0846  1.0020 -0.3164
  941MOL0     C26918   1.666   3.861   4.809  0.2547 -0.4297 -0.0761
  941MOL0     C26919   1.549   3.885   4.870 -0.2724  0.8130 -0.8021
  941MOL0     C26920   1.424   3.894   4.788 -0.1495  0.0795 -0.2192
  941MOL0     C26921   1.398   4.035   4.742  0.9635  0.8349 -0.0726
  941MOL0     C26922   1.249   4.073   4.715  0.0262 -0.4017  0.2442
  941MOL0     C26923   1.251   4.222   4.674 -0.3331  0.4598 -0.3301
  941MOL0     O26924   1.302   4.308   4.785 -0.1381  0.3794 -1.0505
  941MOL0     C26925   1.298   4.442   4.760 -0.1707  1.1478 -0.2098
  941MOL0     C26926   1.270   4.519   4.649  0.9914  0.0911 -0.0330
  941MOL0     C26927   1.283   4.653   4.647 -0.0725  0.3179  0.9841
  941MOL0     C26928   1.263   4.727   4.515 -0.4291 -0.2343  0.0354
  941MOL0     C26929   1.321   4.724   4.760 -0.6008 -0.2493 -0.0679
  941MOL0     C26930   1.318   4.871   4.787  0.4531 -0.3475  0.3103
  941MOL0     O26931   1.387   4.920   4.895  0.3771 -0.1141  0.4775
  941MOL0     C26932   1.329   5.029   4.948 -0.4216 -0.9826  0.0301
  941MOL0     C26933   1.348   5.152   4.885 -0.4480 -0.0244  1.5678
  941MOL0     C26934   1.306   5.266   4.944 -0.2527 -0.3643  0.1065
  941MOL0     C26935   1.244   5.266   5.067 -0.2076 -0.2643  0.0270
  941MOL0     O26936   1.218   5.374   5.145  0.6972 -0.6987  0.1938
  941MOL0     C26937   1.073   5.400   5.165 -0.6277  0.0237 -0.1119
  941MOL0     C26938   1.047   5.429   5.314 -0.7549 -0.0244  0.0270
  941MOL0     C26939   1.116   5.553   5.373 -0.3244  0.2948  1.0092
  941MOL0     C26940   1.099   5.553   5.520  0.6023  0.3965 -0.1769
  941MOL0     C26941   1.139   5.688   5.583 -0.1220 -0.2542  0.3276
  941MOL0     C26942   1.105   5.693   5.733 -0.7055  0.2551  0.7787
  941MOL0     C26943   1.107   5.834   5.805  0.3644 -0.7117  0.4367
  941MOL0     C26944   1.252   5.895   5.805  0.3607  0.6122  0.2148
  941MOL0    Cl26945   1.239   6.074   5.820 -0.0989  0.5904  0.5592
  941MOL0     C26946   1.219   5.146   5.125 -0.5950 -0.3633  0.1138
  941MOL0     C26947   1.267   5.030   5.071 -0.6692 -0.4353 -0.5353
  941MOL0     O26948   1.258   4.942   4.706 -0.0319 -0.0153  0.0823
  941MOL0     C26949   1.352   4.652   4.874 -1.3427  0.6966  0.7090
  941MOL0     C26950   1.337   4.510   4.880 -0.1699 -0.1703  0.6664
  941MOL0     N26951   1.557   3.886   5.009 -0.0391  0.0753  0.1042
  941MOL0     N26952   1.684   3.857   5.031  0.2633 -0.2442  0.4345
  941MOL0     C26953   2.249   4.581   5.825  0.8267  0.1885 -1.0129
  941MOL0     C26954   2.308   4.698   5.884  0.9034  0.2407 -0.5724
  941MOL0     C26955   2.520   5.044   5.988  0.1622 -0.5163 -0.3054
  941MOL0     C26956   2.502   5.184   5.972  0.9624 -0.5418 -0.2281
  941MOL0     C26957   2.577   5.290   6.033 -0.1576 -0.9117  0.5492
  941MOL0     C26958   2.687   5.246   6.124  0.4776  0.3121 -0.2221
  941MOL0     O26959   2.759   5.342   6.185 -0.0023 -0.2949 -0.6036
  941MOL0     C26960   2.854   5.315   6.281 -0.5467  0.4321 -0.6479
  941MOL0     C26961   2.912   5.451   6.324  0.1134 -0.2575 -0.0355
  941MOL0     C26962   3.007   5.522   6.231 -0.5254  0.6956 -0.1029
  941MOL0     C26963   3.123   5.435   6.188 -0.3737 -0.9102 -0.5318
  941MOL0     C26964   3.207   5.407   6.296 -0.8345 -0.2364  0.4989
  941MOL0     C26965   3.283   5.363   6.381 -1.0555  0.4270 -0.1885
  941MOL0     C26966   2.700   5.107   6.147  0.5042 -0.4345  0.3471
  941MOL0     C26967   2.626   5.012   6.069  0.0363  0.7971 -0.2276
  941MOL0     H26968   2.559   4.713   5.659 -0.2013  0.3675  0.4185
  941MOL0     H26969   2.436   4.556   5.544 -1.6107 -1.3868 -0.0858
  941MOL0     H26970   2.223   4.491   5.457 -2.4467 -0.8105 -0.3991
  941MOL0     H26971   2.342   4.362   5.491 -0.2628  0.2405 -1.7728
  941MOL0     H26972   2.168   4.194   5.504 -0.1307 -0.1859  0.6884
  941MOL0     H26973   2.042   4.308   5.495 -1.0595 -5.3269 -2.0169
  941MOL0     H26974   2.109   4.359   5.237 -0.3336 -1.4699 -1.9752
  941MOL0     H26975   2.229   4.249   5.256 -2.2196 -1.7962 -5.3478
  941MOL0     H26976   2.038   4.081   5.340  1.3709 -0.8531 -0.2960
  941MOL0     H26977   1.951   4.226   5.287  1.2554  1.4369  0.8493
  941MOL0     H26978   2.038   4.207   5.062  4.1011 -0.0058 -0.6885
  941MOL0     H26979   2.139   4.070   5.102  0.2181  0.9135 -0.7867
  941MOL0     H26980   1.944   3.924   5.157  1.9165 -0.5405  0.0346
  941MOL0     H26981   1.840   4.047   5.099 -0.4758 -1.3160 -0.5672
  941MOL0     H26982   1.937   4.040   4.867  0.0424 -2.0736 -2.1055
  941MOL0     H26983   2.073   3.939   4.934 -0.5916 -0.0328  2.6392
  941MOL0     H26984   1.932   3.768   4.984  1.9655  1.8391 -0.6711
  941MOL0     H26985   1.930   3.786   4.820 -1.4557 -1.2266 -1.3239
  941MOL0     H26986   1.668   3.847   4.702 -2.6109 -0.8135 -0.1629
  941MOL0     H26987   1.433   3.820   4.707  0.5429 -3.7354  3.0440
  941MOL0     H26988   1.339   3.861   4.848  0.1767  0.3140  0.3715
  941MOL0     H26989   1.458   4.060   4.654  1.7653  0.6865  0.4172
  941MOL0     H26990   1.437   4.104   4.818  0.7814 -1.5734  2.3872
  941MOL0     H26991   1.200   4.051   4.811  1.5041 -3.4967  0.4257
  941MOL0     H26992   1.193   4.019   4.638  0.1090 -1.5203  0.9418
  941MOL0     H26993   1.154   4.260   4.640 -1.1680 -0.4900  0.9117
  941MOL0     H26994   1.323   4.232   4.593  0.1819 -1.7973 -0.2192
  941MOL0     H26995   1.235   4.473   4.557 -0.8531 -0.6906  0.9980
  941MOL0     H26996   1.342   4.801   4.499  2.0436 -2.1285  2.3246
  941MOL0     H26997   1.268   4.654   4.433 -3.3292  1.1124 -1.4723
  941MOL0     H26998   1.159   4.759   4.506 -0.2908  0.3178  0.3857
  941MOL0     H26999   1.391   5.160   4.785 -0.1843 -0.6595  1.6284
  941MOL0     H27000   1.325   5.362   4.896 -0.3296  0.3581  1.4714
  941MOL0     H27001   1.051   5.489   5.105  1.4137  2.8163  2.9426
  941MOL0     H27002   1.003   5.324   5.128 -0.9545  0.0388  0.4626
  941MOL0     H27003   0.939   5.445   5.319 -0.5979  2.1416 -1.7959
  941MOL0     H27004   1.074   5.339   5.370  1.0204  1.4503  1.6782
  941MOL0     H27005   1.078   5.642   5.323 -1.9346 -0.8654  0.0518
  941MOL0     H27006   1.222   5.553   5.349  0.0211  1.6583  2.4123
  941MOL0     H27007   0.995   5.526   5.540  0.6911  0.8022  0.9038
  941MOL0     H27008   1.148   5.470   5.573 -0.5643 -1.0547 -1.2738
  941MOL0     H27009   1.087   5.774   5.540 -0.4345 -1.5149 -2.0028
  941MOL0     H27010   1.243   5.705   5.554 -0.6201  1.3539 -0.6550
  941MOL0     H27011   1.006   5.649   5.747 -0.3860 -1.1551 -1.0341
  941MOL0     H27012   1.181   5.625   5.772  1.6058 -0.4824 -4.2467
  941MOL0     H27013   1.062   5.821   5.904 -1.6343  1.1033 -0.1763
  941MOL0     H27014   1.037   5.893   5.746  2.2870  0.6563 -0.6187
  941MOL0     H27015   1.308   5.860   5.718  0.1917 -0.4833  0.5286
  941MOL0     H27016   1.298   5.847   5.893 -2.7059 -1.2827  0.9597
  941MOL0     H27017   1.167   5.139   5.220  1.0622  1.2573  1.2255
  941MOL0     H27018   1.251   4.935   5.122  1.5980 -0.0943  0.9190
  941MOL0     H27019   1.375   4.699   4.969 -2.3378 -1.9876  2.4066
  941MOL0     H27020   1.358   4.470   4.979 -1.1232 -0.2300  0.8573
  941MOL0     H27021   2.177   4.528   5.887 -0.0836  1.1834 -1.1752
  941MOL0     H27022   2.267   4.742   5.974 -0.7018 -0.5113 -0.9074
  941MOL0     H27023   2.420   5.219   5.911  1.6198 -3.0692 -2.7976
  941MOL0     H27024   2.532   5.388   6.030  1.5419 -0.0803  1.2533
  941MOL0     H27025   2.807   5.264   6.366 -1.1152  0.0121 -1.2058
  941MOL0     H27026   2.941   5.261   6.243 -0.6033 -1.1620  1.3414
  941MOL0     H27027   2.965   5.429   6.417 -0.7316 -1.3869  0.1955
  941MOL0     H27028   2.824   5.512   6.346  1.0391  1.1023  0.0485
  941MOL0     H27029   3.029   5.623   6.268 -2.0199  0.6832  0.8845
  941MOL0     H27030   2.946   5.534   6.141  0.7172  2.5944 -0.7618
  941MOL0     H27031   3.173   5.489   6.107  1.2514 -0.2147  0.8770
  941MOL0     H27032   3.092   5.345   6.135 -1.4221 -0.6064 -0.4569
  941MOL0     H27033   3.330   5.324   6.468 -4.7263  0.1311  1.8637
  941MOL0     H27034   2.763   5.070   6.228 -1.0580  1.3066  2.5117
  941MOL0     H27035   2.638   4.907   6.097 -1.0163  0.3450 -1.3747
  942MOL0     O27036   9.039  10.603   8.036  0.1318 -0.1270  0.2657
  942MOL0     C27037   9.064  10.598   8.155  0.2066 -0.0098 -0.2216
  942MOL0     O27038   8.973  10.553   8.249 -0.3430 -0.2670  0.6566
  942MOL0     C27039   8.842  10.535   8.221 -0.3896  0.2172  0.4098
  942MOL0     C27040   8.778  10.426   8.278 -0.7976  0.1416 -0.3824
  942MOL0     C27041   8.639  10.407   8.266  0.9554 -0.1582 -0.0281
  942MOL0     C27042   8.564  10.503   8.202  0.6213 -0.2306  0.2653
  942MOL0     O27043   8.433  10.502   8.192 -0.2793 -0.2293 -0.2886
  942MOL0     C27044   8.368  10.518   8.317  0.4723  0.1704 -0.3101
  942MOL0     C27045   8.217  10.502   8.329  0.4869 -0.0484  0.6748
  942MOL0     C27046   8.177  10.371   8.276 -0.0731  0.4601 -0.1139
  942MOL0     C27047   8.026  10.357   8.277  0.0262 -0.2115  0.0768
  942MOL0     C27048   7.976  10.215   8.230 -0.8750  0.0793  0.5198
  942MOL0     C27049   7.823  10.200   8.214  0.6885 -0.0694 -0.9464
  942MOL0     C27050   7.784  10.061   8.164  0.2056  0.0774 -0.2627
  942MOL0     C27051   7.632  10.058   8.146 -0.1145  1.1017 -0.1628
  942MOL0     N27052   7.582  10.128   8.029  0.0334  0.0863  0.3894
  942MOL0     C27053   7.573  10.067   7.901  0.0148 -0.8902  0.2843
  942MOL0     C27054   7.502  10.158   7.830  0.5360  1.0178  0.2688
  942MOL0     C27055   7.476  10.152   7.685 -0.3722  0.5602  0.4944
  942MOL0     C27056   7.331  10.101   7.658  0.0644  0.6074  0.0459
  942MOL0     C27057   7.321   9.948   7.632  0.2079  0.1741 -0.5658
  942MOL0     C27058   7.169   9.905   7.637  0.3223 -0.2570 -0.8400
  942MOL0     O27059   7.147   9.791   7.551 -0.0936 -0.6154  0.2145
  942MOL0     C27060   7.016   9.750   7.529 -0.5565 -0.7311 -0.1601
  942MOL0     C27061   7.008   9.643   7.440  0.1286  0.1553  0.2821
  942MOL0     C27062   6.892   9.592   7.390 -0.7814 -0.0683  1.1333
  942MOL0     C27063   6.898   9.482   7.289 -0.2275 -0.1461  0.9009
  942MOL0     C27064   6.768   9.645   7.438 -0.4687 -0.0471 -0.0816
  942MOL0     C27065   6.629   9.598   7.404  0.5647  0.0695  0.3828
  942MOL0     O27066   6.534   9.668   7.459 -0.1448  0.2062  0.2954
  942MOL0     C27067   6.405   9.625   7.439 -0.6457 -0.1978  1.0159
  942MOL0     C27068   6.334   9.555   7.530  0.2313 -0.4539  0.1150
  942MOL0     C27069   6.203   9.526   7.514  0.1508  0.7302  0.6294
  942MOL0     C27070   6.138   9.559   7.392 -0.7501  0.6841  1.0959
  942MOL0     O27071   6.009   9.530   7.360 -0.4025 -0.7804  0.2345
  942MOL0     C27072   5.926   9.436   7.435  0.0081 -0.5205 -0.0044
  942MOL0     C27073   5.779   9.455   7.400 -0.8289 -0.5036 -0.4765
  942MOL0     C27074   5.671   9.400   7.499  0.6403 -0.3178  0.7746
  942MOL0     C27075   5.525   9.425   7.436  0.2640 -0.1105 -0.1925
  942MOL0     C27076   5.410   9.424   7.535 -1.1725 -0.0747  0.1352
  942MOL0     C27077   5.273   9.392   7.478  0.4187 -0.7125 -0.7276
  942MOL0     C27078   5.218   9.513   7.400 -0.2178 -0.7540  1.3415
  942MOL0     C27079   5.068   9.485   7.357 -0.4379  0.2820  1.1650
  942MOL0    Cl27080   4.953   9.497   7.497  0.9397  0.0652 -0.2652
  942MOL0     C27081   6.211   9.614   7.286 -0.0176  0.2343 -0.0660
  942MOL0     C27082   6.343   9.651   7.310 -0.1614 -0.0053 -0.7693
  942MOL0     O27083   6.611   9.503   7.331 -0.2701 -0.6966 -0.5235
  942MOL0     C27084   6.779   9.733   7.544  0.6111 -0.9229  0.0372
  942MOL0     C27085   6.899   9.790   7.587  0.0672 -0.0782 -0.8543
  942MOL0     N27086   7.456  10.261   7.916 -0.3208  0.0646 -0.2142
  942MOL0     N27087   7.504  10.239   8.034 -0.2122 -0.5271  0.2304
  942MOL0     C27088   8.625  10.602   8.132 -0.5540  0.5287  0.1095
  942MOL0     C27089   8.765  10.627   8.148  0.8687 -0.7986 -0.3371
  942MOL0     C27090   9.195  10.641   8.200 -0.0441 -0.8406  0.0454
  942MOL0     C27091   9.303  10.665   8.110  0.1225 -0.6216 -0.1600
  942MOL0     C27092   9.426  10.717   8.155  0.1254 -0.3749  0.6932
  942MOL0     C27093   9.444  10.755   8.287 -0.2010  0.5829  0.5402
  942MOL0     O27094   9.561  10.798   8.346 -0.5027  1.1163  0.7082
  942MOL0     C27095   9.676  10.804   8.253 -0.4319 -0.7739 -0.8502
  942MOL0     C27096   9.786  10.883   8.335  0.7242  0.0975 -0.3480
  942MOL0     C27097   9.733  11.030   8.356 -0.2034  0.0299 -0.1228
  942MOL0     C27098   9.850  11.118   8.404 -0.6697 -0.4855  0.0752
  942MOL0     C27099   9.803  11.254   8.437 -0.4153  0.0854  0.5449
  942MOL0     C27100   9.774  11.363   8.481  0.5267  0.6092  0.1702
  942MOL0     C27101   9.329  10.739   8.384 -0.4689  0.6105  0.4618
  942MOL0     C27102   9.216  10.671   8.339 -0.7556 -0.1398 -0.1412
  942MOL0     H27103   8.833  10.357   8.342 -0.3151  1.0607  0.2029
  942MOL0     H27104   8.588  10.339   8.334 -0.8000 -0.2954 -1.4004
  942MOL0     H27105   8.409  10.440   8.382  2.0518  1.0391 -0.2020
  942MOL0     H27106   8.390  10.616   8.360 -1.4510  0.8552 -0.8128
  942MOL0     H27107   8.195  10.499   8.436 -0.2668  0.3326  0.5416
  942MOL0     H27108   8.149  10.577   8.287  0.5723 -0.2045  0.2489
  942MOL0     H27109   8.218  10.343   8.178 -1.2842 -1.4568 -0.1467
  942MOL0     H27110   8.224  10.308   8.352 -2.1527 -1.2500 -0.1232
  942MOL0     H27111   7.985  10.379   8.376 -0.4436  0.7382 -0.3126
  942MOL0     H27112   7.972  10.435   8.223  0.2883 -0.4370 -0.5229
  942MOL0     H27113   8.008  10.210   8.126  2.4066  1.7815  1.3336
  942MOL0     H27114   8.020  10.132   8.286  1.0112 -0.3778 -1.4931
  942MOL0     H27115   7.778  10.224   8.311  2.6643  0.7661 -0.1950
  942MOL0     H27116   7.788  10.275   8.143 -0.2712 -1.1093 -1.6143
  942MOL0     H27117   7.834  10.023   8.074  0.5365  3.7356 -1.8105
  942MOL0     H27118   7.814   9.996   8.247  0.2418 -4.2612 -3.3531
  942MOL0     H27119   7.581  10.108   8.229 -1.8799  4.3835 -2.9676
  942MOL0     H27120   7.588   9.958   8.133  0.7134  0.7673 -0.4745
  942MOL0     H27121   7.619   9.980   7.855 -0.6838 -2.2580  2.0604
  942MOL0     H27122   7.497  10.248   7.637  0.7765  0.1073  0.0513
  942MOL0     H27123   7.541  10.074   7.645 -0.7509  1.7316 -2.6757
  942MOL0     H27124   7.299  10.158   7.571 -2.1774 -0.3121  0.2029
  942MOL0     H27125   7.272  10.127   7.747  2.1253  1.5094  1.2133
  942MOL0     H27126   7.371   9.882   7.703  0.6052 -0.4893 -1.4393
  942MOL0     H27127   7.374   9.922   7.539  0.2121 -1.6615 -0.0829
  942MOL0     H27128   7.105   9.982   7.594  0.3168 -0.1129 -0.5715
  942MOL0     H27129   7.136   9.873   7.736 -0.9647 -3.9604 -2.2785
  942MOL0     H27130   7.100   9.616   7.389 -0.5886  2.4128 -2.4795
  942MOL0     H27131   6.869   9.400   7.356 -0.0859 -0.1706  0.9302
  942MOL0     H27132   6.826   9.478   7.207 -0.0494 -0.6384  0.7657
  942MOL0     H27133   7.002   9.472   7.257 -1.3325  0.6498 -3.6542
  942MOL0     H27134   6.369   9.536   7.631  0.7982  2.0036  0.4406
  942MOL0     H27135   6.163   9.479   7.603  0.4903  0.1279  0.4724
  942MOL0     H27136   5.951   9.334   7.402 -0.4160 -0.2236 -1.3304
  942MOL0     H27137   5.938   9.439   7.543  1.6682  0.8911 -0.1814
  942MOL0     H27138   5.763   9.562   7.385  0.0802 -0.1822  0.6997
  942MOL0     H27139   5.772   9.413   7.299  0.9320  0.0462 -0.8532
  942MOL0     H27140   5.683   9.440   7.600 -1.7237  1.7890  0.3128
  942MOL0     H27141   5.688   9.293   7.511  1.4629 -0.1583  1.1185
  942MOL0     H27142   5.529   9.532   7.411 -1.4168 -0.2124 -0.9856
  942MOL0     H27143   5.500   9.357   7.354  3.0797 -4.1775  1.9562
  942MOL0     H27144   5.395   9.521   7.585  0.9452 -0.2817  1.2833
  942MOL0     H27145   5.437   9.348   7.610 -3.3344 -2.1234 -1.0322
  942MOL0     H27146   5.277   9.310   7.406 -2.3632  0.9333 -2.9721
  942MOL0     H27147   5.207   9.370   7.563 -1.5953  0.4703 -1.8864
  942MOL0     H27148   5.281   9.536   7.315 -2.2120  2.8236  0.6101
  942MOL0     H27149   5.223   9.599   7.467  3.3579  0.3524 -0.1376
  942MOL0     H27150   5.070   9.383   7.317  2.5585  0.8151 -0.3348
  942MOL0     H27151   5.036   9.547   7.273 -1.7842 -0.3123  1.2220
  942MOL0     H27152   6.156   9.640   7.196 -0.7061 -0.3837  0.1624
  942MOL0     H27153   6.394   9.691   7.223 -2.0492 -2.6242 -3.3008
  942MOL0     H27154   6.700   9.763   7.611  1.4163 -0.9434  1.0187
  942MOL0     H27155   6.906   9.856   7.673 -1.7629 -0.7017 -0.1860
  942MOL0     H27156   8.561  10.664   8.069 -2.4519 -1.7314 -0.3133
  942MOL0     H27157   8.823  10.710   8.108  1.7698 -1.1686  0.1810
  942MOL0     H27158   9.287  10.649   8.003 -2.3514  1.2150 -0.1650
  942MOL0     H27159   9.494  10.714   8.071 -3.8716  1.1472 -2.9727
  942MOL0     H27160   9.703  10.705   8.215 -3.7015 -1.7242 -0.9618
  942MOL0     H27161   9.651  10.861   8.163 -0.8583 -0.8616 -0.7887
  942MOL0     H27162   9.879  10.886   8.279 -0.0796  1.1964 -1.6882
  942MOL0     H27163   9.799  10.834   8.432 -0.5333  1.2165  0.4278
  942MOL0     H27164   9.654  11.021   8.430 -0.6157 -2.0545 -0.7612
  942MOL0     H27165   9.694  11.064   8.259 -1.4023 -0.7460  0.0779
  942MOL0     H27166   9.936  11.126   8.337  0.5100  4.6042  1.7356
  942MOL0     H27167   9.874  11.060   8.494 -0.0596 -0.6352 -0.1723
  942MOL0     H27168   9.720  11.452   8.506  0.8660 -0.0112  3.6176
  942MOL0     H27169   9.341  10.764   8.488  0.7875 -0.8882  0.7183
  942MOL0     H27170   9.160  10.624   8.419 -1.2458 -1.7774 -1.3805
  943MOL0     O27171  10.122   7.886   3.051  0.1399  0.5485  0.3995
  943MOL0     C27172  10.140   7.793   2.972  0.3521  0.2325  0.5306
  943MOL0     O27173  10.037   7.721   2.912 -0.4036 -0.2189  0.6947
  943MOL0     C27174   9.909   7.755   2.927  0.3463 -0.3681  0.7465
  943MOL0     C27175   9.819   7.680   3.000  0.6700  0.3565  0.4897
  943MOL0     C27176   9.688   7.720   3.018 -0.8844  0.1007 -0.5566
  943MOL0     C27177   9.653   7.846   2.972 -0.7681  1.4606  0.0007
  943MOL0     O27178   9.522   7.881   2.983  0.8086 -0.4459  0.3480
  943MOL0     C27179   9.517   8.008   3.062 -0.2340  0.3772  0.3881
  943MOL0     C27180   9.377   8.067   3.025 -1.0407 -0.0849 -0.5120
  943MOL0     C27181   9.378   8.221   3.028  0.6658 -0.0185  0.4003
  943MOL0     C27182   9.230   8.264   3.008 -0.4443 -0.2856 -0.2921
  943MOL0     C27183   9.209   8.418   3.013 -0.6108 -0.1980 -0.1869
  943MOL0     C27184   9.066   8.458   3.011 -0.7492 -0.3145 -0.3447
  943MOL0     C27185   9.045   8.614   3.018  0.5936 -1.0237 -0.4379
  943MOL0     C27186   9.137   8.690   2.913 -0.0750 -0.3780 -0.2667
  943MOL0     N27187   9.085   8.818   2.898  1.0315 -0.5992  0.3738
  943MOL0     C27188   8.977   8.843   2.814 -0.4439 -0.4416  0.0403
  943MOL0     C27189   8.945   8.972   2.849 -0.3313 -0.5170  0.7405
  943MOL0     C27190   8.850   9.059   2.774 -1.1116  0.2353 -0.1266
  943MOL0     C27191   8.844   9.189   2.841  0.4851 -0.0465  0.0684
  943MOL0     C27192   8.746   9.281   2.768  0.6947 -0.0975 -0.9749
  943MOL0     C27193   8.767   9.427   2.808  0.4306 -0.0205 -1.0369
  943MOL0     O27194   8.761   9.461   2.949  0.0329  0.0768 -0.4598
  943MOL0     C27195   8.633   9.463   3.007 -0.5407 -0.4143  0.3203
  943MOL0     C27196   8.605   9.445   3.147  0.5083 -0.3041 -0.0334
  943MOL0     C27197   8.482   9.454   3.212 -1.0368  0.0697  0.3388
  943MOL0     C27198   8.485   9.432   3.360 -0.5672 -0.1452  0.1643
  943MOL0     C27199   8.369   9.468   3.128 -0.7824  0.2906  0.1794
  943MOL0     C27200   8.224   9.485   3.175  0.3056 -0.0607 -0.1498
  943MOL0     O27201   8.134   9.454   3.089 -0.3960 -0.3768  0.2768
  943MOL0     C27202   8.000   9.449   3.124 -0.2250 -0.2032  1.5446
  943MOL0     C27203   7.956   9.382   3.240 -0.5944  0.2583  0.6655
  943MOL0     C27204   7.830   9.364   3.266  1.2195 -0.4766  0.3068
  943MOL0     C27205   7.726   9.421   3.174  1.3563  0.3701 -0.4890
  943MOL0     O27206   7.590   9.396   3.202 -0.3564 -0.2052  0.5962
  943MOL0     C27207   7.491   9.421   3.104 -0.3089 -0.2181 -0.1525
  943MOL0     C27208   7.361   9.359   3.154 -0.0009 -0.3098  0.1638
  943MOL0     C27209   7.307   9.434   3.273  0.5666 -0.1201  0.0175
  943MOL0     C27210   7.170   9.501   3.224 -0.6167 -0.2051  1.0582
  943MOL0     C27211   7.124   9.606   3.336  0.8145  0.5786 -1.3065
  943MOL0     C27212   6.985   9.658   3.298  0.3712  0.6215 -0.3881
  943MOL0     C27213   6.874   9.565   3.355 -0.4311  0.7804  0.7149
  943MOL0     C27214   6.735   9.609   3.322  0.6328 -1.2070 -0.9711
  943MOL0    Cl27215   6.685   9.750   3.421 -0.0607 -0.4002 -0.1130
  943MOL0     C27216   7.771   9.471   3.050 -0.0196  0.0090 -0.0700
  943MOL0     C27217   7.904   9.484   3.026 -0.9164  0.4893 -0.2760
  943MOL0     O27218   8.201   9.527   3.294 -0.6268 -0.5516  0.3256
  943MOL0     C27219   8.392   9.476   2.992  0.2112  0.1590  0.9375
  943MOL0     C27220   8.513   9.475   2.935 -0.3110  0.4047  0.0526
  943MOL0     N27221   9.024   9.013   2.959 -0.4609  0.7029 -0.0852
  943MOL0     N27222   9.111   8.919   2.984 -0.8181 -0.0457  0.3132
  943MOL0     C27223   9.742   7.925   2.903  0.3030 -1.1515  1.8468
  943MOL0     C27224   9.867   7.877   2.870  0.9228  0.1862 -0.2775
  943MOL0     C27225  10.286   7.763   2.944  0.0949 -0.1836 -0.8491
  943MOL0     C27226  10.384   7.833   3.022  0.1291  0.4698  0.9580
  943MOL0     C27227  10.522   7.794   3.012  0.4919 -0.7136 -0.3941
  943MOL0     C27228  10.557   7.704   2.907  0.1116 -0.2420  0.3145
  943MOL0     O27229  10.683   7.658   2.891  0.4583 -0.0428  0.0827
  943MOL0     C27230  10.778   7.647   3.004  0.1474 -0.1520  0.1161
  943MOL0     C27231  10.847   7.513   3.007 -0.0026  0.5664 -0.2384
  943MOL0     C27232  10.995   7.549   3.025 -0.2054 -0.7178 -0.3202
  943MOL0     C27233  11.086   7.429   3.012 -0.9005 -0.1194 -0.3120
  943MOL0     C27234  11.219   7.451   3.066  0.0375  0.5212  0.1401
  943MOL0     C27235  11.325   7.458   3.133  1.1525 -0.5060 -0.4014
  943MOL0     C27236  10.458   7.658   2.815  0.2914 -0.0288  0.3359
  943MOL0     C27237  10.322   7.682   2.834 -0.9300  0.0208 -0.0517
  943MOL0     H27238   9.850   7.583   3.038 -1.5096 -0.4306  0.3388
  943MOL0     H27239   9.619   7.646   3.055 -2.2597  0.1150 -2.9179
  943MOL0     H27240   9.535   7.984   3.167 -2.1915 -1.0881  0.4648
  943MOL0     H27241   9.588   8.086   3.033  0.5589 -0.9917 -1.5387
  943MOL0     H27242   9.346   8.026   2.928 -3.5108 -0.6393  0.4309
  943MOL0     H27243   9.303   8.028   3.096 -0.7572 -0.5449 -0.4618
  943MOL0     H27244   9.418   8.270   3.117 -2.8806 -0.8389  2.6616
  943MOL0     H27245   9.438   8.247   2.940 -0.2275 -1.5382 -0.7097
  943MOL0     H27246   9.201   8.232   2.907 -1.7864 -0.2954  0.0811
  943MOL0     H27247   9.162   8.216   3.079 -1.7306 -1.0687 -1.9818
  943MOL0     H27248   9.251   8.470   3.099  3.0225 -1.4850 -0.9745
  943MOL0     H27249   9.262   8.461   2.927 -0.6793  0.9641  0.3267
  943MOL0     H27250   9.030   8.413   2.918  2.8126 -1.3995 -1.3551
  943MOL0     H27251   9.016   8.406   3.094 -1.6382  0.6133 -0.2848
  943MOL0     H27252   8.943   8.653   3.015  0.8965 -0.1746  0.0930
  943MOL0     H27253   9.079   8.642   3.118  0.3522  2.8062 -1.3029
  943MOL0     H27254   9.129   8.648   2.812 -3.0607  1.4697 -0.9145
  943MOL0     H27255   9.241   8.677   2.945 -0.6918  1.0492  2.5573
  943MOL0     H27256   8.923   8.775   2.749 -5.5633  0.2697  3.0163
  943MOL0     H27257   8.882   9.079   2.671  1.1637  2.0607  0.8511
  943MOL0     H27258   8.749   9.016   2.776 -0.6886 -0.7637  1.8340
  943MOL0     H27259   8.940   9.238   2.827  0.4802  1.1201  3.3645
  943MOL0     H27260   8.830   9.187   2.949  2.0429 -3.8635  0.3923
  943MOL0     H27261   8.643   9.248   2.786  2.1801 -4.6681  0.4734
  943MOL0     H27262   8.771   9.271   2.662  0.9914  0.2138 -0.9358
  943MOL0     H27263   8.694   9.486   2.752 -1.5421  1.2834  2.5180
  943MOL0     H27264   8.870   9.444   2.775  0.2560  0.2753 -1.4329
  943MOL0     H27265   8.683   9.423   3.220 -1.2113 -2.5835  1.2571
  943MOL0     H27266   8.555   9.351   3.383  0.0292 -0.5808 -2.8113
  943MOL0     H27267   8.509   9.526   3.411  1.9258 -0.7051  0.1463
  943MOL0     H27268   8.387   9.411   3.405  0.1673 -2.0677  0.9934
  943MOL0     H27269   8.032   9.339   3.305 -1.4045  0.5589  1.8632
  943MOL0     H27270   7.786   9.310   3.350 -0.0686  0.8731  0.5435
  943MOL0     H27271   7.477   9.528   3.087 -0.1475 -0.0496  0.7486
  943MOL0     H27272   7.514   9.365   3.012 -1.4919  1.2213 -1.3716
  943MOL0     H27273   7.292   9.368   3.069  2.0244  0.0481 -1.5098
  943MOL0     H27274   7.367   9.253   3.181 -5.3088 -0.6982  0.8234
  943MOL0     H27275   7.369   9.506   3.327  0.0282  0.0949  0.3555
  943MOL0     H27276   7.284   9.359   3.349 -2.5047 -1.1148 -1.7303
  943MOL0     H27277   7.177   9.556   3.130  0.5715 -0.2917  1.0775
  943MOL0     H27278   7.105   9.415   3.213  0.5776 -0.9040 -1.2372
  943MOL0     H27279   7.194   9.690   3.349 -0.0790  0.8925  2.7319
  943MOL0     H27280   7.123   9.568   3.439 -2.7756 -0.3729 -1.5825
  943MOL0     H27281   6.969   9.756   3.344 -1.7006 -1.1203  3.0653
  943MOL0     H27282   6.959   9.665   3.192  1.3908  2.6211 -0.5393
  943MOL0     H27283   6.865   9.579   3.463 -2.6144  0.2062  0.6588
  943MOL0     H27284   6.886   9.460   3.324  2.5253  0.9315  1.1386
  943MOL0     H27285   6.676   9.523   3.355 -0.4066  0.4913  1.9915
  943MOL0     H27286   6.716   9.628   3.216  0.9577 -0.2892 -0.8729
  943MOL0     H27287   7.704   9.507   2.972 -0.6590 -1.1989 -0.1006
  943MOL0     H27288   7.946   9.520   2.933 -2.0768 -1.9309 -1.8323
  943MOL0     H27289   8.310   9.491   2.922  0.0611  0.1817  1.1180
  943MOL0     H27290   8.507   9.471   2.826  3.7944 -0.7168 -0.2930
  943MOL0     H27291   9.720   8.029   2.878  3.5234  0.0287  3.3156
  943MOL0     H27292   9.942   7.926   2.809 -0.1526 -1.1444 -2.7921
  943MOL0     H27293  10.362   7.906   3.099 -1.8185 -0.1302  1.0438
  943MOL0     H27294  10.593   7.850   3.072  0.9618 -0.3878 -1.2381
  943MOL0     H27295  10.849   7.729   3.001  1.5180 -1.1510  2.4429
  943MOL0     H27296  10.735   7.655   3.105 -3.4914  0.5410 -1.3175
  943MOL0     H27297  10.835   7.453   2.916  2.3399  0.1220 -0.3126
  943MOL0     H27298  10.824   7.451   3.093  1.9391 -1.0443 -0.8174
  943MOL0     H27299  11.013   7.598   3.121  0.3194 -1.5386  0.0136
  943MOL0     H27300  11.025   7.622   2.949  0.5837  0.2530  0.8798
  943MOL0     H27301  11.090   7.402   2.906  1.8656  2.3420 -0.9743
  943MOL0     H27302  11.036   7.342   3.057 -1.8662 -0.7664 -2.5205
  943MOL0     H27303  11.417   7.438   3.183  1.5276  1.6219 -0.1263
  943MOL0     H27304  10.491   7.595   2.734 -1.4903 -0.6881  0.0664
  943MOL0     H27305  10.241   7.652   2.770 -2.1580 -0.1437  1.5101
  944MOL0     O27306  11.321  10.835   0.265 -0.5198 -0.2682 -0.3192
  944MOL0     C27307  11.420  10.873   0.205 -0.4702 -0.3321  0.8653
  944MOL0     O27308  11.423  10.969   0.106 -0.0378  0.2597 -0.2362
  944MOL0     C27309  11.335  11.078   0.131  0.7673  0.5619  0.1961
  944MOL0     C27310  11.365  11.186   0.214  0.2453 -1.6998 -0.1051
  944MOL0     C27311  11.261  11.278   0.250  0.1901  0.9252  0.2143
  944MOL0     C27312  11.135  11.263   0.197  0.1287  0.2627 -0.6420
  944MOL0     O27313  11.056  11.369   0.237 -0.1467 -0.2780  0.5865
  944MOL0     C27314  10.909  11.357   0.219 -0.7173 -0.6935 -0.2509
  944MOL0     C27315  10.846  11.473   0.306 -0.6956 -0.2523 -0.1909
  944MOL0     C27316  10.841  11.423   0.453  0.0398 -0.0470  0.7035
  944MOL0     C27317  10.782  11.527   0.557  0.1257  0.4453 -0.5844
  944MOL0     C27318  10.725  11.457   0.680 -0.3824  0.8948  0.4799
  944MOL0     C27319  10.663  11.558   0.773  0.4330 -0.4660  0.3126
  944MOL0     C27320  10.594  11.479   0.882  0.4683  0.1681 -0.1302
  944MOL0     C27321  10.521  11.557   0.991 -0.4740  0.0633 -0.7772
  944MOL0     N27322  10.582  11.516   1.116 -0.2504  0.5473  0.6122
  944MOL0     C27323  10.529  11.413   1.197  0.2192  0.1557 -0.6168
  944MOL0     C27324  10.597  11.429   1.310 -0.5953  0.4971  0.6504
  944MOL0     C27325  10.593  11.345   1.438 -0.0739  0.1628  0.2932
  944MOL0     C27326  10.475  11.375   1.525 -0.4265  0.0671  0.3303
  944MOL0     C27327  10.344  11.341   1.451 -0.5317  1.1003 -0.7513
  944MOL0     C27328  10.236  11.280   1.549  0.2918  0.0672 -0.2270
  944MOL0     O27329  10.103  11.327   1.503  0.0020 -0.1094 -0.3453
  944MOL0     C27330  10.004  11.273   1.574 -0.1688  0.8164  0.1490
  944MOL0     C27331   9.882  11.253   1.505  0.1679 -0.6257 -0.0103
  944MOL0     C27332   9.777  11.199   1.577  1.2049 -0.3416 -0.0726
  944MOL0     C27333   9.653  11.193   1.484 -0.3578 -0.5682  0.0810
  944MOL0     C27334   9.769  11.167   1.712  0.0205  0.5320 -0.0254
  944MOL0     C27335   9.650  11.110   1.779 -0.6258 -1.3216  0.1848
  944MOL0     O27336   9.663  11.102   1.920 -0.1176 -0.0071 -0.2258
  944MOL0     C27337   9.555  11.055   1.997 -0.8978  0.6982  0.0079
  944MOL0     C27338   9.445  11.132   2.021 -1.1258  0.2849  0.3450
  944MOL0     C27339   9.349  11.082   2.111 -1.0411 -0.5680 -0.1978
  944MOL0     C27340   9.347  10.954   2.161  0.3801  0.6401 -0.5334
  944MOL0     O27341   9.247  10.909   2.240  0.0676 -0.4733 -0.8126
  944MOL0     C27342   9.152  10.998   2.297  0.1580 -0.2780  0.7692
  944MOL0     C27343   9.064  10.919   2.394 -0.5058 -0.4107  0.5092
  944MOL0     C27344   9.133  10.839   2.507 -1.2613 -0.2675 -0.6044
  944MOL0     C27345   9.192  10.704   2.468 -0.5265 -0.2646 -0.0351
  944MOL0     C27346   9.251  10.648   2.600 -0.4502  0.7060 -0.2687
  944MOL0     C27347   9.309  10.504   2.560 -0.4246 -1.2455  0.3931
  944MOL0     C27348   9.368  10.447   2.684 -0.0932 -0.5529  0.2530
  944MOL0     C27349   9.389  10.290   2.670 -0.1231 -0.6676 -0.2673
  944MOL0    Cl27350   9.555  10.236   2.674 -0.6873  0.6872  0.3653
  944MOL0     C27351   9.452  10.872   2.132  0.4430  0.3114 -0.0478
  944MOL0     C27352   9.557  10.921   2.053  0.1672  0.3108  0.9570
  944MOL0     O27353   9.555  11.075   1.714 -0.7142 -0.1249 -0.9546
  944MOL0     C27354   9.890  11.191   1.775  0.1405 -0.6724  0.1904
  944MOL0     C27355  10.007  11.237   1.713  0.3494 -0.0089 -0.8374
  944MOL0     N27356  10.697  11.529   1.305  0.6238 -0.2756  0.3592
  944MOL0     N27357  10.685  11.581   1.184 -0.0875  0.4257  0.5757
  944MOL0     C27358  11.104  11.159   0.108 -0.2886 -0.5642 -0.7382
  944MOL0     C27359  11.205  11.064   0.083  0.5281  0.0219  0.4683
  944MOL0     C27360  11.539  10.785   0.234 -0.9789  0.4372  0.3788
  944MOL0     C27361  11.676  10.818   0.199  0.4408  0.6319 -0.4575
  944MOL0     C27362  11.778  10.739   0.230  0.3207  0.3781 -0.5286
  944MOL0     C27363  11.758  10.615   0.295 -0.4704 -0.2097 -0.9593
  944MOL0     O27364  11.869  10.539   0.313 -0.2991 -0.3362 -0.5230
  944MOL0     C27365  11.864  10.407   0.363 -0.0238  0.4590 -0.2317
  944MOL0     C27366  11.981  10.335   0.295 -0.1526 -0.0491  0.7265
  944MOL0     C27367  12.134  10.375   0.314 -0.6769 -1.3585 -0.3143
  944MOL0     C27368  12.175  10.403   0.450  0.1445  0.4397 -0.1900
  944MOL0     C27369  12.145  10.295   0.549 -0.5150  0.3817  0.8353
  944MOL0     C27370  12.112  10.214   0.637  0.1974 -0.2837  0.5087
  944MOL0     C27371  11.631  10.586   0.338  0.2676 -0.9511  0.0098
  944MOL0     C27372  11.519  10.661   0.304 -0.1646  0.0313  0.4862
  944MOL0     H27373  11.465  11.209   0.252 -0.7780 -2.0710  3.1381
  944MOL0     H27374  11.276  11.369   0.307  1.8549  2.9451 -3.1286
  944MOL0     H27375  10.907  11.377   0.111 -0.9419  1.3601  0.0912
  944MOL0     H27376  10.866  11.260   0.246 -0.2994  0.0786  3.8456
  944MOL0     H27377  10.910  11.561   0.296 -2.4368  1.0753 -0.1462
  944MOL0     H27378  10.752  11.506   0.261 -0.5638  0.1125 -0.2024
  944MOL0     H27379  10.776  11.335   0.446 -1.7238  1.2882 -1.7415
  944MOL0     H27380  10.943  11.393   0.474 -0.2963 -2.0546 -0.3315
  944MOL0     H27381  10.856  11.601   0.590 -0.2373  0.7890 -0.5338
  944MOL0     H27382  10.696  11.582   0.516 -0.8548 -2.5492 -2.9081
  944MOL0     H27383  10.647  11.388   0.646 -0.1400  0.6934  0.3233
  944MOL0     H27384  10.804  11.406   0.736 -1.9025  0.6103  2.4716
  944MOL0     H27385  10.735  11.631   0.812 -1.7845  1.6989  0.6084
  944MOL0     H27386  10.580  11.607   0.721 -0.1443 -3.4270 -1.8162
  944MOL0     H27387  10.513  11.413   0.852 -1.6078  1.1543  2.7969
  944MOL0     H27388  10.667  11.414   0.931  0.1627  1.0323  1.5466
  944MOL0     H27389  10.414  11.535   0.996 -0.8688  1.9762  2.2037
  944MOL0     H27390  10.536  11.665   0.979 -0.0546 -0.1985 -3.0134
  944MOL0     H27391  10.448  11.350   1.163 -1.3172  2.3391 -1.2305
  944MOL0     H27392  10.596  11.240   1.408 -2.0956 -0.4636  1.9587
  944MOL0     H27393  10.688  11.356   1.490 -0.9494  2.9624  1.4964
  944MOL0     H27394  10.475  11.484   1.536 -0.5560  0.4940 -2.8223
  944MOL0     H27395  10.480  11.317   1.617 -3.6514  0.2951  0.7660
  944MOL0     H27396  10.368  11.256   1.386  1.6574 -0.0937  1.4268
  944MOL0     H27397  10.301  11.426   1.397 -2.4907  0.8958  0.4045
  944MOL0     H27398  10.262  11.296   1.654  4.1664 -0.5017 -0.9520
  944MOL0     H27399  10.237  11.172   1.538  1.3994  0.1483 -0.9819
  944MOL0     H27400   9.869  11.291   1.404 -1.0259  2.2544  1.1286
  944MOL0     H27401   9.690  11.193   1.381  0.8837 -1.0825  0.5020
  944MOL0     H27402   9.596  11.101   1.494 -2.2161  0.7555  3.5296
  944MOL0     H27403   9.584  11.274   1.509 -0.2027 -0.2147 -0.6249
  944MOL0     H27404   9.434  11.227   1.970  2.4833  0.5750 -0.1835
  944MOL0     H27405   9.265  11.148   2.128 -1.0339 -0.9914  1.7344
  944MOL0     H27406   9.213  11.070   2.353  1.3621 -1.2386  0.7277
  944MOL0     H27407   9.094  11.054   2.223  0.1856 -1.9076 -0.5374
  944MOL0     H27408   9.002  10.999   2.435 -0.2643 -0.2771  0.6142
  944MOL0     H27409   8.998  10.854   2.336 -4.0095  0.3186  3.3133
  944MOL0     H27410   9.057  10.820   2.584 -1.2890 -2.4191 -1.1049
  944MOL0     H27411   9.217  10.896   2.548 -2.3283 -0.4267  2.0257
  944MOL0     H27412   9.107  10.646   2.430 -0.9587  0.4823 -0.2339
  944MOL0     H27413   9.275  10.713   2.397  2.7887  3.4821  3.7406
  944MOL0     H27414   9.172  10.642   2.676  1.6125 -0.3087  1.9346
  944MOL0     H27415   9.329  10.716   2.635 -1.4273  2.0912 -0.7256
  944MOL0     H27416   9.227  10.445   2.518  0.8712 -1.3065 -2.1943
  944MOL0     H27417   9.387  10.531   2.488 -0.5947  0.1992  0.7052
  944MOL0     H27418   9.305  10.455   2.773  3.2128  0.1663  2.7468
  944MOL0     H27419   9.465  10.494   2.702 -0.5455  2.1060 -3.3199
  944MOL0     H27420   9.340  10.258   2.578  1.8464  2.8269 -2.7569
  944MOL0     H27421   9.344  10.244   2.759 -1.3146  0.6315 -0.1592
  944MOL0     H27422   9.440  10.773   2.174  0.3431  1.1045  1.8927
  944MOL0     H27423   9.642  10.858   2.031  0.1014  1.6541 -4.7083
  944MOL0     H27424   9.897  11.177   1.882  2.5485 -0.7278  0.0862
  944MOL0     H27425  10.085  11.261   1.784 -1.4472 -0.1976  1.2991
  944MOL0     H27426  11.018  11.157   0.043 -0.7411 -3.3646 -0.1605
  944MOL0     H27427  11.180  10.979   0.021  2.1035 -0.4581  0.4516
  944MOL0     H27428  11.685  10.910   0.144  0.5735 -1.4200 -4.1946
  944MOL0     H27429  11.880  10.770   0.211  0.0321  1.0301 -1.0238
  944MOL0     H27430  11.874  10.399   0.472 -1.3706 -1.6432 -0.2096
  944MOL0     H27431  11.768  10.365   0.331 -0.5375  0.9757  0.5981
  944MOL0     H27432  11.971  10.329   0.186 -0.1485  2.9484  0.4674
  944MOL0     H27433  11.976  10.237   0.344  0.3597 -0.0705  0.7432
  944MOL0     H27434  12.148  10.465   0.253  0.3948 -1.1522  0.2011
  944MOL0     H27435  12.196  10.296   0.271  1.2295 -0.5218  0.7752
  944MOL0     H27436  12.128  10.496   0.480 -3.4848 -1.4740  0.6714
  944MOL0     H27437  12.281  10.426   0.460 -0.0597  0.8532  1.4093
  944MOL0     H27438  12.084  10.151   0.719 -1.7845  0.1848  0.2323
  944MOL0     H27439  11.629  10.490   0.388 -0.3635 -1.1336 -0.3603
  944MOL0     H27440  11.420  10.626   0.332  0.9578 -4.5264 -0.4137
  945MOL0     O27441   6.321   4.177   2.161  0.1877  0.7779 -0.6366
  945MOL0     C27442   6.289   4.057   2.190 -1.2934  0.1359  0.8546
  945MOL0     O27443   6.355   3.993   2.299  0.2617  0.2091  0.3634
  945MOL0     C27444   6.448   4.070   2.361 -0.6737 -0.6423  0.5536
  945MOL0     C27445   6.410   4.138   2.473 -0.4270  0.0627 -0.2119
  945MOL0     C27446   6.495   4.227   2.546 -0.5510  0.7648  0.0660
  945MOL0     C27447   6.638   4.218   2.514  1.0103 -1.2466 -0.0230
  945MOL0     O27448   6.727   4.297   2.590  0.4357 -0.3548 -0.1599
  945MOL0     C27449   6.868   4.265   2.580  0.6328 -0.0281  0.1887
  945MOL0     C27450   6.945   4.328   2.694  0.0242 -0.7467  0.8355
  945MOL0     C27451   6.978   4.476   2.675 -0.2905 -0.3030 -0.0078
  945MOL0     C27452   6.855   4.568   2.721 -0.1574 -0.3230  0.0869
  945MOL0     C27453   6.889   4.724   2.733 -0.0316  0.2927  0.1514
  945MOL0     C27454   6.984   4.761   2.851 -0.1781 -0.6438 -0.3326
  945MOL0     C27455   6.998   4.912   2.840 -0.3399  0.2932 -0.1790
  945MOL0     C27456   7.073   4.958   2.969  0.2836  0.5304 -0.2387
  945MOL0     N27457   7.010   4.928   3.099 -0.1662  0.1421 -0.0684
  945MOL0     C27458   6.895   4.997   3.140  0.2903 -0.8574  0.2863
  945MOL0     C27459   6.876   4.951   3.266 -0.7150 -0.5169 -0.1591
  945MOL0     C27460   6.757   4.982   3.339  0.4502 -0.2023 -0.0835
  945MOL0     C27461   6.643   4.878   3.327 -0.0452 -0.2243 -0.0542
  945MOL0     C27462   6.524   4.910   3.411 -0.2736 -0.3099  0.1315
  945MOL0     C27463   6.398   4.863   3.344  0.2752  1.1820  0.6511
  945MOL0     O27464   6.348   4.947   3.241 -0.6273  0.4777 -0.4467
  945MOL0     C27465   6.237   5.016   3.250 -0.0298  0.5160  0.9150
  945MOL0     C27466   6.237   5.123   3.157 -0.2716 -0.0751 -0.7261
  945MOL0     C27467   6.139   5.226   3.165 -0.0533  0.6384 -0.5454
  945MOL0     C27468   6.157   5.360   3.086  0.4075  0.3798  0.9680
  945MOL0     C27469   6.021   5.194   3.238 -0.3326 -0.4967  1.0114
  945MOL0     C27470   5.893   5.273   3.243 -0.2085 -0.1443 -0.3224
  945MOL0     O27471   5.833   5.293   3.361  0.1383 -0.3349 -0.1412
  945MOL0     C27472   5.694   5.319   3.376 -0.2361 -0.2894  0.7467
  945MOL0     C27473   5.663   5.419   3.463  0.1865 -0.8551  0.2546
  945MOL0     C27474   5.529   5.451   3.469 -0.7010  0.7156  0.6126
  945MOL0     C27475   5.428   5.387   3.394 -0.1726 -0.8765  0.4390
  945MOL0     O27476   5.296   5.418   3.377 -0.4012 -0.5960  0.5327
  945MOL0     C27477   5.250   5.518   3.467  1.5239  0.4674 -0.1787
  945MOL0     C27478   5.238   5.464   3.611 -0.0617  0.1099 -0.7049
  945MOL0     C27479   5.175   5.571   3.708  0.6877 -0.0393  0.8269
  945MOL0     C27480   5.105   5.514   3.835 -0.6192 -0.1282  0.5023
  945MOL0     C27481   5.038   5.633   3.902  0.5639 -0.0557 -0.0966
  945MOL0     C27482   4.963   5.602   4.030 -0.5900 -0.1688 -0.1704
  945MOL0     C27483   4.887   5.723   4.094 -0.2411  0.4211 -0.0745
  945MOL0     C27484   4.769   5.677   4.171  0.9531  0.6304  0.2259
  945MOL0    Cl27485   4.645   5.643   4.052  0.3444 -0.2835  0.3695
  945MOL0     C27486   5.470   5.288   3.305 -0.2214  0.6873  1.0826
  945MOL0     C27487   5.600   5.255   3.299 -0.3484 -1.1044 -0.2271
  945MOL0     O27488   5.845   5.294   3.137 -0.3998  0.0539  0.7680
  945MOL0     C27489   6.016   5.085   3.327 -0.5456  0.6924  0.1047
  945MOL0     C27490   6.129   5.002   3.337 -0.9454  0.5238  1.2163
  945MOL0     N27491   6.977   4.858   3.297  0.5390 -0.0099  0.1036
  945MOL0     N27492   7.062   4.853   3.205 -0.0246 -0.6696 -0.4783
  945MOL0     C27493   6.671   4.139   2.407  0.7511  0.8901 -0.5814
  945MOL0     C27494   6.583   4.059   2.339 -1.1377  0.3395  0.9138
  945MOL0     C27495   6.172   4.000   2.127  0.1541 -0.3700 -0.7805
  945MOL0     C27496   6.063   4.079   2.090 -0.2341  0.1538 -0.2855
  945MOL0     C27497   5.958   4.032   2.022 -0.3053 -0.1030  0.2605
  945MOL0     C27498   5.949   3.896   1.998  0.4637  0.4770 -0.0081
  945MOL0     O27499   5.831   3.865   1.935  0.6266  0.3713 -0.0703
  945MOL0     C27500   5.797   3.723   1.914 -0.5632  0.6198  0.7157
  945MOL0     C27501   5.736   3.699   1.774  0.3993 -0.9136 -0.2482
  945MOL0     C27502   5.647   3.815   1.731 -1.0693  0.3604 -0.5971
  945MOL0     C27503   5.577   3.763   1.613 -0.1375  1.4299  0.4262
  945MOL0     C27504   5.466   3.667   1.640 -0.0245 -0.1620 -0.1744
  945MOL0     C27505   5.368   3.598   1.650  0.8220 -0.1930  0.1167
  945MOL0     C27506   6.055   3.815   2.034 -0.4260  0.3738  1.2806
  945MOL0     C27507   6.169   3.864   2.093  1.2356  0.0026  0.3827
  945MOL0     H27508   6.306   4.116   2.493 -0.6387 -0.6891 -1.9370
  945MOL0     H27509   6.471   4.283   2.636 -0.9573 -0.5843  0.8198
  945MOL0     H27510   6.882   4.157   2.580 -0.6819 -0.2632 -1.9903
  945MOL0     H27511   6.901   4.305   2.484 -4.8103  1.0591 -1.6248
  945MOL0     H27512   6.888   4.308   2.785  0.1317  1.0234  1.3303
  945MOL0     H27513   7.042   4.278   2.705 -0.1988 -1.7325 -1.1774
  945MOL0     H27514   7.066   4.504   2.735  1.3343 -1.9677 -1.4761
  945MOL0     H27515   6.998   4.501   2.571 -1.6865  2.2310  0.2602
  945MOL0     H27516   6.786   4.551   2.638  0.9848 -0.4105 -0.8801
  945MOL0     H27517   6.812   4.522   2.810 -0.9041 -1.3018 -0.7576
  945MOL0     H27518   6.922   4.765   2.637 -1.6207 -1.3615 -1.1660
  945MOL0     H27519   6.798   4.781   2.752 -0.6562 -0.9465  1.0304
  945MOL0     H27520   6.945   4.727   2.948  0.3006  2.3403  1.0113
  945MOL0     H27521   7.085   4.719   2.843  0.3781  0.4844  0.4591
  945MOL0     H27522   7.047   4.943   2.748  1.4816  0.9565  0.9550
  945MOL0     H27523   6.900   4.957   2.860 -0.4801 -0.2428  0.4174
  945MOL0     H27524   7.079   5.067   2.967  0.1438  0.5826  1.0104
  945MOL0     H27525   7.177   4.925   2.967  0.5110  1.2024 -2.7580
  945MOL0     H27526   6.830   5.061   3.082 -1.2378 -0.6998  2.0611
  945MOL0     H27527   6.787   4.991   3.444  2.0714 -0.7696 -0.4627
  945MOL0     H27528   6.717   5.080   3.312  0.9241  0.2918  0.9267
  945MOL0     H27529   6.687   4.781   3.353  1.2193  0.4667  0.4491
  945MOL0     H27530   6.614   4.875   3.221  2.3564 -2.1778 -0.7404
  945MOL0     H27531   6.510   5.017   3.426 -0.5325 -0.3838  0.4263
  945MOL0     H27532   6.546   4.867   3.509  0.1162 -0.7155 -0.1274
  945MOL0     H27533   6.324   4.858   3.424 -1.3159  1.2328 -0.7751
  945MOL0     H27534   6.414   4.759   3.313  1.2420  1.4612  0.1885
  945MOL0     H27535   6.327   5.141   3.099 -0.4171 -0.3067 -1.0265
  945MOL0     H27536   6.229   5.359   3.004  1.6625 -1.0350  2.0127
  945MOL0     H27537   6.066   5.397   3.040  0.1860 -1.3517 -0.0785
  945MOL0     H27538   6.181   5.427   3.169 -2.0553 -1.1567  3.1075
  945MOL0     H27539   5.743   5.465   3.519  0.2556 -0.4144 -0.1968
  945MOL0     H27540   5.507   5.518   3.551  1.5981 -0.2941  2.1982
  945MOL0     H27541   5.315   5.606   3.473 -0.6108  2.0404  3.9386
  945MOL0     H27542   5.152   5.546   3.429  1.7933  0.1694 -1.1110
  945MOL0     H27543   5.180   5.372   3.615  1.1793 -0.7011 -0.7085
  945MOL0     H27544   5.338   5.437   3.647 -0.9137  0.3794  2.1134
  945MOL0     H27545   5.094   5.627   3.662  1.4310 -1.7594 -2.9446
  945MOL0     H27546   5.247   5.650   3.734 -2.3620  3.2380  0.0688
  945MOL0     H27547   5.034   5.436   3.807 -1.4014 -0.3785  2.9606
  945MOL0     H27548   5.180   5.465   3.898 -1.0694 -3.3585 -1.2550
  945MOL0     H27549   4.964   5.680   3.836 -1.3544  0.7694  2.4583
  945MOL0     H27550   5.115   5.707   3.923 -2.5946  2.8255  2.7734
  945MOL0     H27551   4.901   5.513   4.011  3.1185 -2.5785 -2.0733
  945MOL0     H27552   5.033   5.574   4.109 -1.4242  2.1672  1.5272
  945MOL0     H27553   4.858   5.788   4.011  0.2096 -0.7689 -1.1928
  945MOL0     H27554   4.954   5.776   4.162  2.8053 -0.3237 -2.2786
  945MOL0     H27555   4.741   5.766   4.228  2.8325  2.5327 -1.6755
  945MOL0     H27556   4.790   5.592   4.238 -2.3548  1.6879  2.9127
  945MOL0     H27557   5.395   5.235   3.247  0.3304  0.9056  0.1476
  945MOL0     H27558   5.642   5.187   3.226 -0.5874 -2.0301  0.4684
  945MOL0     H27559   5.934   5.061   3.393  0.8775 -0.7674  1.4260
  945MOL0     H27560   6.115   4.917   3.403 -0.2802 -1.8936 -1.5191
  945MOL0     H27561   6.775   4.136   2.378  1.5987 -0.0452  2.2222
  945MOL0     H27562   6.608   3.993   2.256  0.7988  2.8094 -0.6059
  945MOL0     H27563   6.050   4.185   2.109 -0.9714  0.8554 -3.8985
  945MOL0     H27564   5.877   4.099   1.995  0.2023  1.3039  1.9959
  945MOL0     H27565   5.884   3.657   1.915 -0.9119  0.1530  0.7088
  945MOL0     H27566   5.736   3.692   2.000  2.2235  0.1188  2.6352
  945MOL0     H27567   5.683   3.604   1.781 -0.5709 -0.3996 -0.4755
  945MOL0     H27568   5.814   3.691   1.698 -1.5442 -1.2794 -2.3169
  945MOL0     H27569   5.703   3.904   1.701 -2.2852  1.1172 -0.7142
  945MOL0     H27570   5.575   3.856   1.803 -0.0033 -0.7536  1.2009
  945MOL0     H27571   5.648   3.702   1.556 -1.0273 -2.6202  3.2129
  945MOL0     H27572   5.537   3.841   1.548 -1.9767 -0.8504 -1.3351
  945MOL0     H27573   5.278   3.541   1.662  1.2727 -1.2858 -1.3280
  945MOL0     H27574   6.059   3.707   2.023 -1.0076  0.5431 -1.0822
  945MOL0     H27575   6.258   3.810   2.123  3.3999  2.7993 -0.6157
  946MOL0     O27576   0.040   2.373  10.970 -0.5577  0.2795  0.7586
  946MOL0     C27577   0.055   2.489  10.958 -0.1839  0.0733 -0.7574
  946MOL0     O27578  -0.044   2.576  10.943 -0.3618  0.4519 -0.2688
  946MOL0     C27579  -0.167   2.535  10.904  1.0085 -0.2098  0.4985
  946MOL0     C27580  -0.248   2.468  10.995 -0.0964 -0.3914 -0.2171
  946MOL0     C27581  -0.379   2.426  10.963 -0.2602 -0.1798  1.0410
  946MOL0     C27582  -0.423   2.431  10.825 -0.3082 -0.3791 -0.5924
  946MOL0     O27583  -0.534   2.370  10.775  0.2328  0.7165  0.2121
  946MOL0     C27584  -0.626   2.330  10.868  0.4867 -0.1147 -0.4394
  946MOL0     C27585  -0.750   2.284  10.782 -0.7611  0.2183 -0.3093
  946MOL0     C27586  -0.717   2.177  10.676 -0.4737 -0.5013  1.0108
  946MOL0     C27587  -0.698   2.031  10.733 -0.8193 -0.3681  0.8799
  946MOL0     C27588  -0.642   1.938  10.621 -1.0881 -0.6157  0.2004
  946MOL0     C27589  -0.621   1.796  10.672 -0.5288 -0.0572  0.7132
  946MOL0     C27590  -0.748   1.700  10.642 -0.1058  0.0262 -0.0700
  946MOL0     C27591  -0.889   1.748  10.678 -0.0179  0.5646 -0.0044
  946MOL0     N27592  -0.987   1.634  10.670 -0.4763  0.1469 -0.4759
  946MOL0     C27593  -1.045   1.596  10.552  0.4922 -0.5804 -0.3357
  946MOL0     C27594  -1.088   1.471  10.565  0.7673 -0.0711 -0.5230
  946MOL0     C27595  -1.150   1.388  10.465  1.4416  0.7771  0.8435
  946MOL0     C27596  -1.300   1.417  10.458  1.1675  0.0963 -0.1587
  946MOL0     C27597  -1.337   1.554  10.399 -1.0480 -0.3503  0.0583
  946MOL0     C27598  -1.480   1.535  10.354  1.2464  0.0962 -0.0368
  946MOL0     O27599  -1.570   1.542  10.465 -0.1660  0.4751 -0.2067
  946MOL0     C27600  -1.709   1.539  10.445 -0.7133  0.4415  0.2818
  946MOL0     C27601  -1.782   1.504  10.548  0.9808  0.5994 -0.1745
  946MOL0     C27602  -1.911   1.465  10.540  1.0446 -0.2308  0.1957
  946MOL0     C27603  -1.979   1.425  10.666 -0.1062  0.3729 -0.2785
  946MOL0     C27604  -1.983   1.481  10.420 -0.5414 -0.6977  0.7240
  946MOL0     C27605  -2.128   1.440  10.398 -0.8480 -0.6529  0.0691
  946MOL0     O27606  -2.189   1.478  10.284 -0.2549 -0.1350 -0.6065
  946MOL0     C27607  -2.310   1.426  10.250  0.4384  0.1380 -0.0211
  946MOL0     C27608  -2.335   1.291  10.233 -0.2383  1.2314 -0.3876
  946MOL0     C27609  -2.455   1.247  10.184  0.1006  1.0356 -0.1565
  946MOL0     C27610  -2.556   1.339  10.157 -0.3352  0.1135  0.0347
  946MOL0     O27611  -2.678   1.296  10.108 -0.1249  0.1302  0.6343
  946MOL0     C27612  -2.691   1.321   9.966  0.5232 -0.1878  0.5263
  946MOL0     C27613  -2.840   1.293   9.929  0.1304 -0.9065 -0.0394
  946MOL0     C27614  -2.939   1.404   9.977 -0.9132 -0.1383 -0.3725
  946MOL0     C27615  -2.950   1.429  10.133  0.4414 -0.4250  0.5955
  946MOL0     C27616  -3.067   1.515  10.174  0.0462  0.0762 -0.4808
  946MOL0     C27617  -3.211   1.472  10.127  0.3823  0.1733  0.2409
  946MOL0     C27618  -3.319   1.560  10.206  1.3693  0.0021  0.8673
  946MOL0     C27619  -3.362   1.500  10.340  0.4432  0.1965 -1.1531
  946MOL0    Cl27620  -3.434   1.331  10.316 -0.0161 -0.2940  0.2936
  946MOL0     C27621  -2.534   1.470  10.168 -0.4555 -0.1706 -0.2905
  946MOL0     C27622  -2.413   1.517  10.224  0.0588  0.4416 -0.1632
  946MOL0     O27623  -2.181   1.365  10.478  0.1956  0.1491 -0.8135
  946MOL0     C27624  -1.915   1.523  10.306  0.2585  0.3436 -0.2519
  946MOL0     C27625  -1.771   1.540  10.315  0.1841 -0.4636 -0.7422
  946MOL0     N27626  -1.061   1.434  10.703  0.5295 -0.0313  0.2457
  946MOL0     N27627  -1.004   1.534  10.760  0.3902 -0.2761  0.7278
  946MOL0     C27628  -0.342   2.499  10.735  0.3579 -0.8956 -0.4894
  946MOL0     C27629  -0.220   2.557  10.768  0.5607  0.4706  0.0632
  946MOL0     C27630   0.194   2.534  10.941  0.0350 -0.8594 -0.2746
  946MOL0     C27631   0.304   2.445  10.944 -0.3103 -0.3710  0.4658
  946MOL0     C27632   0.432   2.508  10.933 -0.5095 -0.1503 -0.1515
  946MOL0     C27633   0.450   2.636  10.888 -0.4391 -0.4948 -0.1671
  946MOL0     O27634   0.577   2.673  10.857 -0.4553 -0.0254 -0.3744
  946MOL0     C27635   0.616   2.806  10.826  0.1981  0.5276  0.5739
  946MOL0     C27636   0.765   2.818  10.849  0.3049  1.1506 -0.5505
  946MOL0     C27637   0.793   2.801  11.008 -0.0228  0.8694  0.4250
  946MOL0     C27638   0.946   2.791  11.028 -0.5539  0.3159  0.0814
  946MOL0     C27639   1.024   2.911  10.998  0.7109 -0.0722  0.3560
  946MOL0     C27640   1.083   3.008  10.957 -0.0905  0.3878 -0.4433
  946MOL0     C27641   0.346   2.716  10.876 -1.2280 -0.0317  0.5136
  946MOL0     C27642   0.223   2.667  10.903  0.6612  0.0830 -0.6453
  946MOL0     H27643  -0.203   2.454  11.093  1.3291  1.5360 -0.5381
  946MOL0     H27644  -0.447   2.389  11.038  0.1544 -1.2446  0.9058
  946MOL0     H27645  -0.588   2.250  10.931  2.4392  2.5742  2.0521
  946MOL0     H27646  -0.648   2.408  10.942  0.0104  1.4188 -2.1133
  946MOL0     H27647  -0.843   2.264  10.835 -1.9660  1.0114 -2.0486
  946MOL0     H27648  -0.781   2.372  10.725 -0.8659  0.7261  0.5101
  946MOL0     H27649  -0.788   2.190  10.595  0.3496 -0.5923  0.2546
  946MOL0     H27650  -0.625   2.207  10.624 -1.2655 -0.0800 -0.1711
  946MOL0     H27651  -0.622   2.030  10.812 -0.4757 -0.2647  0.5530
  946MOL0     H27652  -0.798   2.000  10.764  0.1225 -1.3611  3.1026
  946MOL0     H27653  -0.699   1.938  10.527  1.6618 -2.2073 -1.6161
  946MOL0     H27654  -0.547   1.987  10.595 -1.1144  0.6050  2.1966
  946MOL0     H27655  -0.531   1.764  10.620 -0.0515  1.1088  0.8125
  946MOL0     H27656  -0.606   1.805  10.780 -1.4337  2.3159  0.6881
  946MOL0     H27657  -0.747   1.673  10.536 -0.2284 -2.9816  0.6165
  946MOL0     H27658  -0.729   1.610  10.700  2.4367  1.4919  1.5705
  946MOL0     H27659  -0.913   1.838  10.620 -2.6779 -0.2183 -0.2133
  946MOL0     H27660  -0.884   1.785  10.781 -0.2279 -0.6193  0.4380
  946MOL0     H27661  -1.049   1.657  10.462 -2.3780 -0.7273 -0.4270
  946MOL0     H27662  -1.108   1.410  10.366 -2.4595  0.4830 -1.0741
  946MOL0     H27663  -1.135   1.282  10.485 -1.6574  0.1332  0.2327
  946MOL0     H27664  -1.329   1.410  10.564  4.0174 -0.2600  0.6628
  946MOL0     H27665  -1.348   1.336  10.401 -2.7045  2.0213 -0.0142
  946MOL0     H27666  -1.278   1.593  10.315 -1.0920 -0.3376  0.0327
  946MOL0     H27667  -1.327   1.630  10.477  3.4060 -1.0257  0.3652
  946MOL0     H27668  -1.493   1.442  10.299 -0.4800  0.2267  0.0864
  946MOL0     H27669  -1.499   1.611  10.278  0.6966 -2.8619 -3.0471
  946MOL0     H27670  -1.737   1.468  10.640  1.8560  0.8660 -0.4872
  946MOL0     H27671  -1.997   1.318  10.677  0.7402 -0.0909 -2.6316
  946MOL0     H27672  -1.906   1.448  10.745 -0.1164 -0.4195 -0.0383
  946MOL0     H27673  -2.068   1.482  10.693 -0.1175  0.1789  0.0933
  946MOL0     H27674  -2.245   1.234  10.249 -1.6624 -1.5815 -1.7339
  946MOL0     H27675  -2.457   1.139  10.174 -0.1639  0.6579  3.1171
  946MOL0     H27676  -2.679   1.427   9.940  2.0839 -0.2150  1.0230
  946MOL0     H27677  -2.627   1.258   9.904 -1.5430  0.8716 -2.9181
  946MOL0     H27678  -2.850   1.295   9.820  1.4535  0.9460 -0.1597
  946MOL0     H27679  -2.873   1.200   9.976  0.2920 -0.5741  0.7452
  946MOL0     H27680  -3.029   1.372   9.924 -1.0812  1.4915 -1.1160
  946MOL0     H27681  -2.913   1.496   9.924 -0.7950 -1.2880 -2.4184
  946MOL0     H27682  -2.977   1.330  10.173  0.1207 -0.4788  0.2512
  946MOL0     H27683  -2.851   1.467  10.158  0.7455 -0.2056 -0.8596
  946MOL0     H27684  -3.050   1.611  10.122 -1.4953  0.1090 -0.9908
  946MOL0     H27685  -3.067   1.531  10.282  0.1291  1.4982 -0.6609
  946MOL0     H27686  -3.224   1.471  10.018 -1.7434 -2.0694  0.4201
  946MOL0     H27687  -3.222   1.371  10.167 -1.0113  0.8428  1.6580
  946MOL0     H27688  -3.411   1.574  10.148  1.9569 -0.2316 -0.1498
  946MOL0     H27689  -3.275   1.659  10.222 -2.0226  1.8635 -0.4021
  946MOL0     H27690  -3.422   1.572  10.395  3.2207  2.7528 -1.2267
  946MOL0     H27691  -3.271   1.498  10.401 -1.3577  0.0724  1.6856
  946MOL0     H27692  -2.628   1.518  10.142 -2.0588 -2.9999 -0.1369
  946MOL0     H27693  -2.409   1.624  10.246 -0.9591  0.7126 -1.1404
  946MOL0     H27694  -1.965   1.516  10.210 -0.4113 -2.1215  0.2179
  946MOL0     H27695  -1.716   1.555  10.223 -1.1503 -2.3002 -1.9074
  946MOL0     H27696  -0.380   2.497  10.633 -0.3497 -1.6545 -0.2258
  946MOL0     H27697  -0.165   2.615  10.694  0.9386  1.0382  0.7727
  946MOL0     H27698   0.272   2.344  10.966 -3.9246  0.2315 -1.2601
  946MOL0     H27699   0.522   2.448  10.937 -0.7176 -0.4877 -0.4070
  946MOL0     H27700   0.602   2.827  10.719 -0.5541  1.3058  0.8178
  946MOL0     H27701   0.553   2.871  10.887  0.0421  1.0007 -0.0741
  946MOL0     H27702   0.807   2.915  10.825 -1.8332  1.7481 -2.1816
  946MOL0     H27703   0.821   2.739  10.797  0.3903  0.6905  0.2174
  946MOL0     H27704   0.749   2.707  11.041  0.9748 -0.6227 -2.1921
  946MOL0     H27705   0.749   2.884  11.064 -2.2991  0.3335 -0.4750
  946MOL0     H27706   0.994   2.716  10.964  0.7204 -0.2691  1.6457
  946MOL0     H27707   0.956   2.756  11.131  0.3648 -0.7323 -0.3418
  946MOL0     H27708   1.140   3.089  10.917  0.9536 -0.8928 -1.6288
  946MOL0     H27709   0.345   2.820  10.846  1.4855  0.0057  0.2273
  946MOL0     H27710   0.138   2.734  10.895  1.3449  1.0144 -0.2148
  947MOL0     O27711   5.650   1.388   4.773 -0.1282 -0.6749  0.1603
  947MOL0     C27712   5.634   1.485   4.690  0.2503 -0.3934  0.7341
  947MOL0     O27713   5.709   1.503   4.575 -0.5247  0.0022 -0.2018
  947MOL0     C27714   5.808   1.406   4.544  0.5314 -0.1034 -0.6600
  947MOL0     C27715   5.943   1.443   4.515 -0.7965 -0.2267  0.4937
  947MOL0     C27716   6.040   1.349   4.481 -0.2724  0.4806 -0.9868
  947MOL0     C27717   6.000   1.214   4.478  0.3090  0.3601 -0.1676
  947MOL0     O27718   6.108   1.123   4.434 -0.0076 -0.0768  0.1030
  947MOL0     C27719   6.070   0.983   4.410 -0.4403 -0.1004 -1.3842
  947MOL0     C27720   6.194   0.907   4.353 -0.2577 -0.5288  0.1936
  947MOL0     C27721   6.216   0.934   4.202  1.1243  0.1004 -0.0006
  947MOL0     C27722   6.335   0.846   4.155  0.4532 -0.8667 -0.2164
  947MOL0     C27723   6.346   0.850   4.008 -0.0745  0.4294  0.2804
  947MOL0     C27724   6.439   0.730   3.970  0.3103 -0.6238  0.6728
  947MOL0     C27725   6.421   0.699   3.821 -0.5348  0.4742 -0.4860
  947MOL0     C27726   6.510   0.585   3.793 -0.6571  0.2690  0.5695
  947MOL0     N27727   6.531   0.562   3.652  0.9957  0.2595  0.0535
  947MOL0     C27728   6.549   0.433   3.602 -0.1004  0.2244 -0.1220
  947MOL0     C27729   6.570   0.449   3.469 -0.4611  0.9302 -0.7052
  947MOL0     C27730   6.601   0.331   3.366 -0.3718 -0.9423  0.0126
  947MOL0     C27731   6.756   0.313   3.332  0.2351  0.2457 -0.0505
  947MOL0     C27732   6.839   0.436   3.309 -0.2641  0.0227 -0.5785
  947MOL0     C27733   6.988   0.401   3.301 -0.4337  0.5858 -0.8250
  947MOL0     O27734   7.026   0.348   3.432  0.2983  0.3759  0.2568
  947MOL0     C27735   7.151   0.299   3.454  0.1185 -0.7638  0.6562
  947MOL0     C27736   7.264   0.312   3.375 -0.1214 -1.0726  0.8170
  947MOL0     C27737   7.386   0.273   3.423  0.2089  0.2465 -0.9242
  947MOL0     C27738   7.505   0.313   3.349  1.1049 -0.0853 -0.3025
  947MOL0     C27739   7.391   0.195   3.544  0.2991 -0.0177 -0.4172
  947MOL0     C27740   7.523   0.134   3.586 -1.1069 -0.2589  0.0257
  947MOL0     O27741   7.614   0.085   3.492  0.0277  0.4116 -0.3368
  947MOL0     C27742   7.747   0.048   3.519  1.0704 -0.0489  0.2406
  947MOL0     C27743   7.765  -0.095   3.531  0.6121  0.5172  0.2491
  947MOL0     C27744   7.887  -0.153   3.539  0.2421 -0.1803 -0.5664
  947MOL0     C27745   8.003  -0.071   3.547 -1.0166 -0.7745 -0.0422
  947MOL0     O27746   8.134  -0.111   3.575  0.2714  0.1654  0.5349
  947MOL0     C27747   8.161  -0.250   3.596 -0.5546  0.1471 -0.4296
  947MOL0     C27748   8.298  -0.266   3.670  0.1796  0.4663 -0.7051
  947MOL0     C27749   8.339  -0.417   3.673 -0.6328  0.6707  0.6616
  947MOL0     C27750   8.464  -0.466   3.753 -0.1822 -0.2586  0.5864
  947MOL0     C27751   8.505  -0.615   3.719  1.0233 -0.9686  0.9532
  947MOL0     C27752   8.566  -0.683   3.831  0.3373  1.4633 -0.7413
  947MOL0     C27753   8.680  -0.784   3.788 -0.3072  0.2530 -0.5176
  947MOL0     C27754   8.749  -0.845   3.912 -0.1275  0.0280  1.2323
  947MOL0    Cl27755   8.622  -0.897   4.026  0.2457  0.2965 -0.2965
  947MOL0     C27756   7.983   0.073   3.542  0.6317  0.0094  0.3544
  947MOL0     C27757   7.858   0.134   3.520  1.0027  0.3884  0.0188
  947MOL0     O27758   7.542   0.137   3.706 -0.4999  0.7070 -0.2510
  947MOL0     C27759   7.279   0.178   3.626 -0.3490  0.2272 -0.9960
  947MOL0     C27760   7.157   0.235   3.573 -0.2389 -0.4416 -0.9436
  947MOL0     N27761   6.566   0.591   3.441 -0.8326  0.1991  0.2464
  947MOL0     N27762   6.547   0.657   3.553  0.0869  0.3525  0.3278
  947MOL0     C27763   5.870   1.180   4.510  0.5166  0.0315  0.7557
  947MOL0     C27764   5.770   1.275   4.533 -0.5669  0.1445 -0.4824
  947MOL0     C27765   5.530   1.583   4.724 -0.4441 -0.1635  0.8216
  947MOL0     C27766   5.514   1.709   4.661  0.0549 -0.2468  0.8613
  947MOL0     C27767   5.416   1.798   4.708  0.3325 -0.0459 -0.2803
  947MOL0     C27768   5.350   1.776   4.830  0.1217 -0.4729 -0.0182
  947MOL0     O27769   5.259   1.870   4.880 -0.4208 -0.6289 -0.0513
  947MOL0     C27770   5.178   1.831   4.993 -0.1204  0.0036  0.4182
  947MOL0     C27771   5.069   1.937   4.989  0.6099  0.5133  0.2906
  947MOL0     C27772   4.988   1.927   4.853 -0.5253 -0.3016 -0.5276
  947MOL0     C27773   4.852   1.972   4.867 -0.2869  0.3729  0.1173
  947MOL0     C27774   4.781   1.987   4.737  1.0013  0.5019  0.8001
  947MOL0     C27775   4.704   1.988   4.642  0.7075 -0.5261 -0.8188
  947MOL0     C27776   5.379   1.659   4.895  0.5511 -0.0233 -0.0554
  947MOL0     C27777   5.453   1.553   4.840 -0.1884 -0.1758 -0.1061
  947MOL0     H27778   5.978   1.546   4.512 -0.8433 -0.2196 -2.3431
  947MOL0     H27779   6.146   1.367   4.465  0.1184 -1.1908 -0.5067
  947MOL0     H27780   6.030   0.927   4.495  1.2591  0.6299 -0.0582
  947MOL0     H27781   5.997   0.982   4.328 -0.2041  3.3098 -1.7839
  947MOL0     H27782   6.283   0.938   4.409 -0.3933 -0.7514  0.5272
  947MOL0     H27783   6.172   0.801   4.364 -1.1661 -0.7851 -3.0657
  947MOL0     H27784   6.124   0.913   4.147  0.9257 -1.9900  1.0527
  947MOL0     H27785   6.239   1.040   4.185 -1.8061  0.5248 -2.0079
  947MOL0     H27786   6.425   0.882   4.206 -0.7499  0.3646  1.1205
  947MOL0     H27787   6.316   0.745   4.194 -0.5017 -0.3490  0.6849
  947MOL0     H27788   6.248   0.839   3.962  0.6710 -0.2302 -1.2177
  947MOL0     H27789   6.399   0.942   3.981  3.6558 -0.7023  2.9142
  947MOL0     H27790   6.542   0.753   4.000  0.8700 -1.9770 -0.1283
  947MOL0     H27791   6.417   0.639   4.027  0.6252 -1.6441 -0.7655
  947MOL0     H27792   6.320   0.663   3.800  0.3365 -1.2407 -1.9094
  947MOL0     H27793   6.441   0.783   3.754  0.9742  0.1834 -0.4216
  947MOL0     H27794   6.465   0.492   3.828  1.5427 -1.4757 -0.9885
  947MOL0     H27795   6.605   0.598   3.846 -1.7937  0.9095  2.5540
  947MOL0     H27796   6.536   0.338   3.652  0.5470  1.6466  3.0571
  947MOL0     H27797   6.555   0.235   3.391 -1.3941 -0.4512  0.0816
  947MOL0     H27798   6.552   0.358   3.272  0.6806 -0.4646 -0.4111
  947MOL0     H27799   6.764   0.248   3.244 -0.3140  0.7321 -0.4712
  947MOL0     H27800   6.798   0.263   3.420 -1.8256 -0.7182  0.4387
  947MOL0     H27801   6.829   0.507   3.392  1.9342  0.9333 -1.0263
  947MOL0     H27802   6.797   0.485   3.220  3.4163  0.6123 -2.1965
  947MOL0     H27803   7.040   0.495   3.279  0.8313 -0.1505 -1.1180
  947MOL0     H27804   6.995   0.321   3.227  1.0767  0.6173 -0.7581
  947MOL0     H27805   7.258   0.372   3.285 -0.1225 -0.3556  1.2853
  947MOL0     H27806   7.557   0.235   3.292 -0.0011 -1.2231  0.1817
  947MOL0     H27807   7.487   0.400   3.286  0.2532  1.6581  2.2252
  947MOL0     H27808   7.582   0.349   3.418  1.0724 -0.4838 -0.0490
  947MOL0     H27809   7.681  -0.163   3.519  0.6240  0.1749  1.9162
  947MOL0     H27810   7.897  -0.261   3.539  1.8040 -0.0513 -1.1765
  947MOL0     H27811   8.078  -0.286   3.658 -0.6771 -3.8592 -2.5346
  947MOL0     H27812   8.148  -0.310   3.505  1.1885 -2.0053  0.6393
  947MOL0     H27813   8.375  -0.220   3.608 -0.5634  1.8012 -0.6805
  947MOL0     H27814   8.280  -0.209   3.761 -1.0123 -0.3783 -0.3912
  947MOL0     H27815   8.371  -0.443   3.571  0.7661  1.8967  0.7654
  947MOL0     H27816   8.256  -0.469   3.722  1.3204 -1.1779  2.2065
  947MOL0     H27817   8.549  -0.403   3.726 -1.9653  2.8901  1.7044
  947MOL0     H27818   8.445  -0.463   3.861  2.3267  0.9159  1.0766
  947MOL0     H27819   8.568  -0.617   3.630  1.8183 -0.8474  1.5006
  947MOL0     H27820   8.409  -0.660   3.693  1.7176 -3.1600  1.9123
  947MOL0     H27821   8.609  -0.608   3.899  0.8995  2.2038 -1.8779
  947MOL0     H27822   8.485  -0.731   3.886  1.2664 -1.3958 -1.7012
  947MOL0     H27823   8.756  -0.731   3.729  0.3430  0.5879  0.5830
  947MOL0     H27824   8.640  -0.872   3.737 -1.3351  0.9788 -1.0014
  947MOL0     H27825   8.808  -0.770   3.965 -2.3011  1.5394  1.6603
  947MOL0     H27826   8.811  -0.930   3.884 -0.8368 -0.3925  0.9060
  947MOL0     H27827   8.065   0.144   3.531 -1.5722  2.5241 -0.9240
  947MOL0     H27828   7.863   0.239   3.494  4.1090 -0.1775 -2.2790
  947MOL0     H27829   7.303   0.132   3.721  2.8703  0.8974 -1.3617
  947MOL0     H27830   7.067   0.236   3.634 -0.2570 -1.4861 -0.9390
  947MOL0     H27831   5.846   1.075   4.495 -0.3461  0.3793 -0.4250
  947MOL0     H27832   5.671   1.243   4.564  0.4334 -5.5534 -1.9060
  947MOL0     H27833   5.576   1.736   4.576  1.0519 -0.7193  1.4160
  947MOL0     H27834   5.383   1.879   4.644 -0.1752  1.6522  2.0106
  947MOL0     H27835   5.124   1.737   4.977  2.6178 -1.6378  0.0707
  947MOL0     H27836   5.235   1.830   5.087 -0.6282  1.6788  0.7660
  947MOL0     H27837   5.122   2.032   4.995  1.9619 -0.2121  0.2511
  947MOL0     H27838   5.011   1.913   5.079 -2.6162  2.6158 -1.0385
  947MOL0     H27839   4.983   1.823   4.820 -0.8234  0.2721 -2.3940
  947MOL0     H27840   5.045   1.977   4.775  1.7564 -1.1459  0.5129
  947MOL0     H27841   4.845   2.073   4.909  0.6899 -1.1820  4.5626
  947MOL0     H27842   4.799   1.909   4.939 -1.3804  2.3594  1.1571
  947MOL0     H27843   4.638   1.993   4.557  0.2622  4.0996 -0.4311
  947MOL0     H27844   5.344   1.646   4.997 -0.0051  3.7896  0.3661
  947MOL0     H27845   5.477   1.465   4.899  3.9437  0.0460 -1.1178
  948MOL0     O27846   5.399   1.234   3.089  0.4710  0.2774 -0.2386
  948MOL0     C27847   5.506   1.171   3.123 -0.5073 -0.5111 -0.0404
  948MOL0     O27848   5.504   1.080   3.226 -0.4274 -0.5777  0.3242
  948MOL0     C27849   5.397   1.055   3.305  0.0838 -0.2539  0.3657
  948MOL0     C27850   5.419   1.015   3.440 -0.6906  0.1737 -0.1512
  948MOL0     C27851   5.311   0.994   3.529  0.9290 -0.0357  0.4807
  948MOL0     C27852   5.177   0.991   3.474  0.2174 -0.3743 -0.6312
  948MOL0     O27853   5.071   0.959   3.554 -0.1932  0.9643 -0.2015
  948MOL0     C27854   4.992   1.065   3.578  0.0412 -0.0577 -0.0356
  948MOL0     C27855   4.873   1.030   3.657 -0.2799  1.0637  0.3805
  948MOL0     C27856   4.788   0.917   3.579  0.4093  0.8752  0.2361
  948MOL0     C27857   4.640   0.896   3.637 -0.2594  0.2747  0.2923
  948MOL0     C27858   4.559   1.019   3.587  0.2199 -0.3384  0.2675
  948MOL0     C27859   4.429   1.012   3.652 -0.5328 -0.6335  0.8133
  948MOL0     C27860   4.335   1.132   3.601  0.8052 -0.1469 -0.1423
  948MOL0     C27861   4.188   1.132   3.666  0.5375 -0.0827 -0.4703
  948MOL0     N27862   4.129   1.265   3.653  0.2274 -0.6806  0.6672
  948MOL0     C27863   4.110   1.314   3.530  0.0205  0.4655 -0.3228
  948MOL0     C27864   4.072   1.443   3.552  1.0325  0.0643  0.3398
  948MOL0     C27865   4.068   1.552   3.442 -0.3064  0.1156  0.1036
  948MOL0     C27866   4.196   1.574   3.354 -0.2416  1.7387  0.1493
  948MOL0     C27867   4.210   1.711   3.282  0.2242 -0.7800  1.0944
  948MOL0     C27868   4.112   1.750   3.162 -0.3551 -0.0046  0.9744
  948MOL0     O27869   3.973   1.775   3.188 -0.6456 -0.3738  0.0785
  948MOL0     C27870   3.899   1.762   3.078 -0.5125  1.0293  0.4337
  948MOL0     C27871   3.799   1.667   3.079 -1.1109 -0.0138 -0.2245
  948MOL0     C27872   3.694   1.664   2.980 -0.2584 -0.2896  1.0034
  948MOL0     C27873   3.567   1.589   3.010  0.4449 -0.5698 -0.4298
  948MOL0     C27874   3.699   1.763   2.871  0.4587  0.3651 -0.7129
  948MOL0     C27875   3.599   1.773   2.756 -0.1402  0.2957 -0.1301
  948MOL0     O27876   3.633   1.845   2.648 -0.2342  0.3260 -0.6395
  948MOL0     C27877   3.539   1.844   2.548  0.6233 -0.2220  0.3272
  948MOL0     C27878   3.512   1.731   2.465  0.2538 -0.1226 -1.3622
  948MOL0     C27879   3.432   1.751   2.359 -0.2343 -0.8608  1.1484
  948MOL0     C27880   3.361   1.871   2.328  0.3603  0.5321  0.6083
  948MOL0     O27881   3.285   1.887   2.212 -0.4289  0.8332 -1.1516
  948MOL0     C27882   3.316   1.805   2.093  0.0307 -0.4854 -1.1051
  948MOL0     C27883   3.244   1.856   1.976  0.5255 -0.1759 -0.2971
  948MOL0     C27884   3.104   1.810   1.980 -0.2090 -0.2830 -0.5014
  948MOL0     C27885   3.017   1.886   1.882 -0.4128 -0.3837  0.1085
  948MOL0     C27886   2.877   1.904   1.939 -1.0213 -0.4083 -0.2166
  948MOL0     C27887   2.802   2.005   1.852  0.0020  0.4815  0.2552
  948MOL0     C27888   2.652   1.995   1.848  0.2040  0.2997 -0.7100
  948MOL0     C27889   2.570   2.094   1.774  0.9695 -0.1644  0.1802
  948MOL0    Cl27890   2.598   2.244   1.868 -0.3972 -0.0478  0.0726
  948MOL0     C27891   3.378   1.974   2.419 -1.0324 -0.1513 -0.5341
  948MOL0     C27892   3.468   1.960   2.523  0.5749 -0.0275  0.1766
  948MOL0     O27893   3.484   1.732   2.777 -0.0255 -0.5992 -0.0688
  948MOL0     C27894   3.798   1.857   2.871 -0.4033 -0.4180 -1.6981
  948MOL0     C27895   3.894   1.857   2.977  0.4318  0.2838  0.0980
  948MOL0     N27896   4.053   1.456   3.690 -0.0546  0.0443  0.1089
  948MOL0     N27897   4.096   1.351   3.750 -0.3842 -1.3030  0.2883
  948MOL0     C27898   5.157   1.018   3.336  1.7235  0.7401 -0.3587
  948MOL0     C27899   5.262   1.051   3.256 -0.4632 -0.1794  0.2044
  948MOL0     C27900   5.635   1.201   3.069  0.1153 -0.3161 -0.7239
  948MOL0     C27901   5.641   1.285   2.958  0.5609  0.1016  0.3512
  948MOL0     C27902   5.748   1.314   2.888 -0.9171  0.6214  0.5330
  948MOL0     C27903   5.870   1.242   2.925 -0.0051  0.1552 -0.0571
  948MOL0     O27904   5.981   1.269   2.843 -0.8205  0.0288 -0.3771
  948MOL0     C27905   6.084   1.341   2.918 -0.1744 -0.1771  0.0654
  948MOL0     C27906   6.197   1.247   2.965 -0.5117  0.2758 -0.6636
  948MOL0     C27907   6.297   1.319   3.060 -0.0759 -0.6723 -0.2379
  948MOL0     C27908   6.424   1.231   3.082  0.1704 -0.7624  0.6069
  948MOL0     C27909   6.522   1.301   3.173 -0.2343  0.2588 -0.2638
  948MOL0     C27910   6.603   1.340   3.253 -0.1089 -0.1257 -1.2505
  948MOL0     C27911   5.870   1.170   3.046 -0.6821  1.0371  0.0123
  948MOL0     C27912   5.751   1.144   3.119 -0.0219 -0.7728 -0.5990
  948MOL0     H27913   5.513   0.977   3.480 -0.2750  1.6654  0.3701
  948MOL0     H27914   5.334   0.977   3.634 -1.6527 -1.8574  0.8698
  948MOL0     H27915   5.052   1.141   3.629 -0.8569  1.6722 -1.4331
  948MOL0     H27916   4.957   1.104   3.482 -2.9332  1.6656  1.6037
  948MOL0     H27917   4.905   0.981   3.750 -0.5252  0.2301  0.0317
  948MOL0     H27918   4.809   1.118   3.672 -3.6537 -1.3633  1.5924
  948MOL0     H27919   4.798   0.923   3.470 -0.7320  1.2906  0.1375
  948MOL0     H27920   4.833   0.820   3.601 -1.1830  0.6151  2.7633
  948MOL0     H27921   4.591   0.800   3.619 -1.3287  0.8439  0.1169
  948MOL0     H27922   4.652   0.900   3.746  3.3506 -1.5972  0.1270
  948MOL0     H27923   4.610   1.114   3.604 -2.3447  0.7895  2.6272
  948MOL0     H27924   4.556   0.999   3.480 -0.2315  0.5963  0.0936
  948MOL0     H27925   4.375   0.920   3.629 -2.4994  0.9555 -1.4637
  948MOL0     H27926   4.431   1.025   3.761 -2.8070  2.0908  0.6664
  948MOL0     H27927   4.384   1.227   3.625  0.1187  0.5767 -1.4892
  948MOL0     H27928   4.323   1.123   3.493  0.8914 -5.2817  0.0257
  948MOL0     H27929   4.201   1.108   3.772  2.4515  1.2705 -0.3404
  948MOL0     H27930   4.126   1.053   3.622 -2.4474 -0.1280  3.3121
  948MOL0     H27931   4.134   1.262   3.438  2.6175 -1.4254  1.2776
  948MOL0     H27932   3.979   1.544   3.379 -0.3289 -0.1132  0.1632
  948MOL0     H27933   4.056   1.645   3.498 -0.1927  1.0980 -1.4542
  948MOL0     H27934   4.212   1.486   3.292 -0.7025  1.1865  0.7967
  948MOL0     H27935   4.275   1.572   3.431  0.3114 -2.0564 -0.3215
  948MOL0     H27936   4.314   1.699   3.250  0.1945 -3.7350  1.8144
  948MOL0     H27937   4.223   1.797   3.349 -0.3948  0.6967 -0.6112
  948MOL0     H27938   4.121   1.674   3.084 -0.8292  1.9464 -1.1099
  948MOL0     H27939   4.149   1.841   3.113 -1.4690 -0.5057 -0.9165
  948MOL0     H27940   3.795   1.596   3.162  0.8845 -2.0232 -1.7279
  948MOL0     H27941   3.530   1.527   2.928  1.5843  1.9925 -3.0604
  948MOL0     H27942   3.580   1.531   3.102 -0.5834  0.8748  0.6795
  948MOL0     H27943   3.493   1.665   3.037  2.1591  0.2964  2.2436
  948MOL0     H27944   3.554   1.632   2.455 -1.5475 -0.7763 -3.0352
  948MOL0     H27945   3.432   1.670   2.286  1.6398 -2.6738  3.0300
  948MOL0     H27946   3.423   1.824   2.082 -0.3477  3.6082  0.5360
  948MOL0     H27947   3.293   1.702   2.121 -0.8645  0.6833  3.2249
  948MOL0     H27948   3.263   1.964   1.979  1.8497 -0.4181  1.3597
  948MOL0     H27949   3.284   1.818   1.882  0.8009 -1.0688  0.1641
  948MOL0     H27950   3.062   1.815   2.081 -1.3690  0.6189 -1.0013
  948MOL0     H27951   3.097   1.703   1.956  1.1815 -0.9972  1.9488
  948MOL0     H27952   3.058   1.986   1.867  2.7626 -1.5480  0.3220
  948MOL0     H27953   3.006   1.823   1.793  1.0372  0.7879 -0.9441
  948MOL0     H27954   2.876   1.952   2.037 -0.6151 -1.2921  0.2331
  948MOL0     H27955   2.817   1.812   1.943 -3.3362  1.0681  0.7746
  948MOL0     H27956   2.834   2.103   1.887  3.6818 -0.5249  0.1178
  948MOL0     H27957   2.837   1.982   1.750  0.6270  0.4482  0.4727
  948MOL0     H27958   2.615   2.003   1.950  1.4691  1.6896 -0.3343
  948MOL0     H27959   2.623   1.897   1.807 -0.6772 -0.7751  2.2472
  948MOL0     H27960   2.464   2.068   1.776  1.1854 -2.0545 -3.5381
  948MOL0     H27961   2.592   2.091   1.667 -5.1508  1.9911 -1.5550
  948MOL0     H27962   3.323   2.067   2.407  0.8165  1.0481 -0.1495
  948MOL0     H27963   3.473   2.045   2.591 -3.3334 -0.6899  1.5837
  948MOL0     H27964   3.807   1.946   2.809  3.2488  1.0036  0.5559
  948MOL0     H27965   3.974   1.930   2.970  0.0312  0.7379  0.1707
  948MOL0     H27966   5.054   0.999   3.307  1.2575  1.0512  1.0315
  948MOL0     H27967   5.252   1.053   3.148 -1.2794 -1.2934  0.2430
  948MOL0     H27968   5.543   1.322   2.931  0.7400  0.3343  0.0226
  948MOL0     H27969   5.754   1.383   2.805 -1.0705 -2.1244 -1.9320
  948MOL0     H27970   6.128   1.416   2.852  0.6723  2.6519  3.5258
  948MOL0     H27971   6.043   1.392   3.006  0.3335  1.8812 -0.8389
  948MOL0     H27972   6.254   1.238   2.872  0.1660 -0.3129 -0.2071
  948MOL0     H27973   6.157   1.157   3.012 -0.7325  1.0121  0.6010
  948MOL0     H27974   6.254   1.337   3.159  1.5480 -0.3031  0.4368
  948MOL0     H27975   6.314   1.422   3.030 -1.7032 -0.1002  0.7136
  948MOL0     H27976   6.480   1.203   2.992  0.7895 -0.6875  0.9633
  948MOL0     H27977   6.400   1.132   3.121  0.1519 -0.7611  0.5992
  948MOL0     H27978   6.675   1.385   3.318  0.0078 -0.4711 -1.1401
  948MOL0     H27979   5.962   1.129   3.085 -1.4474 -2.8660 -1.8629
  948MOL0     H27980   5.749   1.082   3.208 -2.7396 -0.2724 -0.2051
  949MOL0     O27981   7.120   3.366   1.875 -0.3241 -0.9172  0.6699
  949MOL0     C27982   7.110   3.480   1.917  0.2117  0.4892  0.0343
  949MOL0     O27983   6.986   3.538   1.949  0.5950  0.5935 -0.3071
  949MOL0     C27984   6.875   3.463   1.923  0.7122  0.3979 -0.4697
  949MOL0     C27985   6.825   3.434   1.797  0.3890 -0.1329  0.3740
  949MOL0     C27986   6.694   3.379   1.786  0.3412 -0.0769 -0.0928
  949MOL0     C27987   6.621   3.335   1.887 -0.0904  0.0972 -0.4162
  949MOL0     O27988   6.504   3.260   1.882  0.3673  0.0926  0.7272
  949MOL0     C27989   6.404   3.282   1.778 -0.6539  0.3930  0.2365
  949MOL0     C27990   6.341   3.421   1.793  0.2974 -0.4450 -0.4159
  949MOL0     C27991   6.203   3.448   1.731  0.5716 -0.8471  0.2431
  949MOL0     C27992   6.092   3.360   1.785  0.3192  0.3986  0.2889
  949MOL0     C27993   5.968   3.372   1.695 -0.0496  0.3733 -0.1628
  949MOL0     C27994   5.836   3.344   1.777  0.3083  0.1807  0.3954
  949MOL0     C27995   5.708   3.364   1.696 -0.2892 -0.6453 -0.3816
  949MOL0     C27996   5.682   3.247   1.600 -1.0153  0.3060  0.5653
  949MOL0     N27997   5.542   3.211   1.585 -0.6978 -0.1213 -0.3470
  949MOL0     C27998   5.476   3.206   1.474  0.0544  0.9528  1.5433
  949MOL0     C27999   5.372   3.119   1.501  0.0594 -0.0804 -0.0205
  949MOL0     C28000   5.272   3.079   1.397 -0.1158 -0.2240 -0.0512
  949MOL0     C28001   5.158   3.182   1.369  0.4411 -0.7753 -0.2009
  949MOL0     C28002   5.093   3.263   1.480 -0.4832  0.1957 -0.1402
  949MOL0     C28003   5.020   3.189   1.590  0.7368 -0.2849 -0.9370
  949MOL0     O28004   4.909   3.122   1.522  0.8000  0.1615 -0.5640
  949MOL0     C28005   4.899   2.982   1.517  0.2431 -0.1955  0.1506
  949MOL0     C28006   4.964   2.892   1.597  0.5995  0.7317 -0.2752
  949MOL0     C28007   4.948   2.752   1.584  0.2991  0.8674  0.9902
  949MOL0     C28008   5.033   2.659   1.666 -0.8762 -0.1585  0.5638
  949MOL0     C28009   4.847   2.706   1.486 -1.0688 -0.0672 -0.2572
  949MOL0     C28010   4.809   2.563   1.463  0.3116  0.2283 -0.7627
  949MOL0     O28011   4.703   2.544   1.388 -0.4020 -0.6590 -0.0696
  949MOL0     C28012   4.652   2.420   1.384 -0.3260 -0.2045 -0.6364
  949MOL0     C28013   4.565   2.392   1.491 -0.8019  0.0531 -0.8084
  949MOL0     C28014   4.495   2.268   1.497 -0.4932 -0.0588  0.0053
  949MOL0     C28015   4.522   2.170   1.403  0.1904  0.8619 -0.1853
  949MOL0     O28016   4.462   2.045   1.413 -0.1403 -0.0666 -0.0901
  949MOL0     C28017   4.384   2.016   1.304 -0.2346  0.3446 -0.3848
  949MOL0     C28018   4.270   1.934   1.349  0.5761  0.1334  0.2769
  949MOL0     C28019   4.306   1.785   1.358  0.5325  0.0880  0.2299
  949MOL0     C28020   4.202   1.696   1.425  0.3581 -0.1498  0.1012
  949MOL0     C28021   4.241   1.545   1.439 -0.0293  0.1435 -0.1831
  949MOL0     C28022   4.366   1.527   1.524  0.5155  0.1809 -0.2334
  949MOL0     C28023   4.396   1.387   1.577  0.4021 -0.0610  0.6282
  949MOL0     C28024   4.532   1.388   1.652 -0.8225 -0.5646 -0.5155
  949MOL0    Cl28025   4.575   1.227   1.707  0.0123 -0.2074 -0.3364
  949MOL0     C28026   4.596   2.203   1.293 -0.4224  0.2183 -0.2958
  949MOL0     C28027   4.662   2.325   1.281 -0.0797 -0.0577 -0.2119
  949MOL0     O28028   4.868   2.477   1.526  0.2790  0.0500  0.1722
  949MOL0     C28029   4.782   2.799   1.408  0.6352 -0.8146 -0.1864
  949MOL0     C28030   4.809   2.933   1.424  0.6160 -0.3088 -0.1252
  949MOL0     N28031   5.377   3.082   1.638 -0.7031  0.1702  0.4096
  949MOL0     N28032   5.483   3.130   1.682 -0.6111  0.0227  0.2615
  949MOL0     C28033   6.677   3.350   2.012 -0.3814 -1.0953 -1.4594
  949MOL0     C28034   6.795   3.425   2.028 -0.0330 -0.5973 -1.0463
  949MOL0     C28035   7.239   3.551   1.930 -0.1511 -0.3076  0.3781
  949MOL0     C28036   7.368   3.485   1.910  0.1228 -0.2881 -0.0892
  949MOL0     C28037   7.479   3.568   1.908  0.1391 -0.0262  0.7634
  949MOL0     C28038   7.481   3.706   1.927 -1.2502 -0.8501 -0.2988
  949MOL0     O28039   7.595   3.775   1.938  0.2517 -0.1086 -0.0701
  949MOL0     C28040   7.723   3.711   1.921 -1.2173 -0.3428  0.1851
  949MOL0     C28041   7.833   3.812   1.965  0.0450 -0.0837  0.2946
  949MOL0     C28042   7.874   3.908   1.850  0.2971  1.5293  0.7303
  949MOL0     C28043   7.989   4.001   1.871 -0.2741  0.1240  0.3750
  949MOL0     C28044   8.038   4.080   1.756  0.5983 -0.0503 -0.5162
  949MOL0     C28045   8.069   4.161   1.671  0.1451  0.0930 -0.0069
  949MOL0     C28046   7.361   3.758   1.957 -0.3714  0.0087 -0.0065
  949MOL0     C28047   7.244   3.687   1.970 -0.6457  0.5213 -0.6501
  949MOL0     H28048   6.887   3.452   1.710 -1.6856  0.5648 -1.0217
  949MOL0     H28049   6.642   3.358   1.693 -3.2634  0.5415  1.6013
  949MOL0     H28050   6.444   3.267   1.678 -1.5200  0.4014 -0.1221
  949MOL0     H28051   6.332   3.202   1.797  0.5485 -0.5258  1.1339
  949MOL0     H28052   6.338   3.431   1.902  1.0024  0.8183 -0.5017
  949MOL0     H28053   6.408   3.498   1.754  2.6692 -0.4659  3.2011
  949MOL0     H28054   6.176   3.551   1.756 -1.0727 -0.9634 -0.9150
  949MOL0     H28055   6.215   3.434   1.624 -0.5212  2.5475 -0.4564
  949MOL0     H28056   6.120   3.255   1.790  2.6710  1.0338  3.2067
  949MOL0     H28057   6.072   3.397   1.886 -1.4218  2.2549 -0.6487
  949MOL0     H28058   5.955   3.472   1.652 -1.7652 -0.0957 -0.7733
  949MOL0     H28059   5.989   3.302   1.615  1.8406  0.2692  0.3701
  949MOL0     H28060   5.849   3.248   1.829  0.5844  0.0230  0.0379
  949MOL0     H28061   5.836   3.424   1.852 -2.5044  0.2638  0.4148
  949MOL0     H28062   5.624   3.368   1.766  0.0971 -0.2533  0.0713
  949MOL0     H28063   5.716   3.452   1.632  0.4853  1.1958  2.0754
  949MOL0     H28064   5.730   3.162   1.650 -0.7502  1.2436  1.9587
  949MOL0     H28065   5.725   3.274   1.503 -1.8857 -0.4455 -0.0414
  949MOL0     H28066   5.511   3.251   1.382 -2.3362  3.8277  1.8725
  949MOL0     H28067   5.331   3.073   1.305  0.6616 -3.0540  0.5137
  949MOL0     H28068   5.239   2.977   1.422 -0.7574 -0.9321 -3.2436
  949MOL0     H28069   5.072   3.133   1.323 -1.9834  4.8246 -2.5583
  949MOL0     H28070   5.189   3.260   1.299 -1.0840  0.6383  0.6376
  949MOL0     H28071   5.026   3.333   1.429 -0.0283  1.3478  0.7903
  949MOL0     H28072   5.168   3.321   1.534  0.1575  0.5086 -1.3374
  949MOL0     H28073   4.970   3.243   1.672  3.3001 -0.6096  0.9598
  949MOL0     H28074   5.092   3.126   1.643 -1.7074  0.0562  3.2524
  949MOL0     H28075   5.035   2.929   1.671 -0.3937 -1.6917  2.0582
  949MOL0     H28076   5.114   2.621   1.604  0.9973  1.7625  1.6830
  949MOL0     H28077   5.088   2.712   1.744  0.0980 -2.7654  1.7463
  949MOL0     H28078   4.973   2.586   1.721  0.5718  0.0881  2.5967
  949MOL0     H28079   4.559   2.475   1.562 -0.2292  1.6676 -2.5498
  949MOL0     H28080   4.426   2.254   1.581  0.4276 -2.4502  0.4286
  949MOL0     H28081   4.348   2.113   1.268  0.9599  0.3658 -1.6105
  949MOL0     H28082   4.452   1.970   1.232 -1.1981  1.2855 -1.9443
  949MOL0     H28083   4.223   1.964   1.443 -1.7761 -0.9671 -0.4641
  949MOL0     H28084   4.195   1.945   1.269  1.7384 -1.7983 -1.1581
  949MOL0     H28085   4.398   1.781   1.417  0.2286  1.6198  0.8554
  949MOL0     H28086   4.326   1.749   1.256  1.8492  2.9897 -0.6665
  949MOL0     H28087   4.183   1.746   1.520  0.4727  4.4158 -2.0009
  949MOL0     H28088   4.103   1.696   1.377  0.8345  1.7505 -0.9597
  949MOL0     H28089   4.258   1.498   1.341  1.8730  0.6155 -0.1254
  949MOL0     H28090   4.162   1.488   1.488  0.9970  1.0321  2.7093
  949MOL0     H28091   4.445   1.555   1.454 -0.8589  1.1591 -1.4470
  949MOL0     H28092   4.352   1.594   1.609 -2.3213 -0.7548  0.1717
  949MOL0     H28093   4.387   1.319   1.492 -0.0542  2.1326 -1.2025
  949MOL0     H28094   4.317   1.362   1.649 -1.7767  1.5927 -1.0098
  949MOL0     H28095   4.519   1.463   1.731 -1.0549 -0.6885 -0.4341
  949MOL0     H28096   4.617   1.422   1.592  1.6759 -1.6668  2.1895
  949MOL0     H28097   4.623   2.129   1.219  2.6619 -2.5350  3.1776
  949MOL0     H28098   4.721   2.331   1.190  0.7923  0.1647  0.3448
  949MOL0     H28099   4.717   2.772   1.325  0.3527 -1.5751  0.2695
  949MOL0     H28100   4.773   3.013   1.359  1.1061  1.8537  2.0892
  949MOL0     H28101   6.637   3.314   2.106  1.3463  2.0465  0.6219
  949MOL0     H28102   6.813   3.439   2.133 -0.1523 -2.4336 -0.7403
  949MOL0     H28103   7.374   3.378   1.895  0.8955 -0.3119  0.3467
  949MOL0     H28104   7.575   3.519   1.893 -0.8853 -1.6434 -0.9587
  949MOL0     H28105   7.724   3.632   1.997  0.0018  1.2214  1.9127
  949MOL0     H28106   7.745   3.674   1.820 -1.2268  2.9661 -1.1482
  949MOL0     H28107   7.911   3.760   2.021  2.7430 -0.2099 -3.2378
  949MOL0     H28108   7.784   3.885   2.030  0.7234  0.0255  0.6938
  949MOL0     H28109   7.787   3.952   1.801  1.4354  0.2096 -2.7594
  949MOL0     H28110   7.912   3.848   1.766 -4.9074  2.5509 -2.7883
  949MOL0     H28111   8.076   3.945   1.908  1.9797  2.3720 -1.1538
  949MOL0     H28112   7.962   4.071   1.950 -1.6997 -1.5180  1.3961
  949MOL0     H28113   8.083   4.231   1.591  0.5189  1.0396  0.8599
  949MOL0     H28114   7.361   3.864   1.979 -0.6111  0.1079 -0.4626
  949MOL0     H28115   7.159   3.753   1.983 -1.8409 -1.0250 -0.2500
  950MOL0     O28116   7.558  11.008   0.786 -0.4279  0.5705  0.2194
  950MOL0     C28117   7.522  11.076   0.685 -0.1474  0.2065  0.2088
  950MOL0     O28118   7.401  11.136   0.675  0.4691  0.0288 -0.0125
  950MOL0     C28119   7.304  11.125   0.773  0.1073 -0.4287 -0.2751
  950MOL0     C28120   7.264  11.242   0.836 -1.5882  0.3521  0.7958
  950MOL0     C28121   7.176  11.241   0.938  0.7105 -0.2682 -0.2249
  950MOL0     C28122   7.135  11.119   0.994 -0.7446  0.6436  0.1247
  950MOL0     O28123   7.060  11.114   1.105 -0.3761 -0.2272 -0.4200
  950MOL0     C28124   7.083  11.207   1.207 -0.7630  0.1064  0.2517
  950MOL0     C28125   7.043  11.134   1.328  0.1699 -0.1321  0.3534
  950MOL0     C28126   6.890  11.112   1.343  0.7088  0.7172  0.8472
  950MOL0     C28127   6.852  11.064   1.478 -0.0312  0.4123 -0.3577
  950MOL0     C28128   6.702  11.028   1.487 -1.2371 -0.4733 -0.4860
  950MOL0     C28129   6.658  10.982   1.628 -0.7434  0.1956  0.4613
  950MOL0     C28130   6.676  11.097   1.726 -0.0825 -0.4419 -0.1590
  950MOL0     C28131   6.599  11.056   1.851 -0.2919 -0.3005 -0.2111
  950MOL0     N28132   6.551  11.162   1.945 -0.3761  0.1690  0.4286
  950MOL0     C28133   6.626  11.268   1.977 -0.7060 -0.0382  0.6496
  950MOL0     C28134   6.538  11.340   2.041 -0.2538 -0.0676 -0.4660
  950MOL0     C28135   6.564  11.482   2.094 -0.3859 -0.4165  0.2611
  950MOL0     C28136   6.458  11.582   2.053 -0.1120 -0.6411  0.3605
  950MOL0     C28137   6.507  11.726   2.080 -0.4123 -0.1014 -0.3465
  950MOL0     C28138   6.410  11.823   2.016 -0.7775 -0.9444 -0.1069
  950MOL0     O28139   6.309  11.838   2.107  0.6174 -0.4296  0.3949
  950MOL0     C28140   6.218  11.936   2.079  0.0084 -0.3675 -0.1279
  950MOL0     C28141   6.189  12.007   1.956  0.2191 -1.2518 -0.5521
  950MOL0     C28142   6.066  12.090   1.956 -1.2215 -1.2869  0.3812
  950MOL0     C28143   6.061  12.196   1.845 -0.6034  0.4655 -0.4649
  950MOL0     C28144   5.970  12.078   2.056  0.3431 -0.1262  0.8432
  950MOL0     C28145   5.839  12.144   2.055  0.9313 -0.6775  0.2654
  950MOL0     O28146   5.765  12.146   2.172 -0.4183  0.2923 -0.0195
  950MOL0     C28147   5.642  12.207   2.175 -0.5236  0.4577 -0.1701
  950MOL0     C28148   5.615  12.307   2.270  0.3073 -0.5399  0.1610
  950MOL0     C28149   5.476  12.350   2.285 -0.3087 -0.4690 -0.9981
  950MOL0     C28150   5.370  12.283   2.226  0.4811 -0.0682 -0.0656
  950MOL0     O28151   5.236  12.318   2.236 -0.2510 -0.0224 -0.0460
  950MOL0     C28152   5.194  12.403   2.336 -0.6071 -0.5145 -0.0322
  950MOL0     C28153   5.182  12.332   2.475 -0.1364  0.2048 -0.0853
  950MOL0     C28154   5.107  12.416   2.582  0.2894  0.3991  0.1200
  950MOL0     C28155   5.130  12.346   2.719 -0.1315 -0.2583 -0.5067
  950MOL0     C28156   5.062  12.430   2.833  0.1375 -0.4818 -0.5926
  950MOL0     C28157   5.125  12.574   2.865  1.0757 -0.2012  0.6682
  950MOL0     C28158   5.040  12.652   2.971  0.5351  0.8413  0.4366
  950MOL0     C28159   4.914  12.712   2.917 -0.9021 -0.7179  0.5751
  950MOL0    Cl28160   4.957  12.856   2.826  0.0889 -0.3647 -0.2228
  950MOL0     C28161   5.404  12.196   2.127  0.3968 -0.9715  0.5589
  950MOL0     C28162   5.531  12.160   2.101 -0.1205  0.4150  0.1084
  950MOL0     O28163   5.797  12.190   1.949 -0.3951  0.2757 -0.3325
  950MOL0     C28164   5.995  12.002   2.167  0.4835 -0.3684 -0.8750
  950MOL0     C28165   6.118  11.942   2.178 -0.0964 -0.5364 -0.2317
  950MOL0     N28166   6.414  11.287   2.031  0.7680  0.0343  0.2358
  950MOL0     N28167   6.419  11.175   1.978  0.2883  0.0260  0.2873
  950MOL0     C28168   7.166  11.003   0.932 -0.4665  0.1325  0.7779
  950MOL0     C28169   7.253  11.001   0.815  0.2486 -0.3367 -0.8589
  950MOL0     C28170   7.623  11.095   0.578 -0.3420 -0.0975  0.1581
  950MOL0     C28171   7.758  11.039   0.584 -0.2368 -0.0804 -0.0137
  950MOL0     C28172   7.853  11.078   0.486 -0.0444  0.3115  0.8757
  950MOL0     C28173   7.820  11.160   0.378  0.5290 -0.1484 -0.4969
  950MOL0     O28174   7.911  11.185   0.282  0.0372 -0.2116 -0.4975
  950MOL0     C28175   8.051  11.221   0.312  0.2027 -0.5384 -1.0248
  950MOL0     C28176   8.140  11.095   0.279  0.4316  0.6639 -0.8230
  950MOL0     C28177   8.278  11.087   0.350 -1.0098 -0.3117  0.4353
  950MOL0     C28178   8.374  11.025   0.257 -0.6362 -0.2699  0.2939
  950MOL0     C28179   8.517  11.037   0.303  0.7861 -0.3891 -0.9388
  950MOL0     C28180   8.631  11.045   0.337 -0.2777  0.3175 -0.9110
  950MOL0     C28181   7.695  11.206   0.368 -0.7027  0.4876 -0.3203
  950MOL0     C28182   7.599  11.178   0.464 -0.2727 -0.0657 -0.1082
  950MOL0     H28183   7.301  11.335   0.796 -2.0653 -0.3146 -1.3256
  950MOL0     H28184   7.156  11.341   0.974  1.1587 -0.3488  0.2701
  950MOL0     H28185   7.188  11.236   1.218 -0.4097 -1.0034  0.0083
  950MOL0     H28186   7.018  11.294   1.199 -1.4980 -0.6064 -2.2073
  950MOL0     H28187   7.099  11.041   1.338  0.2732 -0.4219 -2.1950
  950MOL0     H28188   7.068  11.189   1.419 -1.6957  1.2535  0.1023
  950MOL0     H28189   6.841  11.208   1.325 -0.3337  0.1587  0.6655
  950MOL0     H28190   6.854  11.047   1.263  1.6430 -0.2067  1.1509
  950MOL0     H28191   6.914  10.976   1.501  0.7866  1.0222 -0.1797
  950MOL0     H28192   6.890  11.138   1.549  2.5044  2.2954 -3.4479
  950MOL0     H28193   6.632  11.106   1.458 -1.0969 -1.0029 -2.4270
  950MOL0     H28194   6.698  10.943   1.418  2.4027  0.9907 -2.7868
  950MOL0     H28195   6.555  10.953   1.611 -1.4007  2.8873 -0.7593
  950MOL0     H28196   6.713  10.895   1.664 -0.6050 -0.1497 -0.5607
  950MOL0     H28197   6.778  11.127   1.751 -0.8899  0.2390  2.7059
  950MOL0     H28198   6.607  11.175   1.693 -0.1896  0.3082  1.6754
  950MOL0     H28199   6.660  10.991   1.914 -0.2137 -1.7749 -1.7523
  950MOL0     H28200   6.524  10.980   1.828  1.7429 -2.7206  0.7430
  950MOL0     H28201   6.725  11.297   1.943 -0.8853 -2.2288 -2.1653
  950MOL0     H28202   6.562  11.477   2.203  0.1235  1.4415  0.4039
  950MOL0     H28203   6.662  11.510   2.052 -0.3163  1.1830  1.3849
  950MOL0     H28204   6.365  11.557   2.103  0.0998  2.5126  2.5972
  950MOL0     H28205   6.435  11.560   1.948  3.9614 -2.5326 -0.3641
  950MOL0     H28206   6.609  11.730   2.042 -0.2317 -1.9144 -0.1662
  950MOL0     H28207   6.518  11.745   2.188 -0.4144 -0.4801 -0.2781
  950MOL0     H28208   6.371  11.797   1.917 -0.1614 -1.3076 -0.2555
  950MOL0     H28209   6.456  11.920   1.997 -4.1417  0.5318 -1.5887
  950MOL0     H28210   6.258  12.014   1.872 -0.8943  0.1088 -1.3899
  950MOL0     H28211   6.006  12.286   1.873 -0.1471  0.3038  1.0760
  950MOL0     H28212   6.165  12.225   1.826  0.2242 -2.1579 -0.4118
  950MOL0     H28213   6.016  12.152   1.756  0.4894 -0.5931 -0.5251
  950MOL0     H28214   5.703  12.342   2.322  1.2739 -1.5210 -0.7737
  950MOL0     H28215   5.458  12.426   2.361  0.5366 -3.4071  2.3707
  950MOL0     H28216   5.264  12.486   2.346  0.4210 -1.5056  1.3969
  950MOL0     H28217   5.095  12.437   2.303  0.3355  1.7161 -0.7429
  950MOL0     H28218   5.124  12.242   2.453 -0.9773  0.0728  2.4028
  950MOL0     H28219   5.283  12.301   2.505  0.7336  1.2425 -1.7649
  950MOL0     H28220   5.000  12.410   2.556  0.3521  1.0247 -0.3055
  950MOL0     H28221   5.130  12.522   2.596 -0.1434  0.4397  0.5351
  950MOL0     H28222   5.103  12.241   2.714  1.2214 -0.6460 -0.1701
  950MOL0     H28223   5.237  12.343   2.743  0.2545  3.0061 -1.2754
  950MOL0     H28224   5.090  12.375   2.923  1.4741 -0.2595 -0.8569
  950MOL0     H28225   4.953  12.440   2.825  0.3882  2.9383 -1.3720
  950MOL0     H28226   5.227  12.568   2.902  0.2709 -1.3139  2.9141
  950MOL0     H28227   5.121  12.625   2.768 -0.7871  0.4903  1.0673
  950MOL0     H28228   5.088  12.740   3.016 -2.5646  1.9824  1.7873
  950MOL0     H28229   5.026  12.596   3.064  0.2773  0.1164 -0.0301
  950MOL0     H28230   4.852  12.755   2.997 -0.8368  2.1473 -0.8091
  950MOL0     H28231   4.879  12.633   2.850  1.5213 -0.0739 -1.5881
  950MOL0     H28232   5.334  12.155   2.055  0.3109 -1.2439  0.7969
  950MOL0     H28233   5.540  12.088   2.020 -2.1651  0.5591 -0.2951
  950MOL0     H28234   5.927  11.986   2.250 -1.0721 -0.4715 -2.1289
  950MOL0     H28235   6.129  11.883   2.268  1.9789  0.6268  0.3444
  950MOL0     H28236   7.128  10.911   0.973  1.9756 -1.5102 -0.3964
  950MOL0     H28237   7.286  10.908   0.770 -0.8125 -1.9370  1.4660
  950MOL0     H28238   7.792  10.979   0.668 -1.0485 -0.7446 -0.1411
  950MOL0     H28239   7.954  11.039   0.491 -0.8891 -1.9276  2.6164
  950MOL0     H28240   8.075  11.312   0.256 -1.3216 -1.0878 -2.6820
  950MOL0     H28241   8.072  11.235   0.418  1.7852 -0.1698 -1.3668
  950MOL0     H28242   8.151  11.081   0.172  0.5172  0.3724 -0.7759
  950MOL0     H28243   8.083  11.004   0.300  0.9717  0.6491  0.7077
  950MOL0     H28244   8.290  11.038   0.447  0.1972 -0.7083  0.1046
  950MOL0     H28245   8.308  11.191   0.363  0.0655 -0.6274  0.6246
  950MOL0     H28246   8.356  11.075   0.161 -4.7545  2.3845  2.1308
  950MOL0     H28247   8.363  10.917   0.247  0.5265 -0.3364 -0.4443
  950MOL0     H28248   8.734  11.059   0.363 -0.6016  1.0984 -0.0003
  950MOL0     H28249   7.672  11.281   0.293 -1.5007  3.3557  2.5837
  950MOL0     H28250   7.502  11.226   0.460  0.4464  1.3445 -2.5191
  951MOL0     O28251   1.047   3.842   6.519 -1.0630 -0.0254  0.1012
  951MOL0     C28252   1.155   3.780   6.544 -0.5384  0.0749 -0.4585
  951MOL0     O28253   1.172   3.642   6.548 -0.1542 -0.1069  0.4319
  951MOL0     C28254   1.067   3.557   6.530  0.0595  0.2900 -0.1715
  951MOL0     C28255   1.091   3.428   6.471 -0.3352  0.5663 -0.7534
  951MOL0     C28256   0.983   3.337   6.448  0.3785 -0.0650 -0.5667
  951MOL0     C28257   0.849   3.365   6.495  0.5509 -0.1209 -0.1399
  951MOL0     O28258   0.743   3.280   6.477  0.9007  0.5688 -0.2393
  951MOL0     C28259   0.703   3.206   6.593  0.7812 -0.6210  0.2430
  951MOL0     C28260   0.580   3.128   6.546 -0.0855  0.0922  0.4315
  951MOL0     C28261   0.547   3.016   6.640  0.2217 -0.1951  0.1926
  951MOL0     C28262   0.463   3.048   6.763  0.4657 -0.9106  0.4625
  951MOL0     C28263   0.325   3.094   6.713  0.8233 -0.8085  0.3263
  951MOL0     C28264   0.219   3.110   6.823 -0.7183  0.5595 -0.1747
  951MOL0     C28265   0.089   3.148   6.759 -0.4845  0.6785  0.0743
  951MOL0     C28266  -0.010   3.189   6.862 -0.4154  0.5203 -0.2012
  951MOL0     N28267  -0.141   3.169   6.805 -0.1036 -0.3431 -1.0730
  951MOL0     C28268  -0.208   3.276   6.746  0.6285  0.3544  0.1937
  951MOL0     C28269  -0.325   3.216   6.699  0.0771  0.6186 -0.8597
  951MOL0     C28270  -0.437   3.275   6.626 -0.0210  0.0821  1.1600
  951MOL0     C28271  -0.480   3.401   6.687  0.1333  0.0835 -0.5473
  951MOL0     C28272  -0.614   3.459   6.626  0.2526  0.5022 -1.5328
  951MOL0     C28273  -0.727   3.382   6.558 -0.0971 -0.3092  0.3274
  951MOL0     O28274  -0.788   3.292   6.654 -0.6427  0.9292 -0.4812
  951MOL0     C28275  -0.918   3.243   6.638 -0.0173 -0.2485  0.0609
  951MOL0     C28276  -0.990   3.194   6.739 -0.4438 -0.3162 -0.4736
  951MOL0     C28277  -1.122   3.144   6.712  1.9172  0.3578  0.4897
  951MOL0     C28278  -1.214   3.132   6.832 -0.5767  1.2530 -0.0575
  951MOL0     C28279  -1.167   3.137   6.574  0.5715  0.0162  0.2611
  951MOL0     C28280  -1.307   3.094   6.532 -0.0108 -0.4395 -0.3481
  951MOL0     O28281  -1.345   3.129   6.404  0.5133  0.6038  0.3931
  951MOL0     C28282  -1.474   3.145   6.368 -0.7898  0.7434 -0.1530
  951MOL0     C28283  -1.577   3.174   6.459  0.0477 -0.4035  0.4007
  951MOL0     C28284  -1.704   3.193   6.417  0.5477 -0.4584  0.2040
  951MOL0     C28285  -1.739   3.183   6.283 -0.5747 -0.2459 -0.3846
  951MOL0     O28286  -1.867   3.207   6.234 -0.3963  0.2571 -0.1895
  951MOL0     C28287  -1.980   3.152   6.313 -0.1255  0.5075 -0.0966
  951MOL0     C28288  -2.067   3.054   6.240  0.1289 -0.2033 -0.1860
  951MOL0     C28289  -1.982   2.929   6.198 -0.7834 -0.4717 -0.3994
  951MOL0     C28290  -2.067   2.825   6.133  1.0503 -0.1470  0.0714
  951MOL0     C28291  -2.042   2.681   6.180 -0.6494  0.2065  1.1040
  951MOL0     C28292  -2.106   2.648   6.318  0.3939 -0.7756 -0.1448
  951MOL0     C28293  -2.059   2.510   6.369 -0.6445  0.4113 -0.3862
  951MOL0     C28294  -2.115   2.474   6.510  0.5139 -0.6006 -0.2309
  951MOL0    Cl28295  -2.063   2.302   6.558 -0.3396  0.1686 -0.0878
  951MOL0     C28296  -1.640   3.176   6.187  0.4732 -0.3738 -1.2152
  951MOL0     C28297  -1.507   3.152   6.228 -0.0059 -0.2072 -0.1954
  951MOL0     O28298  -1.370   3.031   6.610  0.0775  0.4257  0.6635
  951MOL0     C28299  -1.082   3.177   6.471 -0.0745  0.0771 -0.2416
  951MOL0     C28300  -0.951   3.229   6.501  1.2733  0.3143  0.0312
  951MOL0     N28301  -0.324   3.079   6.730  0.0188  0.4406  0.4025
  951MOL0     N28302  -0.214   3.055   6.800 -0.0987  0.0522  0.2585
  951MOL0     C28303   0.835   3.487   6.571  0.5108 -0.0254  0.0615
  951MOL0     C28304   0.939   3.581   6.584  0.5677  0.4973 -0.4208
  951MOL0     C28305   1.279   3.847   6.588 -0.2496 -0.7329  0.3978
  951MOL0     C28306   1.264   3.971   6.655  0.1812 -0.3217  0.5070
  951MOL0     C28307   1.376   4.040   6.693 -0.0383 -0.2045  0.2638
  951MOL0     C28308   1.503   3.988   6.661 -0.0693  0.5513  0.6448
  951MOL0     O28309   1.600   4.077   6.698 -0.6309 -0.6661  0.5281
  951MOL0     C28310   1.747   4.059   6.689  0.6478  0.8289  0.1213
  951MOL0     C28311   1.808   3.975   6.810 -0.9816 -0.3763 -0.3784
  951MOL0     C28312   1.772   4.024   6.955 -0.3820 -0.5908 -0.6358
  951MOL0     C28313   1.763   4.181   6.968 -0.4836 -0.3879  0.8169
  951MOL0     C28314   1.902   4.236   6.957 -0.4864  0.7461  0.2030
  951MOL0     C28315   2.014   4.278   6.948  0.8837  0.5663  0.3432
  951MOL0     C28316   1.524   3.872   6.587  0.4315 -0.2246  1.3644
  951MOL0     C28317   1.410   3.803   6.543  0.6340 -0.1007 -0.8506
  951MOL0     H28318   1.195   3.403   6.449  1.0713  4.4696  0.5312
  951MOL0     H28319   1.022   3.242   6.413 -1.2031 -0.4367 -1.4038
  951MOL0     H28320   0.788   3.142   6.615  1.1814 -0.2100 -0.0811
  951MOL0     H28321   0.676   3.257   6.685 -0.7658 -1.4784  0.3094
  951MOL0     H28322   0.495   3.195   6.528 -1.0889 -1.8969 -3.1007
  951MOL0     H28323   0.603   3.079   6.451 -0.3915 -3.2318  1.9263
  951MOL0     H28324   0.514   2.924   6.590  0.3222 -0.1443  0.0309
  951MOL0     H28325   0.646   2.990   6.679  1.5764 -0.1388 -2.8716
  951MOL0     H28326   0.460   2.946   6.803  0.4510 -1.9007 -1.9094
  951MOL0     H28327   0.515   3.115   6.831  2.0632 -1.8091  0.1935
  951MOL0     H28328   0.331   3.188   6.658  0.1950 -0.4773  0.8042
  951MOL0     H28329   0.288   3.017   6.645 -1.1848  1.1066 -0.8839
  951MOL0     H28330   0.211   3.012   6.872 -2.6116 -0.3817 -2.1722
  951MOL0     H28331   0.251   3.184   6.896 -1.8853  1.5542 -0.6359
  951MOL0     H28332   0.106   3.238   6.699  0.6218  0.9745  0.7896
  951MOL0     H28333   0.061   3.059   6.702 -0.3070 -0.2902  1.4691
  951MOL0     H28334   0.002   3.291   6.899 -1.1274 -0.4829  3.1685
  951MOL0     H28335   0.004   3.126   6.950  1.7824  2.8116  1.2249
  951MOL0     H28336  -0.173   3.377   6.726 -1.1421  1.0512  0.4221
  951MOL0     H28337  -0.407   3.285   6.521  1.8732 -3.0764  1.2671
  951MOL0     H28338  -0.523   3.208   6.622  0.2243 -0.3680  2.7541
  951MOL0     H28339  -0.407   3.482   6.689  1.4796 -1.1007  0.5745
  951MOL0     H28340  -0.504   3.375   6.791  2.0591 -1.4916 -0.4259
  951MOL0     H28341  -0.581   3.547   6.571  0.4697  1.6111  0.2823
  951MOL0     H28342  -0.647   3.509   6.717  2.8396 -1.3607  0.5860
  951MOL0     H28343  -0.689   3.327   6.471  1.3538  1.9579 -0.5587
  951MOL0     H28344  -0.804   3.452   6.524  2.6506  2.9616  0.3253
  951MOL0     H28345  -0.956   3.194   6.841  1.2382 -2.2944 -0.9735
  951MOL0     H28346  -1.175   3.188   6.918  2.5758  1.8051 -1.6788
  951MOL0     H28347  -1.318   3.157   6.810 -0.7153  1.9118  1.2536
  951MOL0     H28348  -1.203   3.027   6.862  0.9894  0.8418 -1.8900
  951MOL0     H28349  -1.547   3.196   6.560  2.4077  1.4420 -0.6089
  951MOL0     H28350  -1.777   3.226   6.491 -0.0102 -1.4328  0.1046
  951MOL0     H28351  -1.940   3.111   6.406  2.4635  2.8907 -0.0393
  951MOL0     H28352  -2.048   3.228   6.354 -1.1987 -1.4870  2.0874
  951MOL0     H28353  -2.148   3.021   6.306 -0.5050  2.0627  0.2404
  951MOL0     H28354  -2.106   3.092   6.145  0.7606 -1.0094 -0.7829
  951MOL0     H28355  -1.950   2.898   6.298 -1.1202  0.6305  0.0614
  951MOL0     H28356  -1.897   2.956   6.135  2.3169 -0.3437  3.4504
  951MOL0     H28357  -2.175   2.841   6.138  0.6869 -2.1668 -0.6512
  951MOL0     H28358  -2.052   2.819   6.025  2.5495 -0.9287  0.3073
  951MOL0     H28359  -1.935   2.664   6.194 -0.6426 -1.2162 -0.4896
  951MOL0     H28360  -2.076   2.605   6.110  0.1416  0.5871  0.2851
  951MOL0     H28361  -2.090   2.729   6.390 -1.8110  1.2254 -1.7730
  951MOL0     H28362  -2.215   2.652   6.309  0.5351 -0.1901 -1.7897
  951MOL0     H28363  -1.951   2.496   6.381 -0.7543 -0.6891 -0.5181
  951MOL0     H28364  -2.105   2.438   6.301 -1.0755  0.4222 -0.1131
  951MOL0     H28365  -2.224   2.472   6.510  0.4094  1.9767 -0.6324
  951MOL0     H28366  -2.079   2.548   6.582 -3.3147 -0.2192  1.5223
  951MOL0     H28367  -1.653   3.166   6.079 -1.3208  0.2327 -1.0872
  951MOL0     H28368  -1.425   3.136   6.158  1.1037  2.0891  0.4843
  951MOL0     H28369  -1.105   3.167   6.366  3.5463 -2.4365 -1.0061
  951MOL0     H28370  -0.899   3.247   6.407 -0.5565  1.5632 -0.7862
  951MOL0     H28371   0.739   3.501   6.619  0.6067  2.2178 -0.3303
  951MOL0     H28372   0.916   3.673   6.636 -0.6984 -0.6745  1.2184
  951MOL0     H28373   1.168   4.008   6.690 -0.6915 -1.7091 -0.3553
  951MOL0     H28374   1.381   4.133   6.747 -0.6397 -0.2860  0.4618
  951MOL0     H28375   1.772   4.010   6.595 -0.8671  1.5316 -0.6809
  951MOL0     H28376   1.789   4.160   6.685  2.5912  0.1250  1.2542
  951MOL0     H28377   1.915   3.996   6.803 -1.1766  0.3547 -1.4797
  951MOL0     H28378   1.786   3.869   6.795  0.5564 -0.5507 -1.6171
  951MOL0     H28379   1.857   3.997   7.019  0.9213  0.2398 -1.9433
  951MOL0     H28380   1.674   3.982   6.979 -0.4974  2.1267  5.5458
  951MOL0     H28381   1.724   4.207   7.067  1.5488  2.0548  1.0699
  951MOL0     H28382   1.693   4.221   6.894  0.1588 -0.2971  0.2535
  951MOL0     H28383   2.108   4.325   6.929  1.0753  0.0567  0.0120
  951MOL0     H28384   1.623   3.846   6.551 -0.2724 -0.3313 -0.6481
  951MOL0     H28385   1.420   3.711   6.487  2.1327  0.7634 -2.1036
  952MOL0     O28386   6.358   8.772   1.480 -0.6505  0.1201  0.4884
  952MOL0     C28387   6.300   8.666   1.446 -0.8218 -0.9409 -0.5157
  952MOL0     O28388   6.198   8.603   1.508 -1.2579 -0.0247 -0.4631
  952MOL0     C28389   6.157   8.618   1.637 -0.0603  0.0500 -1.2694
  952MOL0     C28390   6.217   8.694   1.738  0.2946  0.0576  0.1355
  952MOL0     C28391   6.158   8.719   1.860  0.0702 -1.0583  0.7736
  952MOL0     C28392   6.028   8.686   1.879  0.3525 -0.2024 -0.1979
  952MOL0     O28393   5.974   8.719   2.000  0.6834  0.3444  0.2445
  952MOL0     C28394   5.843   8.776   1.990 -0.5580 -0.2614 -0.3697
  952MOL0     C28395   5.814   8.859   2.115 -0.0680  0.7999  0.3739
  952MOL0     C28396   5.672   8.902   2.112 -0.0628  0.4306  0.2538
  952MOL0     C28397   5.640   8.944   2.260 -0.0620  0.6848  1.3281
  952MOL0     C28398   5.498   9.001   2.265 -0.0089  0.7785  0.2404
  952MOL0     C28399   5.388   8.901   2.254 -0.7311 -0.1115  0.2497
  952MOL0     C28400   5.246   8.969   2.256 -0.5375 -0.4063 -0.4670
  952MOL0     C28401   5.220   9.020   2.402 -0.4447  0.0637 -0.3934
  952MOL0     N28402   5.106   9.104   2.420 -1.4362  0.7286  0.5730
  952MOL0     C28403   5.001   9.085   2.500  0.4185 -0.1912 -0.2697
  952MOL0     C28404   4.904   9.169   2.448  0.8195 -0.2879  0.5544
  952MOL0     C28405   4.757   9.146   2.486  0.1070  0.2290  0.7559
  952MOL0     C28406   4.694   9.265   2.553  0.6007  0.2251 -0.1083
  952MOL0     C28407   4.723   9.285   2.698  0.1108 -0.5395  0.6688
  952MOL0     C28408   4.632   9.392   2.773  0.7845 -0.0800 -0.0247
  952MOL0     O28409   4.694   9.433   2.896  0.4672 -0.1832 -0.0072
  952MOL0     C28410   4.631   9.531   2.977 -0.8949  0.6994  0.4388
  952MOL0     C28411   4.520   9.612   2.951 -0.0247  0.8040 -0.5974
  952MOL0     C28412   4.474   9.707   3.040  0.0603 -0.4248 -1.3167
  952MOL0     C28413   4.377   9.815   2.988 -0.7461 -0.1407 -0.4489
  952MOL0     C28414   4.537   9.714   3.170 -0.8234 -0.4441  0.4230
  952MOL0     C28415   4.477   9.800   3.276 -2.0239  0.5411  0.0490
  952MOL0     O28416   4.509   9.761   3.405  0.1557 -0.0594  0.3797
  952MOL0     C28417   4.435   9.805   3.505  0.6233  0.9878  0.7046
  952MOL0     C28418   4.304   9.741   3.523 -0.3180 -0.0093 -0.1838
  952MOL0     C28419   4.238   9.741   3.646  0.0124 -0.4992 -0.2412
  952MOL0     C28420   4.290   9.821   3.756  0.3786  0.2821  0.3979
  952MOL0     O28421   4.231   9.844   3.881 -0.0273 -0.2237  0.6321
  952MOL0     C28422   4.201   9.716   3.954  0.1903  0.1626 -0.1032
  952MOL0     C28423   4.066   9.761   4.025  0.1000 -0.2589 -0.1732
  952MOL0     C28424   3.953   9.768   3.913 -0.6302 -0.2132  0.9820
  952MOL0     C28425   3.814   9.777   3.949 -0.3037 -0.5222 -0.0013
  952MOL0     C28426   3.720   9.778   3.831 -0.2052  0.1915 -0.8818
  952MOL0     C28427   3.706   9.897   3.751 -0.2196 -0.6254 -0.0195
  952MOL0     C28428   3.630  10.007   3.830  0.5978  0.6261  0.1066
  952MOL0     C28429   3.608  10.128   3.742 -0.2604 -0.8961 -0.0208
  952MOL0    Cl28430   3.504  10.097   3.598 -0.5096 -0.2024 -0.0021
  952MOL0     C28431   4.402   9.901   3.734 -0.7036  0.0930  0.7724
  952MOL0     C28432   4.471   9.887   3.611  0.1521  0.2023 -0.2316
  952MOL0     O28433   4.411   9.898   3.251 -0.4187 -0.1097  0.3379
  952MOL0     C28434   4.649   9.629   3.198 -0.3004  0.7020  0.5053
  952MOL0     C28435   4.704   9.543   3.103  0.1265  0.5257  0.8570
  952MOL0     N28436   4.963   9.249   2.353 -0.4959 -0.8742  0.0522
  952MOL0     N28437   5.079   9.210   2.325 -0.6127  0.8541 -0.5014
  952MOL0     C28438   5.961   8.610   1.779 -0.2915 -0.0291 -0.1920
  952MOL0     C28439   6.024   8.585   1.657  0.2241  0.0023 -0.9643
  952MOL0     C28440   6.339   8.592   1.320 -0.3832 -0.2148  0.0251
  952MOL0     C28441   6.270   8.477   1.262  0.4999  0.2226  0.2004
  952MOL0     C28442   6.317   8.417   1.145 -0.9009  0.7388  0.8546
  952MOL0     C28443   6.431   8.463   1.081 -1.1649  0.4983  0.6569
  952MOL0     O28444   6.473   8.391   0.973  0.6732  0.6424 -0.2970
  952MOL0     C28445   6.585   8.430   0.892  0.9757 -0.4247  0.3668
  952MOL0     C28446   6.600   8.317   0.790 -0.1123 -0.5706  0.6289
  952MOL0     C28447   6.627   8.177   0.859  0.0422 -0.0546 -0.3501
  952MOL0     C28448   6.671   8.058   0.772  0.7413  0.2702  0.2731
  952MOL0     C28449   6.575   8.039   0.654 -0.2257 -0.4641 -0.4755
  952MOL0     C28450   6.479   8.035   0.578  0.4549 -0.1431 -0.2856
  952MOL0     C28451   6.510   8.564   1.142 -0.5235  0.0070  0.3643
  952MOL0     C28452   6.459   8.627   1.258  0.6790  0.2003  0.3323
  952MOL0     H28453   6.320   8.727   1.730  0.7021 -1.4931 -2.2023
  952MOL0     H28454   6.218   8.762   1.939 -0.3386 -1.2458  1.1839
  952MOL0     H28455   5.835   8.837   1.899  1.6137  1.7014  0.6457
  952MOL0     H28456   5.774   8.691   1.983 -2.4456  1.2514 -1.3743
  952MOL0     H28457   5.844   8.802   2.203  0.7023  1.8319  0.8009
  952MOL0     H28458   5.892   8.936   2.121  1.8409 -1.1421  2.8431
  952MOL0     H28459   5.668   8.990   2.047 -1.8196  0.2075  0.0051
  952MOL0     H28460   5.606   8.826   2.069  0.6130  0.1693 -0.3536
  952MOL0     H28461   5.633   8.866   2.336 -0.1269  0.2180  0.8507
  952MOL0     H28462   5.711   9.023   2.283  1.2656  0.0793 -0.4510
  952MOL0     H28463   5.483   9.064   2.354 -0.0222  3.8583 -1.7939
  952MOL0     H28464   5.477   9.071   2.184 -4.0053  0.7707  1.0978
  952MOL0     H28465   5.400   8.842   2.163  0.0227 -1.2161  1.0289
  952MOL0     H28466   5.395   8.831   2.339  1.2590  1.3573  1.3845
  952MOL0     H28467   5.220   9.050   2.186 -3.5655  1.0413  2.0770
  952MOL0     H28468   5.179   8.888   2.223 -1.7686  0.5526 -0.4097
  952MOL0     H28469   5.309   9.071   2.440 -0.2189  0.7616 -1.7821
  952MOL0     H28470   5.217   8.923   2.452  3.9634 -1.0191 -1.7163
  952MOL0     H28471   4.991   9.010   2.577 -1.5123  0.4168  0.1250
  952MOL0     H28472   4.700   9.137   2.393 -0.6390 -3.5905  1.4195
  952MOL0     H28473   4.746   9.059   2.552 -2.6579 -0.3443 -0.3376
  952MOL0     H28474   4.586   9.252   2.538  0.6854  0.2701 -0.7666
  952MOL0     H28475   4.724   9.358   2.505  0.2614  0.9926  1.1102
  952MOL0     H28476   4.824   9.325   2.694  0.8915 -2.1415  2.6195
  952MOL0     H28477   4.707   9.198   2.764  0.7662  0.3673  2.0772
  952MOL0     H28478   4.534   9.344   2.783  0.8116  0.0483  0.9534
  952MOL0     H28479   4.617   9.483   2.714  1.6318 -0.7921 -1.4012
  952MOL0     H28480   4.462   9.605   2.859 -1.2510  1.6194  0.0845
  952MOL0     H28481   4.274   9.803   3.022  0.0268  1.1707  2.7898
  952MOL0     H28482   4.408   9.914   3.025  2.1572 -1.1218 -0.0339
  952MOL0     H28483   4.385   9.820   2.879  1.5412 -0.5475 -0.3551
  952MOL0     H28484   4.261   9.681   3.444  1.6401  0.2621 -1.5386
  952MOL0     H28485   4.146   9.688   3.668  1.2206 -2.8305 -0.4279
  952MOL0     H28486   4.175   9.628   3.895 -0.4944 -1.7504  2.8615
  952MOL0     H28487   4.276   9.687   4.029  0.0225 -2.8857 -1.0089
  952MOL0     H28488   4.038   9.687   4.101  0.6143  0.0823  0.3552
  952MOL0     H28489   4.080   9.856   4.077  0.0910  1.3197 -2.8981
  952MOL0     H28490   3.969   9.680   3.851  1.7492  0.1037  1.0468
  952MOL0     H28491   3.971   9.856   3.850 -0.3107 -1.3804 -0.6160
  952MOL0     H28492   3.799   9.683   4.003  1.2883  0.0506  1.5441
  952MOL0     H28493   3.788   9.858   4.018  1.5700  1.3229 -1.3348
  952MOL0     H28494   3.619   9.755   3.868  0.6845  0.5931  2.1308
  952MOL0     H28495   3.741   9.690   3.770  2.9037  0.3811 -0.2389
  952MOL0     H28496   3.802   9.938   3.719 -0.4684 -2.0510 -2.8805
  952MOL0     H28497   3.656   9.873   3.656 -2.7336  0.9222  0.8113
  952MOL0     H28498   3.704  10.028   3.907 -0.5930 -2.5280  2.3149
  952MOL0     H28499   3.541   9.960   3.873  1.3540  0.4065  1.4804
  952MOL0     H28500   3.704  10.179   3.731 -1.7262  1.9705 -0.4135
  952MOL0     H28501   3.543  10.201   3.791 -3.7716 -3.0279 -1.1619
  952MOL0     H28502   4.432   9.966   3.816 -0.1042  0.5660  0.1964
  952MOL0     H28503   4.571   9.930   3.611  1.1459 -1.8096 -3.1911
  952MOL0     H28504   4.681   9.631   3.302 -2.3726 -0.4701  1.2401
  952MOL0     H28505   4.785   9.478   3.136 -0.7154  1.4354  5.4832
  952MOL0     H28506   5.860   8.580   1.803 -0.3786  1.6832  1.9211
  952MOL0     H28507   5.973   8.536   1.575 -1.8523  0.9612 -0.3218
  952MOL0     H28508   6.178   8.429   1.293 -0.0964 -0.0925 -1.9135
  952MOL0     H28509   6.248   8.342   1.108 -0.9038  2.0565 -2.0307
  952MOL0     H28510   6.560   8.517   0.831  2.1730  0.2736  0.8498
  952MOL0     H28511   6.670   8.447   0.959 -0.5935 -0.7064  2.5696
  952MOL0     H28512   6.678   8.336   0.715 -1.9649 -0.4995 -1.3886
  952MOL0     H28513   6.510   8.297   0.731  0.1535 -1.9166  0.6370
  952MOL0     H28514   6.545   8.141   0.922  1.8491 -2.8204  0.6111
  952MOL0     H28515   6.698   8.189   0.941 -0.8787 -2.0173  0.7879
  952MOL0     H28516   6.675   7.972   0.839 -0.0716 -2.7002 -3.1756
  952MOL0     H28517   6.767   8.085   0.726 -1.1284  1.7186 -3.1826
  952MOL0     H28518   6.401   8.005   0.511  0.3244 -0.9613  0.2150
  952MOL0     H28519   6.600   8.600   1.093 -0.8219 -0.8244 -0.8479
  952MOL0     H28520   6.513   8.714   1.295  0.3822  0.8246 -0.6500
  953MOL0     O28521   7.952   7.957   8.642 -0.9313 -0.5053 -0.4280
  953MOL0     C28522   7.887   8.055   8.671 -1.2086  0.4332  0.1308
  953MOL0     O28523   7.759   8.064   8.696 -0.3627 -0.1842 -0.9330
  953MOL0     C28524   7.675   7.953   8.705  0.7462  0.3003  0.1609
  953MOL0     C28525   7.687   7.868   8.809  1.0440  0.1032  0.0619
  953MOL0     C28526   7.572   7.797   8.844  0.3024  0.0467 -0.1425
  953MOL0     C28527   7.449   7.791   8.768 -0.5496 -0.2118 -0.7668
  953MOL0     O28528   7.346   7.704   8.779  0.2402  0.5080 -0.1330
  953MOL0     C28529   7.337   7.624   8.900 -0.1017 -0.5713  0.6759
  953MOL0     C28530   7.206   7.536   8.895  0.2373  0.2024 -0.7876
  953MOL0     C28531   7.182   7.456   9.026  0.2645  0.2989  0.1319
  953MOL0     C28532   7.058   7.371   9.019 -0.3257  0.5590 -0.2477
  953MOL0     C28533   6.959   7.413   9.130 -0.1977  0.3017 -0.0815
  953MOL0     C28534   6.903   7.553   9.091 -0.2182 -0.0043 -0.1966
  953MOL0     C28535   6.820   7.616   9.192 -0.1208 -0.3568  0.2643
  953MOL0     C28536   6.861   7.758   9.220 -0.2343 -1.0478  0.1324
  953MOL0     N28537   6.998   7.773   9.276 -1.5229  0.1817 -0.6729
  953MOL0     C28538   7.042   7.697   9.385 -0.6729 -0.3725 -0.5744
  953MOL0     C28539   7.169   7.725   9.400  0.8440 -0.7198 -0.3886
  953MOL0     C28540   7.266   7.669   9.503  0.3487  0.4314 -0.2082
  953MOL0     C28541   7.265   7.519   9.513 -0.7015  0.1191  0.5663
  953MOL0     C28542   7.296   7.454   9.376  0.5345  0.1256 -0.3365
  953MOL0     C28543   7.293   7.298   9.399 -0.4543  0.3448  0.3167
  953MOL0     O28544   7.325   7.242   9.269  0.2070  0.1606  0.4160
  953MOL0     C28545   7.343   7.108   9.267  1.0057 -0.5756  0.1678
  953MOL0     C28546   7.381   7.043   9.149  0.5398 -0.3275 -0.6139
  953MOL0     C28547   7.412   6.905   9.143  0.3503  0.6722 -0.4944
  953MOL0     C28548   7.458   6.859   9.009 -1.1818 -0.1072 -1.3138
  953MOL0     C28549   7.406   6.830   9.257  0.5807 -0.9435  0.1362
  953MOL0     C28550   7.463   6.687   9.260 -0.5502 -0.2240  0.0718
  953MOL0     O28551   7.504   6.623   9.148 -0.1935 -0.1533  0.6856
  953MOL0     C28552   7.591   6.527   9.146  0.5878 -0.2465 -0.0549
  953MOL0     C28553   7.704   6.526   9.234  0.2073 -0.1133  0.1403
  953MOL0     C28554   7.800   6.429   9.226 -0.4108  0.8610 -0.4053
  953MOL0     C28555   7.775   6.323   9.139  0.2127 -0.3748 -0.3496
  953MOL0     O28556   7.853   6.218   9.159  0.0539  0.2316  0.7916
  953MOL0     C28557   7.910   6.162   9.047 -0.0376  0.4081  0.5005
  953MOL0     C28558   8.038   6.083   9.094  0.4508  0.1899  0.3185
  953MOL0     C28559   8.112   6.010   8.983 -0.1397 -0.0777  0.2154
  953MOL0     C28560   8.236   5.928   9.043  0.2885 -0.3889  0.2553
  953MOL0     C28561   8.286   5.811   8.955  0.4822  0.0134  0.3807
  953MOL0     C28562   8.415   5.752   8.998 -0.5891  0.7781 -0.1721
  953MOL0     C28563   8.459   5.641   8.900 -0.6652  0.1386  0.0592
  953MOL0     C28564   8.580   5.560   8.963 -0.2619  0.6571 -0.2387
  953MOL0    Cl28565   8.546   5.443   9.094  0.1473 -0.0400 -0.4221
  953MOL0     C28566   7.674   6.327   9.048 -0.1518  0.3478  0.2211
  953MOL0     C28567   7.583   6.433   9.040  0.4790  0.9843  0.3425
  953MOL0     O28568   7.478   6.638   9.373  0.0440  0.2099 -0.0393
  953MOL0     C28569   7.362   6.893   9.379  0.2536  0.2970 -0.5395
  953MOL0     C28570   7.336   7.031   9.380  0.3077  0.2076  0.1669
  953MOL0     N28571   7.209   7.818   9.302 -0.0465 -0.0897  0.8940
  953MOL0     N28572   7.102   7.850   9.237  0.0840  0.3767  0.8032
  953MOL0     C28573   7.441   7.875   8.650 -0.6201 -0.2527  0.7330
  953MOL0     C28574   7.554   7.960   8.633  0.4364 -0.4636  0.5611
  953MOL0     C28575   7.969   8.179   8.692 -0.8162  0.4102  0.9046
  953MOL0     C28576   8.089   8.207   8.629 -0.0346  0.6279 -0.0371
  953MOL0     C28577   8.160   8.322   8.665  0.2746  0.3143  0.4571
  953MOL0     C28578   8.114   8.413   8.756  0.8119 -0.0414 -0.3763
  953MOL0     O28579   8.205   8.507   8.788 -0.5056 -1.1756  0.3458
  953MOL0     C28580   8.163   8.614   8.868  0.5765 -0.2630  0.7049
  953MOL0     C28581   8.179   8.574   9.012 -0.3101  0.1285 -1.1695
  953MOL0     C28582   8.120   8.681   9.112  0.1895  0.0465  0.3475
  953MOL0     C28583   8.152   8.821   9.070 -0.3829  0.4642  0.1469
  953MOL0     C28584   8.300   8.827   9.071  0.2444 -0.4500  0.5445
  953MOL0     C28585   8.424   8.845   9.075  0.5275 -0.3759  0.2466
  953MOL0     C28586   7.988   8.388   8.816 -0.3401 -0.1192 -0.1634
  953MOL0     C28587   7.918   8.277   8.788 -0.1119  0.4206  0.4027
  953MOL0     H28588   7.763   7.864   8.886  0.9974  3.6695  0.4854
  953MOL0     H28589   7.589   7.733   8.930  1.1683  0.6262  0.1411
  953MOL0     H28590   7.427   7.567   8.926  3.0040  2.8276 -1.7928
  953MOL0     H28591   7.326   7.695   8.982 -0.7760 -0.2684  0.3247
  953MOL0     H28592   7.118   7.596   8.872 -0.7180 -0.2765  1.4318
  953MOL0     H28593   7.217   7.463   8.814 -0.5187  0.0158 -0.7269
  953MOL0     H28594   7.259   7.378   9.033 -2.2523 -2.6149 -1.8262
  953MOL0     H28595   7.189   7.530   9.106  2.4933 -1.2363  1.4736
  953MOL0     H28596   7.018   7.384   8.918  1.8476  1.4884 -1.0575
  953MOL0     H28597   7.082   7.267   9.041 -0.1926 -0.2988 -3.8726
  953MOL0     H28598   6.870   7.349   9.133 -1.4878  1.9418 -1.0867
  953MOL0     H28599   7.016   7.428   9.222 -1.4951 -0.4344  0.8638
  953MOL0     H28600   6.993   7.612   9.073 -0.2121  0.9069  2.4400
  953MOL0     H28601   6.856   7.548   8.992 -1.0947  3.1391 -0.0179
  953MOL0     H28602   6.715   7.610   9.165  0.2792 -0.4076 -1.3952
  953MOL0     H28603   6.841   7.569   9.289 -1.9250  2.5849  2.2404
  953MOL0     H28604   6.793   7.796   9.297  1.0424  0.5357  0.5259
  953MOL0     H28605   6.849   7.819   9.130  2.1330 -2.8301 -1.5193
  953MOL0     H28606   6.992   7.618   9.440 -0.2639  0.9796  1.9140
  953MOL0     H28607   7.370   7.695   9.482  0.9114 -0.6682  1.1301
  953MOL0     H28608   7.239   7.717   9.598  0.9564 -0.5085  0.4565
  953MOL0     H28609   7.171   7.479   9.555 -0.0869  0.3405  2.2240
  953MOL0     H28610   7.349   7.496   9.579 -0.6496 -1.4941  0.0024
  953MOL0     H28611   7.397   7.481   9.343 -0.2974  2.7595 -0.9790
  953MOL0     H28612   7.222   7.477   9.300 -0.6118 -0.0927  0.6807
  953MOL0     H28613   7.194   7.267   9.433 -0.9585  1.9427  0.4041
  953MOL0     H28614   7.358   7.267   9.482 -2.0859 -2.7621  0.5663
  953MOL0     H28615   7.388   7.118   9.071 -1.2207  1.0186  0.4245
  953MOL0     H28616   7.561   6.824   9.021 -0.8360  1.0853 -0.6912
  953MOL0     H28617   7.400   6.779   8.962  0.2962 -1.1997 -1.3487
  953MOL0     H28618   7.459   6.935   8.931 -0.5577 -0.0585 -1.2676
  953MOL0     H28619   7.713   6.609   9.303  3.9957  0.4407 -0.8095
  953MOL0     H28620   7.889   6.426   9.288  0.0042  0.1615 -1.0108
  953MOL0     H28621   7.835   6.096   9.001  2.5131 -2.1716 -0.2117
  953MOL0     H28622   7.941   6.226   8.964  1.0366 -1.6378 -0.7488
  953MOL0     H28623   8.104   6.147   9.152  0.0458  1.0668 -0.1536
  953MOL0     H28624   8.015   5.999   9.160  0.2999 -1.3189 -1.5473
  953MOL0     H28625   8.141   6.083   8.907  0.7595  0.5691  1.1477
  953MOL0     H28626   8.043   5.932   8.950  0.1634  0.0674 -0.7718
  953MOL0     H28627   8.309   6.002   9.078 -1.2506 -0.1155  3.2495
  953MOL0     H28628   8.204   5.885   9.139 -0.2864 -0.2008  0.1535
  953MOL0     H28629   8.303   5.858   8.857  1.2781 -1.0708 -0.0197
  953MOL0     H28630   8.196   5.749   8.948  0.5413  0.0330 -0.7401
  953MOL0     H28631   8.498   5.822   9.011  1.1186 -1.3686  1.0749
  953MOL0     H28632   8.403   5.695   9.091  2.2426 -0.8790 -0.7089
  953MOL0     H28633   8.494   5.686   8.807  3.6593 -5.4102 -1.4809
  953MOL0     H28634   8.369   5.583   8.876 -0.7377 -0.5368  1.7534
  953MOL0     H28635   8.649   5.641   8.985 -1.1125  2.2531 -2.9922
  953MOL0     H28636   8.621   5.493   8.887 -2.2482 -1.2518  0.2515
  953MOL0     H28637   7.645   6.243   8.986 -1.7281  0.8347  0.2691
  953MOL0     H28638   7.510   6.428   8.960  1.5919 -0.3824 -0.6236
  953MOL0     H28639   7.349   6.830   9.466  0.6136  3.4591  1.9954
  953MOL0     H28640   7.308   7.057   9.482 -1.9611 -0.1599 -0.3117
  953MOL0     H28641   7.361   7.873   8.577  3.2711 -1.8650 -4.0893
  953MOL0     H28642   7.542   8.034   8.554 -3.4784 -1.5685 -0.1152
  953MOL0     H28643   8.123   8.136   8.554 -6.1131 -0.7086 -2.1151
  953MOL0     H28644   8.252   8.344   8.611  1.1957 -2.7325  0.6068
  953MOL0     H28645   8.238   8.690   8.843  0.6124 -0.3361  0.5991
  953MOL0     H28646   8.059   8.646   8.853  0.8808  0.9334  1.0389
  953MOL0     H28647   8.286   8.560   9.026 -0.6847 -0.9965  0.8657
  953MOL0     H28648   8.124   8.480   9.027 -0.2833  0.4339  1.0374
  953MOL0     H28649   8.162   8.668   9.213  1.5853  0.2309 -0.1874
  953MOL0     H28650   8.011   8.672   9.116 -0.1033  1.5332 -2.1452
  953MOL0     H28651   8.113   8.898   9.138  0.1273  0.6005  0.2900
  953MOL0     H28652   8.117   8.840   8.968 -0.4395  0.4648  0.1663
  953MOL0     H28653   8.527   8.862   9.101 -0.3220  1.4241  2.8887
  953MOL0     H28654   7.940   8.465   8.874  0.8398 -0.1877  0.9538
  953MOL0     H28655   7.826   8.259   8.843 -0.5352  1.1101 -0.0625
  954MOL0     O28656   4.986   4.824  10.683  0.1988 -0.2425 -0.0223
  954MOL0     C28657   4.935   4.796  10.571  0.4186  0.8402  0.6547
  954MOL0     O28658   5.004   4.751  10.461  0.6756 -0.0824  0.3774
  954MOL0     C28659   5.139   4.751  10.454  0.0107 -0.0736  0.7560
  954MOL0     C28660   5.200   4.644  10.399  0.5043 -0.0531 -0.5276
  954MOL0     C28661   5.336   4.632  10.384 -0.4874 -0.3051  0.6218
  954MOL0     C28662   5.423   4.738  10.415  0.1734 -0.7615 -0.4369
  954MOL0     O28663   5.561   4.733  10.394 -0.1960  0.2548 -0.3102
  954MOL0     C28664   5.604   4.626  10.305 -0.7991  0.1104  0.0812
  954MOL0     C28665   5.748   4.657  10.243 -0.4360 -0.2568  0.3922
  954MOL0     C28666   5.840   4.676  10.365  0.0748 -0.0864  0.5442
  954MOL0     C28667   5.989   4.678  10.342  0.4578 -0.0714  0.0039
  954MOL0     C28668   6.067   4.737  10.471  0.9218 -0.0665 -0.1085
  954MOL0     C28669   6.213   4.717  10.469  0.3414  0.0544 -0.1320
  954MOL0     C28670   6.280   4.805  10.570  0.4540  0.0018  0.7745
  954MOL0     C28671   6.244   4.956  10.567  0.3861  0.6260  0.1745
  954MOL0     N28672   6.356   5.025  10.640 -0.0194  0.6075  0.1581
  954MOL0     C28673   6.484   5.040  10.602  0.5108  0.6920 -0.1706
  954MOL0     C28674   6.544   5.118  10.702  0.0128  0.1290  1.2515
  954MOL0     C28675   6.668   5.196  10.703  0.0852 -0.7094  0.1104
  954MOL0     C28676   6.655   5.330  10.632 -0.2351  0.7496 -0.0791
  954MOL0     C28677   6.620   5.443  10.729 -0.1996  0.4306  0.4917
  954MOL0     C28678   6.623   5.575  10.648  0.0574 -0.7797 -0.1631
  954MOL0     O28679   6.533   5.564  10.540 -0.5399 -0.3663  0.1614
  954MOL0     C28680   6.464   5.680  10.510 -0.0848 -0.4913  1.4669
  954MOL0     C28681   6.341   5.704  10.575  0.5860 -0.6195 -0.6160
  954MOL0     C28682   6.263   5.815  10.540 -0.1611 -1.4065 -0.3274
  954MOL0     C28683   6.141   5.847  10.625  0.3451 -0.6064 -0.0567
  954MOL0     C28684   6.306   5.900  10.432  0.0561 -0.0520  0.5929
  954MOL0     C28685   6.223   6.002  10.364  0.2390  0.4301  0.5254
  954MOL0     O28686   6.100   6.021  10.409 -0.7743 -0.8837  0.9609
  954MOL0     C28687   6.026   6.125  10.354  0.9822  0.5283 -0.5959
  954MOL0     C28688   5.885   6.088  10.338 -0.3253  0.6424  0.7222
  954MOL0     C28689   5.794   6.189  10.315 -0.4840  1.6989  0.1619
  954MOL0     C28690   5.830   6.323  10.328  0.1520  0.5932  0.3631
  954MOL0     O28691   5.743   6.418  10.288 -0.2729  0.1785  0.0737
  954MOL0     C28692   5.802   6.522  10.202  0.0096 -0.1386 -0.3409
  954MOL0     C28693   5.689   6.600  10.152  0.1303 -0.0243  0.0514
  954MOL0     C28694   5.613   6.678  10.253  0.0634 -0.5382 -0.3186
  954MOL0     C28695   5.488   6.753  10.181 -0.0947  0.4674 -1.0651
  954MOL0     C28696   5.427   6.863  10.264  0.2932  0.7702  0.4781
  954MOL0     C28697   5.289   6.895  10.210 -0.0580 -0.1854 -0.1739
  954MOL0     C28698   5.206   6.989  10.296 -0.0431  0.3341  1.1332
  954MOL0     C28699   5.053   6.989  10.276  0.7027  0.4330 -0.1369
  954MOL0    Cl28700   5.015   7.067  10.120 -0.0050 -0.0727  0.6980
  954MOL0     C28701   5.958   6.359  10.356 -0.6592 -0.0865  1.0720
  954MOL0     C28702   6.057   6.259  10.368  0.0960  0.9150  0.6196
  954MOL0     O28703   6.275   6.065  10.272 -0.6540 -0.9684  0.0803
  954MOL0     C28704   6.432   5.874  10.374 -0.5484 -0.3505  0.2963
  954MOL0     C28705   6.519   5.770  10.411 -0.4203 -0.2308 -0.3207
  954MOL0     N28706   6.448   5.145  10.798 -0.3174  0.1935  1.0952
  954MOL0     N28707   6.345   5.094  10.753  0.1507  0.5797  0.3143
  954MOL0     C28708   5.356   4.844  10.470 -1.1344 -0.1801  0.5325
  954MOL0     C28709   5.219   4.866  10.475  0.1351  0.5543 -1.0167
  954MOL0     C28710   4.789   4.802  10.559  0.7477 -0.5209 -0.1053
  954MOL0     C28711   4.732   4.765  10.438 -0.0760 -0.2000 -0.4143
  954MOL0     C28712   4.599   4.749  10.427 -0.3380  0.4557 -0.5405
  954MOL0     C28713   4.515   4.767  10.537  0.3657  0.0395  0.6401
  954MOL0     O28714   4.380   4.736  10.526  0.7438  0.1828 -0.5731
  954MOL0     C28715   4.335   4.610  10.562  0.3060  1.5020 -0.2021
  954MOL0     C28716   4.374   4.494  10.466  0.6590 -0.4521  1.1263
  954MOL0     C28717   4.316   4.361  10.496  1.1726 -0.4395 -0.4315
  954MOL0     C28718   4.387   4.314  10.628  0.0568  0.1393 -0.4358
  954MOL0     C28719   4.391   4.167  10.611  0.5802 -0.0858  0.3074
  954MOL0     C28720   4.396   4.046  10.604  0.4798 -0.0685  0.3548
  954MOL0     C28721   4.565   4.820  10.655  0.0912 -1.0930 -0.1647
  954MOL0     C28722   4.705   4.837  10.670 -0.1116  0.0419 -0.3634
  954MOL0     H28723   5.129   4.564  10.380 -0.2636  0.6481 -0.6572
  954MOL0     H28724   5.365   4.533  10.351  2.0472 -0.4005  2.7881
  954MOL0     H28725   5.611   4.527  10.352  0.3402  0.2189  0.1711
  954MOL0     H28726   5.538   4.608  10.219 -0.6965 -1.3431  0.2705
  954MOL0     H28727   5.776   4.570  10.184  1.7365  0.7246 -0.1369
  954MOL0     H28728   5.744   4.746  10.178  0.1726 -1.4727 -1.3661
  954MOL0     H28729   5.803   4.768  10.411 -1.0763 -0.5940  0.6649
  954MOL0     H28730   5.824   4.599  10.440 -1.2725 -1.2048 -0.8181
  954MOL0     H28731   6.035   4.584  10.312  0.2141  0.4727 -2.2917
  954MOL0     H28732   6.012   4.752  10.264 -1.2979  1.9497  1.2867
  954MOL0     H28733   6.041   4.843  10.462 -0.3255 -0.3909 -0.4753
  954MOL0     H28734   6.032   4.687  10.561 -2.7076 -0.6582 -1.6925
  954MOL0     H28735   6.233   4.611  10.489 -2.0407 -0.9016 -2.3573
  954MOL0     H28736   6.249   4.727  10.366  1.9246 -0.4194  0.3421
  954MOL0     H28737   6.240   4.770  10.665 -1.5440  0.3511  0.1168
  954MOL0     H28738   6.388   4.789  10.576  1.1691  3.3055 -0.7868
  954MOL0     H28739   6.144   4.977  10.606  1.6388  1.8588  3.0591
  954MOL0     H28740   6.256   4.992  10.464  3.3832  1.2152  0.6440
  954MOL0     H28741   6.520   5.001  10.508  3.6116 -0.6665  1.4254
  954MOL0     H28742   6.706   5.198  10.805 -1.2337  0.6911  0.6070
  954MOL0     H28743   6.745   5.145  10.644 -1.0976 -1.4252 -0.8661
  954MOL0     H28744   6.587   5.321  10.547 -2.4873  1.7398  1.5188
  954MOL0     H28745   6.752   5.358  10.590  1.3569 -2.2858  1.2730
  954MOL0     H28746   6.703   5.464  10.797  0.5544  1.1927 -0.6191
  954MOL0     H28747   6.544   5.407  10.799  2.3334 -1.9653  2.2438
  954MOL0     H28748   6.729   5.583  10.620  0.1666  2.5255  0.7116
  954MOL0     H28749   6.602   5.659  10.715 -0.1343  1.1385 -2.4785
  954MOL0     H28750   6.306   5.636  10.651  1.5466  0.6881  1.0652
  954MOL0     H28751   6.047   5.815  10.579  1.4709 -0.3226 -2.7542
  954MOL0     H28752   6.152   5.798  10.722 -1.4905  0.2697  0.6341
  954MOL0     H28753   6.124   5.953  10.646 -0.8237 -0.7542 -0.2028
  954MOL0     H28754   5.855   5.984  10.341  1.6784 -0.0371 -0.6228
  954MOL0     H28755   5.689   6.164  10.305 -0.3750  0.3137  1.8466
  954MOL0     H28756   5.863   6.581  10.271 -0.7527 -0.0495  0.2754
  954MOL0     H28757   5.857   6.482  10.117 -0.4944  1.4887 -1.4828
  954MOL0     H28758   5.737   6.661  10.075  0.5290 -0.8937 -0.3993
  954MOL0     H28759   5.622   6.535  10.095 -0.7927  1.8951 -1.1605
  954MOL0     H28760   5.683   6.751  10.293 -0.7646  1.1467 -1.8247
  954MOL0     H28761   5.584   6.617  10.340  0.9350 -2.1059 -1.0922
  954MOL0     H28762   5.522   6.807  10.092  0.1717 -0.4580 -1.5451
  954MOL0     H28763   5.413   6.681  10.145 -0.9798  0.9219 -0.1711
  954MOL0     H28764   5.489   6.953  10.266  3.2134 -1.1020  2.6306
  954MOL0     H28765   5.427   6.833  10.370  3.2372 -0.9044  0.1127
  954MOL0     H28766   5.304   6.918  10.105  2.5550 -1.1672 -0.0799
  954MOL0     H28767   5.244   6.796  10.205 -1.7611  0.5435 -0.2575
  954MOL0     H28768   5.238   7.093  10.284  1.0124 -0.2279 -1.6000
  954MOL0     H28769   5.225   6.967  10.402  0.0963 -2.7627  0.5367
  954MOL0     H28770   5.017   7.059  10.353  0.6696  1.9113 -1.4353
  954MOL0     H28771   5.000   6.894  10.287 -1.7702  1.7538  0.2498
  954MOL0     H28772   5.984   6.463  10.378  4.5835 -0.4624 -1.7918
  954MOL0     H28773   6.154   6.290  10.405  0.7022 -2.4649  2.2731
  954MOL0     H28774   6.458   5.928  10.283  0.3959 -0.9396  0.2044
  954MOL0     H28775   6.612   5.754  10.358  0.9237  0.7803  1.6473
  954MOL0     H28776   5.415   4.929  10.503  1.9024 -1.5266 -1.0679
  954MOL0     H28777   5.177   4.962  10.503  2.9347  1.2301  1.2847
  954MOL0     H28778   4.787   4.740  10.348 -1.9030  1.4505 -2.0910
  954MOL0     H28779   4.562   4.735  10.325  0.9472  0.2543 -0.9969
  954MOL0     H28780   4.369   4.569  10.658 -2.3413  0.1721  0.2836
  954MOL0     H28781   4.229   4.620  10.589  0.0497 -1.4895  0.2448
  954MOL0     H28782   4.482   4.487  10.452  0.4846 -1.7948  0.2917
  954MOL0     H28783   4.328   4.527  10.372  0.5562 -2.0345  0.5907
  954MOL0     H28784   4.341   4.284  10.422 -2.0245 -1.4318 -0.6287
  954MOL0     H28785   4.209   4.372  10.517  0.9402 -0.0177 -1.7453
  954MOL0     H28786   4.344   4.353  10.721  3.9783  3.1228  0.3797
  954MOL0     H28787   4.490   4.352  10.627  0.1452 -0.0088  0.9527
  954MOL0     H28788   4.409   3.943  10.578 -0.9089  0.4994 -3.0675
  954MOL0     H28789   4.507   4.853  10.741  0.1112  0.1008 -0.5935
  954MOL0     H28790   4.744   4.875  10.764 -1.3012 -1.4053  0.7779
  955MOL0     O28791  10.067   4.320   5.161 -0.9857 -0.2500  0.3906
  955MOL0     C28792  10.105   4.434   5.185  0.3269  0.5339  0.4999
  955MOL0     O28793  10.051   4.518   5.271 -0.1247 -0.0087  0.4498
  955MOL0     C28794   9.949   4.480   5.352  0.4055  0.0688 -0.1538
  955MOL0     C28795   9.856   4.573   5.395  0.5374  0.4288 -0.0770
  955MOL0     C28796   9.752   4.551   5.481  0.9507 -0.8315  0.4412
  955MOL0     C28797   9.718   4.426   5.523  0.3566  0.8090 -0.1657
  955MOL0     O28798   9.619   4.408   5.616 -0.0226 -0.4110  0.7750
  955MOL0     C28799   9.537   4.290   5.597 -0.1663 -0.6246  0.0140
  955MOL0     C28800   9.414   4.304   5.694  0.2251  1.0520  0.0519
  955MOL0     C28801   9.451   4.329   5.835  0.8134  0.2872  0.3226
  955MOL0     C28802   9.510   4.204   5.900 -0.4476  0.2114 -0.0833
  955MOL0     C28803   9.549   4.219   6.047  0.2358 -0.2510 -0.2894
  955MOL0     C28804   9.544   4.077   6.126 -0.3503  0.1766  1.0610
  955MOL0     C28805   9.568   4.093   6.273  0.1854 -0.5953 -0.6270
  955MOL0     C28806   9.543   3.948   6.335  0.2652 -0.9502  0.3424
  955MOL0     N28807   9.607   3.935   6.462 -0.4335  0.2400 -0.7390
  955MOL0     C28808   9.600   4.001   6.582 -0.1189  0.3675 -0.6272
  955MOL0     C28809   9.690   3.932   6.661  0.0242 -0.6451  0.2962
  955MOL0     C28810   9.716   3.966   6.806 -0.1037  0.1294 -0.3304
  955MOL0     C28811   9.758   3.839   6.880 -0.7397  0.8455  1.0872
  955MOL0     C28812   9.827   3.867   7.018 -0.2309 -0.2191  0.7037
  955MOL0     C28813   9.929   3.975   7.011  0.3722  0.0498 -1.2764
  955MOL0     O28814  10.034   3.962   7.107 -0.2788 -0.8521  0.7139
  955MOL0     C28815  10.091   4.075   7.153  0.2168 -1.2376  0.9697
  955MOL0     C28816  10.228   4.062   7.179 -0.2387  0.7260  0.5687
  955MOL0     C28817  10.302   4.179   7.216 -0.0036 -0.1943 -0.2757
  955MOL0     C28818  10.448   4.159   7.239  0.1565  0.8223  0.4829
  955MOL0     C28819  10.233   4.307   7.226  0.1473  0.4183  0.2142
  955MOL0     C28820  10.304   4.426   7.272  0.3057 -0.6143 -0.2406
  955MOL0     O28821  10.232   4.537   7.280 -0.4819 -1.6045  0.2644
  955MOL0     C28822  10.263   4.627   7.385  0.4556  0.1291  0.4348
  955MOL0     C28823  10.391   4.695   7.398  0.6534 -0.4107 -0.0158
  955MOL0     C28824  10.421   4.784   7.503  0.5306  0.1530 -1.1714
  955MOL0     C28825  10.328   4.803   7.598  0.8511  0.2618  0.9202
  955MOL0     O28826  10.349   4.900   7.688 -0.5161 -0.0420  0.4956
  955MOL0     C28827  10.389   4.837   7.807 -0.1639  0.5544 -0.1382
  955MOL0     C28828  10.424   4.942   7.910  0.1876  0.3596 -0.2486
  955MOL0     C28829  10.457   4.885   8.046  0.9009 -0.1282  0.1232
  955MOL0     C28830  10.526   4.991   8.139  0.4618 -0.6441  0.7940
  955MOL0     C28831  10.534   4.959   8.285  0.1862  0.8100  0.2754
  955MOL0     C28832  10.645   5.039   8.347  0.9864  0.3865  0.5028
  955MOL0     C28833  10.768   4.956   8.321  0.2007 -0.3328 -0.5667
  955MOL0     C28834  10.884   5.049   8.265 -0.3857 -0.4457 -0.1494
  955MOL0    Cl28835  10.932   5.159   8.390  0.1140  0.2092 -0.4218
  955MOL0     C28836  10.195   4.746   7.584  0.0834  0.6034  0.3648
  955MOL0     C28837  10.164   4.657   7.478  0.4964  0.8647  1.1298
  955MOL0     O28838  10.426   4.425   7.307  0.1454  0.4908  1.0589
  955MOL0     C28839  10.099   4.312   7.192 -0.3013  0.3760  0.1914
  955MOL0     C28840  10.031   4.205   7.160  0.1401  0.4926 -0.9800
  955MOL0     N28841   9.740   3.823   6.591 -0.2428  0.4271  0.2218
  955MOL0     N28842   9.686   3.825   6.469 -0.0372 -0.9070 -0.0198
  955MOL0     C28843   9.801   4.326   5.469  0.5045 -0.0732  0.1696
  955MOL0     C28844   9.923   4.348   5.400  0.3191  0.6760  0.4028
  955MOL0     C28845  10.228   4.477   5.106 -0.1964 -0.3440  0.1965
  955MOL0     C28846  10.289   4.396   5.007 -0.1065  0.8528  0.1160
  955MOL0     C28847  10.404   4.439   4.942  0.0788  0.0668 -0.3437
  955MOL0     C28848  10.464   4.566   4.968 -0.0211 -0.1969 -0.4715
  955MOL0     O28849  10.572   4.619   4.901 -0.5927  0.0222  1.2258
  955MOL0     C28850  10.635   4.559   4.788  0.0684  0.0907 -0.5590
  955MOL0     C28851  10.764   4.626   4.758  0.3596  0.4822  0.1987
  955MOL0     C28852  10.751   4.747   4.670 -0.3471 -0.9968  1.0264
  955MOL0     C28853  10.893   4.809   4.630  0.1027  1.1368 -0.3922
  955MOL0     C28854  10.889   4.922   4.537  0.0759  0.0987 -0.1577
  955MOL0     C28855  10.881   5.009   4.455 -0.6368 -0.1225  0.9149
  955MOL0     C28856  10.397   4.644   5.054  1.5384  0.7278  0.5054
  955MOL0     C28857  10.278   4.607   5.121 -0.4084 -0.4085 -0.4387
  955MOL0     H28858   9.876   4.675   5.365 -1.5667 -0.2152 -4.4984
  955MOL0     H28859   9.706   4.643   5.517  2.6664  0.3538 -0.2631
  955MOL0     H28860   9.513   4.271   5.492 -1.8275  0.3090  0.1846
  955MOL0     H28861   9.596   4.200   5.619 -2.4116 -2.6544 -1.7160
  955MOL0     H28862   9.349   4.379   5.649 -1.2937  1.0192  2.0654
  955MOL0     H28863   9.360   4.209   5.685  0.8134  0.8780 -2.3705
  955MOL0     H28864   9.522   4.410   5.854  1.2696 -0.5661  2.4732
  955MOL0     H28865   9.359   4.360   5.886  2.3116  2.3843  1.9404
  955MOL0     H28866   9.442   4.118   5.900  0.2030 -0.3334 -1.2074
  955MOL0     H28867   9.598   4.171   5.844 -0.9562 -4.3085  1.3752
  955MOL0     H28868   9.650   4.259   6.038  0.8277 -1.6908 -0.3693
  955MOL0     H28869   9.494   4.295   6.103 -0.8579  0.5162 -2.2674
  955MOL0     H28870   9.445   4.031   6.126 -0.9716  1.2529 -2.3222
  955MOL0     H28871   9.621   4.009   6.089 -1.3609 -0.5686  0.2970
  955MOL0     H28872   9.673   4.121   6.288 -0.0579  0.7898 -1.3318
  955MOL0     H28873   9.504   4.169   6.320  0.7284  0.2567 -1.2254
  955MOL0     H28874   9.587   3.880   6.261  1.9134  1.2451 -0.8170
  955MOL0     H28875   9.439   3.917   6.348 -0.5342  1.0935 -0.8657
  955MOL0     H28876   9.529   4.082   6.601 -2.6256 -1.5898 -1.1701
  955MOL0     H28877   9.800   4.035   6.814  1.9198 -1.6888 -3.7451
  955MOL0     H28878   9.622   4.007   6.845 -0.2722  0.8381 -1.4601
  955MOL0     H28879   9.823   3.771   6.825 -1.9054 -0.2278  0.9916
  955MOL0     H28880   9.665   3.783   6.895 -2.0919  2.1959 -1.5117
  955MOL0     H28881   9.866   3.772   7.056  0.5269 -0.1162  0.1992
  955MOL0     H28882   9.748   3.897   7.089  0.1898  0.5688  0.8518
  955MOL0     H28883   9.883   4.074   7.015 -0.6195 -0.4354  0.6731
  955MOL0     H28884   9.981   3.968   6.915  3.1327  1.8526 -0.0529
  955MOL0     H28885  10.280   3.967   7.184  0.5521  1.2131  3.9121
  955MOL0     H28886  10.480   4.153   7.343  1.4617 -2.6727 -0.0025
  955MOL0     H28887  10.487   4.061   7.212  1.6340  0.4631  3.5133
  955MOL0     H28888  10.502   4.238   7.186 -1.6050  2.1026  0.4843
  955MOL0     H28889  10.468   4.677   7.324 -1.6708  0.5307 -2.8584
  955MOL0     H28890  10.509   4.847   7.507  1.9676 -1.7692 -0.3212
  955MOL0     H28891  10.316   4.763   7.842  0.8003  0.2565  1.3253
  955MOL0     H28892  10.478   4.778   7.782 -0.1206  1.6975 -3.0939
  955MOL0     H28893  10.508   5.007   7.883  0.3337  1.1800  1.9346
  955MOL0     H28894  10.353   5.024   7.921  1.5129  1.6345 -0.9179
  955MOL0     H28895  10.513   4.793   8.025 -3.0748 -1.8264 -4.9990
  955MOL0     H28896  10.364   4.853   8.094 -0.8497  4.5019  0.3746
  955MOL0     H28897  10.626   5.007   8.099 -0.5385 -0.5128 -1.8890
  955MOL0     H28898  10.471   5.085   8.135  0.6451 -0.4228  2.6174
  955MOL0     H28899  10.551   4.854   8.310  4.9130  1.9016  2.8700
  955MOL0     H28900  10.437   4.993   8.324 -0.1206 -1.0519  1.2437
  955MOL0     H28901  10.643   5.144   8.317  0.8818  0.6791  1.4935
  955MOL0     H28902  10.629   5.055   8.455 -2.6746 -0.1850  0.1864
  955MOL0     H28903  10.742   4.880   8.247 -2.0828 -2.9657  2.6494
  955MOL0     H28904  10.802   4.908   8.413 -3.3268 -1.3522  0.3221
  955MOL0     H28905  10.851   5.103   8.176 -1.1153 -2.6447 -1.2845
  955MOL0     H28906  10.971   4.993   8.229 -0.7850  0.3444 -2.4968
  955MOL0     H28907  10.121   4.765   7.661 -1.6231 -3.3151 -0.0780
  955MOL0     H28908  10.068   4.609   7.462  1.4981 -0.2202 -2.7473
  955MOL0     H28909  10.036   4.401   7.194 -0.1533  0.4635  1.0010
  955MOL0     H28910   9.927   4.230   7.144  0.1436  1.7958  0.7756
  955MOL0     H28911   9.780   4.225   5.503  0.2329  0.1333  0.6265
  955MOL0     H28912   9.981   4.263   5.368  0.8430  0.3787  2.0276
  955MOL0     H28913  10.240   4.303   4.979  2.1449 -0.4139  0.1173
  955MOL0     H28914  10.439   4.365   4.871  0.4436 -0.0669 -0.0297
  955MOL0     H28915  10.669   4.455   4.800 -1.5286 -0.4066 -0.0562
  955MOL0     H28916  10.569   4.553   4.701 -2.2253  2.7912  0.8209
  955MOL0     H28917  10.819   4.544   4.710 -2.1752 -1.6442  0.6759
  955MOL0     H28918  10.818   4.645   4.852 -0.7632  0.2212  0.9226
  955MOL0     H28919  10.696   4.810   4.740 -1.0983 -1.0664  0.5084
  955MOL0     H28920  10.714   4.725   4.569  3.6495 -0.8919 -0.6600
  955MOL0     H28921  10.957   4.733   4.585  0.4879  2.6550 -2.5764
  955MOL0     H28922  10.940   4.842   4.723  2.3969 -1.8032 -0.3612
  955MOL0     H28923  10.872   5.084   4.379  0.7550  0.5305  1.3529
  955MOL0     H28924  10.436   4.738   5.093  3.1343 -0.5979  2.2345
  955MOL0     H28925  10.227   4.683   5.179  1.8501  1.2808 -0.5189
  956MOL0     O28926   0.582  10.581   9.992  0.3723  1.5747  0.4091
  956MOL0     C28927   0.487  10.500  10.009 -0.1291 -0.2096 -0.1176
  956MOL0     O28928   0.468  10.414  10.120 -0.5329 -0.5523  0.4267
  956MOL0     C28929   0.574  10.409  10.210 -0.6138  0.3861 -0.4010
  956MOL0     C28930   0.593  10.505  10.305 -0.1592 -0.7652 -0.3058
  956MOL0     C28931   0.697  10.496  10.409  0.4315  0.0305  0.3875
  956MOL0     C28932   0.764  10.374  10.414 -0.2511 -0.5888 -0.8301
  956MOL0     O28933   0.846  10.363  10.527  0.2734  0.4441  0.3707
  956MOL0     C28934   0.966  10.294  10.491  0.2947  0.5648  0.4192
  956MOL0     C28935   1.077  10.316  10.592 -0.2922  0.1868 -0.4413
  956MOL0     C28936   1.209  10.245  10.562  0.6643  0.4532  0.3915
  956MOL0     C28937   1.321  10.283  10.659  0.6232  0.6176 -0.3463
  956MOL0     C28938   1.473  10.251  10.622  0.4058  0.1720 -0.6805
  956MOL0     C28939   1.509  10.322  10.494  0.2124  0.9311 -0.1972
  956MOL0     C28940   1.668  10.313  10.488  0.5597 -0.1314 -1.3520
  956MOL0     C28941   1.723  10.385  10.366 -0.5221  0.1233  0.1845
  956MOL0     N28942   1.872  10.370  10.360 -0.1313  0.4571  0.7701
  956MOL0     C28943   1.946  10.286  10.276  0.2389  0.5572 -0.4167
  956MOL0     C28944   2.070  10.312  10.309  0.3312 -0.3315 -1.3677
  956MOL0     C28945   2.188  10.236  10.270  0.4241 -0.0874  0.2607
  956MOL0     C28946   2.315  10.319  10.254  0.3316 -0.8673  0.2196
  956MOL0     C28947   2.423  10.241  10.188 -0.4284  0.3622  0.9052
  956MOL0     C28948   2.550  10.322  10.181 -0.3600 -0.0536  0.8130
  956MOL0     O28949   2.580  10.400  10.294  0.7668 -0.9352 -0.0763
  956MOL0     C28950   2.679  10.501  10.285  0.3582  0.6614 -0.2019
  956MOL0     C28951   2.795  10.479  10.200 -0.0207 -0.6881 -0.1969
  956MOL0     C28952   2.901  10.573  10.207 -0.1548 -0.1985 -0.3653
  956MOL0     C28953   3.006  10.547  10.096  0.3418  0.8130  0.2901
  956MOL0     C28954   2.904  10.674  10.307 -0.2221 -0.0445  0.4777
  956MOL0     C28955   3.026  10.754  10.330 -0.2616 -0.3571  0.5599
  956MOL0     O28956   3.003  10.861  10.422 -0.7018 -0.5094 -0.1698
  956MOL0     C28957   3.116  10.940  10.447  0.2758 -0.0998 -0.0304
  956MOL0     C28958   3.136  11.062  10.378  0.2654  0.7472 -0.1315
  956MOL0     C28959   3.242  11.149  10.415  0.3912 -0.8733  0.5681
  956MOL0     C28960   3.337  11.120  10.517 -0.0047 -0.9837 -0.6990
  956MOL0     O28961   3.426  11.212  10.563  0.2612  0.0181 -0.4304
  956MOL0     C28962   3.499  11.289  10.457 -0.4690  0.2947  0.3165
  956MOL0     C28963   3.645  11.278  10.495 -0.1502  0.5714 -0.5361
  956MOL0     C28964   3.732  11.338  10.383  0.2318 -0.0260  0.5824
  956MOL0     C28965   3.676  11.483  10.345  0.6101 -1.0302  0.7484
  956MOL0     C28966   3.767  11.586  10.274  0.5725  0.6043 -0.6918
  956MOL0     C28967   3.868  11.648  10.356 -0.4159  0.3468  0.3984
  956MOL0     C28968   3.948  11.747  10.273  0.2907  0.4816  0.2705
  956MOL0     C28969   4.081  11.771  10.330 -0.2040  0.5211  0.5144
  956MOL0    Cl28970   4.083  11.832  10.498 -0.0764  0.4895 -0.4493
  956MOL0     C28971   3.305  11.004  10.591 -0.3409  0.3041 -0.0640
  956MOL0     C28972   3.202  10.914  10.553  0.0063 -0.5061 -0.7573
  956MOL0     O28973   3.135  10.720  10.284 -0.1117  0.1531  0.2455
  956MOL0     C28974   2.787  10.694  10.379  0.5076 -0.9729 -0.1772
  956MOL0     C28975   2.680  10.612  10.369  0.5476  0.0288  0.0694
  956MOL0     N28976   2.078  10.410  10.407 -0.0509  0.5380 -0.3781
  956MOL0     N28977   1.962  10.451  10.427  0.0140  0.5652 -0.5800
  956MOL0     C28978   0.741  10.275  10.328 -0.9591  0.0571 -0.7361
  956MOL0     C28979   0.659  10.297  10.219 -1.0920 -0.1675 -0.2889
  956MOL0     C28980   0.364  10.532   9.932 -0.3037  1.6806  0.1996
  956MOL0     C28981   0.260  10.434   9.939  0.2153  0.2094  0.4532
  956MOL0     C28982   0.134  10.442   9.882 -0.7361 -0.2802 -0.3661
  956MOL0     C28983   0.110  10.556   9.800  0.2016 -0.3194 -0.3484
  956MOL0     O28984  -0.006  10.569   9.720 -0.4382 -0.7191  0.2888
  956MOL0     C28985   0.013  10.528   9.577  0.4358 -0.2766  0.4955
  956MOL0     C28986  -0.094  10.422   9.547  0.7132  1.5137 -1.4354
  956MOL0     C28987  -0.130  10.397   9.401 -0.2791  0.8072 -0.0761
  956MOL0     C28988  -0.091  10.255   9.345  0.6536  0.3159  0.5371
  956MOL0     C28989  -0.158  10.132   9.400  0.8153  0.1936 -0.7726
  956MOL0     C28990  -0.211  10.027   9.440 -0.1848  0.5409  1.3330
  956MOL0     C28991   0.205  10.667   9.799  0.6405  0.5245  0.1255
  956MOL0     C28992   0.333  10.648   9.859  0.5348  0.7702 -0.5105
  956MOL0     H28993   0.553  10.606  10.307 -0.8323 -1.0312 -0.1081
  956MOL0     H28994   0.721  10.566  10.489  3.7506 -1.4851  0.8950
  956MOL0     H28995   0.947  10.186  10.479  2.2362  0.1876  0.4150
  956MOL0     H28996   1.002  10.328  10.394 -1.9881 -0.1347 -0.7669
  956MOL0     H28997   1.097  10.423  10.610 -0.3646  0.0349  0.5750
  956MOL0     H28998   1.056  10.269  10.689  1.2240 -1.0546 -0.6779
  956MOL0     H28999   1.186  10.139  10.566 -1.1908  0.5493 -3.3972
  956MOL0     H29000   1.243  10.261  10.459  1.7746  0.6209  0.7698
  956MOL0     H29001   1.320  10.392  10.672  2.7205  0.5559  0.7886
  956MOL0     H29002   1.296  10.235  10.754 -0.5874 -0.3162 -1.1151
  956MOL0     H29003   1.535  10.304  10.696  3.0014  0.3097 -2.8018
  956MOL0     H29004   1.496  10.144  10.623  1.8073  0.4595 -0.1806
  956MOL0     H29005   1.461  10.279  10.406  2.2386  0.0668 -0.9563
  956MOL0     H29006   1.472  10.425  10.495 -1.0909  0.4780 -0.6913
  956MOL0     H29007   1.717  10.347  10.579  0.3693 -2.4425 -0.2899
  956MOL0     H29008   1.706  10.210  10.485  1.2239 -0.1404  2.3551
  956MOL0     H29009   1.688  10.489  10.372  1.6454  0.9243 -0.0735
  956MOL0     H29010   1.684  10.333  10.279 -0.0483  0.4103 -0.2015
  956MOL0     H29011   1.915  10.224  10.193 -0.3354 -1.2635  1.0712
  956MOL0     H29012   2.188  10.146  10.331 -0.7188  0.3748  0.9910
  956MOL0     H29013   2.172  10.215  10.164  1.2091 -0.8353  0.2828
  956MOL0     H29014   2.343  10.347  10.357 -1.3287  0.8418  0.2751
  956MOL0     H29015   2.294  10.409  10.196 -2.0280  1.7719  4.5683
  956MOL0     H29016   2.399  10.215  10.084  1.9490  1.3397  0.0457
  956MOL0     H29017   2.440  10.150  10.246 -2.6517 -0.3049  0.6118
  956MOL0     H29018   2.527  10.398  10.105 -0.4720  2.4302  3.1537
  956MOL0     H29019   2.631  10.255  10.151  0.1873  0.6410  0.7094
  956MOL0     H29020   2.794  10.385  10.146  2.8970 -0.7038 -0.3787
  956MOL0     H29021   3.103  10.528  10.143 -1.6230 -3.6022  3.2123
  956MOL0     H29022   2.976  10.464  10.032 -0.3465  1.7320 -0.6011
  956MOL0     H29023   3.019  10.626  10.021  3.2702 -1.0000 -1.3132
  956MOL0     H29024   3.066  11.074  10.296  0.2395 -1.2892 -0.4685
  956MOL0     H29025   3.255  11.242  10.360  0.0862  0.1033  2.0924
  956MOL0     H29026   3.483  11.236  10.362 -0.7231  1.1741 -0.1347
  956MOL0     H29027   3.464  11.392  10.450  0.7750  0.6238 -1.6086
  956MOL0     H29028   3.678  11.326  10.588  1.0131 -2.0284  0.5075
  956MOL0     H29029   3.660  11.170  10.505  0.9773  0.8155  0.6793
  956MOL0     H29030   3.725  11.279  10.291 -3.3244  2.4220 -0.9845
  956MOL0     H29031   3.837  11.347  10.411  0.3024 -0.4569  0.4596
  956MOL0     H29032   3.592  11.467  10.277  0.0827  1.1021  0.8083
  956MOL0     H29033   3.631  11.531  10.432  2.2103 -3.0805  2.8292
  956MOL0     H29034   3.703  11.664  10.233 -1.0456 -0.8976 -1.1492
  956MOL0     H29035   3.796  11.535  10.182 -1.2826  0.9629 -1.5197
  956MOL0     H29036   3.818  11.696  10.440 -0.4502 -0.1959  0.6879
  956MOL0     H29037   3.937  11.577  10.402 -0.3010 -0.2109 -0.5974
  956MOL0     H29038   3.887  11.836  10.252  0.0323  1.1920  3.5642
  956MOL0     H29039   3.959  11.698  10.175 -2.0230  2.6838 -1.2310
  956MOL0     H29040   4.133  11.846  10.269 -2.2601  1.7347  0.1183
  956MOL0     H29041   4.143  11.682  10.322  2.1243  1.6841  3.5920
  956MOL0     H29042   3.360  10.994  10.684 -1.3847  1.2747  0.6790
  956MOL0     H29043   3.173  10.843  10.630  1.9216 -1.9241 -1.2616
  956MOL0     H29044   2.780  10.778  10.448  0.3117  0.7966 -2.2412
  956MOL0     H29045   2.597  10.624  10.437 -0.9913  0.9168 -1.8658
  956MOL0     H29046   0.808  10.191  10.313  0.8363  1.6555 -2.1609
  956MOL0     H29047   0.648  10.226  10.138 -0.3121 -0.3557 -0.2420
  956MOL0     H29048   0.296  10.337   9.972  5.6026  1.6355 -0.3478
  956MOL0     H29049   0.066  10.359   9.866 -0.2201 -0.3663 -2.3929
  956MOL0     H29050   0.004  10.614   9.509  2.4380 -0.9685 -0.7517
  956MOL0     H29051   0.117  10.493   9.572  0.2997 -0.9918  1.9812
  956MOL0     H29052  -0.182  10.465   9.596  2.4209  2.5590  0.8773
  956MOL0     H29053  -0.084  10.323   9.593  0.8281  0.2184 -4.0798
  956MOL0     H29054  -0.090  10.476   9.337 -0.8944  0.0312 -1.4630
  956MOL0     H29055  -0.239  10.394   9.389 -0.3042 -1.4924  0.2632
  956MOL0     H29056   0.017  10.237   9.342  0.4065 -2.4467  3.1458
  956MOL0     H29057  -0.115  10.259   9.238  2.1113 -0.9174  0.1247
  956MOL0     H29058  -0.253   9.936   9.477  0.7556 -2.2832 -3.6882
  956MOL0     H29059   0.200  10.746   9.725  0.0749  0.7787  0.4258
  956MOL0     H29060   0.401  10.732   9.847 -2.0398  3.1554  0.4419
  957MOL0     O29061   5.578   0.856   4.373  1.1916  0.0818 -0.2657
  957MOL0     C29062   5.630   0.766   4.438  0.9894  0.0807  0.4007
  957MOL0     O29063   5.589   0.715   4.560  0.3182 -0.2751 -0.0883
  957MOL0     C29064   5.502   0.809   4.620 -0.3216 -0.9354 -0.2808
  957MOL0     C29065   5.381   0.772   4.682 -0.3099 -0.9530 -0.0542
  957MOL0     C29066   5.319   0.870   4.758  0.4768  0.7951  0.2909
  957MOL0     C29067   5.370   0.998   4.780  0.8449 -0.2711  0.2212
  957MOL0     O29068   5.288   1.079   4.852 -0.5114  0.9211 -0.1057
  957MOL0     C29069   5.331   1.220   4.875 -0.4518  0.4296  0.5584
  957MOL0     C29070   5.234   1.285   4.978 -0.2063  0.0664  0.4634
  957MOL0     C29071   5.095   1.300   4.916  0.4604 -0.5334 -1.3840
  957MOL0     C29072   5.008   1.414   4.987  0.3447 -0.5181 -0.3242
  957MOL0     C29073   4.912   1.481   4.882  0.7051  0.2698 -0.2066
  957MOL0     C29074   4.786   1.392   4.886  0.8389  0.3601 -1.3313
  957MOL0     C29075   4.677   1.439   4.789  0.5295 -0.9816 -0.9620
  957MOL0     C29076   4.602   1.556   4.842 -0.2983  0.3149 -0.6248
  957MOL0     N29077   4.535   1.650   4.754 -0.5341  0.0706 -0.1658
  957MOL0     C29078   4.521   1.652   4.619 -0.9286 -0.3781 -0.6381
  957MOL0     C29079   4.430   1.752   4.606 -0.2016  0.0235  0.7346
  957MOL0     C29080   4.377   1.802   4.474  0.1058 -0.5884  0.7067
  957MOL0     C29081   4.222   1.822   4.489 -0.5463  0.2590 -0.6983
  957MOL0     C29082   4.161   1.829   4.353 -1.3050  0.9072  0.1236
  957MOL0     C29083   4.011   1.840   4.349  0.4353  0.1043 -0.0101
  957MOL0     O29084   3.962   1.722   4.415  0.2135 -0.6762  0.2324
  957MOL0     C29085   3.827   1.690   4.414  0.1228 -0.4384  0.1036
  957MOL0     C29086   3.792   1.571   4.460  0.4559 -0.2598  0.3977
  957MOL0     C29087   3.665   1.522   4.446 -0.0158  0.0013 -0.1496
  957MOL0     C29088   3.642   1.394   4.520  0.0838  0.1835  0.3420
  957MOL0     C29089   3.560   1.607   4.401  0.3085  0.8729 -0.0656
  957MOL0     C29090   3.423   1.572   4.406  0.0510 -0.9463 -0.1900
  957MOL0     O29091   3.394   1.443   4.388 -1.3480  0.2984 -0.6648
  957MOL0     C29092   3.268   1.406   4.409  0.0269  0.0591  0.0905
  957MOL0     C29093   3.149   1.459   4.339  0.2351  0.1063  0.7352
  957MOL0     C29094   3.016   1.415   4.371 -0.4072 -0.6759  1.5870
  957MOL0     C29095   2.994   1.318   4.470  0.3456  0.2955  0.8064
  957MOL0     O29096   2.863   1.289   4.516 -0.3771 -0.0643  0.2569
  957MOL0     C29097   2.740   1.342   4.467 -0.1953 -0.1580 -0.2899
  957MOL0     C29098   2.705   1.277   4.342 -0.0423  0.5011 -0.4937
  957MOL0     C29099   2.589   1.350   4.257  0.4472 -0.2776  1.2315
  957MOL0     C29100   2.547   1.263   4.139 -0.8401 -0.3478 -0.6806
  957MOL0     C29101   2.405   1.290   4.103  0.2662 -0.7154  0.2847
  957MOL0     C29102   2.352   1.185   4.006 -0.2603 -0.5460 -0.9466
  957MOL0     C29103   2.310   1.059   4.078 -0.0755  0.1085 -0.4582
  957MOL0     C29104   2.240   0.974   3.975  0.7128  1.1428 -0.5383
  957MOL0    Cl29105   2.168   0.831   4.065 -0.0772 -0.5301  0.0000
  957MOL0     C29106   3.107   1.262   4.532 -0.5221  0.8928  0.9304
  957MOL0     C29107   3.234   1.310   4.502 -0.6134  0.2643  0.1063
  957MOL0     O29108   3.349   1.669   4.409  0.5893 -0.0294 -0.2938
  957MOL0     C29109   3.599   1.735   4.358  0.5758 -0.2994 -0.4316
  957MOL0     C29110   3.731   1.784   4.369  0.3046  0.1132  0.7294
  957MOL0     N29111   4.409   1.821   4.720  0.4504  0.2650 -0.5398
  957MOL0     N29112   4.472   1.754   4.811  0.7624 -0.3143  0.6790
  957MOL0     C29113   5.489   1.031   4.708  0.5135  0.1708  0.2581
  957MOL0     C29114   5.551   0.940   4.635 -0.0416 -0.3607 -0.5295
  957MOL0     C29115   5.756   0.701   4.407  0.6385 -0.1652 -0.1018
  957MOL0     C29116   5.812   0.723   4.278 -0.3778  0.7554 -1.5785
  957MOL0     C29117   5.932   0.660   4.232 -0.6648  0.1071 -0.2330
  957MOL0     C29118   6.004   0.586   4.322  0.3200  0.3660 -0.4077
  957MOL0     O29119   6.124   0.525   4.290  0.9068  0.3377  0.5887
  957MOL0     C29120   6.125   0.449   4.170  0.1593  0.2513 -0.7061
  957MOL0     C29121   6.258   0.387   4.153 -0.4524  1.3999  0.0236
  957MOL0     C29122   6.312   0.292   4.265 -0.0485 -0.0033  0.2372
  957MOL0     C29123   6.407   0.183   4.206  0.4028  1.0843  0.6133
  957MOL0     C29124   6.448   0.077   4.311  0.0307  0.4538  0.5838
  957MOL0     C29125   6.496  -0.004   4.390 -0.1745 -0.8514 -0.1635
  957MOL0     C29126   5.949   0.566   4.449 -0.7624  0.5599  0.3968
  957MOL0     C29127   5.838   0.622   4.488  0.7962 -0.2216  0.2040
  957MOL0     H29128   5.354   0.667   4.679 -0.3904 -0.9320 -0.0369
  957MOL0     H29129   5.224   0.835   4.796 -0.8584 -0.4840 -3.6916
  957MOL0     H29130   5.431   1.232   4.917 -0.4528 -2.1217  1.4554
  957MOL0     H29131   5.338   1.284   4.786 -3.0376  0.9474  0.6209
  957MOL0     H29132   5.229   1.223   5.068  0.5861 -0.2782  0.2794
  957MOL0     H29133   5.275   1.383   5.005 -1.2096  0.3652  0.9845
  957MOL0     H29134   5.111   1.311   4.809  3.0499 -2.7114 -1.3522
  957MOL0     H29135   5.037   1.208   4.930  1.0443 -1.2854 -3.5357
  957MOL0     H29136   4.958   1.386   5.080 -0.2201 -1.0803 -0.7877
  957MOL0     H29137   5.083   1.490   5.012  0.5477  0.4206 -3.3947
  957MOL0     H29138   4.883   1.577   4.926  0.5405 -0.2780  0.9034
  957MOL0     H29139   4.954   1.491   4.781 -2.5508 -2.2430 -2.0016
  957MOL0     H29140   4.813   1.288   4.866 -2.0120 -0.2524 -2.3924
  957MOL0     H29141   4.750   1.386   4.990  0.2478 -1.6481 -1.6123
  957MOL0     H29142   4.737   1.477   4.705  6.1374  1.3549  3.4008
  957MOL0     H29143   4.602   1.364   4.760 -2.3027  1.6947 -1.0616
  957MOL0     H29144   4.676   1.617   4.895 -0.7351  2.1643 -2.0385
  957MOL0     H29145   4.523   1.522   4.910  0.1163 -1.5465 -1.0092
  957MOL0     H29146   4.583   1.610   4.541  3.5697 -0.7126  2.7025
  957MOL0     H29147   4.427   1.893   4.440 -2.4914  0.6497 -0.0516
  957MOL0     H29148   4.382   1.721   4.401 -1.7959  0.7268 -0.9908
  957MOL0     H29149   4.225   1.925   4.526  0.3142 -0.1033  0.3186
  957MOL0     H29150   4.170   1.757   4.560  1.1632 -2.1153 -1.4860
  957MOL0     H29151   4.183   1.744   4.289  1.4263  1.3032  0.4517
  957MOL0     H29152   4.207   1.910   4.296  0.6244 -1.3812 -1.7456
  957MOL0     H29153   3.976   1.840   4.246  1.3338 -1.2896 -0.3277
  957MOL0     H29154   3.971   1.927   4.403  0.3832 -0.6778  1.2544
  957MOL0     H29155   3.866   1.504   4.502  2.2152  2.2880  1.6440
  957MOL0     H29156   3.735   1.341   4.543  0.2906 -0.5522 -1.9553
  957MOL0     H29157   3.589   1.415   4.614  1.8097  2.3850  0.9331
  957MOL0     H29158   3.603   1.326   4.445  1.5852  0.5645 -0.8151
  957MOL0     H29159   3.167   1.543   4.274 -1.1284 -1.3961 -1.7137
  957MOL0     H29160   2.939   1.470   4.317 -0.1459  0.6681  2.5158
  957MOL0     H29161   2.661   1.322   4.541  0.1930 -2.6875 -0.4853
  957MOL0     H29162   2.751   1.451   4.456 -3.8428  0.2790 -1.0640
  957MOL0     H29163   2.791   1.249   4.282 -1.4609  1.5782 -3.2313
  957MOL0     H29164   2.666   1.179   4.372 -4.5013  1.6682 -1.6591
  957MOL0     H29165   2.606   1.449   4.216 -4.4076  0.1599 -0.3409
  957MOL0     H29166   2.506   1.362   4.327  0.0502  0.4332  0.6489
  957MOL0     H29167   2.617   1.278   4.056  2.8616 -2.2147  1.8624
  957MOL0     H29168   2.566   1.158   4.162 -1.6058 -0.2336  0.5513
  957MOL0     H29169   2.410   1.389   4.056  0.4551 -0.8656 -0.0153
  957MOL0     H29170   2.332   1.292   4.184 -1.5762 -1.5982 -1.2709
  957MOL0     H29171   2.261   1.225   3.960  0.9573  2.4426 -0.9742
  957MOL0     H29172   2.429   1.151   3.936 -0.9592 -1.2345 -1.3871
  957MOL0     H29173   2.250   1.072   4.168 -0.6241 -2.3089 -0.4002
  957MOL0     H29174   2.392   1.000   4.121 -2.7211 -2.0881  1.9529
  957MOL0     H29175   2.319   0.948   3.904  2.0300 -0.5357  1.4255
  957MOL0     H29176   2.155   1.033   3.940 -1.1223 -1.2961 -0.4741
  957MOL0     H29177   3.109   1.191   4.613 -1.5316 -0.3801 -0.1074
  957MOL0     H29178   3.303   1.276   4.578  0.3758  1.8293 -0.0356
  957MOL0     H29179   3.520   1.797   4.316 -1.0757 -1.4304  0.8835
  957MOL0     H29180   3.760   1.882   4.334  0.1036 -0.4962 -1.2839
  957MOL0     H29181   5.538   1.128   4.710  0.0615  0.4197  2.2867
  957MOL0     H29182   5.643   0.977   4.589  2.5818 -1.5010  3.2880
  957MOL0     H29183   5.759   0.784   4.206 -0.0804  0.4730 -2.0456
  957MOL0     H29184   5.976   0.675   4.134  0.6104 -0.7063  0.1991
  957MOL0     H29185   6.040   0.380   4.179 -0.2806  0.4710 -2.6845
  957MOL0     H29186   6.100   0.512   4.084 -1.8076  1.3089  0.5460
  957MOL0     H29187   6.340   0.457   4.130  0.4778 -0.1921 -1.8277
  957MOL0     H29188   6.242   0.327   4.063  1.5502  0.5549  0.1710
  957MOL0     H29189   6.231   0.245   4.322  0.2991 -1.3749 -0.3754
  957MOL0     H29190   6.379   0.346   4.331 -0.4154  1.0471 -0.2142
  957MOL0     H29191   6.491   0.227   4.151  0.7110 -1.3573 -1.0237
  957MOL0     H29192   6.355   0.128   4.127  1.8220  2.8155 -1.6559
  957MOL0     H29193   6.533  -0.072   4.464 -2.1938 -0.9245  0.8588
  957MOL0     H29194   6.001   0.499   4.517  1.6096 -0.7808 -2.4860
  957MOL0     H29195   5.814   0.601   4.591  3.9237  0.9080  1.2660
  958MOL0     O29196   3.521   7.147   2.554  0.5332 -0.2398 -0.8140
  958MOL0     C29197   3.460   7.233   2.494 -1.3003  0.2616  1.2263
  958MOL0     O29198   3.340   7.216   2.438 -0.3466  0.4181 -0.0328
  958MOL0     C29199   3.273   7.095   2.440  0.1680  0.2379  0.1223
  958MOL0     C29200   3.277   6.999   2.547 -0.2404 -0.1611 -0.3234
  958MOL0     C29201   3.203   6.882   2.547 -0.3978 -0.7720 -0.0543
  958MOL0     C29202   3.104   6.869   2.453  0.5565  0.0409  1.4199
  958MOL0     O29203   3.016   6.764   2.466 -0.0328  0.1626 -0.5987
  958MOL0     C29204   3.068   6.629   2.516 -0.4389 -0.6966 -0.3363
  958MOL0     C29205   2.957   6.551   2.577 -0.8551  0.7667  0.3553
  958MOL0     C29206   2.931   6.590   2.720  0.2310  0.1966  0.3190
  958MOL0     C29207   2.788   6.528   2.756  0.5468 -0.1592 -0.6785
  958MOL0     C29208   2.740   6.586   2.884  0.1630 -0.5459 -1.0146
  958MOL0     C29209   2.582   6.568   2.903 -0.5586  0.1416  0.4320
  958MOL0     C29210   2.540   6.596   3.048 -0.2780 -0.1889  0.2610
  958MOL0     C29211   2.395   6.577   3.064 -0.5221 -0.7542 -0.4026
  958MOL0     N29212   2.350   6.649   3.185  0.6775  0.1997  0.1507
  958MOL0     C29213   2.259   6.602   3.275  0.6483  0.3541  0.6417
  958MOL0     C29214   2.238   6.708   3.356 -0.3021  0.9344 -1.0681
  958MOL0     C29215   2.151   6.733   3.484 -0.2994 -0.6578  0.1444
  958MOL0     C29216   2.240   6.734   3.613 -0.6841  0.2734  0.0759
  958MOL0     C29217   2.308   6.605   3.624  0.2649  0.6311  0.0919
  958MOL0     C29218   2.404   6.606   3.750 -0.3960 -0.0042  1.1327
  958MOL0     O29219   2.354   6.676   3.865 -0.4146  0.3631 -0.1038
  958MOL0     C29220   2.251   6.613   3.934 -0.5787 -0.9709 -0.1898
  958MOL0     C29221   2.210   6.482   3.927 -0.8788 -0.1827 -0.5091
  958MOL0     C29222   2.097   6.435   3.993  0.0136 -0.0355 -0.5649
  958MOL0     C29223   2.067   6.280   4.002  0.1675  0.0138 -0.2533
  958MOL0     C29224   2.011   6.523   4.072 -0.6355 -0.6431 -0.2214
  958MOL0     C29225   1.888   6.489   4.145  0.5436 -0.3820  0.4015
  958MOL0     O29226   1.775   6.549   4.112  0.8067 -0.2639 -0.4980
  958MOL0     C29227   1.664   6.544   4.191 -0.4874  0.1549  0.1732
  958MOL0     C29228   1.677   6.539   4.333 -0.1082 -0.1923  0.3366
  958MOL0     C29229   1.565   6.552   4.413 -0.0575  0.5013 -1.0166
  958MOL0     C29230   1.436   6.560   4.362 -0.0830  0.4834 -0.2264
  958MOL0     O29231   1.327   6.549   4.434 -0.6468 -0.1797 -0.2800
  958MOL0     C29232   1.333   6.531   4.575  0.5728  0.7131 -0.7647
  958MOL0     C29233   1.187   6.498   4.627 -0.6928  1.1781 -0.2518
  958MOL0     C29234   1.066   6.574   4.567  0.5058  0.2940  0.3236
  958MOL0     C29235   0.993   6.490   4.470  0.2246  0.7334  0.5543
  958MOL0     C29236   0.846   6.538   4.451 -0.0600 -0.4057  0.0662
  958MOL0     C29237   0.769   6.432   4.373  0.4770  0.4184 -0.2231
  958MOL0     C29238   0.797   6.417   4.222 -0.1072  0.8006  0.5999
  958MOL0     C29239   0.806   6.559   4.147  0.0220  0.7948 -0.2587
  958MOL0    Cl29240   0.651   6.649   4.145 -0.0414  0.1273 -0.0373
  958MOL0     C29241   1.420   6.560   4.221  0.2215  0.4070  0.3858
  958MOL0     C29242   1.532   6.549   4.135  0.2118 -0.3019  0.0328
  958MOL0     O29243   1.905   6.401   4.230 -0.7514 -0.0831  0.1242
  958MOL0     C29244   2.048   6.663   4.063  0.1045  0.1204  0.1222
  958MOL0     C29245   2.165   6.703   3.997  0.0742 -1.2859 -0.5874
  958MOL0     N29246   2.317   6.816   3.320  0.1697  0.5096 -0.2698
  958MOL0     N29247   2.388   6.778   3.225 -0.0169  0.5412  0.5288
  958MOL0     C29248   3.102   6.959   2.342  0.0505 -1.2714  1.4169
  958MOL0     C29249   3.190   7.069   2.332 -0.4364  0.2980  0.5716
  958MOL0     C29250   3.520   7.370   2.498 -1.0655 -0.1409 -0.3609
  958MOL0     C29251   3.652   7.398   2.542  0.2048 -0.2280  0.4386
  958MOL0     C29252   3.695   7.534   2.542 -0.7559 -0.2082  0.2476
  958MOL0     C29253   3.606   7.639   2.515 -0.4833  0.2156 -0.0360
  958MOL0     O29254   3.633   7.777   2.499  0.5021  0.2608 -0.1202
  958MOL0     C29255   3.727   7.808   2.396 -0.9630  0.4672  1.0285
  958MOL0     C29256   3.742   7.959   2.353  0.9509  0.8304  0.3767
  958MOL0     C29257   3.833   8.044   2.437 -0.3136 -0.4726  0.3194
  958MOL0     C29258   3.976   7.998   2.470  0.3892  0.2988  0.7058
  958MOL0     C29259   4.052   7.979   2.347  0.7549  0.1280 -0.4479
  958MOL0     C29260   4.086   7.956   2.231  0.6941  0.0777 -0.2326
  958MOL0     C29261   3.476   7.606   2.481  0.4044 -0.2287  0.3587
  958MOL0     C29262   3.432   7.480   2.473 -0.3204  0.1588 -0.6631
  958MOL0     H29263   3.342   7.011   2.633  1.3372 -1.3535 -1.2829
  958MOL0     H29264   3.212   6.823   2.638 -0.0926  0.1490  0.5194
  958MOL0     H29265   3.111   6.579   2.429 -1.8168 -1.2710 -0.7274
  958MOL0     H29266   3.137   6.644   2.600 -0.1730 -3.0000 -0.0952
  958MOL0     H29267   2.875   6.568   2.506 -0.0161  0.8413 -0.6215
  958MOL0     H29268   2.993   6.450   2.558 -0.2056  1.3282 -1.6398
  958MOL0     H29269   3.011   6.548   2.782  0.8134  0.0628 -0.5076
  958MOL0     H29270   2.931   6.699   2.730 -1.5395  0.0749  2.6563
  958MOL0     H29271   2.713   6.564   2.686  0.7096 -0.0012 -0.7726
  958MOL0     H29272   2.787   6.420   2.772 -0.2139  0.1858  2.2428
  958MOL0     H29273   2.794   6.539   2.966 -1.0116  0.2100  0.2458
  958MOL0     H29274   2.751   6.694   2.896  1.9219 -0.4741 -2.7819
  958MOL0     H29275   2.534   6.629   2.825  0.2314  0.4044  0.1473
  958MOL0     H29276   2.548   6.467   2.881  0.5439 -0.9595  3.3498
  958MOL0     H29277   2.590   6.530   3.119 -1.7229 -0.0933  1.4329
  958MOL0     H29278   2.573   6.696   3.078  0.8185 -0.4287 -0.1117
  958MOL0     H29279   2.365   6.472   3.069 -1.3094 -0.8256 -4.2677
  958MOL0     H29280   2.342   6.614   2.976 -0.4322  0.9231  0.2192
  958MOL0     H29281   2.210   6.507   3.262 -0.0465  1.0907 -3.5512
  958MOL0     H29282   2.091   6.825   3.476 -0.1965 -0.7542 -2.3774
  958MOL0     H29283   2.070   6.661   3.498 -0.3244 -0.4802  0.9478
  958MOL0     H29284   2.188   6.752   3.708 -0.5736 -4.2141  1.2440
  958MOL0     H29285   2.319   6.809   3.610  2.6329 -2.8936  0.4275
  958MOL0     H29286   2.362   6.564   3.538 -0.7577 -1.3688  0.3431
  958MOL0     H29287   2.235   6.526   3.645  2.6019 -1.0690  2.4710
  958MOL0     H29288   2.487   6.668   3.716 -0.9396  0.2405  0.2127
  958MOL0     H29289   2.440   6.504   3.766  0.7446 -0.6230 -3.6670
  958MOL0     H29290   2.272   6.403   3.886  1.1681  1.7102 -1.2861
  958MOL0     H29291   2.138   6.214   3.951  0.5784 -0.4094  0.8332
  958MOL0     H29292   2.074   6.252   4.108  2.1353 -3.3607 -1.1292
  958MOL0     H29293   1.965   6.270   3.966  0.6192  1.7016 -2.1765
  958MOL0     H29294   1.774   6.550   4.381  0.4008  0.0623 -0.7002
  958MOL0     H29295   1.578   6.547   4.521 -1.2369 -1.4814 -0.9084
  958MOL0     H29296   1.403   6.450   4.598 -0.8223 -0.7136 -1.3767
  958MOL0     H29297   1.363   6.620   4.631 -0.6810  0.5866  0.1479
  958MOL0     H29298   1.177   6.391   4.609 -0.1616  0.8204  1.4076
  958MOL0     H29299   1.180   6.508   4.736 -3.6138 -1.4670 -0.0700
  958MOL0     H29300   1.091   6.666   4.513  3.0082 -0.5312 -0.0991
  958MOL0     H29301   1.014   6.595   4.660  2.4951  0.2995  1.4964
  958MOL0     H29302   1.047   6.502   4.376  4.6946  0.4508  2.8472
  958MOL0     H29303   1.001   6.384   4.496  0.9617  1.7792  5.4751
  958MOL0     H29304   0.836   6.631   4.395 -0.4559 -1.1792 -1.1892
  958MOL0     H29305   0.796   6.559   4.545 -1.0245 -0.0453 -0.5151
  958MOL0     H29306   0.784   6.335   4.420  1.4360  0.3386 -0.6859
  958MOL0     H29307   0.663   6.459   4.384 -0.2539 -1.7126 -1.5278
  958MOL0     H29308   0.710   6.369   4.176 -0.4354  1.9534 -0.0192
  958MOL0     H29309   0.889   6.360   4.203 -0.6972  0.9459 -3.6303
  958MOL0     H29310   0.826   6.522   4.047 -0.8764  0.2884 -0.2639
  958MOL0     H29311   0.876   6.632   4.190 -2.2397  2.7353  0.3759
  958MOL0     H29312   1.324   6.560   4.171  0.4746  2.4586 -0.1919
  958MOL0     H29313   1.514   6.543   4.028 -2.7544  1.2434  0.3460
  958MOL0     H29314   1.989   6.746   4.104  2.7037  1.8652  0.5774
  958MOL0     H29315   2.181   6.810   3.986 -2.1238 -0.9787 -1.4570
  958MOL0     H29316   3.026   6.948   2.264  1.5236 -1.3287 -0.0733
  958MOL0     H29317   3.183   7.138   2.248  2.3179  0.9903  0.8248
  958MOL0     H29318   3.726   7.323   2.566  0.5116  0.4473  1.6963
  958MOL0     H29319   3.794   7.558   2.579 -0.8297  1.4965 -0.5217
  958MOL0     H29320   3.829   7.791   2.429  1.3448  5.3860 -2.3258
  958MOL0     H29321   3.718   7.755   2.300 -0.7946  1.6864  0.3166
  958MOL0     H29322   3.641   8.000   2.340  0.3713 -0.3818  0.8884
  958MOL0     H29323   3.778   7.963   2.250 -0.8445  2.7738 -0.2419
  958MOL0     H29324   3.782   8.064   2.532  1.5915 -1.1612  1.5325
  958MOL0     H29325   3.850   8.132   2.374 -0.4869 -2.4702 -2.7483
  958MOL0     H29326   3.964   7.903   2.523  0.3188 -0.3336 -0.3937
  958MOL0     H29327   4.025   8.067   2.539  1.8407 -0.6670  0.6868
  958MOL0     H29328   4.109   7.949   2.127  2.1726  4.7759 -0.4649
  958MOL0     H29329   3.405   7.683   2.451 -4.1056 -3.2921  1.9751
  958MOL0     H29330   3.335   7.457   2.430  0.7488 -1.7225 -2.2048
  959MOL0     O29331   7.553   3.911   8.037  0.4744 -0.2691 -0.4148
  959MOL0     C29332   7.457   3.987   8.039  0.0547 -0.2395  0.4473
  959MOL0     O29333   7.462   4.123   8.010  0.5565 -0.0068  0.0365
  959MOL0     C29334   7.585   4.190   8.004 -0.2337  0.5146  0.1878
  959MOL0     C29335   7.647   4.238   8.118 -0.0417  1.6526 -1.2258
  959MOL0     C29336   7.774   4.292   8.110 -0.2995 -0.2008 -0.4593
  959MOL0     C29337   7.836   4.310   7.979 -0.2886  0.0860 -0.1288
  959MOL0     O29338   7.953   4.378   7.956  0.5317  0.3844 -0.0438
  959MOL0     C29339   8.004   4.455   8.055 -0.7586  0.0426  0.2922
  959MOL0     C29340   8.109   4.541   7.985  0.4139  0.1452 -0.1814
  959MOL0     C29341   8.175   4.645   8.075 -0.6512  0.2984  0.7305
  959MOL0     C29342   8.243   4.759   7.992 -0.1786  0.2766  1.0407
  959MOL0     C29343   8.355   4.704   7.896 -1.1653  0.3790 -1.4300
  959MOL0     C29344   8.413   4.830   7.826  0.3155 -0.7634  0.6890
  959MOL0     C29345   8.509   4.806   7.709  0.8779 -0.2190  0.7689
  959MOL0     C29346   8.552   4.938   7.634  0.3172 -0.2531  0.7651
  959MOL0     N29347   8.689   4.949   7.576 -0.0997 -0.3357  0.2232
  959MOL0     C29348   8.773   5.052   7.602  0.1076  0.9384 -0.2582
  959MOL0     C29349   8.885   5.033   7.524  0.4772  0.2285 -0.8021
  959MOL0     C29350   9.020   5.100   7.523  0.4906 -0.2356  0.1437
  959MOL0     C29351   9.013   5.234   7.443 -1.0653  0.1267 -0.3188
  959MOL0     C29352   9.145   5.322   7.456  0.1490 -0.3092 -0.3277
  959MOL0     C29353   9.261   5.264   7.379  0.1888  0.3638  0.6686
  959MOL0     O29354   9.227   5.235   7.244 -0.7955  0.5425  0.4475
  959MOL0     C29355   9.329   5.177   7.163  0.2153 -0.2369  0.2011
  959MOL0     C29356   9.461   5.145   7.203 -0.8519 -0.1491  0.2432
  959MOL0     C29357   9.562   5.099   7.103  0.4777  0.1873  0.2302
  959MOL0     C29358   9.697   5.095   7.157 -0.3621  0.4507 -0.1080
  959MOL0     C29359   9.513   5.063   6.970  0.4170 -0.6079 -0.6356
  959MOL0     C29360   9.599   5.012   6.863  0.2820 -0.0499  0.3646
  959MOL0     O29361   9.537   4.960   6.760  0.3828 -0.1562 -1.0126
  959MOL0     C29362   9.606   4.963   6.647 -0.1984 -0.0524  0.3740
  959MOL0     C29363   9.669   5.079   6.591 -0.1565  0.1921  0.1400
  959MOL0     C29364   9.731   5.064   6.469 -1.3778  0.3255  0.0668
  959MOL0     C29365   9.752   4.939   6.408 -0.2693 -0.5778 -1.3799
  959MOL0     O29366   9.833   4.943   6.301  0.7740 -0.4663  0.5609
  959MOL0     C29367   9.879   4.831   6.228 -0.0452 -0.3144  0.4081
  959MOL0     C29368  10.017   4.866   6.160 -0.6990 -0.2917  0.3769
  959MOL0     C29369  10.009   4.976   6.057  0.3197  0.2537  0.3524
  959MOL0     C29370  10.140   4.982   5.973  0.6188 -0.2705 -0.3811
  959MOL0     C29371  10.136   5.087   5.865  0.4462 -0.5939  0.1385
  959MOL0     C29372  10.278   5.117   5.804  0.6111 -0.3861 -0.6220
  959MOL0     C29373  10.263   5.161   5.656  0.8543  0.5251  1.2203
  959MOL0     C29374  10.398   5.218   5.607  0.2501 -0.0752  0.7182
  959MOL0    Cl29375  10.554   5.106   5.604 -0.1530 -0.1298 -0.2822
  959MOL0     C29376   9.684   4.832   6.459 -0.2534 -0.1573  0.0192
  959MOL0     C29377   9.610   4.844   6.574  0.6806 -0.5342 -0.3249
  959MOL0     O29378   9.719   5.008   6.886 -0.0257 -0.0565 -1.1948
  959MOL0     C29379   9.373   5.081   6.946  0.0865 -0.2316 -0.1435
  959MOL0     C29380   9.287   5.136   7.042  0.4802  0.2730 -0.2971
  959MOL0     N29381   8.857   4.916   7.463 -0.0677  0.6756  0.3923
  959MOL0     N29382   8.746   4.865   7.495  0.6384  0.5959  0.4396
  959MOL0     C29383   7.774   4.266   7.860  0.3975 -0.5976 -0.1902
  959MOL0     C29384   7.646   4.211   7.877 -0.1664  0.7875 -0.5573
  959MOL0     C29385   7.331   3.920   8.071  0.8308 -0.0831  0.3214
  959MOL0     C29386   7.305   3.778   8.065 -0.4810 -0.2620  0.1941
  959MOL0     C29387   7.171   3.726   8.087  0.2264 -0.0651  0.3253
  959MOL0     C29388   7.058   3.811   8.116 -0.8348 -0.5844 -0.8315
  959MOL0     O29389   6.925   3.766   8.131 -0.9739 -0.7859 -0.2138
  959MOL0     C29390   6.897   3.655   8.039 -1.2190  0.1068 -0.2835
  959MOL0     C29391   6.758   3.660   7.979  0.4586  0.3228  0.0845
  959MOL0     C29392   6.645   3.641   8.081 -0.3401  1.2430  0.1447
  959MOL0     C29393   6.525   3.598   7.999  0.1701 -0.9439  0.6669
  959MOL0     C29394   6.419   3.594   8.099  0.2496  0.4996 -0.2376
  959MOL0     C29395   6.337   3.593   8.188  1.0537  0.1527 -0.0627
  959MOL0     C29396   7.091   3.947   8.114 -1.1425 -0.2933 -0.4513
  959MOL0     C29397   7.222   4.000   8.098  0.4874 -0.0554 -1.0068
  959MOL0     H29398   7.623   4.226   8.223  0.4981  0.3664 -1.2243
  959MOL0     H29399   7.815   4.336   8.200 -1.1062  2.4722 -1.2972
  959MOL0     H29400   7.926   4.520   8.094 -0.9748  0.3613 -0.6333
  959MOL0     H29401   8.052   4.388   8.127  0.4767  0.5687 -0.0081
  959MOL0     H29402   8.184   4.481   7.933  2.3053  0.1012  2.4160
  959MOL0     H29403   8.049   4.599   7.914 -1.8047 -0.0225  1.4670
  959MOL0     H29404   8.106   4.698   8.141 -1.8673  1.3352 -1.2793
  959MOL0     H29405   8.249   4.595   8.139 -0.5557 -3.2224 -1.8368
  959MOL0     H29406   8.171   4.806   7.925  1.1090  1.4773  0.4405
  959MOL0     H29407   8.266   4.846   8.054 -0.6956  0.6468  0.7164
  959MOL0     H29408   8.435   4.651   7.949 -2.0122  0.3337 -0.1404
  959MOL0     H29409   8.307   4.647   7.815 -0.7112 -0.4843 -1.1061
  959MOL0     H29410   8.329   4.894   7.795  1.9240  0.5575 -1.2227
  959MOL0     H29411   8.468   4.879   7.906  0.3025 -2.3622  1.7157
  959MOL0     H29412   8.584   4.744   7.760  2.0683 -0.3290 -1.0497
  959MOL0     H29413   8.461   4.739   7.638  0.2386  0.6100  0.4046
  959MOL0     H29414   8.525   5.019   7.702  1.7960 -0.0056  1.1001
  959MOL0     H29415   8.495   4.951   7.542 -0.6707 -0.7274  1.2975
  959MOL0     H29416   8.748   5.134   7.669 -1.3420 -0.0784  0.4790
  959MOL0     H29417   9.051   5.123   7.625  2.3920 -0.5813 -0.3226
  959MOL0     H29418   9.096   5.037   7.476  0.3183 -1.0622  0.9432
  959MOL0     H29419   8.931   5.298   7.477 -0.3898  0.8560 -0.0463
  959MOL0     H29420   8.987   5.205   7.340 -0.9662 -0.9677 -0.0522
  959MOL0     H29421   9.172   5.338   7.561 -0.8870  1.2698 -0.2726
  959MOL0     H29422   9.126   5.424   7.422 -1.4940  0.0489  1.4486
  959MOL0     H29423   9.304   5.179   7.434  4.1367  2.1560  0.6704
  959MOL0     H29424   9.339   5.340   7.367  0.4378  0.3455  1.9993
  959MOL0     H29425   9.493   5.170   7.304  2.0243 -1.0828 -0.3647
  959MOL0     H29426   9.687   5.095   7.266 -0.8653  0.1546 -0.1507
  959MOL0     H29427   9.756   5.011   7.119 -0.6866  1.6971 -3.7707
  959MOL0     H29428   9.753   5.185   7.130 -1.6837  1.3298 -0.0301
  959MOL0     H29429   9.665   5.172   6.647  4.4961  0.5694  0.2160
  959MOL0     H29430   9.780   5.144   6.414 -3.5134  0.5931 -1.5789
  959MOL0     H29431   9.878   4.736   6.281 -0.7800  0.2493  1.4551
  959MOL0     H29432   9.803   4.827   6.149  0.3286  2.5703 -0.2126
  959MOL0     H29433  10.083   4.894   6.243 -1.5838 -1.3862  1.4783
  959MOL0     H29434  10.062   4.774   6.122  1.4188  0.4245  0.9989
  959MOL0     H29435   9.983   5.073   6.098 -0.4798  0.0273  0.3975
  959MOL0     H29436   9.931   4.947   5.985  0.7292 -0.9128  0.3578
  959MOL0     H29437  10.229   4.995   6.036 -0.1279  1.4687  0.3864
  959MOL0     H29438  10.144   4.892   5.912 -2.1193 -0.1671 -0.8005
  959MOL0     H29439  10.101   5.182   5.906  0.0151 -0.1210 -1.2716
  959MOL0     H29440  10.071   5.049   5.786  1.0026  2.8457 -2.1983
  959MOL0     H29441  10.317   5.193   5.873  1.4787 -0.3798 -1.1092
  959MOL0     H29442  10.339   5.027   5.797  2.1206  0.5814 -0.4141
  959MOL0     H29443  10.179   5.229   5.638  0.1472 -0.2161  1.6562
  959MOL0     H29444  10.238   5.082   5.585  1.1770  1.4580  0.0355
  959MOL0     H29445  10.424   5.313   5.654  4.0667  0.8034 -2.5945
  959MOL0     H29446  10.381   5.241   5.502  4.6572 -0.8238 -0.3424
  959MOL0     H29447   9.686   4.732   6.416 -0.8555 -0.2637  0.2201
  959MOL0     H29448   9.564   4.753   6.611 -2.1970  1.8135  2.5395
  959MOL0     H29449   9.331   5.037   6.856 -2.3741 -0.0776  0.8487
  959MOL0     H29450   9.189   5.170   7.008  0.9138 -0.4208 -2.4285
  959MOL0     H29451   7.814   4.276   7.760  2.0423  1.1430  0.5900
  959MOL0     H29452   7.583   4.169   7.798  1.2739  1.1343 -1.9557
  959MOL0     H29453   7.388   3.714   8.037 -0.1697  0.3502 -0.3023
  959MOL0     H29454   7.140   3.622   8.087 -3.7937  0.9167 -2.2624
  959MOL0     H29455   6.962   3.644   7.952 -2.1304 -0.1177 -0.9475
  959MOL0     H29456   6.899   3.565   8.101 -0.8705  0.8963  0.8845
  959MOL0     H29457   6.759   3.584   7.901 -4.1354  2.2800 -2.2522
  959MOL0     H29458   6.742   3.751   7.920 -3.0430  0.5645  1.1958
  959MOL0     H29459   6.624   3.734   8.135 -1.0851  0.9137  0.4367
  959MOL0     H29460   6.662   3.562   8.155  0.9058  3.1642  2.0150
  959MOL0     H29461   6.551   3.503   7.952  2.6003  0.9347 -2.1396
  959MOL0     H29462   6.496   3.660   7.914  1.7030  0.0301  0.8064
  959MOL0     H29463   6.265   3.579   8.266 -0.8424  0.7445 -1.6541
  959MOL0     H29464   7.003   4.008   8.131 -1.1424 -0.6691  1.0183
  959MOL0     H29465   7.248   4.105   8.092  0.7254 -0.1064 -0.8898
  960MOL0     O29466   5.565  11.218   4.400 -0.6417 -0.1179  0.9044
  960MOL0     C29467   5.683  11.180   4.423 -0.0335 -0.4113  0.4904
  960MOL0     O29468   5.757  11.100   4.341 -0.2252  0.1463  0.0457
  960MOL0     C29469   5.715  11.067   4.214 -0.4257  0.0174 -0.0537
  960MOL0     C29470   5.669  11.169   4.123  0.6647 -0.8160 -0.7763
  960MOL0     C29471   5.651  11.143   3.991  0.0524 -1.4181 -0.1796
  960MOL0     C29472   5.672  11.016   3.942 -0.5734 -0.2375 -0.3307
  960MOL0     O29473   5.649  10.986   3.815  0.2413 -0.5560 -0.2994
  960MOL0     C29474   5.696  11.077   3.714 -0.4414  0.2716 -1.2521
  960MOL0     C29475   5.846  11.074   3.721 -0.2500 -1.2036  0.8665
  960MOL0     C29476   5.891  11.188   3.634  0.9374 -0.1500 -0.4576
  960MOL0     C29477   5.877  11.316   3.721  0.5832  0.3207  1.0889
  960MOL0     C29478   5.933  11.441   3.656 -0.0729  0.8788  0.0625
  960MOL0     C29479   5.833  11.495   3.554 -0.5726  0.7505 -0.5857
  960MOL0     C29480   5.905  11.612   3.487  0.4054 -0.4491 -0.3760
  960MOL0     C29481   5.831  11.662   3.360 -0.2281 -0.9133 -0.0453
  960MOL0     N29482   5.706  11.737   3.370  0.0527 -0.6300 -0.6666
  960MOL0     C29483   5.691  11.850   3.453 -0.2271  0.4562  0.5612
  960MOL0     C29484   5.570  11.907   3.417  0.7146  0.9365  0.7887
  960MOL0     C29485   5.504  12.024   3.488  0.1894  0.4373  1.5039
  960MOL0     C29486   5.350  12.001   3.498 -0.7017  0.2480 -0.2489
  960MOL0     C29487   5.296  11.864   3.541  0.0615 -0.2821  1.3171
  960MOL0     C29488   5.145  11.869   3.576  0.0369 -0.7635  0.8991
  960MOL0     O29489   5.117  11.965   3.671  0.4875  0.1017  0.7562
  960MOL0     C29490   4.985  11.986   3.707  0.2113 -0.4842  0.4778
  960MOL0     C29491   4.963  12.062   3.823  0.6214  0.0303  0.0372
  960MOL0     C29492   4.833  12.087   3.875 -0.4789  0.3077  0.8848
  960MOL0     C29493   4.821  12.142   4.011 -0.1874  1.0739  0.3015
  960MOL0     C29494   4.722  12.015   3.815  0.0928  0.6941 -0.4668
  960MOL0     C29495   4.586  12.043   3.856 -0.2067 -0.7339  0.9594
  960MOL0     O29496   4.502  11.938   3.853  0.5682 -1.1099 -0.4273
  960MOL0     C29497   4.381  11.960   3.913 -0.2610 -0.4537  0.5551
  960MOL0     C29498   4.360  11.897   4.039 -0.1656 -0.2241  0.0040
  960MOL0     C29499   4.239  11.922   4.101 -0.0217  0.9091 -0.8917
  960MOL0     C29500   4.140  11.997   4.041  0.1955 -1.3073 -0.4389
  960MOL0     O29501   4.030  12.029   4.108 -0.7469  0.6110 -0.4981
  960MOL0     C29502   3.968  11.918   4.181  0.8647 -0.6278  0.1120
  960MOL0     C29503   3.823  11.958   4.193 -0.2020 -0.6215  0.5795
  960MOL0     C29504   3.752  11.879   4.303  0.2265  0.2857 -0.2881
  960MOL0     C29505   3.614  11.942   4.310 -0.2798 -0.6304 -0.2244
  960MOL0     C29506   3.521  11.893   4.422 -1.5494 -0.1715  0.2463
  960MOL0     C29507   3.561  11.949   4.558  0.8577 -0.5494  0.0311
  960MOL0     C29508   3.459  11.886   4.649  0.3219 -0.2262  0.4283
  960MOL0     C29509   3.470  11.938   4.798  0.3323  0.6411  0.3857
  960MOL0    Cl29510   3.525  11.818   4.911  0.1002  0.1840 -0.3855
  960MOL0     C29511   4.167  12.068   3.923  0.3297 -0.2631 -0.0230
  960MOL0     C29512   4.285  12.036   3.852 -0.5465 -0.9826  0.2380
  960MOL0     O29513   4.553  12.156   3.897  0.5487 -0.5125 -0.2701
  960MOL0     C29514   4.743  11.946   3.694  0.6736 -0.9876 -0.3582
  960MOL0     C29515   4.875  11.932   3.642 -0.6269 -0.0337  0.3155
  960MOL0     N29516   5.523  11.830   3.306 -0.4987 -0.3297 -0.1654
  960MOL0     N29517   5.605  11.733   3.283  0.5251  0.4540  0.8518
  960MOL0     C29518   5.714  10.916   4.028 -0.4470 -0.4652  0.0470
  960MOL0     C29519   5.734  10.940   4.163  0.1720  1.0454  0.8699
  960MOL0     C29520   5.724  11.200   4.560  0.3617 -0.1885 -0.7547
  960MOL0     C29521   5.651  11.291   4.638 -0.7751  0.2608 -0.4254
  960MOL0     C29522   5.694  11.326   4.761 -0.9144 -0.6732  0.0719
  960MOL0     C29523   5.812  11.266   4.817  0.4322 -0.0073 -0.4613
  960MOL0     O29524   5.856  11.325   4.942  0.5624  0.1957  0.5158
  960MOL0     C29525   5.965  11.268   5.010  0.5896  0.1475 -0.5267
  960MOL0     C29526   5.935  11.320   5.147  0.4322 -0.8923  0.6481
  960MOL0     C29527   6.035  11.268   5.251  0.2827  0.2269 -0.0308
  960MOL0     C29528   6.008  11.315   5.394  0.3661 -0.0937  0.1174
  960MOL0     C29529   6.092  11.259   5.501  0.7559 -0.2168  0.1189
  960MOL0     C29530   6.163  11.209   5.589  0.9383 -0.5745 -0.0317
  960MOL0     C29531   5.879  11.172   4.741  0.5810  1.0843  0.6844
  960MOL0     C29532   5.836  11.144   4.610  0.1967 -0.2944 -1.0276
  960MOL0     H29533   5.633  11.264   4.163 -0.5999 -1.6359  0.1114
  960MOL0     H29534   5.598  11.215   3.929  1.7312  0.4272  0.4269
  960MOL0     H29535   5.668  11.039   3.615  0.5856 -0.2034 -1.3716
  960MOL0     H29536   5.646  11.174   3.718 -1.8935 -0.3604 -2.8570
  960MOL0     H29537   5.883  11.088   3.823  2.1312  2.7917 -0.3204
  960MOL0     H29538   5.899  10.990   3.676  2.2309  0.8710 -0.3638
  960MOL0     H29539   6.000  11.178   3.623  0.8808 -3.0605  0.6983
  960MOL0     H29540   5.844  11.188   3.535  0.9704  1.7189 -0.5166
  960MOL0     H29541   5.770  11.328   3.740  0.2965  0.6059 -0.6065
  960MOL0     H29542   5.921  11.308   3.821  0.7826  0.2085  0.9938
  960MOL0     H29543   5.973  11.508   3.733 -0.8037 -0.2342  1.4678
  960MOL0     H29544   6.027  11.424   3.603 -0.7708  4.3217 -2.6669
  960MOL0     H29545   5.806  11.420   3.479 -0.1003  0.9134 -0.9233
  960MOL0     H29546   5.742  11.533   3.601  1.5360  2.7823  2.2056
  960MOL0     H29547   5.926  11.698   3.552  0.2988 -0.0930 -0.7992
  960MOL0     H29548   5.997  11.570   3.445  0.5399 -0.6132  0.0832
  960MOL0     H29549   5.836  11.576   3.294  1.0083 -0.6501 -0.3228
  960MOL0     H29550   5.903  11.726   3.309 -0.9010  0.4311  0.6239
  960MOL0     H29551   5.760  11.883   3.531  3.5569 -3.7883 -0.5872
  960MOL0     H29552   5.557  12.038   3.583  1.9586 -0.2715  0.6703
  960MOL0     H29553   5.523  12.113   3.428 -1.2749  1.2951  2.2689
  960MOL0     H29554   5.311  12.016   3.397  0.1845  0.6354 -0.5468
  960MOL0     H29555   5.307  12.082   3.559 -0.1705 -0.3370  0.9429
  960MOL0     H29556   5.339  11.837   3.637 -2.2249  1.0293  2.8022
  960MOL0     H29557   5.317  11.784   3.469 -0.9912 -0.7894  1.5602
  960MOL0     H29558   5.111  11.771   3.612  0.4580 -0.3223  2.6264
  960MOL0     H29559   5.090  11.893   3.485  1.3140  0.4422  0.4141
  960MOL0     H29560   5.057  12.103   3.858  1.1159 -1.2196  0.2033
  960MOL0     H29561   4.918  12.140   4.060  0.3637  0.7025 -0.7690
  960MOL0     H29562   4.791  12.246   4.000 -1.3415  0.5914 -1.6433
  960MOL0     H29563   4.749  12.082   4.067  1.7122 -1.0692  0.5732
  960MOL0     H29564   4.432  11.835   4.092 -1.1327  1.8704  4.2205
  960MOL0     H29565   4.227  11.891   4.205 -3.4816  0.9996 -1.1709
  960MOL0     H29566   3.964  11.826   4.122 -1.6765 -0.7008  0.2901
  960MOL0     H29567   4.015  11.911   4.280  2.6443  2.2741 -0.4037
  960MOL0     H29568   3.829  12.064   4.220 -1.2593 -0.8727  1.8956
  960MOL0     H29569   3.767  11.957   4.099 -0.7311 -2.4756  0.8883
  960MOL0     H29570   3.793  11.878   4.404  0.5907  1.3576 -0.4122
  960MOL0     H29571   3.739  11.774   4.277  1.1516  0.1060 -0.0435
  960MOL0     H29572   3.624  12.048   4.333 -0.3653 -0.3885 -1.2507
  960MOL0     H29573   3.569  11.943   4.210  0.0979  0.0703 -0.3903
  960MOL0     H29574   3.520  11.785   4.407  0.5598 -0.4145  1.3984
  960MOL0     H29575   3.419  11.923   4.399 -1.7519  0.3627  1.7588
  960MOL0     H29576   3.660  11.912   4.584 -0.0559 -1.3113  2.7205
  960MOL0     H29577   3.563  12.058   4.573 -1.8724 -0.6016  1.3445
  960MOL0     H29578   3.448  11.778   4.645 -0.1417 -0.1437 -0.7369
  960MOL0     H29579   3.360  11.913   4.613  0.4617  1.2382  1.0658
  960MOL0     H29580   3.381  11.981   4.846  1.4497  1.0047  2.2526
  960MOL0     H29581   3.543  12.020   4.799  0.5351  0.5650 -2.0396
  960MOL0     H29582   4.100  12.144   3.882  0.0122 -1.3239 -1.5647
  960MOL0     H29583   4.315  12.078   3.757 -0.5980 -0.6776  0.3558
  960MOL0     H29584   4.658  11.906   3.641 -0.4162  1.3178 -0.4563
  960MOL0     H29585   4.883  11.879   3.548 -0.3864 -0.7754  0.7417
  960MOL0     H29586   5.737  10.820   3.982  5.0135  0.0692  1.0160
  960MOL0     H29587   5.771  10.865   4.232 -1.1392 -0.8849 -0.4312
  960MOL0     H29588   5.566  11.339   4.590 -0.6905  0.5640 -0.2756
  960MOL0     H29589   5.635  11.408   4.799  0.2839  0.8658 -1.2615
  960MOL0     H29590   5.951  11.160   5.012 -0.0843  0.2306  0.6911
  960MOL0     H29591   6.065  11.295   4.975  1.4939 -1.0256  1.0199
  960MOL0     H29592   5.832  11.290   5.171  0.9286 -2.7380  0.6112
  960MOL0     H29593   5.934  11.429   5.141  1.9088 -0.7934 -6.3934
  960MOL0     H29594   6.136  11.287   5.215  0.8163 -2.2888 -0.0924
  960MOL0     H29595   6.030  11.159   5.258 -4.3731  0.2793  0.6019
  960MOL0     H29596   5.911  11.269   5.417 -0.6857  1.5593 -0.7545
  960MOL0     H29597   6.002  11.424   5.396 -0.4073 -0.1282  2.8123
  960MOL0     H29598   6.242  11.160   5.641  2.1043  2.6630  1.5725
  960MOL0     H29599   5.978  11.132   4.762  1.1002  1.9189 -0.1109
  960MOL0     H29600   5.888  11.062   4.561  0.0831 -0.9960 -0.0267
  961MOL0     O29601   9.452   2.469   4.450 -0.0462  0.6349  0.5676
  961MOL0     C29602   9.445   2.563   4.374  1.2375 -0.1019 -0.6854
  961MOL0     O29603   9.456   2.551   4.237 -0.2654  0.2880 -0.1875
  961MOL0     C29604   9.440   2.426   4.184 -0.0419 -0.1699  0.2787
  961MOL0     C29605   9.530   2.320   4.189  1.2319  0.9019  0.2366
  961MOL0     C29606   9.501   2.203   4.111 -0.0435 -0.6507 -0.3076
  961MOL0     C29607   9.384   2.195   4.040 -0.4590  0.2649  0.9220
  961MOL0     O29608   9.367   2.086   3.958  0.4701 -0.0980 -0.2787
  961MOL0     C29609   9.329   1.963   4.029 -1.3169  0.7781 -0.7033
  961MOL0     C29610   9.331   1.841   3.936  0.0011 -0.1400  0.7100
  961MOL0     C29611   9.444   1.850   3.843 -0.0073  0.3769 -1.1266
  961MOL0     C29612   9.492   1.708   3.821 -0.0353 -0.1083  0.7754
  961MOL0     C29613   9.613   1.715   3.723  0.2365 -0.9737 -0.3945
  961MOL0     C29614   9.629   1.581   3.644 -0.4374 -0.1954  0.2034
  961MOL0     C29615   9.512   1.560   3.540 -0.6472 -0.3087  0.0429
  961MOL0     C29616   9.514   1.682   3.442 -0.6346 -0.4137 -0.8512
  961MOL0     N29617   9.646   1.712   3.372  0.5212 -0.3778  0.3069
  961MOL0     C29618   9.695   1.627   3.280  1.0362  0.0586 -0.5035
  961MOL0     C29619   9.825   1.653   3.280  0.9028 -0.2073 -0.6609
  961MOL0     C29620   9.920   1.576   3.191 -0.4451 -0.0798  0.0974
  961MOL0     C29621  10.053   1.585   3.239 -0.0955 -0.8165 -0.3013
  961MOL0     C29622  10.157   1.505   3.168  0.7200 -0.6133  0.0775
  961MOL0     C29623  10.291   1.502   3.242  0.0502  0.6758  0.3400
  961MOL0     O29624  10.393   1.528   3.145  0.7922 -1.2191 -0.0148
  961MOL0     C29625  10.527   1.522   3.174  0.1887  0.4381 -0.0354
  961MOL0     C29626  10.619   1.492   3.068  0.2060  0.1042 -0.4055
  961MOL0     C29627  10.760   1.480   3.087 -0.7788  0.0372  0.6313
  961MOL0     C29628  10.849   1.434   2.971  0.2613 -0.6951 -0.5464
  961MOL0     C29629  10.819   1.507   3.212 -0.1961  0.2994  0.1473
  961MOL0     C29630  10.958   1.503   3.244 -0.1878 -1.0731 -0.2181
  961MOL0     O29631  11.005   1.443   3.356 -0.0059  0.1313 -0.1220
  961MOL0     C29632  11.137   1.436   3.371 -0.4095  0.0342  0.3124
  961MOL0     C29633  11.188   1.468   3.498 -0.0585  0.3952 -0.1202
  961MOL0     C29634  11.319   1.447   3.528  0.2813 -0.1003  0.3546
  961MOL0     C29635  11.410   1.386   3.433  0.5965 -0.4066 -0.8760
  961MOL0     O29636  11.548   1.374   3.459 -0.1852 -0.3041  0.4798
  961MOL0     C29637  11.623   1.489   3.496 -0.5741  0.1635  0.7394
  961MOL0     C29638  11.759   1.487   3.422 -0.2234  0.1759 -0.5597
  961MOL0     C29639  11.740   1.485   3.270 -0.1269  0.4922  0.0202
  961MOL0     C29640  11.787   1.616   3.206  0.2448 -1.0447 -0.3015
  961MOL0     C29641  11.758   1.624   3.054  0.5992  0.4597 -1.0318
  961MOL0     C29642  11.763   1.765   3.013 -0.6145 -0.1626  0.1231
  961MOL0     C29643  11.910   1.815   3.008  0.2275  0.2195  0.6208
  961MOL0     C29644  11.911   1.963   2.976 -0.0606 -0.6106  0.2520
  961MOL0    Cl29645  11.895   2.064   3.124  0.0812 -0.4572 -0.1576
  961MOL0     C29646  11.359   1.362   3.311  1.0336 -0.5874  0.6522
  961MOL0     C29647  11.223   1.372   3.280 -0.7289 -0.3731  0.2424
  961MOL0     O29648  11.021   1.576   3.164  0.5667  0.0748  0.3625
  961MOL0     C29649  10.735   1.541   3.313  0.4465 -0.3034 -0.4627
  961MOL0     C29650  10.591   1.533   3.299 -0.0056 -0.5788  0.0237
  961MOL0     N29651   9.853   1.748   3.378  0.5803 -0.1131 -0.4947
  961MOL0     N29652   9.741   1.787   3.434 -0.5603 -0.3930  0.0962
  961MOL0     C29653   9.295   2.299   4.040  1.0730 -0.0148 -0.6253
  961MOL0     C29654   9.328   2.416   4.102  0.5250 -0.7413 -0.3637
  961MOL0     C29655   9.433   2.696   4.432  0.2146 -0.2895 -0.3224
  961MOL0     C29656   9.455   2.812   4.362  0.0467 -0.8064  0.4628
  961MOL0     C29657   9.461   2.944   4.424 -0.1995 -0.0367 -0.2722
  961MOL0     C29658   9.460   2.944   4.563  0.4729 -0.2739 -0.5565
  961MOL0     O29659   9.487   3.070   4.619 -0.0862  0.1692 -0.6129
  961MOL0     C29660   9.486   3.079   4.759 -0.0575  0.0079 -0.0018
  961MOL0     C29661   9.505   3.218   4.794  0.5372 -0.5885  0.4630
  961MOL0     C29662   9.634   3.283   4.750  0.5908  0.4318  0.1256
  961MOL0     C29663   9.770   3.219   4.800 -0.5176  0.6335  0.7281
  961MOL0     C29664   9.763   3.260   4.941 -0.2394  1.4395 -0.0580
  961MOL0     C29665   9.741   3.297   5.057 -0.2991 -0.1524 -0.1358
  961MOL0     C29666   9.439   2.827   4.634 -0.3275  0.0770 -0.5902
  961MOL0     C29667   9.433   2.708   4.574  0.3224 -0.3014  0.9076
  961MOL0     H29668   9.617   2.330   4.253  0.7257  0.1571  1.0682
  961MOL0     H29669   9.569   2.118   4.105 -0.5491 -1.4193  2.9331
  961MOL0     H29670   9.402   1.941   4.107 -2.8047 -0.8607  0.2899
  961MOL0     H29671   9.229   1.957   4.072 -0.6194 -0.1610  0.8742
  961MOL0     H29672   9.328   1.747   3.992 -2.2154 -0.8447 -0.5122
  961MOL0     H29673   9.244   1.846   3.871  0.3120 -0.1398  0.2904
  961MOL0     H29674   9.413   1.899   3.750  2.2691 -0.5174 -2.4417
  961MOL0     H29675   9.522   1.901   3.900 -0.6338 -0.9472  1.0423
  961MOL0     H29676   9.530   1.660   3.911 -0.6663  0.0794  1.1472
  961MOL0     H29677   9.410   1.646   3.784 -1.2074  0.4131  2.3656
  961MOL0     H29678   9.591   1.799   3.656  0.5379  0.8634  1.6557
  961MOL0     H29679   9.704   1.734   3.781  1.4176 -2.9497 -1.5038
  961MOL0     H29680   9.729   1.581   3.600 -0.8591  2.0722 -0.8973
  961MOL0     H29681   9.623   1.504   3.722  1.0834  1.2600  1.8561
  961MOL0     H29682   9.527   1.464   3.491  0.4247 -0.5353  0.7989
  961MOL0     H29683   9.412   1.542   3.580 -0.7809  0.0181 -0.1337
  961MOL0     H29684   9.477   1.770   3.495  1.5228 -0.4009  0.7704
  961MOL0     H29685   9.441   1.658   3.364 -1.6755 -1.6889  0.4663
  961MOL0     H29686   9.633   1.569   3.212 -0.8470  2.7959 -1.3357
  961MOL0     H29687   9.889   1.473   3.176 -0.2653 -0.3458  1.4339
  961MOL0     H29688   9.923   1.621   3.091 -0.8829  0.6801  0.4141
  961MOL0     H29689  10.044   1.552   3.343  1.0659 -1.9699 -0.5369
  961MOL0     H29690  10.082   1.690   3.243 -0.5815 -0.7217  1.3736
  961MOL0     H29691  10.170   1.559   3.073 -0.3632 -1.1242 -0.3787
  961MOL0     H29692  10.110   1.411   3.140 -1.2761  0.6639 -1.1193
  961MOL0     H29693  10.300   1.402   3.284 -1.3453  1.3281  2.3546
  961MOL0     H29694  10.292   1.569   3.329 -1.1801  0.3045  0.6563
  961MOL0     H29695  10.595   1.457   2.968  1.7040 -1.6700 -0.1988
  961MOL0     H29696  10.890   1.529   2.936 -2.4163  0.5651 -0.4492
  961MOL0     H29697  10.923   1.363   3.009  1.4555  0.5867 -0.4044
  961MOL0     H29698  10.791   1.380   2.896 -2.2168 -1.4868  1.7936
  961MOL0     H29699  11.128   1.519   3.572  1.6074  2.2825 -0.0137
  961MOL0     H29700  11.355   1.479   3.625  1.0678  0.2832 -0.0582
  961MOL0     H29701  11.575   1.578   3.453 -3.0729 -0.3079  2.3277
  961MOL0     H29702  11.630   1.496   3.605 -2.1225  2.0972  0.7751
  961MOL0     H29703  11.804   1.584   3.446 -1.4332  1.8229 -4.2933
  961MOL0     H29704  11.823   1.404   3.454  0.7178  1.3503  0.7319
  961MOL0     H29705  11.635   1.471   3.239  0.3285  0.6848 -1.7599
  961MOL0     H29706  11.794   1.402   3.224  0.3120  0.6326  0.2867
  961MOL0     H29707  11.737   1.694   3.265 -0.1766 -1.7594  0.3013
  961MOL0     H29708  11.895   1.615   3.224 -0.1690 -0.7875  2.7132
  961MOL0     H29709  11.655   1.590   3.040  0.7536 -1.0541  1.1056
  961MOL0     H29710  11.826   1.552   3.007 -0.2265 -0.4735 -0.8155
  961MOL0     H29711  11.732   1.777   2.909 -0.7047 -0.4665  0.1145
  961MOL0     H29712  11.708   1.832   3.080  2.2536  2.7151 -0.1579
  961MOL0     H29713  11.966   1.760   2.932  0.3941  1.2675 -0.0252
  961MOL0     H29714  11.966   1.804   3.102  0.0231  1.4057  0.8956
  961MOL0     H29715  11.836   1.981   2.899 -0.0034 -1.4026  0.0067
  961MOL0     H29716  12.005   1.983   2.924 -0.5263 -1.4233 -0.9409
  961MOL0     H29717  11.435   1.348   3.234  0.5010  0.3266 -0.0630
  961MOL0     H29718  11.196   1.349   3.177 -2.6709 -2.1009  1.0760
  961MOL0     H29719  10.762   1.565   3.415  1.0216  2.0127 -1.0903
  961MOL0     H29720  10.527   1.547   3.385  0.6571  2.0790  0.1658
  961MOL0     H29721   9.214   2.297   3.968  1.4432  1.9943 -1.1439
  961MOL0     H29722   9.252   2.494   4.095  0.1005 -1.0828  0.2822
  961MOL0     H29723   9.469   2.813   4.255  1.6371 -0.8574  0.6494
  961MOL0     H29724   9.486   3.031   4.364  3.3366 -0.6704  0.0681
  961MOL0     H29725   9.388   3.046   4.794 -0.1859 -0.9006 -1.1604
  961MOL0     H29726   9.566   3.018   4.802 -1.2651 -1.8432 -0.2425
  961MOL0     H29727   9.493   3.216   4.903 -0.5445 -0.5077  0.3523
  961MOL0     H29728   9.425   3.274   4.745  0.2192  0.4860  2.1225
  961MOL0     H29729   9.625   3.391   4.760  1.1699  0.5457 -0.4857
  961MOL0     H29730   9.628   3.276   4.641 -2.2838 -1.5091  0.2957
  961MOL0     H29731   9.847   3.281   4.752 -1.4818  0.6023 -0.9237
  961MOL0     H29732   9.775   3.112   4.780 -1.8739  0.6496  0.1706
  961MOL0     H29733   9.723   3.342   5.153  2.7370 -0.5223  0.7160
  961MOL0     H29734   9.426   2.832   4.741  1.9273 -3.8504  0.0802
  961MOL0     H29735   9.424   2.611   4.622 -0.3505 -1.4484 -1.3877
  962MOL0     O29736   6.252   6.596  10.066  0.1247  0.4792  0.2973
  962MOL0     C29737   6.202   6.665  10.150 -0.2122  0.2337 -0.9563
  962MOL0     O29738   6.220   6.654  10.288 -0.7776  0.4571  0.0568
  962MOL0     C29739   6.312   6.567  10.345 -0.1817  0.3194 -0.5861
  962MOL0     C29740   6.341   6.439  10.305 -0.4822  0.2916  0.0126
  962MOL0     C29741   6.445   6.360  10.367  0.2313 -0.0299 -0.2709
  962MOL0     C29742   6.508   6.405  10.487 -0.5062  0.2946 -0.2415
  962MOL0     O29743   6.616   6.346  10.546  0.3641 -0.1636 -0.1502
  962MOL0     C29744   6.666   6.219  10.500  0.4699  0.1928 -0.2126
  962MOL0     C29745   6.600   6.094  10.557  0.9394 -0.3485 -0.0975
  962MOL0     C29746   6.639   6.077  10.706  0.8489 -0.3911 -0.5649
  962MOL0     C29747   6.513   6.035  10.796 -0.3499 -0.5312  0.6034
  962MOL0     C29748   6.380   6.110  10.774 -0.2324  0.1311  0.2807
  962MOL0     C29749   6.392   6.257  10.814  0.6035  0.1029  0.0711
  962MOL0     C29750   6.253   6.331  10.832 -0.3734  0.1975  0.5413
  962MOL0     C29751   6.166   6.318  10.699  0.4606 -1.1895 -0.1099
  962MOL0     N29752   6.058   6.417  10.707 -0.9840  0.4519  0.0761
  962MOL0     C29753   6.043   6.529  10.633 -0.0007 -0.0974 -0.3303
  962MOL0     C29754   5.916   6.566  10.639  0.4593  0.8403  0.0744
  962MOL0     C29755   5.855   6.690  10.576  0.6445  0.8192  0.5341
  962MOL0     C29756   5.887   6.817  10.657 -0.1069  0.0473  0.5554
  962MOL0     C29757   5.838   6.951  10.587 -0.3428  0.3868 -0.8435
  962MOL0     C29758   5.870   7.069  10.672  0.2636 -0.2776  1.1740
  962MOL0     O29759   5.824   7.190  10.599  0.1461 -0.0404 -0.0367
  962MOL0     C29760   5.689   7.211  10.584  0.0773  1.1531  0.2983
  962MOL0     C29761   5.590   7.162  10.672 -0.3608  0.3740  0.8597
  962MOL0     C29762   5.452   7.204  10.660 -1.1708 -0.0881 -0.4115
  962MOL0     C29763   5.360   7.145  10.763  0.6196 -0.3778 -0.1240
  962MOL0     C29764   5.414   7.293  10.558 -0.8309 -0.4492 -0.0771
  962MOL0     C29765   5.279   7.335  10.547  0.1697 -1.2581  0.8001
  962MOL0     O29766   5.179   7.245  10.548  0.2429 -1.2542  0.4205
  962MOL0     C29767   5.047   7.297  10.573  0.1702 -0.1915  0.4894
  962MOL0     C29768   4.962   7.245  10.672  0.8146  0.2795  0.1597
  962MOL0     C29769   4.836   7.298  10.705  0.2801 -0.6863 -0.4188
  962MOL0     C29770   4.795   7.420  10.642 -0.0943  0.3357 -0.8119
  962MOL0     O29771   4.683   7.478  10.696 -1.4649 -0.3130  0.6613
  962MOL0     C29772   4.622   7.594  10.644 -0.1723 -0.2388 -0.4850
  962MOL0     C29773   4.548   7.575  10.511  0.0664  0.2966 -0.4128
  962MOL0     C29774   4.467   7.453  10.484  0.1486 -0.5217 -0.3257
  962MOL0     C29775   4.341   7.489  10.566 -0.1969 -0.3193  0.3312
  962MOL0     C29776   4.234   7.379  10.571  0.4686  0.3092 -1.0367
  962MOL0     C29777   4.157   7.358  10.439 -0.1706 -0.3335 -0.1121
  962MOL0     C29778   4.062   7.242  10.451 -0.1370 -0.1729 -1.0169
  962MOL0     C29779   3.976   7.232  10.331  0.6018 -0.2067  0.2277
  962MOL0    Cl29780   4.052   7.229  10.166  0.4500 -0.0853 -0.5596
  962MOL0     C29781   4.879   7.462  10.533 -0.2941 -0.5017  0.4138
  962MOL0     C29782   4.999   7.402  10.500  0.2204 -0.3656 -0.0397
  962MOL0     O29783   5.268   7.456  10.528  0.1846  0.2584  0.7711
  962MOL0     C29784   5.523   7.351  10.489 -0.2027 -0.7108  0.5338
  962MOL0     C29785   5.653   7.317  10.506 -0.1712  0.6625 -0.2507
  962MOL0     N29786   5.851   6.475  10.716 -0.1291  0.1930 -0.3609
  962MOL0     N29787   5.937   6.390  10.759 -0.2054  0.3138 -0.1452
  962MOL0     C29788   6.470   6.527  10.532 -0.2537 -0.8441 -0.2311
  962MOL0     C29789   6.378   6.611  10.469  0.9542  0.8353  1.1655
  962MOL0     C29790   6.099   6.770  10.113  0.7556  0.1374 -0.0165
  962MOL0     C29791   6.056   6.792   9.983 -0.3098 -0.7432 -0.4791
  962MOL0     C29792   5.961   6.897   9.959 -0.4683 -0.0089  0.5755
  962MOL0     C29793   5.919   6.980  10.057  1.0077  0.0649 -0.2873
  962MOL0     O29794   5.811   7.063  10.017  0.2808 -0.0401  0.4460
  962MOL0     C29795   5.723   7.106  10.120 -0.0369  0.0191  0.2809
  962MOL0     C29796   5.766   7.238  10.202 -0.7577  0.4846  0.3514
  962MOL0     C29797   5.852   7.342  10.114 -0.1093 -0.0716 -0.8419
  962MOL0     C29798   5.890   7.463  10.195 -0.0072 -0.5914  0.5072
  962MOL0     C29799   6.033   7.456  10.244  0.2958 -0.0705 -0.1427
  962MOL0     C29800   6.146   7.466  10.288  0.9583 -0.1640  0.4289
  962MOL0     C29801   5.962   6.955  10.181  0.5269 -1.0621 -0.5032
  962MOL0     C29802   6.042   6.849  10.218  0.2579  0.1573  0.5606
  962MOL0     H29803   6.290   6.398  10.219  0.8065  0.0707 -0.6839
  962MOL0     H29804   6.465   6.266  10.317 -0.5966  0.3323 -1.3172
  962MOL0     H29805   6.658   6.222  10.391 -1.9719  0.1784 -0.0871
  962MOL0     H29806   6.768   6.204  10.538 -0.3826 -0.4027  1.9871
  962MOL0     H29807   6.494   6.092  10.530  0.9136  0.4082 -0.0847
  962MOL0     H29808   6.639   6.010  10.499  0.3593  0.3820 -1.6150
  962MOL0     H29809   6.725   6.010  10.718  0.1633 -1.3887 -1.1013
  962MOL0     H29810   6.670   6.176  10.741 -3.1261  0.9811 -0.4137
  962MOL0     H29811   6.496   5.929  10.778  0.2197 -0.4297 -0.6643
  962MOL0     H29812   6.540   6.047  10.902  1.7363 -0.5199  0.1202
  962MOL0     H29813   6.356   6.108  10.668 -1.2464 -0.9518  0.5120
  962MOL0     H29814   6.290   6.064  10.814 -2.0118  2.5964 -0.6855
  962MOL0     H29815   6.446   6.248  10.909  0.3367 -0.9458  0.1474
  962MOL0     H29816   6.454   6.314  10.745  0.1813 -0.1158 -0.4946
  962MOL0     H29817   6.195   6.297  10.918  1.0013  4.7982  3.7160
  962MOL0     H29818   6.268   6.437  10.855  1.5616  0.8284 -2.9835
  962MOL0     H29819   6.128   6.216  10.690 -0.3106 -1.0882  1.6167
  962MOL0     H29820   6.229   6.335  10.611  0.6176  1.7497  0.4784
  962MOL0     H29821   6.123   6.573  10.574  0.1794  2.2696  1.5229
  962MOL0     H29822   5.884   6.696  10.471 -0.3390 -0.5577  0.1617
  962MOL0     H29823   5.747   6.680  10.569  0.8909 -1.7248 -0.8839
  962MOL0     H29824   5.996   6.828  10.667 -0.0996  1.9091 -0.8638
  962MOL0     H29825   5.847   6.807  10.758  1.2392  0.7697  1.1910
  962MOL0     H29826   5.729   6.940  10.576 -1.8065  2.5339  6.3510
  962MOL0     H29827   5.874   6.970  10.486 -2.3474  1.0242 -1.4941
  962MOL0     H29828   5.977   7.069  10.697  0.6331 -0.7251 -0.3092
  962MOL0     H29829   5.828   7.079  10.773 -0.2815  2.9290  0.7154
  962MOL0     H29830   5.601   7.087  10.750  1.1300  3.3896  3.7852
  962MOL0     H29831   5.274   7.209  10.783  1.3478  0.1774  1.4056
  962MOL0     H29832   5.319   7.049  10.730  1.2587 -0.7236  0.0546
  962MOL0     H29833   5.412   7.137  10.859 -1.3558  2.5205  1.3326
  962MOL0     H29834   4.995   7.154  10.721 -0.0665 -1.4518 -2.2407
  962MOL0     H29835   4.783   7.263  10.793  0.2784 -1.0106 -0.5449
  962MOL0     H29836   4.559   7.636  10.723 -1.3104 -2.8208  0.0703
  962MOL0     H29837   4.694   7.672  10.616 -2.3958  1.9553 -0.4744
  962MOL0     H29838   4.496   7.670  10.491 -1.1393  0.3354  2.3959
  962MOL0     H29839   4.627   7.568  10.435 -0.1156  2.4951 -0.8750
  962MOL0     H29840   4.508   7.359  10.524 -0.1824 -0.2637  0.6550
  962MOL0     H29841   4.446   7.433  10.379  1.1351 -2.3370 -0.2247
  962MOL0     H29842   4.359   7.494  10.674 -1.2817 -1.0082  0.5715
  962MOL0     H29843   4.293   7.580  10.529  3.8334  1.7843 -0.2270
  962MOL0     H29844   4.169   7.407  10.654  2.3015 -1.5584  1.1760
  962MOL0     H29845   4.285   7.286  10.600  0.7591 -0.0782 -2.7165
  962MOL0     H29846   4.097   7.447  10.418  0.3338 -0.2267 -1.1449
  962MOL0     H29847   4.220   7.352  10.350 -0.8504  1.3024 -0.7421
  962MOL0     H29848   3.997   7.247  10.539  2.0640 -1.7051  0.8416
  962MOL0     H29849   4.106   7.141  10.445 -1.4993 -1.0801  1.9443
  962MOL0     H29850   3.915   7.324  10.329  2.0813  0.8032  0.0731
  962MOL0     H29851   3.907   7.149  10.345  0.4516 -0.2531 -0.7142
  962MOL0     H29852   4.844   7.543  10.471 -2.3232 -0.2419  1.7721
  962MOL0     H29853   5.045   7.448  10.413 -0.8995  0.7885 -0.0508
  962MOL0     H29854   5.501   7.444  10.437  1.6677 -0.8034 -0.5120
  962MOL0     H29855   5.726   7.372  10.448  0.2877 -0.0301 -0.3359
  962MOL0     H29856   6.510   6.560  10.628  1.1361  0.4769 -1.2136
  962MOL0     H29857   6.345   6.700  10.521  0.6859  2.7716 -2.0268
  962MOL0     H29858   6.096   6.722   9.909  2.7790 -1.8712  2.0251
  962MOL0     H29859   5.928   6.898   9.855  2.3407  2.2776 -0.4548
  962MOL0     H29860   5.627   7.126  10.071  0.2706 -0.3466 -0.4982
  962MOL0     H29861   5.700   7.029  10.194  2.7254 -0.8768  0.3070
  962MOL0     H29862   5.817   7.193  10.288 -3.6954 -1.2376  1.3429
  962MOL0     H29863   5.677   7.284  10.246 -0.4303 -0.3583  1.9872
  962MOL0     H29864   5.805   7.371  10.020 -0.9228 -1.5803 -0.9267
  962MOL0     H29865   5.941   7.286  10.083 -0.7191 -0.5518 -1.7494
  962MOL0     H29866   5.819   7.483  10.275 -1.4374  1.6883 -1.2058
  962MOL0     H29867   5.884   7.540  10.117 -3.6715 -1.2686 -0.0547
  962MOL0     H29868   6.246   7.476  10.326  0.1589 -1.1460  3.0152
  962MOL0     H29869   5.925   7.006  10.270  2.9519 -0.4409  0.2530
  962MOL0     H29870   6.070   6.833  10.321  0.9913  2.8696  0.8779
  963MOL0     O29871   4.739   5.191   0.167 -0.1148 -0.1774  0.3216
  963MOL0     C29872   4.651   5.216   0.084 -1.4210 -0.7833  0.0160
  963MOL0     O29873   4.632   5.335   0.018 -1.0793  0.2795  0.3877
  963MOL0     C29874   4.708   5.440   0.054 -0.7864  0.0495 -0.8698
  963MOL0     C29875   4.847   5.467   0.024  0.5070  0.1881  0.0149
  963MOL0     C29876   4.910   5.580   0.069 -0.2814  0.7242  0.3353
  963MOL0     C29877   4.847   5.666   0.146  0.0888 -0.5819 -0.5794
  963MOL0     O29878   4.897   5.786   0.190  0.4686  0.6457  0.0782
  963MOL0     C29879   4.846   5.849   0.307 -0.6292  0.1767 -0.2573
  963MOL0     C29880   4.944   5.925   0.392 -0.2811 -0.3076  0.0587
  963MOL0     C29881   4.997   6.039   0.301  0.1745 -1.1285 -0.0626
  963MOL0     C29882   5.003   6.177   0.374  0.6880 -0.0334  0.3376
  963MOL0     C29883   4.861   6.234   0.384 -0.0154 -0.0347 -1.1386
  963MOL0     C29884   4.774   6.243   0.251 -0.1475 -0.5773  0.8100
  963MOL0     C29885   4.662   6.336   0.253  0.2224  0.7387 -0.2508
  963MOL0     C29886   4.546   6.310   0.351  0.1828 -0.0271 -0.1965
  963MOL0     N29887   4.506   6.168   0.331 -0.0741 -0.5070 -0.1703
  963MOL0     C29888   4.423   6.129   0.236 -0.5572  0.7929  0.6495
  963MOL0     C29889   4.422   5.995   0.240 -0.2850  0.0749 -1.0110
  963MOL0     C29890   4.369   5.897   0.142 -1.0581 -0.1299 -0.0134
  963MOL0     C29891   4.243   5.826   0.195  0.9818  0.8095 -0.2913
  963MOL0     C29892   4.239   5.670   0.149 -0.2050 -0.5559 -0.2732
  963MOL0     C29893   4.178   5.662   0.013  0.5541 -0.5057  0.4089
  963MOL0     O29894   4.169   5.533  -0.025  0.0384  0.9367  0.0063
  963MOL0     C29895   4.257   5.485  -0.123 -0.7777  1.1563 -0.0885
  963MOL0     C29896   4.402   5.512  -0.132  0.5775 -0.3098 -0.0358
  963MOL0     C29897   4.480   5.473  -0.242 -0.8741 -0.5607 -0.1324
  963MOL0     C29898   4.611   5.547  -0.255 -0.2545 -0.1818 -0.1892
  963MOL0     C29899   4.436   5.369  -0.329  0.8099  0.2402 -0.3018
  963MOL0     C29900   4.530   5.299  -0.434  1.0268 -0.9940 -0.4827
  963MOL0     O29901   4.464   5.210  -0.513  1.0714 -0.4049 -0.5700
  963MOL0     C29902   4.518   5.184  -0.638 -0.9648  0.2025 -0.0423
  963MOL0     C29903   4.659   5.164  -0.664  0.4204 -0.3658  0.1340
  963MOL0     C29904   4.705   5.159  -0.790  0.3368  0.1285  0.2112
  963MOL0     C29905   4.609   5.157  -0.893  0.3089 -0.4449 -0.8924
  963MOL0     O29906   4.643   5.163  -1.035 -0.0396 -0.0316 -0.9449
  963MOL0     C29907   4.777   5.128  -1.051  0.4157 -0.6435  0.0924
  963MOL0     C29908   4.795   5.080  -1.197  0.3841 -0.6379 -0.6123
  963MOL0     C29909   4.737   5.183  -1.303 -0.8503  0.4454  0.8012
  963MOL0     C29910   4.814   5.315  -1.328 -0.1406  0.6513 -0.3886
  963MOL0     C29911   4.899   5.317  -1.462  0.0822  0.0788 -0.6691
  963MOL0     C29912   4.816   5.291  -1.584 -0.2492  0.0911  0.0987
  963MOL0     C29913   4.904   5.287  -1.710  0.0890 -0.1425  0.7433
  963MOL0     C29914   4.906   5.420  -1.787  0.1714  0.6337 -1.4039
  963MOL0    Cl29915   4.924   5.406  -1.965 -0.7945  0.1206  0.2203
  963MOL0     C29916   4.468   5.173  -0.870  0.0432 -0.0465 -0.2092
  963MOL0     C29917   4.420   5.188  -0.738  0.2721 -0.0104  0.4930
  963MOL0     O29918   4.644   5.336  -0.441  0.5782 -0.5330  0.0879
  963MOL0     C29919   4.302   5.332  -0.307 -0.9140 -0.5999  0.8499
  963MOL0     C29920   4.213   5.385  -0.204  0.5015 -0.2735  0.3338
  963MOL0     N29921   4.499   5.957   0.351  0.4296 -0.0539  0.1059
  963MOL0     N29922   4.544   6.058   0.408 -0.0269 -1.1863  0.9171
  963MOL0     C29923   4.709   5.652   0.167  0.3773  0.1796  0.9076
  963MOL0     C29924   4.643   5.532   0.130 -0.3188 -0.1285 -0.0377
  963MOL0     C29925   4.543   5.125   0.059  0.4336  0.3740 -0.6082
  963MOL0     C29926   4.441   5.145  -0.035  0.5988 -0.0285 -0.6388
  963MOL0     C29927   4.343   5.041  -0.055  0.6485  0.0954  0.6276
  963MOL0     C29928   4.358   4.915   0.009  0.2659 -1.3889 -0.3602
  963MOL0     O29929   4.253   4.833  -0.023 -1.0748  0.7503  0.3857
  963MOL0     C29930   4.218   4.740   0.083 -1.5281 -0.9227 -0.6365
  963MOL0     C29931   4.225   4.591   0.031 -0.0656 -0.2521 -0.4675
  963MOL0     C29932   4.136   4.572  -0.093 -0.1257 -0.4154 -0.2116
  963MOL0     C29933   4.207   4.580  -0.225  1.5409  0.5441  0.1637
  963MOL0     C29934   4.108   4.558  -0.338 -0.0469 -0.6381 -0.5110
  963MOL0     C29935   4.037   4.544  -0.433  1.5999  0.2948 -0.2047
  963MOL0     C29936   4.460   4.893   0.095 -0.3732  0.0816  0.8050
  963MOL0     C29937   4.543   4.997   0.129 -0.2266  0.2511 -0.2746
  963MOL0     H29938   4.906   5.403  -0.041  1.8910  1.8302 -0.4199
  963MOL0     H29939   5.016   5.588   0.048 -0.8868  0.6482 -3.4666
  963MOL0     H29940   4.768   5.923   0.286 -1.7158 -1.3013 -1.6912
  963MOL0     H29941   4.814   5.762   0.366 -3.6541 -0.3773 -2.4671
  963MOL0     H29942   4.894   5.952   0.485 -2.4892 -0.1602 -1.1025
  963MOL0     H29943   5.029   5.862   0.423 -1.9836 -2.6041  0.3242
  963MOL0     H29944   5.100   6.009   0.275  1.1046  0.5078  1.5594
  963MOL0     H29945   4.942   6.051   0.207  0.4149  0.2072 -0.0456
  963MOL0     H29946   5.055   6.170   0.470 -0.7495 -0.8626  1.0941
  963MOL0     H29947   5.056   6.243   0.304 -0.8155  0.4868 -0.3581
  963MOL0     H29948   4.815   6.178   0.466 -0.0008 -0.1822 -1.2311
  963MOL0     H29949   4.875   6.336   0.420  0.0178 -0.3812 -0.1426
  963MOL0     H29950   4.845   6.283   0.178 -0.1514  0.0433  1.1405
  963MOL0     H29951   4.747   6.149   0.201 -0.0902  0.8600 -2.1515
  963MOL0     H29952   4.701   6.437   0.269  0.8418  0.5136 -0.3181
  963MOL0     H29953   4.615   6.347   0.155  0.2812 -1.6145 -0.5945
  963MOL0     H29954   4.468   6.385   0.335  0.4503  0.6191  1.2822
  963MOL0     H29955   4.577   6.329   0.454 -0.9913  1.5897 -0.0923
  963MOL0     H29956   4.390   6.195   0.157  0.0388  0.3370  0.0102
  963MOL0     H29957   4.352   5.948   0.047 -2.8796 -1.7492 -0.6280
  963MOL0     H29958   4.450   5.823   0.136  0.1541  1.2339 -1.3405
  963MOL0     H29959   4.151   5.871   0.157  0.7562 -0.7113 -1.6528
  963MOL0     H29960   4.251   5.822   0.304 -0.7718 -0.9741 -0.1722
  963MOL0     H29961   4.168   5.624   0.218 -2.0937  0.4533 -1.4774
  963MOL0     H29962   4.339   5.627   0.166  0.0846  0.6451  1.4156
  963MOL0     H29963   4.244   5.726  -0.046  2.5804 -2.0453  0.8986
  963MOL0     H29964   4.081   5.713   0.013  0.6466 -0.1803 -2.2669
  963MOL0     H29965   4.446   5.590  -0.069  1.3059 -0.0261 -0.8724
  963MOL0     H29966   4.688   5.473  -0.232 -1.0250 -0.8361  0.3083
  963MOL0     H29967   4.625   5.596  -0.352  1.7158 -1.3417 -0.5553
  963MOL0     H29968   4.617   5.620  -0.174 -0.5945 -2.6403  2.1844
  963MOL0     H29969   4.726   5.156  -0.580  2.1771 -0.5475 -1.2218
  963MOL0     H29970   4.813   5.158  -0.798  0.4820  0.7186  1.6714
  963MOL0     H29971   4.834   5.216  -1.020 -1.9119  0.7924  0.5284
  963MOL0     H29972   4.810   5.044  -0.989 -1.1677  0.5940  2.7995
  963MOL0     H29973   4.903   5.070  -1.216  0.5663 -3.6239  1.3593
  963MOL0     H29974   4.747   4.982  -1.197  2.2492 -1.6135 -0.2651
  963MOL0     H29975   4.632   5.212  -1.297 -0.8120  1.6114 -2.1588
  963MOL0     H29976   4.752   5.110  -1.383 -0.5012 -1.0721  2.1907
  963MOL0     H29977   4.750   5.402  -1.310  2.6672  2.3503  2.5288
  963MOL0     H29978   4.887   5.322  -1.247 -1.1189  3.4040  0.3580
  963MOL0     H29979   4.967   5.232  -1.453 -0.9943 -0.8498 -0.9865
  963MOL0     H29980   4.956   5.410  -1.471  0.6678  0.0738  2.0640
  963MOL0     H29981   4.783   5.187  -1.575  4.7762 -1.8910 -1.0198
  963MOL0     H29982   4.734   5.364  -1.590  0.9504  1.5363  0.7114
  963MOL0     H29983   4.860   5.219  -1.783 -0.1057  1.8642 -1.1049
  963MOL0     H29984   5.007   5.255  -1.691  0.3686 -0.0079 -0.4372
  963MOL0     H29985   4.991   5.477  -1.748  0.9567 -2.3615  1.7439
  963MOL0     H29986   4.808   5.466  -1.772  1.1123  2.1199  0.7039
  963MOL0     H29987   4.393   5.184  -0.949  0.0180  2.4340  0.0820
  963MOL0     H29988   4.315   5.211  -0.720  0.2352 -0.6393  1.1267
  963MOL0     H29989   4.263   5.260  -0.380  1.6197 -0.4418 -0.7948
  963MOL0     H29990   4.110   5.350  -0.203  1.0643 -2.0211  0.0255
  963MOL0     H29991   4.642   5.730   0.202 -1.4059 -0.2878 -1.2023
  963MOL0     H29992   4.538   5.520   0.154  0.0592 -0.0808  1.7739
  963MOL0     H29993   4.438   5.241  -0.087 -0.5717  0.6851  0.6665
  963MOL0     H29994   4.257   5.070  -0.115  2.9356 -0.2799 -3.1936
  963MOL0     H29995   4.289   4.744   0.166  2.0436 -1.5467 -3.4424
  963MOL0     H29996   4.114   4.760   0.110 -2.3884  0.0568 -4.2061
  963MOL0     H29997   4.179   4.529   0.108 -0.9796  1.3709  0.3295
  963MOL0     H29998   4.326   4.551   0.022  0.8226  1.3544  1.5993
  963MOL0     H29999   4.064   4.654  -0.098  2.1887  1.8846  1.0674
  963MOL0     H30000   4.091   4.475  -0.072  2.4860 -1.3317  1.7549
  963MOL0     H30001   4.271   4.491  -0.224 -0.7318 -1.2496 -1.9747
  963MOL0     H30002   4.261   4.675  -0.239  0.5385  0.9331 -1.3281
  963MOL0     H30003   3.974   4.544  -0.520 -0.7674  0.6198  1.4199
  963MOL0     H30004   4.485   4.799   0.143  0.2942 -0.1066  0.1106
  963MOL0     H30005   4.619   4.970   0.201 -0.6346 -3.1435 -0.9282
  964MOL0     O30006   8.778   7.621   8.544 -0.0522  0.5059  0.0918
  964MOL0     C30007   8.700   7.564   8.469  0.4029 -0.0219 -0.5659
  964MOL0     O30008   8.603   7.623   8.392 -0.4022 -0.5281  0.1195
  964MOL0     C30009   8.586   7.760   8.382  0.1010  1.0082 -0.3035
  964MOL0     C30010   8.457   7.820   8.405  0.1231  0.5130  0.4161
  964MOL0     C30011   8.442   7.962   8.406 -0.1539  0.6392 -0.2131
  964MOL0     C30012   8.550   8.040   8.371 -0.2277  0.3373  0.0706
  964MOL0     O30013   8.548   8.173   8.366  0.5972  0.6125  0.3737
  964MOL0     C30014   8.426   8.250   8.358  0.1761 -0.7641  0.2692
  964MOL0     C30015   8.458   8.393   8.409 -0.8551  0.5870 -0.3532
  964MOL0     C30016   8.511   8.484   8.308 -0.2841  0.0787  1.2868
  964MOL0     C30017   8.413   8.492   8.179 -0.0582 -0.2749 -0.0897
  964MOL0     C30018   8.465   8.604   8.084 -0.1942  0.1304 -0.6666
  964MOL0     C30019   8.358   8.639   7.980 -0.2617 -1.0038 -0.9997
  964MOL0     C30020   8.397   8.756   7.888 -0.4449 -0.2594  0.5162
  964MOL0     C30021   8.284   8.826   7.812 -0.5960 -0.5974 -0.1201
  964MOL0     N30022   8.244   8.955   7.878 -0.3204 -0.7848 -0.7970
  964MOL0     C30023   8.240   9.085   7.829  0.6079  0.8049 -1.4002
  964MOL0     C30024   8.181   9.163   7.921  1.0263 -0.0807  0.4345
  964MOL0     C30025   8.130   9.304   7.908 -0.2698  0.5604  0.6014
  964MOL0     C30026   8.083   9.347   7.764 -0.4206 -1.0258 -0.4203
  964MOL0     C30027   7.927   9.334   7.755 -0.2424 -0.3484 -0.7557
  964MOL0     C30028   7.888   9.181   7.740  0.6631 -0.9759 -0.5084
  964MOL0     O30029   7.958   9.145   7.621 -0.9196  0.3666 -0.2318
  964MOL0     C30030   7.997   9.019   7.602  0.1220  0.9389  0.3041
  964MOL0     C30031   8.102   8.996   7.503  0.8975  0.3116  0.1309
  964MOL0     C30032   8.145   8.869   7.472 -0.1148 -0.0790 -0.2434
  964MOL0     C30033   8.264   8.868   7.376  0.4778 -0.3132 -0.6170
  964MOL0     C30034   8.089   8.758   7.540 -0.1481  0.5011 -0.0046
  964MOL0     C30035   8.148   8.624   7.516  0.8486 -0.8808 -0.5497
  964MOL0     O30036   8.148   8.547   7.630  0.0623  0.2248 -0.0594
  964MOL0     C30037   8.209   8.425   7.623 -0.8905 -1.0151  0.5253
  964MOL0     C30038   8.347   8.393   7.606  0.0063 -0.3706 -0.8205
  964MOL0     C30039   8.393   8.262   7.581  1.1874  0.4288  0.1352
  964MOL0     C30040   8.308   8.149   7.565 -0.4581  0.0731 -0.5755
  964MOL0     O30041   8.347   8.025   7.531 -0.7536  0.2314 -0.3858
  964MOL0     C30042   8.293   7.925   7.620 -0.2222 -0.2481  0.0504
  964MOL0     C30043   8.366   7.799   7.617 -0.3134 -0.2070 -0.1214
  964MOL0     C30044   8.286   7.689   7.547  0.5383  0.7207 -0.5153
  964MOL0     C30045   8.272   7.713   7.398 -0.0828 -1.0495 -0.1860
  964MOL0     C30046   8.161   7.642   7.319  0.9435 -0.6421 -0.2171
  964MOL0     C30047   8.149   7.492   7.341  0.6412 -0.5442  0.4151
  964MOL0     C30048   8.261   7.400   7.297  0.6186 -0.0750 -0.0322
  964MOL0     C30049   8.236   7.253   7.324 -1.1401 -1.2748 -0.1635
  964MOL0    Cl30050   8.102   7.220   7.217  0.0572  0.0603 -0.1816
  964MOL0     C30051   8.166   8.182   7.564 -0.1610  0.6155 -0.1248
  964MOL0     C30052   8.118   8.313   7.595  0.7923 -0.4536  0.6231
  964MOL0     O30053   8.188   8.593   7.406 -0.1787 -0.8316 -0.3545
  964MOL0     C30054   7.991   8.774   7.630  0.7753  1.3564 -0.0906
  964MOL0     C30055   7.943   8.903   7.665  0.4997  0.4863 -0.3275
  964MOL0     N30056   8.157   9.081   8.033 -0.0697  0.2107 -0.5634
  964MOL0     N30057   8.189   8.959   8.000 -0.0955 -0.1935 -0.4960
  964MOL0     C30058   8.668   7.980   8.330  0.6329  0.4545 -0.3082
  964MOL0     C30059   8.689   7.842   8.330 -0.2925 -0.0762  0.5104
  964MOL0     C30060   8.696   7.415   8.454 -0.3830  0.9195 -0.1564
  964MOL0     C30061   8.578   7.354   8.398 -0.2241  1.2225  1.3260
  964MOL0     C30062   8.582   7.212   8.377  0.7229 -0.3029  0.0432
  964MOL0     C30063   8.691   7.129   8.397 -0.0795 -0.4130 -0.7969
  964MOL0     O30064   8.671   7.000   8.375 -0.2808  0.2920 -0.3373
  964MOL0     C30065   8.777   6.925   8.311  0.1969 -0.4665  0.3808
  964MOL0     C30066   8.825   6.965   8.169 -0.5707  0.1921  0.1763
  964MOL0     C30067   8.717   6.942   8.059  0.5086 -1.0877  0.3318
  964MOL0     C30068   8.770   7.020   7.926  0.4372  0.4007  0.1391
  964MOL0     C30069   8.685   6.998   7.811 -0.1293 -0.2811  0.1577
  964MOL0     C30070   8.615   6.966   7.720 -0.3473  0.4203  0.1357
  964MOL0     C30071   8.810   7.192   8.454 -0.0449  0.7782  0.5894
  964MOL0     C30072   8.809   7.330   8.470  0.0585  0.0399 -0.4357
  964MOL0     H30073   8.370   7.758   8.415 -3.4896  4.8418 -0.8040
  964MOL0     H30074   8.344   7.999   8.434  0.6294  1.7745  1.2195
  964MOL0     H30075   8.382   8.247   8.258  3.2929  0.5193 -1.2515
  964MOL0     H30076   8.352   8.212   8.429 -0.8391 -0.5587 -0.6507
  964MOL0     H30077   8.366   8.443   8.441 -0.3859  2.5499 -1.8908
  964MOL0     H30078   8.528   8.390   8.493  1.0456  0.4754 -1.8865
  964MOL0     H30079   8.519   8.581   8.359  0.1423 -1.1501  3.6974
  964MOL0     H30080   8.607   8.448   8.270 -0.4089  1.7524 -0.8129
  964MOL0     H30081   8.396   8.400   8.122  0.3934 -1.0539  0.9960
  964MOL0     H30082   8.315   8.518   8.221  0.1279 -2.5228  1.9363
  964MOL0     H30083   8.476   8.691   8.149 -1.0084  0.2275 -0.6463
  964MOL0     H30084   8.557   8.577   8.031  0.5640  1.0014  0.1756
  964MOL0     H30085   8.334   8.551   7.920 -0.5065 -1.1627 -0.6745
  964MOL0     H30086   8.261   8.669   8.022  0.1914 -0.5957 -0.2049
  964MOL0     H30087   8.457   8.829   7.944 -1.3019  0.9352 -0.0782
  964MOL0     H30088   8.469   8.717   7.816 -1.1576 -1.5746  0.4953
  964MOL0     H30089   8.198   8.758   7.819  0.7559 -2.5740 -1.6700
  964MOL0     H30090   8.310   8.833   7.706  0.6076  1.7123  0.2642
  964MOL0     H30091   8.269   9.117   7.730 -1.6780  1.5371 -1.8821
  964MOL0     H30092   8.046   9.318   7.977 -1.3588  2.0651 -0.9240
  964MOL0     H30093   8.211   9.368   7.945  0.4990 -0.7821  1.2993
  964MOL0     H30094   8.139   9.303   7.681  2.5759  1.0377  0.3482
  964MOL0     H30095   8.104   9.451   7.740  0.4455 -1.2579 -0.7251
  964MOL0     H30096   7.893   9.383   7.663  0.8460 -0.8624 -1.4590
  964MOL0     H30097   7.886   9.386   7.842 -0.9678 -1.2702 -0.5194
  964MOL0     H30098   7.781   9.166   7.757 -0.0907  2.5644 -1.1901
  964MOL0     H30099   7.922   9.126   7.829 -2.8633 -1.3494  0.7397
  964MOL0     H30100   8.141   9.087   7.457 -0.5035  2.3051  2.5946
  964MOL0     H30101   8.263   8.959   7.316 -0.6965  1.2948  1.6708
  964MOL0     H30102   8.358   8.856   7.430 -1.0812 -0.5213  2.3014
  964MOL0     H30103   8.258   8.786   7.304  1.8920  0.6187 -1.8463
  964MOL0     H30104   8.424   8.470   7.603  2.0506 -2.1219  1.8211
  964MOL0     H30105   8.500   8.252   7.563  1.5074 -1.0241  2.4544
  964MOL0     H30106   8.290   7.951   7.726 -0.6536 -0.1008  0.0029
  964MOL0     H30107   8.188   7.905   7.595 -1.2427 -1.5263  4.4074
  964MOL0     H30108   8.464   7.817   7.571 -0.5072  0.1379 -0.4076
  964MOL0     H30109   8.377   7.762   7.719  2.2258 -1.5006 -0.7649
  964MOL0     H30110   8.179   7.691   7.570  0.9114  2.0103  1.3302
  964MOL0     H30111   8.328   7.588   7.560 -0.6007  0.4637  1.5207
  964MOL0     H30112   8.262   7.821   7.381  0.6522 -0.9667 -0.1291
  964MOL0     H30113   8.371   7.698   7.353  1.2289  2.5562  1.1620
  964MOL0     H30114   8.182   7.671   7.215 -1.7185  1.7028 -0.2174
  964MOL0     H30115   8.063   7.685   7.341 -0.4855 -2.8181 -1.9229
  964MOL0     H30116   8.138   7.488   7.449 -1.5434  1.8534  0.3720
  964MOL0     H30117   8.058   7.460   7.289  2.0267 -1.0493 -1.8790
  964MOL0     H30118   8.347   7.435   7.356 -1.3145 -0.0732  2.9841
  964MOL0     H30119   8.278   7.419   7.190 -1.5722  0.8729 -0.2514
  964MOL0     H30120   8.237   7.224   7.430  0.8590 -2.7841 -0.5305
  964MOL0     H30121   8.321   7.201   7.279  0.6910  5.2449 -6.1533
  964MOL0     H30122   8.085   8.110   7.554 -0.9203  1.0101  2.4735
  964MOL0     H30123   8.010   8.326   7.603  0.7036 -1.5228  1.2974
  964MOL0     H30124   7.950   8.689   7.683 -1.5882  0.0044 -3.6638
  964MOL0     H30125   7.862   8.906   7.737  0.1844  1.5767 -0.7009
  964MOL0     H30126   8.753   8.040   8.298  1.9296 -1.5809 -0.9169
  964MOL0     H30127   8.783   7.798   8.298 -0.3139  0.6826 -0.6545
  964MOL0     H30128   8.490   7.408   8.365 -1.1488  0.3612  2.3025
  964MOL0     H30129   8.490   7.161   8.347  1.0781 -2.4457  2.2507
  964MOL0     H30130   8.862   6.932   8.380  1.0260 -1.7283 -0.4752
  964MOL0     H30131   8.751   6.819   8.313 -0.7060 -0.2468  0.8841
  964MOL0     H30132   8.918   6.914   8.140  1.4297  3.0182  1.2328
  964MOL0     H30133   8.842   7.073   8.175 -0.4015  0.1024  2.4079
  964MOL0     H30134   8.616   6.976   8.083  1.8900  2.3392  2.0258
  964MOL0     H30135   8.709   6.834   8.043 -1.0301 -0.9875  0.3042
  964MOL0     H30136   8.866   6.981   7.892  0.9129  1.2503  0.4644
  964MOL0     H30137   8.785   7.126   7.945  1.8542  0.6833 -2.1690
  964MOL0     H30138   8.575   6.949   7.623  4.0987 -2.3003 -1.5680
  964MOL0     H30139   8.894   7.128   8.478  3.0286  2.9462 -3.1790
  964MOL0     H30140   8.894   7.384   8.510  0.7002 -2.2013  1.4520
  965MOL0     O30141   0.437   1.911   4.700 -0.0983 -0.3242  0.3551
  965MOL0     C30142   0.441   2.033   4.714 -0.1823  0.0933  0.0391
  965MOL0     O30143   0.332   2.104   4.754 -0.0567 -0.0104  0.0194
  965MOL0     C30144   0.218   2.037   4.766 -0.3497  0.1872  0.7715
  965MOL0     C30145   0.177   1.941   4.866  0.0692 -0.3897  0.1196
  965MOL0     C30146   0.045   1.900   4.879  0.3228  0.0349 -0.6536
  965MOL0     C30147  -0.055   1.948   4.791 -0.7443 -0.4101  0.3457
  965MOL0     O30148  -0.186   1.911   4.818  0.1966  0.5099 -0.2979
  965MOL0     C30149  -0.298   1.978   4.754 -0.4580 -0.3476  0.1920
  965MOL0     C30150  -0.432   1.979   4.829  0.4336  1.1031  0.1810
  965MOL0     C30151  -0.414   2.038   4.980 -0.2578 -0.2654  1.3436
  965MOL0     C30152  -0.374   1.936   5.083 -0.6112 -0.4882  0.0513
  965MOL0     C30153  -0.416   1.947   5.224  0.0310  0.2716  0.5494
  965MOL0     C30154  -0.384   1.817   5.308 -0.7363 -0.2517 -0.8179
  965MOL0     C30155  -0.424   1.842   5.457 -0.5524 -0.3916  0.9267
  965MOL0     C30156  -0.466   1.715   5.520  0.3857 -0.4307 -0.0511
  965MOL0     N30157  -0.343   1.641   5.573 -0.0888 -0.4633 -0.4898
  965MOL0     C30158  -0.270   1.672   5.685 -0.5835  0.2779  0.2285
  965MOL0     C30159  -0.187   1.567   5.709 -0.5723 -0.5600  0.1740
  965MOL0     C30160  -0.060   1.551   5.795 -0.3595 -1.1776  0.5173
  965MOL0     C30161  -0.071   1.461   5.918  0.1057  0.1275 -0.2674
  965MOL0     C30162   0.061   1.428   5.986  0.0399 -0.1638 -0.1897
  965MOL0     C30163   0.039   1.328   6.105  0.3971  0.2710 -0.9814
  965MOL0     O30164  -0.094   1.310   6.153  0.5369  0.9729  0.5706
  965MOL0     C30165  -0.112   1.209   6.246  0.8680 -0.3968 -1.1591
  965MOL0     C30166  -0.020   1.143   6.331  0.7585  0.1697  0.0355
  965MOL0     C30167  -0.057   1.041   6.420 -0.4901  0.4907 -0.0878
  965MOL0     C30168   0.073   0.996   6.495  0.4357 -0.3718 -0.4694
  965MOL0     C30169  -0.194   1.009   6.434  0.8518 -0.0158 -0.9539
  965MOL0     C30170  -0.244   0.910   6.530 -0.0814 -0.3200  0.4229
  965MOL0     O30171  -0.376   0.908   6.545  0.5340 -0.2489 -0.4317
  965MOL0     C30172  -0.434   0.815   6.626 -0.5103 -0.7457 -0.8057
  965MOL0     C30173  -0.414   0.683   6.600  0.2143  0.4916  0.2401
  965MOL0     C30174  -0.457   0.577   6.679  1.0801 -0.4067  0.4913
  965MOL0     C30175  -0.544   0.604   6.781 -0.0160 -0.1230 -0.6738
  965MOL0     O30176  -0.597   0.492   6.848  0.2019  0.4244  0.4249
  965MOL0     C30177  -0.517   0.412   6.938  0.5995  0.4656  0.2540
  965MOL0     C30178  -0.576   0.413   7.078 -0.4942  0.0604 -0.3034
  965MOL0     C30179  -0.698   0.322   7.099 -0.3592  1.5720  0.5136
  965MOL0     C30180  -0.819   0.383   7.056 -0.4085 -0.0924  0.5134
  965MOL0     C30181  -0.950   0.309   7.058  0.5527 -0.3184  0.2960
  965MOL0     C30182  -0.986   0.260   7.204  0.7898  0.4855 -0.0533
  965MOL0     C30183  -1.083   0.136   7.192  0.6930  0.5551  0.0409
  965MOL0     C30184  -1.131   0.101   7.334 -0.3690 -0.5774 -0.6134
  965MOL0    Cl30185  -1.267  -0.020   7.340 -0.0281 -0.6813  0.1859
  965MOL0     C30186  -0.566   0.738   6.812 -0.8330  0.5193  0.6405
  965MOL0     C30187  -0.509   0.846   6.741 -0.6185 -0.2535  0.4100
  965MOL0     O30188  -0.161   0.846   6.593  0.0590  1.2260  0.1907
  965MOL0     C30189  -0.283   1.074   6.351 -0.8636 -0.2234  0.0503
  965MOL0     C30190  -0.242   1.181   6.268 -0.0788  0.9496  0.2498
  965MOL0     N30191  -0.217   1.479   5.606 -0.3702 -0.2967  1.1200
  965MOL0     N30192  -0.305   1.520   5.528  0.4614  0.2182  0.6218
  965MOL0     C30193  -0.015   2.051   4.691 -0.0272  1.0363  0.3103
  965MOL0     C30194   0.115   2.094   4.687 -0.6849  0.7826  0.5022
  965MOL0     C30195   0.565   2.111   4.686  0.6605  0.5521  0.2843
  965MOL0     C30196   0.572   2.245   4.720 -0.9694 -0.4967  0.7060
  965MOL0     C30197   0.690   2.311   4.715 -0.1177  0.8000 -0.6327
  965MOL0     C30198   0.816   2.255   4.669  0.3003 -0.5738  0.0136
  965MOL0     O30199   0.930   2.337   4.669 -0.0590  0.0296  0.2976
  965MOL0     C30200   1.042   2.319   4.586  0.6089  1.2463 -0.4650
  965MOL0     C30201   1.174   2.348   4.663 -0.6765  0.5829  0.6610
  965MOL0     C30202   1.296   2.321   4.581 -0.1765  0.9187 -0.0998
  965MOL0     C30203   1.413   2.412   4.631  0.7789 -0.7340  0.0498
  965MOL0     C30204   1.467   2.369   4.760  0.3585  0.2325  1.1349
  965MOL0     C30205   1.523   2.327   4.854 -1.0661 -0.3945 -0.5009
  965MOL0     C30206   0.804   2.129   4.623 -0.6524 -0.8587  0.2992
  965MOL0     C30207   0.681   2.053   4.627 -0.4776  0.0209 -0.4192
  965MOL0     H30208   0.251   1.897   4.932 -1.2833 -4.2857 -0.7132
  965MOL0     H30209   0.025   1.822   4.951  2.3754  1.9674  2.2474
  965MOL0     H30210  -0.269   2.082   4.737  0.9473 -0.7931 -0.3553
  965MOL0     H30211  -0.310   1.933   4.655  1.1770 -2.3744  0.8323
  965MOL0     H30212  -0.508   2.034   4.773  0.3878  0.0089 -0.8785
  965MOL0     H30213  -0.474   1.878   4.842  2.3841  0.0362 -1.2021
  965MOL0     H30214  -0.339   2.117   4.975  1.0405 -1.4634  1.3847
  965MOL0     H30215  -0.503   2.096   5.008 -0.2572 -0.5976  2.0542
  965MOL0     H30216  -0.394   1.837   5.042 -1.2847  0.1493 -1.2523
  965MOL0     H30217  -0.265   1.943   5.084 -0.6842  0.8095  0.3776
  965MOL0     H30218  -0.381   2.044   5.261 -4.6505  2.6687 -0.5145
  965MOL0     H30219  -0.524   1.960   5.227  0.1907  1.7982  0.4756
  965MOL0     H30220  -0.439   1.731   5.269 -0.8340 -0.3287 -0.5056
  965MOL0     H30221  -0.277   1.793   5.299 -0.6538  0.1311 -0.8892
  965MOL0     H30222  -0.344   1.897   5.506  0.6640  0.8488 -2.2003
  965MOL0     H30223  -0.515   1.903   5.455 -0.8945 -0.9097  0.0792
  965MOL0     H30224  -0.527   1.650   5.457  0.2207 -2.3670  1.9929
  965MOL0     H30225  -0.539   1.747   5.595 -1.7477 -1.2791 -1.6857
  965MOL0     H30226  -0.267   1.763   5.745 -3.9608  1.2255 -0.8303
  965MOL0     H30227   0.032   1.516   5.748  0.9787  1.3639  1.1076
  965MOL0     H30228  -0.038   1.651   5.833 -2.3433  0.2686 -1.8529
  965MOL0     H30229  -0.118   1.364   5.899 -1.1600  0.4390  1.0435
  965MOL0     H30230  -0.143   1.512   5.983  0.5662 -0.8250  1.0199
  965MOL0     H30231   0.099   1.520   6.032  2.3350  0.9943 -3.9781
  965MOL0     H30232   0.140   1.385   5.924 -0.8329 -0.3807 -1.1614
  965MOL0     H30233   0.098   1.360   6.191 -1.7387 -1.7943  1.4077
  965MOL0     H30234   0.075   1.230   6.071 -1.2355 -1.8009  2.7200
  965MOL0     H30235   0.079   1.177   6.302  0.6476 -1.4383 -2.5172
  965MOL0     H30236   0.162   1.058   6.482  2.9247 -3.3513  0.8678
  965MOL0     H30237   0.061   1.000   6.604  2.2661 -0.6175 -0.2215
  965MOL0     H30238   0.098   0.894   6.465  2.0345  0.9267 -4.1341
  965MOL0     H30239  -0.345   0.665   6.518  0.3131  0.5171  0.3186
  965MOL0     H30240  -0.440   0.473   6.655 -0.9872 -1.2672  2.4503
  965MOL0     H30241  -0.521   0.312   6.894 -0.8901 -0.7645  2.9512
  965MOL0     H30242  -0.415   0.449   6.950  1.7951 -2.2890 -0.6107
  965MOL0     H30243  -0.494   0.377   7.142  1.8593  2.8708 -1.4887
  965MOL0     H30244  -0.591   0.518   7.103  1.7899  0.1430  1.0363
  965MOL0     H30245  -0.701   0.303   7.206 -3.5313  1.0508  0.4245
  965MOL0     H30246  -0.676   0.228   7.048  2.1395  1.9494  0.7654
  965MOL0     H30247  -0.826   0.477   7.112  0.9180 -1.4388  3.1386
  965MOL0     H30248  -0.804   0.416   6.953 -0.3050 -2.7477 -0.3974
  965MOL0     H30249  -0.931   0.234   6.982  3.0234  1.1269 -0.6418
  965MOL0     H30250  -1.035   0.366   7.018  2.4539  1.0554 -1.9934
  965MOL0     H30251  -0.905   0.221   7.265 -2.2607 -4.0537  1.6999
  965MOL0     H30252  -1.026   0.346   7.259 -2.8718 -0.8917 -0.2354
  965MOL0     H30253  -1.034   0.044   7.160  0.1080 -1.0373  3.3154
  965MOL0     H30254  -1.170   0.160   7.130  0.1137 -1.2095  0.1175
  965MOL0     H30255  -1.157   0.193   7.387 -2.3600 -1.0753 -0.6257
  965MOL0     H30256  -1.045   0.056   7.384  1.4612  2.8144 -0.4299
  965MOL0     H30257  -0.599   0.762   6.912  0.1711  1.7632  0.7073
  965MOL0     H30258  -0.522   0.949   6.772 -0.7816  0.8847 -3.0407
  965MOL0     H30259  -0.388   1.049   6.352 -0.9256 -0.3824  3.3569
  965MOL0     H30260  -0.316   1.231   6.206 -2.8068 -0.3961  2.2263
  965MOL0     H30261  -0.086   2.097   4.624 -1.5389 -1.5322 -0.0162
  965MOL0     H30262   0.140   2.171   4.614 -1.2203 -1.3770 -2.1610
  965MOL0     H30263   0.491   2.309   4.755  0.9251  2.9128 -0.6500
  965MOL0     H30264   0.690   2.417   4.737 -1.5527  0.8430 -0.7409
  965MOL0     H30265   1.046   2.218   4.544 -2.1126  2.1149 -3.1755
  965MOL0     H30266   1.021   2.379   4.497 -2.1422 -0.8499 -1.3868
  965MOL0     H30267   1.192   2.287   4.752  2.1717 -0.0930 -0.2582
  965MOL0     H30268   1.173   2.450   4.703 -0.4013  0.3155  1.3691
  965MOL0     H30269   1.279   2.348   4.476  2.2730 -2.6832 -1.6566
  965MOL0     H30270   1.333   2.218   4.586  0.9223  0.8974 -4.2595
  965MOL0     H30271   1.389   2.517   4.646  4.1405  0.1414  0.0599
  965MOL0     H30272   1.490   2.409   4.553 -0.6893 -1.3293 -1.4531
  965MOL0     H30273   1.568   2.286   4.942  0.4422  1.7158 -0.2167
  965MOL0     H30274   0.896   2.070   4.615  0.1590  0.0352  2.2590
  965MOL0     H30275   0.681   1.947   4.607 -1.4632 -0.1061  0.1974
  966MOL0     O30276   4.532  11.032  10.654 -0.0833 -0.2169  0.4262
  966MOL0     C30277   4.620  11.013  10.572 -0.4948  0.4611 -0.3665
  966MOL0     O30278   4.699  10.905  10.571 -0.5317 -0.0525 -0.9370
  966MOL0     C30279   4.673  10.803  10.656  0.1577  0.2065  0.5121
  966MOL0     C30280   4.770  10.761  10.741 -1.1684  0.5630  0.4163
  966MOL0     C30281   4.748  10.643  10.815 -0.0295 -0.5550  0.1001
  966MOL0     C30282   4.624  10.569  10.804  0.8090 -0.5396 -1.2317
  966MOL0     O30283   4.614  10.451  10.875 -0.3294  0.8978  0.0598
  966MOL0     C30284   4.491  10.380  10.882 -1.1128 -0.1914  0.2956
  966MOL0     C30285   4.513  10.253  10.961  0.4914  0.1429  0.4286
  966MOL0     C30286   4.563  10.132  10.868  0.0741  0.3234 -0.0461
  966MOL0     C30287   4.544   9.988  10.914 -0.6823 -0.1707 -0.7479
  966MOL0     C30288   4.607   9.878  10.832 -0.6037  1.4862  0.4704
  966MOL0     C30289   4.546   9.860  10.690 -0.1286 -0.2253 -0.1662
  966MOL0     C30290   4.614   9.759  10.602 -0.0885 -0.5252  0.5308
  966MOL0     C30291   4.748   9.808  10.547  0.1728 -0.1282  0.0917
  966MOL0     N30292   4.824   9.712  10.468  0.5426 -0.1162 -0.5569
  966MOL0     C30293   4.939   9.649  10.513  0.3644  0.9876  0.0725
  966MOL0     C30294   4.992   9.590  10.404 -0.7872 -0.6993  0.5534
  966MOL0     C30295   5.113   9.496  10.379  0.0590  0.5652 -0.1195
  966MOL0     C30296   5.196   9.512  10.504 -0.9257 -0.7309  0.3585
  966MOL0     C30297   5.318   9.420  10.493  0.3707 -0.1205  0.3514
  966MOL0     C30298   5.283   9.272  10.498  1.2408 -0.1810 -0.4147
  966MOL0     O30299   5.255   9.225  10.366 -0.2449  0.1068 -0.0897
  966MOL0     C30300   5.248   9.087  10.338  0.0609  0.2532 -0.3010
  966MOL0     C30301   5.243   8.986  10.443 -0.0873  0.0444  0.2668
  966MOL0     C30302   5.261   8.857  10.405  0.2834  0.3314 -0.2621
  966MOL0     C30303   5.254   8.761  10.520  0.1824  0.1158 -0.4723
  966MOL0     C30304   5.258   8.814  10.269  0.9635  0.6987 -0.1331
  966MOL0     C30305   5.271   8.669  10.233  0.5979 -0.1123 -0.5702
  966MOL0     O30306   5.221   8.642  10.109 -0.3855  0.0301  0.2717
  966MOL0     C30307   5.230   8.509  10.069  0.3864 -0.5848 -0.3206
  966MOL0     C30308   5.291   8.491   9.943  0.0329 -0.4839  0.3330
  966MOL0     C30309   5.292   8.355   9.895 -0.0846  1.0036  0.0297
  966MOL0     C30310   5.245   8.241   9.966 -0.7450  0.0087 -0.3596
  966MOL0     O30311   5.251   8.112   9.928  0.3797  0.1060 -0.8090
  966MOL0     C30312   5.313   8.068   9.806  0.0692 -0.0058  0.7630
  966MOL0     C30313   5.311   7.920   9.795 -0.3247  0.0357  0.0219
  966MOL0     C30314   5.356   7.845   9.918  0.1703 -0.6901 -0.1089
  966MOL0     C30315   5.390   7.695   9.888  1.1997 -0.2190 -0.0373
  966MOL0     C30316   5.435   7.621  10.016 -0.1978 -0.3756 -0.1939
  966MOL0     C30317   5.447   7.477  10.001 -1.2466  0.2307  0.7910
  966MOL0     C30318   5.316   7.397  10.004  0.7126  0.3520 -0.0619
  966MOL0     C30319   5.334   7.254   9.980  0.5408 -0.0975  0.4032
  966MOL0    Cl30320   5.394   7.226   9.806 -0.0452 -0.2336 -0.4198
  966MOL0     C30321   5.182   8.272  10.089 -0.3438 -0.4030  0.2823
  966MOL0     C30322   5.176   8.399  10.136 -0.5560 -0.5705 -0.2816
  966MOL0     O30323   5.339   8.591  10.310  0.2573 -0.2118  0.6611
  966MOL0     C30324   5.246   8.921  10.165 -0.7728 -1.0748  0.7914
  966MOL0     C30325   5.249   9.055  10.206 -1.2336  0.4675 -0.3609
  966MOL0     N30326   4.900   9.617  10.298 -0.6769  0.2266 -0.6635
  966MOL0     N30327   4.805   9.692  10.340 -0.3765  0.0068  0.2010
  966MOL0     C30328   4.520  10.625  10.734  0.0619 -0.1834  0.1219
  966MOL0     C30329   4.545  10.738  10.657 -0.1721  0.2065  0.1530
  966MOL0     C30330   4.651  11.125  10.475  0.0759 -0.3412 -0.1958
  966MOL0     C30331   4.769  11.124  10.401 -1.4921 -0.2694 -0.3892
  966MOL0     C30332   4.805  11.233  10.325 -0.6904 -0.5367 -0.5768
  966MOL0     C30333   4.733  11.347  10.327  0.1002 -0.5527 -0.7595
  966MOL0     O30334   4.762  11.469  10.272  0.4188  0.1737  0.8476
  966MOL0     C30335   4.902  11.486  10.250 -0.1542 -0.5766 -0.0283
  966MOL0     C30336   4.928  11.625  10.184 -0.1910 -0.4553  0.2089
  966MOL0     C30337   4.860  11.664  10.049  0.6549 -0.7023 -0.2653
  966MOL0     C30338   4.896  11.566   9.934  0.4845 -0.3244 -0.3787
  966MOL0     C30339   5.037  11.574   9.923 -0.4275  0.9532 -0.2027
  966MOL0     C30340   5.157  11.578   9.905 -0.6057  0.0103  0.3065
  966MOL0     C30341   4.616  11.345  10.394  0.3549  0.3630 -0.0904
  966MOL0     C30342   4.570  11.235  10.456  0.1575  0.6517  0.4042
  966MOL0     H30343   4.860  10.821  10.749 -0.9604  0.5518 -1.3267
  966MOL0     H30344   4.816  10.602  10.888 -1.1093 -0.4630  1.2000
  966MOL0     H30345   4.417  10.438  10.938  0.6908 -0.0947  2.7835
  966MOL0     H30346   4.457  10.349  10.783 -1.0190 -3.3677  1.1657
  966MOL0     H30347   4.590  10.273  11.036  0.8799 -1.1744  0.4000
  966MOL0     H30348   4.424  10.220  11.015  0.7030 -2.5936 -0.7591
  966MOL0     H30349   4.521  10.127  10.767  1.9282 -2.9394 -0.7921
  966MOL0     H30350   4.670  10.142  10.848 -0.4234 -0.8747 -4.2940
  966MOL0     H30351   4.582   9.976  11.016 -1.2599 -0.9001 -0.6065
  966MOL0     H30352   4.436   9.979  10.931 -0.8660 -0.1699 -1.8472
  966MOL0     H30353   4.712   9.900  10.811 -0.1552 -0.8867 -0.1626
  966MOL0     H30354   4.603   9.783  10.886 -2.0813  1.4670  0.3849
  966MOL0     H30355   4.441   9.828  10.685 -0.2114  0.1289 -0.8000
  966MOL0     H30356   4.528   9.957  10.644 -2.2875  0.4506  1.8472
  966MOL0     H30357   4.629   9.665  10.657 -2.4005 -1.0174  0.4183
  966MOL0     H30358   4.543   9.730  10.524  0.8685 -1.9515  0.1400
  966MOL0     H30359   4.818   9.850  10.620  1.1428 -0.9951 -0.3058
  966MOL0     H30360   4.730   9.894  10.482  1.1607  0.5817  0.7209
  966MOL0     H30361   4.976   9.645  10.615 -1.0991 -4.4647  0.7356
  966MOL0     H30362   5.075   9.394  10.366  0.7646  0.7182 -5.3640
  966MOL0     H30363   5.164   9.500  10.282  1.8454 -2.9455  0.4927
  966MOL0     H30364   5.139   9.495  10.596  1.5703  0.9270  2.3324
  966MOL0     H30365   5.233   9.615  10.506  0.7817 -1.3172  0.6025
  966MOL0     H30366   5.386   9.450  10.573  0.1600  1.9492 -0.1895
  966MOL0     H30367   5.368   9.448  10.399  3.0201  1.4795  2.0944
  966MOL0     H30368   5.200   9.257  10.568 -0.3554 -0.8608 -2.3546
  966MOL0     H30369   5.373   9.233  10.546 -0.2843 -1.4339  1.6106
  966MOL0     H30370   5.226   9.013  10.547 -1.2444 -1.2487  0.4416
  966MOL0     H30371   5.333   8.686  10.512  0.9799  0.9548 -0.6272
  966MOL0     H30372   5.267   8.800  10.622 -1.1968 -1.6877  0.4672
  966MOL0     H30373   5.157   8.711  10.532  0.5184 -0.1556  1.5920
  966MOL0     H30374   5.329   8.576   9.888  0.0287 -0.8055 -0.1740
  966MOL0     H30375   5.339   8.331   9.800 -0.9990 -1.4846  0.1220
  966MOL0     H30376   5.263   8.107   9.717 -1.2288 -2.8965  0.1093
  966MOL0     H30377   5.417   8.103   9.807  0.9792 -2.4727  0.8893
  966MOL0     H30378   5.215   7.879   9.761  1.0709 -4.7507  1.0538
  966MOL0     H30379   5.380   7.899   9.713  1.2072 -0.7111  1.4489
  966MOL0     H30380   5.273   7.846   9.989  1.1323 -1.1313  1.0588
  966MOL0     H30381   5.440   7.892   9.971  0.1021 -1.1460  0.4121
  966MOL0     H30382   5.305   7.640   9.847  2.7004 -1.4500 -1.6531
  966MOL0     H30383   5.476   7.692   9.821  2.1865 -0.8590  1.2353
  966MOL0     H30384   5.369   7.657  10.096  2.1352  3.0613  0.3545
  966MOL0     H30385   5.531   7.668  10.036  0.5624 -2.8911  2.9395
  966MOL0     H30386   5.501   7.452   9.909 -1.1855 -0.7360  1.0749
  966MOL0     H30387   5.514   7.443  10.081 -0.5707  2.5449  1.2971
  966MOL0     H30388   5.240   7.434   9.934  0.2452 -3.4923 -1.8109
  966MOL0     H30389   5.275   7.403  10.105  0.9239  0.9977 -0.0064
  966MOL0     H30390   5.241   7.197   9.987  2.8280 -4.2562  0.0070
  966MOL0     H30391   5.410   7.212  10.046  0.6988 -0.6566 -0.1277
  966MOL0     H30392   5.158   8.192  10.158 -0.3808  1.5810  2.6905
  966MOL0     H30393   5.126   8.409  10.232 -2.7505  0.3521 -1.4322
  966MOL0     H30394   5.232   8.900  10.059  0.0776  2.0011 -0.0213
  966MOL0     H30395   5.256   9.125  10.123  1.9836  1.1828  0.3381
  966MOL0     H30396   4.424  10.576  10.734  1.4686 -3.2343 -1.6389
  966MOL0     H30397   4.464  10.776  10.596  0.8683 -0.4744 -1.7273
  966MOL0     H30398   4.839  11.043  10.408 -0.5063  0.6550  0.8109
  966MOL0     H30399   4.893  11.231  10.262 -0.3955 -5.9604 -0.4115
  966MOL0     H30400   4.941  11.480  10.352  1.7347  1.3123 -0.5684
  966MOL0     H30401   4.955  11.414  10.187  1.7554  1.7945 -1.3179
  966MOL0     H30402   5.035  11.648  10.178 -0.4765  0.8724 -0.4570
  966MOL0     H30403   4.880  11.690  10.258  0.8488 -0.2314  0.7118
  966MOL0     H30404   4.896  11.764  10.022 -1.6125 -0.0726 -1.1727
  966MOL0     H30405   4.751  11.661  10.058  0.5887 -0.0107 -0.7642
  966MOL0     H30406   4.846  11.612   9.848 -1.9466  0.8271  1.5403
  966MOL0     H30407   4.857  11.465   9.948 -0.9678  0.2195 -0.3040
  966MOL0     H30408   5.263  11.577   9.895 -0.4384 -0.6518  1.9073
  966MOL0     H30409   4.552  11.433  10.395  0.3601  0.3655  0.0192
  966MOL0     H30410   4.478  11.251  10.511  0.5803 -1.8321  1.9648
  967MOL0     O30411   9.160   7.197   7.182 -0.3745  0.3820  0.5288
  967MOL0     C30412   9.146   7.090   7.245 -0.4037 -0.8416 -0.0517
  967MOL0     O30413   9.248   7.004   7.287  0.5897 -0.2628  0.1004
  967MOL0     C30414   9.377   7.034   7.286  0.1392  0.0547  0.3349
  967MOL0     C30415   9.473   6.931   7.288  0.1218  0.0200 -0.0910
  967MOL0     C30416   9.615   6.956   7.296 -0.1104  0.1312  0.2172
  967MOL0     C30417   9.664   7.092   7.295  0.1612 -0.0663  1.1039
  967MOL0     O30418   9.798   7.117   7.301  0.0090 -0.9221  0.5125
  967MOL0     C30419   9.864   7.080   7.182  0.5918 -0.8820 -0.1119
  967MOL0     C30420   9.892   7.196   7.088 -0.9128 -0.7225 -0.0197
  967MOL0     C30421   9.967   7.150   6.964  0.2801 -0.4857  0.0731
  967MOL0     C30422   9.900   7.044   6.870  0.4492  1.6111 -0.4622
  967MOL0     C30423  10.002   6.987   6.767  0.6789 -0.1457  0.5133
  967MOL0     C30424   9.951   6.873   6.680 -0.2702  0.3864 -0.1535
  967MOL0     C30425  10.070   6.785   6.634  0.3318 -0.3058  0.0836
  967MOL0     C30426  10.187   6.855   6.561  0.7512  0.5848  0.0670
  967MOL0     N30427  10.267   6.757   6.487  0.8955 -0.1556  0.3926
  967MOL0     C30428  10.221   6.655   6.406 -0.9218  0.1363  1.2116
  967MOL0     C30429  10.330   6.619   6.336  0.6183  0.0760  0.4633
  967MOL0     C30430  10.340   6.510   6.234  0.1637  0.2274  0.2659
  967MOL0     C30431  10.281   6.564   6.098 -0.4811 -0.8303  0.0162
  967MOL0     C30432  10.238   6.453   5.993 -0.1736  0.8628 -1.2861
  967MOL0     C30433  10.369   6.368   5.951  0.5019  0.6844  0.0544
  967MOL0     O30434  10.319   6.281   5.845 -0.5186 -0.1533 -0.8825
  967MOL0     C30435  10.352   6.305   5.715  0.9601 -0.5091 -0.3230
  967MOL0     C30436  10.403   6.428   5.674  0.6498 -0.3106  0.3680
  967MOL0     C30437  10.447   6.442   5.536  0.6687  0.0417  0.1225
  967MOL0     C30438  10.512   6.575   5.507 -0.4451  0.0927  0.1285
  967MOL0     C30439  10.434   6.331   5.445  0.1214  0.0862 -0.6077
  967MOL0     C30440  10.487   6.332   5.304  0.2636 -0.6445 -0.2056
  967MOL0     O30441  10.496   6.209   5.257  0.0907  0.9530 -0.2033
  967MOL0     C30442  10.557   6.201   5.139  1.1723 -0.5652  0.1263
  967MOL0     C30443  10.692   6.198   5.123 -0.3990  0.1871 -0.7460
  967MOL0     C30444  10.748   6.201   4.992 -0.3575  0.5802 -0.3580
  967MOL0     C30445  10.669   6.218   4.875  0.0124 -0.8189  0.3026
  967MOL0     O30446  10.718   6.210   4.747  0.3316 -0.1587 -0.2840
  967MOL0     C30447  10.845   6.273   4.729  0.1727 -0.1770  0.1241
  967MOL0     C30448  10.845   6.326   4.583  0.3005 -0.0148 -0.1851
  967MOL0     C30449  10.983   6.385   4.548  0.2211  0.5018  0.4428
  967MOL0     C30450  10.989   6.417   4.398  0.4830  0.5886  0.0103
  967MOL0     C30451  11.087   6.326   4.328  0.4944  0.2849  0.7096
  967MOL0     C30452  11.103   6.349   4.177 -0.0313  0.1780  0.7340
  967MOL0     C30453  11.201   6.264   4.093 -0.3407 -0.6820 -0.4533
  967MOL0     C30454  11.148   6.121   4.075  0.6082 -0.4970  0.6161
  967MOL0    Cl30455  11.004   6.128   3.977  0.1732  0.4158 -0.0928
  967MOL0     C30456  10.530   6.232   4.890  0.4009 -0.3038 -0.0857
  967MOL0     C30457  10.479   6.217   5.022  0.5901  0.3301 -0.6615
  967MOL0     O30458  10.503   6.434   5.242 -0.6391 -1.1020  0.0572
  967MOL0     C30459  10.378   6.211   5.499 -0.5723 -0.0408  0.2520
  967MOL0     C30460  10.337   6.200   5.631  0.2628  0.2818  1.1332
  967MOL0     N30461  10.442   6.687   6.387  0.4110 -0.1334  0.1688
  967MOL0     N30462  10.401   6.780   6.468 -0.4443  0.1305  0.2212
  967MOL0     C30463   9.570   7.197   7.292  0.2237 -0.4476 -0.1029
  967MOL0     C30464   9.432   7.168   7.287 -0.1658  0.1296  0.6292
  967MOL0     C30465   9.012   7.045   7.279  0.4805  0.3707 -0.4251
  967MOL0     C30466   8.907   7.102   7.212 -1.0235  0.7417 -0.2953
  967MOL0     C30467   8.775   7.066   7.230  0.3632  1.2510 -0.5783
  967MOL0     C30468   8.742   6.968   7.327  0.3755  0.6500 -0.7085
  967MOL0     O30469   8.620   6.924   7.361  0.1810 -0.3418 -1.0752
  967MOL0     C30470   8.498   6.998   7.344  0.0054 -0.4040 -0.2072
  967MOL0     C30471   8.408   6.949   7.236 -0.4993  0.3259 -0.3812
  967MOL0     C30472   8.440   7.012   7.097  0.3571  0.5569  0.5476
  967MOL0     C30473   8.334   6.978   6.995  0.7419  0.0603 -0.2245
  967MOL0     C30474   8.338   7.086   6.898  0.2551  0.7828  0.6121
  967MOL0     C30475   8.350   7.177   6.819  0.4838 -0.2714 -0.8192
  967MOL0     C30476   8.852   6.898   7.390  0.7184 -0.4688  0.2424
  967MOL0     C30477   8.984   6.933   7.365 -0.1229 -0.1507 -0.1211
  967MOL0     H30478   9.431   6.831   7.283  0.3150 -0.1026  0.6013
  967MOL0     H30479   9.688   6.877   7.309  0.7583  1.0501  1.0696
  967MOL0     H30480   9.964   7.051   7.218  0.1633  0.5401  2.5086
  967MOL0     H30481   9.817   6.992   7.137 -2.0836  1.1329 -1.4813
  967MOL0     H30482   9.802   7.256   7.072 -1.6820 -1.0974  2.4836
  967MOL0     H30483   9.956   7.266   7.142 -0.9534  1.6902 -2.8331
  967MOL0     H30484   9.994   7.238   6.905 -1.1390 -0.6685 -0.8915
  967MOL0     H30485  10.066   7.113   6.992  1.3499  2.4037  0.4892
  967MOL0     H30486   9.871   6.951   6.920  1.7276  0.5801 -1.5403
  967MOL0     H30487   9.808   7.085   6.828 -1.5295 -0.9675  1.0554
  967MOL0     H30488  10.023   7.069   6.697  0.3219 -0.0939  0.4680
  967MOL0     H30489  10.096   6.956   6.815 -0.6802 -0.1485  3.3686
  967MOL0     H30490   9.879   6.811   6.734  0.5094 -0.5380 -0.1371
  967MOL0     H30491   9.899   6.915   6.593 -0.0168 -3.3303 -2.3265
  967MOL0     H30492  10.099   6.731   6.725 -0.8574  0.3653  0.8787
  967MOL0     H30493  10.025   6.713   6.566  1.4013  0.1681 -1.1716
  967MOL0     H30494  10.246   6.899   6.643  2.5178 -1.1825 -0.1780
  967MOL0     H30495  10.144   6.944   6.514  1.2204  0.8442  0.1188
  967MOL0     H30496  10.123   6.612   6.387 -2.1185  1.0534  4.5993
  967MOL0     H30497  10.444   6.478   6.232 -0.3816 -2.0441  2.8141
  967MOL0     H30498  10.284   6.420   6.260  1.7694 -1.0752 -0.5897
  967MOL0     H30499  10.356   6.622   6.044 -1.4710  2.1902  1.6476
  967MOL0     H30500  10.203   6.637   6.123 -0.2041 -0.7369  0.6275
  967MOL0     H30501  10.211   6.517   5.909 -0.5254 -0.2706 -2.0433
  967MOL0     H30502  10.162   6.384   6.030  1.2611 -1.1204 -1.8552
  967MOL0     H30503  10.405   6.315   6.040 -2.6856 -3.1353 -0.6474
  967MOL0     H30504  10.452   6.435   5.925  1.3555 -0.3779 -0.0714
  967MOL0     H30505  10.394   6.509   5.746 -1.0025 -2.3541  2.6210
  967MOL0     H30506  10.471   6.610   5.412  1.1129 -1.4566 -1.1789
  967MOL0     H30507  10.500   6.655   5.580  2.5815  0.3278  0.4921
  967MOL0     H30508  10.619   6.569   5.483 -0.7180 -2.0148 -0.8156
  967MOL0     H30509  10.750   6.197   5.215 -0.2681  4.8361 -0.5552
  967MOL0     H30510  10.850   6.164   4.995 -0.4785  0.2968  1.5243
  967MOL0     H30511  10.857   6.366   4.785  3.1318  0.9420 -2.1194
  967MOL0     H30512  10.936   6.216   4.750  1.6645  1.8203 -0.5834
  967MOL0     H30513  10.812   6.241   4.523  0.3748  0.9830 -1.7049
  967MOL0     H30514  10.774   6.405   4.556  0.0510  0.0091  0.5059
  967MOL0     H30515  11.067   6.324   4.584  1.5781  2.6946  1.2119
  967MOL0     H30516  11.000   6.479   4.600  2.3718  0.9228 -0.8799
  967MOL0     H30517  10.892   6.405   4.348 -0.2159 -3.3094  1.8949
  967MOL0     H30518  11.028   6.518   4.388  0.6672  0.6957  1.5914
  967MOL0     H30519  11.055   6.223   4.345 -2.0460  1.4355  4.0514
  967MOL0     H30520  11.185   6.345   4.374 -0.2369  2.4053  1.5148
  967MOL0     H30521  11.002   6.361   4.137  0.4084  0.6212 -0.2801
  967MOL0     H30522  11.151   6.447   4.171  0.7981 -0.2273  0.4488
  967MOL0     H30523  11.299   6.257   4.140 -0.8834  0.6107  0.9653
  967MOL0     H30524  11.217   6.314   3.997  1.6787  1.8135  1.0545
  967MOL0     H30525  11.128   6.083   4.175  1.6253 -3.0576 -0.0647
  967MOL0     H30526  11.221   6.051   4.034  0.2310 -1.6812  1.9096
  967MOL0     H30527  10.463   6.238   4.805 -3.1174 -1.2246  2.3869
  967MOL0     H30528  10.371   6.219   5.038  0.9940  2.0356  2.8605
  967MOL0     H30529  10.371   6.125   5.434 -0.3458 -0.0197  0.1986
  967MOL0     H30530  10.304   6.102   5.664  2.8421 -1.5682 -1.2764
  967MOL0     H30531   9.585   7.305   7.283  2.7519 -0.6210  1.0358
  967MOL0     H30532   9.373   7.258   7.277  1.1434  0.8485 -1.3438
  967MOL0     H30533   8.931   7.179   7.139 -2.2086  0.6331 -0.8223
  967MOL0     H30534   8.689   7.111   7.182 -2.6717 -2.3814  0.8766
  967MOL0     H30535   8.438   6.994   7.436 -0.2791  0.0538 -0.3711
  967MOL0     H30536   8.525   7.103   7.333  2.9074 -0.7448  2.1733
  967MOL0     H30537   8.304   6.974   7.256 -0.5402  0.9196 -1.2862
  967MOL0     H30538   8.415   6.840   7.228  0.8336  0.3519  0.0437
  967MOL0     H30539   8.535   6.968   7.065  0.6909  0.2444  1.8930
  967MOL0     H30540   8.461   7.118   7.112  2.3089  0.4813 -1.2385
  967MOL0     H30541   8.244   6.987   7.055  1.0693  1.7899  0.0590
  967MOL0     H30542   8.322   6.885   6.938 -4.0299  1.8657 -2.6397
  967MOL0     H30543   8.368   7.246   6.739  1.3493 -0.9888 -1.2544
  967MOL0     H30544   8.829   6.828   7.469  0.4367  0.0493  0.6299
  967MOL0     H30545   9.071   6.884   7.408 -0.1831  1.0611  1.4973
  968MOL0     O30546   2.223   3.370   2.108 -0.3914  0.7396 -0.1540
  968MOL0     C30547   2.154   3.463   2.060 -0.5542 -0.5876  0.7647
  968MOL0     O30548   2.029   3.500   2.110 -0.4899 -0.1427 -0.8329
  968MOL0     C30549   1.962   3.440   2.216 -0.0321 -0.4253  0.1263
  968MOL0     C30550   1.827   3.445   2.213  0.7035 -1.0700 -0.7098
  968MOL0     C30551   1.748   3.392   2.315  0.0610  0.2338  0.3767
  968MOL0     C30552   1.812   3.301   2.411 -0.0700 -0.1267  0.1163
  968MOL0     O30553   1.750   3.234   2.507  1.3222  0.5590  0.7283
  968MOL0     C30554   1.606   3.212   2.480  0.1786  0.0507 -0.7016
  968MOL0     C30555   1.517   3.313   2.549  0.2128  0.7403 -0.1712
  968MOL0     C30556   1.538   3.323   2.687  0.1144  0.4362 -1.1419
  968MOL0     C30557   1.442   3.413   2.759  0.5313 -0.0365 -1.1186
  968MOL0     C30558   1.458   3.430   2.912 -1.2066  0.4261 -0.8493
  968MOL0     C30559   1.433   3.303   3.004 -0.0040  0.2297 -0.2182
  968MOL0     C30560   1.446   3.336   3.154  0.8618 -0.6070  0.7009
  968MOL0     C30561   1.588   3.342   3.199 -0.9150  0.6829 -0.2825
  968MOL0     N30562   1.642   3.224   3.272 -0.2757 -0.0481  0.6780
  968MOL0     C30563   1.624   3.192   3.403 -0.6656 -0.2582  0.4154
  968MOL0     C30564   1.691   3.080   3.422  0.0103  0.0291 -1.3195
  968MOL0     C30565   1.729   3.029   3.557 -0.6167 -0.1115  0.1696
  968MOL0     C30566   1.815   3.134   3.632 -0.1016  0.9237  0.2145
  968MOL0     C30567   1.954   3.162   3.580  0.2808 -0.6164  0.2376
  968MOL0     C30568   2.034   3.037   3.530  0.0947  0.1806 -0.2196
  968MOL0     O30569   2.173   3.070   3.520  0.1299 -0.2038 -0.2915
  968MOL0     C30570   2.265   3.056   3.625  0.6481 -0.6751 -0.2349
  968MOL0     C30571   2.402   3.084   3.604 -0.0320  0.5915 -0.2189
  968MOL0     C30572   2.493   3.115   3.708  0.3775  0.4809 -0.8005
  968MOL0     C30573   2.625   3.158   3.671 -0.2237 -0.2774 -0.3409
  968MOL0     C30574   2.449   3.087   3.845  0.2049 -0.0387  0.6609
  968MOL0     C30575   2.537   3.083   3.965 -0.9083 -0.6834 -0.1728
  968MOL0     O30576   2.669   3.060   3.953  0.3963  0.4669  0.4434
  968MOL0     C30577   2.751   3.056   4.059 -0.0904 -0.8075 -0.0367
  968MOL0     C30578   2.821   3.167   4.105 -0.5119 -0.4564 -0.6492
  968MOL0     C30579   2.930   3.157   4.195  0.2017 -0.3675  0.2276
  968MOL0     C30580   2.964   3.034   4.242 -0.7521  0.2270  0.3502
  968MOL0     O30581   3.063   3.030   4.338  0.2270  0.6953  0.4983
  968MOL0     C30582   3.169   2.933   4.329  0.2353 -0.1679 -1.2464
  968MOL0     C30583   3.263   2.978   4.223  0.5426  1.1894 -0.2478
  968MOL0     C30584   3.409   2.924   4.245  0.0115  0.0241  0.3659
  968MOL0     C30585   3.490   2.962   4.123  0.0223  0.2215 -0.9615
  968MOL0     C30586   3.639   2.985   4.151 -0.4538 -0.2031  0.3343
  968MOL0     C30587   3.727   2.940   4.032 -0.4131 -0.5820 -0.0599
  968MOL0     C30588   3.867   2.954   4.087  0.9325  0.6754 -0.0994
  968MOL0     C30589   3.932   3.088   4.067 -0.6804 -0.4670  1.0329
  968MOL0    Cl30590   4.098   3.086   4.128 -0.1474  0.1523  0.2994
  968MOL0     C30591   2.891   2.915   4.199 -0.3794 -0.0699  0.4500
  968MOL0     C30592   2.790   2.926   4.103 -0.6442  0.1669  0.4461
  968MOL0     O30593   2.483   3.087   4.080 -0.4458  0.6398 -0.0528
  968MOL0     C30594   2.319   3.037   3.865 -0.4202  0.0580  0.1309
  968MOL0     C30595   2.227   3.028   3.763  0.0546 -0.4170  0.3051
  968MOL0     N30596   1.752   3.037   3.306  0.3840 -0.3319  0.5135
  968MOL0     N30597   1.713   3.128   3.212 -0.3474 -0.5169 -0.7319
  968MOL0     C30598   1.950   3.290   2.404 -0.3877 -0.7485 -0.6597
  968MOL0     C30599   2.032   3.366   2.321  0.6536 -0.5690  0.3141
  968MOL0     C30600   2.199   3.537   1.939  0.3257 -0.3748 -0.6739
  968MOL0     C30601   2.131   3.647   1.887  0.9141 -0.8270 -0.3689
  968MOL0     C30602   2.184   3.712   1.775 -0.0991 -0.0223  0.5303
  968MOL0     C30603   2.305   3.678   1.716 -0.4698 -0.1215  1.2184
  968MOL0     O30604   2.358   3.757   1.602 -0.0453 -0.4223 -0.1187
  968MOL0     C30605   2.496   3.755   1.560 -0.3955 -0.2479  0.3962
  968MOL0     C30606   2.594   3.805   1.674 -0.3235  0.1580  0.2503
  968MOL0     C30607   2.752   3.810   1.637 -0.2012  0.2917 -0.1081
  968MOL0     C30608   2.784   3.938   1.554 -0.1805 -0.2917 -0.7197
  968MOL0     C30609   2.747   3.907   1.419 -0.8307 -0.0319  0.7378
  968MOL0     C30610   2.731   3.884   1.299 -0.5472  0.1148  0.3664
  968MOL0     C30611   2.369   3.572   1.771 -0.2301  1.1939 -0.4677
  968MOL0     C30612   2.316   3.496   1.875  1.7591  0.2828 -0.4577
  968MOL0     H30613   1.777   3.502   2.135  0.0904 -1.3647 -0.5345
  968MOL0     H30614   1.642   3.415   2.322 -0.5743 -1.5809 -1.9440
  968MOL0     H30615   1.592   3.198   2.373  0.0008  1.1082 -0.8226
  968MOL0     H30616   1.585   3.112   2.520 -0.1892 -0.2784 -1.6817
  968MOL0     H30617   1.525   3.411   2.501  0.1406  0.6751 -0.3178
  968MOL0     H30618   1.413   3.280   2.535  0.6451 -2.0817  2.1904
  968MOL0     H30619   1.540   3.226   2.738 -1.2024 -0.0984 -2.0452
  968MOL0     H30620   1.636   3.369   2.703 -0.3119  0.6263  1.4245
  968MOL0     H30621   1.452   3.516   2.723 -2.1469  0.1682 -1.5368
  968MOL0     H30622   1.342   3.385   2.722 -0.7871  2.9151 -0.1211
  968MOL0     H30623   1.563   3.457   2.925 -0.9766 -1.0852  0.8828
  968MOL0     H30624   1.392   3.514   2.936 -0.1339  0.1461  4.0978
  968MOL0     H30625   1.336   3.256   2.990 -0.0473  0.3591 -0.3574
  968MOL0     H30626   1.505   3.227   2.973  0.4695  0.8104 -0.5574
  968MOL0     H30627   1.401   3.436   3.165  2.0106  0.1836 -1.3497
  968MOL0     H30628   1.382   3.269   3.213 -0.6352  1.0127  1.0097
  968MOL0     H30629   1.583   3.431   3.261  0.3355  0.2639  0.4492
  968MOL0     H30630   1.651   3.362   3.112 -1.2916  0.6031 -0.5746
  968MOL0     H30631   1.570   3.246   3.480 -1.9483 -0.7094 -0.1315
  968MOL0     H30632   1.642   3.006   3.620 -1.1786  0.6936 -0.3070
  968MOL0     H30633   1.786   2.939   3.532  0.0454  0.3174  0.1089
  968MOL0     H30634   1.829   3.096   3.734  0.3835  3.1867  1.0456
  968MOL0     H30635   1.761   3.226   3.657 -0.4561  1.3908 -2.0851
  968MOL0     H30636   2.002   3.207   3.668 -1.2753  1.2676  0.1947
  968MOL0     H30637   1.942   3.246   3.511  1.5468 -0.7288 -0.1473
  968MOL0     H30638   1.997   2.996   3.436 -2.5926  0.6338  0.5710
  968MOL0     H30639   2.015   2.950   3.594 -1.6821 -0.4392 -1.5181
  968MOL0     H30640   2.447   3.101   3.507 -1.5234  1.0054 -0.8730
  968MOL0     H30641   2.615   3.240   3.600  2.0011 -1.0344 -1.5997
  968MOL0     H30642   2.657   3.210   3.762  2.9081 -2.1696 -0.2325
  968MOL0     H30643   2.696   3.079   3.644  0.8856 -0.3743  2.5269
  968MOL0     H30644   2.803   3.268   4.068  3.4024  0.9847  0.8974
  968MOL0     H30645   2.974   3.254   4.214 -1.8963  1.1107 -1.8245
  968MOL0     H30646   3.230   2.922   4.419  2.3039 -0.9008 -2.6679
  968MOL0     H30647   3.127   2.832   4.329  0.7814 -0.4774  1.5894
  968MOL0     H30648   3.226   2.935   4.129  0.7856 -1.8402  0.9077
  968MOL0     H30649   3.272   3.087   4.223  4.1486  1.0304 -0.5716
  968MOL0     H30650   3.412   2.816   4.262  0.3280  0.0535  0.5127
  968MOL0     H30651   3.450   2.965   4.337 -1.3186  0.5387  0.7484
  968MOL0     H30652   3.479   2.882   4.050  1.1315 -0.3138 -0.5710
  968MOL0     H30653   3.442   3.048   4.076  0.6313  0.9093 -0.3733
  968MOL0     H30654   3.677   2.939   4.243  0.9686 -3.6415 -1.7736
  968MOL0     H30655   3.650   3.090   4.178 -0.4058  0.6429 -2.6711
  968MOL0     H30656   3.717   2.831   4.021  0.9349 -1.1622  3.3872
  968MOL0     H30657   3.705   3.002   3.944 -1.9774  1.8714  1.9288
  968MOL0     H30658   3.929   2.877   4.041  1.1709 -0.3279  1.7978
  968MOL0     H30659   3.864   2.937   4.195 -0.3037  0.9713 -0.0693
  968MOL0     H30660   3.872   3.166   4.116  0.8316  1.1204  0.4513
  968MOL0     H30661   3.941   3.107   3.960  1.0134  2.1216  1.5369
  968MOL0     H30662   2.917   2.812   4.220  2.1765  0.0211 -1.7100
  968MOL0     H30663   2.758   2.828   4.070  1.4578 -0.8725  1.3219
  968MOL0     H30664   2.290   3.011   3.966  0.1430  0.1651  0.3252
  968MOL0     H30665   2.130   2.989   3.791 -1.2884  0.0414 -3.1486
  968MOL0     H30666   2.001   3.228   2.477 -0.2594  0.4546  0.3156
  968MOL0     H30667   2.138   3.351   2.338  1.2778  0.3767 -2.2121
  968MOL0     H30668   2.044   3.687   1.938  1.5709 -0.9377  0.8633
  968MOL0     H30669   2.133   3.799   1.737  1.1476 -0.8017 -3.3167
  968MOL0     H30670   2.521   3.661   1.510  1.7090  0.7665 -0.6379
  968MOL0     H30671   2.502   3.830   1.481  0.8694  0.0574  0.7595
  968MOL0     H30672   2.584   3.744   1.764  1.2077 -0.7156 -0.1173
  968MOL0     H30673   2.563   3.904   1.706  0.9653  0.0217  2.1073
  968MOL0     H30674   2.789   3.713   1.604 -1.8503 -1.0261  1.6574
  968MOL0     H30675   2.809   3.822   1.730 -0.5670 -3.4777  0.7878
  968MOL0     H30676   2.889   3.970   1.556 -0.8172  1.9577  1.3860
  968MOL0     H30677   2.719   4.017   1.591  1.1084 -1.0939  3.9446
  968MOL0     H30678   2.711   3.875   1.194  1.6376 -0.6196 -0.0599
  968MOL0     H30679   2.464   3.532   1.737 -1.4109 -0.3275 -2.1934
  968MOL0     H30680   2.371   3.403   1.892 -0.8609 -1.2379  0.3153
  969MOL0     O30681   3.178   4.967   9.824  0.2474  0.2760  0.0417
  969MOL0     C30682   3.154   5.069   9.885  0.9515 -0.3144  0.3442
  969MOL0     O30683   3.085   5.184   9.838 -0.3933  0.1151  0.0975
  969MOL0     C30684   3.041   5.184   9.712 -0.3918 -0.5684  0.0258
  969MOL0     C30685   2.907   5.205   9.691 -1.2237 -0.1563  1.6050
  969MOL0     C30686   2.855   5.212   9.568  0.3295  0.3495 -0.0780
  969MOL0     C30687   2.929   5.180   9.451  0.0460  0.1918 -0.6015
  969MOL0     O30688   2.860   5.174   9.338  0.1973 -0.4103 -0.0535
  969MOL0     C30689   2.808   5.292   9.268  1.0983  0.4010 -0.9949
  969MOL0     C30690   2.662   5.262   9.220  0.3322 -0.4443  0.0476
  969MOL0     C30691   2.597   5.382   9.154 -0.6676  0.2348  0.1403
  969MOL0     C30692   2.449   5.366   9.118  0.2530  0.3542  0.5707
  969MOL0     C30693   2.385   5.495   9.078  0.4522 -1.0192  0.4569
  969MOL0     C30694   2.254   5.481   9.001  0.4221 -0.1901  0.5657
  969MOL0     C30695   2.254   5.436   8.852 -0.9037 -0.8183 -0.3805
  969MOL0     C30696   2.112   5.415   8.782  0.2123  0.8373 -0.2445
  969MOL0     N30697   2.036   5.535   8.754 -0.0058  0.0288 -0.5668
  969MOL0     C30698   1.924   5.569   8.814  0.1662 -0.6218  0.0846
  969MOL0     C30699   1.902   5.701   8.787  0.0513  0.8469 -0.5117
  969MOL0     C30700   1.790   5.783   8.839 -0.4194  0.1824  0.4681
  969MOL0     C30701   1.670   5.784   8.752 -0.7063  0.0965 -1.1899
  969MOL0     C30702   1.605   5.917   8.749  0.4084  0.4688 -0.5938
  969MOL0     C30703   1.456   5.900   8.706 -0.7740  0.3193  0.3065
  969MOL0     O30704   1.460   5.839   8.573 -0.1807 -0.4834 -0.4815
  969MOL0     C30705   1.343   5.816   8.504  0.0508  0.2244 -0.0894
  969MOL0     C30706   1.349   5.733   8.386 -0.5474  0.7417  0.6544
  969MOL0     C30707   1.238   5.697   8.309  0.4605 -0.3018 -0.6521
  969MOL0     C30708   1.256   5.572   8.216  0.3151  0.4849 -0.5225
  969MOL0     C30709   1.116   5.756   8.336  0.0703 -0.7273  0.4910
  969MOL0     C30710   0.991   5.728   8.261  0.4931  0.3307  1.2722
  969MOL0     O30711   0.871   5.785   8.300 -0.2030 -0.2489 -0.1118
  969MOL0     C30712   0.754   5.746   8.245 -0.2220 -1.0479  0.8300
  969MOL0     C30713   0.651   5.712   8.327 -0.4882  0.4627 -0.5965
  969MOL0     C30714   0.528   5.682   8.275 -0.0427 -0.0619  0.9908
  969MOL0     C30715   0.503   5.679   8.133 -1.4229 -0.3020  0.3638
  969MOL0     O30716   0.394   5.631   8.074  1.2816  0.7258 -0.0841
  969MOL0     C30717   0.312   5.539   8.144 -0.3224 -0.0416 -0.8689
  969MOL0     C30718   0.252   5.439   8.050  1.0358 -0.3181 -0.1597
  969MOL0     C30719   0.147   5.507   7.960  0.0469  0.8979  0.1048
  969MOL0     C30720   0.036   5.416   7.906 -0.2628  0.1549 -0.4826
  969MOL0     C30721   0.100   5.303   7.818 -0.4005 -0.5001 -0.0335
  969MOL0     C30722  -0.005   5.200   7.778  0.1158  0.3568 -0.7809
  969MOL0     C30723  -0.068   5.117   7.899 -0.1901 -0.4633  0.7000
  969MOL0     C30724   0.030   5.028   7.976 -0.2591 -0.1829  0.2532
  969MOL0    Cl30725  -0.039   4.904   8.083  0.4964 -0.4505 -0.1307
  969MOL0     C30726   0.608   5.723   8.052 -0.1248  0.4026 -0.3065
  969MOL0     C30727   0.727   5.757   8.106 -0.2331  0.1639  0.1834
  969MOL0     O30728   0.991   5.623   8.197 -0.2627 -0.3580  0.5184
  969MOL0     C30729   1.113   5.841   8.448 -0.2834  0.2440 -0.1738
  969MOL0     C30730   1.218   5.871   8.531 -0.4016  0.2527  0.3913
  969MOL0     N30731   2.005   5.742   8.694  1.1941  0.1295 -0.5062
  969MOL0     N30732   2.080   5.642   8.682  0.4118 -0.6831  0.2661
  969MOL0     C30733   3.066   5.160   9.465 -0.2543 -0.2904  0.2028
  969MOL0     C30734   3.118   5.167   9.598  0.8202 -0.3524  0.8879
  969MOL0     C30735   3.174   5.057  10.027  0.1809 -0.3992 -0.4753
  969MOL0     C30736   3.156   5.168  10.112  0.3208 -0.0621  0.3258
  969MOL0     C30737   3.158   5.155  10.248 -0.3364 -0.2579  0.0598
  969MOL0     C30738   3.196   5.037  10.313 -0.2218 -0.1727  0.1069
  969MOL0     O30739   3.192   5.034  10.448 -0.2844 -0.0455 -0.1522
  969MOL0     C30740   3.163   5.154  10.528 -0.4329 -0.6780 -0.1164
  969MOL0     C30741   3.014   5.174  10.541  0.9836  0.3693  0.7972
  969MOL0     C30742   2.947   5.127  10.673 -0.5444 -0.6432 -0.3079
  969MOL0     C30743   2.808   5.177  10.684 -0.2456 -0.4040  0.8145
  969MOL0     C30744   2.737   5.119  10.802  0.1290 -0.8537  0.2252
  969MOL0     C30745   2.669   5.083  10.902  1.1572  0.5609  0.7581
  969MOL0     C30746   3.234   4.928  10.236  0.4265  0.0128  0.7833
  969MOL0     C30747   3.224   4.939  10.094  0.5609  0.0737 -0.0806
  969MOL0     H30748   2.846   5.224   9.778 -2.3739  2.2707  0.3803
  969MOL0     H30749   2.748   5.219   9.577 -0.0665 -2.9106 -0.8297
  969MOL0     H30750   2.803   5.373   9.342  0.1534 -2.8394  2.8390
  969MOL0     H30751   2.875   5.319   9.186  0.8363  1.3616 -0.9056
  969MOL0     H30752   2.667   5.179   9.149 -0.1140  0.3873 -1.0035
  969MOL0     H30753   2.600   5.228   9.303  0.4774 -1.6518 -0.3291
  969MOL0     H30754   2.602   5.467   9.223  0.6336  2.1162 -2.1227
  969MOL0     H30755   2.656   5.418   9.069  2.8160  1.1268  2.7084
  969MOL0     H30756   2.443   5.293   9.037 -0.8495  1.6052 -0.5005
  969MOL0     H30757   2.396   5.320   9.202  0.0865  0.0571  0.3012
  969MOL0     H30758   2.381   5.558   9.167  1.9423  0.6904 -0.6181
  969MOL0     H30759   2.456   5.553   9.018 -0.3080  0.5934  1.0553
  969MOL0     H30760   2.182   5.422   9.058 -2.5740  1.5105 -1.1720
  969MOL0     H30761   2.216   5.583   8.987  0.2272 -0.5937 -2.4960
  969MOL0     H30762   2.318   5.514   8.811  0.3993  0.3527  3.3983
  969MOL0     H30763   2.309   5.343   8.833  2.1527  1.1141 -1.7658
  969MOL0     H30764   2.048   5.352   8.845  0.4370  0.7216 -0.1303
  969MOL0     H30765   2.134   5.371   8.684  3.1233  1.1969  0.1740
  969MOL0     H30766   1.864   5.501   8.874 -1.0490  1.0846  0.8761
  969MOL0     H30767   1.748   5.755   8.936 -1.1001  2.3703  0.8636
  969MOL0     H30768   1.832   5.882   8.861 -0.8702  0.5689 -0.3763
  969MOL0     H30769   1.599   5.708   8.787  1.5369 -0.1263  3.6220
  969MOL0     H30770   1.700   5.766   8.648 -0.4419  0.8906 -1.2575
  969MOL0     H30771   1.661   5.976   8.676 -1.4204  6.0437  1.9072
  969MOL0     H30772   1.620   5.977   8.840 -0.7443 -1.6845  1.1024
  969MOL0     H30773   1.414   6.001   8.705 -0.5088  0.5658  3.2447
  969MOL0     H30774   1.403   5.839   8.780  1.3861 -0.2094  1.5192
  969MOL0     H30775   1.441   5.696   8.341 -2.5162 -0.5189 -2.7070
  969MOL0     H30776   1.354   5.525   8.226 -0.8808 -2.5597 -1.9436
  969MOL0     H30777   1.190   5.497   8.261 -0.1745  1.1030 -0.1878
  969MOL0     H30778   1.233   5.594   8.111  1.4278 -1.0112 -1.1174
  969MOL0     H30779   0.659   5.722   8.435 -2.9366 -0.8576 -0.2121
  969MOL0     H30780   0.438   5.670   8.336  0.1311 -0.5957  1.1461
  969MOL0     H30781   0.370   5.471   8.206  0.2550  0.1221 -1.2193
  969MOL0     H30782   0.231   5.585   8.201  0.6825 -0.2843  0.8004
  969MOL0     H30783   0.336   5.410   7.987  1.5158  1.1336 -0.2162
  969MOL0     H30784   0.211   5.353   8.104 -1.5031  0.3914 -0.7907
  969MOL0     H30785   0.205   5.551   7.879  1.6255 -0.7117  0.2884
  969MOL0     H30786   0.102   5.590   8.015  0.6666  1.4493 -0.2141
  969MOL0     H30787  -0.027   5.370   7.983  1.1306 -1.1520 -0.0718
  969MOL0     H30788  -0.032   5.482   7.853  1.3333  0.3546 -2.3766
  969MOL0     H30789   0.177   5.252   7.876  1.0197  0.8105 -0.7097
  969MOL0     H30790   0.139   5.344   7.724  0.7703 -0.6718  0.3671
  969MOL0     H30791  -0.076   5.264   7.724  2.1786  3.6621  0.1065
  969MOL0     H30792   0.040   5.132   7.706  2.1545  1.3227 -0.4770
  969MOL0     H30793  -0.144   5.054   7.851 -1.6668  1.3037  0.5918
  969MOL0     H30794  -0.129   5.178   7.967 -2.7115 -1.0868 -0.8665
  969MOL0     H30795   0.099   5.097   8.024  0.6853  0.3305 -1.7439
  969MOL0     H30796   0.095   4.983   7.900 -1.5738 -0.0218 -1.0187
  969MOL0     H30797   0.595   5.742   7.946  4.5196  0.7399 -0.9831
  969MOL0     H30798   0.796   5.805   8.038  1.2578 -0.5274  1.1652
  969MOL0     H30799   1.025   5.901   8.470 -0.1072  0.7354 -0.7490
  969MOL0     H30800   1.206   5.952   8.602  0.5355  1.4984 -0.8253
  969MOL0     H30801   3.124   5.135   9.377 -1.8193 -0.2647 -0.8748
  969MOL0     H30802   3.224   5.176   9.617  0.7754 -0.4305  1.1879
  969MOL0     H30803   3.117   5.260  10.069  0.5482 -0.0850  0.0709
  969MOL0     H30804   3.122   5.240  10.305  1.8232 -0.4593  1.8561
  969MOL0     H30805   3.201   5.137  10.629 -0.1322 -2.3600 -0.4777
  969MOL0     H30806   3.204   5.245  10.482 -1.8700 -1.8382 -4.1003
  969MOL0     H30807   2.970   5.123  10.455  1.1843  0.9557  0.3341
  969MOL0     H30808   3.001   5.282  10.528 -2.8598 -0.1088 -0.6063
  969MOL0     H30809   3.004   5.174  10.754 -2.0869  0.4711  0.1865
  969MOL0     H30810   2.957   5.019  10.680  0.4723 -0.6931 -1.9302
  969MOL0     H30811   2.742   5.154  10.600 -1.5589 -0.1348  1.7230
  969MOL0     H30812   2.811   5.287  10.679 -2.0626 -0.3788 -1.5846
  969MOL0     H30813   2.609   5.041  10.981  1.2236 -0.8422  0.1068
  969MOL0     H30814   3.261   4.834  10.285  1.7220  2.3938  5.2648
  969MOL0     H30815   3.243   4.844  10.044  0.1357 -1.4619  2.4953
  970MOL0     O30816   6.416   8.170   4.242 -0.4638  0.2127  0.2585
  970MOL0     C30817   6.403   8.196   4.359  0.7666  0.4873  0.5870
  970MOL0     O30818   6.502   8.251   4.435  0.1127  0.0872 -0.1283
  970MOL0     C30819   6.633   8.236   4.396  1.0553  0.1388 -0.0299
  970MOL0     C30820   6.720   8.349   4.392  0.6664 -0.2043 -0.8247
  970MOL0     C30821   6.857   8.330   4.374  0.3369 -1.0140  0.7638
  970MOL0     C30822   6.915   8.206   4.351 -0.7267 -0.6755  0.2273
  970MOL0     O30823   7.049   8.182   4.327 -0.1892  0.3891 -0.0501
  970MOL0     C30824   7.131   8.284   4.271 -0.5218  0.3069 -0.2590
  970MOL0     C30825   7.275   8.237   4.253 -0.7770 -0.2360  0.0378
  970MOL0     C30826   7.379   8.349   4.261  0.1566  0.1507  0.0327
  970MOL0     C30827   7.344   8.470   4.157 -0.2058 -0.4879 -0.2113
  970MOL0     C30828   7.461   8.523   4.077 -0.4545  0.0392 -0.3195
  970MOL0     C30829   7.415   8.614   3.965 -0.1055 -0.0665  0.3855
  970MOL0     C30830   7.527   8.640   3.862  0.5101  0.5892 -0.6907
  970MOL0     C30831   7.659   8.694   3.934  0.4526  0.1926 -0.6925
  970MOL0     N30832   7.766   8.746   3.853 -0.6712 -0.2721 -0.7128
  970MOL0     C30833   7.789   8.737   3.719  0.6191 -1.0039 -0.0490
  970MOL0     C30834   7.893   8.815   3.692 -0.1309  0.0602  0.4523
  970MOL0     C30835   7.933   8.850   3.543 -0.1770  0.0424  0.0439
  970MOL0     C30836   7.981   8.752   3.447  0.0615  0.1906 -1.1188
  970MOL0     C30837   8.038   8.626   3.510 -0.2070  1.0374 -1.1678
  970MOL0     C30838   8.162   8.645   3.603  0.5670  0.7526 -0.2177
  970MOL0     O30839   8.284   8.690   3.538  1.0596 -0.1911 -1.2550
  970MOL0     C30840   8.328   8.602   3.447  0.4823 -0.3222 -0.3235
  970MOL0     C30841   8.290   8.612   3.314 -0.5872  0.1775 -0.5090
  970MOL0     C30842   8.360   8.537   3.223 -0.3914 -0.7980 -0.7974
  970MOL0     C30843   8.318   8.573   3.073 -0.6775  0.5194  0.4822
  970MOL0     C30844   8.449   8.426   3.256  1.1051 -0.2530  0.1373
  970MOL0     C30845   8.518   8.337   3.161  0.1880  0.6401 -0.3466
  970MOL0     O30846   8.609   8.250   3.212  0.2589 -0.0808 -0.5330
  970MOL0     C30847   8.681   8.156   3.135  0.4238 -0.1962 -0.4399
  970MOL0     C30848   8.640   8.028   3.125 -0.4713  1.1485  0.4339
  970MOL0     C30849   8.694   7.930   3.038  0.1000 -0.3094  0.6255
  970MOL0     C30850   8.807   7.975   2.969 -0.6407 -0.5220 -0.5376
  970MOL0     O30851   8.859   7.892   2.873 -0.0188 -0.3302 -1.2846
  970MOL0     C30852   8.945   7.785   2.926  0.6349 -1.1751  0.6219
  970MOL0     C30853   8.909   7.662   2.844 -0.7046  0.5483 -0.9062
  970MOL0     C30854   9.009   7.543   2.871  0.2657 -0.3093 -0.3702
  970MOL0     C30855   8.989   7.473   3.005  0.4931 -0.4762  0.1075
  970MOL0     C30856   9.082   7.361   3.016  1.1754  0.7509  0.2059
  970MOL0     C30857   9.100   7.287   3.147 -0.2683  0.5529  0.0361
  970MOL0     C30858   9.025   7.148   3.129 -0.2575 -0.8136 -0.2144
  970MOL0     C30859   9.046   7.059   3.252  0.4664  1.0589  0.5128
  970MOL0    Cl30860   9.004   7.139   3.398  0.2810  0.0851 -0.1819
  970MOL0     C30861   8.850   8.111   2.976  0.2275  1.2561  0.5226
  970MOL0     C30862   8.797   8.197   3.071 -0.2077 -0.1733  1.4049
  970MOL0     O30863   8.488   8.345   3.039 -0.2501 -0.5818 -1.1730
  970MOL0     C30864   8.480   8.420   3.390 -0.1597  0.3846  0.2806
  970MOL0     C30865   8.422   8.501   3.485  0.9657  0.0629 -0.3378
  970MOL0     N30866   7.941   8.867   3.809  0.0473 -0.3413 -0.8246
  970MOL0     N30867   7.858   8.827   3.906 -0.1526  0.5950 -0.1246
  970MOL0     C30868   6.828   8.095   4.364 -0.2754  0.0620  0.2381
  970MOL0     C30869   6.690   8.113   4.389 -0.1729  0.2088 -0.6355
  970MOL0     C30870   6.262   8.201   4.411  0.7330  0.8442 -0.4286
  970MOL0     C30871   6.250   8.231   4.550 -0.0265  0.1460  1.0045
  970MOL0     C30872   6.124   8.237   4.609 -0.5680 -0.4737 -0.2106
  970MOL0     C30873   6.009   8.205   4.551  0.0209  0.1809  0.1558
  970MOL0     O30874   5.899   8.231   4.623 -0.0851 -0.8197 -1.3641
  970MOL0     C30875   5.781   8.157   4.578  0.4854  0.1612 -0.7630
  970MOL0     C30876   5.700   8.123   4.707 -0.0837 -1.1035  0.4381
  970MOL0     C30877   5.773   8.042   4.824 -0.1012  0.1753 -0.1470
  970MOL0     C30878   5.667   7.942   4.882 -0.5746  1.3751  0.3808
  970MOL0     C30879   5.550   8.005   4.947 -0.1624  0.1522  1.3436
  970MOL0     C30880   5.469   8.076   4.984  1.1419 -0.2188 -0.4551
  970MOL0     C30881   6.020   8.161   4.412  0.8041 -0.5678  0.0137
  970MOL0     C30882   6.141   8.165   4.345 -0.3759  0.5590 -0.0164
  970MOL0     H30883   6.685   8.448   4.419 -2.6002 -1.3326 -0.5215
  970MOL0     H30884   6.906   8.427   4.369 -2.8532  0.7542  1.1532
  970MOL0     H30885   7.095   8.332   4.179  0.4511 -1.0881 -1.4061
  970MOL0     H30886   7.131   8.359   4.351 -1.1906 -0.0456  0.0844
  970MOL0     H30887   7.307   8.170   4.334 -2.3210 -0.1318  0.7807
  970MOL0     H30888   7.270   8.190   4.154  0.5661  2.3621 -1.3461
  970MOL0     H30889   7.385   8.391   4.362  1.0618  2.1472 -0.7867
  970MOL0     H30890   7.476   8.310   4.229  1.3472  1.6446  1.5915
  970MOL0     H30891   7.281   8.429   4.078 -2.5477  2.5729 -0.1104
  970MOL0     H30892   7.289   8.553   4.204 -0.4493 -0.3697 -0.6978
  970MOL0     H30893   7.519   8.582   4.149 -1.4251  1.6345 -0.7981
  970MOL0     H30894   7.521   8.448   4.027 -1.8311  0.3250 -2.5280
  970MOL0     H30895   7.336   8.568   3.906  1.3290  1.1689 -2.7035
  970MOL0     H30896   7.377   8.709   4.004 -1.3567 -0.5523  0.3920
  970MOL0     H30897   7.539   8.540   3.818 -6.0132 -0.3472 -1.3252
  970MOL0     H30898   7.488   8.705   3.784  0.6336  0.1104 -1.1530
  970MOL0     H30899   7.699   8.613   3.996  1.2811  0.4779 -0.8467
  970MOL0     H30900   7.637   8.772   4.007  1.2347 -0.9454  0.8059
  970MOL0     H30901   7.731   8.690   3.640 -0.5024  1.6941 -0.9640
  970MOL0     H30902   7.843   8.893   3.498  0.0088  0.6441  0.2242
  970MOL0     H30903   8.007   8.930   3.538 -0.5873  0.5094  1.0155
  970MOL0     H30904   8.065   8.793   3.389  0.7963 -2.1144 -1.8054
  970MOL0     H30905   7.913   8.720   3.367  1.3510  0.8567 -2.5399
  970MOL0     H30906   8.060   8.551   3.433  1.5534 -0.9811  1.1783
  970MOL0     H30907   7.964   8.575   3.572  0.3586  1.3105 -0.2568
  970MOL0     H30908   8.184   8.544   3.638 -3.1175 -0.3684 -0.8150
  970MOL0     H30909   8.144   8.696   3.698 -0.3116 -1.2905  0.7608
  970MOL0     H30910   8.222   8.692   3.288  1.5982  2.6184  0.8265
  970MOL0     H30911   8.234   8.642   3.064 -0.3427  0.7064 -1.5866
  970MOL0     H30912   8.409   8.617   3.032 -1.1791 -0.0220 -1.2739
  970MOL0     H30913   8.302   8.475   3.029  1.7791 -0.1874  0.9761
  970MOL0     H30914   8.553   8.014   3.189  0.2147 -1.1091  0.9623
  970MOL0     H30915   8.652   7.830   3.034  0.9866 -0.8017  2.5779
  970MOL0     H30916   9.049   7.808   2.902  0.6518 -1.5797  0.3053
  970MOL0     H30917   8.927   7.768   3.032 -1.3017 -0.2299  0.4924
  970MOL0     H30918   8.809   7.623   2.864 -0.4392 -1.8396 -3.6029
  970MOL0     H30919   8.920   7.683   2.737  2.1296  2.0736 -0.4341
  970MOL0     H30920   9.111   7.582   2.863  0.0995  0.4223  0.7893
  970MOL0     H30921   8.992   7.467   2.794  1.9424  0.5448 -1.6321
  970MOL0     H30922   8.996   7.541   3.091 -1.4592  1.6544 -1.2972
  970MOL0     H30923   8.886   7.437   3.006 -0.5879  1.5235 -5.1137
  970MOL0     H30924   9.176   7.404   2.981  0.7293  1.1765 -0.4797
  970MOL0     H30925   9.062   7.299   2.928  3.2801  1.4099 -0.7998
  970MOL0     H30926   9.204   7.261   3.171 -0.8379 -2.1290 -0.1196
  970MOL0     H30927   9.054   7.343   3.229  0.6814 -3.1841  3.4630
  970MOL0     H30928   9.054   7.096   3.037  1.7785 -1.6782  0.8568
  970MOL0     H30929   8.917   7.163   3.135 -0.1927 -0.0236 -0.8590
  970MOL0     H30930   9.150   7.024   3.246  0.3786  0.8948 -0.2231
  970MOL0     H30931   8.989   6.967   3.238 -0.7781  1.5968  1.8142
  970MOL0     H30932   8.935   8.151   2.922  0.9623  0.6821  1.2311
  970MOL0     H30933   8.823   8.301   3.086  1.9075 -0.7829  2.1904
  970MOL0     H30934   8.557   8.351   3.423  0.9561  0.2029 -2.3696
  970MOL0     H30935   8.427   8.497   3.594 -4.0384  3.9275  0.4525
  970MOL0     H30936   6.868   7.995   4.349  0.6151  0.7928 -2.7457
  970MOL0     H30937   6.635   8.026   4.424 -0.4310  0.7062  0.2375
  970MOL0     H30938   6.341   8.236   4.609 -0.7126  1.8918  2.0228
  970MOL0     H30939   6.121   8.267   4.713 -0.7797  1.6274 -0.7598
  970MOL0     H30940   5.712   8.220   4.522  0.8725  0.6946 -0.6447
  970MOL0     H30941   5.800   8.062   4.526  1.8630 -1.1991  2.0077
  970MOL0     H30942   5.602   8.081   4.682 -0.2821 -0.5578  0.2956
  970MOL0     H30943   5.677   8.220   4.751  1.3412  0.4237 -1.9860
  970MOL0     H30944   5.797   8.117   4.900  1.8250  1.8047 -2.2494
  970MOL0     H30945   5.854   7.981   4.784 -2.3182 -1.3107 -2.7198
  970MOL0     H30946   5.708   7.874   4.957 -0.3098  1.6455  0.4822
  970MOL0     H30947   5.640   7.874   4.800 -0.3047  0.4747  1.0206
  970MOL0     H30948   5.389   8.139   5.015  0.3771 -0.4355 -1.9095
  970MOL0     H30949   5.939   8.134   4.344 -0.4293 -2.6677  2.1772
  970MOL0     H30950   6.131   8.134   4.241  0.2506  1.2751 -0.3019
  971MOL0     O30951   1.498   2.437   9.061 -0.3710 -0.3317 -0.8639
  971MOL0     C30952   1.542   2.403   8.949  0.0754  0.4865 -0.1360
  971MOL0     O30953   1.466   2.334   8.848 -0.7237 -0.0801 -0.5193
  971MOL0     C30954   1.329   2.334   8.874 -0.3291  0.6833 -0.7504
  971MOL0     C30955   1.245   2.457   8.889 -0.0743 -0.0335  0.4406
  971MOL0     C30956   1.109   2.445   8.873 -0.4139  1.0301  0.2875
  971MOL0     C30957   1.047   2.314   8.844  0.3836 -0.6916  0.1869
  971MOL0     O30958   0.913   2.306   8.832 -0.2304  0.2194  0.0549
  971MOL0     C30959   0.845   2.178   8.832 -0.5368  0.5158 -0.4713
  971MOL0     C30960   0.694   2.200   8.824 -0.5334 -0.7374 -0.3922
  971MOL0     C30961   0.632   2.238   8.953  0.1875  1.2157 -0.1036
  971MOL0     C30962   0.486   2.217   8.963 -0.0709 -0.3746  0.5782
  971MOL0     C30963   0.406   2.278   8.843  0.1542 -0.7351 -0.5272
  971MOL0     C30964   0.266   2.319   8.899  1.1326 -0.1851  0.6524
  971MOL0     C30965   0.198   2.422   8.813  0.4898  0.7686  0.8541
  971MOL0     C30966   0.176   2.365   8.669  0.4047 -0.2506 -0.0623
  971MOL0     N30967   0.284   2.409   8.580  0.3136 -0.0299 -0.2466
  971MOL0     C30968   0.271   2.532   8.509 -0.1656  0.2802 -0.4557
  971MOL0     C30969   0.383   2.531   8.428 -0.5539  0.8352  1.0796
  971MOL0     C30970   0.408   2.639   8.332 -0.3318  0.2486  0.9485
  971MOL0     C30971   0.304   2.640   8.213  0.2744  0.7271 -0.3911
  971MOL0     C30972   0.354   2.575   8.084  0.5325  0.2999 -0.3057
  971MOL0     C30973   0.381   2.421   8.097  0.5720 -0.3802 -0.8033
  971MOL0     O30974   0.449   2.373   7.985  0.3758  0.0643  0.1461
  971MOL0     C30975   0.585   2.378   7.973 -0.2296 -0.2346 -0.1325
  971MOL0     C30976   0.637   2.336   7.855  0.3393  0.0011  0.5969
  971MOL0     C30977   0.772   2.329   7.832 -0.1455  0.0971  0.4479
  971MOL0     C30978   0.801   2.307   7.683 -0.5701 -0.2363 -0.1954
  971MOL0     C30979   0.860   2.362   7.932 -1.3138 -0.0750 -0.3872
  971MOL0     C30980   1.002   2.338   7.907 -0.2974  0.1979 -0.8010
  971MOL0     O30981   1.081   2.430   7.967 -0.1600 -0.0123 -0.1364
  971MOL0     C30982   1.221   2.415   7.949 -0.4515 -0.8563  0.2868
  971MOL0     C30983   1.283   2.308   8.020 -1.4220 -1.3125  0.9235
  971MOL0     C30984   1.424   2.303   8.005 -0.6102  0.3288  0.0722
  971MOL0     C30985   1.499   2.400   7.930 -0.1560 -0.6034  1.5028
  971MOL0     O30986   1.638   2.387   7.928  0.1879  0.4200 -0.0166
  971MOL0     C30987   1.673   2.354   7.796 -0.3941 -0.8252  0.4887
  971MOL0     C30988   1.825   2.397   7.768 -0.3421  0.5199 -0.1683
  971MOL0     C30989   1.844   2.541   7.732 -0.9473 -0.2348 -0.3633
  971MOL0     C30990   1.809   2.572   7.579 -0.1633 -0.2855 -0.9287
  971MOL0     C30991   1.804   2.720   7.536 -1.0453 -0.6351 -0.0396
  971MOL0     C30992   1.932   2.809   7.546  0.0935  0.8113 -0.4075
  971MOL0     C30993   1.926   2.937   7.464  0.7370  0.3580  1.0444
  971MOL0     C30994   2.035   3.033   7.495 -0.9088 -0.3134 -0.1112
  971MOL0    Cl30995   2.025   3.177   7.394 -0.2327  0.3292  0.1102
  971MOL0     C30996   1.422   2.504   7.861 -0.3110  0.7303  1.3193
  971MOL0     C30997   1.287   2.501   7.877  0.7824 -0.3288  0.3107
  971MOL0     O30998   1.045   2.243   7.844  0.4840 -0.7343 -0.1414
  971MOL0     C30999   0.807   2.406   8.050 -0.3655 -0.2828 -1.1050
  971MOL0     C31000   0.675   2.412   8.075 -0.3703  0.4685 -0.4355
  971MOL0     N31001   0.457   2.411   8.457  0.5962  0.2563 -1.0964
  971MOL0     N31002   0.394   2.339   8.538  0.2579  0.9572 -1.5089
  971MOL0     C31003   1.123   2.202   8.830  0.4781 -0.2696  0.2455
  971MOL0     C31004   1.262   2.210   8.855 -0.3167  0.1720 -0.4415
  971MOL0     C31005   1.673   2.445   8.910 -0.3728  0.9848 -0.1070
  971MOL0     C31006   1.740   2.547   8.973 -0.4694  0.2702 -0.0932
  971MOL0     C31007   1.875   2.577   8.936 -0.1157 -0.1690  0.9908
  971MOL0     C31008   1.932   2.512   8.823 -0.2738 -0.0372  0.1905
  971MOL0     O31009   2.058   2.569   8.780  1.3578  0.0375 -0.0757
  971MOL0     C31010   2.122   2.521   8.664 -0.0500  0.5649  0.3378
  971MOL0     C31011   2.056   2.564   8.537  1.1494 -0.1773 -0.5451
  971MOL0     C31012   2.158   2.551   8.422 -0.2967 -0.6990  0.4961
  971MOL0     C31013   2.229   2.690   8.395  0.9568  0.4232  0.1171
  971MOL0     C31014   2.360   2.668   8.332  0.2155 -0.0372  0.3243
  971MOL0     C31015   2.457   2.688   8.260 -0.1879 -0.1833  0.2332
  971MOL0     C31016   1.860   2.408   8.765 -0.3859  0.1875 -0.5072
  971MOL0     C31017   1.736   2.372   8.807  1.2989 -0.3568 -0.2880
  971MOL0     H31018   1.293   2.553   8.904  2.6844 -1.3841  0.8213
  971MOL0     H31019   1.053   2.538   8.880 -0.1819  1.0547  3.7311
  971MOL0     H31020   0.879   2.121   8.745 -2.1299  0.8970 -1.3862
  971MOL0     H31021   0.870   2.111   8.915 -1.4229  0.8563  0.0895
  971MOL0     H31022   0.669   2.272   8.745 -0.5361  1.0122  1.1421
  971MOL0     H31023   0.645   2.110   8.787  0.0006 -0.5079 -1.7235
  971MOL0     H31024   0.667   2.190   9.045 -0.2284  0.3444 -0.3954
  971MOL0     H31025   0.652   2.343   8.976 -1.6438  1.1915  1.9363
  971MOL0     H31026   0.481   2.107   8.963  0.5126 -0.4418  2.9658
  971MOL0     H31027   0.447   2.254   9.058 -0.0163 -1.2773  0.9631
  971MOL0     H31028   0.443   2.367   8.791 -4.4174  3.0278  1.8327
  971MOL0     H31029   0.403   2.198   8.768  0.0811  1.1497 -2.6363
  971MOL0     H31030   0.190   2.241   8.907 -1.1092  1.0755 -4.5022
  971MOL0     H31031   0.272   2.368   8.997 -0.8364 -1.9902  1.7565
  971MOL0     H31032   0.101   2.453   8.856  0.0585  0.2075  0.2954
  971MOL0     H31033   0.257   2.513   8.798 -0.4803  1.1552 -0.9605
  971MOL0     H31034   0.078   2.400   8.634  1.2154  0.8716 -1.3215
  971MOL0     H31035   0.157   2.258   8.672 -4.6550  0.4090  1.8033
  971MOL0     H31036   0.185   2.597   8.517 -0.9005 -0.4637 -1.8922
  971MOL0     H31037   0.399   2.732   8.389  1.0286  0.8801  0.1957
  971MOL0     H31038   0.513   2.636   8.302 -0.0081 -0.9022  2.1501
  971MOL0     H31039   0.283   2.747   8.205  3.6147  1.7625  2.3568
  971MOL0     H31040   0.206   2.600   8.241  0.3897  1.0831  0.5710
  971MOL0     H31041   0.443   2.628   8.049  0.4826 -0.3032 -1.4122
  971MOL0     H31042   0.278   2.581   8.005 -0.1692  0.5181  0.3738
  971MOL0     H31043   0.284   2.371   8.101  0.2533 -0.2720 -4.1399
  971MOL0     H31044   0.421   2.395   8.195 -0.3336 -1.2352 -0.6457
  971MOL0     H31045   0.569   2.293   7.782  0.0350 -1.3143  1.6165
  971MOL0     H31046   0.797   2.198   7.668 -3.6071 -0.3433  0.6145
  971MOL0     H31047   0.724   2.360   7.626 -0.9263 -0.3417  0.1791
  971MOL0     H31048   0.895   2.351   7.650 -0.0914 -2.2446 -1.6953
  971MOL0     H31049   1.221   2.234   8.068  0.5745 -2.0080  2.5683
  971MOL0     H31050   1.481   2.222   8.048  0.1572  0.0479 -1.4253
  971MOL0     H31051   1.661   2.247   7.781  0.8881 -0.8174 -0.9215
  971MOL0     H31052   1.618   2.409   7.718  1.9568  0.8704 -0.0998
  971MOL0     H31053   1.899   2.375   7.845  1.5053 -2.3086 -2.5405
  971MOL0     H31054   1.850   2.330   7.685 -2.5752  1.3241 -1.5915
  971MOL0     H31055   1.944   2.578   7.759 -1.0975  1.8407 -2.3241
  971MOL0     H31056   1.771   2.598   7.789 -0.9252 -0.0959 -0.4712
  971MOL0     H31057   1.889   2.522   7.524 -0.7864 -1.2461 -0.9865
  971MOL0     H31058   1.715   2.518   7.559 -0.8588 -0.5623  2.4378
  971MOL0     H31059   1.718   2.776   7.576 -1.9313 -0.9276 -1.4690
  971MOL0     H31060   1.783   2.730   7.429 -1.0828  3.5140  0.1779
  971MOL0     H31061   1.952   2.828   7.652  0.5987  0.2505 -0.3982
  971MOL0     H31062   2.012   2.742   7.514 -0.4474 -0.7322  1.2766
  971MOL0     H31063   1.826   2.978   7.480  0.9696  0.7114  1.6181
  971MOL0     H31064   1.937   2.908   7.359  1.7691 -0.6994  1.4178
  971MOL0     H31065   2.131   2.985   7.474 -3.4307 -5.2038 -2.4221
  971MOL0     H31066   2.029   3.068   7.598  3.1550 -0.2228  0.2390
  971MOL0     H31067   1.474   2.575   7.798 -1.4828  1.2719  0.9559
  971MOL0     H31068   1.228   2.584   7.840  2.5233  0.7533 -0.1639
  971MOL0     H31069   0.869   2.445   8.130  0.5696 -0.7103 -1.6049
  971MOL0     H31070   0.632   2.457   8.164  1.0110 -0.7724  0.9233
  971MOL0     H31071   1.077   2.105   8.813 -1.5373  0.3158  1.9378
  971MOL0     H31072   1.316   2.117   8.856 -4.3734 -2.5947  3.8250
  971MOL0     H31073   1.699   2.606   9.055  1.4734 -0.2500  1.3417
  971MOL0     H31074   1.931   2.651   8.992  1.2297 -0.0106 -0.4914
  971MOL0     H31075   2.225   2.556   8.666 -0.1775  0.9442  0.3993
  971MOL0     H31076   2.121   2.412   8.669  1.6811  0.3849 -1.8061
  971MOL0     H31077   2.016   2.666   8.540 -3.8327 -1.8559 -0.1358
  971MOL0     H31078   1.964   2.510   8.511 -1.6886  3.2341  1.4696
  971MOL0     H31079   2.114   2.521   8.326 -1.5963 -0.7004  1.0778
  971MOL0     H31080   2.227   2.476   8.461  0.2120  0.3364  1.6784
  971MOL0     H31081   2.241   2.752   8.485 -0.9714  2.0857 -0.6916
  971MOL0     H31082   2.169   2.745   8.322 -1.4383 -0.3620  1.3660
  971MOL0     H31083   2.546   2.726   8.212  0.0844  1.2784  1.8030
  971MOL0     H31084   1.896   2.374   8.668 -3.4009  1.4471 -2.2069
  971MOL0     H31085   1.688   2.285   8.765  2.2638 -2.7520  3.0715
  972MOL0     O31086  10.421   8.369   9.329  1.2076 -0.0767 -0.2133
  972MOL0     C31087  10.401   8.352   9.204 -0.1631  0.4407  0.5576
  972MOL0     O31088  10.308   8.265   9.151 -0.4026 -0.3558  0.6508
  972MOL0     C31089  10.211   8.221   9.239 -0.2297  0.0262  0.1051
  972MOL0     C31090  10.217   8.094   9.298  0.1205  0.2783  0.0489
  972MOL0     C31091  10.103   8.048   9.372 -0.0039 -0.3321 -0.3032
  972MOL0     C31092   9.989   8.135   9.390  0.4193  0.0025 -0.3372
  972MOL0     O31093   9.890   8.107   9.478 -0.2017 -0.0887  0.1933
  972MOL0     C31094   9.865   7.974   9.524 -1.0667  0.7872  0.2576
  972MOL0     C31095   9.737   7.987   9.594 -0.6070  0.7255 -0.2475
  972MOL0     C31096   9.625   7.977   9.500  0.5036 -0.8224  0.5972
  972MOL0     C31097   9.496   8.028   9.558 -0.4705  0.1100  0.5275
  972MOL0     C31098   9.378   8.017   9.455 -0.2750  0.4819 -0.0524
  972MOL0     C31099   9.382   8.113   9.331 -0.7529  0.1027 -0.3210
  972MOL0     C31100   9.258   8.105   9.252 -0.2525  0.1148 -0.4734
  972MOL0     C31101   9.266   8.177   9.118  0.5823 -0.1710 -0.9792
  972MOL0     N31102   9.363   8.103   9.043  0.2826  0.8568  0.0178
  972MOL0     C31103   9.344   7.987   8.964  0.0853 -0.0952  0.2561
  972MOL0     C31104   9.448   7.977   8.879  0.5858  0.0682 -0.0019
  972MOL0     C31105   9.447   7.853   8.789 -0.0221 -0.0024  0.0904
  972MOL0     C31106   9.545   7.862   8.675 -0.3439 -0.1228  0.4337
  972MOL0     C31107   9.519   7.970   8.567 -0.8256 -0.7410  0.0843
  972MOL0     C31108   9.631   8.071   8.560  0.3436 -0.1701  0.0893
  972MOL0     O31109   9.589   8.169   8.468  0.1029  0.1311  0.1984
  972MOL0     C31110   9.618   8.303   8.480 -0.1581  1.0576  0.3991
  972MOL0     C31111   9.532   8.394   8.442  1.0727 -0.2969  0.4632
  972MOL0     C31112   9.541   8.530   8.466 -0.5050  0.2065  0.0252
  972MOL0     C31113   9.427   8.614   8.431 -0.7640 -0.7759 -0.8856
  972MOL0     C31114   9.663   8.577   8.518  0.3805  0.2333  0.1988
  972MOL0     C31115   9.684   8.718   8.542  0.0514 -0.0594  0.2319
  972MOL0     O31116   9.779   8.741   8.634 -0.4885 -0.1529  0.5661
  972MOL0     C31117   9.779   8.854   8.713 -0.4236 -0.4983  1.1208
  972MOL0     C31118   9.893   8.883   8.786  0.0883 -0.0128  0.8488
  972MOL0     C31119   9.899   9.006   8.846  0.8604 -0.6489  0.3561
  972MOL0     C31120   9.790   9.096   8.869  0.4273 -0.4712 -0.4424
  972MOL0     O31121   9.795   9.216   8.934 -0.0690 -0.1778 -1.2831
  972MOL0     C31122   9.832   9.203   9.075 -0.5959  0.1948  0.6063
  972MOL0     C31123   9.758   9.297   9.165  0.9107  0.6838 -0.0759
  972MOL0     C31124   9.606   9.278   9.140 -0.3546 -0.5102  0.0098
  972MOL0     C31125   9.534   9.389   9.220  0.1876  0.0328 -0.4361
  972MOL0     C31126   9.379   9.372   9.216 -0.0989 -0.6014 -1.2319
  972MOL0     C31127   9.306   9.467   9.314 -0.4447  0.1033 -0.5900
  972MOL0     C31128   9.310   9.431   9.464  0.4264 -0.1967 -0.5930
  972MOL0     C31129   9.234   9.301   9.504 -0.1451 -0.1298  0.7757
  972MOL0    Cl31130   9.216   9.324   9.674 -0.1184 -0.2304  0.0332
  972MOL0     C31131   9.672   9.048   8.804 -0.8840  0.5455  0.8980
  972MOL0     C31132   9.664   8.937   8.722  0.2668  0.6793 -1.5851
  972MOL0     O31133   9.627   8.813   8.479 -0.0775  0.5138 -0.0765
  972MOL0     C31134   9.761   8.486   8.558  0.4741 -0.0887  0.1279
  972MOL0     C31135   9.730   8.352   8.554 -0.0456 -0.4059 -0.6867
  972MOL0     N31136   9.538   8.076   8.901  0.2582  0.2698  0.0569
  972MOL0     N31137   9.479   8.161   8.987 -0.0677  0.4494 -0.5403
  972MOL0     C31138   9.990   8.259   9.322  0.7991 -0.5604 -0.5075
  972MOL0     C31139  10.099   8.302   9.243 -0.7214 -0.5807  0.4521
  972MOL0     C31140  10.489   8.420   9.108 -1.0196 -0.6247  0.4140
  972MOL0     C31141  10.455   8.442   8.971 -1.2998  0.9235 -0.5465
  972MOL0     C31142  10.537   8.509   8.882  0.6629 -1.2196 -0.3711
  972MOL0     C31143  10.653   8.578   8.930 -0.1421  0.3834  0.0556
  972MOL0     O31144  10.730   8.650   8.847  0.2303  0.2052  0.2095
  972MOL0     C31145  10.711   8.787   8.853 -0.8701  0.2894  0.5392
  972MOL0     C31146  10.813   8.855   8.758  0.4412 -1.1115 -0.5147
  972MOL0     C31147  10.781   8.828   8.609  0.0351  0.7206 -0.3335
  972MOL0     C31148  10.854   8.929   8.522  0.9814  0.3052  0.3330
  972MOL0     C31149  10.992   8.944   8.555  0.3561  0.1547  0.1753
  972MOL0     C31150  11.112   8.945   8.577 -0.5476 -0.3156 -0.5400
  972MOL0     C31151  10.689   8.562   9.059 -0.2121 -0.2040 -0.3694
  972MOL0     C31152  10.609   8.488   9.151 -0.7411 -0.0953 -0.0075
  972MOL0     H31153  10.310   8.038   9.304  0.1048  0.3305  4.4997
  972MOL0     H31154  10.117   7.955   9.426  0.9112  0.7725  1.4408
  972MOL0     H31155   9.859   7.902   9.443  2.0512 -0.0287  0.6011
  972MOL0     H31156   9.945   7.933   9.586 -2.8259 -2.5769  0.5070
  972MOL0     H31157   9.731   7.905   9.667  2.0319 -0.8925 -1.6987
  972MOL0     H31158   9.745   8.074   9.660 -0.9606  2.0564 -1.8888
  972MOL0     H31159   9.631   8.022   9.400 -1.9199  0.4267  0.9356
  972MOL0     H31160   9.613   7.869   9.489 -2.5837 -0.5970  0.9468
  972MOL0     H31161   9.491   7.964   9.646 -0.1745  2.4461  2.3110
  972MOL0     H31162   9.498   8.133   9.587 -0.5997  0.3240 -0.1963
  972MOL0     H31163   9.363   7.911   9.430 -0.6024  0.1398  1.4765
  972MOL0     H31164   9.281   8.040   9.501 -1.8799 -1.3642 -2.2418
  972MOL0     H31165   9.402   8.216   9.363  0.1926  0.5853 -2.3027
  972MOL0     H31166   9.465   8.089   9.263 -1.0590 -0.5846 -0.4549
  972MOL0     H31167   9.236   8.001   9.226  2.5371 -0.9051  0.7753
  972MOL0     H31168   9.174   8.151   9.304  1.2595  3.6429 -0.8793
  972MOL0     H31169   9.296   8.280   9.137 -0.2476 -0.4944  2.7986
  972MOL0     H31170   9.161   8.171   9.087  0.3879  2.0609 -0.9425
  972MOL0     H31171   9.254   7.926   8.958  0.0471  0.1097 -3.6245
  972MOL0     H31172   9.468   7.758   8.839  4.3075  0.8026  0.2557
  972MOL0     H31173   9.348   7.844   8.745  0.9521  2.7561 -3.0990
  972MOL0     H31174   9.555   7.773   8.613  2.6714  2.0158 -2.5233
  972MOL0     H31175   9.640   7.887   8.722 -0.8247 -0.2732  1.5245
  972MOL0     H31176   9.421   8.018   8.574 -0.3632  0.2035  0.1463
  972MOL0     H31177   9.519   7.928   8.466  1.7649  1.7414 -1.0499
  972MOL0     H31178   9.729   8.026   8.542  1.3257  0.7940  2.5602
  972MOL0     H31179   9.637   8.115   8.660 -1.0690 -0.9023  0.5280
  972MOL0     H31180   9.453   8.366   8.373 -0.5492  1.3374  1.5455
  972MOL0     H31181   9.333   8.557   8.429 -0.1787 -1.7385 -1.7982
  972MOL0     H31182   9.418   8.697   8.502  0.2661 -0.8626 -0.6461
  972MOL0     H31183   9.441   8.644   8.327  0.3767  0.2628 -0.4540
  972MOL0     H31184   9.975   8.814   8.796  1.5801  1.9331  3.2526
  972MOL0     H31185   9.981   9.043   8.905 -2.3720  2.0592  3.6424
  972MOL0     H31186   9.824   9.099   9.107 -1.9000 -0.4236 -1.5067
  972MOL0     H31187   9.937   9.232   9.085  0.1860 -1.7747 -1.1725
  972MOL0     H31188   9.773   9.260   9.266 -0.6781 -0.2321 -0.1337
  972MOL0     H31189   9.779   9.404   9.154 -0.2950  1.0032  0.5552
  972MOL0     H31190   9.571   9.178   9.167 -2.8572 -0.4342 -2.4639
  972MOL0     H31191   9.586   9.301   9.035 -1.4742  1.4359  0.5920
  972MOL0     H31192   9.578   9.381   9.320 -2.4912  2.8936  1.1574
  972MOL0     H31193   9.559   9.490   9.185  1.0731  0.3858  1.1069
  972MOL0     H31194   9.348   9.271   9.243 -1.9191  0.6374  1.9766
  972MOL0     H31195   9.344   9.387   9.114 -1.7846 -1.6257 -0.8422
  972MOL0     H31196   9.350   9.565   9.295 -0.1883  0.0157 -0.4585
  972MOL0     H31197   9.199   9.467   9.290 -0.2016 -2.2539 -2.0950
  972MOL0     H31198   9.239   9.501   9.510 -2.4227 -1.6324 -2.5017
  972MOL0     H31199   9.412   9.438   9.503 -0.0893 -3.1249  1.6717
  972MOL0     H31200   9.282   9.206   9.481 -1.9999 -0.4652 -2.3328
  972MOL0     H31201   9.137   9.302   9.452  0.0451 -2.0422  0.3241
  972MOL0     H31202   9.576   9.098   8.803 -0.0184  2.3656  1.9400
  972MOL0     H31203   9.565   8.933   8.677  0.5452  1.9294 -2.3724
  972MOL0     H31204   9.847   8.517   8.617  0.6038  1.5388 -0.8526
  972MOL0     H31205   9.789   8.277   8.606  1.3520  1.9078  1.2041
  972MOL0     H31206   9.899   8.318   9.332  1.1051  0.0543 -1.1664
  972MOL0     H31207  10.102   8.392   9.182  1.9743  1.1948  2.9281
  972MOL0     H31208  10.365   8.396   8.932 -1.5151  1.6905 -0.9916
  972MOL0     H31209  10.515   8.512   8.776 -1.6963 -0.3436  0.0880
  972MOL0     H31210  10.610   8.808   8.816 -0.5499  1.1202  0.1072
  972MOL0     H31211  10.720   8.834   8.952 -0.3547  1.1138  0.1169
  972MOL0     H31212  10.911   8.816   8.784  0.8540  1.2341  1.8732
  972MOL0     H31213  10.808   8.960   8.790  0.4002 -0.2216 -3.2069
  972MOL0     H31214  10.674   8.840   8.589 -0.1442 -2.1215 -1.5628
  972MOL0     H31215  10.798   8.723   8.583 -0.0730  0.3234  1.1234
  972MOL0     H31216  10.806   9.027   8.532 -0.2430  0.1869 -3.0645
  972MOL0     H31217  10.841   8.900   8.417  0.0440 -0.8321  0.7336
  972MOL0     H31218  11.215   8.932   8.605 -0.7660 -1.2777 -0.1457
  972MOL0     H31219  10.779   8.608   9.099 -1.2946 -0.9742  3.3780
  972MOL0     H31220  10.656   8.492   9.249  3.2022 -0.5103 -1.6712
  973MOL0     O31221   0.350   1.376   2.828  0.0944  0.2454  0.8392
  973MOL0     C31222   0.320   1.272   2.883  0.2283 -0.2260 -0.4968
  973MOL0     O31223   0.407   1.171   2.916  0.2385 -0.2656 -0.2515
  973MOL0     C31224   0.542   1.202   2.892  0.4939 -0.0458  0.8471
  973MOL0     C31225   0.605   1.309   2.960 -0.3292 -0.3691 -0.3549
  973MOL0     C31226   0.745   1.329   2.943  0.6484  0.2230 -0.5325
  973MOL0     C31227   0.824   1.244   2.864  0.8969  0.1795 -0.3576
  973MOL0     O31228   0.964   1.243   2.842  0.1929  0.5508 -0.3893
  973MOL0     C31229   1.067   1.313   2.923 -0.4949 -0.1502  0.0727
  973MOL0     C31230   1.200   1.288   2.850  0.4386 -0.5576  0.4312
  973MOL0     C31231   1.314   1.333   2.938 -0.7014 -0.2807 -0.5263
  973MOL0     C31232   1.449   1.289   2.881 -0.5129  0.5888  0.0570
  973MOL0     C31233   1.572   1.360   2.943  0.5912 -0.8182 -0.3239
  973MOL0     C31234   1.703   1.331   2.874 -0.2830 -0.6034 -0.6762
  973MOL0     C31235   1.776   1.470   2.888  0.5876  0.5767  0.0618
  973MOL0     C31236   1.913   1.462   2.818  0.1069  0.4054 -0.0664
  973MOL0     N31237   2.018   1.389   2.895  0.4503 -0.7537  0.8676
  973MOL0     C31238   2.087   1.433   3.006  0.0369  0.5360 -0.1446
  973MOL0     C31239   2.178   1.337   3.028 -0.0990 -0.2865 -0.8846
  973MOL0     C31240   2.273   1.336   3.135 -0.0185  0.1920  0.6263
  973MOL0     C31241   2.239   1.237   3.254  1.0608 -0.6569 -0.1629
  973MOL0     C31242   2.338   1.258   3.377  0.7867 -0.7415 -0.2972
  973MOL0     C31243   2.299   1.177   3.493 -0.1220 -0.5083  0.0289
  973MOL0     O31244   2.199   1.238   3.574  0.0746  0.2758 -0.4620
  973MOL0     C31245   2.087   1.175   3.626 -0.7815 -0.0410  1.2209
  973MOL0     C31246   2.087   1.033   3.641 -0.5467  0.2437 -0.1397
  973MOL0     C31247   1.970   0.958   3.658 -0.2450 -0.5950 -0.0985
  973MOL0     C31248   1.983   0.807   3.661  0.2115 -0.4121  0.0037
  973MOL0     C31249   1.852   1.027   3.689  0.2299  0.1421  0.2911
  973MOL0     C31250   1.728   0.950   3.716  0.3621  0.2379  0.0413
  973MOL0     O31251   1.711   0.815   3.687  0.0640 -0.2540  1.4160
  973MOL0     C31252   1.589   0.760   3.705 -0.2120  0.3895 -0.1396
  973MOL0     C31253   1.539   0.675   3.601  0.7886  0.9334 -0.8751
  973MOL0     C31254   1.401   0.631   3.605 -0.9027  0.4240  0.3792
  973MOL0     C31255   1.322   0.647   3.720  0.3656 -0.4538  0.0002
  973MOL0     O31256   1.189   0.619   3.724 -1.0027  0.6320  0.1903
  973MOL0     C31257   1.149   0.490   3.694 -0.3717  0.8424 -0.8683
  973MOL0     C31258   1.225   0.389   3.776 -0.0755 -0.6490  1.1140
  973MOL0     C31259   1.199   0.398   3.920  0.5796  0.0049 -0.2542
  973MOL0     C31260   1.272   0.282   3.997 -0.9825 -0.0576 -0.1911
  973MOL0     C31261   1.183   0.150   3.977  0.4206 -0.5129  0.0996
  973MOL0     C31262   1.254   0.033   4.037  1.5314  0.2521  0.0638
  973MOL0     C31263   1.169  -0.096   4.058 -0.4893 -0.0590  0.4197
  973MOL0     C31264   1.255  -0.225   4.068  0.5174  0.1282  0.5124
  973MOL0    Cl31265   1.349  -0.216   4.218 -0.6888 -0.2052  0.1681
  973MOL0     C31266   1.380   0.725   3.822 -0.3617  0.0157  0.8718
  973MOL0     C31267   1.506   0.780   3.817 -0.1272 -0.1429  1.2284
  973MOL0     O31268   1.637   1.018   3.757 -1.0303 -0.5080 -0.2252
  973MOL0     C31269   1.853   1.175   3.690 -0.5438 -0.0853  0.3843
  973MOL0     C31270   1.970   1.243   3.655 -0.3917  0.5011 -0.1184
  973MOL0     N31271   2.180   1.248   2.923 -0.2652 -0.4816  0.5123
  973MOL0     N31272   2.086   1.286   2.844  0.6551  0.3295  0.0820
  973MOL0     C31273   0.753   1.150   2.777 -0.2021 -0.9065  0.6502
  973MOL0     C31274   0.619   1.123   2.799 -0.0845 -0.1932 -0.0782
  973MOL0     C31275   0.178   1.238   2.909 -0.2360 -0.9041 -0.2773
  973MOL0     C31276   0.139   1.110   2.957  1.0908 -0.0351 -0.3818
  973MOL0     C31277   0.004   1.085   2.990 -0.7256 -0.4094 -0.7654
  973MOL0     C31278  -0.104   1.175   2.967 -0.8305 -0.2872 -0.0388
  973MOL0     O31279  -0.228   1.171   3.018  0.1690  0.2048  0.4200
  973MOL0     C31280  -0.281   1.038   3.042 -0.2228  0.6100 -0.1475
  973MOL0     C31281  -0.424   1.050   3.107  0.7862  0.4242 -0.0613
  973MOL0     C31282  -0.446   1.122   3.241  0.0047  0.2403  0.8805
  973MOL0     C31283  -0.573   1.077   3.327 -1.1342  0.1373  0.0368
  973MOL0     C31284  -0.691   1.144   3.291  1.3892 -0.0021 -0.3177
  973MOL0     C31285  -0.803   1.188   3.275  0.2467  0.6245  0.2578
  973MOL0     C31286  -0.058   1.303   2.924  1.5569  0.5718 -0.1562
  973MOL0     C31287   0.077   1.331   2.882  1.5833 -0.5013 -0.7094
  973MOL0     H31288   0.539   1.370   3.021  0.6439 -0.2074  0.5648
  973MOL0     H31289   0.813   1.389   3.002 -0.5371  0.0150  1.1201
  973MOL0     H31290   1.039   1.419   2.922  0.3197  0.0753  0.6385
  973MOL0     H31291   1.080   1.272   3.023  0.6752  1.3238  0.5564
  973MOL0     H31292   1.199   1.187   2.808 -0.5457 -0.3766 -0.0167
  973MOL0     H31293   1.200   1.349   2.759  1.2226 -2.4702 -0.9169
  973MOL0     H31294   1.320   1.442   2.945 -2.6310 -0.1130 -0.9736
  973MOL0     H31295   1.308   1.294   3.040  1.9626  0.8894  0.1542
  973MOL0     H31296   1.451   1.179   2.888  1.1936  0.5374 -0.6283
  973MOL0     H31297   1.454   1.311   2.774  1.1352 -3.8662 -1.0339
  973MOL0     H31298   1.544   1.465   2.932 -0.9127 -1.2452 -0.8639
  973MOL0     H31299   1.579   1.344   3.051  5.4029  3.2864  0.3616
  973MOL0     H31300   1.758   1.253   2.927  1.8152  0.0057 -1.8152
  973MOL0     H31301   1.702   1.302   2.769 -1.4940 -0.1315 -0.8083
  973MOL0     H31302   1.712   1.550   2.849 -1.1986 -0.1492  1.3604
  973MOL0     H31303   1.781   1.483   2.996  0.7608 -2.2244  0.4745
  973MOL0     H31304   1.930   1.567   2.793 -1.9508  1.2005  1.5294
  973MOL0     H31305   1.900   1.406   2.725 -0.5066  1.4384 -0.6168
  973MOL0     H31306   2.067   1.529   3.054  0.2193  1.1602 -1.2773
  973MOL0     H31307   2.374   1.309   3.101 -1.0949 -1.5083 -1.4924
  973MOL0     H31308   2.266   1.432   3.186  0.3306 -0.9650  3.0273
  973MOL0     H31309   2.237   1.130   3.229  1.1220 -0.7002  0.0111
  973MOL0     H31310   2.141   1.267   3.292  0.5568 -2.0859 -0.2638
  973MOL0     H31311   2.338   1.362   3.412 -0.4408 -0.9394  0.3225
  973MOL0     H31312   2.431   1.214   3.340  1.3599  0.9640 -1.0218
  973MOL0     H31313   2.386   1.160   3.557 -0.8133  3.4738  2.3609
  973MOL0     H31314   2.277   1.079   3.449  1.6389  0.9319 -4.6559
  973MOL0     H31315   2.180   0.978   3.630 -0.8704 -1.2879  3.3616
  973MOL0     H31316   1.938   0.758   3.574  0.5292 -0.0519 -0.3692
  973MOL0     H31317   2.091   0.791   3.651 -0.1431 -1.7780 -2.5705
  973MOL0     H31318   1.939   0.766   3.752  0.1735  1.8777  1.0740
  973MOL0     H31319   1.605   0.642   3.521 -0.0932  0.9565 -1.6323
  973MOL0     H31320   1.360   0.565   3.529 -2.4569  0.3217  1.2697
  973MOL0     H31321   1.045   0.479   3.725 -0.5708  2.4010 -0.8903
  973MOL0     H31322   1.170   0.472   3.588  3.9848  3.3392 -0.6840
  973MOL0     H31323   1.188   0.292   3.743  2.5600 -1.7749  1.1636
  973MOL0     H31324   1.333   0.404   3.768 -0.5543  4.0801  0.7891
  973MOL0     H31325   1.092   0.384   3.935  0.1707  2.3608 -0.4798
  973MOL0     H31326   1.228   0.494   3.964  1.3527 -0.4494  0.2516
  973MOL0     H31327   1.372   0.272   3.953 -1.3165 -2.4775 -0.5428
  973MOL0     H31328   1.283   0.305   4.103 -0.5513 -0.8340 -0.0652
  973MOL0     H31329   1.159   0.128   3.873 -1.1672  0.9357  0.1333
  973MOL0     H31330   1.092   0.179   4.029  0.8932  0.2490  0.5186
  973MOL0     H31331   1.345   0.016   3.978 -1.0462 -1.0177 -3.9730
  973MOL0     H31332   1.284   0.052   4.140 -2.2257 -3.0508  2.0362
  973MOL0     H31333   1.113  -0.114   3.965 -0.6386 -0.1947  0.5335
  973MOL0     H31334   1.109  -0.082   4.148  0.1017 -0.7577  0.9324
  973MOL0     H31335   1.327  -0.249   3.989  1.4342  1.2639  0.9632
  973MOL0     H31336   1.188  -0.309   4.083 -0.0773  0.3790 -0.6050
  973MOL0     H31337   1.330   0.743   3.917 -1.7260  0.0615  0.1696
  973MOL0     H31338   1.541   0.839   3.901  1.3073 -2.1282  2.0999
  973MOL0     H31339   1.768   1.231   3.727  0.6487  0.8162  1.8683
  973MOL0     H31340   1.965   1.351   3.665 -0.4057  0.4597  0.3379
  973MOL0     H31341   0.807   1.083   2.710 -2.4313 -1.9610 -0.1796
  973MOL0     H31342   0.564   1.049   2.742 -1.6867 -0.9565  2.2660
  973MOL0     H31343   0.223   1.045   2.978  1.1908  0.7205  1.8894
  973MOL0     H31344  -0.023   0.989   3.032 -2.0635  0.5388  0.6217
  973MOL0     H31345  -0.283   0.982   2.948 -0.4490  1.0674 -0.4225
  973MOL0     H31346  -0.216   0.980   3.107  0.3475  0.8389 -0.5031
  973MOL0     H31347  -0.463   0.948   3.115 -0.9455  1.1842  2.7610
  973MOL0     H31348  -0.476   1.113   3.035  0.9466 -0.4808 -1.0004
  973MOL0     H31349  -0.450   1.228   3.215  0.5877  0.3026  1.0337
  973MOL0     H31350  -0.357   1.105   3.302 -0.1492 -0.1697  0.9973
  973MOL0     H31351  -0.546   1.106   3.429  2.1513 -0.7512 -0.4378
  973MOL0     H31352  -0.579   0.968   3.337  0.0762  0.1112  0.7179
  973MOL0     H31353  -0.901   1.227   3.255 -0.2402 -1.3364 -1.5735
  973MOL0     H31354  -0.135   1.378   2.905 -0.1357 -1.4683 -1.8722
  973MOL0     H31355   0.097   1.419   2.823 -1.6536  0.8952  0.0553
  974MOL0     O31356   8.530   2.722   9.741 -0.7045 -0.4685 -0.7933
  974MOL0     C31357   8.512   2.836   9.791 -0.1432 -0.7219 -0.6319
  974MOL0     O31358   8.390   2.882   9.836  0.4325 -0.1489 -0.1249
  974MOL0     C31359   8.277   2.817   9.792 -0.0140  0.4778  0.8938
  974MOL0     C31360   8.194   2.759   9.881  0.3767  1.4849 -0.4352
  974MOL0     C31361   8.082   2.685   9.855 -1.4287  0.2654 -0.2283
  974MOL0     C31362   8.056   2.658   9.718  0.5227  0.1400 -0.4127
  974MOL0     O31363   7.934   2.603   9.680 -0.5394 -0.9701  0.5135
  974MOL0     C31364   7.877   2.501   9.757 -0.1411 -0.1301  0.0302
  974MOL0     C31365   7.816   2.392   9.674 -0.0745 -1.2951  0.8193
  974MOL0     C31366   7.680   2.432   9.605 -0.5640  0.5406  0.3589
  974MOL0     C31367   7.627   2.325   9.504  0.3690  0.1808  0.3906
  974MOL0     C31368   7.486   2.376   9.466  0.4887 -0.5553  0.3457
  974MOL0     C31369   7.415   2.288   9.377  0.2229  0.1137 -0.1258
  974MOL0     C31370   7.284   2.351   9.327 -0.4244  0.0176  0.4493
  974MOL0     C31371   7.213   2.279   9.198 -0.4061  0.4135  1.1151
  974MOL0     N31372   7.142   2.156   9.228 -0.3149 -0.0069  0.9245
  974MOL0     C31373   7.009   2.154   9.262  0.3840  0.3351 -0.9306
  974MOL0     C31374   6.968   2.036   9.222  0.1962  1.3098  0.5702
  974MOL0     C31375   6.827   1.988   9.224 -0.1516  0.3322  0.1080
  974MOL0     C31376   6.812   1.896   9.349 -0.6723 -0.8357 -0.5869
  974MOL0     C31377   6.746   1.974   9.462  1.2793  0.6769 -0.2063
  974MOL0     C31378   6.712   1.875   9.571  0.4541 -1.1618 -0.0662
  974MOL0     O31379   6.625   1.772   9.521 -0.8021  0.0954 -0.4448
  974MOL0     C31380   6.494   1.807   9.510 -0.0429 -1.0135  1.4807
  974MOL0     C31381   6.424   1.805   9.386  0.0908 -0.5476 -0.0050
  974MOL0     C31382   6.285   1.823   9.384  0.0287  0.4068  0.1664
  974MOL0     C31383   6.229   1.830   9.246 -0.9140  0.0245  0.2691
  974MOL0     C31384   6.213   1.833   9.504  0.9265 -0.1425 -0.0525
  974MOL0     C31385   6.066   1.844   9.518 -0.4592  0.3509 -0.5137
  974MOL0     O31386   5.994   1.788   9.421  0.2914  0.0442  0.3213
  974MOL0     C31387   5.864   1.812   9.432  0.6123 -0.4127 -0.5065
  974MOL0     C31388   5.809   1.922   9.374 -1.2467 -0.2673 -1.3764
  974MOL0     C31389   5.669   1.933   9.370 -0.0601 -0.4253 -0.9320
  974MOL0     C31390   5.580   1.838   9.426 -0.3128 -0.3259  0.1167
  974MOL0     O31391   5.450   1.859   9.399 -1.4628 -0.3170 -0.0283
  974MOL0     C31392   5.345   1.777   9.454  1.3496  0.2200 -0.1528
  974MOL0     C31393   5.282   1.863   9.566  1.3676 -0.1304 -0.5692
  974MOL0     C31394   5.168   1.794   9.634 -0.2219 -0.6695  0.4425
  974MOL0     C31395   5.035   1.884   9.637  0.9913  0.5827  0.1248
  974MOL0     C31396   4.933   1.793   9.715 -0.5143 -0.7318  0.0874
  974MOL0     C31397   4.798   1.848   9.718  0.7256  0.2996  0.5480
  974MOL0     C31398   4.689   1.767   9.796  0.5390 -1.0687  0.3032
  974MOL0     C31399   4.547   1.836   9.769 -0.1075 -0.5820  0.0976
  974MOL0    Cl31400   4.450   1.850   9.925 -0.1249 -0.2397 -0.2818
  974MOL0     C31401   5.642   1.732   9.492 -0.6131  0.4391  1.5972
  974MOL0     C31402   5.781   1.713   9.483  0.0382  0.2451 -0.9712
  974MOL0     O31403   6.022   1.886   9.623 -0.3836  0.0580  0.0586
  974MOL0     C31404   6.284   1.838   9.620 -0.2682  0.8417  0.1744
  974MOL0     C31405   6.422   1.823   9.622  0.8374  0.6957 -0.4705
  974MOL0     N31406   7.071   1.960   9.166  0.0152  0.4488 -0.2234
  974MOL0     N31407   7.169   2.036   9.166 -0.2211  0.3633 -0.0890
  974MOL0     C31408   8.141   2.710   9.620 -0.1815 -0.0780  0.4927
  974MOL0     C31409   8.243   2.802   9.655 -0.8425  0.8909 -0.8446
  974MOL0     C31410   8.625   2.920   9.808 -0.7878  0.8586 -0.0770
  974MOL0     C31411   8.766   2.875   9.784  0.9071  0.0954  0.0338
  974MOL0     C31412   8.873   2.962   9.794 -0.7320  0.2530  0.0918
  974MOL0     C31413   8.847   3.097   9.832 -0.2797  0.5266  0.5942
  974MOL0     O31414   8.943   3.202   9.841  1.1500  0.4089  0.2320
  974MOL0     C31415   9.081   3.168   9.836 -0.8354  0.4515 -0.5522
  974MOL0     C31416   9.122   3.169   9.690  0.0681 -0.2616  0.5413
  974MOL0     C31417   9.107   3.301   9.609  0.8485  0.7264 -0.4332
  974MOL0     C31418   9.109   3.286   9.458  0.4762  0.5395 -0.4890
  974MOL0     C31419   9.092   3.416   9.394 -1.1880 -0.3927  0.4290
  974MOL0     C31420   9.093   3.529   9.352  0.2478 -0.1935  0.0492
  974MOL0     C31421   8.717   3.137   9.856 -0.8704  0.2617  0.8716
  974MOL0     C31422   8.613   3.050   9.838  0.4107 -0.3110 -0.0962
  974MOL0     H31423   8.212   2.763   9.988 -3.0142 -0.7462  0.3838
  974MOL0     H31424   8.007   2.648   9.924  0.6734 -1.6010  1.1759
  974MOL0     H31425   7.943   2.452   9.829 -0.7604 -0.6807  0.2310
  974MOL0     H31426   7.792   2.542   9.812 -1.9247  0.5835 -3.0398
  974MOL0     H31427   7.883   2.336   9.607 -1.5293 -2.4213  0.2486
  974MOL0     H31428   7.785   2.322   9.751 -0.6091  0.1616  1.9695
  974MOL0     H31429   7.614   2.441   9.692 -1.8904  0.5087 -0.6111
  974MOL0     H31430   7.695   2.522   9.546 -1.2205 -0.9755 -2.2835
  974MOL0     H31431   7.684   2.316   9.412 -0.9721 -3.0076 -0.2643
  974MOL0     H31432   7.623   2.222   9.541  0.6989 -0.2890 -0.8523
  974MOL0     H31433   7.422   2.390   9.553  1.0689  0.4633  0.6237
  974MOL0     H31434   7.511   2.473   9.423  0.9713 -0.5106  0.7176
  974MOL0     H31435   7.481   2.281   9.291 -1.5797 -0.0690 -1.5632
  974MOL0     H31436   7.395   2.188   9.416  0.4988 -0.0993 -0.5322
  974MOL0     H31437   7.226   2.350   9.420  4.2348  1.5083  3.7912
  974MOL0     H31438   7.297   2.455   9.296 -4.1672  0.4854 -0.0014
  974MOL0     H31439   7.291   2.259   9.124 -2.7565 -0.2587 -1.3283
  974MOL0     H31440   7.152   2.354   9.147  0.7916  1.0941  0.6229
  974MOL0     H31441   6.952   2.224   9.323  0.2922 -0.3577 -0.2077
  974MOL0     H31442   6.748   2.061   9.205 -1.6571 -1.9156 -3.3030
  974MOL0     H31443   6.819   1.923   9.137 -0.9871  1.3839 -0.6198
  974MOL0     H31444   6.907   1.862   9.390  0.1656  2.2532  0.3003
  974MOL0     H31445   6.750   1.811   9.320 -1.4141 -1.2360  1.8862
  974MOL0     H31446   6.654   2.020   9.425 -2.0943 -5.3770 -0.6287
  974MOL0     H31447   6.808   2.055   9.501  0.9162  1.0504 -0.3913
  974MOL0     H31448   6.668   1.925   9.658 -0.1542 -0.2381 -0.8913
  974MOL0     H31449   6.801   1.821   9.607 -0.0468 -2.1445 -0.2549
  974MOL0     H31450   6.484   1.776   9.301 -0.4809 -2.8770  0.3135
  974MOL0     H31451   6.167   1.916   9.217  0.3613  1.4235  1.5378
  974MOL0     H31452   6.307   1.821   9.169 -0.9998  1.2208  0.0162
  974MOL0     H31453   6.166   1.741   9.234  0.5154 -0.8873 -0.8738
  974MOL0     H31454   5.873   2.002   9.339 -1.7693  1.9805  2.2620
  974MOL0     H31455   5.624   2.018   9.320 -0.5540 -0.9935 -1.4777
  974MOL0     H31456   5.271   1.740   9.382  1.4698  1.9030 -1.1853
  974MOL0     H31457   5.388   1.697   9.515 -0.5502  2.9344  5.4522
  974MOL0     H31458   5.356   1.873   9.646 -1.1825  0.3600  1.8767
  974MOL0     H31459   5.243   1.957   9.525 -1.0844 -0.8312 -0.0300
  974MOL0     H31460   5.193   1.771   9.739  2.7387  0.4051  0.0560
  974MOL0     H31461   5.145   1.700   9.583 -1.2588 -0.0320 -0.2889
  974MOL0     H31462   5.033   1.979   9.690 -3.7822  0.9218 -0.2914
  974MOL0     H31463   4.995   1.913   9.539 -1.1561 -0.3390  0.6808
  974MOL0     H31464   4.960   1.786   9.821  0.8648  0.1113 -0.1863
  974MOL0     H31465   4.934   1.692   9.672 -2.2840 -0.1520 -1.4711
  974MOL0     H31466   4.801   1.942   9.773 -2.2689  0.9877 -0.2781
  974MOL0     H31467   4.752   1.875   9.622  2.6493  0.5464 -0.3486
  974MOL0     H31468   4.715   1.760   9.902  2.2053 -1.8758 -0.1230
  974MOL0     H31469   4.701   1.663   9.762 -0.1118 -0.2358 -2.8278
  974MOL0     H31470   4.498   1.790   9.683 -3.8176  0.9376  1.1853
  974MOL0     H31471   4.559   1.939   9.732 -0.5772 -1.3874 -2.4597
  974MOL0     H31472   5.601   1.638   9.528 -0.1945  0.2173  1.5052
  974MOL0     H31473   5.822   1.625   9.531 -2.7363 -1.7354 -1.9663
  974MOL0     H31474   6.240   1.864   9.716 -0.1485  1.4771  0.0631
  974MOL0     H31475   6.479   1.825   9.714  1.3307 -1.0933 -0.7077
  974MOL0     H31476   8.127   2.686   9.515 -1.4218 -1.5490  0.9416
  974MOL0     H31477   8.300   2.856   9.580 -0.4247  3.5557  1.2435
  974MOL0     H31478   8.788   2.772   9.757 -2.4850 -1.0598  1.1542
  974MOL0     H31479   8.969   2.928   9.757 -1.5507 -1.9740 -0.1278
  974MOL0     H31480   9.143   3.239   9.890  0.4991 -0.6142 -0.6372
  974MOL0     H31481   9.109   3.068   9.870  1.1832  0.8294 -0.9818
  974MOL0     H31482   9.078   3.083   9.639  0.6274  0.0214 -0.4397
  974MOL0     H31483   9.230   3.150   9.687  0.3589  1.4211 -0.6953
  974MOL0     H31484   9.170   3.382   9.648  0.0416  2.0491 -1.7800
  974MOL0     H31485   9.007   3.343   9.622  1.0760  1.8499 -2.0453
  974MOL0     H31486   9.030   3.226   9.412 -0.3351  2.3593 -1.5812
  974MOL0     H31487   9.207   3.243   9.434  0.4189  0.4146 -0.4973
  974MOL0     H31488   9.118   3.627   9.315 -2.3627  0.9069  0.9879
  974MOL0     H31489   8.695   3.240   9.885 -4.1509 -1.0134  3.5378
  974MOL0     H31490   8.513   3.091   9.852 -0.7069 -1.2275 -4.0675
  975MOL0     O31491   6.846  11.194   7.032  0.2499 -0.4255 -0.6842
  975MOL0     C31492   6.939  11.262   6.995  0.1445  0.7000  0.2169
  975MOL0     O31493   7.018  11.337   7.077 -0.9047 -0.0702 -0.5471
  975MOL0     C31494   6.997  11.337   7.215  0.5054 -0.3654  0.3590
  975MOL0     C31495   7.076  11.267   7.312 -0.4542  1.0095  0.7614
  975MOL0     C31496   7.056  11.293   7.447 -0.4168  0.1890 -0.3077
  975MOL0     C31497   6.948  11.377   7.485 -0.0736 -0.4101 -1.1006
  975MOL0     O31498   6.956  11.399   7.617  0.0175  0.2863  0.0186
  975MOL0     C31499   6.861  11.484   7.670  1.0237  0.2573 -0.3968
  975MOL0     C31500   6.868  11.498   7.817 -0.7956 -0.7745 -0.2867
  975MOL0     C31501   6.980  11.590   7.873  0.2771 -1.0118 -0.1190
  975MOL0     C31502   7.119  11.520   7.874 -0.3548 -0.2572  0.3268
  975MOL0     C31503   7.222  11.567   7.975 -0.1948 -0.4174  0.3438
  975MOL0     C31504   7.257  11.723   7.948 -0.0061  0.9995  0.1329
  975MOL0     C31505   7.369  11.789   8.040 -0.1559  0.4866 -0.1771
  975MOL0     C31506   7.403  11.934   8.000  0.4745  0.2414  0.4573
  975MOL0     N31507   7.437  11.956   7.864  0.7406 -0.2151  0.5133
  975MOL0     C31508   7.533  11.888   7.799  0.4609 -0.4438 -0.6395
  975MOL0     C31509   7.528  11.934   7.673  0.0272  0.1955 -0.0564
  975MOL0     C31510   7.612  11.885   7.563  0.1876  1.0416 -0.6673
  975MOL0     C31511   7.690  12.000   7.503  0.4008  0.4992  0.4789
  975MOL0     C31512   7.812  11.942   7.437 -0.4751 -0.3316 -0.1920
  975MOL0     C31513   7.908  12.053   7.378 -0.1807  0.7393  0.3393
  975MOL0     O31514   8.042  12.005   7.390  0.3999 -0.8379  1.1211
  975MOL0     C31515   8.143  12.075   7.342 -0.2178 -0.1563 -0.0315
  975MOL0     C31516   8.256  12.000   7.326 -0.2411 -0.6169 -0.5933
  975MOL0     C31517   8.374  12.059   7.299  0.4705 -0.0604  0.3310
  975MOL0     C31518   8.485  11.978   7.249 -0.5318 -1.4602 -0.6196
  975MOL0     C31519   8.377  12.200   7.298 -0.0836  0.3336 -0.2038
  975MOL0     C31520   8.503  12.292   7.283 -0.5651 -1.0275 -0.0246
  975MOL0     O31521   8.623  12.232   7.314  0.3216  0.4973 -0.1780
  975MOL0     C31522   8.734  12.311   7.314  0.1505  0.4723  0.6000
  975MOL0     C31523   8.764  12.389   7.429  0.1371  0.0371  0.5583
  975MOL0     C31524   8.871  12.472   7.427 -0.8547 -0.7326  0.6889
  975MOL0     C31525   8.951  12.490   7.308  1.3461  0.1513  0.2030
  975MOL0     O31526   9.063  12.566   7.316  0.6796  0.2502  0.0950
  975MOL0     C31527   9.120  12.611   7.196  0.0919  0.3552  0.4999
  975MOL0     C31528   9.234  12.702   7.225  1.2686 -0.3210  0.2680
  975MOL0     C31529   9.333  12.705   7.111 -0.3258 -0.0095  0.3359
  975MOL0     C31530   9.314  12.823   7.026  0.6761  0.0376  0.0995
  975MOL0     C31531   9.426  12.824   6.912  0.2002  0.0061 -0.2531
  975MOL0     C31532   9.543  12.924   6.934  0.5142 -0.7546  1.3568
  975MOL0     C31533   9.638  12.917   6.816  0.4418  0.5543 -0.9974
  975MOL0     C31534   9.764  13.009   6.848 -0.2560  0.3932 -0.6031
  975MOL0    Cl31535   9.707  13.163   6.931  0.5916  0.0329 -0.0118
  975MOL0     C31536   8.916  12.416   7.190  0.7211  0.7155  0.5757
  975MOL0     C31537   8.802  12.330   7.194 -0.6276  0.3311  0.3367
  975MOL0     O31538   8.483  12.414   7.263 -0.3673 -0.1411  0.2651
  975MOL0     C31539   8.269  12.274   7.333 -0.8278  0.2917 -0.1288
  975MOL0     C31540   8.150  12.210   7.363 -0.1541 -0.4390 -0.1184
  975MOL0     N31541   7.434  12.038   7.669 -0.2900  0.4110 -0.4731
  975MOL0     N31542   7.385  12.055   7.784  0.6189 -0.1509  0.3024
  975MOL0     C31543   6.865  11.435   7.389  1.2338  1.0787 -0.1091
  975MOL0     C31544   6.883  11.408   7.256 -0.7891  1.1372 -0.0545
  975MOL0     C31545   6.988  11.236   6.858  0.2144  0.6350  0.3242
  975MOL0     C31546   6.926  11.156   6.760  0.0558 -0.7155 -1.0098
  975MOL0     C31547   6.964  11.143   6.632 -0.2736 -1.0680  0.0928
  975MOL0     C31548   7.085  11.198   6.595 -0.3376 -0.2252 -0.2189
  975MOL0     O31549   7.137  11.158   6.470 -0.3485  0.4001 -0.1258
  975MOL0     C31550   7.252  11.220   6.411  0.9066 -0.7674 -0.6427
  975MOL0     C31551   7.247  11.211   6.258 -0.3233 -0.7251  0.2735
  975MOL0     C31552   7.365  11.289   6.204  0.3836  0.0941 -0.4835
  975MOL0     C31553   7.395  11.259   6.065  1.0295  0.9023  0.8182
  975MOL0     C31554   7.531  11.301   6.031  0.0583 -0.8335 -0.4247
  975MOL0     C31555   7.653  11.325   6.021  0.3924 -0.3235  0.4600
  975MOL0     C31556   7.169  11.274   6.688  0.2906 -0.3351  1.8440
  975MOL0     C31557   7.119  11.280   6.816 -0.6089 -0.8296 -0.2893
  975MOL0     H31558   7.150  11.191   7.287 -0.7966  1.1022 -0.5968
  975MOL0     H31559   7.118  11.241   7.520 -2.5421 -0.6349  1.0070
  975MOL0     H31560   6.860  11.588   7.636  1.9454  1.4462  2.9024
  975MOL0     H31561   6.761  11.450   7.641  0.8340 -0.3504  0.8855
  975MOL0     H31562   6.774  11.547   7.843  0.6437  1.7602  0.4180
  975MOL0     H31563   6.869  11.398   7.862  1.6298 -0.6593  0.0535
  975MOL0     H31564   6.979  11.685   7.819  2.7160  0.7604  2.6417
  975MOL0     H31565   6.950  11.606   7.977  0.0703 -2.2300  0.0292
  975MOL0     H31566   7.092  11.416   7.893 -0.1012  0.0557  2.7317
  975MOL0     H31567   7.166  11.521   7.775  1.1741  0.2934  1.0298
  975MOL0     H31568   7.199  11.542   8.080  2.9786 -1.6701  0.8546
  975MOL0     H31569   7.311  11.509   7.951  0.4115  0.1473  1.1700
  975MOL0     H31570   7.293  11.729   7.845  0.4032  2.7822  0.3596
  975MOL0     H31571   7.164  11.781   7.953  0.1738  1.2168  3.2926
  975MOL0     H31572   7.331  11.796   8.142 -1.3802 -2.2702 -0.3453
  975MOL0     H31573   7.459  11.729   8.044 -0.2378  0.2013 -1.9173
  975MOL0     H31574   7.484  11.970   8.065  1.8969 -0.5864 -0.7938
  975MOL0     H31575   7.321  12.000   8.032 -1.2781 -2.7790  2.7357
  975MOL0     H31576   7.597  11.810   7.840  1.3567  0.5780 -0.0256
  975MOL0     H31577   7.672  11.800   7.598  0.4918  2.1262  1.6808
  975MOL0     H31578   7.552  11.842   7.482  2.5230  0.1448 -2.0337
  975MOL0     H31579   7.733  12.072   7.573  4.0625 -2.4682  1.6491
  975MOL0     H31580   7.629  12.049   7.427  1.3778  2.5914  0.9696
  975MOL0     H31581   7.793  11.863   7.364 -0.1708  1.3569 -2.2021
  975MOL0     H31582   7.876  11.897   7.514 -1.0373 -0.9785 -0.0969
  975MOL0     H31583   7.892  12.151   7.424 -4.1340  0.7903 -0.7404
  975MOL0     H31584   7.886  12.059   7.271 -0.5922  2.4327  0.4911
  975MOL0     H31585   8.241  11.893   7.321 -2.1582 -0.4772  0.9705
  975MOL0     H31586   8.456  11.873   7.235  0.5087 -1.9161  0.4364
  975MOL0     H31587   8.530  12.009   7.155  0.0108 -0.2476  0.0244
  975MOL0     H31588   8.571  11.974   7.317 -1.1267 -3.4946  0.1056
  975MOL0     H31589   8.697  12.386   7.515 -1.3946  3.2107 -0.3548
  975MOL0     H31590   8.894  12.540   7.508  0.5835 -0.3714  0.0185
  975MOL0     H31591   9.167  12.525   7.148  1.4734  1.8075 -0.8547
  975MOL0     H31592   9.054  12.669   7.131 -0.2153  1.9711  2.1668
  975MOL0     H31593   9.198  12.802   7.248 -0.8507 -1.4514  2.4475
  975MOL0     H31594   9.285  12.663   7.314  2.8124 -0.5231 -0.6871
  975MOL0     H31595   9.324  12.615   7.049 -1.3484  0.2934  0.0216
  975MOL0     H31596   9.439  12.713   7.139  0.4006  0.1029 -2.2164
  975MOL0     H31597   9.223  12.798   6.970  2.0033 -1.1041 -1.6405
  975MOL0     H31598   9.324  12.922   7.072  2.8962  0.0874 -0.3851
  975MOL0     H31599   9.368  12.856   6.825 -0.5049 -0.1382  0.1594
  975MOL0     H31600   9.469  12.725   6.896  2.7156  1.3428 -2.8852
  975MOL0     H31601   9.495  13.022   6.935 -0.8627 -1.2924 -1.4864
  975MOL0     H31602   9.605  12.910   7.023  1.1907 -1.3771  0.8073
  975MOL0     H31603   9.601  12.955   6.721  2.8776 -1.4919 -2.9150
  975MOL0     H31604   9.672  12.814   6.803 -1.0952 -0.7482  3.5164
  975MOL0     H31605   9.829  13.023   6.762  0.4847  2.8003  0.2629
  975MOL0     H31606   9.822  12.958   6.926 -1.5386  0.7772  0.6552
  975MOL0     H31607   8.976  12.422   7.099 -1.6258 -0.2622 -1.1272
  975MOL0     H31608   8.776  12.279   7.102 -2.5116  0.6833  0.6267
  975MOL0     H31609   8.265  12.383   7.336  0.9263  0.3659  1.5761
  975MOL0     H31610   8.065  12.269   7.398  1.9238  0.6463  3.6788
  975MOL0     H31611   6.786  11.501   7.425  1.8159  1.1483  1.0837
  975MOL0     H31612   6.828  11.466   7.183 -1.1327  1.3761  0.3910
  975MOL0     H31613   6.837  11.103   6.790  0.3967 -0.2046  1.1120
  975MOL0     H31614   6.916  11.062   6.577  0.7086 -0.4497 -1.7592
  975MOL0     H31615   7.247  11.326   6.438 -0.5130 -0.9877  0.0534
  975MOL0     H31616   7.345  11.182   6.454  0.3410 -0.7855  0.6094
  975MOL0     H31617   7.150  11.250   6.224 -0.7448 -0.0209  2.1238
  975MOL0     H31618   7.252  11.108   6.223  0.3763 -0.7742  0.5062
  975MOL0     H31619   7.451  11.261   6.265 -1.3027 -2.8676  0.7746
  975MOL0     H31620   7.337  11.394   6.195 -2.3467 -0.5398 -0.3872
  975MOL0     H31621   7.317  11.301   6.000 -2.6849  0.2797  4.4526
  975MOL0     H31622   7.395  11.152   6.045 -1.0548  1.2698 -1.5733
  975MOL0     H31623   7.760  11.339   6.017  0.2997  0.5240 -2.9503
  975MOL0     H31624   7.274  11.276   6.664 -0.1018 -3.5429 -0.8858
  975MOL0     H31625   7.184  11.337   6.882 -1.7881  1.2628 -0.8411
  976MOL0     O31626   3.207   2.959   8.815  0.4545  0.0664  1.1823
  976MOL0     C31627   3.282   3.053   8.828 -0.0387  0.1530 -0.1108
  976MOL0     O31628   3.245   3.178   8.869  0.0454 -1.0975  0.0428
  976MOL0     C31629   3.110   3.198   8.876  0.7196  0.7506 -0.5937
  976MOL0     C31630   3.050   3.297   8.805  0.5977  0.4806 -0.2079
  976MOL0     C31631   2.910   3.333   8.817 -0.4479  0.7061  0.4103
  976MOL0     C31632   2.828   3.261   8.895  0.1325  0.6795  0.7803
  976MOL0     O31633   2.694   3.307   8.898  0.0145  0.0112 -0.9220
  976MOL0     C31634   2.593   3.230   8.971  0.1048 -0.3981  1.5190
  976MOL0     C31635   2.468   3.319   8.982 -0.1536  0.8695 -0.3106
  976MOL0     C31636   2.515   3.462   9.036 -0.2089 -0.1136 -0.4969
  976MOL0     C31637   2.377   3.536   9.047  0.2416 -0.0876  0.8965
  976MOL0     C31638   2.403   3.680   9.114 -0.6579  0.7051  0.2757
  976MOL0     C31639   2.275   3.719   9.186  0.1418  0.2007  0.0138
  976MOL0     C31640   2.268   3.866   9.241  0.3505 -0.1594  0.0481
  976MOL0     C31641   2.365   3.896   9.362 -0.6502  0.6599  0.1464
  976MOL0     N31642   2.314   3.849   9.486 -0.0931  0.3057 -0.1622
  976MOL0     C31643   2.184   3.869   9.524 -0.0712  0.1448 -0.8328
  976MOL0     C31644   2.159   3.772   9.613 -0.1508  0.5652  0.1228
  976MOL0     C31645   2.031   3.732   9.678 -0.6575 -0.6524  0.4881
  976MOL0     C31646   1.919   3.730   9.569 -0.5390  0.0557 -0.6509
  976MOL0     C31647   1.784   3.709   9.634 -0.1632 -0.2585  0.6033
  976MOL0     C31648   1.669   3.729   9.525 -0.4124 -0.2769  0.4584
  976MOL0     O31649   1.547   3.703   9.585  0.4850 -0.2873  0.2112
  976MOL0     C31650   1.422   3.729   9.536 -0.0660  0.4874 -0.5067
  976MOL0     C31651   1.412   3.761   9.397 -0.3818  0.6001 -0.0838
  976MOL0     C31652   1.280   3.765   9.340  0.0558 -0.0611  0.0187
  976MOL0     C31653   1.268   3.808   9.202 -0.1594  0.0445  0.2158
  976MOL0     C31654   1.171   3.738   9.430 -0.5240 -0.4091  0.6120
  976MOL0     C31655   1.032   3.781   9.399  0.3412  0.0787 -0.8023
  976MOL0     O31656   1.016   3.870   9.299 -0.6050  0.6762  0.1315
  976MOL0     C31657   0.891   3.897   9.254  0.0996 -0.8856  0.5384
  976MOL0     C31658   0.827   3.821   9.153  0.0601  0.9405  0.5418
  976MOL0     C31659   0.700   3.866   9.129  0.5238 -0.0065 -0.0444
  976MOL0     C31660   0.621   3.947   9.210  0.6378  0.5729 -1.1768
  976MOL0     O31661   0.491   3.964   9.180 -0.3655 -0.0505 -0.7251
  976MOL0     C31662   0.419   4.065   9.249 -0.0973 -0.6150 -0.7613
  976MOL0     C31663   0.287   4.099   9.175  0.1765 -0.4870  0.4741
  976MOL0     C31664   0.189   4.192   9.240  0.1703 -0.1091 -0.3699
  976MOL0     C31665   0.064   4.235   9.153  0.7952 -0.6427  0.5115
  976MOL0     C31666  -0.032   4.332   9.226 -0.5311  0.5121  0.0863
  976MOL0     C31667  -0.092   4.255   9.341 -0.2987  0.7239 -0.3152
  976MOL0     C31668  -0.219   4.329   9.401  0.5145  0.9853 -0.4789
  976MOL0     C31669  -0.193   4.481   9.419 -0.1921 -0.9427 -0.6085
  976MOL0    Cl31670  -0.081   4.500   9.553  0.3294 -0.3225 -0.3620
  976MOL0     C31671   0.674   4.006   9.317 -0.1813  0.2014 -0.6068
  976MOL0     C31672   0.811   3.984   9.337 -0.7959 -0.4220 -0.9318
  976MOL0     O31673   0.940   3.731   9.463  0.1500  0.8230  0.3264
  976MOL0     C31674   1.191   3.707   9.562  0.8670  1.4625  0.2063
  976MOL0     C31675   1.313   3.705   9.616  0.7468  0.2806  0.4199
  976MOL0     N31676   2.276   3.694   9.623  0.3689 -0.2210 -0.4219
  976MOL0     N31677   2.377   3.754   9.564 -0.4681  0.1651 -0.1013
  976MOL0     C31678   2.884   3.147   8.964 -0.1528  0.9907 -0.9198
  976MOL0     C31679   3.024   3.124   8.957 -0.6733  0.6811  0.1008
  976MOL0     C31680   3.416   3.037   8.772 -0.4711 -0.8584 -0.1161
  976MOL0     C31681   3.512   3.137   8.795 -0.0840  0.2286 -0.1341
  976MOL0     C31682   3.629   3.139   8.724  0.4561 -0.2619 -0.2089
  976MOL0     C31683   3.666   3.029   8.644 -0.1413  0.3066 -0.6024
  976MOL0     O31684   3.780   3.018   8.569  0.9991 -0.0690  0.9038
  976MOL0     C31685   3.882   3.112   8.594 -0.5824 -0.3648  0.5250
  976MOL0     C31686   3.985   3.109   8.483 -0.0110  0.4935  0.4278
  976MOL0     C31687   4.048   2.967   8.466  0.0369 -0.0499  0.0387
  976MOL0     C31688   4.121   2.914   8.596 -0.1742  0.3141 -0.7753
  976MOL0     C31689   4.223   3.004   8.645 -0.0554  0.3328  0.1399
  976MOL0     C31690   4.314   3.081   8.687 -0.3107 -0.8758 -0.4591
  976MOL0     C31691   3.580   2.915   8.635 -0.0528 -0.8683 -0.6853
  976MOL0     C31692   3.451   2.927   8.691 -0.2241  0.4778 -0.2686
  976MOL0     H31693   3.114   3.346   8.732 -1.0548 -0.6267 -2.5315
  976MOL0     H31694   2.867   3.412   8.756  1.0106  0.3120 -1.2223
  976MOL0     H31695   2.577   3.138   8.913  0.6928  1.2795 -1.5434
  976MOL0     H31696   2.622   3.209   9.074 -2.8185  0.9308  2.7162
  976MOL0     H31697   2.421   3.334   8.885  1.1913  1.1394 -0.9426
  976MOL0     H31698   2.397   3.266   9.046 -2.5021  3.0089 -0.9634
  976MOL0     H31699   2.569   3.456   9.131  0.8466 -2.3948 -1.1587
  976MOL0     H31700   2.583   3.514   8.968 -0.2968 -0.2503 -0.6883
  976MOL0     H31701   2.314   3.532   8.957  2.4323  1.1324 -0.7705
  976MOL0     H31702   2.324   3.480   9.125  1.4852 -3.4055 -0.4787
  976MOL0     H31703   2.479   3.665   9.191 -0.7784  0.3245  0.3227
  976MOL0     H31704   2.425   3.751   9.033 -0.2936  3.6302  2.7715
  976MOL0     H31705   2.192   3.699   9.117  0.6514 -2.0219 -0.0404
  976MOL0     H31706   2.270   3.655   9.275 -1.5838  3.3139  2.3319
  976MOL0     H31707   2.287   3.935   9.158 -0.3837 -1.5938 -1.3462
  976MOL0     H31708   2.167   3.894   9.274  1.2955  0.6464  2.5497
  976MOL0     H31709   2.402   3.998   9.360  0.2591  0.3280 -0.5116
  976MOL0     H31710   2.453   3.832   9.350 -0.3039  1.2222 -0.3191
  976MOL0     H31711   2.121   3.948   9.483  1.6144  2.0589  0.0728
  976MOL0     H31712   2.042   3.636   9.729  2.6473 -1.8536 -2.0642
  976MOL0     H31713   2.015   3.809   9.753  2.1325 -0.5248  1.0408
  976MOL0     H31714   1.942   3.640   9.512  0.0489  2.1320 -3.9497
  976MOL0     H31715   1.915   3.823   9.510  2.4762  0.2355 -0.7322
  976MOL0     H31716   1.775   3.778   9.718  1.8143  0.6824  0.0828
  976MOL0     H31717   1.779   3.607   9.672  0.8083 -1.4235 -2.1281
  976MOL0     H31718   1.686   3.666   9.437  0.2054  0.2417  0.1996
  976MOL0     H31719   1.690   3.831   9.491  1.8727 -0.3120  1.5908
  976MOL0     H31720   1.486   3.782   9.321 -2.0500 -1.8878 -2.5820
  976MOL0     H31721   1.190   3.748   9.155 -0.8667  0.7347  0.4849
  976MOL0     H31722   1.254   3.916   9.198 -0.2742  0.0362  0.3862
  976MOL0     H31723   1.361   3.793   9.145  0.1088  2.8650 -0.2519
  976MOL0     H31724   0.878   3.751   9.088 -0.7411  1.9128 -1.1935
  976MOL0     H31725   0.644   3.838   9.040 -2.7624  1.2405  1.4393
  976MOL0     H31726   0.403   4.038   9.354 -1.1521 -2.3271 -1.3248
  976MOL0     H31727   0.476   4.158   9.242 -1.0916  0.0800  0.1320
  976MOL0     H31728   0.315   4.161   9.089 -0.8038 -1.5758 -0.6651
  976MOL0     H31729   0.241   4.004   9.145 -2.1177 -0.2242  2.8089
  976MOL0     H31730   0.229   4.285   9.281  1.2567 -0.9275  0.4904
  976MOL0     H31731   0.152   4.133   9.325 -1.9363 -0.3061 -1.3561
  976MOL0     H31732   0.106   4.281   9.063 -0.1490  0.4426  0.5999
  976MOL0     H31733   0.007   4.148   9.121  0.1197 -0.2207  0.5512
  976MOL0     H31734  -0.109   4.371   9.158 -0.0314  1.8362  0.2356
  976MOL0     H31735   0.031   4.409   9.273 -0.0793  0.2869 -0.1442
  976MOL0     H31736  -0.131   4.156   9.313 -1.1953  1.3154 -1.2270
  976MOL0     H31737  -0.022   4.241   9.424 -0.3326  1.9345 -0.0675
  976MOL0     H31738  -0.254   4.286   9.495  5.5802 -1.2253  0.7311
  976MOL0     H31739  -0.301   4.325   9.329 -0.4154  0.2994  0.5967
  976MOL0     H31740  -0.291   4.522   9.447  0.7912 -0.7339  3.0296
  976MOL0     H31741  -0.155   4.531   9.330 -1.1441  1.8256  0.4361
  976MOL0     H31742   0.618   4.059   9.393 -3.6569 -2.2552 -1.2394
  976MOL0     H31743   0.843   4.036   9.426 -2.9190  0.2147 -0.4731
  976MOL0     H31744   1.102   3.695   9.622  1.2810  0.6112  0.6725
  976MOL0     H31745   1.320   3.679   9.721 -0.2501 -4.2260 -0.4266
  976MOL0     H31746   2.810   3.095   9.023 -0.5585  3.6815  1.1889
  976MOL0     H31747   3.076   3.043   9.008  0.2585 -0.3301 -2.3190
  976MOL0     H31748   3.498   3.219   8.866  1.8685 -0.1175  0.7137
  976MOL0     H31749   3.701   3.220   8.733  1.7343 -1.3166 -0.5922
  976MOL0     H31750   3.834   3.210   8.586  1.1916  0.4271 -1.3652
  976MOL0     H31751   3.929   3.110   8.693  0.4631  1.1585  0.1002
  976MOL0     H31752   4.057   3.188   8.507  0.0032  1.2640 -1.9180
  976MOL0     H31753   3.957   3.145   8.384 -0.6697  2.2950  1.2351
  976MOL0     H31754   4.130   2.972   8.393  0.8747  4.8562  0.9437
  976MOL0     H31755   3.975   2.894   8.431  1.3405 -1.0536 -0.6998
  976MOL0     H31756   4.185   2.832   8.562  0.8221  1.0677 -0.7880
  976MOL0     H31757   4.051   2.886   8.674 -0.0897 -1.5461 -1.3170
  976MOL0     H31758   4.385   3.143   8.737  0.4480 -2.2814  0.2536
  976MOL0     H31759   3.598   2.823   8.581 -1.1071 -3.8319  3.5584
  976MOL0     H31760   3.387   2.840   8.679  3.0636 -2.0666 -0.9266
  977MOL0     O31761   1.861   1.895   9.045  0.6179  0.1228  0.3692
  977MOL0     C31762   1.842   1.858   8.927 -0.4312  0.3809  0.1746
  977MOL0     O31763   1.727   1.842   8.863  0.5453  0.5912 -0.1949
  977MOL0     C31764   1.615   1.866   8.930  0.0142  0.1608 -0.8112
  977MOL0     C31765   1.531   1.759   8.963 -0.5526  0.0499  0.1116
  977MOL0     C31766   1.402   1.781   9.013  0.0953  0.3519 -0.6985
  977MOL0     C31767   1.365   1.916   9.044 -0.0799  0.6439 -0.6298
  977MOL0     O31768   1.241   1.949   9.091  0.6270 -0.6190 -0.1323
  977MOL0     C31769   1.137   1.858   9.095  0.0220  0.7008 -0.2361
  977MOL0     C31770   1.015   1.950   9.141 -0.0337  0.9607 -0.7804
  977MOL0     C31771   1.024   2.001   9.284  0.1761  0.1947 -0.6104
  977MOL0     C31772   0.895   2.064   9.329  0.7397  0.7548 -0.2953
  977MOL0     C31773   0.902   2.126   9.467 -0.7388 -0.0130 -0.9334
  977MOL0     C31774   0.992   2.249   9.453 -0.3828  0.3973  0.1464
  977MOL0     C31775   0.961   2.349   9.560  0.0041  0.3417 -1.4654
  977MOL0     C31776   1.007   2.295   9.693  0.0631 -0.3112  1.3310
  977MOL0     N31777   1.010   2.404   9.788 -0.8052  0.2790  0.3579
  977MOL0     C31778   0.944   2.412   9.910 -0.9996  0.5106 -0.0395
  977MOL0     C31779   1.000   2.520   9.965 -0.1156  0.7173  0.1656
  977MOL0     C31780   0.953   2.586  10.090 -0.1331  0.3314 -0.7738
  977MOL0     C31781   0.818   2.660  10.066  0.1654  0.7817  0.1663
  977MOL0     C31782   0.699   2.590   9.994 -1.0211 -0.0043  0.2396
  977MOL0     C31783   0.651   2.486  10.078 -0.0218  0.1866  0.6121
  977MOL0     O31784   0.617   2.372   9.999  0.8550  0.4406  0.0154
  977MOL0     C31785   0.487   2.359   9.977 -0.2891 -0.1764 -0.1666
  977MOL0     C31786   0.428   2.438   9.875 -0.1567  0.2900 -1.3367
  977MOL0     C31787   0.292   2.444   9.852  0.4759 -0.5038 -0.3898
  977MOL0     C31788   0.250   2.525   9.738 -0.6098  0.5733  0.3792
  977MOL0     C31789   0.210   2.384   9.954 -0.2489  0.4465  0.4213
  977MOL0     C31790   0.070   2.402   9.950  0.3059 -0.1884  0.7232
  977MOL0     O31791  -0.007   2.330  10.031 -0.1880 -0.6021 -0.3592
  977MOL0     C31792  -0.146   2.353  10.025  0.4799  0.8031  0.1434
  977MOL0     C31793  -0.216   2.393  10.134 -0.6506  0.1398 -0.2101
  977MOL0     C31794  -0.354   2.412  10.137 -0.8384  0.1093  0.2593
  977MOL0     C31795  -0.425   2.383  10.023  0.2171 -0.6333 -0.4265
  977MOL0     O31796  -0.568   2.392  10.025  0.0861 -0.0599 -0.2744
  977MOL0     C31797  -0.632   2.376   9.894 -0.3024  0.2367 -0.2527
  977MOL0     C31798  -0.781   2.382   9.921 -1.2058 -0.2293  0.5501
  977MOL0     C31799  -0.862   2.353   9.789  0.3262 -0.1881 -0.5560
  977MOL0     C31800  -0.983   2.268   9.826 -0.6451 -0.1287 -0.1019
  977MOL0     C31801  -1.080   2.344   9.915  0.0972 -0.0409 -0.0548
  977MOL0     C31802  -1.217   2.277   9.917  0.8284  0.1697  0.8608
  977MOL0     C31803  -1.337   2.361   9.966  0.4171 -0.6377 -0.3587
  977MOL0     C31804  -1.336   2.409  10.115  0.1045 -0.6781  0.8619
  977MOL0    Cl31805  -1.238   2.560  10.138 -0.0646  0.4014 -0.5819
  977MOL0     C31806  -0.358   2.337   9.912  0.0783 -0.2443  0.6039
  977MOL0     C31807  -0.221   2.329   9.904 -0.4585 -0.7375  0.2178
  977MOL0     O31808   0.025   2.502   9.888  0.3852  0.2298 -0.2830
  977MOL0     C31809   0.265   2.315  10.058  0.0775 -0.9375  0.2187
  977MOL0     C31810   0.401   2.302  10.066  0.5933 -0.0834  0.3906
  977MOL0     N31811   1.094   2.576   9.884 -0.1313 -0.9103 -0.0764
  977MOL0     N31812   1.101   2.501   9.785  0.1032  0.3654 -0.6396
  977MOL0     C31813   1.460   2.015   9.028  0.1969  0.2133 -0.5018
  977MOL0     C31814   1.578   2.001   8.964 -0.4222  0.2966 -0.1648
  977MOL0     C31815   1.957   1.801   8.858 -0.1909 -0.0151  0.2030
  977MOL0     C31816   2.084   1.855   8.886 -0.4832  0.4375 -0.3970
  977MOL0     C31817   2.196   1.830   8.806 -0.0137  0.4418 -0.9883
  977MOL0     C31818   2.176   1.752   8.696  0.0650 -0.3693  0.4798
  977MOL0     O31819   2.282   1.716   8.613  0.2746 -0.4727 -0.0645
  977MOL0     C31820   2.350   1.829   8.556  0.0014 -0.5917 -0.2106
  977MOL0     C31821   2.386   1.795   8.413  0.0294  0.5585 -0.0334
  977MOL0     C31822   2.483   1.893   8.351 -0.9410 -0.7327  0.2879
  977MOL0     C31823   2.542   1.840   8.217  0.1053 -0.5662 -0.1770
  977MOL0     C31824   2.439   1.862   8.112 -0.4659 -0.5004 -1.1005
  977MOL0     C31825   2.358   1.891   8.030 -0.0777 -1.1802 -0.4564
  977MOL0     C31826   2.055   1.694   8.661  0.2645 -0.3678  0.1602
  977MOL0     C31827   1.946   1.720   8.741  0.5219 -0.1603 -0.4878
  977MOL0     H31828   1.570   1.660   8.945 -0.9324 -0.6607  2.8205
  977MOL0     H31829   1.350   1.688   9.034  2.7399 -1.1322 -0.2053
  977MOL0     H31830   1.124   1.823   8.992  3.7749 -0.4181 -0.4777
  977MOL0     H31831   1.145   1.769   9.159  1.0874  2.8515  2.9142
  977MOL0     H31832   1.012   2.029   9.065  1.9158 -0.5528 -2.5559
  977MOL0     H31833   0.921   1.894   9.141 -1.5355  3.1617  2.5191
  977MOL0     H31834   1.054   1.921   9.351  1.0862  1.4516  0.5404
  977MOL0     H31835   1.101   2.077   9.297  0.4930 -0.4116  1.3777
  977MOL0     H31836   0.864   2.135   9.252 -2.3758 -0.9658 -0.8076
  977MOL0     H31837   0.820   1.985   9.333  1.8983 -0.3813 -0.5976
  977MOL0     H31838   0.811   2.161   9.518 -1.0950 -1.1357 -0.7710
  977MOL0     H31839   0.931   2.052   9.542 -0.3393  1.0263 -0.0362
  977MOL0     H31840   1.100   2.232   9.457 -0.4766 -0.3466 -0.4032
  977MOL0     H31841   0.968   2.303   9.361 -0.6077  3.6593  1.9345
  977MOL0     H31842   1.013   2.441   9.535 -0.9304  1.5469  0.6806
  977MOL0     H31843   0.858   2.387   9.566 -0.0725 -0.0618  1.2266
  977MOL0     H31844   1.106   2.253   9.676  1.0766  1.9624  1.2916
  977MOL0     H31845   0.935   2.222   9.730  0.2423 -1.5400 -0.5895
  977MOL0     H31846   0.865   2.344   9.940 -1.0905 -1.2236 -3.6062
  977MOL0     H31847   0.956   2.513  10.172  0.0059  2.5092  1.2732
  977MOL0     H31848   1.019   2.664  10.129 -0.4180 -0.1191  0.6815
  977MOL0     H31849   0.845   2.750  10.010 -1.7284  0.2885 -1.6515
  977MOL0     H31850   0.787   2.703  10.161 -1.3600  0.6068 -0.2381
  977MOL0     H31851   0.738   2.558   9.897  1.5558  1.4355  0.7159
  977MOL0     H31852   0.608   2.649   9.976 -0.7863 -0.1834 -1.7114
  977MOL0     H31853   0.563   2.516  10.137 -0.6681 -0.1135 -0.1747
  977MOL0     H31854   0.727   2.455  10.149  2.1676  1.0654 -1.2127
  977MOL0     H31855   0.503   2.475   9.806 -1.5409  2.5645 -1.7179
  977MOL0     H31856   0.172   2.479   9.676  2.2627 -1.9301 -1.6546
  977MOL0     H31857   0.224   2.628   9.767  0.8654  1.7163 -1.9768
  977MOL0     H31858   0.333   2.537   9.667 -0.2674  0.2756  0.7267
  977MOL0     H31859  -0.163   2.410  10.227  3.0334  2.5058 -2.4559
  977MOL0     H31860  -0.403   2.439  10.230  1.1225 -1.6033  1.8945
  977MOL0     H31861  -0.607   2.443   9.811 -3.8458  1.5530 -0.4438
  977MOL0     H31862  -0.609   2.275   9.860  1.2154  0.9195 -1.3711
  977MOL0     H31863  -0.809   2.311   9.999  0.7824 -1.8853 -0.1360
  977MOL0     H31864  -0.809   2.478   9.965  0.0396 -0.0313  0.9423
  977MOL0     H31865  -0.800   2.304   9.714 -1.0225 -0.1351 -1.7438
  977MOL0     H31866  -0.897   2.450   9.753  0.2319  1.2363  2.9431
  977MOL0     H31867  -1.028   2.246   9.728 -2.7850 -1.1754  1.0206
  977MOL0     H31868  -0.945   2.177   9.873 -0.4296 -1.3906 -2.5541
  977MOL0     H31869  -1.095   2.444   9.871  0.7093  2.4694  4.7608
  977MOL0     H31870  -1.040   2.361  10.015  0.9174  3.9894 -0.8763
  977MOL0     H31871  -1.238   2.240   9.817 -3.0099  0.6840  1.3343
  977MOL0     H31872  -1.226   2.190   9.982 -1.9180  0.3284  0.7858
  977MOL0     H31873  -1.427   2.303   9.944  0.3047 -1.5032  2.1556
  977MOL0     H31874  -1.335   2.452   9.905 -1.1237 -0.3579 -0.0148
  977MOL0     H31875  -1.306   2.321  10.172  1.4024 -1.9527 -1.5984
  977MOL0     H31876  -1.434   2.439  10.153 -0.0005 -1.3890  1.1632
  977MOL0     H31877  -0.414   2.299   9.828  1.6066 -2.5310  0.5330
  977MOL0     H31878  -0.170   2.291   9.816 -1.5204  0.5100 -0.9829
  977MOL0     H31879   0.208   2.258  10.131 -1.1716  0.6029  0.5021
  977MOL0     H31880   0.443   2.255  10.154  1.3435 -0.0134  0.0771
  977MOL0     H31881   1.434   2.118   9.048  2.8178  0.8967 -0.2231
  977MOL0     H31882   1.629   2.093   8.937 -0.0185 -0.0733 -0.7036
  977MOL0     H31883   2.097   1.923   8.970  0.5854 -0.8112  0.4705
  977MOL0     H31884   2.289   1.880   8.830  0.4148 -0.2959 -1.0953
  977MOL0     H31885   2.296   1.922   8.575  2.8550  0.6662  2.9014
  977MOL0     H31886   2.439   1.862   8.611 -0.5922  1.4865 -0.4228
  977MOL0     H31887   2.293   1.786   8.356  1.2688 -2.5112 -1.7872
  977MOL0     H31888   2.424   1.693   8.418  0.2529  0.4815 -2.1243
  977MOL0     H31889   2.556   1.917   8.429 -0.4691  5.9660 -1.6319
  977MOL0     H31890   2.437   1.988   8.324 -2.1738 -1.3483  0.1373
  977MOL0     H31891   2.559   1.732   8.220  1.6815 -0.3224  0.7836
  977MOL0     H31892   2.637   1.891   8.201 -0.8400  1.6764  0.9243
  977MOL0     H31893   2.282   1.903   7.955  1.9057 -1.0350 -2.5627
  977MOL0     H31894   2.061   1.632   8.572  3.3782  1.3693 -1.0276
  977MOL0     H31895   1.849   1.677   8.720  0.8808 -2.1720  1.5859
  978MOL0     O31896   0.682  11.206   0.904  0.1663  0.6500  0.1901
  978MOL0     C31897   0.737  11.111   0.839  0.7910 -1.0444  0.4775
  978MOL0     O31898   0.838  11.127   0.749  0.7087 -0.0240  0.1501
  978MOL0     C31899   0.903  11.249   0.756 -0.9128  1.1082 -0.4266
  978MOL0     C31900   0.967  11.305   0.872  0.0036  0.2399 -0.0572
  978MOL0     C31901   1.040  11.426   0.866  0.7979 -0.7035 -1.0283
  978MOL0     C31902   1.055  11.491   0.744  0.6806  0.3442 -1.2682
  978MOL0     O31903   1.133  11.603   0.749  0.2218  0.2167 -0.6989
  978MOL0     C31904   1.190  11.647   0.628  0.5729 -0.0774  0.2881
  978MOL0     C31905   1.288  11.761   0.661 -0.6720 -0.8239  0.3781
  978MOL0     C31906   1.337  11.826   0.527 -0.2587 -0.5271 -0.0350
  978MOL0     C31907   1.235  11.928   0.463 -0.2318  0.0349  0.1197
  978MOL0     C31908   1.281  11.983   0.320  0.2956  0.0593 -0.1177
  978MOL0     C31909   1.279  11.875   0.208  0.2376 -0.5161  0.2661
  978MOL0     C31910   1.318  11.934   0.072  0.2761  0.8069  0.1065
  978MOL0     C31911   1.465  11.969   0.073  0.3992  0.0508 -0.9993
  978MOL0     N31912   1.516  12.014  -0.057 -0.4756 -0.2067 -0.2850
  978MOL0     C31913   1.480  12.138  -0.110  0.2683 -0.0530  0.9071
  978MOL0     C31914   1.529  12.119  -0.238  0.2313 -0.4984 -0.1483
  978MOL0     C31915   1.529  12.239  -0.339 -0.5452  0.0595 -0.5489
  978MOL0     C31916   1.388  12.294  -0.376  0.9463  0.1130 -0.1417
  978MOL0     C31917   1.378  12.389  -0.505  0.5389  0.6918 -0.1617
  978MOL0     C31918   1.236  12.434  -0.532  0.5466 -0.7450 -0.2623
  978MOL0     O31919   1.176  12.481  -0.409 -0.8958 -0.4846 -0.0395
  978MOL0     C31920   1.046  12.523  -0.416  0.8401 -0.5011  0.5849
  978MOL0     C31921   0.976  12.596  -0.310 -0.3900  0.2396 -0.0189
  978MOL0     C31922   0.841  12.635  -0.321 -0.3193  0.0319 -0.3750
  978MOL0     C31923   0.784  12.701  -0.202 -0.9219 -0.1401 -0.0312
  978MOL0     C31924   0.774  12.605  -0.436  0.1605 -0.2562 -0.3261
  978MOL0     C31925   0.647  12.676  -0.462  1.1909  0.3207  0.4177
  978MOL0     O31926   0.585  12.636  -0.580 -0.1836  0.2816  0.3904
  978MOL0     C31927   0.486  12.715  -0.627  0.0142 -0.1202 -0.2637
  978MOL0     C31928   0.360  12.659  -0.642  0.1097  0.0048  0.5118
  978MOL0     C31929   0.245  12.729  -0.688 -0.6459 -0.0916  0.8245
  978MOL0     C31930   0.271  12.867  -0.725  0.1871 -0.8705  0.0600
  978MOL0     O31931   0.170  12.953  -0.758  0.5645 -0.0115  0.3577
  978MOL0     C31932   0.035  12.900  -0.780 -0.5284  0.0312  0.5496
  978MOL0     C31933  -0.076  13.002  -0.808  0.2880  0.5092  0.6217
  978MOL0     C31934  -0.193  12.942  -0.889  0.3332  0.0596  0.5047
  978MOL0     C31935  -0.317  13.036  -0.878  0.1452 -0.1553 -0.9163
  978MOL0     C31936  -0.434  12.990  -0.972 -0.1896  0.4810 -0.5287
  978MOL0     C31937  -0.515  12.877  -0.910 -0.2437 -0.1260  0.1639
  978MOL0     C31938  -0.609  12.808  -1.008  0.2978 -0.4846 -0.2828
  978MOL0     C31939  -0.692  12.695  -0.947 -0.0720 -0.5663 -0.1519
  978MOL0    Cl31940  -0.812  12.636  -1.069 -0.2891 -0.3044  0.2578
  978MOL0     C31941   0.400  12.923  -0.710 -0.1963  0.0313 -0.5414
  978MOL0     C31942   0.501  12.850  -0.660 -0.3659 -0.2752  0.4252
  978MOL0     O31943   0.614  12.774  -0.401  0.2097 -0.2385 -0.2173
  978MOL0     C31944   0.828  12.515  -0.529 -0.5311  0.4014 -0.3197
  978MOL0     C31945   0.962  12.481  -0.523 -0.2847 -0.0618 -0.3721
  978MOL0     N31946   1.583  11.994  -0.252 -0.0359  0.3026  0.2625
  978MOL0     N31947   1.565  11.921  -0.151  0.4304  0.0802 -0.0009
  978MOL0     C31948   0.999  11.428   0.625  0.5235  0.2981 -0.2068
  978MOL0     C31949   0.920  11.314   0.637 -0.1656  0.6490 -0.7348
  978MOL0     C31950   0.675  10.981   0.842  0.2738 -0.5451  0.2292
  978MOL0     C31951   0.734  10.868   0.787  0.0371 -0.2815 -0.5256
  978MOL0     C31952   0.667  10.741   0.793 -0.5495  0.2409  0.2905
  978MOL0     C31953   0.534  10.728   0.842 -1.0313 -0.0878  0.2979
  978MOL0     O31954   0.485  10.603   0.862  0.1312 -0.2350 -0.2719
  978MOL0     C31955   0.422  10.552   0.746 -0.6286 -0.5529 -0.0127
  978MOL0     C31956   0.270  10.588   0.734 -0.2250  0.5611  0.1988
  978MOL0     C31957   0.176  10.518   0.835  0.1018 -0.5424  1.0780
  978MOL0     C31958   0.035  10.576   0.850  0.1686  0.5332  0.4730
  978MOL0     C31959  -0.036  10.560   0.717 -0.2061  0.5278 -0.7126
  978MOL0     C31960  -0.083  10.551   0.607  0.3365  0.2166  0.8207
  978MOL0     C31961   0.474  10.835   0.898 -0.4973 -0.9609 -1.2280
  978MOL0     C31962   0.546  10.961   0.904  0.5377  0.2234  0.7765
  978MOL0     H31963   0.957  11.249   0.965  1.3652  1.2794  0.7522
  978MOL0     H31964   1.093  11.464   0.952  2.7539 -4.2331 -0.4485
  978MOL0     H31965   1.242  11.565   0.577 -0.1542 -1.6743  2.0002
  978MOL0     H31966   1.114  11.692   0.563 -0.2839 -0.3662  1.0729
  978MOL0     H31967   1.243  11.841   0.721 -2.4316 -1.3144 -0.2277
  978MOL0     H31968   1.383  11.729   0.704  0.8900  1.7060 -0.9583
  978MOL0     H31969   1.429  11.882   0.543 -0.7059  0.0559  0.5626
  978MOL0     H31970   1.356  11.748   0.453 -0.1830 -3.1583  2.5566
  978MOL0     H31971   1.134  11.890   0.446  0.2494 -0.0345 -3.4763
  978MOL0     H31972   1.225  12.018   0.524 -1.3952 -0.2449  0.3584
  978MOL0     H31973   1.215  12.067   0.295 -1.0512  1.0100  5.2943
  978MOL0     H31974   1.385  12.014   0.330  1.0700 -2.1929 -0.5557
  978MOL0     H31975   1.340  11.787   0.230 -0.1410 -1.3569 -1.8169
  978MOL0     H31976   1.178  11.835   0.204 -0.7624  1.9361 -2.0087
  978MOL0     H31977   1.300  11.862  -0.008 -2.9259 -0.5081  1.8089
  978MOL0     H31978   1.253  12.020   0.052 -0.0827  0.0847 -2.1027
  978MOL0     H31979   1.508  11.873   0.104  0.6547  1.0808  2.1728
  978MOL0     H31980   1.479  12.050   0.145 -0.6832  1.5497 -2.4211
  978MOL0     H31981   1.436  12.233  -0.080 -0.8480 -0.1403 -0.3562
  978MOL0     H31982   1.595  12.319  -0.306 -0.0623 -0.4828 -0.1835
  978MOL0     H31983   1.558  12.204  -0.438 -2.9549  1.3803 -1.8075
  978MOL0     H31984   1.339  12.336  -0.288  0.3507  1.4861 -1.0836
  978MOL0     H31985   1.328  12.204  -0.392 -0.0660  1.1594 -2.8146
  978MOL0     H31986   1.416  12.333  -0.590 -2.4362 -2.8911  0.6321
  978MOL0     H31987   1.431  12.478  -0.468  2.9109 -0.2967 -0.9676
  978MOL0     H31988   1.180  12.346  -0.565  1.4321 -1.5726  0.3875
  978MOL0     H31989   1.230  12.514  -0.606  1.2004  0.1412  0.6051
  978MOL0     H31990   1.034  12.606  -0.219  0.1862  2.2743 -0.5735
  978MOL0     H31991   0.839  12.682  -0.110 -1.7797 -1.6785  0.1926
  978MOL0     H31992   0.802  12.807  -0.224  1.7096 -1.1708 -4.2056
  978MOL0     H31993   0.682  12.667  -0.184 -0.8759 -0.4696 -0.3759
  978MOL0     H31994   0.345  12.562  -0.597 -3.0033  0.5551  0.9138
  978MOL0     H31995   0.147  12.682  -0.691 -1.5767  1.7923 -1.3425
  978MOL0     H31996   0.025  12.826  -0.860  2.1735  0.1117  0.0634
  978MOL0     H31997   0.010  12.848  -0.687 -1.4027 -1.8250 -0.6645
  978MOL0     H31998  -0.118  13.038  -0.714  1.8767  1.0061  1.1757
  978MOL0     H31999  -0.020  13.080  -0.860  0.1953  0.7174  0.8331
  978MOL0     H32000  -0.222  12.845  -0.848  0.1882 -0.0150  0.2305
  978MOL0     H32001  -0.166  12.925  -0.993  2.1078  1.0609  0.7610
  978MOL0     H32002  -0.354  13.050  -0.776  3.1625  3.5555 -0.0852
  978MOL0     H32003  -0.281  13.136  -0.903 -0.4726  0.1146 -0.7294
  978MOL0     H32004  -0.390  12.962  -1.068 -1.9756  2.0696 -1.8675
  978MOL0     H32005  -0.509  13.068  -0.987 -2.1777 -1.7030 -2.9949
  978MOL0     H32006  -0.441  12.803  -0.879  0.4595 -0.7802 -2.7967
  978MOL0     H32007  -0.570  12.913  -0.822 -0.7014  1.8828 -0.8715
  978MOL0     H32008  -0.542  12.779  -1.089  0.8975  0.4174 -0.1154
  978MOL0     H32009  -0.674  12.886  -1.051 -0.6740 -0.8030  0.5593
  978MOL0     H32010  -0.753  12.725  -0.862  1.1303 -1.9615  1.2614
  978MOL0     H32011  -0.623  12.623  -0.903  0.8367 -1.7387 -3.1751
  978MOL0     H32012   0.434  13.023  -0.736  0.0211 -0.1571 -0.9813
  978MOL0     H32013   0.597  12.900  -0.662 -2.1616  3.5330 -2.7879
  978MOL0     H32014   0.778  12.489  -0.622 -0.3287 -0.3381 -0.2279
  978MOL0     H32015   0.988  12.428  -0.614  1.5847 -0.5461  0.3949
  978MOL0     H32016   1.013  11.485   0.534 -0.8362  0.7288 -0.1736
  978MOL0     H32017   0.884  11.290   0.537  1.1504  1.4198 -1.4140
  978MOL0     H32018   0.828  10.885   0.735  0.9279 -3.7806 -0.3362
  978MOL0     H32019   0.710  10.657   0.740 -4.6354 -0.4923 -2.2812
  978MOL0     H32020   0.472  10.595   0.659  4.8138 -3.3037  1.3321
  978MOL0     H32021   0.440  10.445   0.734  0.0397 -0.4378 -0.0801
  978MOL0     H32022   0.251  10.555   0.631  1.9843  2.1528 -0.8005
  978MOL0     H32023   0.254  10.696   0.742  2.3637  0.9623  0.9098
  978MOL0     H32024   0.222  10.520   0.934 -1.3342  2.0446  1.7642
  978MOL0     H32025   0.182  10.410   0.818  5.6488 -0.4580  0.5687
  978MOL0     H32026   0.062  10.678   0.877  0.9154  0.1042  1.4086
  978MOL0     H32027  -0.033  10.533   0.923 -1.1308 -0.3176 -1.1593
  978MOL0     H32028  -0.126  10.560   0.509  1.0360  0.7112  0.5456
  978MOL0     H32029   0.376  10.822   0.944 -0.7866  1.4590 -1.0537
  978MOL0     H32030   0.501  11.048   0.952 -0.9344  1.1318 -2.0522
  979MOL0     O32031   5.447   9.541   0.583  0.3882 -0.1003  0.0346
  979MOL0     C32032   5.372   9.485   0.662 -0.1625  0.2929  0.1517
  979MOL0     O32033   5.384   9.354   0.702  0.5959 -0.7302 -0.5586
  979MOL0     C32034   5.473   9.278   0.635 -1.0310  1.1735  0.0924
  979MOL0     C32035   5.506   9.290   0.498  1.1290  0.0042 -0.9450
  979MOL0     C32036   5.589   9.210   0.430 -0.6094  0.1351 -1.3464
  979MOL0     C32037   5.671   9.118   0.496 -0.2004  0.3617 -0.2772
  979MOL0     O32038   5.764   9.045   0.433  0.6948  0.3970 -0.7824
  979MOL0     C32039   5.849   9.088   0.327 -0.0921 -0.0744  0.5528
  979MOL0     C32040   5.978   8.988   0.323 -0.3450 -0.4747 -0.5756
  979MOL0     C32041   6.077   9.040   0.218  0.4853  0.6116 -0.6922
  979MOL0     C32042   6.186   8.945   0.207 -0.8442 -0.4028  0.6238
  979MOL0     C32043   6.296   8.993   0.111 -0.8518 -0.7861 -0.1784
  979MOL0     C32044   6.418   8.902   0.119 -0.2771 -0.0895 -0.1464
  979MOL0     C32045   6.539   8.964   0.042 -0.1605  0.1038 -0.0847
  979MOL0     C32046   6.666   8.877   0.063  0.1240 -1.0084  1.3407
  979MOL0     N32047   6.784   8.957   0.019  0.9741  0.4597  0.0544
  979MOL0     C32048   6.908   8.936   0.071 -0.3041 -1.1378  0.6479
  979MOL0     C32049   6.990   8.991  -0.035  0.2978  0.1006 -0.4002
  979MOL0     C32050   7.145   8.994  -0.036  0.5733 -0.5224  0.2120
  979MOL0     C32051   7.198   9.126  -0.107 -0.2972  0.2334  0.3800
  979MOL0     C32052   7.320   9.173  -0.024  0.8910 -0.5877  0.6205
  979MOL0     C32053   7.438   9.077  -0.028 -0.0790  0.1267 -0.0575
  979MOL0     O32054   7.437   8.986   0.083 -0.2515 -0.3558 -0.8084
  979MOL0     C32055   7.555   8.922   0.101  0.6908  1.3647  0.5996
  979MOL0     C32056   7.580   8.795   0.065 -0.6110 -0.1072  0.2520
  979MOL0     C32057   7.705   8.730   0.105 -0.0680 -0.1975  0.6497
  979MOL0     C32058   7.727   8.584   0.073  0.1556 -0.0928  0.1342
  979MOL0     C32059   7.804   8.803   0.173 -0.3344 -0.9170 -0.1815
  979MOL0     C32060   7.938   8.753   0.215 -0.9217  0.9843  0.8884
  979MOL0     O32061   8.043   8.835   0.210 -0.1248  0.0369  0.1434
  979MOL0     C32062   8.159   8.816   0.285 -0.2315 -0.0033 -1.0198
  979MOL0     C32063   8.273   8.856   0.217  0.1588 -0.6453  0.0771
  979MOL0     C32064   8.398   8.842   0.282  1.0269  1.0011 -0.0706
  979MOL0     C32065   8.411   8.797   0.413  0.2327  0.0113 -0.4603
  979MOL0     O32066   8.537   8.775   0.465 -0.1837 -0.5842 -0.0034
  979MOL0     C32067   8.558   8.809   0.600  0.4209  0.1395 -0.7935
  979MOL0     C32068   8.701   8.865   0.616  0.1638 -0.1410 -1.1456
  979MOL0     C32069   8.707   9.020   0.582  0.0012  0.0821 -0.7424
  979MOL0     C32070   8.858   9.059   0.563  0.2662  0.7921  0.6337
  979MOL0     C32071   8.923   9.104   0.702  0.6677  0.2587  0.2815
  979MOL0     C32072   9.068   9.151   0.676  0.8571  0.2829 -0.9955
  979MOL0     C32073   9.130   9.202   0.806 -0.6988  0.4003  0.4402
  979MOL0     C32074   9.247   9.302   0.774  0.4309  0.5665  0.1911
  979MOL0    Cl32075   9.372   9.253   0.660 -0.0552  0.3966 -0.0909
  979MOL0     C32076   8.293   8.747   0.480  0.1692 -0.5723 -0.3814
  979MOL0     C32077   8.169   8.758   0.413  0.2596  0.5339  0.1062
  979MOL0     O32078   7.932   8.640   0.262 -0.3844 -0.4008  0.3226
  979MOL0     C32079   7.769   8.935   0.200  0.3579 -0.1439 -0.0575
  979MOL0     C32080   7.651   8.993   0.174 -0.1770 -0.7168 -0.1716
  979MOL0     N32081   6.916   9.029  -0.141 -0.4480  0.5944 -0.1127
  979MOL0     N32082   6.795   9.021  -0.100 -0.7173 -0.4832  0.4525
  979MOL0     C32083   5.644   9.100   0.634 -0.1582 -0.3291 -0.1000
  979MOL0     C32084   5.547   9.180   0.697  0.2170 -0.5009 -1.3825
  979MOL0     C32085   5.279   9.573   0.737  0.5712 -0.6701 -0.6475
  979MOL0     C32086   5.273   9.717   0.717 -0.3190 -0.0364 -0.0007
  979MOL0     C32087   5.177   9.796   0.782 -0.2559  0.3565  0.6277
  979MOL0     C32088   5.080   9.737   0.865  0.8253 -0.3204 -0.0572
  979MOL0     O32089   4.970   9.810   0.912  0.1573  0.3547  0.5292
  979MOL0     C32090   4.992   9.853   1.048 -0.2877  0.8085 -0.2368
  979MOL0     C32091   4.871   9.850   1.149  0.2989  0.3298  0.1765
  979MOL0     C32092   4.756   9.934   1.100  0.1399 -0.3594  0.3725
  979MOL0     C32093   4.792  10.082   1.082 -0.1994  0.3683 -0.1690
  979MOL0     C32094   4.839  10.161   1.205 -0.0569  0.4010  0.8678
  979MOL0     C32095   4.884  10.218   1.302  0.7969 -0.7032  0.3441
  979MOL0     C32096   5.085   9.597   0.871  0.3651  0.1601  0.2917
  979MOL0     C32097   5.181   9.514   0.812  0.3939 -0.2584  0.0584
  979MOL0     H32098   5.448   9.365   0.445 -3.5069  0.6667  4.1333
  979MOL0     H32099   5.603   9.210   0.322  2.2294 -5.9440 -1.3746
  979MOL0     H32100   5.800   9.084   0.229  2.9220 -3.2064 -1.0368
  979MOL0     H32101   5.889   9.188   0.346 -1.3542  0.7738 -0.9581
  979MOL0     H32102   6.023   9.004   0.421 -2.9354  3.8537  0.2039
  979MOL0     H32103   5.963   8.883   0.297  0.6092  0.4880 -6.3811
  979MOL0     H32104   6.030   9.038   0.119  3.9837 -2.6602 -2.5466
  979MOL0     H32105   6.121   9.138   0.236  4.5160 -0.8881 -1.3307
  979MOL0     H32106   6.229   8.919   0.305  0.0474 -2.8929 -0.3717
  979MOL0     H32107   6.154   8.847   0.172  1.0946  0.0296 -2.7707
  979MOL0     H32108   6.256   9.006   0.010  0.1540  0.3599 -0.4454
  979MOL0     H32109   6.337   9.090   0.138 -1.6459 -0.8936  1.4948
  979MOL0     H32110   6.446   8.873   0.221  2.3740  0.5931 -0.5923
  979MOL0     H32111   6.393   8.810   0.065 -0.4714  0.1409 -0.4523
  979MOL0     H32112   6.517   8.970  -0.065 -0.5814  0.6510  0.0259
  979MOL0     H32113   6.554   9.061   0.089 -1.9443 -0.0771  0.9356
  979MOL0     H32114   6.664   8.783   0.008  1.5118 -1.5256  2.1109
  979MOL0     H32115   6.680   8.856   0.169  0.4798  0.7344  1.6824
  979MOL0     H32116   6.939   8.902   0.170  1.7172 -0.7758  0.1773
  979MOL0     H32117   7.179   8.994   0.069  0.4600  1.4228  0.2934
  979MOL0     H32118   7.179   8.900  -0.081  1.3118  0.7406 -2.0331
  979MOL0     H32119   7.115   9.197  -0.101  1.3631  2.2990  0.3996
  979MOL0     H32120   7.220   9.105  -0.212  0.3609  0.8763  0.3771
  979MOL0     H32121   7.298   9.190   0.082  1.4242  0.8458  0.5192
  979MOL0     H32122   7.341   9.269  -0.071  0.3760 -0.8125 -0.0872
  979MOL0     H32123   7.526   9.139  -0.012 -0.8517  0.8539  1.7485
  979MOL0     H32124   7.439   9.029  -0.126  0.9574 -2.3700  1.0793
  979MOL0     H32125   7.501   8.750   0.007  0.4763 -0.1054 -1.3010
  979MOL0     H32126   7.653   8.554  -0.003 -1.7569  4.0370  0.1146
  979MOL0     H32127   7.828   8.563   0.037  0.6294 -0.0211  1.3988
  979MOL0     H32128   7.714   8.530   0.167  0.6466  1.3503  1.0580
  979MOL0     H32129   8.257   8.891   0.116  3.6513  0.3099 -0.2768
  979MOL0     H32130   8.487   8.860   0.223 -0.6728  1.2180 -2.7726
  979MOL0     H32131   8.490   8.887   0.633 -0.3546 -0.3564 -1.1997
  979MOL0     H32132   8.541   8.718   0.659 -0.5553  1.4660  1.0655
  979MOL0     H32133   8.739   8.855   0.718  0.0815 -0.0148 -1.1033
  979MOL0     H32134   8.760   8.813   0.540  2.4258  2.0372 -0.9992
  979MOL0     H32135   8.650   9.086   0.648  0.0500 -1.3470  0.8155
  979MOL0     H32136   8.657   9.035   0.487  0.8279  1.4316 -1.0005
  979MOL0     H32137   8.905   8.966   0.531 -0.9150  0.6234 -0.7309
  979MOL0     H32138   8.870   9.137   0.488 -0.7441 -0.0660 -0.4593
  979MOL0     H32139   8.915   9.025   0.778  0.9129  0.8752  0.9556
  979MOL0     H32140   8.857   9.179   0.746  0.1188 -0.8571  1.4418
  979MOL0     H32141   9.128   9.071   0.632 -0.4523 -0.4177 -1.5723
  979MOL0     H32142   9.070   9.245   0.619 -3.1551  0.6992 -0.7676
  979MOL0     H32143   9.177   9.118   0.857 -1.8465 -1.1495 -0.9687
  979MOL0     H32144   9.059   9.253   0.872 -0.6397  1.2880 -0.1543
  979MOL0     H32145   9.295   9.328   0.869  1.4855  1.5467 -0.5775
  979MOL0     H32146   9.204   9.394   0.734  0.5515  0.7373  0.4543
  979MOL0     H32147   8.310   8.700   0.577 -2.1744  2.6528  1.8311
  979MOL0     H32148   8.080   8.706   0.444  0.4973 -2.0784 -3.0666
  979MOL0     H32149   7.847   8.986   0.256  0.6101 -0.5497 -0.0360
  979MOL0     H32150   7.624   9.095   0.201 -0.1050 -0.4810 -0.9547
  979MOL0     H32151   5.703   9.023   0.683 -0.4413  0.0797  0.9058
  979MOL0     H32152   5.524   9.175   0.803 -0.6269  1.7231 -1.4104
  979MOL0     H32153   5.346   9.775   0.662  0.0051  2.8639  3.1370
  979MOL0     H32154   5.180   9.902   0.760 -1.9841  0.0736 -1.1687
  979MOL0     H32155   5.055   9.778   1.096 -3.2926 -2.6917 -1.2589
  979MOL0     H32156   5.044   9.949   1.047  0.5070  0.4130  0.8678
  979MOL0     H32157   4.907   9.893   1.243 -3.5877  3.3020  0.5519
  979MOL0     H32158   4.832   9.749   1.167 -3.0436  1.2403 -1.3527
  979MOL0     H32159   4.686   9.932   1.185  2.9900  2.6100  3.0603
  979MOL0     H32160   4.722   9.878   1.012  0.7472 -2.1264  1.2095
  979MOL0     H32161   4.708  10.143   1.048  0.8029  1.3619 -0.9609
  979MOL0     H32162   4.873  10.092   1.008  0.3985 -1.2582  0.2326
  979MOL0     H32163   4.920  10.280   1.382 -1.3673 -1.1870  1.7684
  979MOL0     H32164   5.009   9.545   0.927  3.4960 -3.5377  1.6054
  979MOL0     H32165   5.163   9.411   0.837  0.2742 -0.1980  0.2200
  980MOL0     O32166   9.016   7.497   0.332  0.3676  0.1327 -0.3375
  980MOL0     C32167   9.071   7.605   0.295  0.2640  0.6650  0.0950
  980MOL0     O32168   9.026   7.732   0.319 -0.1728  0.3330 -0.5823
  980MOL0     C32169   8.899   7.732   0.377  0.0547  0.4632  0.8538
  980MOL0     C32170   8.877   7.790   0.497 -0.2304  0.0151 -1.0007
  980MOL0     C32171   8.748   7.783   0.555  0.5164 -0.8506  0.1021
  980MOL0     C32172   8.639   7.733   0.478 -0.0155 -0.6576  0.2507
  980MOL0     O32173   8.506   7.729   0.520 -0.8552  0.3603  0.4569
  980MOL0     C32174   8.482   7.766   0.663  0.0106  0.7543  0.1830
  980MOL0     C32175   8.333   7.748   0.712 -0.3765 -0.0433 -0.1636
  980MOL0     C32176   8.245   7.865   0.649 -0.5860  0.9186 -1.0007
  980MOL0     C32177   8.097   7.857   0.648  0.0402  0.0515 -0.3582
  980MOL0     C32178   8.026   7.884   0.785  0.3644  0.0350  0.2111
  980MOL0     C32179   7.897   7.807   0.786  0.0917 -0.1705  0.2718
  980MOL0     C32180   7.799   7.864   0.887  0.5788 -0.1433  0.4885
  980MOL0     C32181   7.842   7.832   1.036 -0.1996  0.2699  0.4248
  980MOL0     N32182   7.849   7.686   1.065 -0.3244 -0.1563 -0.4845
  980MOL0     C32183   7.757   7.590   1.046 -0.1603 -0.0265 -0.2398
  980MOL0     C32184   7.806   7.476   1.104 -0.5080 -0.1784 -0.3081
  980MOL0     C32185   7.743   7.342   1.123 -0.1342  0.0423  0.7026
  980MOL0     C32186   7.783   7.252   1.007  0.4158 -0.2562 -0.1966
  980MOL0     C32187   7.718   7.296   0.874  0.9660  0.0394 -0.1956
  980MOL0     C32188   7.739   7.190   0.776 -0.4217 -0.5867 -0.4822
  980MOL0     O32189   7.683   7.057   0.801  0.6161 -0.3080  0.5310
  980MOL0     C32190   7.598   7.002   0.705 -0.8071  0.7873 -0.6631
  980MOL0     C32191   7.615   7.016   0.570  0.1947 -0.2088  0.3367
  980MOL0     C32192   7.528   6.960   0.472  0.1460 -0.6192  0.1881
  980MOL0     C32193   7.563   6.990   0.323  0.0845 -0.9958  0.6825
  980MOL0     C32194   7.428   6.871   0.514 -0.0821  0.0660 -0.6128
  980MOL0     C32195   7.340   6.792   0.420 -1.1877 -0.2665 -0.8259
  980MOL0     O32196   7.281   6.689   0.491  0.3520  0.2710  0.1249
  980MOL0     C32197   7.182   6.613   0.441  0.1354 -0.2119  0.0010
  980MOL0     C32198   7.153   6.501   0.519  0.5295 -0.6128 -1.0175
  980MOL0     C32199   7.058   6.409   0.477 -0.9584 -0.4564 -0.3673
  980MOL0     C32200   7.003   6.419   0.354  0.8498  0.7522 -0.8356
  980MOL0     O32201   6.925   6.313   0.309  0.6246 -1.2691  0.2806
  980MOL0     C32202   6.801   6.342   0.242  0.9658 -0.0037  0.2267
  980MOL0     C32203   6.817   6.276   0.105  1.1562 -1.2742 -0.7294
  980MOL0     C32204   6.755   6.132   0.102 -0.5783  0.0707  0.0526
  980MOL0     C32205   6.820   6.058  -0.014  0.5069  1.3810  0.3514
  980MOL0     C32206   6.717   5.964  -0.081 -0.7425 -0.4821 -0.3410
  980MOL0     C32207   6.777   5.889  -0.199  0.7325  0.0650 -0.0942
  980MOL0     C32208   6.822   5.970  -0.327 -1.0188 -0.2526  0.0028
  980MOL0     C32209   6.898   5.882  -0.425 -0.9384  0.5708  0.0851
  980MOL0    Cl32210   6.791   5.801  -0.522  0.0445 -0.3136 -0.1564
  980MOL0     C32211   7.027   6.534   0.279 -0.4949 -0.6085  0.0786
  980MOL0     C32212   7.116   6.626   0.321  0.4429 -0.4967 -0.2704
  980MOL0     O32213   7.350   6.803   0.296 -0.2861 -0.1199  0.1480
  980MOL0     C32214   7.422   6.839   0.653 -0.3405 -0.6706  0.2719
  980MOL0     C32215   7.505   6.909   0.747 -0.1492  0.1792 -0.6511
  980MOL0     N32216   7.923   7.506   1.168  0.2550 -0.0627 -0.5344
  980MOL0     N32217   7.955   7.623   1.134 -0.2243 -0.4403 -0.3050
  980MOL0     C32218   8.666   7.675   0.351 -0.2227  0.2780 -0.4427
  980MOL0     C32219   8.793   7.687   0.298  1.2090 -0.1512 -0.3290
  980MOL0     C32220   9.192   7.590   0.214 -0.2353  0.2757 -0.4145
  980MOL0     C32221   9.244   7.462   0.198 -0.7780 -0.7146  0.1259
  980MOL0     C32222   9.361   7.436   0.122  0.4763 -0.3722 -1.0095
  980MOL0     C32223   9.414   7.543   0.055  0.3953  0.4616  0.2106
  980MOL0     O32224   9.511   7.516  -0.042  0.3542 -0.7712 -0.6260
  980MOL0     C32225   9.481   7.457  -0.169  0.2013 -0.4202  0.6782
  980MOL0     C32226   9.608   7.395  -0.234  0.4997 -0.8778  0.0047
  980MOL0     C32227   9.683   7.291  -0.143 -0.6935 -0.5304  0.3148
  980MOL0     C32228   9.784   7.216  -0.234  0.1489  0.5001 -0.1494
  980MOL0     C32229   9.856   7.128  -0.152  0.3909  1.1858  0.1487
  980MOL0     C32230   9.924   7.041  -0.105 -0.8573  0.5631  0.4258
  980MOL0     C32231   9.356   7.670   0.074  0.1012 -0.3340  0.5298
  980MOL0     C32232   9.249   7.698   0.155 -0.1180 -0.4470  0.4595
  980MOL0     H32233   8.947   7.832   0.568 -0.1200 -1.5658 -0.1153
  980MOL0     H32234   8.727   7.810   0.658  2.3394  0.8427  0.0923
  980MOL0     H32235   8.550   7.705   0.722  2.9197  2.7997 -0.8090
  980MOL0     H32236   8.503   7.871   0.687 -1.1419  1.6035 -2.1537
  980MOL0     H32237   8.291   7.651   0.685 -3.7621  1.4580 -0.8001
  980MOL0     H32238   8.324   7.748   0.821 -2.6309 -0.4625 -0.3052
  980MOL0     H32239   8.265   7.953   0.711  2.1937 -1.0063  1.0627
  980MOL0     H32240   8.285   7.892   0.550  2.6850  4.0664  0.9285
  980MOL0     H32241   8.053   7.928   0.578  1.6563  2.4025  0.8652
  980MOL0     H32242   8.069   7.755   0.620 -3.2212  0.2757  1.5529
  980MOL0     H32243   8.085   7.844   0.868  1.8867 -1.0053 -1.3022
  980MOL0     H32244   8.007   7.991   0.793 -4.2717 -0.6281  1.2868
  980MOL0     H32245   7.847   7.806   0.688 -0.3924  1.2106  0.4944
  980MOL0     H32246   7.914   7.700   0.802  1.0825  0.1000  1.0749
  980MOL0     H32247   7.803   7.972   0.872  0.0649  0.1339  2.0892
  980MOL0     H32248   7.697   7.826   0.875 -0.5047  2.3911  0.9691
  980MOL0     H32249   7.776   7.883   1.107 -4.4609 -2.4360 -1.1745
  980MOL0     H32250   7.943   7.872   1.045  0.5009 -1.0154 -1.1016
  980MOL0     H32251   7.658   7.600   1.004 -1.4815  2.4732  3.0023
  980MOL0     H32252   7.780   7.288   1.212 -1.1646 -3.8474 -1.0093
  980MOL0     H32253   7.635   7.361   1.126 -0.3749 -0.6591 -1.8679
  980MOL0     H32254   7.742   7.154   1.036 -0.3137  0.6518  2.0551
  980MOL0     H32255   7.891   7.243   0.993  0.9953  0.9244  2.9211
  980MOL0     H32256   7.760   7.387   0.830  2.1101  1.3873  3.3248
  980MOL0     H32257   7.611   7.308   0.889  0.5626 -2.2855 -0.9069
  980MOL0     H32258   7.848   7.183   0.766 -0.2827 -1.7863  1.3401
  980MOL0     H32259   7.693   7.230   0.686  0.1367 -1.1894 -1.0410
  980MOL0     H32260   7.698   7.082   0.545  0.2866 -0.9594 -1.5320
  980MOL0     H32261   7.642   6.929   0.278  3.0342  0.9957  2.7827
  980MOL0     H32262   7.477   6.994   0.255  1.0688  1.7956 -0.5652
  980MOL0     H32263   7.605   7.091   0.313 -3.0488  0.5440  1.7649
  980MOL0     H32264   7.197   6.478   0.616 -1.0562 -0.4080 -0.2173
  980MOL0     H32265   7.037   6.321   0.537 -2.7819 -0.3805 -0.8159
  980MOL0     H32266   6.714   6.297   0.293 -0.7798  2.5918 -0.2545
  980MOL0     H32267   6.770   6.447   0.244 -1.5639 -0.6731  2.2336
  980MOL0     H32268   6.759   6.337   0.035 -0.0981 -3.2556 -1.5269
  980MOL0     H32269   6.920   6.273   0.070  0.4625 -0.4367 -3.0006
  980MOL0     H32270   6.646   6.130   0.089 -0.6205 -3.6965 -0.0804
  980MOL0     H32271   6.792   6.090   0.196 -0.0048  1.4705  0.4857
  980MOL0     H32272   6.849   6.121  -0.099  0.0127 -2.4074 -2.9066
  980MOL0     H32273   6.900   6.003   0.035  0.1012 -0.3819 -0.8696
  980MOL0     H32274   6.629   6.022  -0.109 -1.7942 -2.6154 -1.8374
  980MOL0     H32275   6.690   5.883  -0.012  1.0506 -1.0937 -0.3114
  980MOL0     H32276   6.862   5.826  -0.171 -0.8469 -2.7192 -1.1494
  980MOL0     H32277   6.701   5.817  -0.231  0.8744 -0.0678 -0.1354
  980MOL0     H32278   6.897   6.039  -0.289  0.8586 -2.0071 -0.3384
  980MOL0     H32279   6.737   6.014  -0.381 -1.4746  0.2928  1.1490
  980MOL0     H32280   6.959   5.810  -0.369 -0.4074  1.6865  0.9738
  980MOL0     H32281   6.962   5.938  -0.494 -2.1322  0.9937 -0.7158
  980MOL0     H32282   6.976   6.552   0.185  0.5243 -0.7922 -0.5263
  980MOL0     H32283   7.134   6.722   0.272 -1.8105 -0.3015 -0.7938
  980MOL0     H32284   7.352   6.766   0.694 -0.5333  0.6608  2.5282
  980MOL0     H32285   7.506   6.894   0.854 -0.3577  0.4922 -0.6069
  980MOL0     H32286   8.593   7.628   0.285 -0.7128  1.2899 -0.6380
  980MOL0     H32287   8.815   7.646   0.200  1.2558 -1.6246  0.2759
  980MOL0     H32288   9.197   7.373   0.238  0.7626 -0.0850  3.6660
  980MOL0     H32289   9.415   7.342   0.115  4.6875  1.8618 -1.2352
  980MOL0     H32290   9.396   7.387  -0.167  1.3923 -2.1387 -2.4772
  980MOL0     H32291   9.447   7.532  -0.241  0.6127 -1.6991 -0.8924
  980MOL0     H32292   9.669   7.482  -0.258 -1.1618  0.1435 -0.6984
  980MOL0     H32293   9.582   7.349  -0.330 -0.2547 -2.1592  0.7835
  980MOL0     H32294   9.614   7.225  -0.090 -0.3613 -0.4629  0.8407
  980MOL0     H32295   9.741   7.350  -0.072  0.5249  0.5707 -1.5083
  980MOL0     H32296   9.855   7.287  -0.277  2.1418 -2.2364 -1.7427
  980MOL0     H32297   9.732   7.155  -0.308 -1.7455 -1.3839  2.5358
  980MOL0     H32298   9.984   6.957  -0.078  0.5302  1.0460 -0.9815
  980MOL0     H32299   9.387   7.750   0.007  0.7812  0.6202  1.9384
  980MOL0     H32300   9.222   7.801   0.174  2.8259 -0.2508  5.0352
  981MOL0     O32301   7.390   4.850   8.995  0.2341  0.0085  0.3232
  981MOL0     C32302   7.473   4.752   9.010  0.2541 -0.7594  0.8740
  981MOL0     O32303   7.451   4.625   8.977 -0.6784 -0.8702 -0.4031
  981MOL0     C32304   7.328   4.577   8.919  0.3337  0.3245 -0.1331
  981MOL0     C32305   7.320   4.440   8.918  0.0006 -0.1222  0.6682
  981MOL0     C32306   7.199   4.379   8.873  0.0523  0.1260  1.0696
  981MOL0     C32307   7.097   4.454   8.809 -0.1531 -0.3552 -0.7189
  981MOL0     O32308   6.982   4.381   8.766 -1.1439  0.4152 -0.4117
  981MOL0     C32309   6.884   4.461   8.702 -0.1388 -0.2881  0.8135
  981MOL0     C32310   6.792   4.362   8.632 -0.4984  0.0102  0.7637
  981MOL0     C32311   6.668   4.338   8.722  0.0266  0.4132 -0.2388
  981MOL0     C32312   6.574   4.229   8.677  1.0717  0.0547 -0.9154
  981MOL0     C32313   6.454   4.218   8.789  0.2177 -0.0065  0.6746
  981MOL0     C32314   6.356   4.114   8.753 -0.4561  0.0950 -0.6603
  981MOL0     C32315   6.221   4.110   8.823  0.4864  0.6250 -0.4090
  981MOL0     C32316   6.185   3.970   8.868 -0.4343 -0.3364  0.3654
  981MOL0     N32317   6.284   3.927   8.978  0.2237 -0.6845  0.0869
  981MOL0     C32318   6.316   3.991   9.096  0.1193  0.6276  0.1218
  981MOL0     C32319   6.424   3.912   9.142  0.3960 -0.6524 -0.4833
  981MOL0     C32320   6.499   3.937   9.270 -0.3063  1.4644 -0.7035
  981MOL0     C32321   6.611   3.832   9.294 -1.0537  0.2887  0.0867
  981MOL0     C32322   6.693   3.849   9.422 -0.3290  0.2340  0.8498
  981MOL0     C32323   6.800   3.964   9.404 -0.3267  0.4441  0.5085
  981MOL0     O32324   6.858   3.992   9.531  0.1916  0.0288  0.0219
  981MOL0     C32325   6.811   4.101   9.609  1.3956  0.5603 -0.6030
  981MOL0     C32326   6.695   4.176   9.588 -0.1729 -1.2123  0.3421
  981MOL0     C32327   6.649   4.279   9.677 -0.3539  0.5760 -0.1095
  981MOL0     C32328   6.514   4.337   9.653  0.3716 -0.9286  0.4114
  981MOL0     C32329   6.736   4.316   9.775  0.2367 -0.1281 -1.0398
  981MOL0     C32330   6.727   4.440   9.864 -0.5855 -0.3074 -0.1579
  981MOL0     O32331   6.627   4.532   9.832 -0.0066  1.0840  0.5621
  981MOL0     C32332   6.600   4.628   9.929  0.8090 -0.4068 -0.0936
  981MOL0     C32333   6.564   4.586  10.059 -0.2954 -0.0614 -0.6335
  981MOL0     C32334   6.533   4.687  10.149  0.4265  0.2626 -0.5528
  981MOL0     C32335   6.540   4.826  10.122  0.3187 -0.3980  0.1791
  981MOL0     O32336   6.494   4.921  10.212  0.1340 -0.2347 -0.0455
  981MOL0     C32337   6.400   5.013  10.158  0.4993  0.9366  0.0714
  981MOL0     C32338   6.452   5.157  10.140  0.2863  1.2497  0.9758
  981MOL0     C32339   6.339   5.253  10.174 -0.1112  0.2974 -0.0787
  981MOL0     C32340   6.324   5.266  10.334 -0.4068 -0.7630  0.2942
  981MOL0     C32341   6.200   5.346  10.374 -0.1406 -0.5888  0.4673
  981MOL0     C32342   6.197   5.386  10.520 -1.2068  0.0722  0.6905
  981MOL0     C32343   6.079   5.470  10.573  0.0990 -0.0152  0.1879
  981MOL0     C32344   6.077   5.467  10.723  0.2920  0.2023 -0.3537
  981MOL0    Cl32345   5.968   5.588  10.779 -0.2141 -0.1562 -0.7466
  981MOL0     C32346   6.582   4.861   9.992 -0.3076  0.3385 -0.2823
  981MOL0     C32347   6.596   4.767   9.895  0.7024  0.2064 -1.0255
  981MOL0     O32348   6.800   4.451   9.961  0.4117 -1.0335  0.7657
  981MOL0     C32349   6.853   4.234   9.798  0.3725  1.0431 -0.1078
  981MOL0     C32350   6.885   4.135   9.713 -0.0654  0.1992 -0.1071
  981MOL0     N32351   6.452   3.822   9.052 -0.9610 -0.5176  0.3718
  981MOL0     N32352   6.368   3.822   8.950 -0.1492  0.1010 -0.3379
  981MOL0     C32353   7.116   4.591   8.810 -0.0366 -0.3512  0.6422
  981MOL0     C32354   7.224   4.651   8.874  0.9411 -0.6974 -0.5896
  981MOL0     C32355   7.578   4.786   9.107  0.9918 -0.7991 -0.4174
  981MOL0     C32356   7.638   4.674   9.176  0.5372 -0.1236  0.4124
  981MOL0     C32357   7.744   4.691   9.260 -0.8371 -0.0417 -0.0437
  981MOL0     C32358   7.779   4.818   9.299  0.7218 -0.4878  0.1331
  981MOL0     O32359   7.858   4.829   9.412  0.5337  0.2370  0.5122
  981MOL0     C32360   7.899   4.957   9.458  0.8592 -1.2137  0.1514
  981MOL0     C32361   8.023   4.996   9.377  0.4069 -0.2364  1.0787
  981MOL0     C32362   8.088   5.135   9.394 -1.0003  0.5416  1.1030
  981MOL0     C32363   8.222   5.140   9.313 -1.1570  0.4563 -0.1474
  981MOL0     C32364   8.333   5.230   9.368 -0.7198  0.0253  0.6158
  981MOL0     C32365   8.428   5.292   9.404 -0.0185  0.6323  0.2277
  981MOL0     C32366   7.725   4.926   9.230 -0.8524 -0.5420 -0.0284
  981MOL0     C32367   7.624   4.912   9.138  0.2303  0.0012 -0.3690
  981MOL0     H32368   7.400   4.379   8.959  0.8491  0.5877  0.0899
  981MOL0     H32369   7.191   4.271   8.878  0.9563  0.0863  1.9974
  981MOL0     H32370   6.817   4.525   8.761 -0.2893 -1.5730  2.0765
  981MOL0     H32371   6.937   4.523   8.629  2.4408 -1.7773  1.3255
  981MOL0     H32372   6.773   4.389   8.527  0.2861 -2.7124 -0.1668
  981MOL0     H32373   6.840   4.263   8.630 -1.3010 -0.4458  2.7400
  981MOL0     H32374   6.689   4.320   8.828 -2.8291 -4.3441 -0.1898
  981MOL0     H32375   6.623   4.437   8.733  0.5170  0.3988  2.7331
  981MOL0     H32376   6.531   4.259   8.581 -0.6381 -2.4103 -1.0012
  981MOL0     H32377   6.616   4.128   8.668 -1.4360 -0.9677 -2.0967
  981MOL0     H32378   6.496   4.197   8.888  1.7230 -0.6718 -0.0757
  981MOL0     H32379   6.396   4.311   8.794  0.4536  0.0842  2.5686
  981MOL0     H32380   6.328   4.126   8.648 -0.1243  1.7970 -0.5853
  981MOL0     H32381   6.409   4.019   8.749 -0.5207  0.0975 -3.7480
  981MOL0     H32382   6.224   4.185   8.903  0.7056  0.7852 -0.5668
  981MOL0     H32383   6.148   4.142   8.748 -2.9237 -1.7560  1.6020
  981MOL0     H32384   6.191   3.902   8.783 -0.1852  1.2248 -0.9064
  981MOL0     H32385   6.084   3.969   8.908 -0.7632 -0.5067 -0.4550
  981MOL0     H32386   6.270   4.071   9.154 -3.0549  1.6655 -3.4339
  981MOL0     H32387   6.545   4.035   9.256  0.3475  0.8938 -2.9568
  981MOL0     H32388   6.426   3.925   9.350  0.0246  0.5709 -0.5198
  981MOL0     H32389   6.688   3.831   9.216 -0.3589 -0.2668  0.7739
  981MOL0     H32390   6.563   3.736   9.314  2.5003 -1.6713  0.0520
  981MOL0     H32391   6.740   3.755   9.454 -1.6429 -0.0399  2.0827
  981MOL0     H32392   6.624   3.869   9.505 -1.9764 -3.1856  0.4549
  981MOL0     H32393   6.751   4.048   9.355  0.9600  0.4468 -0.8554
  981MOL0     H32394   6.886   3.930   9.345 -0.5686 -0.1473  0.4943
  981MOL0     H32395   6.646   4.155   9.494 -2.1764  0.4621  0.9306
  981MOL0     H32396   6.442   4.256   9.642 -2.5214  1.7615 -3.4193
  981MOL0     H32397   6.465   4.399   9.728  2.6643  0.4239  0.8794
  981MOL0     H32398   6.508   4.402   9.565  0.9300 -1.1393  0.2127
  981MOL0     H32399   6.561   4.481  10.085 -1.9052  0.1199  0.0501
  981MOL0     H32400   6.506   4.658  10.250  0.0277  1.3822 -0.3151
  981MOL0     H32401   6.370   4.977  10.059  0.4407 -0.1826  0.4712
  981MOL0     H32402   6.318   5.008  10.230  1.5676  1.9666  1.4079
  981MOL0     H32403   6.547   5.172  10.192  0.4174 -1.1295  1.5045
  981MOL0     H32404   6.475   5.165  10.033  1.1014 -0.0954  1.0235
  981MOL0     H32405   6.242   5.221  10.135 -1.4067  0.0863  3.0324
  981MOL0     H32406   6.360   5.351  10.129 -1.6385 -0.1274 -1.8450
  981MOL0     H32407   6.309   5.168  10.381 -0.3026 -0.9227 -0.0083
  981MOL0     H32408   6.413   5.310  10.380 -0.9077 -0.5344  1.0747
  981MOL0     H32409   6.101   5.299  10.361  0.0856 -0.9673  0.0735
  981MOL0     H32410   6.203   5.442  10.322  1.4207 -0.1379  1.3441
  981MOL0     H32411   6.195   5.287  10.565 -0.3136 -1.3435 -2.1950
  981MOL0     H32412   6.294   5.430  10.547 -1.2748  0.3525  0.4896
  981MOL0     H32413   5.985   5.429  10.535  0.3456 -1.9490  1.5071
  981MOL0     H32414   6.093   5.575  10.545  3.2045 -0.4294 -0.1238
  981MOL0     H32415   6.177   5.484  10.765 -1.1185  0.0768  3.4817
  981MOL0     H32416   6.027   5.374  10.752 -4.0857  2.9135  1.8378
  981MOL0     H32417   6.594   4.966   9.965  1.4790  0.4451  0.7406
  981MOL0     H32418   6.629   4.794   9.796 -0.1706 -0.0444 -1.3955
  981MOL0     H32419   6.927   4.244   9.877  0.6994  1.6404 -0.4797
  981MOL0     H32420   6.969   4.070   9.734 -0.4100  0.0761  0.9434
  981MOL0     H32421   7.035   4.650   8.767 -0.1089 -0.4256  0.6766
  981MOL0     H32422   7.213   4.759   8.876 -5.3991 -0.9689  1.0365
  981MOL0     H32423   7.616   4.571   9.150 -3.9968  0.3777  1.3925
  981MOL0     H32424   7.789   4.607   9.313  0.0410  1.6398  2.0428
  981MOL0     H32425   7.830   5.039   9.436  0.5429 -1.6786 -0.6409
  981MOL0     H32426   7.918   4.957   9.566  0.1128  0.9008  0.3237
  981MOL0     H32427   8.003   4.983   9.270  2.5141  1.3370  0.4313
  981MOL0     H32428   8.096   4.919   9.402  1.0323  0.3091  0.9535
  981MOL0     H32429   8.115   5.134   9.500 -3.3751  0.9185  1.7607
  981MOL0     H32430   8.023   5.222   9.381 -1.2321  0.4022  1.3205
  981MOL0     H32431   8.212   5.163   9.207  2.2057  0.9202 -0.4614
  981MOL0     H32432   8.264   5.040   9.324 -1.5383  0.2294 -0.7108
  981MOL0     H32433   8.514   5.344   9.442  1.0029  0.5892 -1.8833
  981MOL0     H32434   7.778   5.020   9.239 -1.5113 -0.3006  1.6704
  981MOL0     H32435   7.593   5.004   9.090 -0.3792  0.2573  0.4859
  982MOL0     O32436  11.299   7.237   6.137  0.2957  0.5705  0.2387
  982MOL0     C32437  11.406   7.266   6.083  1.0531 -0.1321 -0.0027
  982MOL0     O32438  11.443   7.242   5.956  0.4695 -0.2594 -0.0504
  982MOL0     C32439  11.378   7.153   5.880  0.9866 -0.0314 -0.4975
  982MOL0     C32440  11.354   7.018   5.924 -0.0965 -0.0839 -0.4120
  982MOL0     C32441  11.292   6.924   5.837  0.0766 -0.4313  0.7295
  982MOL0     C32442  11.238   6.963   5.712 -0.2297  0.5647  0.7263
  982MOL0     O32443  11.164   6.869   5.645 -0.3997 -0.0349  0.2546
  982MOL0     C32444  11.017   6.881   5.674 -0.3674  0.3145  0.5154
  982MOL0     C32445  10.949   6.750   5.650  0.0103 -0.3264 -0.8871
  982MOL0     C32446  10.797   6.743   5.698 -0.1558  0.6215 -0.4264
  982MOL0     C32447  10.803   6.702   5.845 -0.0407  0.7891  0.6784
  982MOL0     C32448  10.667   6.679   5.908 -0.7864 -1.0836  0.0993
  982MOL0     C32449  10.664   6.642   6.051 -0.0393  0.4676 -0.1978
  982MOL0     C32450  10.742   6.732   6.144  0.6485  0.2707  0.2809
  982MOL0     C32451  10.871   6.669   6.208  0.4302  0.4761  0.2441
  982MOL0     N32452  10.828   6.552   6.292  0.7463 -0.4968  0.6534
  982MOL0     C32453  10.744   6.567   6.397 -1.1493 -0.9685  0.1195
  982MOL0     C32454  10.716   6.442   6.429 -0.0717  0.8179 -0.1403
  982MOL0     C32455  10.600   6.402   6.524 -0.7043  0.2507  0.1274
  982MOL0     C32456  10.639   6.435   6.672  0.0293 -0.5864 -0.4436
  982MOL0     C32457  10.782   6.396   6.712  0.1959 -0.4822  0.8375
  982MOL0     C32458  10.821   6.398   6.863 -0.1889  0.6957  0.6096
  982MOL0     O32459  10.774   6.519   6.924 -0.1684  0.9708  0.3300
  982MOL0     C32460  10.731   6.507   7.054  0.1295 -0.9479 -0.5260
  982MOL0     C32461  10.817   6.512   7.160  0.6084 -1.6895  0.0207
  982MOL0     C32462  10.765   6.507   7.296  0.6784  0.1303  0.2028
  982MOL0     C32463  10.876   6.509   7.399 -0.7451  0.0368 -0.8117
  982MOL0     C32464  10.627   6.495   7.318 -0.4782 -1.1086  0.0984
  982MOL0     C32465  10.568   6.499   7.449 -0.0182 -0.5955 -1.1048
  982MOL0     O32466  10.446   6.558   7.454  0.1880  0.3838  0.2183
  982MOL0     C32467  10.369   6.523   7.568 -0.0035 -0.6205  0.2492
  982MOL0     C32468  10.314   6.625   7.641  0.0923 -0.2556  0.1546
  982MOL0     C32469  10.247   6.594   7.753 -0.8373  0.2745 -0.0352
  982MOL0     C32470  10.235   6.463   7.798  0.5144  0.3085 -0.4207
  982MOL0     O32471  10.159   6.428   7.904  0.3099 -0.4531 -0.7838
  982MOL0     C32472  10.147   6.511   8.024  0.6355 -0.3005  0.0018
  982MOL0     C32473  10.019   6.501   8.108  0.2318  0.2134  0.4537
  982MOL0     C32474  10.018   6.369   8.191  0.0179 -0.4549  0.5308
  982MOL0     C32475   9.981   6.247   8.107  0.8373 -0.2286  0.7961
  982MOL0     C32476   9.981   6.123   8.183  0.0855  0.0554 -0.6076
  982MOL0     C32477   9.876   6.133   8.296 -0.2096 -0.3396  0.2237
  982MOL0     C32478   9.948   6.096   8.427 -0.2379  0.6900 -0.0394
  982MOL0     C32479   9.862   6.131   8.549 -1.5787  0.8931 -0.1869
  982MOL0    Cl32480   9.726   6.014   8.556  0.4425  0.3433 -0.1602
  982MOL0     C32481  10.307   6.365   7.739  0.5476 -0.3657  0.2997
  982MOL0     C32482  10.362   6.391   7.611  0.7163 -0.4364 -0.4872
  982MOL0     O32483  10.636   6.463   7.549 -0.2479  0.0555 -0.0464
  982MOL0     C32484  10.545   6.487   7.205  0.1845 -0.3312 -1.2243
  982MOL0     C32485  10.595   6.483   7.078 -0.9712 -0.1407  0.0625
  982MOL0     N32486  10.788   6.356   6.352 -0.2235 -0.4434  0.0530
  982MOL0     N32487  10.871   6.424   6.280 -0.8777  0.8162 -0.1389
  982MOL0     C32488  11.261   7.094   5.661 -1.0247 -0.1235 -0.7204
  982MOL0     C32489  11.329   7.183   5.747  0.8714  0.0096 -0.0691
  982MOL0     C32490  11.505   7.327   6.159  0.5977  0.1156 -0.0721
  982MOL0     C32491  11.619   7.389   6.098  0.0538  1.3498  0.7098
  982MOL0     C32492  11.702   7.458   6.177 -0.1985  0.4768  0.1038
  982MOL0     C32493  11.691   7.467   6.317  0.3680  0.7599  0.1793
  982MOL0     O32494  11.799   7.539   6.366  0.3212 -0.6888 -0.2217
  982MOL0     C32495  11.830   7.552   6.506  0.4180  0.9630  0.7185
  982MOL0     C32496  11.921   7.428   6.542  1.7217  0.4079 -0.1428
  982MOL0     C32497  11.959   7.447   6.695  0.1488  0.2558 -0.0279
  982MOL0     C32498  12.098   7.513   6.733  0.4768  0.1567  0.8714
  982MOL0     C32499  12.106   7.664   6.715 -0.6035  0.0381 -0.3917
  982MOL0     C32500  12.094   7.775   6.688  0.0145  0.0697  0.5003
  982MOL0     C32501  11.593   7.390   6.379  0.2355  0.1859 -0.6953
  982MOL0     C32502  11.495   7.325   6.303 -0.1940  0.3333 -0.1523
  982MOL0     H32503  11.387   6.997   6.025  1.4960  0.1697 -0.8524
  982MOL0     H32504  11.282   6.819   5.863  1.1396 -1.1520 -1.4616
  982MOL0     H32505  11.001   6.899   5.780  0.0766  1.1420  0.4561
  982MOL0     H32506  10.968   6.958   5.613 -0.0101 -2.3159 -3.4812
  982MOL0     H32507  10.952   6.743   5.541 -0.0649  1.3977 -1.0210
  982MOL0     H32508  11.017   6.679   5.698  0.5552  0.2116 -0.8575
  982MOL0     H32509  10.737   6.835   5.691  1.3438  1.5186 -2.7940
  982MOL0     H32510  10.744   6.670   5.637 -1.5403  1.3475 -0.1395
  982MOL0     H32511  10.840   6.599   5.847 -0.0277  0.7615 -0.6471
  982MOL0     H32512  10.870   6.767   5.902 -0.4019 -2.3828  5.2703
  982MOL0     H32513  10.623   6.779   5.906  0.5027 -0.4573  1.6116
  982MOL0     H32514  10.625   6.610   5.833 -1.1735 -2.9729  1.9585
  982MOL0     H32515  10.561   6.645   6.088  0.0063 -2.2500  0.3589
  982MOL0     H32516  10.701   6.539   6.060 -1.4485  0.0054  0.7833
  982MOL0     H32517  10.764   6.832   6.106  0.1924 -0.2190 -1.3538
  982MOL0     H32518  10.669   6.751   6.224 -0.4170  3.0113 -1.2210
  982MOL0     H32519  10.913   6.747   6.272  0.9380 -2.3085  3.6476
  982MOL0     H32520  10.950   6.645   6.136  0.0890 -1.3993  0.4226
  982MOL0     H32521  10.698   6.657   6.437  0.0842 -0.6357  0.8179
  982MOL0     H32522  10.500   6.441   6.505 -1.4077 -0.2824  2.4077
  982MOL0     H32523  10.594   6.294   6.510  4.3199  0.0420 -2.5564
  982MOL0     H32524  10.568   6.383   6.738  0.1867  0.0547  0.2346
  982MOL0     H32525  10.627   6.541   6.695  2.7928  0.7018 -4.0112
  982MOL0     H32526  10.852   6.468   6.668 -0.6795  1.7675  2.9145
  982MOL0     H32527  10.799   6.299   6.664 -0.2527 -0.6378  0.9857
  982MOL0     H32528  10.928   6.383   6.879 -0.6644 -2.6792  1.2927
  982MOL0     H32529  10.778   6.313   6.917  0.1551  0.1197 -0.0185
  982MOL0     H32530  10.924   6.521   7.145  0.8730 -0.0749  2.3555
  982MOL0     H32531  10.875   6.607   7.448  1.0716 -0.4607  0.2986
  982MOL0     H32532  10.857   6.441   7.482 -1.0110  1.4397  0.3335
  982MOL0     H32533  10.976   6.504   7.356  0.3394 -0.5947  1.6126
  982MOL0     H32534  10.330   6.730   7.619 -0.4683  0.7042  3.7281
  982MOL0     H32535  10.186   6.674   7.792 -2.3071 -1.5734  1.5948
  982MOL0     H32536  10.224   6.477   8.095  2.6585  1.9338 -0.9554
  982MOL0     H32537  10.171   6.618   8.018 -4.4992  1.0466 -1.0555
  982MOL0     H32538  10.029   6.575   8.187  0.1510  0.3246  0.3590
  982MOL0     H32539   9.920   6.514   8.063  0.2324  0.6789  0.5859
  982MOL0     H32540   9.943   6.395   8.267 -0.8139  0.5124 -0.5844
  982MOL0     H32541  10.113   6.346   8.240 -1.9321 -5.0820  2.7659
  982MOL0     H32542   9.875   6.269   8.091  0.1643 -2.4987  1.6763
  982MOL0     H32543  10.034   6.235   8.012 -0.3971  0.3125  0.0187
  982MOL0     H32544  10.081   6.088   8.208 -0.6231 -0.2016  2.1524
  982MOL0     H32545   9.944   6.047   8.114 -0.3398 -0.2467 -0.0581
  982MOL0     H32546   9.828   6.231   8.310  0.6007  0.6214 -2.8832
  982MOL0     H32547   9.792   6.066   8.278 -0.0025 -0.7148  0.6420
  982MOL0     H32548  10.046   6.144   8.439  0.2434 -0.0535 -0.9042
  982MOL0     H32549   9.958   5.988   8.435 -2.5536  0.5249  2.0929
  982MOL0     H32550   9.824   6.232   8.540  2.1249  2.5061  0.2814
  982MOL0     H32551   9.922   6.128   8.641 -0.8408  0.1171 -0.6691
  982MOL0     H32552  10.291   6.263   7.773 -1.2707 -1.2666 -2.7884
  982MOL0     H32553  10.409   6.315   7.551 -0.8889 -0.4604 -1.7968
  982MOL0     H32554  10.440   6.510   7.210  0.7249  2.1504  2.0896
  982MOL0     H32555  10.516   6.482   7.003 -1.8640  0.7530  0.9664
  982MOL0     H32556  11.230   7.134   5.566  0.8454  4.3286  0.3086
  982MOL0     H32557  11.352   7.280   5.704  0.6355 -0.0200 -0.2604
  982MOL0     H32558  11.631   7.390   5.990  4.8031 -3.8148  0.7321
  982MOL0     H32559  11.789   7.506   6.133 -1.2056  2.1049 -0.2017
  982MOL0     H32560  11.880   7.649   6.520  3.5732 -0.2827 -0.9728
  982MOL0     H32561  11.745   7.558   6.575 -1.2216  2.1891 -1.2844
  982MOL0     H32562  12.007   7.409   6.478  1.8650 -1.7794  0.6184
  982MOL0     H32563  11.870   7.331   6.537  0.3819  0.8448  2.7896
  982MOL0     H32564  11.952   7.345   6.735  0.5189  0.7324  1.3006
  982MOL0     H32565  11.881   7.507   6.743  1.2469  0.1701  1.9731
  982MOL0     H32566  12.186   7.472   6.683 -1.4165 -1.1111 -1.6604
  982MOL0     H32567  12.115   7.499   6.840  1.5141  1.0125  0.8318
  982MOL0     H32568  12.105   7.881   6.679  1.1772 -0.1888 -2.0266
  982MOL0     H32569  11.589   7.378   6.487  0.9316 -0.2845 -0.7090
  982MOL0     H32570  11.416   7.265   6.347  1.1619 -1.4459 -0.0046
  983MOL0     O32571   0.564   9.900   5.462  0.1371 -0.9141 -0.4015
  983MOL0     C32572   0.561  10.019   5.485  0.2263 -1.4293  0.0841
  983MOL0     O32573   0.665  10.111   5.489 -0.0382 -0.2073  0.1559
  983MOL0     C32574   0.794  10.071   5.504  0.4131  0.0480  0.1896
  983MOL0     C32575   0.903  10.152   5.457 -0.1087 -0.2323  0.1529
  983MOL0     C32576   1.036  10.114   5.495 -0.0522 -0.1798  0.7300
  983MOL0     C32577   1.073   9.997   5.572  0.6301 -1.4205  0.3925
  983MOL0     O32578   1.202   9.979   5.599  0.3758  0.6239  0.7183
  983MOL0     C32579   1.235   9.851   5.662 -0.3834 -0.6179 -0.2058
  983MOL0     C32580   1.227   9.730   5.567 -0.5570  0.3155  0.1817
  983MOL0     C32581   1.320   9.743   5.448  0.3130  0.9652 -0.4029
  983MOL0     C32582   1.305   9.613   5.346  0.4052  0.4528 -0.5054
  983MOL0     C32583   1.417   9.609   5.248 -0.6121  0.2161  0.1021
  983MOL0     C32584   1.360   9.566   5.111 -0.0394  0.1620  0.0630
  983MOL0     C32585   1.472   9.526   5.012 -0.3378  0.8182  0.3384
  983MOL0     C32586   1.415   9.460   4.890  0.2402 -0.6686  0.8163
  983MOL0     N32587   1.347   9.331   4.920  0.0936 -0.4577  0.3275
  983MOL0     C32588   1.215   9.294   4.899 -1.2437 -0.6412  0.0994
  983MOL0     C32589   1.219   9.158   4.919  0.1382  0.5209 -0.3356
  983MOL0     C32590   1.098   9.072   4.881  0.0814  0.2984 -0.3991
  983MOL0     C32591   0.977   9.087   4.973 -0.2791 -0.7165  0.0723
  983MOL0     C32592   0.864   9.191   4.921 -0.7388  0.7708 -0.4439
  983MOL0     C32593   0.856   9.205   4.763 -1.2890  1.0061 -0.0787
  983MOL0     O32594   0.743   9.274   4.718  0.0933 -0.1555  0.6262
  983MOL0     C32595   0.626   9.216   4.738 -0.4884  0.3701  0.5210
  983MOL0     C32596   0.612   9.082   4.789 -0.2803 -0.5305  0.1669
  983MOL0     C32597   0.482   9.039   4.797 -1.1931  0.6516 -1.3631
  983MOL0     C32598   0.472   8.901   4.848  0.8591  0.0591  0.6113
  983MOL0     C32599   0.373   9.117   4.753  0.0919 -0.4796 -0.7710
  983MOL0     C32600   0.236   9.079   4.775  0.6685  0.0879  0.9131
  983MOL0     O32601   0.144   9.116   4.681 -0.0144  0.1181  0.1858
  983MOL0     C32602   0.012   9.109   4.714  0.5177  0.4792 -1.1040
  983MOL0     C32603  -0.065   8.989   4.720  0.2054 -0.2069 -0.4736
  983MOL0     C32604  -0.193   8.988   4.754  0.0082 -0.8724  0.4640
  983MOL0     C32605  -0.262   9.110   4.763 -0.3568 -0.5312 -0.2307
  983MOL0     O32606  -0.398   9.098   4.772  0.3525  0.0991  0.1757
  983MOL0     C32607  -0.471   9.191   4.854  1.1270  0.2089  0.2009
  983MOL0     C32608  -0.538   9.300   4.771  0.1189  0.7519  0.6187
  983MOL0     C32609  -0.616   9.391   4.858  0.6960 -1.0268 -0.0544
  983MOL0     C32610  -0.672   9.504   4.778  0.1251 -0.5641  0.1308
  983MOL0     C32611  -0.778   9.565   4.876 -0.7595  0.2054  0.6664
  983MOL0     C32612  -0.717   9.620   5.006 -0.9886 -0.0116 -0.4820
  983MOL0     C32613  -0.809   9.714   5.083  0.0689 -0.1399 -0.1284
  983MOL0     C32614  -0.954   9.668   5.104  0.9829 -0.2642 -0.7841
  983MOL0    Cl32615  -1.048   9.785   5.197  0.1102  0.1279 -0.1843
  983MOL0     C32616  -0.189   9.229   4.753  0.3730  0.0409 -0.3124
  983MOL0     C32617  -0.051   9.230   4.725  0.1702  0.2749 -0.3392
  983MOL0     O32618   0.212   9.032   4.883  0.2273  0.1549 -0.0989
  983MOL0     C32619   0.398   9.253   4.720  0.0926  0.3633 -0.2600
  983MOL0     C32620   0.524   9.301   4.715  0.5864  0.2027  1.0100
  983MOL0     N32621   1.343   9.123   4.959 -1.2086  0.8306  0.3750
  983MOL0     N32622   1.426   9.224   4.943 -0.1815 -0.0539  0.2666
  983MOL0     C32623   0.961   9.924   5.607  0.4420 -0.5002  0.6298
  983MOL0     C32624   0.830   9.956   5.579  1.1958 -0.1271  1.1597
  983MOL0     C32625   0.421  10.070   5.514 -0.3741 -0.1462 -0.0370
  983MOL0     C32626   0.310  10.022   5.451 -0.2201  0.0734  0.7708
  983MOL0     C32627   0.180  10.062   5.476  0.1280  0.3519  1.4025
  983MOL0     C32628   0.157  10.160   5.565  0.2213  0.0777  0.1713
  983MOL0     O32629   0.040  10.208   5.605 -0.8298 -0.2124  1.4776
  983MOL0     C32630  -0.024  10.260   5.490  1.0710 -0.0839  0.2720
  983MOL0     C32631  -0.141  10.339   5.535 -1.1583  0.5227  0.1221
  983MOL0     C32632  -0.218  10.415   5.423  0.7492  0.3453  0.1738
  983MOL0     C32633  -0.325  10.506   5.495 -0.5980 -1.2886  0.0561
  983MOL0     C32634  -0.430  10.441   5.579 -0.7242 -0.0834  1.1719
  983MOL0     C32635  -0.508  10.389   5.651  0.6772 -0.0592 -0.3627
  983MOL0     C32636   0.268  10.226   5.623  0.1001 -0.4930 -0.9154
  983MOL0     C32637   0.400  10.178   5.601  1.0451  0.5101 -0.0830
  983MOL0     H32638   0.876  10.243   5.404 -0.5092 -0.7138 -0.5023
  983MOL0     H32639   1.111  10.188   5.468 -1.9053  1.4399 -0.2166
  983MOL0     H32640   1.340   9.858   5.692 -0.0763 -0.8220 -1.1651
  983MOL0     H32641   1.172   9.826   5.747  0.1830 -1.9279 -0.1349
  983MOL0     H32642   1.256   9.643   5.627  0.6311 -1.6062 -2.9194
  983MOL0     H32643   1.125   9.716   5.531 -0.1404 -1.0532 -0.5227
  983MOL0     H32644   1.283   9.831   5.393 -0.0979 -0.1583 -1.9921
  983MOL0     H32645   1.425   9.758   5.475  1.0373 -0.3051 -2.3639
  983MOL0     H32646   1.308   9.521   5.405  1.4021  1.0971  0.4873
  983MOL0     H32647   1.212   9.626   5.290 -0.4589  0.7088  0.9464
  983MOL0     H32648   1.462   9.708   5.238  0.4392 -0.1356  1.1485
  983MOL0     H32649   1.488   9.536   5.288 -1.8712 -0.1694  1.7097
  983MOL0     H32650   1.311   9.473   5.141  0.8701 -1.1200 -2.1275
  983MOL0     H32651   1.302   9.648   5.067  1.1624  0.8070 -0.3591
  983MOL0     H32652   1.532   9.615   4.988 -3.8910  3.1269 -0.9374
  983MOL0     H32653   1.537   9.454   5.062 -1.4205 -0.4574 -0.0365
  983MOL0     H32654   1.499   9.438   4.823  0.3400 -1.0280  1.0571
  983MOL0     H32655   1.347   9.531   4.841  1.2901 -1.9179 -2.8101
  983MOL0     H32656   1.135   9.365   4.881  1.6366  2.6786 -0.6904
  983MOL0     H32657   1.070   9.077   4.776 -0.4490  3.6554 -0.1939
  983MOL0     H32658   1.142   8.972   4.883  1.8806  1.0167 -1.3236
  983MOL0     H32659   1.003   9.121   5.073  1.8887  1.5215 -1.1591
  983MOL0     H32660   0.934   8.988   4.990  1.3269 -0.9531  3.5451
  983MOL0     H32661   0.898   9.286   4.963  0.7358  0.3963 -0.7246
  983MOL0     H32662   0.770   9.172   4.973 -0.2667  3.1586  1.4622
  983MOL0     H32663   0.860   9.116   4.700  0.7982 -0.6485  2.1794
  983MOL0     H32664   0.941   9.269   4.736 -1.8336  1.5853 -0.4596
  983MOL0     H32665   0.692   9.009   4.799 -1.8831 -2.2062  1.5131
  983MOL0     H32666   0.540   8.835   4.793  1.3000  1.3153 -0.4140
  983MOL0     H32667   0.497   8.909   4.954 -3.6104  0.3818  1.8415
  983MOL0     H32668   0.373   8.857   4.836  0.6419  0.9443 -1.1427
  983MOL0     H32669  -0.027   8.888   4.706 -1.8736 -1.2054  0.5965
  983MOL0     H32670  -0.241   8.892   4.772  1.5395 -1.9756 -1.0283
  983MOL0     H32671  -0.546   9.133   4.907  1.8005 -1.9241 -1.0472
  983MOL0     H32672  -0.403   9.251   4.916  1.8141 -0.2581 -0.0888
  983MOL0     H32673  -0.470   9.356   4.707 -1.0483 -0.1122 -1.5045
  983MOL0     H32674  -0.615   9.263   4.702 -1.0307  3.7475  0.1526
  983MOL0     H32675  -0.553   9.442   4.932 -0.1616 -1.0574  0.7043
  983MOL0     H32676  -0.699   9.345   4.913 -1.1192  1.1143 -0.8517
  983MOL0     H32677  -0.597   9.579   4.753  0.5907 -1.9860 -3.2309
  983MOL0     H32678  -0.711   9.471   4.681  0.8985  0.9855 -0.7499
  983MOL0     H32679  -0.856   9.494   4.904  0.1973 -1.3503 -0.4819
  983MOL0     H32680  -0.828   9.643   4.819 -0.1649 -0.1139 -0.3129
  983MOL0     H32681  -0.698   9.541   5.078  0.1999 -0.2945 -1.0866
  983MOL0     H32682  -0.621   9.663   4.977 -1.2556  0.1494 -1.1494
  983MOL0     H32683  -0.825   9.804   5.023 -2.7225 -1.3074 -1.3074
  983MOL0     H32684  -0.764   9.751   5.176 -1.6354  2.4713 -0.2257
  983MOL0     H32685  -0.958   9.568   5.148  1.8426 -0.4491 -1.1055
  983MOL0     H32686  -1.008   9.652   5.011 -1.1737  0.6102  0.2574
  983MOL0     H32687  -0.245   9.322   4.755  1.0353  0.5023 -1.8131
  983MOL0     H32688   0.012   9.316   4.705  1.7469 -0.6953  0.2815
  983MOL0     H32689   0.307   9.305   4.692 -2.2421 -3.4193 -0.3620
  983MOL0     H32690   0.538   9.405   4.687 -0.4140  0.2428  0.5988
  983MOL0     H32691   0.981   9.830   5.657  1.2052  0.8617  3.0233
  983MOL0     H32692   0.755   9.894   5.627 -1.5471  1.3861 -0.8919
  983MOL0     H32693   0.313   9.944   5.375 -1.9692  2.2093 -1.6504
  983MOL0     H32694   0.111   9.998   5.421  0.9311 -0.5804  1.4434
  983MOL0     H32695   0.030  10.338   5.435 -1.2737  3.1198  2.1729
  983MOL0     H32696  -0.050  10.176   5.425  0.1506  1.5941 -1.6544
  983MOL0     H32697  -0.103  10.423   5.595 -0.6195  0.3911 -0.0317
  983MOL0     H32698  -0.209  10.279   5.596  0.1172 -0.9502  0.1553
  983MOL0     H32699  -0.257  10.336   5.359  3.7515  0.1666 -1.6247
  983MOL0     H32700  -0.147  10.480   5.372  0.7654  1.7254  1.8843
  983MOL0     H32701  -0.365  10.580   5.426 -1.1343 -0.6386  1.0326
  983MOL0     H32702  -0.266  10.571   5.561 -0.3481  0.9311 -2.2264
  983MOL0     H32703  -0.574  10.347   5.724 -0.7322 -0.7067 -1.9656
  983MOL0     H32704   0.263  10.319   5.679 -2.0717  0.4383 -2.5137
  983MOL0     H32705   0.471  10.238   5.658 -0.1022  0.5840  1.3474
  984MOL0     O32706   0.833   6.790   5.068 -0.1467 -0.2835  0.0965
  984MOL0     C32707   0.870   6.827   4.957  0.7159 -0.0101 -0.4594
  984MOL0     O32708   0.794   6.917   4.870 -0.2744 -0.1795  0.8610
  984MOL0     C32709   0.681   6.981   4.911 -0.3813  0.4606  0.8712
  984MOL0     C32710   0.671   7.104   4.862 -0.1557  0.1275  0.7225
  984MOL0     C32711   0.567   7.196   4.900 -0.1220  0.0039  0.8079
  984MOL0     C32712   0.467   7.149   4.981  0.7975 -0.5476  0.6577
  984MOL0     O32713   0.368   7.243   5.015 -0.8275  0.1211  0.3287
  984MOL0     C32714   0.240   7.184   5.051 -0.5774  0.4775  0.3496
  984MOL0     C32715   0.121   7.280   5.046  0.6203  0.1262  0.0166
  984MOL0     C32716  -0.013   7.214   5.019 -0.8639 -0.3429 -0.3036
  984MOL0     C32717  -0.020   7.151   4.881  0.0726  1.1652 -0.0909
  984MOL0     C32718  -0.163   7.094   4.855 -0.2479  0.6202 -0.3945
  984MOL0     C32719  -0.182   7.013   4.727  0.0573  0.7797 -0.4311
  984MOL0     C32720  -0.152   7.089   4.602 -0.1556 -0.1273  0.2643
  984MOL0     C32721  -0.249   7.212   4.580 -0.0306  0.1754 -0.5925
  984MOL0     N32722  -0.398   7.185   4.591  0.1790 -0.0588 -0.4468
  984MOL0     C32723  -0.474   7.132   4.483 -1.1550 -0.2700  0.8457
  984MOL0     C32724  -0.601   7.180   4.508 -0.6502  0.8117  0.0879
  984MOL0     C32725  -0.723   7.173   4.417  0.0298 -0.0531 -0.3107
  984MOL0     C32726  -0.806   7.294   4.413 -0.5296  0.6476  0.0449
  984MOL0     C32727  -0.923   7.289   4.514 -0.0531  0.1284  0.0689
  984MOL0     C32728  -1.031   7.196   4.481  0.6015 -0.8793 -0.1226
  984MOL0     O32729  -1.142   7.258   4.413 -0.0314 -0.1530 -0.4048
  984MOL0     C32730  -1.250   7.190   4.363 -0.6498  0.2291 -0.1360
  984MOL0     C32731  -1.276   7.052   4.373  0.1279 -0.0529 -0.4614
  984MOL0     C32732  -1.389   6.988   4.319 -0.0970 -0.5606  0.3806
  984MOL0     C32733  -1.415   6.838   4.338  0.0705  0.2977 -0.5438
  984MOL0     C32734  -1.491   7.075   4.252  0.7219  0.9492 -0.4218
  984MOL0     C32735  -1.609   7.024   4.189 -0.3043  0.1611  0.1880
  984MOL0     O32736  -1.694   6.934   4.246  0.1558  0.0327 -0.7365
  984MOL0     C32737  -1.827   6.910   4.211  0.2277 -1.0027 -0.5331
  984MOL0     C32738  -1.913   6.994   4.138  0.1019 -0.2376 -0.4830
  984MOL0     C32739  -2.043   6.959   4.123  0.8281  0.9763  0.4575
  984MOL0     C32740  -2.096   6.839   4.179  0.2724 -1.0495 -0.7166
  984MOL0     O32741  -2.225   6.785   4.158 -0.1806  0.2351 -0.3772
  984MOL0     C32742  -2.313   6.855   4.074 -0.3365 -0.3789 -0.0586
  984MOL0     C32743  -2.451   6.800   4.058 -0.1830  0.8751  0.4031
  984MOL0     C32744  -2.518   6.741   4.183 -0.2603  0.4670 -0.2391
  984MOL0     C32745  -2.658   6.685   4.151  0.4525 -0.4568  0.4868
  984MOL0     C32746  -2.772   6.718   4.250  0.6021  0.0233  0.2303
  984MOL0     C32747  -2.724   6.670   4.391 -0.1951  0.6588  0.3402
  984MOL0     C32748  -2.840   6.648   4.482 -0.0680  0.6483  0.5592
  984MOL0     C32749  -2.795   6.651   4.628  0.3903  0.4465 -0.0443
  984MOL0    Cl32750  -2.684   6.502   4.650 -0.1243  0.3072 -0.3126
  984MOL0     C32751  -2.008   6.764   4.258 -0.0296 -1.3074 -0.2171
  984MOL0     C32752  -1.874   6.805   4.276  0.9922  0.5481  0.5655
  984MOL0     O32753  -1.626   7.076   4.075 -0.4322  0.2193  0.6441
  984MOL0     C32754  -1.460   7.210   4.248 -0.7653  0.6867 -0.5731
  984MOL0     C32755  -1.338   7.265   4.289 -0.2836  0.0194  0.0665
  984MOL0     N32756  -0.604   7.252   4.623  0.1122 -0.7428  0.1120
  984MOL0     N32757  -0.485   7.255   4.673 -0.7574 -0.1992 -0.2119
  984MOL0     C32758   0.472   7.015   5.028 -0.0210  1.2450 -0.0962
  984MOL0     C32759   0.582   6.936   4.996 -0.1719 -0.8018 -1.1770
  984MOL0     C32760   1.005   6.801   4.914 -0.3365  0.1712  0.5767
  984MOL0     C32761   1.066   6.870   4.812  0.6748  0.5613 -0.5129
  984MOL0     C32762   1.201   6.866   4.783  0.7674  0.1980 -0.0980
  984MOL0     C32763   1.285   6.786   4.863 -0.2829 -0.8423  0.0418
  984MOL0     O32764   1.413   6.794   4.826  0.1561 -0.1109 -0.5998
  984MOL0     C32765   1.526   6.769   4.917 -0.1374 -0.7346  0.3850
  984MOL0     C32766   1.627   6.681   4.853 -0.8811 -0.2233 -0.1663
  984MOL0     C32767   1.721   6.615   4.962  0.8307 -0.6835 -0.6696
  984MOL0     C32768   1.833   6.527   4.901  0.4113  0.0596 -0.3956
  984MOL0     C32769   1.925   6.479   5.001 -0.8494 -0.6163 -0.2762
  984MOL0     C32770   2.012   6.462   5.087 -0.0611  0.5209  0.4868
  984MOL0     C32771   1.228   6.701   4.956 -0.3177  0.2032  0.4680
  984MOL0     C32772   1.091   6.721   4.985  0.2202 -0.2447  0.6805
  984MOL0     H32773   0.754   7.135   4.799  0.4416 -3.3887 -0.4570
  984MOL0     H32774   0.562   7.301   4.872 -1.1152 -0.0802  0.6298
  984MOL0     H32775   0.227   7.092   4.992 -0.3205 -0.1460  1.2385
  984MOL0     H32776   0.247   7.156   5.157 -2.7678 -0.5328  0.2952
  984MOL0     H32777   0.117   7.335   5.141  2.3776  1.6545 -0.7395
  984MOL0     H32778   0.144   7.352   4.967  0.1209  0.8616  0.5313
  984MOL0     H32779  -0.026   7.131   5.089  1.2516  0.0185  0.5940
  984MOL0     H32780  -0.090   7.292   5.028 -0.2476  0.1758  0.6417
  984MOL0     H32781   0.014   7.220   4.803  0.1070 -1.1485 -2.2214
  984MOL0     H32782   0.050   7.069   4.865 -2.9677 -1.0910 -3.3671
  984MOL0     H32783  -0.185   7.026   4.938  1.4206  0.9295  0.3519
  984MOL0     H32784  -0.230   7.180   4.853 -2.0694 -0.7084  0.6235
  984MOL0     H32785  -0.131   6.917   4.731 -1.0139  0.2069  2.3466
  984MOL0     H32786  -0.285   6.977   4.721  0.4099 -0.1579 -1.0042
  984MOL0     H32787  -0.046   7.117   4.608 -0.3474  0.4324  1.2086
  984MOL0     H32788  -0.161   7.021   4.516 -0.2438 -0.9954  0.9478
  984MOL0     H32789  -0.239   7.270   4.488  0.7692  1.6925  0.4197
  984MOL0     H32790  -0.213   7.281   4.656  0.6241 -1.8589  1.0484
  984MOL0     H32791  -0.431   7.071   4.404  1.6060  0.0308  2.0098
  984MOL0     H32792  -0.691   7.151   4.315 -1.5816  2.0985 -1.3475
  984MOL0     H32793  -0.794   7.095   4.448  0.4779 -1.5714 -2.8157
  984MOL0     H32794  -0.844   7.314   4.313 -1.2683 -2.8255 -0.4953
  984MOL0     H32795  -0.747   7.385   4.426 -2.1448  1.9667 -1.4338
  984MOL0     H32796  -0.970   7.388   4.526  0.5892  0.2894  1.5318
  984MOL0     H32797  -0.877   7.261   4.609  2.5264  2.6158 -0.3018
  984MOL0     H32798  -1.071   7.158   4.576 -1.3225 -1.6011 -1.1460
  984MOL0     H32799  -0.995   7.099   4.444  2.2239 -1.4747  2.7491
  984MOL0     H32800  -1.204   6.993   4.428  1.7228  2.5209  0.4327
  984MOL0     H32801  -1.515   6.801   4.359  2.1588 -5.8291  0.4795
  984MOL0     H32802  -1.385   6.787   4.246  0.7007  0.6149 -0.5243
  984MOL0     H32803  -1.347   6.794   4.411  0.9977 -2.5632 -2.9516
  984MOL0     H32804  -1.878   7.091   4.103 -1.3509  0.3903 -0.2670
  984MOL0     H32805  -2.100   7.025   4.057 -0.9247  1.1729  2.0658
  984MOL0     H32806  -2.324   6.948   4.130  0.8514 -0.6256  0.6129
  984MOL0     H32807  -2.266   6.876   3.978  1.3419 -0.4982  0.7055
  984MOL0     H32808  -2.512   6.879   4.014  3.5372  4.0232  0.3732
  984MOL0     H32809  -2.439   6.715   3.991 -0.8783  1.8010 -0.9280
  984MOL0     H32810  -2.525   6.815   4.263 -0.6923 -0.4677  0.6046
  984MOL0     H32811  -2.457   6.656   4.213  0.3990 -0.2317 -3.2852
  984MOL0     H32812  -2.689   6.727   4.055  1.6982  0.4356  0.4539
  984MOL0     H32813  -2.642   6.577   4.141  2.3009 -0.0384 -1.8362
  984MOL0     H32814  -2.872   6.679   4.229  0.1131  1.5828 -0.4786
  984MOL0     H32815  -2.771   6.826   4.266  2.1778  0.1298 -0.4478
  984MOL0     H32816  -2.668   6.578   4.372  2.4852  2.1918  0.2792
  984MOL0     H32817  -2.654   6.737   4.442  0.7178 -0.2288  0.2855
  984MOL0     H32818  -2.899   6.560   4.456 -2.2151  2.1502  0.0746
  984MOL0     H32819  -2.906   6.735   4.475  0.4587  0.9447 -3.9610
  984MOL0     H32820  -2.885   6.642   4.690  0.5735  1.5247  0.4089
  984MOL0     H32821  -2.746   6.747   4.651  0.5153  0.7625 -1.5343
  984MOL0     H32822  -2.047   6.673   4.302 -2.2365 -0.1592  0.3259
  984MOL0     H32823  -1.813   6.738   4.335 -1.6710 -2.6634 -0.0021
  984MOL0     H32824  -1.515   7.282   4.188 -1.5648 -0.1039 -0.7884
  984MOL0     H32825  -1.334   7.371   4.270  0.8141  0.2075  1.2694
  984MOL0     H32826   0.389   6.981   5.088  1.4293  2.6192  2.8786
  984MOL0     H32827   0.584   6.834   5.034 -1.0374 -0.7723 -1.0288
  984MOL0     H32828   1.005   6.949   4.768 -1.0725  0.2294  1.1851
  984MOL0     H32829   1.239   6.921   4.697 -0.1949  1.8028  0.4591
  984MOL0     H32830   1.568   6.863   4.953 -1.2847  1.2300 -2.9474
  984MOL0     H32831   1.484   6.717   5.004 -0.7746  0.1894  0.6544
  984MOL0     H32832   1.688   6.733   4.780 -2.3164  1.3196 -0.3270
  984MOL0     H32833   1.574   6.601   4.801  0.3398 -0.5051 -1.0084
  984MOL0     H32834   1.659   6.563   5.036  1.6425 -2.6188 -1.2801
  984MOL0     H32835   1.765   6.704   5.008 -3.0584  0.5818  1.0022
  984MOL0     H32836   1.889   6.584   4.826  0.7434 -3.1222 -2.7811
  984MOL0     H32837   1.794   6.440   4.848  1.1185  0.5457 -1.7568
  984MOL0     H32838   2.083   6.449   5.166  0.4471 -2.3399 -0.3110
  984MOL0     H32839   1.282   6.630   5.019 -3.2320 -1.1411  1.6597
  984MOL0     H32840   1.046   6.669   5.069 -2.0004  0.2562 -0.1486
  985MOL0     O32841   1.738   0.808   5.336 -0.5340  0.4920 -0.0885
  985MOL0     C32842   1.764   0.688   5.325 -0.4031  0.6570  0.5768
  985MOL0     O32843   1.683   0.583   5.303  0.2569  0.1384 -0.7104
  985MOL0     C32844   1.553   0.615   5.305  0.5821 -0.3976  0.0729
  985MOL0     C32845   1.489   0.696   5.209 -0.3910 -0.3008  1.0500
  985MOL0     C32846   1.356   0.726   5.210 -0.1598 -1.1509 -0.0370
  985MOL0     C32847   1.272   0.673   5.312 -0.5035 -0.4580 -0.0990
  985MOL0     O32848   1.137   0.695   5.328 -0.4495 -0.0546  0.0590
  985MOL0     C32849   1.087   0.824   5.306  1.2992  0.6524 -0.2961
  985MOL0     C32850   0.965   0.811   5.215 -0.8238 -0.6664 -0.2399
  985MOL0     C32851   0.880   0.939   5.213  0.0387 -0.2881  0.9887
  985MOL0     C32852   0.814   0.980   5.344 -0.4031 -0.0749  0.1492
  985MOL0     C32853   0.721   1.107   5.336 -0.6336 -0.7040 -0.7044
  985MOL0     C32854   0.664   1.163   5.473 -0.2739 -0.7271 -0.4284
  985MOL0     C32855   0.629   1.309   5.452 -0.2522  0.0267 -0.4955
  985MOL0     C32856   0.568   1.375   5.576  0.7664  0.3699  0.4247
  985MOL0     N32857   0.437   1.312   5.615 -0.3199  1.3662 -0.2716
  985MOL0     C32858   0.303   1.338   5.574 -0.0963 -0.8070 -0.0951
  985MOL0     C32859   0.218   1.241   5.625 -0.2094  0.1536 -0.0291
  985MOL0     C32860   0.073   1.228   5.599 -0.1957 -0.6312  0.0774
  985MOL0     C32861   0.036   1.081   5.567  0.3205 -0.2577 -0.1656
  985MOL0     C32862  -0.091   1.051   5.639  0.8084 -0.3811  0.0832
  985MOL0     C32863  -0.216   1.124   5.581 -0.7025  0.1278  0.4469
  985MOL0     O32864  -0.231   1.068   5.453 -0.3691  0.5867 -0.1765
  985MOL0     C32865  -0.353   1.070   5.386 -0.5290 -0.3844 -1.1047
  985MOL0     C32866  -0.444   1.180   5.404  0.6550  0.7729 -0.3903
  985MOL0     C32867  -0.560   1.166   5.326 -0.5156 -0.0787 -0.8930
  985MOL0     C32868  -0.644   1.284   5.351  0.3834 -0.5788 -0.2987
  985MOL0     C32869  -0.591   1.066   5.224  0.5161 -0.0811 -0.0383
  985MOL0     C32870  -0.722   1.041   5.159 -0.0675 -1.2519 -1.2842
  985MOL0     O32871  -0.726   0.948   5.063  0.7979 -0.9108  0.2897
  985MOL0     C32872  -0.841   0.873   5.061  0.7008  0.9093  0.3647
  985MOL0     C32873  -0.953   0.911   4.983  0.4269 -0.2937 -0.1577
  985MOL0     C32874  -1.073   0.840   4.987 -1.0622  0.4913 -0.2910
  985MOL0     C32875  -1.087   0.740   5.081  0.4222  0.4706  0.6114
  985MOL0     O32876  -1.203   0.670   5.102  0.2993  0.0597 -0.0080
  985MOL0     C32877  -1.316   0.680   5.022  0.0748  0.7349  0.4252
  985MOL0     C32878  -1.428   0.582   5.060 -0.1513  0.0049  0.3066
  985MOL0     C32879  -1.387   0.441   5.109 -0.1418 -0.1974 -0.4266
  985MOL0     C32880  -1.338   0.365   4.976 -0.2303 -0.6366  0.3846
  985MOL0     C32881  -1.331   0.213   4.986  0.0977 -0.1713  0.5465
  985MOL0     C32882  -1.221   0.177   5.094  0.7591  0.3010  0.1913
  985MOL0     C32883  -1.236   0.035   5.135  0.0830  0.0470 -0.1284
  985MOL0     C32884  -1.170   0.019   5.272  0.9590  0.6059  0.1000
  985MOL0    Cl32885  -1.159  -0.156   5.298 -0.0550 -0.3839 -0.0139
  985MOL0     C32886  -0.976   0.695   5.153 -0.5534 -0.4426 -0.5748
  985MOL0     C32887  -0.850   0.756   5.139  0.4695 -0.4217 -0.2783
  985MOL0     O32888  -0.818   1.108   5.189 -0.3988 -0.3555 -0.2526
  985MOL0     C32889  -0.484   0.974   5.204 -0.0007 -0.4265  0.2990
  985MOL0     C32890  -0.368   0.977   5.281  0.1856 -0.8337 -0.0442
  985MOL0     N32891   0.302   1.172   5.711 -0.3837  0.6419 -0.4060
  985MOL0     N32892   0.424   1.205   5.699 -0.9907  0.0043  0.3097
  985MOL0     C32893   1.338   0.595   5.404  0.2609  0.0443  0.5859
  985MOL0     C32894   1.472   0.559   5.406  0.2921  0.4273 -0.2260
  985MOL0     C32895   1.912   0.661   5.322 -0.0935 -0.4361 -0.0049
  985MOL0     C32896   2.007   0.761   5.359  0.1284 -0.2277  0.1138
  985MOL0     C32897   2.147   0.737   5.360  0.4379  0.4832 -0.3644
  985MOL0     C32898   2.194   0.601   5.341 -0.0954  0.2413 -0.3230
  985MOL0     O32899   2.326   0.571   5.341  0.0051  0.1045 -0.0783
  985MOL0     C32900   2.369   0.457   5.264  0.4222  0.6178 -0.7932
  985MOL0     C32901   2.521   0.445   5.225 -0.0804 -0.9777 -0.1434
  985MOL0     C32902   2.593   0.405   5.353 -1.6903 -0.3509 -0.0439
  985MOL0     C32903   2.748   0.410   5.331 -0.5562 -0.9614  1.1723
  985MOL0     C32904   2.811   0.538   5.317  0.4092 -0.7737  0.5268
  985MOL0     C32905   2.862   0.646   5.306 -0.5729  0.0748  0.5427
  985MOL0     C32906   2.090   0.506   5.333 -0.3297 -0.3652 -0.0868
  985MOL0     C32907   1.957   0.533   5.318  0.2527 -0.1674  0.4215
  985MOL0     H32908   1.554   0.745   5.137 -1.7615  0.7240  0.4663
  985MOL0     H32909   1.316   0.790   5.131 -0.1890 -0.8261  0.2404
  985MOL0     H32910   1.068   0.864   5.406 -1.0002  1.0597 -0.8302
  985MOL0     H32911   1.153   0.899   5.262  0.4849  0.4917 -1.8736
  985MOL0     H32912   1.008   0.795   5.116 -0.8069 -1.5577 -0.0899
  985MOL0     H32913   0.891   0.733   5.231 -2.8369  1.3809  1.1202
  985MOL0     H32914   0.944   1.017   5.170 -0.9162 -1.5560 -3.1578
  985MOL0     H32915   0.802   0.921   5.139 -0.9607  2.6032  1.2137
  985MOL0     H32916   0.766   0.894   5.392  1.1322 -2.0616 -1.6919
  985MOL0     H32917   0.895   1.009   5.412 -1.2962 -1.8858  2.1075
  985MOL0     H32918   0.790   1.179   5.292  1.1791 -1.3565  0.9019
  985MOL0     H32919   0.642   1.090   5.263 -2.0697 -0.6302  0.7817
  985MOL0     H32920   0.572   1.114   5.507 -2.5839  0.3966 -4.4023
  985MOL0     H32921   0.732   1.146   5.556  0.6911 -0.2741 -1.1029
  985MOL0     H32922   0.714   1.377   5.437 -1.8001  2.5144  1.3448
  985MOL0     H32923   0.567   1.315   5.362 -0.3628 -1.8653 -0.5808
  985MOL0     H32924   0.546   1.481   5.559 -2.1578 -0.3333 -0.9051
  985MOL0     H32925   0.637   1.366   5.660 -0.2277  0.9559  1.3264
  985MOL0     H32926   0.273   1.416   5.504  1.2527 -1.3246 -1.3027
  985MOL0     H32927   0.021   1.275   5.683  1.5302 -0.8139  1.2878
  985MOL0     H32928   0.043   1.288   5.512  0.3496  0.3311  0.5323
  985MOL0     H32929   0.114   1.018   5.612 -1.1489 -0.1360  2.8361
  985MOL0     H32930   0.019   1.068   5.460 -0.4808 -1.2028  0.0682
  985MOL0     H32931  -0.086   1.081   5.744  1.8964 -3.7569  1.1265
  985MOL0     H32932  -0.113   0.944   5.648 -1.7787  0.0760 -0.0207
  985MOL0     H32933  -0.202   1.232   5.585 -0.1807  0.0747  0.1510
  985MOL0     H32934  -0.309   1.095   5.631 -0.5783 -1.2232 -0.0504
  985MOL0     H32935  -0.421   1.260   5.474 -0.7209 -1.6734  3.1601
  985MOL0     H32936  -0.613   1.348   5.434 -0.9961 -0.5012  0.1818
  985MOL0     H32937  -0.654   1.345   5.261 -3.6010 -1.3817 -0.5518
  985MOL0     H32938  -0.740   1.248   5.389  1.2670 -1.5102  1.1523
  985MOL0     H32939  -0.936   0.993   4.914  1.3788  1.5479  2.1313
  985MOL0     H32940  -1.148   0.889   4.924  1.1900  1.8893 -2.0404
  985MOL0     H32941  -1.350   0.784   5.032 -3.2168 -0.0437 -1.0679
  985MOL0     H32942  -1.269   0.656   4.926 -0.3244  0.0791  0.3829
  985MOL0     H32943  -1.484   0.633   5.139 -2.5627  1.0685 -1.8944
  985MOL0     H32944  -1.493   0.567   4.973  1.5653  1.8623 -1.3968
  985MOL0     H32945  -1.468   0.384   5.156  1.3878  0.9412  4.0469
  985MOL0     H32946  -1.306   0.441   5.182  0.9419 -1.5324 -1.5578
  985MOL0     H32947  -1.402   0.382   4.889 -0.1396 -0.7774  0.2908
  985MOL0     H32948  -1.238   0.398   4.950 -0.9595  0.6987 -0.8738
  985MOL0     H32949  -1.295   0.170   4.892  0.1323  1.4590 -0.2160
  985MOL0     H32950  -1.431   0.174   5.009  0.1071 -1.3483 -1.2074
  985MOL0     H32951  -1.119   0.184   5.054  0.7375  0.7913  0.2156
  985MOL0     H32952  -1.234   0.244   5.179  0.1308 -0.0707  0.3964
  985MOL0     H32953  -1.175  -0.025   5.067  0.3367 -2.1185  1.8603
  985MOL0     H32954  -1.343   0.015   5.137  0.0381  0.2836  1.7823
  985MOL0     H32955  -1.234   0.061   5.349 -1.3324  1.0121 -1.8839
  985MOL0     H32956  -1.066   0.052   5.271  0.8692  0.8895 -0.0445
  985MOL0     H32957  -0.975   0.601   5.207  0.7862 -1.9057 -2.9348
  985MOL0     H32958  -0.757   0.740   5.194  1.0801  2.5464 -0.2598
  985MOL0     H32959  -0.491   0.901   5.124 -0.6803  1.5655 -1.5534
  985MOL0     H32960  -0.284   0.915   5.251 -0.0551 -0.7397 -0.9503
  985MOL0     H32961   1.263   0.556   5.472 -1.0314 -3.2083 -2.4019
  985MOL0     H32962   1.525   0.502   5.482 -0.9151 -0.0201  0.3142
  985MOL0     H32963   1.982   0.866   5.367  1.9230  0.1900  0.7834
  985MOL0     H32964   2.205   0.828   5.371 -1.3280  1.4087  2.4878
  985MOL0     H32965   2.343   0.369   5.324  0.4106  2.2334  1.7102
  985MOL0     H32966   2.316   0.461   5.168 -0.4125  0.3676 -0.3592
  985MOL0     H32967   2.562   0.542   5.197  0.2860 -0.2784  2.5533
  985MOL0     H32968   2.534   0.366   5.150  0.2628 -1.5055  0.4625
  985MOL0     H32969   2.568   0.306   5.391 -0.1897 -0.2573  1.2924
  985MOL0     H32970   2.586   0.479   5.434  1.5890  0.2635 -0.1776
  985MOL0     H32971   2.767   0.364   5.234 -1.4791  3.8111 -1.6043
  985MOL0     H32972   2.797   0.353   5.411  0.3001 -1.4959  0.2888
  985MOL0     H32973   2.902   0.746   5.300 -2.0295  0.9056  3.0989
  985MOL0     H32974   2.119   0.402   5.318  0.3162 -0.0583 -1.1146
  985MOL0     H32975   1.886   0.453   5.299 -2.7544  2.5736 -0.8331
  986MOL0     O32976   5.548   6.484   9.313  0.2014  0.3797 -0.1309
  986MOL0     C32977   5.647   6.442   9.245 -0.0458 -0.1951 -0.0227
  986MOL0     O32978   5.770   6.505   9.246  0.9541 -0.3684  0.5348
  986MOL0     C32979   5.766   6.632   9.309 -0.6450  0.2325 -0.2846
  986MOL0     C32980   5.782   6.748   9.238  0.1189 -0.2816  0.4157
  986MOL0     C32981   5.789   6.873   9.309  0.4574  0.6802  0.5997
  986MOL0     C32982   5.770   6.873   9.450 -0.5908 -0.8599 -0.4089
  986MOL0     O32983   5.780   7.007   9.507 -0.2412  1.0244 -0.0910
  986MOL0     C32984   5.738   7.026   9.641  0.0392  0.0428  0.1481
  986MOL0     C32985   5.696   7.176   9.679 -0.4116  0.7419 -0.2142
  986MOL0     C32986   5.804   7.280   9.646 -0.2280 -0.5786  0.0371
  986MOL0     C32987   5.752   7.431   9.642 -0.1710  0.5063  0.3282
  986MOL0     C32988   5.887   7.519   9.615  0.1643  0.1027 -0.0436
  986MOL0     C32989   5.857   7.664   9.564  0.6355  0.2494  0.1303
  986MOL0     C32990   5.977   7.756   9.609  0.4661 -0.5360  0.1805
  986MOL0     C32991   5.944   7.902   9.600  0.2699 -0.4346 -0.1321
  986MOL0     N32992   5.856   7.952   9.704  0.2173 -0.2280  0.3344
  986MOL0     C32993   5.891   7.957   9.842  0.8983 -0.4426 -0.5553
  986MOL0     C32994   5.768   7.969   9.902 -0.0996 -0.8156 -0.3746
  986MOL0     C32995   5.730   7.998  10.043 -0.0926 -0.6282 -0.1975
  986MOL0     C32996   5.718   8.144  10.074  0.0814 -0.9692 -0.4431
  986MOL0     C32997   5.588   8.216  10.043  0.1454 -0.1828  0.1564
  986MOL0     C32998   5.596   8.360  10.102 -0.8922  0.0972  0.2051
  986MOL0     O32999   5.669   8.438  10.005  0.1963  0.5568  0.1870
  986MOL0     C33000   5.686   8.574  10.018 -0.8060  0.2426  0.5096
  986MOL0     C33001   5.780   8.631   9.936  0.2426  0.6942 -0.5721
  986MOL0     C33002   5.794   8.766   9.939 -0.1495 -0.0530  0.3207
  986MOL0     C33003   5.896   8.823   9.843 -1.0042  1.2515 -0.5881
  986MOL0     C33004   5.710   8.850  10.016  0.8373  0.2747  0.0834
  986MOL0     C33005   5.718   8.999  10.015  0.6646  0.0328  0.6117
  986MOL0     O33006   5.608   9.074  10.008  0.0787  0.6198 -0.2137
  986MOL0     C33007   5.613   9.203  10.051 -0.4081  0.4935  1.7780
  986MOL0     C33008   5.659   9.302   9.966  0.5060 -0.5607 -0.9025
  986MOL0     C33009   5.656   9.435  10.011  0.2298  1.3721 -0.2887
  986MOL0     C33010   5.621   9.457  10.150  0.2805 -0.1018  0.5383
  986MOL0     O33011   5.610   9.586  10.195  0.1393  0.0566 -0.6454
  986MOL0     C33012   5.721   9.616  10.291  0.6422  0.5608 -0.7018
  986MOL0     C33013   5.734   9.761  10.338  0.9948 -1.1804 -0.7687
  986MOL0     C33014   5.828   9.850  10.255  0.5860 -0.0748  0.3918
  986MOL0     C33015   5.765   9.904  10.128 -0.1238 -1.1783  0.2022
  986MOL0     C33016   5.866   9.985  10.052  0.5477  0.9206 -0.9310
  986MOL0     C33017   5.880  10.127  10.107  0.4661 -1.0166 -0.0646
  986MOL0     C33018   6.003  10.210  10.047 -0.3142  0.4630 -0.2724
  986MOL0     C33019   6.043  10.172   9.912 -0.1882  0.1332  0.9941
  986MOL0    Cl33020   6.203  10.223   9.879 -0.0262 -0.1358 -0.1073
  986MOL0     C33021   5.580   9.357  10.232 -0.9041  0.9202  0.3812
  986MOL0     C33022   5.571   9.233  10.176 -0.1482  0.2063 -0.3744
  986MOL0     O33023   5.831   9.049  10.033 -0.0579  0.7606 -0.6715
  986MOL0     C33024   5.612   8.793  10.094  0.5528  0.4694 -0.3283
  986MOL0     C33025   5.597   8.655  10.094  0.1977 -0.9635 -0.6075
  986MOL0     N33026   5.670   7.978   9.801 -0.0280  0.0775  0.2754
  986MOL0     N33027   5.728   7.972   9.685  0.1327 -0.8335  0.0392
  986MOL0     C33028   5.750   6.748   9.520 -0.8253  0.0816 -0.3859
  986MOL0     C33029   5.769   6.633   9.452 -0.3752 -0.0238 -0.5756
  986MOL0     C33030   5.622   6.319   9.162 -0.1320 -0.7079 -0.5863
  986MOL0     C33031   5.737   6.241   9.112 -1.3000 -1.1274 -0.6024
  986MOL0     C33032   5.718   6.137   9.018  0.2568  0.2285 -0.3979
  986MOL0     C33033   5.583   6.099   8.986  0.1118 -0.5168  0.0318
  986MOL0     O33034   5.546   5.993   8.901 -0.1564 -0.0436 -0.8516
  986MOL0     C33035   5.634   5.883   8.863 -0.6362 -0.4720  0.1329
  986MOL0     C33036   5.550   5.755   8.844  0.0397  0.4899  0.0285
  986MOL0     C33037   5.629   5.648   8.753  0.6473 -0.3241 -0.4541
  986MOL0     C33038   5.559   5.513   8.716 -0.1724  0.2665  0.1628
  986MOL0     C33039   5.499   5.450   8.839 -0.3751  0.1847 -1.0945
  986MOL0     C33040   5.465   5.400   8.951  0.6282 -0.0717  0.4503
  986MOL0     C33041   5.468   6.175   9.044  0.2785  0.0415  0.6818
  986MOL0     C33042   5.485   6.285   9.121 -0.1425  0.2684 -1.1088
  986MOL0     H33043   5.794   6.754   9.130 -2.7112  4.9610  0.0214
  986MOL0     H33044   5.813   6.964   9.255 -0.2609  1.2439  1.2124
  986MOL0     H33045   5.651   6.962   9.658 -1.3060  2.0133  1.0588
  986MOL0     H33046   5.822   6.999   9.706 -0.9730  1.1536  2.0058
  986MOL0     H33047   5.606   7.207   9.626 -1.0322 -1.3419 -0.4599
  986MOL0     H33048   5.673   7.174   9.786  0.9895 -1.4428  0.1151
  986MOL0     H33049   5.883   7.265   9.720  1.8851 -0.1817 -1.9976
  986MOL0     H33050   5.841   7.253   9.547 -1.1171 -0.0825 -0.4426
  986MOL0     H33051   5.683   7.442   9.557  1.9480  0.3695 -1.5258
  986MOL0     H33052   5.705   7.461   9.736 -1.9449  3.0116 -1.2262
  986MOL0     H33053   5.940   7.508   9.710 -0.1935 -2.3145 -0.0707
  986MOL0     H33054   5.946   7.476   9.533 -1.5310 -1.0407 -0.7114
  986MOL0     H33055   5.850   7.657   9.455  1.3846 -1.3431  0.1669
  986MOL0     H33056   5.772   7.706   9.620  3.0236  3.8746  1.3946
  986MOL0     H33057   6.015   7.736   9.710 -2.6676 -1.0508  1.3621
  986MOL0     H33058   6.061   7.730   9.544  0.3003  1.0029 -0.6783
  986MOL0     H33059   5.907   7.922   9.499 -3.0103 -1.0544  0.8210
  986MOL0     H33060   6.035   7.963   9.606 -2.1285  3.3571  0.9859
  986MOL0     H33061   5.989   7.943   9.887 -0.5974  1.5656  3.9593
  986MOL0     H33062   5.632   7.953  10.058 -2.0789  3.7081  1.5629
  986MOL0     H33063   5.806   7.949  10.105  0.3051 -1.6171 -1.4207
  986MOL0     H33064   5.799   8.185  10.013  0.2804 -0.1131  0.3769
  986MOL0     H33065   5.745   8.159  10.179 -3.5378  1.8416  0.2826
  986MOL0     H33066   5.503   8.170  10.093 -1.4959  2.7203  0.2798
  986MOL0     H33067   5.578   8.223   9.934 -3.0258  0.3781  0.3882
  986MOL0     H33068   5.658   8.367  10.193  1.6877  1.0288 -1.5110
  986MOL0     H33069   5.497   8.406  10.110 -0.2496  1.9331 -1.5836
  986MOL0     H33070   5.848   8.574   9.874  2.5586  5.0922 -2.5753
  986MOL0     H33071   5.931   8.757   9.763  0.4036  1.3640 -0.1026
  986MOL0     H33072   5.860   8.919   9.805 -1.5344  0.9651 -0.8236
  986MOL0     H33073   5.989   8.837   9.899 -0.6253  2.1015 -1.3989
  986MOL0     H33074   5.684   9.283   9.862 -2.3972  0.2029 -1.8148
  986MOL0     H33075   5.701   9.517   9.958 -0.5755  0.9135 -1.7338
  986MOL0     H33076   5.709   9.553  10.379  1.8075  0.1533 -0.8260
  986MOL0     H33077   5.815   9.596  10.240  0.3833  0.6258 -1.2143
  986MOL0     H33078   5.635   9.807  10.329  1.3749  0.2887  1.6049
  986MOL0     H33079   5.765   9.760  10.443  0.4658  3.0596 -0.3740
  986MOL0     H33080   5.922   9.803  10.224  1.5171  1.4703  0.7616
  986MOL0     H33081   5.850   9.934  10.322  2.2824  0.3885 -0.7039
  986MOL0     H33082   5.728   9.820  10.069 -3.6655 -0.5857  1.3859
  986MOL0     H33083   5.682   9.967  10.161  1.9116  2.6785 -1.3315
  986MOL0     H33084   5.838   9.992   9.947  1.0580  3.1585 -0.9600
  986MOL0     H33085   5.959   9.930  10.066 -0.5951 -0.8276  0.3180
  986MOL0     H33086   5.785  10.178  10.090 -0.0199 -1.5465  1.0088
  986MOL0     H33087   5.896  10.130  10.215  0.9290 -2.6828 -0.0566
  986MOL0     H33088   6.101  10.189  10.091  0.0079  0.0654 -1.1580
  986MOL0     H33089   5.990  10.317  10.062  1.9117  0.4672  2.3925
  986MOL0     H33090   5.972  10.223   9.846 -0.8399  1.8068  2.8918
  986MOL0     H33091   6.033  10.064   9.897  0.9891 -0.2016  2.4236
  986MOL0     H33092   5.550   9.363  10.336 -1.2665 -0.7411  0.4018
  986MOL0     H33093   5.548   9.158  10.251  1.9007  0.1360  0.2418
  986MOL0     H33094   5.532   8.841  10.149 -0.1653 -0.1646 -0.7931
  986MOL0     H33095   5.519   8.612  10.157 -3.6527  3.3850 -1.8569
  986MOL0     H33096   5.746   6.749   9.629  0.7990  0.9724 -0.3097
  986MOL0     H33097   5.781   6.539   9.504 -0.7631 -0.6558 -1.5920
  986MOL0     H33098   5.838   6.273   9.134 -1.0694 -2.1504 -0.1092
  986MOL0     H33099   5.804   6.083   8.980 -0.4803  0.4012 -2.4583
  986MOL0     H33100   5.662   5.917   8.763  0.1777  1.4285  0.9711
  986MOL0     H33101   5.724   5.876   8.924  0.3326  3.3761 -0.5981
  986MOL0     H33102   5.455   5.780   8.796  0.1277 -0.5520 -0.7092
  986MOL0     H33103   5.525   5.716   8.943 -3.6720  1.1995 -0.5031
  986MOL0     H33104   5.711   5.619   8.818 -1.1681  1.3340  2.8277
  986MOL0     H33105   5.662   5.692   8.659  1.4088 -1.0300 -0.5235
  986MOL0     H33106   5.623   5.438   8.668 -3.1406 -0.9869 -2.0703
  986MOL0     H33107   5.483   5.527   8.639 -0.7580 -1.0050  0.4882
  986MOL0     H33108   5.442   5.363   9.049  1.6032  1.3583  1.2675
  986MOL0     H33109   5.366   6.144   9.027  0.9016 -2.9172  1.7967
  986MOL0     H33110   5.404   6.341   9.168 -1.5848 -1.4600 -1.4279
  987MOL0     O33111   3.336  10.166   2.202  0.8636  0.4658 -0.1133
  987MOL0     C33112   3.240  10.084   2.183 -1.1254  0.3349  0.0825
  987MOL0     O33113   3.246   9.969   2.095 -0.0180  0.2375 -0.8191
  987MOL0     C33114   3.361   9.942   2.022 -0.6804 -1.1946 -0.4229
  987MOL0     C33115   3.346   9.889   1.894  0.0983  0.2307  0.0692
  987MOL0     C33116   3.449   9.844   1.818 -0.8217 -0.4042  0.0570
  987MOL0     C33117   3.584   9.853   1.869  0.4432  0.7324  0.3971
  987MOL0     O33118   3.694   9.823   1.797  0.3732  0.8406 -0.5688
  987MOL0     C33119   3.695   9.784   1.657 -0.3414 -0.6956  0.0053
  987MOL0     C33120   3.834   9.775   1.606  0.4149  1.2976  0.6489
  987MOL0     C33121   3.904   9.911   1.601  0.7496  0.1638  0.0825
  987MOL0     C33122   4.030   9.891   1.515 -0.8697  1.0622 -0.0932
  987MOL0     C33123   4.101  10.026   1.512  0.1081  0.7359 -0.0074
  987MOL0     C33124   4.219  10.006   1.419 -0.1465 -0.3377 -0.1242
  987MOL0     C33125   4.351  10.072   1.473  0.1154  0.0612 -0.7247
  987MOL0     C33126   4.472  10.060   1.379 -0.7024  0.4818 -0.3310
  987MOL0     N33127   4.461  10.151   1.261  0.0192 -0.6298 -0.0748
  987MOL0     C33128   4.532  10.265   1.242 -0.1994 -0.4711  1.3361
  987MOL0     C33129   4.489  10.307   1.119 -0.2987 -0.5673 -0.0921
  987MOL0     C33130   4.532  10.436   1.046 -0.3756  0.4666  0.1352
  987MOL0     C33131   4.576  10.545   1.143  0.3866 -0.8687 -0.4943
  987MOL0     C33132   4.622  10.685   1.080 -0.0133 -0.0645 -1.1442
  987MOL0     C33133   4.760  10.677   1.033 -1.2027  0.2704  0.3298
  987MOL0     O33134   4.844  10.724   1.140  0.5761 -0.2748  0.3190
  987MOL0     C33135   4.958  10.658   1.174 -0.5304 -0.0586  0.9124
  987MOL0     C33136   5.052  10.731   1.243  0.0528 -0.1043  0.2205
  987MOL0     C33137   5.180  10.690   1.282 -0.1982  0.6218  0.5587
  987MOL0     C33138   5.275  10.800   1.343  0.1766  0.6330 -0.5244
  987MOL0     C33139   5.211  10.553   1.258  0.0381  0.4107  0.1167
  987MOL0     C33140   5.349  10.491   1.277  0.6538 -0.5467  0.4628
  987MOL0     O33141   5.467  10.566   1.295  0.3872  0.0208  0.3818
  987MOL0     C33142   5.580  10.489   1.301 -0.4885 -0.9920 -0.1719
  987MOL0     C33143   5.658  10.507   1.422  0.3774 -0.3615 -0.1012
  987MOL0     C33144   5.773  10.417   1.435  1.1709 -0.3055 -0.2164
  987MOL0     C33145   5.815  10.334   1.326 -0.7415  0.1105 -0.0154
  987MOL0     O33146   5.932  10.261   1.334 -0.4385  0.3173 -0.0303
  987MOL0     C33147   5.992  10.223   1.462  0.1897 -0.0890  0.3256
  987MOL0     C33148   6.125  10.149   1.418 -0.6245  0.1950  1.0696
  987MOL0     C33149   6.199  10.095   1.539 -0.6339  0.4623 -0.4240
  987MOL0     C33150   6.309   9.995   1.485  0.6314 -0.6783  0.2762
  987MOL0     C33151   6.416  10.062   1.383 -0.5105 -0.8175 -1.0646
  987MOL0     C33152   6.510   9.968   1.299 -0.1069  0.1615  0.0024
  987MOL0     C33153   6.623  10.050   1.227 -0.0794  0.0433 -0.1935
  987MOL0     C33154   6.732  10.092   1.322 -1.6964 -0.0591  0.5621
  987MOL0    Cl33155   6.874  10.156   1.227 -0.2102  0.5929  0.0237
  987MOL0     C33156   5.738  10.333   1.211  0.0273  0.1629  0.3445
  987MOL0     C33157   5.622  10.417   1.196 -0.0526  0.5121 -0.3851
  987MOL0     O33158   5.343  10.371   1.266  0.3523  0.2844 -0.7225
  987MOL0     C33159   5.116  10.472   1.192  0.5718  0.7211 -0.1976
  987MOL0     C33160   4.988  10.524   1.153  0.3081  0.9132  0.7541
  987MOL0     N33161   4.397  10.224   1.059  0.2267  0.7121  0.1204
  987MOL0     N33162   4.394  10.121   1.142 -0.2388  0.1030 -0.4146
  987MOL0     C33163   3.596   9.906   1.999 -0.1731  0.3232 -0.0595
  987MOL0     C33164   3.492   9.946   2.080 -0.0923 -0.1987  0.9405
  987MOL0     C33165   3.111  10.102   2.249 -0.6301  0.5095 -0.0300
  987MOL0     C33166   3.010  10.015   2.220  0.7612 -0.2015 -0.8696
  987MOL0     C33167   2.895  10.023   2.301  0.7732 -0.1231 -0.9177
  987MOL0     C33168   2.863  10.118   2.394  0.7233 -0.8191 -0.3140
  987MOL0     O33169   2.743  10.128   2.474 -0.8956 -0.5887  0.2164
  987MOL0     C33170   2.654  10.023   2.462  0.1815 -0.1893  0.0047
  987MOL0     C33171   2.534  10.032   2.555 -1.1906 -0.2440 -0.0891
  987MOL0     C33172   2.591  10.035   2.696 -0.1079  1.1727 -0.2964
  987MOL0     C33173   2.607  10.174   2.756 -0.2485 -0.7383 -0.4222
  987MOL0     C33174   2.672  10.174   2.885  0.3371 -0.5334 -0.6534
  987MOL0     C33175   2.717  10.150   2.994  0.0096  0.4900 -1.1775
  987MOL0     C33176   2.966  10.211   2.420 -0.0819  0.3939  0.9217
  987MOL0     C33177   3.084  10.202   2.344 -0.5609  0.3381 -1.3768
  987MOL0     H33178   3.249   9.890   1.845  0.3978  3.2920 -0.7038
  987MOL0     H33179   3.432   9.792   1.724 -0.8457  2.5516 -1.6994
  987MOL0     H33180   3.664   9.679   1.648 -0.9721 -0.4599 -0.6852
  987MOL0     H33181   3.635   9.851   1.594 -0.2270  0.9583  1.5712
  987MOL0     H33182   3.890   9.709   1.673  2.9322  1.1654 -1.4289
  987MOL0     H33183   3.849   9.725   1.510  1.9997 -0.7327  1.8738
  987MOL0     H33184   3.839   9.986   1.556  1.5396 -0.3637 -2.0645
  987MOL0     H33185   3.926   9.938   1.704  0.0010  0.2484  0.2214
  987MOL0     H33186   4.101   9.817   1.553 -1.3833  1.2367  1.2588
  987MOL0     H33187   4.002   9.848   1.418 -0.0116 -0.8674  0.4591
  987MOL0     H33188   4.036  10.108   1.481  0.2267  0.8044 -0.0743
  987MOL0     H33189   4.134  10.046   1.614  0.0464 -2.1028  0.6601
  987MOL0     H33190   4.237   9.905   1.379  2.4892  0.8656 -2.3019
  987MOL0     H33191   4.184  10.041   1.322  1.6085  0.2546 -0.5870
  987MOL0     H33192   4.319  10.175   1.489 -1.0158 -0.6171  2.0106
  987MOL0     H33193   4.365  10.033   1.574 -1.2329  0.5551 -0.3265
  987MOL0     H33194   4.486   9.957   1.344 -0.5195  0.9210 -1.6393
  987MOL0     H33195   4.558  10.096   1.435 -1.3482  2.6975 -0.6718
  987MOL0     H33196   4.594  10.308   1.320 -3.8936  1.5854  3.4225
  987MOL0     H33197   4.606  10.420   0.966 -1.2009  1.7634 -0.9316
  987MOL0     H33198   4.447  10.467   0.985  0.5010  2.1314 -0.2857
  987MOL0     H33199   4.656  10.504   1.206  2.3823 -0.3589 -2.5773
  987MOL0     H33200   4.492  10.567   1.210  1.7199 -2.0067  1.6967
  987MOL0     H33201   4.600  10.774   1.139 -0.8529 -0.0846 -1.4142
  987MOL0     H33202   4.547  10.704   1.002 -2.1286 -1.2392  0.5048
  987MOL0     H33203   4.767  10.746   0.948 -1.0579 -0.6157 -0.3933
  987MOL0     H33204   4.786  10.581   0.988 -0.9018  0.1598  0.7410
  987MOL0     H33205   5.018  10.831   1.265  0.6343 -0.0837  1.0631
  987MOL0     H33206   5.239  10.902   1.326 -0.2527  0.4135 -0.9624
  987MOL0     H33207   5.268  10.783   1.451 -1.7342 -0.4157 -0.7749
  987MOL0     H33208   5.381  10.788   1.319  0.6006 -0.2427  1.5979
  987MOL0     H33209   5.623  10.574   1.500 -0.3359 -2.8321  1.8314
  987MOL0     H33210   5.826  10.414   1.529  0.7219 -2.1322  0.0293
  987MOL0     H33211   6.006  10.303   1.535 -4.5283 -1.4771  3.1775
  987MOL0     H33212   5.928  10.155   1.518  1.7645 -3.9029 -2.1139
  987MOL0     H33213   6.099  10.069   1.348 -2.7537  2.6945 -1.2053
  987MOL0     H33214   6.189  10.222   1.369 -1.5489 -0.1437 -0.6993
  987MOL0     H33215   6.139  10.033   1.606 -0.9381 -0.0398 -1.1462
  987MOL0     H33216   6.241  10.180   1.594  1.0819  0.2085 -1.2772
  987MOL0     H33217   6.366   9.951   1.566  2.7175  0.1908 -0.6518
  987MOL0     H33218   6.271   9.914   1.422  0.7550 -0.5372  0.0159
  987MOL0     H33219   6.488  10.113   1.447 -0.9173 -1.5481 -0.0033
  987MOL0     H33220   6.368  10.139   1.322  0.6488  0.6324 -0.2061
  987MOL0     H33221   6.552   9.893   1.367  0.3079 -0.5100 -0.9689
  987MOL0     H33222   6.457   9.911   1.222 -0.6900 -0.0952  0.5817
  987MOL0     H33223   6.579  10.137   1.179 -0.5020  1.1979  2.1255
  987MOL0     H33224   6.667   9.995   1.143 -0.3908 -1.8985  0.8540
  987MOL0     H33225   6.764  10.008   1.385 -1.5350 -0.9635 -0.6789
  987MOL0     H33226   6.701  10.174   1.388 -3.8591  0.5248 -1.0720
  987MOL0     H33227   5.767  10.265   1.131 -1.2504 -1.4376  1.1635
  987MOL0     H33228   5.567  10.402   1.104  0.7123 -2.4146 -0.4900
  987MOL0     H33229   5.137  10.368   1.170  0.2932  0.8136 -0.9156
  987MOL0     H33230   4.919  10.453   1.108  2.2393 -0.7146  0.2312
  987MOL0     H33231   3.690   9.906   2.054  0.6472 -2.0202 -1.3365
  987MOL0     H33232   3.511   9.975   2.183  1.2479  1.2013  0.3432
  987MOL0     H33233   3.012   9.953   2.131  0.0258 -0.9570 -0.3780
  987MOL0     H33234   2.808   9.964   2.273  1.8504 -1.6575 -1.1612
  987MOL0     H33235   2.608  10.014   2.363  0.4088 -0.7601 -0.0548
  987MOL0     H33236   2.697   9.925   2.483 -0.4256 -0.9538 -2.0815
  987MOL0     H33237   2.478   9.939   2.542 -0.0187 -1.3014  1.9084
  987MOL0     H33238   2.474  10.122   2.542 -1.0591 -0.0529  0.5679
  987MOL0     H33239   2.680   9.972   2.706 -0.6416  0.2437 -1.1270
  987MOL0     H33240   2.519   9.984   2.761  0.3586  2.1953  1.0536
  987MOL0     H33241   2.508  10.216   2.778  0.5561  0.9494  0.2195
  987MOL0     H33242   2.662  10.236   2.685  2.6704 -1.0423  1.3590
  987MOL0     H33243   2.747  10.106   3.087  0.2780 -3.7882 -3.0762
  987MOL0     H33244   2.968  10.288   2.496  1.4525  0.1633  1.1548
  987MOL0     H33245   3.165  10.272   2.360  1.1387 -1.5347 -1.3559
  988MOL0     O33246   1.660   5.274   5.874 -0.5591 -0.1599  0.0739
  988MOL0     C33247   1.737   5.183   5.855 -0.2122  0.4323  0.1373
  988MOL0     O33248   1.867   5.190   5.829 -0.1620  0.1413 -0.1257
  988MOL0     C33249   1.923   5.309   5.785 -1.4629  0.2044 -0.0455
  988MOL0     C33250   2.060   5.325   5.801 -0.3426  0.4136 -0.9262
  988MOL0     C33251   2.122   5.434   5.734 -0.9792  0.4448  0.1231
  988MOL0     C33252   2.054   5.538   5.678  1.6898  0.7604  0.1405
  988MOL0     O33253   2.126   5.641   5.639 -0.2536 -0.1655 -0.2870
  988MOL0     C33254   2.062   5.740   5.547 -0.3886 -0.0354  0.3703
  988MOL0     C33255   2.153   5.861   5.516  0.1062  0.4940 -0.4971
  988MOL0     C33256   2.145   5.927   5.372  0.2321 -0.1177 -0.7317
  988MOL0     C33257   2.010   5.927   5.315  0.6243 -0.4561  0.3392
  988MOL0     C33258   1.996   6.005   5.186  0.3788 -0.4349 -0.2339
  988MOL0     C33259   1.863   5.983   5.122  0.2611 -0.7877 -0.3324
  988MOL0     C33260   1.853   6.078   5.006 -0.6177  0.1979 -0.0673
  988MOL0     C33261   1.722   6.061   4.939 -0.3613  0.1655 -0.4496
  988MOL0     N33262   1.692   6.142   4.818 -0.7204  0.1101  0.1698
  988MOL0     C33263   1.734   6.110   4.694 -0.5788  0.3575  0.5470
  988MOL0     C33264   1.675   6.206   4.615  1.0812  0.1715  0.1462
  988MOL0     C33265   1.650   6.222   4.464 -0.0488 -0.0993  0.0289
  988MOL0     C33266   1.667   6.094   4.380 -0.3897  0.7751 -0.5436
  988MOL0     C33267   1.665   6.119   4.227  0.2685 -0.4104  0.4764
  988MOL0     C33268   1.533   6.169   4.169  0.5007  0.6188  0.3800
  988MOL0     O33269   1.555   6.215   4.031  0.1150  0.5449  0.5813
  988MOL0     C33270   1.436   6.203   3.968  0.6591  0.4003 -0.2671
  988MOL0     C33271   1.329   6.281   4.007 -0.1546  0.3138 -0.4135
  988MOL0     C33272   1.208   6.299   3.937 -0.3605  0.4896 -0.4603
  988MOL0     C33273   1.097   6.366   4.009 -0.4573 -0.0435 -1.5918
  988MOL0     C33274   1.191   6.219   3.815 -0.0527 -0.2550 -0.8688
  988MOL0     C33275   1.076   6.231   3.725 -0.4861 -0.1661  0.2304
  988MOL0     O33276   0.988   6.329   3.747  0.4353 -0.6846 -0.1686
  988MOL0     C33277   0.886   6.342   3.657  0.5084  0.3900  0.0905
  988MOL0     C33278   0.756   6.357   3.719 -0.9072  0.0574  0.2339
  988MOL0     C33279   0.647   6.402   3.640  0.5440 -0.5022  0.3531
  988MOL0     C33280   0.658   6.429   3.507 -0.5692  0.0748 -0.0123
  988MOL0     O33281   0.553   6.492   3.446 -0.8757  0.6812  0.0968
  988MOL0     C33282   0.586   6.599   3.357 -1.0692 -0.0507  0.3352
  988MOL0     C33283   0.457   6.680   3.334 -0.0628  0.5677  0.6021
  988MOL0     C33284   0.411   6.676   3.188 -0.7186 -0.0246 -0.6271
  988MOL0     C33285   0.286   6.760   3.162  0.9309 -0.3067  0.1471
  988MOL0     C33286   0.236   6.747   3.021 -0.1745  0.4011  0.4270
  988MOL0     C33287   0.111   6.837   3.006  0.3920  0.0700  0.4669
  988MOL0     C33288   0.071   6.855   2.856 -0.6790 -0.3387  0.1835
  988MOL0     C33289  -0.050   6.782   2.809  0.5482 -0.3351  0.2385
  988MOL0    Cl33290  -0.199   6.837   2.880 -0.4778  0.0247  0.1963
  988MOL0     C33291   0.788   6.419   3.441  0.2668  0.1859 -0.3195
  988MOL0     C33292   0.903   6.375   3.510  1.1366  0.7612 -0.7541
  988MOL0     O33293   1.072   6.147   3.631 -0.2132  0.0476 -0.0762
  988MOL0     C33294   1.303   6.146   3.778 -0.2508  0.2300  0.1087
  988MOL0     C33295   1.418   6.129   3.859 -0.2099 -0.6465  0.5547
  988MOL0     N33296   1.599   6.288   4.701  0.7788  0.2186  0.9784
  988MOL0     N33297   1.609   6.247   4.825  0.0263  1.0471 -0.2061
  988MOL0     C33298   1.914   5.518   5.659  0.1131  0.2863 -0.0448
  988MOL0     C33299   1.849   5.398   5.706  0.2484 -0.6022 -0.2266
  988MOL0     C33300   1.685   5.058   5.861  0.6113 -0.1406 -0.7494
  988MOL0     C33301   1.567   5.033   5.787 -0.3809  0.8294  0.5279
  988MOL0     C33302   1.508   4.902   5.794  0.3667  0.1307  0.3963
  988MOL0     C33303   1.566   4.804   5.872 -1.0940 -0.4000  0.0332
  988MOL0     O33304   1.492   4.695   5.879  1.0002  0.1867 -0.4863
  988MOL0     C33305   1.526   4.579   5.958  0.0481 -0.5635  0.1321
  988MOL0     C33306   1.496   4.595   6.109 -0.9903  0.6878  0.9195
  988MOL0     C33307   1.483   4.444   6.169 -0.0364 -0.2255 -0.0439
  988MOL0     C33308   1.389   4.449   6.289 -0.6148 -0.0046  0.4330
  988MOL0     C33309   1.382   4.299   6.322  0.1378  0.1953 -0.8936
  988MOL0     C33310   1.400   4.187   6.369  0.4876 -0.6210  0.2423
  988MOL0     C33311   1.687   4.826   5.933  0.0003  0.2990 -0.2187
  988MOL0     C33312   1.749   4.955   5.933 -0.3743  0.9186 -0.9548
  988MOL0     H33313   2.109   5.240   5.848  0.2576 -0.3159 -2.7735
  988MOL0     H33314   2.227   5.456   5.723 -0.9598 -0.2795 -1.4126
  988MOL0     H33315   2.048   5.688   5.452 -1.6767  0.0526  0.5020
  988MOL0     H33316   1.967   5.779   5.584 -0.2537 -1.2089  2.0919
  988MOL0     H33317   2.140   5.935   5.595 -3.9158 -0.6615  0.1125
  988MOL0     H33318   2.254   5.821   5.531 -0.5472 -1.2977 -0.5767
  988MOL0     H33319   2.173   6.032   5.384 -1.1356  0.3820 -1.6764
  988MOL0     H33320   2.214   5.878   5.303  0.6760 -2.8213  1.4240
  988MOL0     H33321   1.981   5.822   5.308  2.3149 -0.9895  0.9290
  988MOL0     H33322   1.938   5.968   5.387 -0.3635  0.5628 -1.1728
  988MOL0     H33323   2.011   6.108   5.219 -2.7802 -0.9775  3.6432
  988MOL0     H33324   2.072   5.977   5.112  0.1925 -2.7499  0.3699
  988MOL0     H33325   1.853   5.876   5.098 -1.1289 -0.2707 -2.3705
  988MOL0     H33326   1.794   6.008   5.204  1.4989 -1.1020  0.8317
  988MOL0     H33327   1.881   6.174   5.050  1.1734 -0.1530 -0.3398
  988MOL0     H33328   1.927   6.052   4.930  1.2608 -0.0520  1.7628
  988MOL0     H33329   1.643   6.082   5.012  0.1122 -2.3648  0.8853
  988MOL0     H33330   1.726   5.960   4.899  2.8582  1.5434 -4.2153
  988MOL0     H33331   1.791   6.024   4.662  2.2864  0.9146  3.5693
  988MOL0     H33332   1.554   6.270   4.446  0.8368  1.6232 -0.3012
  988MOL0     H33333   1.726   6.295   4.433  2.2942 -1.8379  1.3043
  988MOL0     H33334   1.581   6.027   4.394  0.4464  0.1248  1.9856
  988MOL0     H33335   1.764   6.050   4.406 -0.5948 -0.9758 -2.4256
  988MOL0     H33336   1.714   6.032   4.181  1.1597  0.1414  0.3475
  988MOL0     H33337   1.735   6.203   4.215  1.6213 -1.3855  1.1628
  988MOL0     H33338   1.494   6.246   4.236  1.8375  1.5869  0.0780
  988MOL0     H33339   1.462   6.087   4.185 -2.5264  3.2534  1.7191
  988MOL0     H33340   1.347   6.354   4.086 -2.2738  0.5147 -0.0696
  988MOL0     H33341   1.015   6.295   4.024 -1.6119  1.5958  0.3867
  988MOL0     H33342   1.142   6.385   4.107  0.2181 -0.0557 -1.8945
  988MOL0     H33343   1.054   6.457   3.967 -0.4839  0.7536  0.0704
  988MOL0     H33344   0.739   6.342   3.825  1.7378  1.1557  0.9143
  988MOL0     H33345   0.554   6.409   3.695  0.1014 -2.4548 -0.0796
  988MOL0     H33346   0.667   6.659   3.400  0.0559 -2.6365  2.0953
  988MOL0     H33347   0.621   6.560   3.261 -1.7894 -0.5279  0.2599
  988MOL0     H33348   0.376   6.639   3.395 -1.3971  0.1142 -1.3688
  988MOL0     H33349   0.498   6.776   3.365  3.3396 -0.6992  0.4947
  988MOL0     H33350   0.399   6.571   3.160  0.0687 -1.0170  2.3766
  988MOL0     H33351   0.492   6.717   3.127  0.2167  0.4935  0.9124
  988MOL0     H33352   0.202   6.737   3.228  1.6793 -1.0463  0.8634
  988MOL0     H33353   0.316   6.865   3.175 -1.0714  0.6997 -2.4883
  988MOL0     H33354   0.219   6.643   2.991 -0.0082  0.0408  1.5292
  988MOL0     H33355   0.308   6.780   2.946  0.2556 -2.4260 -0.5230
  988MOL0     H33356   0.035   6.779   3.059 -2.0873  1.6653 -1.1340
  988MOL0     H33357   0.121   6.929   3.065  0.1771 -0.8688  2.0178
  988MOL0     H33358   0.155   6.827   2.792 -0.1900  0.3184  0.5197
  988MOL0     H33359   0.061   6.964   2.849 -1.4228 -0.3137  1.4827
  988MOL0     H33360  -0.040   6.673   2.817 -2.4032 -1.1083 -3.6088
  988MOL0     H33361  -0.054   6.783   2.700 -1.1919 -1.2237  0.2610
  988MOL0     H33362   0.803   6.456   3.340 -4.0603 -0.0213 -1.2360
  988MOL0     H33363   1.000   6.361   3.465  1.2059 -1.8375  0.0310
  988MOL0     H33364   1.294   6.087   3.687 -0.9846 -1.2168  1.0771
  988MOL0     H33365   1.498   6.065   3.824 -0.3278 -0.9942  0.8992
  988MOL0     H33366   1.846   5.591   5.617 -2.4029 -1.5502  0.5614
  988MOL0     H33367   1.747   5.384   5.671 -0.3249  0.3263  0.9974
  988MOL0     H33368   1.521   5.114   5.731  1.6941  0.5244 -1.7660
  988MOL0     H33369   1.409   4.889   5.751  2.2043  0.0049 -4.3696
  988MOL0     H33370   1.463   4.497   5.922  0.4314 -0.9650  0.3549
  988MOL0     H33371   1.631   4.549   5.951  0.3787 -0.2013  2.5325
  988MOL0     H33372   1.404   4.654   6.115  0.3516  3.5012 -2.7344
  988MOL0     H33373   1.575   4.645   6.165 -1.8607  2.4759  0.6210
  988MOL0     H33374   1.581   4.406   6.197  0.3343 -1.7948 -3.0387
  988MOL0     H33375   1.445   4.382   6.087  0.2979  1.4892 -1.5788
  988MOL0     H33376   1.294   4.477   6.242  0.2488 -2.0407 -2.8740
  988MOL0     H33377   1.412   4.516   6.372 -1.5512 -0.5645  1.1600
  988MOL0     H33378   1.425   4.090   6.406 -0.4859 -0.7973  0.4664
  988MOL0     H33379   1.723   4.751   6.003 -0.7603 -1.0937 -1.2663
  988MOL0     H33380   1.845   4.976   5.978 -1.1498 -0.4245  1.5511
  989MOL0     O33381  11.193   6.377   0.441 -0.2972  0.1979  0.4288
  989MOL0     C33382  11.224   6.443   0.341  0.6730  0.4181 -0.0268
  989MOL0     O33383  11.341   6.513   0.321  0.1909 -0.5012 -0.5409
  989MOL0     C33384  11.446   6.509   0.417 -0.0435 -0.2042  0.1050
  989MOL0     C33385  11.553   6.422   0.382 -0.7061  0.0829 -0.2575
  989MOL0     C33386  11.681   6.436   0.455 -0.4041 -0.0843 -0.8942
  989MOL0     C33387  11.702   6.537   0.551 -0.2936  0.5919  0.2150
  989MOL0     O33388  11.831   6.552   0.599 -0.1418 -0.5428  0.1455
  989MOL0     C33389  11.847   6.581   0.737 -0.0150  0.3312 -0.6240
  989MOL0     C33390  11.983   6.647   0.762 -0.2831 -0.0245  0.0532
  989MOL0     C33391  12.022   6.777   0.688 -0.3150  0.1756  0.0239
  989MOL0     C33392  12.033   6.899   0.785 -0.3803  0.3128  0.3948
  989MOL0     C33393  12.174   6.901   0.854  0.2403  0.7813 -1.2770
  989MOL0     C33394  12.202   7.033   0.929 -1.2151 -0.0345  0.1341
  989MOL0     C33395  12.317   7.043   1.033 -0.5226  0.5243  0.0295
  989MOL0     C33396  12.445   6.960   0.997 -0.3121  0.0415 -0.0379
  989MOL0     N33397  12.516   7.016   0.879  0.0544 -0.4360 -0.9312
  989MOL0     C33398  12.541   6.969   0.753  0.9026  0.1865 -0.8296
  989MOL0     C33399  12.611   7.066   0.692  0.1360  0.0799  0.8349
  989MOL0     C33400  12.652   7.059   0.547  0.2694 -0.5271 -0.2460
  989MOL0     C33401  12.804   7.055   0.537 -0.4529 -0.5291  1.3114
  989MOL0     C33402  12.860   7.037   0.393 -0.4073  0.5066 -0.0667
  989MOL0     C33403  12.878   7.164   0.307 -0.1112 -0.1417  0.4415
  989MOL0     O33404  12.979   7.156   0.203  0.7318  0.0438  0.3007
  989MOL0     C33405  12.970   7.069   0.093 -0.1158  0.0513 -0.5634
  989MOL0     C33406  12.861   6.985   0.056 -0.3252 -0.1190  0.3755
  989MOL0     C33407  12.850   6.932  -0.073 -0.7498 -0.0934 -0.6790
  989MOL0     C33408  12.727   6.844  -0.098 -0.3129 -1.0245 -0.1843
  989MOL0     C33409  12.960   6.944  -0.167  0.7251 -1.0003  0.2986
  989MOL0     C33410  12.957   6.863  -0.297 -0.1285 -0.5231 -0.9954
  989MOL0     O33411  12.839   6.862  -0.364 -0.2191 -0.3609  0.2966
  989MOL0     C33412  12.814   6.800  -0.487 -0.2769  0.3889 -0.2462
  989MOL0     C33413  12.685   6.832  -0.535  0.4161 -0.3107  0.1646
  989MOL0     C33414  12.642   6.791  -0.661 -0.9491 -1.1693  0.3772
  989MOL0     C33415  12.727   6.705  -0.732 -0.6878 -0.5787  0.0296
  989MOL0     O33416  12.671   6.670  -0.859 -0.7770 -0.1771  0.2137
  989MOL0     C33417  12.759   6.611  -0.960  0.6906  0.0807 -0.5135
  989MOL0     C33418  12.697   6.616  -1.103  0.0252  0.1749 -0.1159
  989MOL0     C33419  12.704   6.764  -1.157  0.0765  0.1229 -0.8318
  989MOL0     C33420  12.660   6.771  -1.295  0.0945  0.2681  0.0250
  989MOL0     C33421  12.697   6.901  -1.370  0.5048  0.1922 -0.3079
  989MOL0     C33422  12.725   6.884  -1.518 -0.5497 -0.6567 -0.5779
  989MOL0     C33423  12.737   7.018  -1.595 -0.1935  0.1714 -0.3104
  989MOL0     C33424  12.760   7.005  -1.747  0.4807  0.7768  0.4978
  989MOL0    Cl33425  12.604   6.968  -1.835 -0.1254  0.2009  0.4488
  989MOL0     C33426  12.846   6.655  -0.681 -0.0812  0.3413 -0.1934
  989MOL0     C33427  12.896   6.709  -0.563 -0.3407 -0.5587 -0.7111
  989MOL0     O33428  13.060   6.809  -0.330 -1.0541  0.2774 -0.2621
  989MOL0     C33429  13.073   7.016  -0.124 -0.0608  0.5247 -0.0721
  989MOL0     C33430  13.079   7.076   0.002  0.5510 -0.6196  0.6301
  989MOL0     N33431  12.625   7.172   0.782  0.2061 -0.1660  0.4570
  989MOL0     N33432  12.579   7.136   0.892 -0.6145  0.0561 -0.4333
  989MOL0     C33433  11.593   6.615   0.585 -0.0863 -0.9464 -0.7122
  989MOL0     C33434  11.463   6.605   0.515 -0.0136 -0.1502  0.6146
  989MOL0     C33435  11.123   6.460   0.235  0.0983 -0.3953 -0.7687
  989MOL0     C33436  11.150   6.547   0.119  0.3406  0.1081 -0.0569
  989MOL0     C33437  11.072   6.552   0.009 -0.2768  0.0756 -0.5666
  989MOL0     C33438  10.960   6.472   0.003 -0.0626 -0.1920 -0.0282
  989MOL0     O33439  10.877   6.495  -0.106 -0.2048 -0.3817 -0.3121
  989MOL0     C33440  10.762   6.401  -0.124 -0.1156 -0.6780  0.3117
  989MOL0     C33441  10.716   6.438  -0.273  0.7634 -0.0477 -0.4411
  989MOL0     C33442  10.578   6.374  -0.303 -0.5441 -0.6064 -0.1882
  989MOL0     C33443  10.556   6.390  -0.460  0.1167 -0.5909  0.4356
  989MOL0     C33444  10.416   6.389  -0.490 -0.3615 -0.1345  0.7675
  989MOL0     C33445  10.299   6.400  -0.505  0.0430  0.5356  0.1888
  989MOL0     C33446  10.926   6.394   0.114  0.2544  0.0728  0.5579
  989MOL0     C33447  11.004   6.391   0.240  0.1388  0.2622 -0.1812
  989MOL0     H33448  11.550   6.331   0.323  3.9002 -0.4839  0.0627
  989MOL0     H33449  11.770   6.377   0.437 -1.4543 -2.7774  1.8854
  989MOL0     H33450  11.765   6.646   0.769 -0.2333 -1.0466  1.8148
  989MOL0     H33451  11.854   6.487   0.793 -0.3424  0.7985  0.2147
  989MOL0     H33452  12.006   6.657   0.869 -0.0632 -0.8993  0.0927
  989MOL0     H33453  12.058   6.571   0.737  0.8003  1.3561 -1.0631
  989MOL0     H33454  12.110   6.776   0.624 -0.6199  3.1399 -0.5920
  989MOL0     H33455  11.942   6.790   0.615 -1.6900 -1.7069  1.1046
  989MOL0     H33456  12.013   6.984   0.720 -2.9192 -1.8066 -1.8183
  989MOL0     H33457  11.949   6.888   0.854 -0.6996 -3.6517 -0.3965
  989MOL0     H33458  12.189   6.815   0.921 -1.3728  0.4706 -1.2912
  989MOL0     H33459  12.251   6.887   0.778 -1.3039 -2.4032 -2.4007
  989MOL0     H33460  12.205   7.105   0.846 -0.9307 -0.5586 -0.3130
  989MOL0     H33461  12.112   7.060   0.985 -0.2133  1.3867  1.1390
  989MOL0     H33462  12.328   7.150   1.052 -3.0687  1.1374 -1.4186
  989MOL0     H33463  12.275   6.989   1.118 -0.3075 -0.8252 -0.6958
  989MOL0     H33464  12.418   6.857   0.970  1.4477 -0.8285  1.3105
  989MOL0     H33465  12.509   6.972   1.084  0.6444  3.0527 -1.0274
  989MOL0     H33466  12.510   6.873   0.713 -1.7811 -0.0410  1.4688
  989MOL0     H33467  12.617   6.971   0.493 -0.6924 -1.5032  1.8760
  989MOL0     H33468  12.595   7.131   0.488 -2.4094 -2.2792  0.0359
  989MOL0     H33469  12.830   6.963   0.590  1.5911 -2.3633 -2.4888
  989MOL0     H33470  12.849   7.144   0.584 -0.9205 -1.9701  4.8348
  989MOL0     H33471  12.801   6.966   0.335 -0.1903  0.5048 -0.2848
  989MOL0     H33472  12.955   6.982   0.397  0.5314  2.0486 -0.1536
  989MOL0     H33473  12.884   7.247   0.378 -2.3271  1.3904 -1.0391
  989MOL0     H33474  12.780   7.181   0.262 -1.2219 -3.0430  1.5070
  989MOL0     H33475  12.785   6.970   0.132 -0.3039  1.0405  0.6338
  989MOL0     H33476  12.661   6.891  -0.172 -0.4086  0.8902  1.0377
  989MOL0     H33477  12.760   6.741  -0.113 -2.5065 -2.0955  1.7331
  989MOL0     H33478  12.668   6.835  -0.006 -1.3937  0.5116 -0.6795
  989MOL0     H33479  12.620   6.895  -0.475  2.0982  1.6124  0.1090
  989MOL0     H33480  12.541   6.815  -0.692 -0.8761 -1.9514 -0.5224
  989MOL0     H33481  12.856   6.660  -0.955  1.2637 -1.1394  2.8352
  989MOL0     H33482  12.779   6.505  -0.943  0.3296 -0.4299 -2.8483
  989MOL0     H33483  12.739   6.547  -1.176 -0.4295  0.2038 -0.4124
  989MOL0     H33484  12.589   6.598  -1.094 -0.2244  1.8670  0.7653
  989MOL0     H33485  12.809   6.794  -1.153  0.8088 -1.5991 -3.8396
  989MOL0     H33486  12.651   6.824  -1.082  2.4849  1.0326  0.2296
  989MOL0     H33487  12.715   6.692  -1.347 -2.3465 -2.8630  1.8522
  989MOL0     H33488  12.552   6.759  -1.305  0.1650 -0.1173 -0.3152
  989MOL0     H33489  12.784   6.945  -1.321  1.4822 -2.3743  0.4180
  989MOL0     H33490  12.622   6.979  -1.352  2.0097  1.3909  1.1097
  989MOL0     H33491  12.815   6.826  -1.542 -0.6345 -2.1365  2.3152
  989MOL0     H33492  12.629   6.844  -1.550 -1.1442 -0.2866  0.6673
  989MOL0     H33493  12.826   7.066  -1.553  0.9583 -1.3036 -0.9563
  989MOL0     H33494  12.651   7.083  -1.576 -0.3546  0.7135 -2.6726
  989MOL0     H33495  12.830   6.921  -1.749  1.1882  1.3728 -1.3416
  989MOL0     H33496  12.805   7.099  -1.778  2.7165  0.9856  3.8741
  989MOL0     H33497  12.909   6.589  -0.738  0.7407  2.9687 -2.5455
  989MOL0     H33498  12.995   6.680  -0.529 -1.1421 -0.0384  2.4224
  989MOL0     H33499  13.156   7.024  -0.194 -1.3960  1.6576 -1.6166
  989MOL0     H33500  13.167   7.133   0.031 -0.1633 -0.1176  1.8811
  989MOL0     H33501  11.592   6.694   0.659  1.7053 -0.2629 -1.3633
  989MOL0     H33502  11.383   6.675   0.536 -2.9386 -2.8195 -0.8158
  989MOL0     H33503  11.241   6.606   0.120 -0.7249  1.8276 -0.3352
  989MOL0     H33504  11.090   6.627  -0.068 -1.0189  1.8472  0.9188
  989MOL0     H33505  10.784   6.294  -0.122 -0.7388 -0.8162 -0.0009
  989MOL0     H33506  10.676   6.422  -0.059 -0.4431 -2.0116  0.3311
  989MOL0     H33507  10.790   6.393  -0.338 -0.5222 -1.5894 -0.9050
  989MOL0     H33508  10.712   6.547  -0.272 -0.8278 -0.0667  1.3100
  989MOL0     H33509  10.508   6.445  -0.258 -0.4030 -1.2226  1.0354
  989MOL0     H33510  10.572   6.267  -0.285  0.3780 -0.7646 -0.7422
  989MOL0     H33511  10.594   6.302  -0.512 -0.8388 -0.0779 -1.2011
  989MOL0     H33512  10.610   6.476  -0.501  1.4578 -1.6107 -0.0352
  989MOL0     H33513  10.196   6.424  -0.521 -0.3305  1.8797  3.6697
  989MOL0     H33514  10.842   6.326   0.108 -0.1555  0.4205  2.0248
  989MOL0     H33515  10.981   6.334   0.330  0.3089  1.1966  0.4634
  990MOL0     O33516   0.669   3.905   2.161 -0.2284  0.1923 -0.7303
  990MOL0     C33517   0.695   4.003   2.225 -0.0186  0.1125 -0.7343
  990MOL0     O33518   0.636   4.049   2.336  0.7813  0.8475  0.1989
  990MOL0     C33519   0.518   3.988   2.380  0.2092  0.1312 -0.5082
  990MOL0     C33520   0.515   3.974   2.524  0.5467 -0.0916 -1.1123
  990MOL0     C33521   0.408   3.902   2.581 -0.4635  0.2154 -0.0744
  990MOL0     C33522   0.305   3.846   2.504 -0.7182 -0.0183  0.7210
  990MOL0     O33523   0.210   3.756   2.539  0.8091  0.0436  0.4646
  990MOL0     C33524   0.177   3.716   2.671  0.2762  0.5273  0.2477
  990MOL0     C33525   0.069   3.812   2.728  0.8309 -0.2348  0.3132
  990MOL0     C33526  -0.070   3.792   2.664 -0.0496 -0.2920 -1.1750
  990MOL0     C33527  -0.100   3.915   2.573 -1.1787 -0.0270  0.6687
  990MOL0     C33528  -0.139   4.040   2.653 -0.3186  0.4283 -0.2477
  990MOL0     C33529  -0.219   4.125   2.556 -0.3244  0.2633  0.1078
  990MOL0     C33530  -0.279   4.243   2.613 -0.6267 -1.0710 -1.0779
  990MOL0     C33531  -0.420   4.283   2.570 -0.3968 -0.2453  0.4164
  990MOL0     N33532  -0.432   4.336   2.430  0.2015  0.1790  0.6551
  990MOL0     C33533  -0.537   4.412   2.377 -0.0218  0.3652 -0.0174
  990MOL0     C33534  -0.492   4.448   2.258  0.0458 -1.1346  0.7968
  990MOL0     C33535  -0.577   4.515   2.143 -0.1859  0.0011 -0.6351
  990MOL0     C33536  -0.681   4.423   2.082 -0.3950  0.2330 -0.8524
  990MOL0     C33537  -0.823   4.433   2.145 -0.1596 -0.0548 -0.2233
  990MOL0     C33538  -0.906   4.558   2.138  0.0666  1.0300  0.3188
  990MOL0     O33539  -1.048   4.542   2.161  0.3280 -0.1470 -0.5932
  990MOL0     C33540  -1.128   4.659   2.183 -1.4152 -0.3694  0.2539
  990MOL0     C33541  -1.074   4.784   2.190 -0.4467 -0.9262  0.8173
  990MOL0     C33542  -1.159   4.894   2.230 -0.1068 -0.8631 -0.1685
  990MOL0     C33543  -1.097   5.024   2.261 -0.5315  0.7563  0.5855
  990MOL0     C33544  -1.299   4.870   2.251  0.2351  0.5045  0.1295
  990MOL0     C33545  -1.400   4.975   2.297 -0.5264  0.3150  0.2471
  990MOL0     O33546  -1.430   5.067   2.195  0.8635 -0.1675 -0.1375
  990MOL0     C33547  -1.529   5.164   2.214  0.0792  0.1023  0.4055
  990MOL0     C33548  -1.509   5.302   2.195  0.6999  0.4151 -0.0395
  990MOL0     C33549  -1.611   5.397   2.221  0.3184  0.5982  0.2897
  990MOL0     C33550  -1.739   5.353   2.269 -0.6373 -1.0977  0.0188
  990MOL0     O33551  -1.835   5.451   2.302 -0.0101  0.0715  0.5351
  990MOL0     C33552  -1.963   5.419   2.361 -0.5056 -0.0978  0.7207
  990MOL0     C33553  -2.032   5.539   2.431  0.4282 -0.6506  0.1435
  990MOL0     C33554  -2.047   5.659   2.345 -0.0812 -0.4539  0.7491
  990MOL0     C33555  -2.139   5.770   2.399  0.7887 -0.4448  0.2511
  990MOL0     C33556  -2.209   5.851   2.284  0.2073  1.3589 -0.0744
  990MOL0     C33557  -2.261   5.982   2.350  0.0118 -0.0597  0.1139
  990MOL0     C33558  -2.387   5.962   2.440  0.3305 -0.3812 -0.4213
  990MOL0     C33559  -2.484   6.086   2.429 -0.2573  1.2629  0.5082
  990MOL0    Cl33560  -2.598   6.077   2.559 -0.1316  0.1506 -0.3747
  990MOL0     C33561  -1.761   5.208   2.281 -0.4319 -0.6306 -0.6463
  990MOL0     C33562  -1.652   5.120   2.251  0.7685  0.3733 -0.2037
  990MOL0     O33563  -1.472   4.946   2.393  0.4489 -0.1787  0.2854
  990MOL0     C33564  -1.350   4.745   2.227  0.7263 -0.2592 -0.1234
  990MOL0     C33565  -1.263   4.638   2.208 -0.6502 -0.4693  0.8671
  990MOL0     N33566  -0.360   4.410   2.244  0.3554  0.2093  0.3616
  990MOL0     N33567  -0.324   4.345   2.345  0.5745  0.0631  0.0227
  990MOL0     C33568   0.309   3.875   2.369  0.1838 -0.2302  0.4691
  990MOL0     C33569   0.418   3.942   2.309  0.9458  0.6294 -0.3328
  990MOL0     C33570   0.825   4.069   2.190 -0.2671 -0.0977  1.2173
  990MOL0     C33571   0.911   4.153   2.272  0.4394  0.8546  0.3026
  990MOL0     C33572   1.029   4.210   2.227  0.0094 -0.2601 -0.3347
  990MOL0     C33573   1.083   4.177   2.102  0.2106  0.4000 -0.4676
  990MOL0     O33574   1.191   4.239   2.049 -0.0295  0.0806 -0.4307
  990MOL0     C33575   1.270   4.334   2.111  0.0415 -0.0099  0.2869
  990MOL0     C33576   1.236   4.477   2.065  0.2537 -0.5379 -0.3677
  990MOL0     C33577   1.130   4.544   2.154 -0.1000  0.8002 -0.1543
  990MOL0     C33578   1.120   4.696   2.142 -0.3690 -0.5118 -0.0686
  990MOL0     C33579   1.040   4.755   2.244 -0.2504  0.3600  1.1239
  990MOL0     C33580   0.958   4.822   2.306 -0.3263 -0.1009  0.1210
  990MOL0     C33581   1.013   4.092   2.023  0.6170 -0.3249  0.1358
  990MOL0     C33582   0.885   4.054   2.058  0.5851  0.4657 -0.2769
  990MOL0     H33583   0.585   4.037   2.577 -0.6255  1.4386 -1.3050
  990MOL0     H33584   0.410   3.882   2.688  1.2234 -0.6170 -0.2221
  990MOL0     H33585   0.130   3.617   2.670 -1.3239  1.2498 -1.5148
  990MOL0     H33586   0.271   3.720   2.727  0.8102 -2.0419 -0.3279
  990MOL0     H33587   0.068   3.805   2.837  1.3985  0.6264  0.3867
  990MOL0     H33588   0.106   3.914   2.712  1.4539 -0.8058 -2.3384
  990MOL0     H33589  -0.084   3.694   2.618 -3.3999 -1.4125  1.8058
  990MOL0     H33590  -0.140   3.797   2.748 -0.6011  0.9209 -1.6986
  990MOL0     H33591  -0.013   3.944   2.514 -2.1182  0.3221 -0.5805
  990MOL0     H33592  -0.176   3.885   2.500  1.7381 -1.1957 -2.1423
  990MOL0     H33593  -0.194   4.017   2.745  0.9216  1.5086  0.8137
  990MOL0     H33594  -0.050   4.094   2.686 -1.6880  0.8853  3.0722
  990MOL0     H33595  -0.151   4.149   2.474  2.6657 -1.7466  1.8354
  990MOL0     H33596  -0.303   4.059   2.531  0.9651 -1.5425  0.3752
  990MOL0     H33597  -0.271   4.244   2.722 -1.0350  0.0616 -1.0475
  990MOL0     H33598  -0.222   4.332   2.588 -0.0369 -0.3021  2.5013
  990MOL0     H33599  -0.458   4.352   2.646 -1.5852 -0.0682 -0.3028
  990MOL0     H33600  -0.487   4.198   2.584 -2.1607  0.4272 -2.9155
  990MOL0     H33601  -0.641   4.420   2.409  0.0424  0.3963  0.1890
  990MOL0     H33602  -0.636   4.603   2.169  0.5857  0.6321 -0.9904
  990MOL0     H33603  -0.503   4.546   2.069 -1.4004  0.5726 -1.6552
  990MOL0     H33604  -0.651   4.319   2.095 -1.8665 -0.4280 -2.3441
  990MOL0     H33605  -0.682   4.449   1.976 -0.6803 -0.3913 -1.0075
  990MOL0     H33606  -0.815   4.405   2.250 -0.5905 -0.6410 -0.3441
  990MOL0     H33607  -0.877   4.352   2.095 -0.0285  0.2579 -0.8906
  990MOL0     H33608  -0.882   4.617   2.049 -0.0411  1.0163  0.2801
  990MOL0     H33609  -0.863   4.618   2.219  1.3211  0.2762  0.2427
  990MOL0     H33610  -0.971   4.790   2.156 -0.9269  0.0032 -0.5715
  990MOL0     H33611  -1.099   5.047   2.368 -2.9564  3.4332  0.0816
  990MOL0     H33612  -0.997   5.027   2.216 -0.7042  3.9088  0.2113
  990MOL0     H33613  -1.150   5.107   2.215 -0.5438  0.0753 -0.6560
  990MOL0     H33614  -1.415   5.331   2.149  0.2318  1.3313 -0.4334
  990MOL0     H33615  -1.591   5.500   2.192 -1.7895  1.1246  0.5398
  990MOL0     H33616  -2.034   5.375   2.290 -1.3701  1.8757  0.2940
  990MOL0     H33617  -1.936   5.348   2.439  1.7548 -0.9415 -0.7107
  990MOL0     H33618  -2.129   5.507   2.473  0.7528 -0.7272  0.8470
  990MOL0     H33619  -1.978   5.571   2.520  2.1450 -0.0614 -1.0702
  990MOL0     H33620  -2.081   5.630   2.246 -0.4366 -0.1714  0.7871
  990MOL0     H33621  -1.950   5.708   2.331 -1.0994  0.9892 -1.7226
  990MOL0     H33622  -2.227   5.726   2.448  0.3786 -1.4596 -1.3066
  990MOL0     H33623  -2.085   5.830   2.472  0.3492 -1.3066  1.3022
  990MOL0     H33624  -2.280   5.782   2.238  2.3965 -0.8012 -0.3953
  990MOL0     H33625  -2.136   5.866   2.204  0.9292  0.7410  0.4515
  990MOL0     H33626  -2.179   6.036   2.398  2.4402 -3.0281 -0.4056
  990MOL0     H33627  -2.293   6.054   2.274 -0.1985  1.9102  1.9754
  990MOL0     H33628  -2.359   5.963   2.546 -0.8325 -1.1196 -0.0917
  990MOL0     H33629  -2.437   5.870   2.411 -2.5453 -0.0134  2.7128
  990MOL0     H33630  -2.538   6.084   2.334 -1.0735  0.6407  0.9750
  990MOL0     H33631  -2.418   6.174   2.429  0.2589  1.0847 -3.5826
  990MOL0     H33632  -1.858   5.179   2.320 -1.6100 -1.0121 -3.5708
  990MOL0     H33633  -1.665   5.013   2.264  3.1603  0.1969  1.0636
  990MOL0     H33634  -1.453   4.715   2.240  0.9234 -2.0740 -2.0941
  990MOL0     H33635  -1.302   4.537   2.201 -0.5120 -0.4050 -2.4601
  990MOL0     H33636   0.238   3.823   2.305 -0.8251 -1.6832  2.6415
  990MOL0     H33637   0.426   3.932   2.202  1.0418 -1.5065 -0.1609
  990MOL0     H33638   0.866   4.174   2.369  0.7433 -1.1524  0.9250
  990MOL0     H33639   1.092   4.277   2.285  0.6742  3.6052 -4.9032
  990MOL0     H33640   1.272   4.332   2.221 -0.0507  0.5528  0.3056
  990MOL0     H33641   1.378   4.318   2.101 -0.4473 -2.7350 -1.6281
  990MOL0     H33642   1.213   4.479   1.958 -0.3639  0.4613 -0.2307
  990MOL0     H33643   1.322   4.545   2.064 -0.7883  0.8312 -1.5393
  990MOL0     H33644   1.151   4.527   2.260 -3.1405  0.2367  0.4690
  990MOL0     H33645   1.033   4.496   2.136  0.8606 -1.9123  1.2180
  990MOL0     H33646   1.079   4.724   2.044  0.9163 -1.0302 -0.7687
  990MOL0     H33647   1.214   4.751   2.144  0.3672 -1.6042 -2.1028
  990MOL0     H33648   0.886   4.871   2.368 -1.4977  2.5540 -3.0321
  990MOL0     H33649   1.053   4.077   1.924  0.0548 -1.8819  0.1191
  990MOL0     H33650   0.828   3.998   1.984 -0.1145  0.0772  0.5449
  991MOL0     O33651   8.826   5.783   4.310 -0.0355  0.4078  0.3463
  991MOL0     C33652   8.796   5.815   4.192  0.1474 -0.2368 -0.3588
  991MOL0     O33653   8.686   5.774   4.124 -0.4449 -0.1774 -0.9432
  991MOL0     C33654   8.598   5.688   4.181 -0.2899  0.4068  0.4995
  991MOL0     C33655   8.538   5.701   4.306 -0.5885  1.4138  0.4603
  991MOL0     C33656   8.448   5.600   4.362 -0.0410  0.5487  0.0155
  991MOL0     C33657   8.420   5.492   4.286 -0.2253  0.0902 -0.1244
  991MOL0     O33658   8.344   5.391   4.345  0.4394 -0.4355 -0.0909
  991MOL0     C33659   8.332   5.266   4.275 -0.4523 -0.1948  0.2181
  991MOL0     C33660   8.317   5.154   4.380 -0.7319 -0.2989 -0.0172
  991MOL0     C33661   8.177   5.139   4.428  0.0010 -0.1115 -0.1321
  991MOL0     C33662   8.168   5.055   4.560  0.6726 -0.1454  0.4033
  991MOL0     C33663   8.023   5.049   4.611  0.4746 -0.4517 -0.3892
  991MOL0     C33664   7.926   4.987   4.513 -0.6396 -0.1349 -0.7112
  991MOL0     C33665   7.795   4.928   4.572 -0.2519 -0.2243  0.6416
  991MOL0     C33666   7.724   5.025   4.663 -0.5287  0.7028  0.4580
  991MOL0     N33667   7.579   5.014   4.704 -1.0884 -0.0116 -0.0360
  991MOL0     C33668   7.480   4.958   4.630  0.1399 -0.0540 -0.2817
  991MOL0     C33669   7.373   4.950   4.716 -0.1061  0.1671 -0.4741
  991MOL0     C33670   7.235   4.914   4.670 -0.2035  0.7758 -0.8510
  991MOL0     C33671   7.181   4.798   4.744 -0.2007 -0.4690  0.0180
  991MOL0     C33672   7.085   4.835   4.852  0.2140 -0.5410 -0.4006
  991MOL0     C33673   7.049   4.705   4.923  0.2044  0.4266 -0.0209
  991MOL0     O33674   6.970   4.751   5.036 -0.1983  1.6578 -0.1524
  991MOL0     C33675   6.895   4.657   5.101 -0.5514  0.4066 -0.1017
  991MOL0     C33676   6.774   4.699   5.169 -0.3952  1.1165 -0.5578
  991MOL0     C33677   6.691   4.608   5.241 -0.1901  0.8881  0.2976
  991MOL0     C33678   6.564   4.667   5.306  0.3610 -0.0513  0.5929
  991MOL0     C33679   6.723   4.470   5.236 -0.2952  0.0537 -0.1215
  991MOL0     C33680   6.647   4.346   5.287  0.8010  0.1829  0.1314
  991MOL0     O33681   6.667   4.229   5.222 -0.4796  0.0151 -0.3293
  991MOL0     C33682   6.597   4.117   5.273 -0.4477 -0.3385 -0.3422
  991MOL0     C33683   6.458   4.102   5.262  0.6705 -0.1263 -0.0827
  991MOL0     C33684   6.396   3.979   5.306  0.2532  0.8247  0.4142
  991MOL0     C33685   6.473   3.883   5.378  0.1675 -0.4412 -0.0263
  991MOL0     O33686   6.405   3.787   5.446  0.8011 -0.3027 -0.4167
  991MOL0     C33687   6.476   3.712   5.540 -0.0638 -0.0633  0.2072
  991MOL0     C33688   6.366   3.651   5.628 -0.0625 -0.6187 -0.4164
  991MOL0     C33689   6.295   3.757   5.715 -0.5771 -0.2389 -0.1830
  991MOL0     C33690   6.155   3.704   5.767  0.3894  0.4185  0.4288
  991MOL0     C33691   6.177   3.633   5.897 -0.1703  0.1456  0.1590
  991MOL0     C33692   6.053   3.564   5.941  0.3688 -0.0762  0.8441
  991MOL0     C33693   6.084   3.506   6.081 -0.6846 -0.8092 -0.4591
  991MOL0     C33694   5.971   3.413   6.131  0.1813 -0.8079 -0.3709
  991MOL0    Cl33695   5.809   3.491   6.135  0.3614  0.1122 -0.5873
  991MOL0     C33696   6.614   3.906   5.380  0.2545  0.9193 -0.2682
  991MOL0     C33697   6.677   4.017   5.320  0.5405 -0.4270 -0.3576
  991MOL0     O33698   6.562   4.371   5.370 -0.2068  0.5247  0.0141
  991MOL0     C33699   6.845   4.434   5.187 -0.5341  0.3865 -0.2670
  991MOL0     C33700   6.937   4.524   5.123  0.8716  0.9601 -0.0985
  991MOL0     N33701   7.415   5.007   4.832  0.1479  0.1187  0.4319
  991MOL0     N33702   7.538   5.049   4.828 -0.1768  0.6328 -0.1645
  991MOL0     C33703   8.466   5.488   4.158 -0.6801 -0.1621  0.7370
  991MOL0     C33704   8.556   5.585   4.100  0.8596 -0.0559 -0.6805
  991MOL0     C33705   8.905   5.897   4.132 -0.4225 -0.3292  0.1256
  991MOL0     C33706   9.035   5.916   4.190 -0.2448 -0.1255  0.4440
  991MOL0     C33707   9.121   6.013   4.132  0.0911 -0.1743  0.0419
  991MOL0     C33708   9.088   6.086   4.017 -0.7903 -1.0166 -0.6253
  991MOL0     O33709   9.175   6.179   3.957 -0.7091 -0.3194  0.3267
  991MOL0     C33710   9.122   6.298   3.903  0.2125  0.1068  0.7094
  991MOL0     C33711   9.237   6.405   3.945  0.2232 -0.0421 -0.3558
  991MOL0     C33712   9.357   6.414   3.850  0.4062 -0.5030  0.8601
  991MOL0     C33713   9.326   6.521   3.747  0.6522 -0.1953  0.2724
  991MOL0     C33714   9.443   6.552   3.666 -0.8245  0.6729 -0.4921
  991MOL0     C33715   9.530   6.564   3.579 -0.4524  0.7759  0.0221
  991MOL0     C33716   8.974   6.055   3.950  0.4059 -0.9185 -0.3260
  991MOL0     C33717   8.881   5.966   4.008  0.2492 -0.0752 -0.6748
  991MOL0     H33718   8.561   5.788   4.367  0.0796 -0.3176  2.8080
  991MOL0     H33719   8.410   5.603   4.464 -0.3211 -0.8278 -0.0348
  991MOL0     H33720   8.238   5.254   4.221  0.4538 -2.5071 -0.9384
  991MOL0     H33721   8.414   5.231   4.212  0.9424 -1.8931  2.7754
  991MOL0     H33722   8.349   5.069   4.320  2.1344 -0.6578  1.8382
  991MOL0     H33723   8.382   5.172   4.467 -2.8636 -2.0232  2.0591
  991MOL0     H33724   8.146   5.241   4.451  0.3526  0.1455 -0.7726
  991MOL0     H33725   8.125   5.098   4.341  0.2436  0.9303 -0.7820
  991MOL0     H33726   8.201   4.958   4.521  1.6716 -0.1904  1.3141
  991MOL0     H33727   8.231   5.079   4.646 -0.4121  0.4383  1.0510
  991MOL0     H33728   8.036   5.006   4.711  1.1237  1.8993  0.6104
  991MOL0     H33729   7.995   5.151   4.638  1.4786 -0.3939  0.5241
  991MOL0     H33730   7.895   5.067   4.445 -0.4762 -0.4377 -1.1414
  991MOL0     H33731   7.983   4.919   4.450  1.4648 -0.0315  0.9777
  991MOL0     H33732   7.729   4.894   4.492  1.9373 -0.8504 -1.0046
  991MOL0     H33733   7.818   4.832   4.619  0.3752 -0.2955  0.2089
  991MOL0     H33734   7.737   5.119   4.609  1.2242 -1.1978 -2.8245
  991MOL0     H33735   7.777   5.024   4.758 -0.1291  3.1723  0.3297
  991MOL0     H33736   7.493   4.929   4.526  0.8897  2.1947 -0.8813
  991MOL0     H33737   7.169   4.999   4.688 -1.1693 -0.2928  0.9079
  991MOL0     H33738   7.239   4.889   4.564  5.2096  0.0712 -0.7733
  991MOL0     H33739   7.254   4.728   4.786  0.7380  1.0683  1.0593
  991MOL0     H33740   7.117   4.744   4.673 -2.0551 -0.8224  1.8555
  991MOL0     H33741   6.991   4.876   4.815 -1.6282 -2.3741  1.9194
  991MOL0     H33742   7.122   4.913   4.919 -0.2022 -1.3687  0.8430
  991MOL0     H33743   7.144   4.669   4.963  1.3621  1.4966 -1.7085
  991MOL0     H33744   6.997   4.631   4.863 -0.2930  0.1501  0.7330
  991MOL0     H33745   6.754   4.805   5.171 -2.6835  0.7317  1.1913
  991MOL0     H33746   6.546   4.768   5.268 -4.0253 -0.6492  0.6407
  991MOL0     H33747   6.473   4.607   5.306  1.4521 -1.7971 -0.3774
  991MOL0     H33748   6.595   4.693   5.407  1.1138  1.3640  0.0395
  991MOL0     H33749   6.394   4.173   5.211 -1.2550 -0.6498  1.4539
  991MOL0     H33750   6.288   3.964   5.302  0.3306  0.5154 -2.2218
  991MOL0     H33751   6.520   3.622   5.495 -1.5886 -2.0927  2.5434
  991MOL0     H33752   6.551   3.768   5.595 -0.5508  2.0280 -1.1322
  991MOL0     H33753   6.307   3.597   5.553  3.1426 -1.3722 -2.5663
  991MOL0     H33754   6.415   3.579   5.695  2.3376 -0.0077 -1.4185
  991MOL0     H33755   6.270   3.838   5.646 -0.4583 -1.1577 -1.3326
  991MOL0     H33756   6.365   3.790   5.793 -2.0114  2.3039  0.1515
  991MOL0     H33757   6.079   3.782   5.779 -2.4080 -2.1189  0.3475
  991MOL0     H33758   6.114   3.635   5.692 -0.7352  1.1939  0.3124
  991MOL0     H33759   6.202   3.713   5.967  0.2759  3.5719 -3.5321
  991MOL0     H33760   6.256   3.558   5.882 -0.6043 -0.6315  1.5204
  991MOL0     H33761   5.974   3.640   5.941 -1.5714 -1.8792  3.8353
  991MOL0     H33762   6.034   3.471   5.888 -1.2667 -1.8502  4.2195
  991MOL0     H33763   6.080   3.583   6.158 -3.0706 -1.1738 -0.1256
  991MOL0     H33764   6.184   3.463   6.085  0.8971  2.1123  6.4519
  991MOL0     H33765   6.009   3.374   6.226  2.6395 -0.7697 -1.2510
  991MOL0     H33766   5.964   3.327   6.064  0.1110 -0.8091 -0.3618
  991MOL0     H33767   6.681   3.829   5.418 -1.0497  0.7471  1.8490
  991MOL0     H33768   6.785   4.022   5.313  0.7591 -1.2450  1.7040
  991MOL0     H33769   6.877   4.331   5.198 -1.3717  0.2140  0.6170
  991MOL0     H33770   7.034   4.494   5.084  2.2703  3.1069  1.4385
  991MOL0     H33771   8.446   5.398   4.100  2.5451 -1.4188  1.3714
  991MOL0     H33772   8.593   5.572   3.999  4.0115  0.5044  0.2695
  991MOL0     H33773   9.059   5.862   4.280  1.9906  1.1755  0.7012
  991MOL0     H33774   9.218   6.032   4.176 -0.8826  0.5691  1.9426
  991MOL0     H33775   9.101   6.280   3.797 -1.3517 -0.1602  1.0456
  991MOL0     H33776   9.026   6.325   3.947 -0.0987  2.1275 -1.0417
  991MOL0     H33777   9.296   6.363   4.028  5.4665  2.1524 -2.5792
  991MOL0     H33778   9.186   6.491   3.989  0.0823 -0.9922  1.4767
  991MOL0     H33779   9.370   6.311   3.815 -2.5038 -1.4603  2.2845
  991MOL0     H33780   9.444   6.450   3.906  0.4058  3.1412 -1.1849
  991MOL0     H33781   9.297   6.615   3.796 -2.4216 -0.0163 -1.6325
  991MOL0     H33782   9.249   6.483   3.679 -1.1340  2.2647  0.7683
  991MOL0     H33783   9.598   6.577   3.497  1.0867 -0.7173  0.9992
  991MOL0     H33784   8.951   6.100   3.854  2.4839 -0.5654 -0.7135
  991MOL0     H33785   8.787   5.940   3.961 -5.1433 -0.2891  8.0764
  992MOL0     O33786   2.281   5.472   7.682  0.1239 -1.0474 -0.9482
  992MOL0     C33787   2.341   5.495   7.577  0.4923  0.7866 -0.3997
  992MOL0     O33788   2.457   5.567   7.566 -0.6027  0.8163  0.7921
  992MOL0     C33789   2.513   5.633   7.673  0.3109 -0.0218  0.4368
  992MOL0     C33790   2.516   5.579   7.801  0.6292 -0.3006 -0.2354
  992MOL0     C33791   2.558   5.666   7.909  0.0460 -0.3443 -0.0648
  992MOL0     C33792   2.609   5.799   7.897 -0.0509  1.3427  0.8559
  992MOL0     O33793   2.640   5.873   8.013  0.1851  0.1045 -0.2837
  992MOL0     C33794   2.713   5.998   7.992 -0.4349  0.3376  0.8171
  992MOL0     C33795   2.731   6.072   8.118 -0.6536  0.1052  0.0005
  992MOL0     C33796   2.802   6.206   8.099 -0.4247  1.3747  0.1882
  992MOL0     C33797   2.861   6.241   8.226  0.4579  0.5021 -0.1875
  992MOL0     C33798   2.769   6.269   8.346 -0.1800 -0.1519 -0.3725
  992MOL0     C33799   2.844   6.334   8.472 -0.0812  0.3424  0.3472
  992MOL0     C33800   2.747   6.386   8.569  0.0994 -0.0354  0.1054
  992MOL0     C33801   2.631   6.297   8.616  0.1112  0.5055  0.4343
  992MOL0     N33802   2.659   6.157   8.654 -0.0239  0.3336  0.4305
  992MOL0     C33803   2.586   6.051   8.606  0.0704 -0.4861  0.0227
  992MOL0     C33804   2.589   5.956   8.692  1.3097  0.5154 -0.0114
  992MOL0     C33805   2.507   5.831   8.672  0.0354 -0.0494  0.0649
  992MOL0     C33806   2.575   5.727   8.578  0.5819  0.3121  0.4741
  992MOL0     C33807   2.688   5.664   8.655 -0.9699 -0.3187  0.0009
  992MOL0     C33808   2.772   5.565   8.575  0.1037  0.2648 -0.6889
  992MOL0     O33809   2.906   5.577   8.626 -0.3578 -0.1685 -0.2376
  992MOL0     C33810   3.008   5.500   8.585 -0.9274  0.6436  0.5495
  992MOL0     C33811   3.129   5.508   8.664 -0.9881  0.4901 -0.2807
  992MOL0     C33812   3.239   5.423   8.636  0.1252 -0.0613  0.0472
  992MOL0     C33813   3.354   5.431   8.728  0.1648  0.6171  0.4063
  992MOL0     C33814   3.233   5.323   8.537 -0.5649  0.8542 -0.9765
  992MOL0     C33815   3.352   5.232   8.510  0.0461  0.0876  0.6144
  992MOL0     O33816   3.481   5.275   8.512 -1.0179 -0.3635  1.0718
  992MOL0     C33817   3.582   5.189   8.469  0.7996 -0.4272  0.5893
  992MOL0     C33818   3.653   5.119   8.569 -0.7608  0.5020  0.2784
  992MOL0     C33819   3.769   5.041   8.546  0.1795  0.0041 -0.5881
  992MOL0     C33820   3.816   5.026   8.410  0.3430 -0.7268  0.5567
  992MOL0     O33821   3.922   4.938   8.392  0.1221  0.8926 -0.0113
  992MOL0     C33822   3.951   4.884   8.258  0.6038 -0.1471  1.1912
  992MOL0     C33823   3.835   4.827   8.170 -0.1517 -0.6677 -0.7288
  992MOL0     C33824   3.783   4.709   8.237  0.6747  0.2126  0.5360
  992MOL0     C33825   3.688   4.616   8.151  0.1890  0.3578 -0.6528
  992MOL0     C33826   3.548   4.678   8.110 -0.3595 -0.2720  0.7323
  992MOL0     C33827   3.461   4.690   8.226 -0.5712  0.8213 -0.6836
  992MOL0     C33828   3.404   4.834   8.247 -0.1113  0.0895  0.4772
  992MOL0     C33829   3.293   4.865   8.146 -0.1029 -0.1787  0.0522
  992MOL0    Cl33830   3.169   4.730   8.132  0.2433 -0.1275 -0.6318
  992MOL0     C33831   3.751   5.104   8.306 -0.1376 -0.1144 -0.0655
  992MOL0     C33832   3.629   5.178   8.331 -0.1762 -1.1579  0.3104
  992MOL0     O33833   3.324   5.116   8.468 -0.4156 -0.8031 -0.6864
  992MOL0     C33834   3.115   5.320   8.452  0.1246  0.2727 -0.1370
  992MOL0     C33835   3.006   5.404   8.486  0.8510 -0.1930  0.1261
  992MOL0     N33836   2.680   5.993   8.787 -0.4408  0.7619  0.6049
  992MOL0     N33837   2.723   6.113   8.766  0.1798 -0.6672 -0.7627
  992MOL0     C33838   2.604   5.847   7.768 -0.5797 -0.1733  0.1005
  992MOL0     C33839   2.559   5.769   7.657  0.6568 -0.6570  0.1082
  992MOL0     C33840   2.264   5.437   7.464 -0.0331  0.2066 -0.0213
  992MOL0     C33841   2.308   5.455   7.332  0.9017 -0.1605  0.0203
  992MOL0     C33842   2.255   5.396   7.215  0.5265  0.4469  0.6304
  992MOL0     C33843   2.133   5.313   7.236  0.1662  0.1590 -0.4531
  992MOL0     O33844   2.063   5.261   7.136  0.7160  0.6661  0.5334
  992MOL0     C33845   2.084   5.310   7.000  0.4297 -0.2974  0.0830
  992MOL0     C33846   1.968   5.261   6.911  0.0073 -0.8836  0.1672
  992MOL0     C33847   1.993   5.117   6.859 -0.6019 -0.4887  0.3285
  992MOL0     C33848   1.881   5.074   6.762  0.0549 -0.0132  0.1701
  992MOL0     C33849   1.761   5.024   6.825  0.3487 -0.3287  0.2855
  992MOL0     C33850   1.679   4.960   6.876  0.8113  1.5530 -0.0700
  992MOL0     C33851   2.087   5.294   7.370  0.2653  0.6990  0.3496
  992MOL0     C33852   2.158   5.348   7.478 -0.2783 -0.2316  1.0502
  992MOL0     H33853   2.492   5.474   7.815  3.1222 -0.6899  1.9407
  992MOL0     H33854   2.551   5.629   8.011  3.2727  2.1368  1.2592
  992MOL0     H33855   2.813   5.989   7.948 -0.7922  2.7023 -0.7042
  992MOL0     H33856   2.659   6.064   7.923 -0.2945 -1.5664 -1.2592
  992MOL0     H33857   2.629   6.088   8.153 -1.3324  2.9483 -2.8802
  992MOL0     H33858   2.785   6.005   8.186 -1.3506 -0.0831  0.3839
  992MOL0     H33859   2.884   6.191   8.028 -0.3829  0.5994  0.3866
  992MOL0     H33860   2.731   6.282   8.064  0.1581  1.0203 -1.9474
  992MOL0     H33861   2.934   6.168   8.264  1.1517  0.2789 -1.8722
  992MOL0     H33862   2.913   6.334   8.204  2.7999 -0.9736 -1.3372
  992MOL0     H33863   2.683   6.335   8.327  0.2311  0.1045 -1.4023
  992MOL0     H33864   2.715   6.182   8.386 -1.9164  1.9201  2.1953
  992MOL0     H33865   2.903   6.256   8.521  2.7084  1.5669 -0.8676
  992MOL0     H33866   2.905   6.420   8.443 -1.1557  0.1740 -2.7814
  992MOL0     H33867   2.799   6.427   8.656  2.0728  1.7151 -1.7966
  992MOL0     H33868   2.698   6.473   8.525  1.7001  1.0404  0.3976
  992MOL0     H33869   2.558   6.291   8.535  0.6039  1.8856 -0.1489
  992MOL0     H33870   2.576   6.339   8.701  0.7274  4.6754 -1.0165
  992MOL0     H33871   2.527   6.059   8.516  0.1777  4.1111  0.1120
  992MOL0     H33872   2.480   5.790   8.769 -1.2459  0.5958  0.0113
  992MOL0     H33873   2.415   5.863   8.621  0.4741  0.1022 -0.6608
  992MOL0     H33874   2.617   5.780   8.492 -1.3368 -1.0174 -1.3856
  992MOL0     H33875   2.508   5.649   8.540  1.5602 -0.9526  1.2829
  992MOL0     H33876   2.647   5.604   8.736 -0.9154  0.7217  0.8165
  992MOL0     H33877   2.761   5.738   8.689  2.3786 -3.1273 -0.4308
  992MOL0     H33878   2.784   5.589   8.469  4.8650 -1.2826 -0.7361
  992MOL0     H33879   2.740   5.462   8.594  2.1194 -0.0213  1.6641
  992MOL0     H33880   3.124   5.580   8.745 -0.6449 -1.1640  1.2664
  992MOL0     H33881   3.448   5.447   8.676  1.6145 -2.1582  1.9553
  992MOL0     H33882   3.346   5.514   8.799 -0.2765  2.3090 -1.5258
  992MOL0     H33883   3.363   5.333   8.777  1.7040 -0.7811 -2.4614
  992MOL0     H33884   3.629   5.139   8.673 -0.0976 -0.8297  0.7135
  992MOL0     H33885   3.821   4.985   8.623 -1.8210 -2.8888 -1.1926
  992MOL0     H33886   3.991   4.975   8.211 -1.4049  1.1011  1.7659
  992MOL0     H33887   4.026   4.804   8.261  0.8639  0.0371  0.1048
  992MOL0     H33888   3.760   4.906   8.161 -0.2637 -0.5650  0.8837
  992MOL0     H33889   3.866   4.800   8.068 -0.8422 -0.7822 -0.9178
  992MOL0     H33890   3.726   4.749   8.322 -0.2604  2.1042 -0.8969
  992MOL0     H33891   3.861   4.644   8.277 -0.4651 -0.2887  2.0505
  992MOL0     H33892   3.730   4.591   8.053  0.7591  2.4542 -0.9851
  992MOL0     H33893   3.666   4.527   8.211 -2.3752  0.7605 -0.8570
  992MOL0     H33894   3.505   4.593   8.054 -0.1871 -2.0862  3.1970
  992MOL0     H33895   3.554   4.775   8.061 -1.3070  0.8488  2.7340
  992MOL0     H33896   3.386   4.610   8.226  2.2524 -2.0097  0.3826
  992MOL0     H33897   3.525   4.670   8.312 -1.3329 -0.5492 -0.4057
  992MOL0     H33898   3.494   4.897   8.242  0.8639 -1.2636  0.3886
  992MOL0     H33899   3.366   4.848   8.349  1.5454  0.3904  1.0911
  992MOL0     H33900   3.328   4.893   8.046 -0.1055  0.8505  0.3265
  992MOL0     H33901   3.236   4.952   8.180 -2.6432 -1.5942 -0.3068
  992MOL0     H33902   3.789   5.103   8.204 -0.6127  1.0007 -0.2632
  992MOL0     H33903   3.573   5.231   8.254  4.9128  2.7824 -1.2688
  992MOL0     H33904   3.109   5.235   8.384 -1.7757 -1.5867  2.1536
  992MOL0     H33905   2.917   5.392   8.425  1.6669  0.2613 -1.2035
  992MOL0     H33906   2.617   5.953   7.750  3.7794 -0.4584  0.6569
  992MOL0     H33907   2.559   5.815   7.558  0.8275  0.8353  0.7810
  992MOL0     H33908   2.387   5.530   7.333  0.4789  0.3235 -0.9945
  992MOL0     H33909   2.302   5.429   7.123  1.6521  0.2757  1.1224
  992MOL0     H33910   2.079   5.420   7.004 -1.3783 -0.2652 -1.3816
  992MOL0     H33911   2.177   5.278   6.952 -0.3427  1.4340 -2.8687
  992MOL0     H33912   1.947   5.345   6.845 -0.2345  1.0876  2.5972
  992MOL0     H33913   1.879   5.253   6.974 -2.0045  2.2825 -2.0081
  992MOL0     H33914   2.000   5.049   6.945  1.2566  0.5638  1.0555
  992MOL0     H33915   2.081   5.117   6.795 -2.1486 -0.5608 -1.9300
  992MOL0     H33916   1.929   4.991   6.710 -0.3238 -2.6265  3.6193
  992MOL0     H33917   1.844   5.156   6.699  0.4469  0.9091  1.1038
  992MOL0     H33918   1.602   4.895   6.912  0.7945  1.3215 -0.5148
  992MOL0     H33919   2.002   5.228   7.385  0.8722  0.6624  5.2446
  992MOL0     H33920   2.114   5.320   7.573 -0.7452  0.0625  0.9230
  993MOL0     O33921   6.250   7.854   9.807  0.1058 -0.1429  0.3472
  993MOL0     C33922   6.306   7.963   9.813  0.4311  0.3518  0.3382
  993MOL0     O33923   6.285   8.060   9.910  0.7048  0.0707 -0.1568
  993MOL0     C33924   6.226   8.018  10.024  1.1498 -0.7812  0.9116
  993MOL0     C33925   6.243   7.892  10.086 -0.3140  0.0898 -0.2686
  993MOL0     C33926   6.168   7.849  10.200 -0.6021 -0.6462  0.0996
  993MOL0     C33927   6.071   7.937  10.249  1.0460 -0.1593  0.7344
  993MOL0     O33928   6.000   7.905  10.359  0.1468  0.7027 -0.3706
  993MOL0     C33929   5.951   7.774  10.374  0.2762  0.8900 -0.3090
  993MOL0     C33930   5.794   7.777  10.404 -0.9972 -0.6150  0.8122
  993MOL0     C33931   5.766   7.867  10.528 -0.2855  0.7633  0.1205
  993MOL0     C33932   5.797   7.810  10.664  0.2391 -0.3442 -0.2943
  993MOL0     C33933   5.698   7.706  10.721 -0.0349 -0.5145  0.0102
  993MOL0     C33934   5.544   7.733  10.703  1.0307  0.2217 -0.3803
  993MOL0     C33935   5.498   7.876  10.755 -0.3863  0.7148  0.4613
  993MOL0     C33936   5.435   7.869  10.891  0.4666 -0.0041  0.1732
  993MOL0     N33937   5.522   7.835  11.005  1.0546  0.6570  0.1713
  993MOL0     C33938   5.484   7.764  11.125 -0.1916 -0.3371  0.1515
  993MOL0     C33939   5.594   7.781  11.201 -0.3022  0.0230  0.7493
  993MOL0     C33940   5.630   7.732  11.343 -0.4078  0.2720 -0.2298
  993MOL0     C33941   5.528   7.618  11.373  0.0259 -0.0626 -0.2061
  993MOL0     C33942   5.580   7.565  11.510 -0.4017 -0.6022  0.4768
  993MOL0     C33943   5.491   7.443  11.560 -0.1024 -1.1748  0.5355
  993MOL0     O33944   5.501   7.331  11.472  0.3588 -0.8001 -0.4907
  993MOL0     C33945   5.612   7.252  11.460 -0.1934  0.0901  0.7016
  993MOL0     C33946   5.619   7.162  11.355  0.5187 -0.1155 -0.6255
  993MOL0     C33947   5.737   7.096  11.318  0.2072 -0.1612 -0.1794
  993MOL0     C33948   5.718   7.003  11.209 -0.4059  0.1186  0.0733
  993MOL0     C33949   5.859   7.125  11.391  0.9676  0.1511 -0.5819
  993MOL0     C33950   5.987   7.061  11.359 -0.1057  0.9057  0.1099
  993MOL0     O33951   6.027   7.082  11.230 -0.2823 -0.1212  0.3146
  993MOL0     C33952   6.124   7.012  11.172  0.4313  0.5675 -0.5766
  993MOL0     C33953   6.201   7.079  11.072  0.3840  0.5822  0.3763
  993MOL0     C33954   6.296   7.009  11.006  0.2348 -0.6021 -0.1961
  993MOL0     C33955   6.326   6.873  11.034  0.1847  0.2010  1.0415
  993MOL0     O33956   6.418   6.808  10.956  0.1908  0.1939  0.9676
  993MOL0     C33957   6.525   6.754  11.028 -1.1634  0.4203  0.6480
  993MOL0     C33958   6.614   6.665  10.926  0.8490  0.7056 -0.3889
  993MOL0     C33959   6.678   6.741  10.807 -0.3098  1.0463 -0.6752
  993MOL0     C33960   6.778   6.647  10.721 -0.6505 -0.2559  0.5906
  993MOL0     C33961   6.837   6.706  10.589 -0.6593 -0.3985  0.1039
  993MOL0     C33962   6.918   6.611  10.516  1.1176  0.5866  0.3540
  993MOL0     C33963   6.936   6.658  10.375 -0.8013 -0.0880  0.1004
  993MOL0     C33964   7.057   6.580  10.312 -0.3690 -0.6455 -1.7306
  993MOL0    Cl33965   7.137   6.665  10.179  0.2344 -0.3638 -0.1175
  993MOL0     C33966   6.263   6.816  11.142 -0.0776  0.6547 -0.0293
  993MOL0     C33967   6.163   6.883  11.217 -0.7695 -0.5760  0.0594
  993MOL0     O33968   6.063   7.030  11.450 -0.6676 -0.2213  0.1022
  993MOL0     C33969   5.850   7.197  11.513  0.6398 -0.3162 -0.4264
  993MOL0     C33970   5.727   7.266  11.544  1.2240 -0.0113  0.5285
  993MOL0     N33971   5.691   7.848  11.140  0.0552  0.3890 -0.1302
  993MOL0     N33972   5.645   7.877  11.025 -0.7189 -0.4133 -0.2065
  993MOL0     C33973   6.048   8.059  10.189  0.3457 -0.2261  0.2847
  993MOL0     C33974   6.121   8.094  10.073  0.0899 -0.8329 -0.6841
  993MOL0     C33975   6.406   7.991   9.706 -1.4120  0.7259  0.2011
  993MOL0     C33976   6.459   8.118   9.684 -1.1938  0.2657 -0.7609
  993MOL0     C33977   6.570   8.140   9.594 -0.8506  0.1185 -0.2060
  993MOL0     C33978   6.608   8.030   9.501  0.4078 -0.1435 -0.3579
  993MOL0     O33979   6.708   8.042   9.416 -0.3995  1.0789  0.8485
  993MOL0     C33980   6.824   8.121   9.472  0.5080  0.9381 -0.4017
  993MOL0     C33981   6.929   8.146   9.374 -0.0624  0.3552  0.7751
  993MOL0     C33982   7.039   8.217   9.427  0.1193 -0.3826 -0.0322
  993MOL0     C33983   7.155   8.135   9.476 -0.3180 -0.1360  0.2570
  993MOL0     C33984   7.143   8.101   9.617  0.3020 -0.0726 -0.3189
  993MOL0     C33985   7.132   8.089   9.739  0.0763 -0.2374 -0.0507
  993MOL0     C33986   6.528   7.914   9.504  0.4898 -0.0538 -0.7535
  993MOL0     C33987   6.445   7.898   9.614 -0.2979  0.3649  0.7442
  993MOL0     H33988   6.297   7.805  10.051 -4.7141 -3.3091  0.5409
  993MOL0     H33989   6.188   7.750  10.239 -0.2192  0.0991  1.8788
  993MOL0     H33990   5.974   7.700  10.296  1.5331  1.5774 -0.6227
  993MOL0     H33991   5.997   7.732  10.464 -2.5112  0.2974  0.9431
  993MOL0     H33992   5.747   7.810  10.311  2.4873 -4.7738 -2.8704
  993MOL0     H33993   5.755   7.676  10.416  0.3808 -1.3516 -0.6282
  993MOL0     H33994   5.814   7.966  10.526 -1.7045  1.4702 -1.0144
  993MOL0     H33995   5.658   7.886  10.522 -0.3135  0.1731 -3.1276
  993MOL0     H33996   5.897   7.766  10.656  0.1485 -0.8246  0.9098
  993MOL0     H33997   5.801   7.904  10.721 -0.9930  0.0716 -0.8475
  993MOL0     H33998   5.717   7.610  10.672 -3.1250 -1.9902  1.3994
  993MOL0     H33999   5.716   7.696  10.828  0.1653  2.2821  0.3021
  993MOL0     H34000   5.534   7.714  10.595  0.4408 -0.0606 -0.2811
  993MOL0     H34001   5.495   7.657  10.764  0.1759  1.6904  0.8395
  993MOL0     H34002   5.583   7.946  10.750  0.1554  0.0372 -0.0180
  993MOL0     H34003   5.424   7.920  10.688  1.7078  3.9868  0.0914
  993MOL0     H34004   5.350   7.801  10.890  0.1887  0.0744  3.9876
  993MOL0     H34005   5.390   7.966  10.911  1.0348  0.5229 -0.9908
  993MOL0     H34006   5.391   7.708  11.137  1.0157 -3.1621 -2.4082
  993MOL0     H34007   5.732   7.691  11.346 -0.7413 -0.5563  0.0878
  993MOL0     H34008   5.620   7.813  11.416  0.5881  0.0606  0.1647
  993MOL0     H34009   5.533   7.535  11.303  3.7480 -0.8903  0.8156
  993MOL0     H34010   5.424   7.650  11.383 -0.1436 -0.8565  0.6976
  993MOL0     H34011   5.580   7.647  11.583  0.9218 -0.4417  0.3246
  993MOL0     H34012   5.684   7.533  11.495 -0.5329 -0.7929 -0.0369
  993MOL0     H34013   5.387   7.478  11.564 -0.1343 -1.1388 -0.4408
  993MOL0     H34014   5.518   7.409  11.661 -1.9482 -0.9898  1.1304
  993MOL0     H34015   5.523   7.141  11.309 -0.1723  0.2232  0.6400
  993MOL0     H34016   5.706   7.047  11.109  0.9392 -1.1832 -0.7198
  993MOL0     H34017   5.807   6.939  11.208 -0.0040  0.6667 -0.9737
  993MOL0     H34018   5.628   6.943  11.229 -0.3568 -0.1347 -0.4494
  993MOL0     H34019   6.175   7.183  11.055 -1.5497  0.2971  1.3152
  993MOL0     H34020   6.342   7.064  10.924 -3.5626 -0.0839 -2.1947
  993MOL0     H34021   6.589   6.836  11.063  0.6421  0.5616 -2.5662
  993MOL0     H34022   6.490   6.694  11.112  0.4812 -3.3149 -1.0624
  993MOL0     H34023   6.693   6.622  10.988  0.9623  1.8334  0.2700
  993MOL0     H34024   6.550   6.585  10.887 -0.2604  1.1631  0.4171
  993MOL0     H34025   6.732   6.827  10.847 -2.0536  1.0055  2.0364
  993MOL0     H34026   6.598   6.782  10.745  1.1668  0.4889 -3.0927
  993MOL0     H34027   6.856   6.613  10.790  1.2598  1.4374 -0.6547
  993MOL0     H34028   6.720   6.561  10.687 -0.1038 -0.6688  0.6787
  993MOL0     H34029   6.882   6.804  10.602 -2.0826  0.2969 -0.0090
  993MOL0     H34030   6.752   6.737  10.527  2.0400  0.3544 -3.5490
  993MOL0     H34031   7.021   6.610  10.553  1.0364  0.0610  0.5744
  993MOL0     H34032   6.877   6.509  10.519  0.6307  0.7610 -0.1399
  993MOL0     H34033   6.968   6.762  10.364  4.6666 -1.7364 -4.8931
  993MOL0     H34034   6.847   6.639  10.315 -2.3987 -0.7648  2.5318
  993MOL0     H34035   7.027   6.484  10.270  1.8542 -2.5466  0.7272
  993MOL0     H34036   7.135   6.574  10.389 -1.9555  0.3752  0.0715
  993MOL0     H34037   6.280   6.711  11.167  0.6808  1.0536  1.2573
  993MOL0     H34038   6.118   6.839  11.306 -0.6993 -0.4674  0.1500
  993MOL0     H34039   5.931   7.214  11.583  1.0421  3.2821 -1.6019
  993MOL0     H34040   5.737   7.335  11.627 -0.2036  0.5373  0.2540
  993MOL0     H34041   5.971   8.127  10.223  0.5803  0.1145  0.1369
  993MOL0     H34042   6.106   8.195  10.036 -2.1696 -1.0867 -0.5850
  993MOL0     H34043   6.424   8.206   9.736 -2.8474 -1.4056  1.1261
  993MOL0     H34044   6.608   8.242   9.587 -0.8734  0.0566 -1.6539
  993MOL0     H34045   6.795   8.222   9.505  1.0349  1.2336 -0.8353
  993MOL0     H34046   6.870   8.062   9.551 -0.3558 -1.0664 -1.3237
  993MOL0     H34047   6.878   8.187   9.287  2.1796 -0.3048 -0.9452
  993MOL0     H34048   6.960   8.052   9.328 -0.6377  0.6610 -0.2798
  993MOL0     H34049   7.005   8.281   9.509 -0.3328 -1.3239  0.5456
  993MOL0     H34050   7.085   8.277   9.349 -3.0348 -0.8309 -2.4198
  993MOL0     H34051   7.255   8.180   9.468  0.3866 -1.7431 -0.3762
  993MOL0     H34052   7.167   8.044   9.418  1.8208  1.3781 -1.8574
  993MOL0     H34053   7.127   8.089   9.846  1.5986  2.5664  0.1108
  993MOL0     H34054   6.537   7.831   9.434 -0.9384 -0.3328 -0.6523
  993MOL0     H34055   6.403   7.798   9.624  1.5397 -0.3208  2.4171
  994MOL0     O34056   0.902   5.841   5.251  0.1356  0.1632  0.6581
  994MOL0     C34057   0.825   5.939   5.235  0.1993 -0.1490  0.2202
  994MOL0     O34058   0.734   5.944   5.130  0.0567 -0.8601 -0.2964
  994MOL0     C34059   0.754   5.865   5.018 -0.6290 -0.2558  0.0310
  994MOL0     C34060   0.675   5.757   4.977 -0.0695 -0.9012  0.2642
  994MOL0     C34061   0.693   5.704   4.848 -0.4709  0.8109  0.4397
  994MOL0     C34062   0.790   5.756   4.755 -0.0367  0.4348 -0.2228
  994MOL0     O34063   0.800   5.717   4.622  0.4658 -0.0791  0.1675
  994MOL0     C34064   0.739   5.591   4.587 -0.0768 -0.5896 -0.1677
  994MOL0     C34065   0.791   5.556   4.451  0.0059  0.2176  0.8624
  994MOL0     C34066   0.709   5.445   4.390  0.1188 -0.6409 -0.0225
  994MOL0     C34067   0.686   5.440   4.239  0.3456  0.1652 -0.0682
  994MOL0     C34068   0.808   5.393   4.160  0.2364 -0.1923 -0.5629
  994MOL0     C34069   0.886   5.520   4.121  0.0995  1.4055 -0.4820
  994MOL0     C34070   0.812   5.625   4.039  0.9342  0.7071  0.4685
  994MOL0     C34071   0.722   5.570   3.921  1.0816  0.2769 -0.2248
  994MOL0     N34072   0.796   5.549   3.798 -0.3668 -0.1600  0.0873
  994MOL0     C34073   0.791   5.635   3.692  0.1256  0.2295 -0.2665
  994MOL0     C34074   0.869   5.569   3.597 -0.1492 -0.5474  0.0790
  994MOL0     C34075   0.912   5.618   3.459  0.4371  0.7414  0.5226
  994MOL0     C34076   1.004   5.747   3.474 -0.0466 -0.5317  0.0863
  994MOL0     C34077   1.149   5.714   3.524 -0.3821  0.4139 -0.1186
  994MOL0     C34078   1.221   5.851   3.566 -0.1228 -0.4095 -0.0348
  994MOL0     O34079   1.356   5.847   3.618 -0.5605  0.6213  0.5695
  994MOL0     C34080   1.469   5.841   3.535 -0.6842  0.7737 -0.5381
  994MOL0     C34081   1.588   5.864   3.610  0.2793  0.1603  0.3790
  994MOL0     C34082   1.718   5.850   3.548  0.3365  0.3498  0.6623
  994MOL0     C34083   1.838   5.885   3.632  0.9031 -0.8878 -0.1486
  994MOL0     C34084   1.727   5.795   3.413  0.8096 -0.0504  1.0353
  994MOL0     C34085   1.851   5.778   3.331 -0.6339 -0.4120  0.6602
  994MOL0     O34086   1.842   5.815   3.194 -0.2763 -0.1349  0.5388
  994MOL0     C34087   1.956   5.828   3.112 -0.8586 -0.3511  0.8646
  994MOL0     C34088   2.075   5.760   3.145 -1.1733  0.3364  0.2441
  994MOL0     C34089   2.186   5.780   3.066  0.5751 -0.9523  0.7321
  994MOL0     C34090   2.179   5.873   2.959 -0.8495 -0.4168 -0.5350
  994MOL0     O34091   2.291   5.915   2.884 -0.3535  0.5058 -1.2848
  994MOL0     C34092   2.429   5.907   2.939 -0.9757 -0.6485  0.2781
  994MOL0     C34093   2.510   6.021   2.887  0.3006  0.2506  0.3468
  994MOL0     C34094   2.659   5.977   2.885  0.8195  0.0441  0.8047
  994MOL0     C34095   2.744   6.108   2.912 -0.0846 -0.6291  0.6792
  994MOL0     C34096   2.895   6.080   2.921  0.3936 -0.2230  0.2042
  994MOL0     C34097   2.973   6.201   2.971 -0.3606 -0.2142  0.7711
  994MOL0     C34098   3.118   6.162   2.956  0.5310 -0.5009 -0.4010
  994MOL0     C34099   3.223   6.264   3.012 -0.7978  0.7355 -0.3657
  994MOL0    Cl34100   3.387   6.190   3.001 -0.0683 -0.3816  0.1851
  994MOL0     C34101   2.062   5.938   2.929 -0.1006 -0.4184 -0.5594
  994MOL0     C34102   1.951   5.917   3.002  1.2734  0.4678 -0.1959
  994MOL0     O34103   1.951   5.738   3.392  0.0009 -0.3940 -0.9134
  994MOL0     C34104   1.609   5.769   3.346  1.0561  0.8599  0.1039
  994MOL0     C34105   1.483   5.803   3.402  0.0010  1.2025 -0.4319
  994MOL0     N34106   0.915   5.453   3.643 -0.2713  1.2406 -1.1119
  994MOL0     N34107   0.872   5.445   3.764  0.0882  0.3855 -0.0030
  994MOL0     C34108   0.859   5.869   4.795  0.2700 -0.0141  0.8721
  994MOL0     C34109   0.845   5.926   4.922  0.2408  0.1768  0.5796
  994MOL0     C34110   0.789   6.014   5.367  0.5886  0.2620  0.7383
  994MOL0     C34111   0.874   6.016   5.481 -0.1555 -0.7922  0.1563
  994MOL0     C34112   0.825   6.065   5.598 -0.4976  0.4115 -0.0052
  994MOL0     C34113   0.691   6.099   5.613 -0.1413  0.4035 -0.6716
  994MOL0     O34114   0.666   6.142   5.740  0.1403 -0.0174  0.7867
  994MOL0     C34115   0.524   6.165   5.767 -0.4380 -0.1719 -0.0147
  994MOL0     C34116   0.529   6.234   5.909  0.4189  0.7474 -0.2783
  994MOL0     C34117   0.385   6.275   5.942 -0.5477 -0.0557 -1.1094
  994MOL0     C34118   0.385   6.367   6.076 -0.1930  1.3982  0.3745
  994MOL0     C34119   0.471   6.482   6.065  0.2632  0.0060 -0.0754
  994MOL0     C34120   0.533   6.575   6.035 -0.0254  0.8115 -0.8685
  994MOL0     C34121   0.602   6.093   5.509 -0.5969 -0.4354  0.3613
  994MOL0     C34122   0.648   6.052   5.382 -0.3294 -1.0814 -0.5456
  994MOL0     H34123   0.594   5.731   5.044  3.0888 -1.4561  4.2201
  994MOL0     H34124   0.630   5.622   4.815  0.0390  1.7064 -3.2594
  994MOL0     H34125   0.774   5.515   4.658 -2.3488 -0.3917  1.2707
  994MOL0     H34126   0.630   5.598   4.572  0.3013 -0.0759 -3.4824
  994MOL0     H34127   0.795   5.649   4.394  1.1537  0.4907  1.3566
  994MOL0     H34128   0.895   5.520   4.457 -0.5015 -1.3581  0.7385
  994MOL0     H34129   0.743   5.347   4.422  0.0644 -0.9849 -0.9692
  994MOL0     H34130   0.611   5.478   4.425  0.7336 -0.0458  1.2290
  994MOL0     H34131   0.618   5.355   4.231  0.7011 -0.2706  1.2281
  994MOL0     H34132   0.613   5.510   4.197 -1.3386 -0.2418  1.9649
  994MOL0     H34133   0.866   5.320   4.218 -0.4566 -0.2592  0.0573
  994MOL0     H34134   0.777   5.339   4.070 -0.7696 -0.3439 -0.1447
  994MOL0     H34135   0.927   5.570   4.210  0.1811 -1.8694  1.4888
  994MOL0     H34136   0.981   5.489   4.077  0.2588  1.0467  0.0982
  994MOL0     H34137   0.737   5.676   4.101 -1.2073 -0.0138 -1.3648
  994MOL0     H34138   0.883   5.699   4.001  0.2237  1.4714  0.5779
  994MOL0     H34139   0.642   5.640   3.893  0.4137 -1.3096 -2.6363
  994MOL0     H34140   0.674   5.475   3.946 -1.5133  1.4682 -0.3279
  994MOL0     H34141   0.730   5.724   3.679  2.8192  1.9796 -2.0067
  994MOL0     H34142   0.956   5.549   3.387 -0.1886 -0.2166  1.0399
  994MOL0     H34143   0.821   5.651   3.406  1.2764  2.8780  0.3229
  994MOL0     H34144   0.950   5.805   3.550 -2.3754  0.5305 -2.2121
  994MOL0     H34145   1.003   5.805   3.381  2.0495 -1.9410 -0.8639
  994MOL0     H34146   1.219   5.675   3.450  1.6280  1.0423  1.3667
  994MOL0     H34147   1.152   5.654   3.616  0.4550  2.0156  0.9368
  994MOL0     H34148   1.164   5.901   3.645 -1.0750  0.8481 -1.4576
  994MOL0     H34149   1.212   5.914   3.476  0.4438  0.2566  0.3658
  994MOL0     H34150   1.567   5.898   3.711 -1.9360  1.2183 -0.3667
  994MOL0     H34151   1.868   5.788   3.673  2.0880 -0.2770  0.4602
  994MOL0     H34152   1.921   5.933   3.581 -0.2259  0.2546 -0.9731
  994MOL0     H34153   1.810   5.952   3.714 -0.8895 -1.8531  0.0968
  994MOL0     H34154   2.089   5.698   3.234 -1.3249  0.1986  0.1733
  994MOL0     H34155   2.281   5.731   3.085  0.5414 -1.4257 -0.2370
  994MOL0     H34156   2.418   5.902   3.048  0.7079 -0.9788  0.4676
  994MOL0     H34157   2.472   5.809   2.914  0.0396 -0.8654  2.5667
  994MOL0     H34158   2.491   6.023   2.780 -2.7456  0.1042  0.8055
  994MOL0     H34159   2.489   6.114   2.940  1.4942  1.4387 -1.1942
  994MOL0     H34160   2.672   5.931   2.787 -0.2229  1.5339 -0.0738
  994MOL0     H34161   2.674   5.911   2.971 -0.0299  1.2359  1.8991
  994MOL0     H34162   2.730   6.167   2.821  0.6867  0.2531  1.1141
  994MOL0     H34163   2.700   6.166   2.993 -1.4839 -0.1703 -0.3627
  994MOL0     H34164   2.935   6.055   2.822  0.1311  2.9041 -0.8022
  994MOL0     H34165   2.924   6.002   2.993 -3.0929 -2.0507 -0.1656
  994MOL0     H34166   2.966   6.286   2.902 -0.0394  0.0438  1.0491
  994MOL0     H34167   2.955   6.237   3.072  0.4741 -3.1737  2.0868
  994MOL0     H34168   3.130   6.145   2.848  1.1876 -2.7745 -0.0174
  994MOL0     H34169   3.140   6.067   3.006  3.9321 -0.0804 -0.8338
  994MOL0     H34170   3.195   6.282   3.116 -1.3292  1.4070 -0.6219
  994MOL0     H34171   3.226   6.356   2.954  1.4061  0.4147 -0.8526
  994MOL0     H34172   2.071   6.010   2.849  2.9774  0.0404  0.1065
  994MOL0     H34173   1.856   5.964   2.981  1.0725  0.6802  1.0616
  994MOL0     H34174   1.609   5.716   3.251 -0.1323  1.4953 -0.2755
  994MOL0     H34175   1.392   5.789   3.344 -1.3457  0.5848  1.7250
  994MOL0     H34176   0.927   5.906   4.719  0.6877  0.4544  1.4681
  994MOL0     H34177   0.918   6.003   4.948  4.0165 -3.4503  1.7130
  994MOL0     H34178   0.972   5.974   5.462  0.1779 -0.5604  1.2897
  994MOL0     H34179   0.901   6.072   5.675  0.6322 -3.1436 -0.6097
  994MOL0     H34180   0.474   6.236   5.700 -1.3239 -0.6823  0.0873
  994MOL0     H34181   0.469   6.071   5.767  0.8655 -0.9759 -1.2192
  994MOL0     H34182   0.597   6.316   5.884  0.6835 -0.2814 -3.4645
  994MOL0     H34183   0.579   6.180   5.989  0.9172  2.0846  0.3523
  994MOL0     H34184   0.330   6.182   5.961 -1.7432  0.3415 -2.4256
  994MOL0     H34185   0.337   6.322   5.855 -1.2333 -0.9810 -1.2502
  994MOL0     H34186   0.411   6.309   6.164  2.1230  2.0245  0.1845
  994MOL0     H34187   0.286   6.409   6.091 -1.3834 -1.0650 -0.1552
  994MOL0     H34188   0.601   6.656   6.014 -0.5649  2.3750  2.7253
  994MOL0     H34189   0.495   6.112   5.515 -0.2757  1.7954 -0.1147
  994MOL0     H34190   0.573   6.060   5.304 -0.5873  1.4522 -0.1113
  995MOL0     O34191   4.963   3.817   2.909 -0.2684 -0.8925  0.1711
  995MOL0     C34192   5.053   3.735   2.880 -0.4163 -0.6577  0.2046
  995MOL0     O34193   5.043   3.595   2.888 -0.0210 -0.1924  0.4950
  995MOL0     C34194   4.934   3.537   2.947  0.0462  0.5422  0.6121
  995MOL0     C34195   4.824   3.498   2.876  0.0276  0.2313  1.1769
  995MOL0     C34196   4.717   3.438   2.937 -0.0265 -0.3771 -0.1351
  995MOL0     C34197   4.720   3.407   3.079 -0.4287 -0.5033  0.1748
  995MOL0     O34198   4.643   3.319   3.149 -0.0598  0.6173 -0.4103
  995MOL0     C34199   4.565   3.222   3.077  0.8114  0.4003  0.2529
  995MOL0     C34200   4.453   3.146   3.164 -0.2326 -0.3327  0.6374
  995MOL0     C34201   4.362   3.238   3.251  0.2682  0.5406 -0.7376
  995MOL0     C34202   4.279   3.335   3.163  0.0128  0.1062 -0.1139
  995MOL0     C34203   4.174   3.400   3.257  0.2999 -0.3926 -0.1049
  995MOL0     C34204   4.058   3.305   3.296 -0.5144 -0.3817 -0.2625
  995MOL0     C34205   3.946   3.382   3.366  0.2318 -0.1625 -0.1316
  995MOL0     C34206   3.853   3.454   3.273  0.2662 -0.4847 -0.0273
  995MOL0     N34207   3.755   3.363   3.218  0.0197 -0.2982 -0.0195
  995MOL0     C34208   3.666   3.289   3.297  0.4945  0.0746 -0.4000
  995MOL0     C34209   3.573   3.247   3.207  0.3811 -0.4862 -0.1309
  995MOL0     C34210   3.460   3.154   3.253  1.3304  0.0271  0.0975
  995MOL0     C34211   3.396   3.186   3.390 -1.3538  0.1974 -0.2294
  995MOL0     C34212   3.279   3.084   3.404 -0.2131 -0.0733  0.4974
  995MOL0     C34213   3.195   3.120   3.526 -1.1991 -0.4842 -0.6603
  995MOL0     O34214   3.065   3.055   3.518 -0.3495  0.5275  0.8067
  995MOL0     C34215   2.954   3.089   3.448 -0.6855  0.5487 -0.2412
  995MOL0     C34216   2.869   2.981   3.429  0.3111 -0.3801  0.2702
  995MOL0     C34217   2.741   3.003   3.370  0.3082 -0.7212  0.3278
  995MOL0     C34218   2.661   2.885   3.358 -0.1711 -0.7475  0.3372
  995MOL0     C34219   2.696   3.126   3.322  0.0145 -0.2139 -0.4077
  995MOL0     C34220   2.570   3.152   3.254  0.4339  0.3665  1.4306
  995MOL0     O34221   2.529   3.077   3.151 -0.7870 -0.2990  0.6746
  995MOL0     C34222   2.403   3.106   3.096  1.0681  0.1519  0.2042
  995MOL0     C34223   2.280   3.076   3.149  0.1977  0.5215 -0.1328
  995MOL0     C34224   2.161   3.109   3.079  0.2087 -0.3350  0.1150
  995MOL0     C34225   2.159   3.159   2.951  0.8677 -1.0847  0.4316
  995MOL0     O34226   2.051   3.175   2.864 -1.0738 -0.0219  0.1723
  995MOL0     C34227   1.918   3.179   2.923  0.0754 -0.3367  0.9069
  995MOL0     C34228   1.828   3.159   2.800  1.0020 -0.8751 -0.5298
  995MOL0     C34229   1.793   3.019   2.774  0.4930 -0.4922 -0.1632
  995MOL0     C34230   1.693   2.955   2.874  0.3673  0.3615  0.9062
  995MOL0     C34231   1.666   2.805   2.829  0.4031  0.5327 -0.2466
  995MOL0     C34232   1.581   2.730   2.928 -0.9594 -0.0371 -0.4239
  995MOL0     C34233   1.587   2.573   2.909  0.7591  0.1966 -0.3109
  995MOL0     C34234   1.482   2.533   2.798 -0.4834  0.1674 -0.6784
  995MOL0    Cl34235   1.311   2.542   2.854 -0.2590 -0.1323  0.3646
  995MOL0     C34236   2.280   3.205   2.909 -0.6730 -0.4850  0.5832
  995MOL0     C34237   2.400   3.168   2.974  0.5059 -0.1504  1.0140
  995MOL0     O34238   2.503   3.245   3.296  0.3764 -0.3992  0.5004
  995MOL0     C34239   2.797   3.221   3.330  1.1335 -0.2116  0.1232
  995MOL0     C34240   2.922   3.209   3.386  0.0009  0.6860 -0.7910
  995MOL0     N34241   3.616   3.281   3.078 -0.7428 -0.8254  0.3963
  995MOL0     N34242   3.727   3.346   3.087 -0.1321 -0.4724  0.2182
  995MOL0     C34243   4.832   3.455   3.150  0.3934 -0.3794 -0.3644
  995MOL0     C34244   4.933   3.522   3.084 -0.0230 -0.2135  0.6221
  995MOL0     C34245   5.194   3.780   2.846 -0.0518  0.2928 -0.1908
  995MOL0     C34246   5.202   3.910   2.798 -0.3462 -0.1786  0.2790
  995MOL0     C34247   5.329   3.959   2.755 -0.3678 -0.8056  0.4165
  995MOL0     C34248   5.439   3.870   2.769 -0.8703 -0.6807  0.7686
  995MOL0     O34249   5.564   3.931   2.739  0.3673 -0.2010 -0.4352
  995MOL0     C34250   5.633   3.863   2.629  0.7206 -0.5508 -0.2797
  995MOL0     C34251   5.573   3.881   2.494 -0.1488  0.9921  0.2116
  995MOL0     C34252   5.676   3.811   2.402  0.1407  0.2802  0.4602
  995MOL0     C34253   5.720   3.874   2.265 -0.7930 -0.5497 -0.2858
  995MOL0     C34254   5.769   4.013   2.293  0.4252 -0.1902 -0.1580
  995MOL0     C34255   5.834   4.114   2.335  0.6472  0.0839 -0.2840
  995MOL0     C34256   5.424   3.748   2.833 -0.2288 -0.3168  0.4677
  995MOL0     C34257   5.303   3.692   2.860 -0.0641 -1.6186 -0.5856
  995MOL0     H34258   4.826   3.517   2.769 -1.2894 -1.6646  0.7819
  995MOL0     H34259   4.632   3.415   2.874  0.7660 -1.8836 -0.6935
  995MOL0     H34260   4.510   3.256   2.988  0.2593 -2.3495 -0.5389
  995MOL0     H34261   4.628   3.140   3.042  1.3047  1.1182 -0.5765
  995MOL0     H34262   4.397   3.090   3.088  2.6219 -0.0349 -1.8998
  995MOL0     H34263   4.498   3.098   3.251  1.4436  2.3505  1.3995
  995MOL0     H34264   4.303   3.166   3.309  0.6807  1.6426  1.1563
  995MOL0     H34265   4.427   3.296   3.318  0.1083  1.0568 -1.0252
  995MOL0     H34266   4.345   3.408   3.115  0.0699 -0.9351 -1.7254
  995MOL0     H34267   4.234   3.283   3.078  0.0273  3.9512 -2.6939
  995MOL0     H34268   4.212   3.436   3.353  0.3320  0.4563 -0.4296
  995MOL0     H34269   4.133   3.487   3.205  2.5097  1.5796  1.2424
  995MOL0     H34270   4.025   3.250   3.207  0.7004 -2.8067  0.6677
  995MOL0     H34271   4.093   3.222   3.359  0.5067  0.1873 -0.0622
  995MOL0     H34272   3.891   3.314   3.431  1.2663  1.9577  3.2555
  995MOL0     H34273   3.984   3.460   3.433  1.2520  0.3880 -1.3145
  995MOL0     H34274   3.908   3.504   3.192  3.6003 -1.0036  1.7339
  995MOL0     H34275   3.800   3.532   3.328 -0.6150  0.0178 -1.5348
  995MOL0     H34276   3.672   3.267   3.403  0.2715  2.6443  0.2192
  995MOL0     H34277   3.375   3.175   3.188  0.9379  0.8606  0.8593
  995MOL0     H34278   3.494   3.053   3.229 -0.0281 -0.5098  0.3425
  995MOL0     H34279   3.358   3.288   3.399 -0.0178  0.6181  1.1598
  995MOL0     H34280   3.484   3.174   3.454  0.3909  0.3589 -2.4836
  995MOL0     H34281   3.317   2.982   3.406  2.1315  0.7186 -0.3654
  995MOL0     H34282   3.209   3.088   3.319 -0.4671  1.3550  0.7494
  995MOL0     H34283   3.173   3.227   3.537 -0.5183 -0.1139 -2.5755
  995MOL0     H34284   3.244   3.099   3.622 -0.0098  3.8156 -0.1153
  995MOL0     H34285   2.896   2.881   3.464  2.4837  0.5987  1.6276
  995MOL0     H34286   2.708   2.831   3.276  2.8399 -0.8396  1.9708
  995MOL0     H34287   2.669   2.810   3.438  2.7473 -4.9492 -3.3770
  995MOL0     H34288   2.556   2.906   3.334 -0.0695 -0.1827  0.3697
  995MOL0     H34289   2.275   3.029   3.247  0.5235 -0.2782 -0.4901
  995MOL0     H34290   2.069   3.079   3.127 -0.2725  0.6784 -0.1446
  995MOL0     H34291   1.897   3.105   3.000  0.3491 -1.2566  0.1225
  995MOL0     H34292   1.888   3.276   2.963 -0.3087  0.5601 -1.3696
  995MOL0     H34293   1.741   3.223   2.818  0.2774 -0.5211 -4.3274
  995MOL0     H34294   1.882   3.201   2.714 -1.4569  1.9143 -0.8936
  995MOL0     H34295   1.880   2.954   2.793  0.7908  0.1728  0.8119
  995MOL0     H34296   1.764   3.016   2.669  0.0085  2.6741 -0.2138
  995MOL0     H34297   1.740   2.942   2.971  2.1178  1.3405  0.2426
  995MOL0     H34298   1.604   3.019   2.878 -0.2561 -0.5190  1.4212
  995MOL0     H34299   1.765   2.761   2.817  0.6521  1.4037 -1.5393
  995MOL0     H34300   1.612   2.793   2.735 -2.3653 -1.5140  1.4337
  995MOL0     H34301   1.604   2.753   3.033  1.0056  0.2851 -0.8876
  995MOL0     H34302   1.476   2.761   2.921 -0.7914  0.7010  0.1202
  995MOL0     H34303   1.568   2.533   3.009  2.6286  2.8437  1.2235
  995MOL0     H34304   1.686   2.548   2.871  0.6678  0.0294 -0.4410
  995MOL0     H34305   1.491   2.428   2.766  0.1362 -0.0647  0.2236
  995MOL0     H34306   1.494   2.613   2.724  0.7383  1.2337  0.6113
  995MOL0     H34307   2.275   3.250   2.810 -2.1231  4.2607  2.5264
  995MOL0     H34308   2.494   3.191   2.925  0.7069 -0.6823  1.1338
  995MOL0     H34309   2.763   3.320   3.301 -0.2072 -0.7824 -0.3353
  995MOL0     H34310   2.999   3.285   3.389  1.5908 -0.8441  2.2055
  995MOL0     H34311   4.842   3.444   3.257 -3.7163 -0.9239  0.1197
  995MOL0     H34312   5.011   3.578   3.134  0.7051 -0.4350 -0.2407
  995MOL0     H34313   5.123   3.984   2.793  2.1939  2.6969 -4.0050
  995MOL0     H34314   5.338   4.057   2.708  3.0983 -1.2638 -0.1223
  995MOL0     H34315   5.737   3.897   2.631 -0.1836  2.8120 -2.1696
  995MOL0     H34316   5.631   3.755   2.645  1.7802 -0.8152 -1.7580
  995MOL0     H34317   5.545   3.985   2.475 -1.1114  0.1486 -4.1703
  995MOL0     H34318   5.479   3.824   2.498  2.0889 -2.9560  2.0030
  995MOL0     H34319   5.647   3.710   2.370 -0.3355 -0.8995  4.0652
  995MOL0     H34320   5.776   3.791   2.442  2.0100  0.7838 -3.4591
  995MOL0     H34321   5.638   3.878   2.193  2.4680  1.2807 -4.2944
  995MOL0     H34322   5.797   3.818   2.212  1.6398  0.3824  2.0217
  995MOL0     H34323   5.889   4.196   2.376  0.8977 -0.2540  0.0646
  995MOL0     H34324   5.514   3.689   2.847  0.0714  0.0029 -0.0592
  995MOL0     H34325   5.301   3.589   2.895  2.2030 -1.5675 -0.1992
  996MOL0     O34326   1.668   9.475   6.456  0.0928 -0.6817  1.0721
  996MOL0     C34327   1.777   9.439   6.405  0.1609  0.1782  0.3745
  996MOL0     O34328   1.877   9.372   6.467 -0.5283 -0.0151 -0.0068
  996MOL0     C34329   1.842   9.330   6.596  0.4979 -0.1869  0.1302
  996MOL0     C34330   1.754   9.220   6.608  0.4032  0.2126  0.4838
  996MOL0     C34331   1.729   9.161   6.725 -0.0322  0.2601 -0.2109
  996MOL0     C34332   1.799   9.208   6.838  0.2392  0.4267 -0.6931
  996MOL0     O34333   1.760   9.150   6.953 -0.7069  0.0211  0.0229
  996MOL0     C34334   1.817   9.184   7.077 -0.2207 -1.0510  0.2872
  996MOL0     C34335   1.739   9.120   7.190 -0.3910  0.6643  0.1586
  996MOL0     C34336   1.846   9.035   7.267 -0.9733  0.1775  0.1470
  996MOL0     C34337   1.939   9.124   7.357  0.1433  0.4171 -0.0257
  996MOL0     C34338   2.056   9.041   7.430 -0.0557  0.1954  0.2984
  996MOL0     C34339   2.130   9.117   7.545  0.2674  0.1269 -0.0996
  996MOL0     C34340   2.202   9.248   7.504  0.4054  0.3836 -0.6211
  996MOL0     C34341   2.314   9.227   7.402  0.2436 -0.2342  0.1094
  996MOL0     N34342   2.352   9.358   7.349  0.1460 -0.5422 -0.0901
  996MOL0     C34343   2.415   9.464   7.420  0.6816 -0.6390 -0.3688
  996MOL0     C34344   2.402   9.574   7.340  0.0661  0.6468 -0.0128
  996MOL0     C34345   2.452   9.719   7.355 -0.4979 -0.5487 -1.0519
  996MOL0     C34346   2.598   9.725   7.345 -0.8853  0.4653 -0.2732
  996MOL0     C34347   2.661   9.655   7.225 -0.3297  0.0510  0.4070
  996MOL0     C34348   2.814   9.670   7.246  0.3599  0.3613  0.4477
  996MOL0     O34349   2.860   9.776   7.166 -0.1205 -0.0211 -1.5222
  996MOL0     C34350   2.963   9.862   7.203 -0.1697 -0.3454 -0.5246
  996MOL0     C34351   3.067   9.838   7.302 -0.6347  0.7104  0.1752
  996MOL0     C34352   3.171   9.929   7.328  0.6767 -0.0628 -0.3880
  996MOL0     C34353   3.270   9.892   7.442  0.4486 -0.4771  0.0143
  996MOL0     C34354   3.176  10.049   7.252 -0.0197 -0.3482  1.1656
  996MOL0     C34355   3.274  10.161   7.273  0.5081  0.5505 -0.6698
  996MOL0     O34356   3.311  10.226   7.162 -0.7162 -0.3059  0.0301
  996MOL0     C34357   3.248  10.346   7.132 -0.8225 -0.6749  0.2896
  996MOL0     C34358   3.297  10.410   7.016 -0.3071  0.3836 -0.6719
  996MOL0     C34359   3.229  10.520   6.973  1.7209 -0.1837  0.1207
  996MOL0     C34360   3.113  10.579   7.039  0.8947  0.5031 -0.7648
  996MOL0     O34361   3.057  10.698   6.998  0.5610  0.1646 -0.1058
  996MOL0     C34362   3.142  10.817   7.000  1.0060 -0.1676 -0.2979
  996MOL0     C34363   3.105  10.885   6.874  0.8538  0.7532 -0.0914
  996MOL0     C34364   2.973  10.958   6.904 -0.5951 -0.9620 -0.2618
  996MOL0     C34365   2.900  11.006   6.773  0.0397 -0.2086 -0.2697
  996MOL0     C34366   2.752  11.048   6.800 -0.5649 -0.2431 -0.5368
  996MOL0     C34367   2.660  10.923   6.806 -0.3562  0.8266  0.3113
  996MOL0     C34368   2.619  10.886   6.669  0.8372  0.5479 -0.3729
  996MOL0     C34369   2.520  10.759   6.674 -0.7081 -0.1038 -0.0967
  996MOL0    Cl34370   2.376  10.793   6.775 -0.2399  0.2099  0.3983
  996MOL0     C34371   3.062  10.498   7.141  0.5775 -0.8121 -0.2881
  996MOL0     C34372   3.128  10.383   7.189  0.4690 -0.7575 -0.4153
  996MOL0     O34373   3.319  10.181   7.391  0.5632  0.3937  0.5460
  996MOL0     C34374   3.086  10.056   7.141 -0.0184 -0.1372  0.3374
  996MOL0     C34375   2.983   9.971   7.125  0.1542 -0.4251 -0.1249
  996MOL0     N34376   2.353   9.530   7.221  0.0520  0.0292  0.9457
  996MOL0     N34377   2.329   9.402   7.225  0.7306 -0.4209  1.0585
  996MOL0     C34378   1.893   9.313   6.828 -1.1491 -0.2814  0.3907
  996MOL0     C34379   1.919   9.378   6.707 -0.0093 -0.4589  1.9108
  996MOL0     C34380   1.825   9.517   6.290 -0.4201 -0.1619 -0.0444
  996MOL0     C34381   1.960   9.551   6.280 -0.6285 -0.6041 -0.2893
  996MOL0     C34382   2.014   9.633   6.177 -0.1514  0.1482  0.7715
  996MOL0     C34383   1.929   9.680   6.076 -0.2041  0.1725  0.4159
  996MOL0     O34384   1.988   9.745   5.975  0.8325 -0.2369 -0.8994
  996MOL0     C34385   1.950   9.719   5.837 -0.5489  0.6029 -0.4870
  996MOL0     C34386   2.080   9.713   5.760 -0.3038  0.5076  0.3310
  996MOL0     C34387   2.062   9.666   5.607 -0.5525 -0.4759 -0.8859
  996MOL0     C34388   2.199   9.652   5.527 -0.1561 -0.4427 -0.2208
  996MOL0     C34389   2.291   9.763   5.544  0.0401 -0.3802  0.1232
  996MOL0     C34390   2.366   9.855   5.526 -0.5397  0.0081  0.3487
  996MOL0     C34391   1.788   9.656   6.086 -0.2072  0.2941  0.2838
  996MOL0     C34392   1.739   9.567   6.190  0.0254 -0.0643  0.2754
  996MOL0     H34393   1.710   9.181   6.517  3.4880  1.7565 -1.8372
  996MOL0     H34394   1.661   9.077   6.719  1.7952 -1.8022  3.9580
  996MOL0     H34395   1.923   9.156   7.088 -0.2614 -0.3062  4.2609
  996MOL0     H34396   1.799   9.290   7.100 -1.7001 -1.3948  0.8138
  996MOL0     H34397   1.700   9.193   7.262 -0.5368  1.3723 -0.6287
  996MOL0     H34398   1.657   9.057   7.153  0.8702 -1.8453  1.3794
  996MOL0     H34399   1.803   8.955   7.328  0.3691  0.4073  1.4463
  996MOL0     H34400   1.906   8.979   7.195  0.2756  0.3403  1.0257
  996MOL0     H34401   1.980   9.209   7.302  1.7348 -0.5225 -0.3589
  996MOL0     H34402   1.873   9.162   7.435 -2.8690 -2.8328 -0.6931
  996MOL0     H34403   2.001   8.953   7.467 -0.9676  0.4566 -0.4115
  996MOL0     H34404   2.140   9.004   7.371  0.4270  2.5827 -0.6129
  996MOL0     H34405   2.060   9.143   7.626  1.4040  3.3555  0.0060
  996MOL0     H34406   2.200   9.040   7.576  1.0186  1.1009  0.7062
  996MOL0     H34407   2.120   9.310   7.465  0.9113  0.4200 -1.6635
  996MOL0     H34408   2.247   9.283   7.597  4.2986 -1.4683 -1.5962
  996MOL0     H34409   2.277   9.174   7.314 -3.4135  3.7097 -1.0867
  996MOL0     H34410   2.398   9.173   7.448  0.7523 -0.4380 -1.0368
  996MOL0     H34411   2.458   9.457   7.520  0.6138 -1.5980 -0.4054
  996MOL0     H34412   2.410   9.773   7.270 -2.4948 -3.8822 -2.3770
  996MOL0     H34413   2.418   9.766   7.447  1.4111 -1.2604  0.0890
  996MOL0     H34414   2.639   9.676   7.434 -1.6278  0.8442  0.2937
  996MOL0     H34415   2.629   9.828   7.331  0.1369 -0.0338 -1.8481
  996MOL0     H34416   2.632   9.680   7.123  0.6367 -1.6701 -0.3417
  996MOL0     H34417   2.644   9.547   7.235  1.1176 -0.1461  0.9728
  996MOL0     H34418   2.866   9.576   7.226 -0.4000 -0.6673  2.9711
  996MOL0     H34419   2.839   9.684   7.351  1.0068 -3.9280  1.0243
  996MOL0     H34420   3.055   9.760   7.376 -1.5585  0.9489  0.2934
  996MOL0     H34421   3.372   9.892   7.403 -0.5034 -1.1780 -2.7012
  996MOL0     H34422   3.262   9.955   7.531 -1.8922 -0.9087  0.1847
  996MOL0     H34423   3.258   9.790   7.478  4.1346  0.0124  3.2680
  996MOL0     H34424   3.377  10.358   6.963 -0.1714  0.2658 -0.3559
  996MOL0     H34425   3.262  10.567   6.881  2.6629 -1.2598 -0.1286
  996MOL0     H34426   3.109  10.874   7.088 -1.6915 -0.5732 -0.9466
  996MOL0     H34427   3.247  10.787   7.001  0.8246 -0.8213  0.3122
  996MOL0     H34428   3.169  10.970   6.848 -0.2141  1.3537 -0.7967
  996MOL0     H34429   3.106  10.826   6.783 -2.3693  1.0149 -0.3875
  996MOL0     H34430   2.994  11.039   6.974 -0.5317 -2.6215  1.7675
  996MOL0     H34431   2.905  10.884   6.948 -0.5351 -2.7456 -2.9313
  996MOL0     H34432   2.955  11.090   6.729  0.0748  0.0346  0.2393
  996MOL0     H34433   2.905  10.925   6.700  0.5126 -0.2883 -0.1547
  996MOL0     H34434   2.715  11.109   6.718  0.2951  1.0959  0.0455
  996MOL0     H34435   2.735  11.106   6.891 -1.5287  2.0628 -2.1107
  996MOL0     H34436   2.716  10.846   6.861 -0.0039  1.8525  1.4437
  996MOL0     H34437   2.572  10.949   6.866 -1.2754 -1.4147  0.0246
  996MOL0     H34438   2.709  10.878   6.607  0.7697  2.6808 -0.8161
  996MOL0     H34439   2.559  10.964   6.622 -1.6280 -2.3001 -2.3445
  996MOL0     H34440   2.575  10.675   6.717 -2.7105 -0.7239  1.4063
  996MOL0     H34441   2.497  10.726   6.572 -0.9035 -2.7617  0.7364
  996MOL0     H34442   2.973  10.531   7.194 -0.3850 -1.1532 -1.6201
  996MOL0     H34443   3.085  10.324   7.269  2.2920 -2.0723 -0.3571
  996MOL0     H34444   3.080  10.148   7.084  0.7939  0.1685  0.7220
  996MOL0     H34445   2.922   9.966   7.036  2.3816  1.2083 -1.8529
  996MOL0     H34446   1.950   9.338   6.917  1.0483 -2.6663 -0.2257
  996MOL0     H34447   1.989   9.460   6.697 -1.1262  0.3454  0.2115
  996MOL0     H34448   2.032   9.509   6.349 -1.5276  3.0897  3.2770
  996MOL0     H34449   2.120   9.650   6.188 -0.2920  0.1840  2.3249
  996MOL0     H34450   1.886   9.635   5.809  0.2596 -0.6809  1.2817
  996MOL0     H34451   1.898   9.807   5.798  1.6219  2.0377 -0.3626
  996MOL0     H34452   2.146   9.643   5.812  1.9717  1.9657 -0.4688
  996MOL0     H34453   2.132   9.809   5.765 -1.0353  0.8467  2.5745
  996MOL0     H34454   2.004   9.742   5.554 -0.0720  2.5330  2.4793
  996MOL0     H34455   2.010   9.571   5.622  0.2368 -0.9394 -1.0239
  996MOL0     H34456   2.172   9.642   5.421 -3.4480 -0.1244  0.4844
  996MOL0     H34457   2.261   9.566   5.555 -0.7106 -0.6956  0.2620
  996MOL0     H34458   2.437   9.932   5.505  0.0345 -0.9266 -1.2825
  996MOL0     H34459   1.715   9.694   6.015 -0.6400  0.0921  0.6157
  996MOL0     H34460   1.632   9.551   6.189 -0.1552  0.5777 -3.2517
  997MOL0     O34461   7.041   0.976   7.337  0.4652 -0.0724 -0.7724
  997MOL0     C34462   7.048   0.856   7.305  0.5797 -0.1540 -1.1986
  997MOL0     O34463   7.032   0.753   7.396 -0.2552  0.1777 -0.1968
  997MOL0     C34464   6.996   0.788   7.528  0.3165 -0.1132 -0.0076
  997MOL0     C34465   6.871   0.845   7.552 -0.3988 -0.1716  0.1412
  997MOL0     C34466   6.829   0.864   7.680 -1.3154 -0.0638 -0.0092
  997MOL0     C34467   6.922   0.841   7.786  0.2316 -0.3014  0.1969
  997MOL0     O34468   6.888   0.871   7.913  0.0236 -0.0693 -0.1329
  997MOL0     C34469   6.790   0.781   7.972 -0.3793 -0.3682 -0.6679
  997MOL0     C34470   6.712   0.868   8.063  0.2135  1.0768  0.2879
  997MOL0     C34471   6.682   0.793   8.196 -0.2418  0.4088 -0.6941
  997MOL0     C34472   6.561   0.710   8.190 -0.0036 -0.5198  0.3024
  997MOL0     C34473   6.508   0.662   8.327 -0.5092  0.5331 -0.1167
  997MOL0     C34474   6.477   0.778   8.424  0.2250 -0.0262  0.0249
  997MOL0     C34475   6.396   0.890   8.368  0.7420 -0.6943  0.7608
  997MOL0     C34476   6.345   0.964   8.486 -0.4628 -0.6591  0.3150
  997MOL0     N34477   6.238   0.885   8.563 -1.2951 -0.4234  0.4306
  997MOL0     C34478   6.173   0.927   8.678  0.3862  0.7217 -0.0271
  997MOL0     C34479   6.066   0.845   8.696 -0.4931  0.6087 -0.2623
  997MOL0     C34480   5.977   0.833   8.810 -0.2489  0.2354 -0.7114
  997MOL0     C34481   5.833   0.888   8.779 -0.2194 -0.1282  1.3136
  997MOL0     C34482   5.741   0.898   8.894  0.0988 -0.5573 -0.5873
  997MOL0     C34483   5.734   0.764   8.973  0.2465  0.6483 -0.6922
  997MOL0     O34484   5.839   0.767   9.076  0.1112  0.4167  0.6774
  997MOL0     C34485   5.878   0.637   9.115 -0.1818 -0.6941 -0.7617
  997MOL0     C34486   5.796   0.526   9.101 -0.6992  0.1283 -0.5778
  997MOL0     C34487   5.841   0.397   9.145  0.1483  0.6839 -0.6635
  997MOL0     C34488   5.756   0.279   9.109 -0.3124  0.2352 -0.6811
  997MOL0     C34489   5.970   0.382   9.199  0.8082 -0.3499 -1.3365
  997MOL0     C34490   6.034   0.249   9.234  0.6295 -0.8749 -0.3361
  997MOL0     O34491   6.028   0.139   9.148  0.1158 -0.0875 -0.1780
  997MOL0     C34492   6.144   0.067   9.148  0.0918  0.5955 -0.5355
  997MOL0     C34493   6.139  -0.037   9.234 -1.0759  0.2782 -0.6287
  997MOL0     C34494   6.247  -0.124   9.246 -0.0561 -0.7781 -0.0990
  997MOL0     C34495   6.370  -0.106   9.178  0.5728  0.0924 -0.7882
  997MOL0     O34496   6.466  -0.201   9.195 -0.6443 -0.0693  0.2919
  997MOL0     C34497   6.591  -0.179   9.120  0.4565 -1.2536 -1.3332
  997MOL0     C34498   6.686  -0.287   9.165 -0.2076  0.1406  0.3741
  997MOL0     C34499   6.760  -0.349   9.042  0.0895  0.4983 -0.1388
  997MOL0     C34500   6.656  -0.428   8.943  0.6793  0.3955 -0.6731
  997MOL0     C34501   6.616  -0.557   9.015  1.3955 -0.3131  0.4883
  997MOL0     C34502   6.523  -0.639   8.929  0.9408 -0.2828  0.3979
  997MOL0     C34503   6.464  -0.769   8.999  0.0079 -0.0270  0.3502
  997MOL0     C34504   6.357  -0.725   9.100 -0.2745 -0.4585 -0.0838
  997MOL0    Cl34505   6.215  -0.679   9.018 -0.0770  0.1780 -0.2700
  997MOL0     C34506   6.368   0.005   9.087  0.1509 -0.6136 -0.9446
  997MOL0     C34507   6.258   0.099   9.080 -0.0059 -0.7811  0.5354
  997MOL0     O34508   6.092   0.256   9.342  0.2942 -0.5535 -0.6957
  997MOL0     C34509   6.047   0.497   9.229  0.7200 -0.6563 -0.9696
  997MOL0     C34510   5.994   0.621   9.187 -0.2328  0.2231  0.0616
  997MOL0     N34511   6.065   0.753   8.589  0.1388  0.3972 -0.0739
  997MOL0     N34512   6.161   0.785   8.510 -0.5631 -0.2926  0.3615
  997MOL0     C34513   7.044   0.787   7.761  0.3722 -0.3941 -0.7595
  997MOL0     C34514   7.081   0.774   7.630 -0.0932  0.8582  0.0286
  997MOL0     C34515   7.050   0.818   7.159  0.4295 -0.0250 -0.4356
  997MOL0     C34516   7.069   0.683   7.121 -1.2252 -0.3083  0.0661
  997MOL0     C34517   7.087   0.648   6.990 -0.2782 -0.0068  0.3816
  997MOL0     C34518   7.062   0.731   6.886 -1.0693  0.4596 -0.6045
  997MOL0     O34519   7.076   0.686   6.754 -0.3504  0.3017 -0.5079
  997MOL0     C34520   7.137   0.784   6.673  0.0109  0.2154 -0.4470
  997MOL0     C34521   7.177   0.720   6.540 -0.1673  0.1583  0.1049
  997MOL0     C34522   7.193   0.817   6.422 -0.7070  0.1234 -0.5916
  997MOL0     C34523   7.070   0.847   6.331 -0.7583 -0.0216  0.2527
  997MOL0     C34524   7.015   0.961   6.402  0.3883  0.0045 -0.3182
  997MOL0     C34525   6.953   1.052   6.457 -0.0853 -0.5985  0.1332
  997MOL0     C34526   7.039   0.870   6.923  0.9701 -0.0505  0.3560
  997MOL0     C34527   7.038   0.914   7.054  0.3283  0.4909 -0.4604
  997MOL0     H34528   6.791   0.849   7.479 -3.0527 -1.9142  2.7266
  997MOL0     H34529   6.735   0.909   7.712 -2.1251 -1.3299 -0.5188
  997MOL0     H34530   6.722   0.742   7.895 -1.3626  2.1485 -1.1446
  997MOL0     H34531   6.853   0.701   8.013  0.3747  0.1106 -0.8741
  997MOL0     H34532   6.778   0.953   8.084  3.4288 -1.3168  0.7162
  997MOL0     H34533   6.629   0.904   8.002 -0.8798  0.3092  1.2833
  997MOL0     H34534   6.766   0.736   8.235  0.9229  2.8211  0.5361
  997MOL0     H34535   6.672   0.864   8.279  1.7940 -0.9556  0.8032
  997MOL0     H34536   6.487   0.775   8.143  0.0918 -1.9675 -1.9770
  997MOL0     H34537   6.568   0.624   8.123  0.1948  0.2632 -0.7155
  997MOL0     H34538   6.417   0.603   8.317  0.0804 -0.3146 -0.6595
  997MOL0     H34539   6.593   0.606   8.367 -1.2753  0.2491  1.1645
  997MOL0     H34540   6.427   0.738   8.513 -0.7274  0.0291 -0.4778
  997MOL0     H34541   6.576   0.810   8.459 -0.1136 -0.2462  1.2580
  997MOL0     H34542   6.456   0.962   8.310  0.0211 -1.6212 -1.2165
  997MOL0     H34543   6.318   0.853   8.301  1.1507  0.5377 -0.4490
  997MOL0     H34544   6.299   1.059   8.457  2.6385  0.8196 -0.1027
  997MOL0     H34545   6.433   0.978   8.549  0.2816  1.5662 -1.0911
  997MOL0     H34546   6.211   1.005   8.743  1.8269  0.3388 -0.3684
  997MOL0     H34547   5.980   0.728   8.843 -1.4073  0.5910  0.6240
  997MOL0     H34548   6.023   0.885   8.894  0.5493  0.0238 -1.0148
  997MOL0     H34549   5.791   0.824   8.701  2.0002 -0.3058  0.1985
  997MOL0     H34550   5.849   0.980   8.722 -0.7440 -0.8689 -0.0568
  997MOL0     H34551   5.638   0.913   8.860  1.2418  1.1222 -3.6814
  997MOL0     H34552   5.759   0.985   8.958 -4.6453 -1.2185  2.1658
  997MOL0     H34553   5.739   0.680   8.903 -2.4841 -0.7436  0.6184
  997MOL0     H34554   5.635   0.755   9.020 -0.6384 -1.2587 -2.7014
  997MOL0     H34555   5.695   0.544   9.066  0.1002  0.2000 -3.0747
  997MOL0     H34556   5.745   0.216   9.198 -1.2346  3.2752  1.5288
  997MOL0     H34557   5.655   0.312   9.081 -0.9438  0.1425  1.2789
  997MOL0     H34558   5.797   0.218   9.029  1.9769  1.0316 -0.1860
  997MOL0     H34559   6.057  -0.055   9.303  1.8965  0.0453  3.1757
  997MOL0     H34560   6.237  -0.215   9.304 -2.6086 -1.9390 -2.1585
  997MOL0     H34561   6.560  -0.183   9.015 -0.9401  1.3698 -1.0980
  997MOL0     H34562   6.635  -0.081   9.140  2.2039 -1.8372 -2.0908
  997MOL0     H34563   6.757  -0.238   9.232 -0.5088 -3.8990  3.9919
  997MOL0     H34564   6.638  -0.364   9.226  0.8170 -0.8755 -0.0598
  997MOL0     H34565   6.846  -0.415   9.061 -1.4113 -1.9558 -1.3502
  997MOL0     H34566   6.794  -0.260   8.989 -2.1884 -0.0875 -2.8145
  997MOL0     H34567   6.565  -0.373   8.917 -0.0508 -1.1947 -1.6128
  997MOL0     H34568   6.702  -0.464   8.850 -0.4280 -2.3081 -0.2632
  997MOL0     H34569   6.561  -0.519   9.102  1.5250 -1.4545  1.0942
  997MOL0     H34570   6.703  -0.612   9.050  2.0499  0.3861 -0.0202
  997MOL0     H34571   6.443  -0.573   8.895 -0.1779 -1.1415  1.2878
  997MOL0     H34572   6.577  -0.669   8.838  0.4869  1.1665 -0.3799
  997MOL0     H34573   6.547  -0.809   9.058 -0.3331  2.0412  2.3977
  997MOL0     H34574   6.424  -0.831   8.919 -1.2540  0.3623  0.6561
  997MOL0     H34575   6.393  -0.650   9.171  0.9734 -2.8402  1.9832
  997MOL0     H34576   6.325  -0.815   9.154  1.4882  0.1216  2.0733
  997MOL0     H34577   6.453   0.020   9.022 -0.2572  1.1262 -1.1246
  997MOL0     H34578   6.279   0.187   9.018 -1.9367 -2.1585 -2.2834
  997MOL0     H34579   6.144   0.492   9.276 -0.3982  2.2271  2.1068
  997MOL0     H34580   6.053   0.710   9.203 -1.1747  0.5328  2.0867
  997MOL0     H34581   7.115   0.763   7.840 -0.4501 -1.4530 -0.3260
  997MOL0     H34582   7.180   0.736   7.606 -0.6615  1.2929 -3.6625
  997MOL0     H34583   7.084   0.605   7.196 -1.1700 -0.0192  0.3603
  997MOL0     H34584   7.103   0.545   6.959  0.1828 -0.1454  1.0568
  997MOL0     H34585   7.087   0.880   6.654  1.0394  1.4227  2.4533
  997MOL0     H34586   7.224   0.809   6.734 -0.7317  1.5754  0.1002
  997MOL0     H34587   7.091   0.656   6.518  0.8246 -1.1438 -0.0910
  997MOL0     H34588   7.273   0.669   6.536  0.4601  1.3825 -0.8323
  997MOL0     H34589   7.259   0.766   6.350  1.5261 -0.8892  1.9790
  997MOL0     H34590   7.243   0.906   6.462 -0.5268 -0.4314  0.4666
  997MOL0     H34591   6.996   0.766   6.322  0.1430 -0.9208  0.7756
  997MOL0     H34592   7.108   0.865   6.230  0.0016 -1.1673  0.3107
  997MOL0     H34593   6.895   1.127   6.505  0.2801 -0.6257  0.6241
  997MOL0     H34594   7.027   0.945   6.846 -2.1778 -1.0513 -0.2822
  997MOL0     H34595   7.034   1.018   7.085 -2.1279  0.3420 -0.0041
  998MOL0     O34596   9.154   4.430   4.788  0.4601 -0.1742  0.2903
  998MOL0     C34597   9.179   4.510   4.695  0.8039  0.4279 -0.4027
  998MOL0     O34598   9.086   4.542   4.603 -0.3029 -0.0784 -0.1949
  998MOL0     C34599   8.965   4.475   4.590 -0.1163 -0.0203 -0.5502
  998MOL0     C34600   8.862   4.559   4.540 -0.2843 -0.0002 -0.2853
  998MOL0     C34601   8.752   4.497   4.491  0.4200  0.4912 -0.5187
  998MOL0     C34602   8.728   4.359   4.504  1.1976  0.8504  0.3361
  998MOL0     O34603   8.615   4.288   4.462 -0.7912  0.9484  0.2397
  998MOL0     C34604   8.496   4.357   4.428 -0.7585  0.6348 -0.1975
  998MOL0     C34605   8.391   4.258   4.465  0.2670  0.5634  0.3538
  998MOL0     C34606   8.247   4.303   4.468  0.0911  0.6527  0.2794
  998MOL0     C34607   8.217   4.386   4.337 -0.2450  0.3434  0.3230
  998MOL0     C34608   8.083   4.468   4.353 -0.4963 -0.0363 -0.2684
  998MOL0     C34609   7.985   4.413   4.457 -0.3549 -0.6855  0.3928
  998MOL0     C34610   7.866   4.503   4.460  0.7203 -0.0693  0.1325
  998MOL0     C34611   7.777   4.451   4.578  0.1154 -0.4514 -0.1170
  998MOL0     N34612   7.628   4.481   4.564 -0.1835  0.1866 -0.2375
  998MOL0     C34613   7.516   4.396   4.589 -0.1630 -0.8285  0.7225
  998MOL0     C34614   7.416   4.460   4.528  0.4730 -0.0630  0.4801
  998MOL0     C34615   7.273   4.409   4.520 -0.2819  0.2673  0.5767
  998MOL0     C34616   7.166   4.492   4.588  0.7003 -0.3319  0.7749
  998MOL0     C34617   7.032   4.422   4.570  0.3643 -1.0660  0.0336
  998MOL0     C34618   7.008   4.322   4.677 -0.4102 -0.0541 -0.1474
  998MOL0     O34619   6.891   4.340   4.761  0.5722 -0.8959 -0.6203
  998MOL0     C34620   6.764   4.308   4.726 -0.4130  0.0027  0.1994
  998MOL0     C34621   6.673   4.345   4.828  0.0875  0.5593 -0.2501
  998MOL0     C34622   6.542   4.300   4.822  0.1537 -0.4418 -0.0610
  998MOL0     C34623   6.442   4.346   4.939 -0.0585 -0.1238  0.3464
  998MOL0     C34624   6.499   4.229   4.711 -0.2488  1.2959  0.5231
  998MOL0     C34625   6.371   4.151   4.709  0.7259  0.8109  0.4152
  998MOL0     O34626   6.349   4.098   4.592  0.0707  0.6634  0.3090
  998MOL0     C34627   6.236   4.023   4.562 -0.5935  0.5553 -0.1455
  998MOL0     C34628   6.106   4.023   4.617  0.1568 -0.3770 -0.1116
  998MOL0     C34629   6.013   3.936   4.571  0.7086  0.6181 -0.9693
  998MOL0     C34630   6.040   3.848   4.465  0.0961 -0.5032  0.9666
  998MOL0     O34631   5.949   3.751   4.432  0.2440 -0.0416  0.1475
  998MOL0     C34632   5.925   3.718   4.290  0.2185  0.4718 -0.6121
  998MOL0     C34633   5.815   3.617   4.290 -0.8041  0.7030 -0.1945
  998MOL0     C34634   5.674   3.685   4.300  0.0689  0.1401 -0.1692
  998MOL0     C34635   5.624   3.695   4.442  0.2496  0.2452 -0.6010
  998MOL0     C34636   5.473   3.745   4.457  0.7592 -0.2619  1.2309
  998MOL0     C34637   5.434   3.731   4.605  0.2018  0.7123 -0.1561
  998MOL0     C34638   5.508   3.835   4.686 -0.3067 -0.1011 -1.7362
  998MOL0     C34639   5.555   3.784   4.820  0.5229  0.1349 -0.9482
  998MOL0    Cl34640   5.688   3.666   4.791 -0.3907 -0.1301 -0.0286
  998MOL0     C34641   6.166   3.856   4.407  0.0372 -0.5490 -0.1442
  998MOL0     C34642   6.258   3.948   4.450  0.6145 -0.0459  0.2544
  998MOL0     O34643   6.304   4.122   4.807  0.1628  0.1818  0.3868
  998MOL0     C34644   6.585   4.202   4.602  0.1711 -0.5313  0.2082
  998MOL0     C34645   6.725   4.233   4.619 -0.0888  0.8530 -0.0037
  998MOL0     N34646   7.462   4.576   4.476 -0.7839 -0.1572 -0.4003
  998MOL0     N34647   7.582   4.582   4.504  0.0764 -0.1421  1.2341
  998MOL0     C34648   8.826   4.277   4.561  1.0005  0.9111 -0.5128
  998MOL0     C34649   8.944   4.335   4.600 -0.3434 -0.0721  0.8830
  998MOL0     C34650   9.307   4.581   4.675 -0.1055 -0.0372 -0.0564
  998MOL0     C34651   9.345   4.630   4.547 -0.0784  1.2512  0.2914
  998MOL0     C34652   9.458   4.707   4.514 -0.0633  1.1153 -0.1365
  998MOL0     C34653   9.549   4.737   4.618  0.0832 -0.6533  0.3218
  998MOL0     O34654   9.648   4.817   4.573  0.2762 -0.4776  0.0157
  998MOL0     C34655   9.776   4.817   4.654 -0.0396 -0.0613  0.3823
  998MOL0     C34656   9.902   4.839   4.570  0.5168  0.1380 -0.4145
  998MOL0     C34657   9.948   4.982   4.564  1.2823  0.5669 -0.9233
  998MOL0     C34658  10.087   5.005   4.504  0.3518 -0.4270 -0.4627
  998MOL0     C34659  10.073   4.967   4.358  0.0239 -0.7180 -0.9751
  998MOL0     C34660  10.065   4.926   4.247 -0.6244 -0.7403 -0.3898
  998MOL0     C34661   9.522   4.685   4.742 -0.3570  0.2178 -0.3878
  998MOL0     C34662   9.403   4.611   4.774 -0.3890  0.1859 -0.2766
  998MOL0     H34663   8.884   4.664   4.520 -0.1814  0.7298  3.0447
  998MOL0     H34664   8.674   4.548   4.437  0.2007  0.2435 -0.4389
  998MOL0     H34665   8.471   4.451   4.479 -2.2853 -0.0809  0.4246
  998MOL0     H34666   8.497   4.368   4.320  1.4925 -1.4703 -0.4564
  998MOL0     H34667   8.394   4.170   4.400 -1.0286 -0.0611  1.0860
  998MOL0     H34668   8.405   4.215   4.564 -1.5732  1.1779  0.9199
  998MOL0     H34669   8.180   4.217   4.479 -2.8248  2.8830  1.4828
  998MOL0     H34670   8.217   4.361   4.557 -1.6885  0.5676 -0.2168
  998MOL0     H34671   8.294   4.463   4.325 -1.7830  2.0807  1.0817
  998MOL0     H34672   8.218   4.322   4.248 -1.3438  0.2344  0.3731
  998MOL0     H34673   8.116   4.570   4.378 -2.0612  0.1463  1.3112
  998MOL0     H34674   8.033   4.467   4.256  2.2922  1.4674 -1.8393
  998MOL0     H34675   7.975   4.309   4.425  1.1247 -0.0792 -2.3852
  998MOL0     H34676   8.023   4.409   4.559 -0.7593 -1.8632  0.5038
  998MOL0     H34677   7.892   4.609   4.466 -0.6826  0.3164 -0.3031
  998MOL0     H34678   7.806   4.480   4.371  1.6505 -2.4350  0.0460
  998MOL0     H34679   7.810   4.504   4.668 -1.7142 -0.1314  0.3934
  998MOL0     H34680   7.794   4.344   4.593 -0.4170 -0.8401 -2.0802
  998MOL0     H34681   7.516   4.296   4.632 -1.9833 -2.0020 -1.7884
  998MOL0     H34682   7.243   4.401   4.415 -6.6265  2.5895  1.7933
  998MOL0     H34683   7.274   4.303   4.549  0.5669 -0.7145 -2.6000
  998MOL0     H34684   7.154   4.589   4.537  1.3947 -1.9908 -2.8851
  998MOL0     H34685   7.192   4.509   4.693  2.8195  3.9025 -0.1764
  998MOL0     H34686   7.033   4.372   4.473  1.3100  0.2956 -0.6933
  998MOL0     H34687   6.962   4.505   4.579  0.9303 -0.6345  0.5566
  998MOL0     H34688   7.084   4.324   4.756  1.2136  0.2937 -1.6570
  998MOL0     H34689   7.010   4.221   4.633 -0.2911 -0.4423  0.7255
  998MOL0     H34690   6.698   4.397   4.920  0.0366  1.2526 -0.6217
  998MOL0     H34691   6.349   4.382   4.894  1.4580 -1.9295 -5.0194
  998MOL0     H34692   6.437   4.266   5.013  5.4227 -1.2589 -0.0722
  998MOL0     H34693   6.482   4.427   5.001  1.8359 -1.6067  1.1877
  998MOL0     H34694   6.067   4.099   4.684  2.7374  0.4897  0.5416
  998MOL0     H34695   5.919   3.937   4.626  1.2932 -0.6663  0.1278
  998MOL0     H34696   5.890   3.800   4.227 -1.3718  1.8442  1.8652
  998MOL0     H34697   6.019   3.678   4.250  2.0618  3.4469  0.3774
  998MOL0     H34698   5.815   3.576   4.188  1.3531 -0.1943  0.1187
  998MOL0     H34699   5.826   3.547   4.373  0.2658 -0.4663 -1.2768
  998MOL0     H34700   5.615   3.616   4.240 -0.2461  0.1517  0.1243
  998MOL0     H34701   5.669   3.780   4.247 -2.9791  0.0385 -0.2332
  998MOL0     H34702   5.635   3.605   4.504 -0.1807  1.7776  1.8475
  998MOL0     H34703   5.689   3.759   4.501  1.9537 -3.7757  2.3870
  998MOL0     H34704   5.420   3.684   4.382  3.9882 -1.2305 -0.4263
  998MOL0     H34705   5.460   3.847   4.422  2.2458  0.3694  2.4185
  998MOL0     H34706   5.326   3.739   4.623  0.1324 -0.4373  0.0735
  998MOL0     H34707   5.455   3.628   4.635  0.2365  0.4754 -0.9748
  998MOL0     H34708   5.436   3.910   4.721  0.3432 -0.5501  0.8057
  998MOL0     H34709   5.592   3.876   4.630  2.2033 -3.2095 -0.5308
  998MOL0     H34710   5.469   3.736   4.868  0.9942 -0.7650 -0.9811
  998MOL0     H34711   5.590   3.860   4.890 -1.5476  0.9710 -0.7418
  998MOL0     H34712   6.205   3.808   4.317  1.6984 -1.8171  1.1854
  998MOL0     H34713   6.356   3.970   4.409 -0.0264  1.9359 -0.3442
  998MOL0     H34714   6.569   4.148   4.509 -3.2832  0.0717  0.3145
  998MOL0     H34715   6.799   4.202   4.545  0.3451  2.0603 -0.0901
  998MOL0     H34716   8.808   4.171   4.571 -2.2072  1.3694 -0.3669
  998MOL0     H34717   9.012   4.264   4.645 -0.8662 -0.0297  1.7584
  998MOL0     H34718   9.272   4.628   4.467  1.3028  0.9581 -1.0090
  998MOL0     H34719   9.481   4.739   4.413 -1.4465  0.1709 -0.7855
  998MOL0     H34720   9.765   4.888   4.737  0.4962 -2.2394  2.4461
  998MOL0     H34721   9.788   4.726   4.712  0.5544  0.1871  0.6650
  998MOL0     H34722   9.899   4.797   4.469 -0.3477  0.7696 -0.6620
  998MOL0     H34723   9.983   4.784   4.620 -0.4802 -2.1450 -1.1714
  998MOL0     H34724   9.947   5.023   4.666 -0.5236  0.3214 -0.8003
  998MOL0     H34725   9.873   5.037   4.506 -0.8118 -1.0812  0.0503
  998MOL0     H34726  10.165   4.948   4.554 -1.1012 -1.1067  1.0870
  998MOL0     H34727  10.118   5.110   4.508  1.3368 -0.7094 -0.4357
  998MOL0     H34728  10.049   4.891   4.147  2.5740 -0.3670 -1.1560
  998MOL0     H34729   9.593   4.696   4.823 -1.2681 -2.4227  0.8857
  998MOL0     H34730   9.389   4.572   4.875  2.0022  2.5948  1.1013
  999MOL0     O34731   4.528   4.976   7.009 -0.8931  0.4698  0.5865
  999MOL0     C34732   4.450   4.924   7.085  0.7511 -0.8835 -0.9196
  999MOL0     O34733   4.476   4.826   7.182  0.0360  0.0829 -0.1426
  999MOL0     C34734   4.604   4.775   7.194 -0.3531  0.2144  0.2670
  999MOL0     C34735   4.688   4.783   7.308 -0.2519 -0.2923  0.0538
  999MOL0     C34736   4.812   4.716   7.310 -0.9948 -1.1352  0.3326
  999MOL0     C34737   4.866   4.654   7.194 -0.1364  0.5178  0.2452
  999MOL0     O34738   4.989   4.592   7.188 -0.3302  0.4419 -0.5683
  999MOL0     C34739   5.081   4.619   7.291 -0.0798  0.0682 -0.2357
  999MOL0     C34740   5.062   4.517   7.407 -0.2030  0.3662 -0.3657
  999MOL0     C34741   5.131   4.558   7.540 -0.2428  0.2166 -0.4795
  999MOL0     C34742   5.125   4.453   7.645 -0.5372  0.2033 -0.1292
  999MOL0     C34743   5.193   4.495   7.780  0.4179  0.2307  1.2059
  999MOL0     C34744   5.260   4.369   7.843  0.2121 -0.1879 -0.0542
  999MOL0     C34745   5.342   4.407   7.963 -0.2379 -0.6521 -0.6955
  999MOL0     C34746   5.392   4.282   8.040 -0.0409 -0.6562  0.5178
  999MOL0     N34747   5.398   4.291   8.183 -0.1615 -0.2043 -1.2758
  999MOL0     C34748   5.304   4.244   8.267 -0.1218  0.1456 -0.2741
  999MOL0     C34749   5.370   4.248   8.386  1.2515  0.2548 -0.2251
  999MOL0     C34750   5.318   4.199   8.524 -0.1198  0.3710  0.0122
  999MOL0     C34751   5.173   4.263   8.544 -0.4013 -0.3551  0.3292
  999MOL0     C34752   5.166   4.414   8.533  0.5494  0.7934  0.0108
  999MOL0     C34753   5.046   4.471   8.601  0.1796 -0.1523 -0.1661
  999MOL0     O34754   5.021   4.410   8.734  0.2184  0.2965  0.7637
  999MOL0     C34755   4.889   4.414   8.777 -1.4146  0.2585  0.2968
  999MOL0     C34756   4.863   4.335   8.880 -0.0316  0.4061 -0.1618
  999MOL0     C34757   4.739   4.319   8.939 -0.1052 -0.6678  0.6210
  999MOL0     C34758   4.710   4.214   9.037 -0.2277  0.1822 -0.0379
  999MOL0     C34759   4.638   4.420   8.897  0.6547 -0.0113 -0.1392
  999MOL0     C34760   4.506   4.444   8.976 -0.4914  0.9238  0.8137
  999MOL0     O34761   4.417   4.528   8.916  0.3171 -0.2179 -0.5926
  999MOL0     C34762   4.289   4.536   8.968 -0.5550 -0.4406 -0.1582
  999MOL0     C34763   4.261   4.611   9.082  0.6128  0.5910  0.2873
  999MOL0     C34764   4.132   4.616   9.127  0.7411  0.4229  0.7787
  999MOL0     C34765   4.023   4.552   9.059  0.5680  0.6868 -0.5601
  999MOL0     O34766   3.898   4.539   9.103 -0.2544  0.3187  0.2108
  999MOL0     C34767   3.859   4.569   9.236 -0.7377 -0.6711  1.3391
  999MOL0     C34768   3.706   4.549   9.256  0.3186 -0.0007  0.5313
  999MOL0     C34769   3.639   4.446   9.168  0.5899  0.0033  0.1047
  999MOL0     C34770   3.481   4.447   9.201 -0.2839  0.7334 -0.5873
  999MOL0     C34771   3.399   4.337   9.133  0.4283 -0.3180 -0.2573
  999MOL0     C34772   3.386   4.339   8.981  0.4858 -0.0764  0.0678
  999MOL0     C34773   3.277   4.243   8.929 -0.5164  0.3279  0.5600
  999MOL0     C34774   3.223   4.280   8.790  0.1382  0.5478  0.5483
  999MOL0    Cl34775   3.362   4.314   8.680 -0.6083  0.0005  0.1211
  999MOL0     C34776   4.047   4.493   8.935  0.5327  0.4814 -0.0142
  999MOL0     C34777   4.181   4.474   8.897  1.3190 -0.5350 -0.6357
  999MOL0     O34778   4.486   4.390   9.080 -0.3629 -0.1807 -0.0071
  999MOL0     C34779   4.659   4.500   8.783 -0.0199 -0.0432  0.2527
  999MOL0     C34780   4.785   4.501   8.726 -0.9377 -0.5918  0.7384
  999MOL0     N34781   5.494   4.306   8.377  0.1655  1.2988 -0.7518
  999MOL0     N34782   5.508   4.331   8.250  0.4425  0.5696  0.6786
  999MOL0     C34783   4.781   4.640   7.084  0.8200 -1.5887 -0.1682
  999MOL0     C34784   4.650   4.692   7.084 -0.4961  0.2962 -0.1346
  999MOL0     C34785   4.309   4.972   7.069 -0.3929  0.0130  0.2338
  999MOL0     C34786   4.256   5.061   6.968 -0.3548 -0.0152  0.3444
  999MOL0     C34787   4.128   5.116   6.966  0.1374 -0.0792  0.3174
  999MOL0     C34788   4.039   5.085   7.068  0.7857  1.0967  0.3259
  999MOL0     O34789   3.920   5.158   7.072 -0.1415  0.2004  0.0591
  999MOL0     C34790   3.862   5.192   7.199 -0.1979  0.2982 -0.6104
  999MOL0     C34791   3.736   5.101   7.225 -0.5452  0.0471  1.0470
  999MOL0     C34792   3.679   5.097   7.363 -0.5637 -0.5681 -0.3561
  999MOL0     C34793   3.773   5.106   7.491  0.5736  0.3636  0.7129
  999MOL0     C34794   3.879   4.999   7.482  0.5004 -0.5511  0.5719
  999MOL0     C34795   3.958   4.907   7.469  0.5528  0.0388 -0.2642
  999MOL0     C34796   4.071   4.979   7.158 -0.9378  0.2912 -0.0424
  999MOL0     C34797   4.204   4.930   7.157 -0.2964 -0.3901 -0.2563
  999MOL0     H34798   4.647   4.833   7.395 -2.9127 -0.4067 -1.0350
  999MOL0     H34799   4.880   4.724   7.395  1.0192 -2.3817 -1.0726
  999MOL0     H34800   5.180   4.617   7.244 -0.1344 -1.7258 -0.3309
  999MOL0     H34801   5.075   4.720   7.333 -0.7109 -1.1328  2.8214
  999MOL0     H34802   4.958   4.491   7.425  0.5515 -1.7153  1.4929
  999MOL0     H34803   5.119   4.426   7.382  2.9854  2.0863  0.0375
  999MOL0     H34804   5.231   4.596   7.517  0.1319 -0.7634 -0.5283
  999MOL0     H34805   5.076   4.644   7.579  1.1565 -0.2796  2.9258
  999MOL0     H34806   5.019   4.432   7.662 -1.2111  2.9077 -0.4373
  999MOL0     H34807   5.165   4.360   7.607 -0.1625  0.8462 -1.3446
  999MOL0     H34808   5.268   4.572   7.759  0.9415  0.2681  2.9718
  999MOL0     H34809   5.110   4.535   7.840 -1.5569  0.0107 -1.2423
  999MOL0     H34810   5.180   4.303   7.876 -0.4978  1.1259  0.9638
  999MOL0     H34811   5.329   4.311   7.780  0.9529  1.1595 -0.5238
  999MOL0     H34812   5.428   4.470   7.941 -0.0902  0.0714  1.7157
  999MOL0     H34813   5.284   4.464   8.036  1.6538 -0.8709  1.0524
  999MOL0     H34814   5.490   4.242   8.011 -0.3439 -1.9820  1.1938
  999MOL0     H34815   5.327   4.199   8.010  0.1614 -1.0521  1.1418
  999MOL0     H34816   5.211   4.194   8.245 -0.7702  0.6781  1.1391
  999MOL0     H34817   5.308   4.090   8.525  2.3618 -0.0039  4.0374
  999MOL0     H34818   5.382   4.234   8.605 -0.6945 -1.0824  1.1465
  999MOL0     H34819   5.121   4.225   8.633 -3.1407  1.2026 -0.4747
  999MOL0     H34820   5.113   4.224   8.461 -2.9097 -0.0624  1.9053
  999MOL0     H34821   5.162   4.456   8.431 -0.1796  1.3058  0.2416
  999MOL0     H34822   5.251   4.458   8.586  2.5423 -2.3886 -0.2726
  999MOL0     H34823   4.961   4.461   8.532 -0.7888  0.7373  0.8517
  999MOL0     H34824   5.078   4.576   8.611  1.6550 -0.8108  3.6915
  999MOL0     H34825   4.942   4.284   8.934 -0.5080  1.4144  1.5703
  999MOL0     H34826   4.607   4.178   9.030  0.0628 -0.6178 -0.3223
  999MOL0     H34827   4.781   4.131   9.033  0.4410  0.7666 -0.7731
  999MOL0     H34828   4.719   4.267   9.132 -0.3400 -0.0769  0.1187
  999MOL0     H34829   4.334   4.671   9.135  1.0800  1.7810 -1.6168
  999MOL0     H34830   4.107   4.670   9.218  0.2229  0.9320  0.3436
  999MOL0     H34831   3.916   4.512   9.310  0.7118  0.8234  1.4337
  999MOL0     H34832   3.881   4.676   9.241 -2.2246 -0.2595 -0.1320
  999MOL0     H34833   3.687   4.532   9.362 -0.9159 -0.9771  0.1819
  999MOL0     H34834   3.669   4.645   9.220 -0.1628  0.6463  2.5938
  999MOL0     H34835   3.682   4.348   9.194  0.4727 -0.5945 -1.8131
  999MOL0     H34836   3.660   4.457   9.061  2.6534  0.2203  0.4829
  999MOL0     H34837   3.456   4.444   9.307  0.3148 -2.2775 -0.4326
  999MOL0     H34838   3.449   4.543   9.159 -3.7636  0.2442  0.6649
  999MOL0     H34839   3.297   4.344   9.172  0.9647  1.1611  0.9955
  999MOL0     H34840   3.438   4.241   9.167 -1.4041 -1.6220 -1.6654
  999MOL0     H34841   3.337   4.434   8.957 -0.0227 -0.2439  0.4267
  999MOL0     H34842   3.482   4.329   8.930  0.5636 -0.1203  0.2244
  999MOL0     H34843   3.202   4.225   9.006  0.7560  0.5267  1.8858
  999MOL0     H34844   3.321   4.145   8.904  0.4010  1.5251 -3.2786
  999MOL0     H34845   3.160   4.369   8.800 -0.1388  0.4372 -0.0924
  999MOL0     H34846   3.173   4.189   8.754  0.3763  1.0214 -1.0547
  999MOL0     H34847   3.962   4.463   8.875  0.6143  1.1651 -0.4774
  999MOL0     H34848   4.218   4.417   8.813  2.3386  0.9386 -1.2358
  999MOL0     H34849   4.588   4.581   8.765  1.3625  1.3001  0.6002
  999MOL0     H34850   4.814   4.576   8.654 -2.8251  0.1153  0.6438
  999MOL0     H34851   4.818   4.589   6.995 -1.7750 -3.0521 -0.4963
  999MOL0     H34852   4.595   4.686   6.990  0.4147  1.0274 -0.7282
  999MOL0     H34853   4.323   5.107   6.896 -2.1942  1.3755 -0.5498
  999MOL0     H34854   4.088   5.184   6.891  0.7887 -0.2687 -0.2075
  999MOL0     H34855   3.932   5.181   7.282 -1.0585 -2.8647 -0.1538
  999MOL0     H34856   3.821   5.293   7.206  0.8026  0.6120  1.8893
  999MOL0     H34857   3.761   4.998   7.199 -2.0969 -0.2108  0.4708
  999MOL0     H34858   3.660   5.127   7.151 -0.3291 -1.3400  0.2998
  999MOL0     H34859   3.637   4.996   7.365  1.6757 -1.5605  1.1917
  999MOL0     H34860   3.594   5.165   7.375 -0.3855 -0.4309  0.1477
  999MOL0     H34861   3.719   5.086   7.584  1.4438  1.6918  1.5531
  999MOL0     H34862   3.826   5.201   7.505  1.9089 -0.6148  2.7603
  999MOL0     H34863   4.027   4.828   7.448 -0.6685 -0.9357 -0.7495
  999MOL0     H34864   3.996   4.949   7.231 -0.5203  1.3207  0.8182
  999MOL0     H34865   4.233   4.856   7.230  2.2136 -0.6155 -1.3990
 1000MOL0     O34866   3.966   1.916   2.277  0.6126 -0.2888 -0.0868
 1000MOL0     C34867   3.915   1.829   2.355  0.2671  0.3537  0.0734
 1000MOL0     O34868   3.808   1.751   2.317  0.6455 -0.3219 -0.2721
 1000MOL0     C34869   3.770   1.742   2.178 -0.8258 -0.1422  0.5128
 1000MOL0     C34870   3.789   1.615   2.114  0.0874  0.4579 -0.1593
 1000MOL0     C34871   3.757   1.594   1.981  0.1272 -0.3057 -0.4471
 1000MOL0     C34872   3.693   1.696   1.907 -0.1537  0.8712  0.1440
 1000MOL0     O34873   3.676   1.666   1.769  0.3947 -0.4053 -0.3703
 1000MOL0     C34874   3.615   1.758   1.683  0.8176 -0.1158 -0.6925
 1000MOL0     C34875   3.726   1.848   1.605  0.6111  0.2261  0.4061
 1000MOL0     C34876   3.689   1.916   1.473 -0.0536  1.1849  0.5449
 1000MOL0     C34877   3.804   1.982   1.418 -0.1007  0.3830 -0.3564
 1000MOL0     C34878   3.783   2.043   1.272 -0.2651  0.2181 -0.8721
 1000MOL0     C34879   3.918   2.106   1.224 -0.2559  0.2662 -0.3168
 1000MOL0     C34880   3.924   2.152   1.082 -0.0056 -0.5395 -0.8832
 1000MOL0     C34881   3.910   2.047   0.966  0.5223  0.8058  0.5376
 1000MOL0     N34882   4.013   1.938   0.972 -0.9657 -0.2632  0.0430
 1000MOL0     C34883   3.981   1.811   1.004  0.2027  0.4697 -1.3078
 1000MOL0     C34884   4.094   1.751   1.004 -0.0288 -0.1079  0.4140
 1000MOL0     C34885   4.115   1.608   1.038 -0.0602 -0.2890  0.6316
 1000MOL0     C34886   4.074   1.526   0.919 -0.3483 -0.4085 -0.3767
 1000MOL0     C34887   4.069   1.372   0.947  0.5248 -0.1975  0.3171
 1000MOL0     C34888   4.181   1.298   1.025 -0.1284 -0.6118  0.0768
 1000MOL0     O34889   4.303   1.301   0.940  0.1063  0.0253  0.6825
 1000MOL0     C34890   4.417   1.268   1.006  0.0039  0.3268 -0.1095
 1000MOL0     C34891   4.431   1.202   1.129  0.5771 -0.5899  1.0789
 1000MOL0     C34892   4.555   1.175   1.188  0.2432  0.6739 -1.0559
 1000MOL0     C34893   4.545   1.091   1.316 -0.1211 -0.1267 -0.6496
 1000MOL0     C34894   4.678   1.238   1.132  0.0096 -0.6109 -0.4853
 1000MOL0     C34895   4.823   1.232   1.183 -0.2280 -0.9074  0.2254
 1000MOL0     O34896   4.931   1.280   1.104  0.1443 -0.9142 -0.2512
 1000MOL0     C34897   5.058   1.301   1.158 -0.2447 -0.0432  0.3473
 1000MOL0     C34898   5.169   1.255   1.088  0.0092  0.9040  0.3872
 1000MOL0     C34899   5.301   1.273   1.131  0.3067 -0.7079 -0.3160
 1000MOL0     C34900   5.319   1.329   1.257  0.0472  1.1969  0.1014
 1000MOL0     O34901   5.450   1.330   1.312  0.1022 -0.5636 -0.0519
 1000MOL0     C34902   5.558   1.397   1.236 -0.3385 -0.1712 -0.1064
 1000MOL0     C34903   5.550   1.548   1.266  0.3812 -0.9612  0.4157
 1000MOL0     C34904   5.619   1.578   1.405  0.3744  0.1373 -0.8280
 1000MOL0     C34905   5.772   1.567   1.402 -0.2268 -0.8709 -0.5631
 1000MOL0     C34906   5.828   1.630   1.528  0.7955 -0.6791  0.1718
 1000MOL0     C34907   5.971   1.570   1.546 -0.0043  0.3760  0.4007
 1000MOL0     C34908   6.065   1.657   1.644 -0.2949  0.7434 -0.6011
 1000MOL0     C34909   6.213   1.633   1.617  0.2557 -0.8229 -1.4106
 1000MOL0    Cl34910   6.274   1.468   1.646 -0.0263 -0.3975  0.0394
 1000MOL0     C34911   5.209   1.373   1.325 -0.1675  0.1430  0.4144
 1000MOL0     C34912   5.080   1.359   1.281 -1.0493 -0.1625 -0.2726
 1000MOL0     O34913   4.836   1.183   1.294  0.5124  0.3767 -0.0161
 1000MOL0     C34914   4.664   1.311   1.016  0.7321  0.4094 -0.0731
 1000MOL0     C34915   4.538   1.320   0.949  0.2873  0.0373 -0.7909
 1000MOL0     N34916   4.200   1.837   0.974 -0.0586 -0.7302  0.6576
 1000MOL0     N34917   4.149   1.953   0.953 -0.1751 -0.3823 -0.1945
 1000MOL0     C34918   3.676   1.824   1.964 -0.7715 -0.3793  0.4597
 1000MOL0     C34919   3.715   1.845   2.098 -0.6912 -0.0095  1.0480
 1000MOL0     C34920   3.983   1.804   2.477  0.4655  0.1982 -0.7586
 1000MOL0     C34921   4.118   1.849   2.507 -1.1114  0.8131 -0.4617
 1000MOL0     C34922   4.191   1.794   2.608 -0.2254  1.0041 -0.5047
 1000MOL0     C34923   4.121   1.705   2.696 -0.8015 -0.2608 -0.9069
 1000MOL0     O34924   4.185   1.650   2.804  0.3412  0.7613 -0.2199
 1000MOL0     C34925   4.298   1.557   2.774 -0.3227 -0.7381 -0.2373
 1000MOL0     C34926   4.433   1.601   2.834 -0.1671 -0.6036 -0.0825
 1000MOL0     C34927   4.422   1.568   2.992 -0.1942 -0.2382 -0.2010
 1000MOL0     C34928   4.549   1.513   3.057  0.3518  0.2542  0.0106
 1000MOL0     C34929   4.668   1.602   3.024 -1.0642 -0.6016 -0.0619
 1000MOL0     C34930   4.762   1.683   3.002  0.3602 -0.1952  0.5246
 1000MOL0     C34931   3.989   1.666   2.681  0.2392  0.5051  0.0624
 1000MOL0     C34932   3.918   1.714   2.575 -0.3271 -0.0642 -0.8129
 1000MOL0     H34933   3.842   1.532   2.159 -1.1615  0.0491  0.5950
 1000MOL0     H34934   3.780   1.499   1.933 -0.9523 -0.5544 -0.5104
 1000MOL0     H34935   3.554   1.696   1.617  0.7793 -0.6891 -0.1405
 1000MOL0     H34936   3.545   1.815   1.745  0.8025 -2.0416  1.1993
 1000MOL0     H34937   3.767   1.923   1.673 -1.2105 -0.9090  2.9303
 1000MOL0     H34938   3.803   1.773   1.588 -1.0983 -1.9889  1.8425
 1000MOL0     H34939   3.665   1.835   1.404  2.0475  0.0376  1.0592
 1000MOL0     H34940   3.605   1.983   1.491 -2.0719 -0.9022 -0.4740
 1000MOL0     H34941   3.828   2.066   1.484 -0.6626 -2.4118  3.7668
 1000MOL0     H34942   3.890   1.914   1.420 -0.4903 -0.1932  3.0014
 1000MOL0     H34943   3.748   1.961   1.208 -0.9550 -1.2622  1.2932
 1000MOL0     H34944   3.708   2.121   1.285  1.0407  1.3866 -0.1350
 1000MOL0     H34945   3.937   2.202   1.275  1.3354  0.3488 -1.0191
 1000MOL0     H34946   3.999   2.034   1.235  2.3729  2.9609 -0.8396
 1000MOL0     H34947   3.853   2.231   1.053 -0.4116 -0.3919  0.4159
 1000MOL0     H34948   4.020   2.197   1.055 -0.3837 -0.5921 -2.4163
 1000MOL0     H34949   3.928   2.093   0.869  1.0368  1.2682  0.8453
 1000MOL0     H34950   3.815   1.992   0.963 -1.3020  3.7856 -1.0337
 1000MOL0     H34951   3.877   1.784   1.020 -0.4804  2.5717 -1.8821
 1000MOL0     H34952   4.218   1.578   1.055  0.0476 -0.7200 -0.6689
 1000MOL0     H34953   4.050   1.586   1.124 -3.4882  0.2173 -1.6035
 1000MOL0     H34954   4.141   1.544   0.834  2.0683 -2.9881  0.8274
 1000MOL0     H34955   3.969   1.549   0.896 -1.2504 -1.4009  2.4026
 1000MOL0     H34956   4.046   1.309   0.861 -3.3564 -0.3741  1.2991
 1000MOL0     H34957   3.983   1.346   1.010  1.1659 -0.5804  1.0586
 1000MOL0     H34958   4.154   1.194   1.042  0.3424 -0.9853 -1.3176
 1000MOL0     H34959   4.200   1.343   1.123 -1.7101  0.5752 -0.1335
 1000MOL0     H34960   4.339   1.158   1.164 -1.2423 -0.1866 -2.7312
 1000MOL0     H34961   4.464   1.020   1.302 -1.4247  0.9445  0.9677
 1000MOL0     H34962   4.637   1.048   1.357 -0.3801 -3.4450 -3.1847
 1000MOL0     H34963   4.516   1.151   1.403  1.5993  0.8634 -0.7045
 1000MOL0     H34964   5.153   1.210   0.990  2.3355  1.2552 -0.2122
 1000MOL0     H34965   5.397   1.249   1.086  0.8801 -1.1698  1.0931
 1000MOL0     H34966   5.656   1.356   1.262  0.4539  2.0564  0.6706
 1000MOL0     H34967   5.545   1.385   1.128  1.6772  0.8216 -0.4937
 1000MOL0     H34968   5.591   1.594   1.176  2.5093  0.2545  1.9058
 1000MOL0     H34969   5.448   1.586   1.272 -0.2706 -2.5097 -0.2939
 1000MOL0     H34970   5.581   1.506   1.478  1.3612 -2.5761 -2.8485
 1000MOL0     H34971   5.592   1.682   1.428 -1.9751 -0.1673 -1.9029
 1000MOL0     H34972   5.800   1.463   1.385 -0.9169 -0.8226 -2.2920
 1000MOL0     H34973   5.814   1.620   1.316  3.7684 -1.6091  0.7414
 1000MOL0     H34974   5.763   1.605   1.612 -3.1722 -0.8596 -2.6522
 1000MOL0     H34975   5.834   1.739   1.519  0.0520 -0.3303  2.9347
 1000MOL0     H34976   5.951   1.473   1.593 -1.2398 -0.0819 -1.0047
 1000MOL0     H34977   6.022   1.550   1.452  1.7959  0.3935  1.3425
 1000MOL0     H34978   6.032   1.623   1.742  1.6762  0.4333  0.0091
 1000MOL0     H34979   6.036   1.762   1.650 -1.4843  0.3620  0.7078
 1000MOL0     H34980   6.267   1.690   1.693  1.5064 -3.6045 -0.0925
 1000MOL0     H34981   6.245   1.661   1.516  1.3515 -2.6006 -1.5903
 1000MOL0     H34982   5.210   1.423   1.422 -0.2642 -2.8022  2.0846
 1000MOL0     H34983   4.996   1.399   1.338 -2.4423 -1.0964 -1.5871
 1000MOL0     H34984   4.756   1.355   0.980  2.0371 -0.1990  2.3205
 1000MOL0     H34985   4.528   1.383   0.861 -1.0521  1.7630  0.5347
 1000MOL0     H34986   3.629   1.912   1.920  3.0500  2.4185  1.4242
 1000MOL0     H34987   3.703   1.949   2.129  2.0532  0.7538 -0.1170
 1000MOL0     H34988   4.162   1.910   2.429 -1.5936 -0.1718 -1.5372
 1000MOL0     H34989   4.294   1.826   2.617 -0.8592  3.1305 -0.1814
 1000MOL0     H34990   4.295   1.454   2.810 -1.4231 -0.9734 -0.9646
 1000MOL0     H34991   4.312   1.568   2.667  0.0704  1.8932  0.0022
 1000MOL0     H34992   4.466   1.704   2.820 -0.0271 -0.5356  0.6669
 1000MOL0     H34993   4.509   1.535   2.791  0.5806  0.3537 -0.2593
 1000MOL0     H34994   4.345   1.493   3.015 -1.0108  1.5977  3.8971
 1000MOL0     H34995   4.391   1.660   3.042 -1.1497 -0.0880 -1.0454
 1000MOL0     H34996   4.572   1.417   3.011  1.1834 -0.7676  2.4100
 1000MOL0     H34997   4.537   1.502   3.166 -0.5610 -2.2367 -0.2968
 1000MOL0     H34998   4.844   1.749   2.986  1.5531 -1.9894 -1.0399
 1000MOL0     H34999   3.946   1.599   2.754 -2.1752 -1.4248 -2.8598
 1000MOL0     H35000   3.813   1.689   2.561 -1.6092  3.6703  0.7994
 1001MOL0     O35001  10.709   6.492   1.458 -1.1826  0.1440 -0.0443
 1001MOL0     C35002  10.647   6.409   1.522  0.5204 -0.7520 -0.4462
 1001MOL0     O35003  10.681   6.369   1.649  0.2794 -0.3099  0.3749
 1001MOL0     C35004  10.812   6.381   1.698 -0.5081  0.2525 -0.9303
 1001MOL0     C35005  10.877   6.274   1.761 -0.4712  0.0992  0.1505
 1001MOL0     C35006  11.005   6.286   1.814  0.6607 -0.0016  0.0325
 1001MOL0     C35007  11.075   6.404   1.816 -0.3523 -0.7307 -0.6204
 1001MOL0     O35008  11.209   6.397   1.851 -0.2325  0.1888  0.3259
 1001MOL0     C35009  11.240   6.480   1.955  0.5779 -0.1266  0.1086
 1001MOL0     C35010  11.390   6.476   1.996  0.7678  0.9628 -0.3287
 1001MOL0     C35011  11.492   6.530   1.894 -0.3043 -0.9670  0.0946
 1001MOL0     C35012  11.486   6.685   1.878 -0.1359  1.2155 -0.7250
 1001MOL0     C35013  11.600   6.744   1.786 -0.4515  0.5127  0.2920
 1001MOL0     C35014  11.732   6.768   1.857  0.3425 -0.2461 -0.1503
 1001MOL0     C35015  11.845   6.817   1.768 -0.0217  0.1311  0.0259
 1001MOL0     C35016  11.813   6.944   1.678 -0.1177  0.2828 -1.2911
 1001MOL0     N35017  11.751   7.042   1.764  0.0188  0.7355  0.8271
 1001MOL0     C35018  11.826   7.121   1.843  0.9448 -0.7298 -0.0781
 1001MOL0     C35019  11.748   7.221   1.888  0.1162 -0.3193  0.3891
 1001MOL0     C35020  11.787   7.335   1.961 -1.1007  0.3467 -0.2885
 1001MOL0     C35021  11.881   7.427   1.898  0.6463 -0.2429  0.9921
 1001MOL0     C35022  11.863   7.560   1.980 -0.3944 -1.6745 -0.2697
 1001MOL0     C35023  11.989   7.649   1.967  0.2606  0.2408  0.2041
 1001MOL0     O35024  12.027   7.654   1.829  0.9746 -0.2672  0.0127
 1001MOL0     C35025  12.137   7.723   1.793  0.2866 -0.0916 -0.2471
 1001MOL0     C35026  12.223   7.780   1.877  0.0188  1.2839 -0.1342
 1001MOL0     C35027  12.342   7.846   1.836  0.2543 -0.0554  0.4239
 1001MOL0     C35028  12.422   7.917   1.944  1.5531  0.7113  0.8315
 1001MOL0     C35029  12.370   7.862   1.699  0.1026 -0.3029  0.0158
 1001MOL0     C35030  12.482   7.947   1.634  0.7477  0.9310  0.1980
 1001MOL0     O35031  12.508   8.069   1.690  0.6022 -0.4607 -0.0312
 1001MOL0     C35032  12.584   8.163   1.619  0.4260  0.9193 -1.3437
 1001MOL0     C35033  12.546   8.192   1.487  0.4169  0.3706 -0.9193
 1001MOL0     C35034  12.625   8.276   1.404 -0.1321  0.0240 -0.1091
 1001MOL0     C35035  12.739   8.335   1.461 -0.5950  0.1847  0.6744
 1001MOL0     O35036  12.811   8.426   1.384  0.5260 -0.9098  0.7016
 1001MOL0     C35037  12.934   8.485   1.426 -0.8343  0.5700 -0.0487
 1001MOL0     C35038  12.964   8.605   1.344 -0.3522 -0.1675 -0.4744
 1001MOL0     C35039  13.084   8.694   1.391  0.6227  0.3587  0.6650
 1001MOL0     C35040  13.103   8.802   1.277  0.0487  0.3089  0.3298
 1001MOL0     C35041  13.203   8.896   1.320  0.6784 -0.3610 -0.0276
 1001MOL0     C35042  13.261   8.985   1.207 -0.4282 -0.1938 -0.6651
 1001MOL0     C35043  13.394   8.929   1.141  0.1634 -0.9151  0.5877
 1001MOL0     C35044  13.510   9.029   1.167  0.4490  0.4105  0.1835
 1001MOL0    Cl35045  13.601   8.977   1.310  0.3493  0.1787  0.3465
 1001MOL0     C35046  12.771   8.310   1.602 -0.0280  0.5500  0.0503
 1001MOL0     C35047  12.693   8.223   1.674 -0.2214  0.0456  0.5612
 1001MOL0     O35048  12.530   7.905   1.526  0.3950 -0.2954 -0.4971
 1001MOL0     C35049  12.280   7.813   1.612  0.8520  0.0863  0.2873
 1001MOL0     C35050  12.162   7.747   1.660  0.8062 -0.4291 -1.0252
 1001MOL0     N35051  11.626   7.203   1.825 -0.2781 -0.1595  0.3315
 1001MOL0     N35052  11.630   7.098   1.750 -0.1548  1.0562  0.1108
 1001MOL0     C35053  11.007   6.511   1.749 -0.6419  0.1558 -0.0083
 1001MOL0     C35054  10.886   6.499   1.690 -0.6707 -0.5585  0.4355
 1001MOL0     C35055  10.509   6.377   1.478  0.7335  0.3694 -0.6905
 1001MOL0     C35056  10.413   6.339   1.570 -1.7308 -0.2936 -0.0050
 1001MOL0     C35057  10.282   6.320   1.532 -0.1264  0.6113  0.7220
 1001MOL0     C35058  10.239   6.353   1.408 -0.2706 -0.9161 -0.4652
 1001MOL0     O35059  10.107   6.362   1.369  0.5456 -0.6880 -0.0682
 1001MOL0     C35060  10.008   6.281   1.425 -0.9577 -0.6356 -0.1602
 1001MOL0     C35061   9.919   6.266   1.302 -0.2533  0.1134  0.5084
 1001MOL0     C35062   9.828   6.137   1.318 -0.2428 -0.0775  0.5804
 1001MOL0     C35063   9.731   6.107   1.201 -0.5517 -0.2817  0.0593
 1001MOL0     C35064   9.637   6.214   1.180  1.1679  0.7405  0.4797
 1001MOL0     C35065   9.564   6.302   1.139 -0.3187 -0.9892  0.0269
 1001MOL0     C35066  10.326   6.399   1.319  0.6277  0.2091 -0.7124
 1001MOL0     C35067  10.463   6.408   1.350 -0.9018 -0.2015  0.0946
 1001MOL0     H35068  10.833   6.175   1.757 -0.2726  0.0484 -1.0066
 1001MOL0     H35069  11.068   6.206   1.851  1.1831 -0.8253 -2.4653
 1001MOL0     H35070  11.218   6.585   1.932  3.1519 -0.3059 -4.2752
 1001MOL0     H35071  11.183   6.464   2.047  0.9606  1.4429  0.6548
 1001MOL0     H35072  11.404   6.512   2.098  0.3260 -0.0537  0.1040
 1001MOL0     H35073  11.414   6.371   2.011 -0.8505  0.4569 -1.0373
 1001MOL0     H35074  11.590   6.499   1.930  0.0404  1.1620  1.1374
 1001MOL0     H35075  11.478   6.488   1.793 -0.0068  0.5505 -0.6125
 1001MOL0     H35076  11.394   6.723   1.833 -1.4474 -0.7541  0.1615
 1001MOL0     H35077  11.496   6.738   1.973  1.2258  2.4552 -1.5154
 1001MOL0     H35078  11.607   6.674   1.702 -1.8167  0.0463  0.5357
 1001MOL0     H35079  11.567   6.838   1.740  0.6386 -0.1468 -2.0087
 1001MOL0     H35080  11.721   6.845   1.933 -0.5030  1.3677 -1.8327
 1001MOL0     H35081  11.762   6.677   1.909  1.3471 -0.2473 -0.7081
 1001MOL0     H35082  11.934   6.837   1.828  0.3443 -0.1831 -0.4186
 1001MOL0     H35083  11.884   6.734   1.709  0.0414 -0.1079  0.4012
 1001MOL0     H35084  11.737   6.911   1.606 -0.7226  4.2033 -2.7325
 1001MOL0     H35085  11.904   6.980   1.629 -0.5339 -0.2370 -2.4949
 1001MOL0     H35086  11.930   7.115   1.873  0.8934  2.9437  1.3762
 1001MOL0     H35087  11.694   7.377   2.001 -1.3812 -0.8661  0.4179
 1001MOL0     H35088  11.835   7.295   2.052  0.6635  1.1380 -0.8315
 1001MOL0     H35089  11.863   7.453   1.793 -0.9732  1.2815  1.5773
 1001MOL0     H35090  11.980   7.384   1.908  1.3242  0.3786 -1.9431
 1001MOL0     H35091  11.851   7.537   2.087 -0.1335 -0.8947 -0.0650
 1001MOL0     H35092  11.779   7.619   1.945  0.8219  2.3820  2.8210
 1001MOL0     H35093  12.072   7.602   2.021 -0.5974 -2.0974 -0.3934
 1001MOL0     H35094  11.971   7.748   2.009 -0.2490 -0.9038  2.8643
 1001MOL0     H35095  12.210   7.777   1.984  0.0338 -0.4349 -0.1507
 1001MOL0     H35096  12.416   8.024   1.921  0.6792 -0.0551 -3.1749
 1001MOL0     H35097  12.383   7.905   2.046  1.4082 -0.9396  0.6140
 1001MOL0     H35098  12.526   7.881   1.943  0.6227 -2.1809  0.4854
 1001MOL0     H35099  12.446   8.158   1.462 -0.6448  3.4251 -1.2491
 1001MOL0     H35100  12.597   8.298   1.302  0.1770  1.2964  0.0588
 1001MOL0     H35101  12.919   8.524   1.527 -2.5854  2.5996 -1.0055
 1001MOL0     H35102  13.019   8.416   1.425  1.2017  2.7418 -4.0774
 1001MOL0     H35103  12.980   8.575   1.241 -2.2326  2.2216 -1.5639
 1001MOL0     H35104  12.880   8.675   1.346  1.6467  2.3715  0.8373
 1001MOL0     H35105  13.176   8.637   1.395  0.9088  0.3592 -2.7204
 1001MOL0     H35106  13.062   8.730   1.492 -1.1588 -0.3697  0.5830
 1001MOL0     H35107  13.152   8.760   1.189  0.6476 -1.8188  1.6106
 1001MOL0     H35108  13.013   8.851   1.237 -0.8566 -2.2165 -0.9328
 1001MOL0     H35109  13.278   8.845   1.381  0.5499 -1.3224 -0.6534
 1001MOL0     H35110  13.145   8.962   1.386 -1.4823 -0.7438 -1.4358
 1001MOL0     H35111  13.189   9.001   1.126  1.4231 -1.2611 -2.6371
 1001MOL0     H35112  13.283   9.080   1.257  0.1731 -1.4908  1.6601
 1001MOL0     H35113  13.375   8.929   1.033 -0.1631 -0.4780  0.6399
 1001MOL0     H35114  13.410   8.827   1.176  0.1642 -0.8958  0.6426
 1001MOL0     H35115  13.483   9.134   1.177 -1.7167 -0.1124  0.2230
 1001MOL0     H35116  13.581   9.027   1.083  2.2241  2.3778  1.5445
 1001MOL0     H35117  12.854   8.353   1.657 -1.0584  0.2403  1.9163
 1001MOL0     H35118  12.707   8.183   1.774 -1.9488 -1.9230  0.0806
 1001MOL0     H35119  12.288   7.826   1.505  0.2037 -2.9039 -0.2189
 1001MOL0     H35120  12.084   7.700   1.601 -2.0079  1.2056  1.1089
 1001MOL0     H35121  11.060   6.606   1.741  0.2091 -0.3892 -1.1765
 1001MOL0     H35122  10.839   6.588   1.652 -0.8539 -0.4483  0.9180
 1001MOL0     H35123  10.442   6.303   1.668  0.2904 -1.4054 -0.9480
 1001MOL0     H35124  10.204   6.278   1.594 -1.3633  0.4016 -0.9065
 1001MOL0     H35125  10.051   6.186   1.456 -3.4693 -2.5886 -2.1827
 1001MOL0     H35126   9.960   6.325   1.513 -0.4195 -0.1864 -0.0841
 1001MOL0     H35127   9.978   6.257   1.210  1.1638  1.9788  1.1783
 1001MOL0     H35128   9.861   6.358   1.287  1.2726  1.0442  0.0976
 1001MOL0     H35129   9.772   6.142   1.412  1.8914 -0.8929  1.9634
 1001MOL0     H35130   9.904   6.059   1.320  0.1694  0.1091 -2.7401
 1001MOL0     H35131   9.673   6.015   1.216 -0.5634 -0.4083 -0.7486
 1001MOL0     H35132   9.790   6.075   1.115  0.9213 -3.1888  1.9677
 1001MOL0     H35133   9.498   6.379   1.105  0.3545 -0.3168  0.1929
 1001MOL0     H35134  10.280   6.442   1.231 -4.0132  0.1160  1.3911
 1001MOL0     H35135  10.540   6.454   1.290  2.3533 -0.3917  3.7292
 1002MOL0     O35136   2.275  10.374   0.158  0.2771  0.2626  0.3868
 1002MOL0     C35137   2.318  10.388   0.274 -0.5825 -0.2783  0.0630
 1002MOL0     O35138   2.260  10.347   0.392 -0.0328  0.1056 -0.4584
 1002MOL0     C35139   2.140  10.276   0.374 -0.7053  0.9930  0.0691
 1002MOL0     C35140   2.026  10.336   0.331 -0.3323  0.1898 -0.0175
 1002MOL0     C35141   1.912  10.254   0.328  0.2521  0.7216  0.4236
 1002MOL0     C35142   1.913  10.118   0.345  0.1926  0.2189  0.1309
 1002MOL0     O35143   1.797  10.050   0.321  0.1991  0.0578  0.1788
 1002MOL0     C35144   1.801   9.905   0.309 -0.6655  0.5930  1.0962
 1002MOL0     C35145   1.787   9.833   0.442 -0.6118  0.1337 -1.1605
 1002MOL0     C35146   1.749   9.687   0.428 -0.8330  1.0554 -0.3894
 1002MOL0     C35147   1.831   9.609   0.316 -0.6616 -0.0756  0.1557
 1002MOL0     C35148   1.983   9.629   0.331  0.0151  0.1633 -0.0679
 1002MOL0     C35149   2.061   9.502   0.296  0.5070  0.3300  0.5789
 1002MOL0     C35150   2.215   9.528   0.318  0.2888 -0.5922 -0.2885
 1002MOL0     C35151   2.306   9.408   0.285  0.3055  0.0400  0.1347
 1002MOL0     N35152   2.448   9.447   0.267 -0.0866  0.3566  0.0488
 1002MOL0     C35153   2.512   9.566   0.242  0.0604  1.3692  0.2893
 1002MOL0     C35154   2.634   9.556   0.286 -0.0107  0.7655  0.1732
 1002MOL0     C35155   2.737   9.667   0.311  0.3553  0.4789  0.3041
 1002MOL0     C35156   2.866   9.655   0.225  0.6327 -0.0927  0.3879
 1002MOL0     C35157   2.952   9.779   0.238 -0.2180 -0.3399  0.1337
 1002MOL0     C35158   3.092   9.764   0.176  0.0286 -0.1996 -0.9073
 1002MOL0     O35159   3.163   9.895   0.167 -0.2470  0.4464 -0.7311
 1002MOL0     C35160   3.295   9.889   0.170  0.1813  0.7118  0.6058
 1002MOL0     C35161   3.386   9.784   0.193 -0.1074 -0.1707  0.2698
 1002MOL0     C35162   3.534   9.804   0.197 -0.7958 -0.2325  0.5312
 1002MOL0     C35163   3.621   9.674   0.226  0.1212 -1.2111 -0.2856
 1002MOL0     C35164   3.575   9.942   0.193  0.1335 -0.7549 -0.2309
 1002MOL0     C35165   3.710   9.997   0.215 -0.8293 -0.2404 -0.8697
 1002MOL0     O35166   3.724  10.140   0.228 -0.3793  0.1184  0.5556
 1002MOL0     C35167   3.834  10.194   0.161  0.1526  0.5295  0.2995
 1002MOL0     C35168   3.963  10.172   0.213 -0.0028  0.9904 -0.0681
 1002MOL0     C35169   4.073  10.239   0.170  0.1087  0.6571  0.0970
 1002MOL0     C35170   4.059  10.322   0.059  0.5852 -0.1727  0.2683
 1002MOL0     O35171   4.180  10.369   0.010  0.0322 -0.6015  0.1159
 1002MOL0     C35172   4.178  10.415  -0.127 -0.3107 -0.2053  0.7824
 1002MOL0     C35173   4.320  10.416  -0.187 -0.7419  0.3011  0.5234
 1002MOL0     C35174   4.397  10.553  -0.174  0.0584  0.1317 -0.5286
 1002MOL0     C35175   4.346  10.651  -0.281  0.3926  1.0714  0.0004
 1002MOL0     C35176   4.403  10.789  -0.251 -0.4241 -0.2191  0.9947
 1002MOL0     C35177   4.347  10.895  -0.349 -0.1336  0.1715  0.6434
 1002MOL0     C35178   4.388  11.047  -0.316  0.0006  0.3008 -0.3582
 1002MOL0     C35179   4.308  11.145  -0.396  0.3574 -0.0634  0.1282
 1002MOL0    Cl35180   4.139  11.133  -0.350 -0.2919  0.1855  0.2753
 1002MOL0     C35181   3.933  10.350   0.002  0.2199  0.0803  0.0139
 1002MOL0     C35182   3.826  10.286   0.057  0.1695  0.6260 -1.2906
 1002MOL0     O35183   3.798   9.911   0.226 -0.0384 -0.3713 -0.1092
 1002MOL0     C35184   3.477  10.041   0.171 -0.3143 -0.2796  1.1916
 1002MOL0     C35185   3.344  10.015   0.172  0.5330 -0.1437  0.2452
 1002MOL0     N35186   2.654   9.422   0.322  0.5375  0.6696  0.2068
 1002MOL0     N35187   2.538   9.364   0.322 -0.3965  0.3282  1.0682
 1002MOL0     C35188   2.032  10.063   0.385 -0.7991  0.0679 -0.2778
 1002MOL0     C35189   2.145  10.141   0.410  0.0443 -0.2314  0.1060
 1002MOL0     C35190   2.466  10.437   0.283  1.2421 -0.8429 -0.2278
 1002MOL0     C35191   2.539  10.421   0.395  0.0255  0.1308  0.6722
 1002MOL0     C35192   2.676  10.454   0.399  0.5665  0.2865  0.2251
 1002MOL0     C35193   2.736  10.512   0.293  0.1079  0.4629 -0.7275
 1002MOL0     O35194   2.872  10.528   0.303 -0.1749 -0.8453 -0.3762
 1002MOL0     C35195   2.939  10.495   0.184 -0.9662 -0.3804 -0.1828
 1002MOL0     C35196   3.001  10.615   0.115  0.7303 -0.1265  0.1544
 1002MOL0     C35197   3.090  10.715   0.211 -0.7326  0.7310  0.7510
 1002MOL0     C35198   3.137  10.837   0.136 -0.1793 -0.0446  0.2130
 1002MOL0     C35199   3.223  10.928   0.215  0.4470  0.2460  0.8864
 1002MOL0     C35200   3.267  11.024   0.260  0.8232  0.5495  0.6368
 1002MOL0     C35201   2.659  10.529   0.172  0.5166  0.5604  0.4545
 1002MOL0     C35202   2.523  10.492   0.169  0.9416  0.1740  1.2512
 1002MOL0     H35203   2.025  10.441   0.302  0.1535  0.0709 -0.4821
 1002MOL0     H35204   1.824  10.312   0.303 -0.5071 -1.4303 -2.5441
 1002MOL0     H35205   1.724   9.872   0.240 -1.3073  2.4966  0.8266
 1002MOL0     H35206   1.890   9.883   0.250 -0.2689  2.1474  1.0711
 1002MOL0     H35207   1.879   9.850   0.499 -1.7669  3.0217  0.0543
 1002MOL0     H35208   1.714   9.888   0.503  0.1060  1.9115 -1.8350
 1002MOL0     H35209   1.764   9.641   0.527 -1.2761  3.5259  0.9080
 1002MOL0     H35210   1.642   9.687   0.407 -0.5537  2.3340 -1.9553
 1002MOL0     H35211   1.801   9.503   0.314  0.7000 -0.4850  0.6173
 1002MOL0     H35212   1.801   9.650   0.219 -0.1357  0.0757  0.0561
 1002MOL0     H35213   2.019   9.720   0.281  0.2376  0.3984  0.5126
 1002MOL0     H35214   2.003   9.650   0.436 -2.0415 -2.0060  0.8464
 1002MOL0     H35215   2.025   9.426   0.365  0.3216  0.0908  0.2251
 1002MOL0     H35216   2.041   9.472   0.192  0.8840  0.9207  0.3251
 1002MOL0     H35217   2.256   9.614   0.265  1.0106  0.6644  2.1538
 1002MOL0     H35218   2.217   9.552   0.425 -2.3224  0.0923 -0.3201
 1002MOL0     H35219   2.260   9.364   0.197 -1.3720 -1.0899  1.5103
 1002MOL0     H35220   2.295   9.337   0.368 -2.1577  1.9952  1.6634
 1002MOL0     H35221   2.462   9.654   0.202 -2.3822  0.0294  0.1791
 1002MOL0     H35222   2.691   9.751   0.257 -1.6110 -0.7793 -0.0701
 1002MOL0     H35223   2.749   9.699   0.415  0.9127 -1.6457  0.9483
 1002MOL0     H35224   2.855   9.642   0.117  0.8132  2.4525 -0.0012
 1002MOL0     H35225   2.924   9.571   0.264  1.1636  0.5308  0.9729
 1002MOL0     H35226   2.966   9.794   0.346 -1.0706 -1.7162  0.4592
 1002MOL0     H35227   2.907   9.866   0.189  2.6393  1.5645  0.6661
 1002MOL0     H35228   3.082   9.722   0.076  1.9729  1.2967 -1.7910
 1002MOL0     H35229   3.158   9.696   0.232 -1.0561 -1.6188 -1.2882
 1002MOL0     H35230   3.360   9.679   0.180  1.2267 -0.2872 -2.1928
 1002MOL0     H35231   3.569   9.592   0.277  1.7742 -1.5697  0.9481
 1002MOL0     H35232   3.657   9.629   0.133 -2.3151 -1.2708 -1.2640
 1002MOL0     H35233   3.707   9.710   0.283 -0.0216  2.8442 -2.3191
 1002MOL0     H35234   3.982  10.090   0.282  1.4199 -1.0641 -2.7296
 1002MOL0     H35235   4.171  10.226   0.214  0.4623  0.4229 -0.7365
 1002MOL0     H35236   4.115  10.351  -0.190 -2.0094  0.9025  1.2669
 1002MOL0     H35237   4.139  10.517  -0.137  0.0090 -0.3025 -3.1050
 1002MOL0     H35238   4.374  10.332  -0.143  0.6756  0.5638 -0.6299
 1002MOL0     H35239   4.305  10.404  -0.295  0.6740  0.1816  0.3190
 1002MOL0     H35240   4.506  10.543  -0.182  0.2550  1.9939 -0.5895
 1002MOL0     H35241   4.379  10.585  -0.071  0.4965 -0.9980 -0.0777
 1002MOL0     H35242   4.379  10.626  -0.383 -2.3092  0.0797 -0.7114
 1002MOL0     H35243   4.237  10.643  -0.286  0.4235 -0.1895  0.9582
 1002MOL0     H35244   4.511  10.781  -0.267 -0.8095 -0.4054 -2.1357
 1002MOL0     H35245   4.383  10.825  -0.150  0.3738  0.0583  1.0573
 1002MOL0     H35246   4.396  10.884  -0.446 -1.5865 -1.9319  0.0764
 1002MOL0     H35247   4.239  10.879  -0.363 -0.0970 -2.1592  2.3371
 1002MOL0     H35248   4.495  11.062  -0.335  0.8312 -3.0046  1.0457
 1002MOL0     H35249   4.369  11.067  -0.210 -1.3659  4.0416 -1.1666
 1002MOL0     H35250   4.315  11.126  -0.503 -0.1075 -1.8823  0.3858
 1002MOL0     H35251   4.347  11.246  -0.385  4.1310 -1.2644 -0.7012
 1002MOL0     H35252   3.918  10.423  -0.077  2.2604 -1.6878 -2.1490
 1002MOL0     H35253   3.726  10.302   0.016 -1.7524 -2.3106  1.7703
 1002MOL0     H35254   3.511  10.144   0.158  0.9875 -0.9798 -1.4842
 1002MOL0     H35255   3.283  10.105   0.169  1.4053  0.4525 -1.2760
 1002MOL0     H35256   2.055   9.957   0.394 -1.3003 -0.0756 -0.6188
 1002MOL0     H35257   2.232  10.092   0.452 -0.1739 -0.2591  0.5357
 1002MOL0     H35258   2.498  10.371   0.482  0.4277 -1.1694  0.1478
 1002MOL0     H35259   2.737  10.420   0.482  1.2829  2.0077  0.4607
 1002MOL0     H35260   3.022  10.432   0.217 -1.3972 -0.2940  1.1249
 1002MOL0     H35261   2.881  10.429   0.121 -1.0439 -1.8430  1.3560
 1002MOL0     H35262   2.914  10.664   0.070 -0.0416  0.2391  1.9698
 1002MOL0     H35263   3.062  10.586   0.029 -1.3567 -0.9241 -1.1205
 1002MOL0     H35264   3.177  10.655   0.239 -2.5099 -2.1123  0.5073
 1002MOL0     H35265   3.036  10.749   0.299 -1.1340  0.3964  0.6339
 1002MOL0     H35266   3.050  10.898   0.109 -0.6243  1.2523  4.0247
 1002MOL0     H35267   3.194  10.816   0.045 -2.7554 -0.1274 -1.5093
 1002MOL0     H35268   3.304  11.112   0.309  1.1977  0.3959  0.6296
 1002MOL0     H35269   2.702  10.582   0.088  2.3249 -1.6820 -0.1517
 1002MOL0     H35270   2.474  10.494   0.072  1.8063 -1.5278  0.7319
 1003MOL0     O35271   3.120   9.437   8.151  0.3637  0.4563  0.3405
 1003MOL0     C35272   3.144   9.384   8.258  0.5618 -0.2558 -0.2983
 1003MOL0     O35273   3.247   9.296   8.281  0.3725 -0.8004  0.1184
 1003MOL0     C35274   3.358   9.296   8.198 -0.3706  0.0085 -0.4191
 1003MOL0     C35275   3.362   9.286   8.056  0.1393 -0.4921 -0.2339
 1003MOL0     C35276   3.477   9.287   7.982  0.1855  0.1895 -0.1158
 1003MOL0     C35277   3.598   9.312   8.046 -0.3380 -0.1540  0.8616
 1003MOL0     O35278   3.710   9.327   7.959 -0.5537 -0.0768 -0.1462
 1003MOL0     C35279   3.837   9.304   8.014 -0.5339  0.3861 -0.3184
 1003MOL0     C35280   3.944   9.297   7.900 -0.9268 -0.0334 -0.3961
 1003MOL0     C35281   3.923   9.413   7.800  0.7784 -0.6873 -0.5042
 1003MOL0     C35282   3.986   9.379   7.662  0.6243  0.2907 -0.4285
 1003MOL0     C35283   4.139   9.385   7.645  0.1449 -0.4558 -0.1316
 1003MOL0     C35284   4.171   9.392   7.494  0.1560  0.3422 -0.4156
 1003MOL0     C35285   4.124   9.283   7.402  0.5878  0.0426  1.2556
 1003MOL0     C35286   4.145   9.321   7.255 -0.5449  0.0023 -0.5732
 1003MOL0     N35287   4.057   9.425   7.198  0.0359 -0.0419  0.2387
 1003MOL0     C35288   4.079   9.503   7.087  0.1429 -0.6724 -0.5361
 1003MOL0     C35289   3.946   9.551   7.058 -0.7572 -0.1092  0.2271
 1003MOL0     C35290   3.900   9.633   6.946  0.0489  0.1398 -0.3357
 1003MOL0     C35291   3.933   9.786   6.973 -0.3614  0.7439 -0.0231
 1003MOL0     C35292   3.805   9.861   7.003 -0.1457 -0.4743  0.3285
 1003MOL0     C35293   3.736   9.815   7.135 -0.8185 -0.1055 -0.6596
 1003MOL0     O35294   3.636   9.917   7.147 -0.3561  0.3224 -0.0670
 1003MOL0     C35295   3.516   9.893   7.077  0.6973  0.2451 -0.6169
 1003MOL0     C35296   3.481   9.988   6.981 -0.1115  0.4310  0.2171
 1003MOL0     C35297   3.362   9.969   6.905  0.5094 -1.1357 -0.0253
 1003MOL0     C35298   3.325  10.079   6.811  0.3267 -0.1142  0.3104
 1003MOL0     C35299   3.272   9.865   6.937  0.5616  0.0092  0.4093
 1003MOL0     C35300   3.134   9.840   6.878 -0.3065  0.5286 -0.2920
 1003MOL0     O35301   3.089   9.713   6.893  0.2973 -0.0429  0.0129
 1003MOL0     C35302   2.957   9.674   6.859 -0.0046  0.7582  0.5307
 1003MOL0     C35303   2.947   9.546   6.802  0.4408  0.0127  0.1109
 1003MOL0     C35304   2.818   9.493   6.770 -0.5161 -0.0093  0.6032
 1003MOL0     C35305   2.711   9.560   6.794  0.1579 -1.3578 -0.6270
 1003MOL0     O35306   2.591   9.498   6.755  0.5887  0.0855  0.0165
 1003MOL0     C35307   2.486   9.510   6.861 -0.0101  0.3707 -0.5854
 1003MOL0     C35308   2.408   9.385   6.858  0.0644  0.3023 -0.0219
 1003MOL0     C35309   2.302   9.380   6.751 -0.4584 -0.4135 -0.1427
 1003MOL0     C35310   2.368   9.385   6.619  0.5829 -0.3016  0.3176
 1003MOL0     C35311   2.261   9.368   6.502  0.7890 -0.6826 -0.7615
 1003MOL0     C35312   2.237   9.220   6.504  0.5126 -0.3865  0.7101
 1003MOL0     C35313   2.174   9.182   6.367  0.2530  0.6327 -0.2251
 1003MOL0     C35314   2.064   9.086   6.374 -0.6999 -0.0490  0.6091
 1003MOL0    Cl35315   1.925   9.144   6.260 -0.0500 -0.2519 -0.1064
 1003MOL0     C35316   2.715   9.686   6.850 -0.2484 -0.3407  0.1179
 1003MOL0     C35317   2.836   9.747   6.870 -0.5498 -0.1567  0.0511
 1003MOL0     O35318   3.087   9.927   6.811 -0.1102 -0.0880  0.2174
 1003MOL0     C35319   3.300   9.782   7.046  0.1089 -0.1728 -0.5251
 1003MOL0     C35320   3.432   9.784   7.106  0.3704 -0.1403 -0.3928
 1003MOL0     N35321   3.860   9.496   7.151  0.3991  0.0583 -0.0126
 1003MOL0     N35322   3.929   9.436   7.235 -0.2173  0.6347  0.3133
 1003MOL0     C35323   3.602   9.334   8.184  0.7264  0.1831 -0.7110
 1003MOL0     C35324   3.482   9.318   8.264  0.0996 -0.1141  0.3465
 1003MOL0     C35325   3.052   9.413   8.370  0.9457 -0.3645  0.3650
 1003MOL0     C35326   3.082   9.371   8.499  0.8242 -0.2359  0.0791
 1003MOL0     C35327   3.012   9.405   8.608  0.5278  0.6767  1.3602
 1003MOL0     C35328   2.888   9.472   8.592 -0.2542 -0.0964  0.6367
 1003MOL0     O35329   2.811   9.509   8.696  0.1127  0.2782 -0.7315
 1003MOL0     C35330   2.797   9.424   8.805  0.2211 -0.6363 -0.3266
 1003MOL0     C35331   2.799   9.505   8.931 -0.3957  0.5968 -0.3501
 1003MOL0     C35332   2.662   9.562   8.965 -0.6962 -0.1389  0.3195
 1003MOL0     C35333   2.674   9.686   9.057 -0.5692 -0.4500 -0.3027
 1003MOL0     C35334   2.543   9.752   9.067  0.0032 -0.2002 -0.2751
 1003MOL0     C35335   2.434   9.801   9.080  0.4034 -0.5736  0.8034
 1003MOL0     C35336   2.846   9.509   8.463 -1.0509 -0.1633 -0.6847
 1003MOL0     C35337   2.933   9.487   8.347  0.2156 -0.7030  0.1289
 1003MOL0     H35338   3.264   9.260   8.017 -1.1429  0.0740  2.3993
 1003MOL0     H35339   3.468   9.253   7.879 -0.1691  0.1192 -0.0637
 1003MOL0     H35340   3.857   9.379   8.090  0.6819  0.0427 -0.2869
 1003MOL0     H35341   3.847   9.209   8.069 -2.5248  0.6511  0.6096
 1003MOL0     H35342   4.047   9.302   7.938 -0.2278  2.1821 -2.3858
 1003MOL0     H35343   3.930   9.202   7.847 -1.4070 -0.1046 -0.1520
 1003MOL0     H35344   3.818   9.415   7.772  1.0225 -0.2313 -1.4234
 1003MOL0     H35345   3.961   9.509   7.837  1.7844 -2.4635  3.7278
 1003MOL0     H35346   3.945   9.286   7.622  2.1612 -0.3367 -0.6078
 1003MOL0     H35347   3.943   9.462   7.607  0.6514 -1.0447 -2.5624
 1003MOL0     H35348   4.178   9.469   7.703 -1.4627 -0.8238  1.5386
 1003MOL0     H35349   4.180   9.286   7.667 -2.8066 -2.5231 -3.0310
 1003MOL0     H35350   4.129   9.489   7.462  0.3016  0.4916 -0.1602
 1003MOL0     H35351   4.277   9.411   7.479  1.2105 -1.0402  4.0062
 1003MOL0     H35352   4.160   9.182   7.422 -0.6697 -1.7794 -3.9672
 1003MOL0     H35353   4.015   9.272   7.408  0.4268 -1.2168 -1.9659
 1003MOL0     H35354   4.144   9.226   7.202  0.0961 -0.0659 -0.4656
 1003MOL0     H35355   4.246   9.350   7.227 -0.2489 -1.9076 -1.6117
 1003MOL0     H35356   4.174   9.523   7.038  1.2760  3.3655  2.7849
 1003MOL0     H35357   3.941   9.605   6.849 -2.2451 -2.9294 -0.5781
 1003MOL0     H35358   3.792   9.617   6.950  0.0956 -1.3366 -2.8472
 1003MOL0     H35359   3.975   9.814   6.876  0.1271 -0.3931 -0.1548
 1003MOL0     H35360   4.016   9.813   7.039 -2.2366  1.8632  1.9861
 1003MOL0     H35361   3.759   9.835   6.907 -1.5804 -2.7423  1.5515
 1003MOL0     H35362   3.832   9.967   7.005 -1.0020 -0.1704 -1.5308
 1003MOL0     H35363   3.812   9.820   7.214  2.3499 -1.4514 -3.3862
 1003MOL0     H35364   3.703   9.711   7.135  2.1745 -1.1776  1.0580
 1003MOL0     H35365   3.548  10.073   6.975 -1.5954  1.7830  1.7492
 1003MOL0     H35366   3.259  10.048   6.729  0.7434 -0.5322  0.1324
 1003MOL0     H35367   3.278  10.158   6.871 -3.1774 -1.9691  0.2723
 1003MOL0     H35368   3.422  10.115   6.776  0.3599 -0.0496  0.4651
 1003MOL0     H35369   3.037   9.487   6.793  1.7756  1.6704  1.8714
 1003MOL0     H35370   2.800   9.401   6.715  1.0247 -0.0049  0.0382
 1003MOL0     H35371   2.531   9.517   6.960  2.4461 -0.3613 -1.5616
 1003MOL0     H35372   2.410   9.587   6.846 -0.3841 -0.0288 -0.7783
 1003MOL0     H35373   2.470   9.297   6.836  1.9802  2.2074 -3.1655
 1003MOL0     H35374   2.367   9.372   6.958  1.3791  2.5611  0.8870
 1003MOL0     H35375   2.229   9.462   6.758 -0.1541 -0.2487  1.1908
 1003MOL0     H35376   2.263   9.278   6.755 -1.5280  0.0170  1.0619
 1003MOL0     H35377   2.416   9.482   6.597 -1.7874  1.1012  1.0137
 1003MOL0     H35378   2.450   9.314   6.609 -0.6723 -2.1848  2.4253
 1003MOL0     H35379   2.297   9.412   6.408  1.1905 -0.7088 -0.6223
 1003MOL0     H35380   2.165   9.417   6.520  1.1476 -0.3979  0.5098
 1003MOL0     H35381   2.321   9.151   6.521  0.9023 -0.5327 -1.4695
 1003MOL0     H35382   2.165   9.202   6.584  0.9067  1.5038  1.5228
 1003MOL0     H35383   2.252   9.127   6.313 -0.8150 -2.0874  0.8391
 1003MOL0     H35384   2.146   9.268   6.305 -3.2247 -1.1529 -1.4143
 1003MOL0     H35385   2.028   9.079   6.478  2.0109  3.1968  1.9472
 1003MOL0     H35386   2.089   8.988   6.335  0.2665  0.6684 -0.6480
 1003MOL0     H35387   2.619   9.736   6.855 -0.3928 -0.5422 -0.5582
 1003MOL0     H35388   2.835   9.848   6.909  1.7786 -0.2002  0.4007
 1003MOL0     H35389   3.236   9.707   7.092 -0.7879  0.2535 -1.0451
 1003MOL0     H35390   3.457   9.717   7.188 -0.8088  0.4739  0.5066
 1003MOL0     H35391   3.697   9.357   8.230  0.4021  0.5488 -0.2132
 1003MOL0     H35392   3.481   9.315   8.372  1.8379  2.2224  0.5030
 1003MOL0     H35393   3.178   9.319   8.503  1.2954  0.4761 -1.3167
 1003MOL0     H35394   3.042   9.390   8.712  0.1315 -1.4632  1.2223
 1003MOL0     H35395   2.706   9.363   8.800  0.2512 -0.7859  0.6395
 1003MOL0     H35396   2.879   9.353   8.821  0.7860  0.5158  2.5090
 1003MOL0     H35397   2.870   9.587   8.920  0.6067  0.1615  2.1708
 1003MOL0     H35398   2.827   9.437   9.012  0.4041  3.2464  1.7233
 1003MOL0     H35399   2.596   9.481   8.999  0.2419 -1.3647 -0.7274
 1003MOL0     H35400   2.611   9.601   8.876  0.2112  2.9956  1.0627
 1003MOL0     H35401   2.741   9.750   9.000 -1.4726 -0.5458 -1.5004
 1003MOL0     H35402   2.714   9.667   9.157  0.8276  0.0997 -0.7283
 1003MOL0     H35403   2.330   9.824   9.094  0.2763  0.8664 -1.8099
 1003MOL0     H35404   2.754   9.566   8.458 -1.0381  0.1002  1.4923
 1003MOL0     H35405   2.911   9.537   8.253 -2.5330  0.3082  1.2179
 1004MOL0     O35406   5.572   9.396   5.963 -0.7250 -1.1966  0.2097
 1004MOL0     C35407   5.534   9.382   5.848 -0.4424 -0.4473 -1.1393
 1004MOL0     O35408   5.417   9.356   5.812 -0.0542  0.8947 -0.6675
 1004MOL0     C35409   5.301   9.402   5.865 -0.2364  0.3376 -0.5732
 1004MOL0     C35410   5.193   9.328   5.819  0.8530 -0.4545 -0.5438
 1004MOL0     C35411   5.065   9.349   5.878 -0.1832  0.9279 -0.2796
 1004MOL0     C35412   5.049   9.443   5.977  0.3651 -0.7650  0.1084
 1004MOL0     O35413   4.929   9.458   6.037  0.2504  0.8617 -0.2050
 1004MOL0     C35414   4.895   9.590   6.081 -0.2210  0.2680 -0.4243
 1004MOL0     C35415   4.749   9.596   6.115  0.0034 -0.3670  1.0376
 1004MOL0     C35416   4.657   9.521   6.002 -0.3064  1.0740 -0.1920
 1004MOL0     C35417   4.664   9.592   5.868 -0.1051 -0.7195 -1.0708
 1004MOL0     C35418   4.559   9.551   5.764  1.0539 -0.2014  0.1029
 1004MOL0     C35419   4.589   9.595   5.620  0.0047  0.6714 -0.2416
 1004MOL0     C35420   4.489   9.526   5.525  0.6865  0.6922  0.5532
 1004MOL0     C35421   4.364   9.593   5.499  0.4606  0.3171  0.3151
 1004MOL0     N35422   4.382   9.723   5.432 -0.2790  0.3187 -0.6528
 1004MOL0     C35423   4.355   9.847   5.484  1.2753 -0.1134  0.3471
 1004MOL0     C35424   4.371   9.920   5.379 -0.6592 -0.3936 -0.1636
 1004MOL0     C35425   4.347  10.073   5.382  0.0648  0.5057  0.3646
 1004MOL0     C35426   4.199  10.092   5.420 -0.0098 -0.8241 -0.4157
 1004MOL0     C35427   4.159  10.240   5.465  0.1553  0.6956 -0.5711
 1004MOL0     C35428   4.153  10.333   5.353  1.0598  0.8030  0.4346
 1004MOL0     O35429   4.041  10.295   5.273 -0.2793  0.7971  0.3338
 1004MOL0     C35430   3.989  10.373   5.170  0.4865 -0.6163  1.2788
 1004MOL0     C35431   4.047  10.494   5.129 -0.4149  0.4120  1.4472
 1004MOL0     C35432   3.993  10.590   5.040  0.3441 -0.8007 -0.0674
 1004MOL0     C35433   4.070  10.714   5.008 -0.1361  0.2273 -0.2095
 1004MOL0     C35434   3.854  10.563   5.003  0.4032 -0.5909 -0.3458
 1004MOL0     C35435   3.758  10.659   4.944 -0.3864  0.1135 -0.2583
 1004MOL0     O35436   3.636  10.615   4.924  0.0661 -0.3212 -0.2850
 1004MOL0     C35437   3.548  10.695   4.848 -1.1599  0.6901 -0.4299
 1004MOL0     C35438   3.465  10.626   4.750 -0.6941 -0.2945  0.0288
 1004MOL0     C35439   3.369  10.698   4.681  0.1821 -0.2671  0.0731
 1004MOL0     C35440   3.341  10.842   4.706  0.1018  0.0219 -0.8790
 1004MOL0     O35441   3.253  10.925   4.646 -0.0476  0.8224 -0.0251
 1004MOL0     C35442   3.178  10.872   4.534 -0.2384 -0.5297  0.1637
 1004MOL0     C35443   3.263  10.863   4.408  0.2817 -0.1014  0.0727
 1004MOL0     C35444   3.202  10.768   4.297 -0.1234 -0.2670  0.5771
 1004MOL0     C35445   3.052  10.790   4.294  0.5704  0.1542  1.3898
 1004MOL0     C35446   2.991  10.691   4.192  0.3265  0.6540 -0.1759
 1004MOL0     C35447   2.985  10.772   4.059 -0.1205 -0.2020  0.7655
 1004MOL0     C35448   2.958  10.687   3.935  0.0434  0.7898 -1.1894
 1004MOL0     C35449   2.806  10.636   3.939 -0.9047  0.6631  0.7171
 1004MOL0    Cl35450   2.780  10.501   3.827  0.1746  0.0228 -0.0825
 1004MOL0     C35451   3.424  10.896   4.808  0.4029  0.1838  0.6677
 1004MOL0     C35452   3.518  10.826   4.878  0.7999  0.9263 -0.1385
 1004MOL0     O35453   3.799  10.768   4.908  0.0492 -0.2351 -0.3558
 1004MOL0     C35454   3.800  10.429   5.027 -0.0421 -0.0560  0.9253
 1004MOL0     C35455   3.861  10.337   5.111  0.0456  0.0141 -0.3822
 1004MOL0     N35456   4.390   9.850   5.263  0.8788  0.4585  0.2804
 1004MOL0     N35457   4.397   9.728   5.298  0.2862  0.1440  0.4872
 1004MOL0     C35458   5.159   9.528   6.004 -0.1334  0.0869 -0.2932
 1004MOL0     C35459   5.287   9.502   5.956  0.8262 -0.6981  0.4697
 1004MOL0     C35460   5.639   9.386   5.744  0.8733  0.1506 -0.2452
 1004MOL0     C35461   5.611   9.334   5.613 -0.2073 -0.5430 -0.7904
 1004MOL0     C35462   5.707   9.322   5.523 -0.1379  1.2956 -0.0705
 1004MOL0     C35463   5.832   9.379   5.543  0.5225  0.1949  0.8856
 1004MOL0     O35464   5.931   9.380   5.452  0.0442  0.0069 -0.9596
 1004MOL0     C35465   5.901   9.390   5.304  0.8666 -0.8730 -0.7830
 1004MOL0     C35466   6.034   9.417   5.239 -0.0741 -0.0227  0.8946
 1004MOL0     C35467   6.047   9.456   5.087  0.7356  0.3583 -0.2690
 1004MOL0     C35468   6.188   9.471   5.052 -0.5018 -0.7071  0.2211
 1004MOL0     C35469   6.231   9.605   5.090 -0.3654  1.3605 -0.5010
 1004MOL0     C35470   6.245   9.708   5.137  1.2118  0.0402 -0.4821
 1004MOL0     C35471   5.850   9.446   5.658 -0.0234 -0.1738 -0.6827
 1004MOL0     C35472   5.766   9.433   5.768  0.2612  0.7959 -0.3764
 1004MOL0     H35473   5.211   9.255   5.740 -1.0801 -0.1290 -1.3457
 1004MOL0     H35474   4.976   9.291   5.853 -0.1595  0.9117 -0.3258
 1004MOL0     H35475   4.954   9.627   6.165  1.9270  1.2223 -2.2235
 1004MOL0     H35476   4.913   9.664   6.002 -1.9950  0.8516 -0.3166
 1004MOL0     H35477   4.733   9.547   6.211 -2.0584 -0.2362  0.7940
 1004MOL0     H35478   4.702   9.693   6.130  0.6300  0.4881 -1.8202
 1004MOL0     H35479   4.681   9.419   5.969  0.9113  1.6039 -1.0335
 1004MOL0     H35480   4.553   9.537   6.031 -0.3207  0.0296  0.4042
 1004MOL0     H35481   4.651   9.700   5.879 -1.8875 -0.7461 -2.3393
 1004MOL0     H35482   4.765   9.583   5.828 -0.0788  0.5999 -1.3580
 1004MOL0     H35483   4.562   9.441   5.758  0.9401 -0.2329  0.5970
 1004MOL0     H35484   4.457   9.579   5.791  1.1028 -0.8713  1.0322
 1004MOL0     H35485   4.578   9.704   5.628 -1.5441  0.5810 -0.7485
 1004MOL0     H35486   4.694   9.570   5.604  0.4890  0.4824  2.6249
 1004MOL0     H35487   4.540   9.509   5.430  0.3975 -1.5016  0.7278
 1004MOL0     H35488   4.476   9.421   5.553 -2.7494  0.8159 -0.1590
 1004MOL0     H35489   4.308   9.610   5.592 -1.3893  0.5448 -0.8023
 1004MOL0     H35490   4.299   9.527   5.442  0.1273  1.9144 -1.2493
 1004MOL0     H35491   4.339   9.873   5.589 -0.8605 -3.1223  0.8967
 1004MOL0     H35492   4.413  10.127   5.450  0.0783 -0.7440  1.3864
 1004MOL0     H35493   4.359  10.121   5.284 -1.7286 -1.0959 -0.7190
 1004MOL0     H35494   4.163  10.017   5.492  0.5990 -0.9865 -0.2778
 1004MOL0     H35495   4.155  10.084   5.320  0.9759  0.0360 -0.9319
 1004MOL0     H35496   4.231  10.272   5.541 -0.4015  1.6124 -0.4240
 1004MOL0     H35497   4.063  10.246   5.516 -0.3786  1.5239 -1.6310
 1004MOL0     H35498   4.251  10.326   5.306  0.6699  0.9000 -0.4108
 1004MOL0     H35499   4.139  10.437   5.386  0.6812  0.4506  1.4329
 1004MOL0     H35500   4.146  10.519   5.166  0.4195 -3.3745  2.2298
 1004MOL0     H35501   4.052  10.731   4.901  2.5314 -3.3226 -1.4298
 1004MOL0     H35502   4.038  10.797   5.072  1.8956  0.8934  0.0260
 1004MOL0     H35503   4.174  10.700   5.038 -0.9615  0.5746  3.1884
 1004MOL0     H35504   3.481  10.519   4.735 -2.5938 -0.9433  2.1750
 1004MOL0     H35505   3.301  10.657   4.607  2.5835 -2.4806 -1.0513
 1004MOL0     H35506   3.129  10.777   4.561 -2.0504  0.6904  1.3796
 1004MOL0     H35507   3.094  10.938   4.512 -1.0309 -2.4327 -3.0987
 1004MOL0     H35508   3.284  10.961   4.364  1.9759  0.6852  2.4028
 1004MOL0     H35509   3.363  10.823   4.429  0.8917  1.7189  0.8985
 1004MOL0     H35510   3.223  10.665   4.327  0.5393 -1.1507 -2.5258
 1004MOL0     H35511   3.239  10.790   4.196  0.8659  0.8675  1.1658
 1004MOL0     H35512   3.009  10.764   4.391 -1.3681  0.4455  0.6567
 1004MOL0     H35513   3.037  10.896   4.270  2.6035 -0.3639 -3.1004
 1004MOL0     H35514   2.889  10.666   4.221 -0.0560  2.6643  0.3629
 1004MOL0     H35515   3.048  10.598   4.179  1.6433  1.2791  0.9564
 1004MOL0     H35516   2.904  10.847   4.060 -0.3779 -0.4776  0.7152
 1004MOL0     H35517   3.077  10.829   4.043 -1.8017  2.2462 -0.8471
 1004MOL0     H35518   3.021  10.597   3.935 -0.3394  0.5185 -1.4000
 1004MOL0     H35519   2.983  10.742   3.845  0.8220 -0.1139 -1.5413
 1004MOL0     H35520   2.743  10.724   3.921 -0.2912  0.5832 -2.2402
 1004MOL0     H35521   2.786  10.599   4.041  0.6027 -0.1042  0.7558
 1004MOL0     H35522   3.406  10.993   4.851  0.9472  1.0576 -0.9825
 1004MOL0     H35523   3.567  10.868   4.965  0.6504  0.7255  0.0436
 1004MOL0     H35524   3.707  10.396   4.980 -0.3573 -1.6136  2.5127
 1004MOL0     H35525   3.820  10.240   5.136  0.4146 -0.2280 -0.7028
 1004MOL0     H35526   5.148   9.608   6.077  3.0115 -1.8856  2.6033
 1004MOL0     H35527   5.367   9.572   5.977 -0.4309  0.6123  0.9850
 1004MOL0     H35528   5.518   9.294   5.575  0.6627 -1.6650 -1.8033
 1004MOL0     H35529   5.665   9.298   5.426  1.7553  0.1554 -0.6627
 1004MOL0     H35530   5.857   9.304   5.251  0.5689 -1.4568  0.3798
 1004MOL0     H35531   5.830   9.469   5.280  2.3922  0.5905 -0.6271
 1004MOL0     H35532   6.081   9.319   5.253  1.2599  0.6855  1.4975
 1004MOL0     H35533   6.094   9.478   5.306 -2.1613  0.9684  1.9756
 1004MOL0     H35534   5.999   9.553   5.066  1.2549  0.9102  1.0091
 1004MOL0     H35535   6.004   9.376   5.026  1.4047  0.7241 -1.2498
 1004MOL0     H35536   6.202   9.454   4.945 -1.2584 -1.7113  0.2722
 1004MOL0     H35537   6.247   9.393   5.100 -2.0332 -3.3142 -1.8477
 1004MOL0     H35538   6.265   9.804   5.180 -1.6617  0.9572 -0.9332
 1004MOL0     H35539   5.943   9.498   5.677  1.4931 -2.2256 -2.0013
 1004MOL0     H35540   5.781   9.480   5.865 -2.0578 -0.8915  0.9118
 1005MOL0     O35541   3.299   6.072   7.767  0.1924  0.1517 -1.1742
 1005MOL0     C35542   3.341   6.180   7.719 -0.5150  0.5992 -0.4890
 1005MOL0     O35543   3.288   6.246   7.617  0.9400 -0.8227  0.5521
 1005MOL0     C35544   3.185   6.184   7.548 -0.3466 -0.3622  0.6101
 1005MOL0     C35545   3.203   6.155   7.410 -0.9927 -0.2019 -1.0143
 1005MOL0     C35546   3.095   6.099   7.346  0.3321 -0.9183  0.0945
 1005MOL0     C35547   2.968   6.099   7.410 -0.5143  0.0652 -0.2460
 1005MOL0     O35548   2.862   6.057   7.329  0.0509 -0.0415  0.2191
 1005MOL0     C35549   2.728   6.065   7.373 -0.7428 -1.0170 -0.5875
 1005MOL0     C35550   2.622   6.020   7.275 -1.0195 -0.6774 -0.4463
 1005MOL0     C35551   2.663   6.057   7.128  0.2873  0.6353  0.4771
 1005MOL0     C35552   2.558   6.012   7.021  0.3341  0.3467  0.4344
 1005MOL0     C35553   2.592   6.081   6.887 -0.1123  1.4133  0.7433
 1005MOL0     C35554   2.485   6.046   6.780 -0.1301 -0.9445 -0.6446
 1005MOL0     C35555   2.525   6.114   6.639  1.4252 -0.0031 -0.3631
 1005MOL0     C35556   2.428   6.075   6.519 -0.5370  0.8370  0.8789
 1005MOL0     N35557   2.481   5.976   6.432  0.9072  0.1555 -0.0539
 1005MOL0     C35558   2.500   5.840   6.463  0.7258  0.6246  0.5747
 1005MOL0     C35559   2.519   5.776   6.354  0.7094 -0.6337  0.5865
 1005MOL0     C35560   2.543   5.629   6.331 -0.2449 -0.2852 -0.2298
 1005MOL0     C35561   2.414   5.548   6.321 -0.1640 -0.4251  0.3620
 1005MOL0     C35562   2.360   5.573   6.184 -0.2734  0.5970  0.5588
 1005MOL0     C35563   2.242   5.477   6.166 -0.3139  0.0051  0.4524
 1005MOL0     O35564   2.140   5.502   6.266 -0.2184 -0.0207  0.3858
 1005MOL0     C35565   2.025   5.430   6.262 -0.2264 -0.2061  0.0806
 1005MOL0     C35566   1.946   5.456   6.371 -0.1084 -0.3543 -0.4047
 1005MOL0     C35567   1.826   5.377   6.390  0.2962  0.2744 -0.2287
 1005MOL0     C35568   1.762   5.409   6.527 -0.3767 -0.5391  0.0884
 1005MOL0     C35569   1.786   5.274   6.294  0.4893  0.0345  1.1181
 1005MOL0     C35570   1.667   5.189   6.304  0.6457  0.2124 -0.4981
 1005MOL0     O35571   1.675   5.063   6.244  0.7220  1.0474 -0.3100
 1005MOL0     C35572   1.560   4.989   6.260  0.7371 -0.5234 -0.1182
 1005MOL0     C35573   1.482   4.956   6.146  0.4920  0.8447 -0.9533
 1005MOL0     C35574   1.362   4.880   6.170 -0.9408 -0.3156  0.1420
 1005MOL0     C35575   1.321   4.851   6.298  0.7579 -0.4617  0.6144
 1005MOL0     O35576   1.197   4.794   6.307 -0.3168 -0.3347 -0.5678
 1005MOL0     C35577   1.159   4.737   6.439  1.0531  0.5549 -0.2836
 1005MOL0     C35578   1.017   4.680   6.434 -0.3431 -0.0184  1.1143
 1005MOL0     C35579   1.011   4.543   6.358 -0.4647  0.3940  0.0833
 1005MOL0     C35580   0.868   4.507   6.312 -0.8518 -0.4532  0.4780
 1005MOL0     C35581   0.858   4.363   6.260  0.2462  1.0259 -0.7131
 1005MOL0     C35582   0.726   4.320   6.203 -0.6889  0.7831  0.0660
 1005MOL0     C35583   0.711   4.368   6.062  0.0269 -0.2331 -0.3319
 1005MOL0     C35584   0.611   4.280   5.990  0.1358  0.1678 -0.5232
 1005MOL0    Cl35585   0.687   4.129   5.923 -0.6162  0.0803 -0.1870
 1005MOL0     C35586   1.416   4.870   6.402  0.0475  1.0146 -0.7256
 1005MOL0     C35587   1.529   4.938   6.377  0.0647  0.3993 -0.2760
 1005MOL0     O35588   1.573   5.240   6.369  0.3254  0.1106  0.4946
 1005MOL0     C35589   1.876   5.248   6.185 -0.4203  0.2437 -0.2754
 1005MOL0     C35590   1.989   5.322   6.177 -1.4691 -0.8388  0.0453
 1005MOL0     N35591   2.525   5.872   6.248  0.6952 -0.9517  0.0656
 1005MOL0     N35592   2.505   5.984   6.302  0.4405 -0.2706  0.0623
 1005MOL0     C35593   2.950   6.126   7.543  1.1298 -0.0120 -0.4943
 1005MOL0     C35594   3.065   6.170   7.615  0.9467  0.4896  0.2205
 1005MOL0     C35595   3.467   6.231   7.765 -0.5478 -0.6976 -0.7372
 1005MOL0     C35596   3.514   6.349   7.717  0.1853 -0.6929  0.8076
 1005MOL0     C35597   3.629   6.411   7.769 -0.2269 -0.7402 -0.6527
 1005MOL0     C35598   3.712   6.341   7.854  0.3288 -0.0233  0.8679
 1005MOL0     O35599   3.838   6.400   7.883  0.2276 -0.3490 -0.9226
 1005MOL0     C35600   3.924   6.364   7.991  0.4130  0.8364  0.7822
 1005MOL0     C35601   4.070   6.408   7.956 -0.7478  0.2570 -0.5294
 1005MOL0     C35602   4.083   6.547   7.933  0.4998 -0.2835  0.0254
 1005MOL0     C35603   4.215   6.597   7.988 -0.3277  0.4427  0.1651
 1005MOL0     C35604   4.321   6.513   7.933 -0.1258 -0.4637  0.7147
 1005MOL0     C35605   4.421   6.454   7.889 -0.3279  0.5803  0.5347
 1005MOL0     C35606   3.670   6.228   7.917  0.3610 -0.1509  0.4617
 1005MOL0     C35607   3.552   6.163   7.865  0.6482 -0.3841  0.4176
 1005MOL0     H35608   3.301   6.152   7.363  0.2736 -1.8279  1.5077
 1005MOL0     H35609   3.093   6.052   7.248 -3.6431 -0.6563 -0.1046
 1005MOL0     H35610   2.714   6.017   7.471  1.2875 -0.1642  0.1613
 1005MOL0     H35611   2.694   6.168   7.389 -2.6676 -1.5414 -1.0459
 1005MOL0     H35612   2.595   5.915   7.288 -0.3206 -0.6080  2.2345
 1005MOL0     H35613   2.531   6.077   7.295 -0.7389  0.4569 -2.1721
 1005MOL0     H35614   2.671   6.166   7.124 -2.2570  0.8559 -0.3959
 1005MOL0     H35615   2.758   6.006   7.110  0.8822  0.8067  2.8571
 1005MOL0     H35616   2.556   5.903   7.016 -3.6017  0.3337 -0.8500
 1005MOL0     H35617   2.453   6.033   7.043  0.2597  4.3712 -2.5201
 1005MOL0     H35618   2.605   6.188   6.900  0.3935  1.5324 -0.5959
 1005MOL0     H35619   2.686   6.040   6.850 -1.2515 -2.6466  1.7932
 1005MOL0     H35620   2.469   5.938   6.770  0.4369 -1.4662  2.8171
 1005MOL0     H35621   2.388   6.082   6.816  1.1850  1.7189  0.5558
 1005MOL0     H35622   2.533   6.223   6.646  1.0114  0.2257 -2.5873
 1005MOL0     H35623   2.625   6.081   6.609  1.6874  0.5791 -0.1386
 1005MOL0     H35624   2.425   6.162   6.453  0.2457  0.7618  0.7299
 1005MOL0     H35625   2.331   6.042   6.557 -1.2414 -0.0941 -1.5530
 1005MOL0     H35626   2.500   5.789   6.558  2.8943 -2.4574 -0.9256
 1005MOL0     H35627   2.622   5.607   6.258  1.8850 -0.4303  1.9526
 1005MOL0     H35628   2.588   5.588   6.422 -0.0766 -0.4540 -0.3876
 1005MOL0     H35629   2.337   5.583   6.391 -0.2759 -1.7713  0.9418
 1005MOL0     H35630   2.441   5.444   6.339 -2.0307 -0.8293  1.0549
 1005MOL0     H35631   2.423   5.557   6.096  0.5198 -0.1054  1.2353
 1005MOL0     H35632   2.331   5.678   6.178  1.3647  0.9885 -1.7747
 1005MOL0     H35633   2.277   5.373   6.166  1.0313  0.4216 -0.6119
 1005MOL0     H35634   2.210   5.500   6.064  4.0195  1.3532 -0.8604
 1005MOL0     H35635   1.988   5.526   6.442 -1.1798 -1.2973  1.2203
 1005MOL0     H35636   1.719   5.319   6.571 -0.2832  0.4077  2.2592
 1005MOL0     H35637   1.843   5.439   6.594  1.6349 -0.8431 -2.0752
 1005MOL0     H35638   1.688   5.488   6.518 -0.5291 -0.6918 -0.0145
 1005MOL0     H35639   1.505   5.004   6.051  0.4124  1.1919 -0.7980
 1005MOL0     H35640   1.287   4.855   6.095  1.6773  0.7585 -3.0549
 1005MOL0     H35641   1.233   4.663   6.468 -1.0802 -0.4499  3.2970
 1005MOL0     H35642   1.159   4.810   6.521 -1.3616  0.9075 -0.5230
 1005MOL0     H35643   0.981   4.667   6.536  1.7073 -2.1306  1.6418
 1005MOL0     H35644   0.960   4.758   6.382 -0.0599  1.3775  2.8038
 1005MOL0     H35645   1.035   4.467   6.432  2.0713  0.6209 -0.3924
 1005MOL0     H35646   1.089   4.528   6.283 -2.5430 -1.4237 -1.8657
 1005MOL0     H35647   0.804   4.513   6.401 -1.3401  5.0349  0.0949
 1005MOL0     H35648   0.831   4.578   6.237  0.5320 -0.9734 -0.7467
 1005MOL0     H35649   0.869   4.292   6.343  0.4656  0.3980 -1.2699
 1005MOL0     H35650   0.944   4.348   6.194  1.4938 -0.3093  1.1192
 1005MOL0     H35651   0.723   4.211   6.202 -1.5867  0.7739 -2.1377
 1005MOL0     H35652   0.643   4.353   6.267  0.8466  1.2697  1.8972
 1005MOL0     H35653   0.808   4.372   6.012 -0.9004  0.2928 -2.1811
 1005MOL0     H35654   0.674   4.471   6.064 -0.2198 -0.2674 -1.8977
 1005MOL0     H35655   0.567   4.339   5.909  0.7314  4.5493  2.0003
 1005MOL0     H35656   0.523   4.260   6.053  1.2477  1.9699  1.7647
 1005MOL0     H35657   1.409   4.834   6.504  1.4647  0.6855 -0.7151
 1005MOL0     H35658   1.593   4.946   6.464 -3.2567  2.0185  2.2746
 1005MOL0     H35659   1.852   5.173   6.111 -3.3270  1.7151 -0.9826
 1005MOL0     H35660   2.056   5.295   6.095  1.5569  0.0434  2.0848
 1005MOL0     H35661   2.860   6.095   7.595  1.2233  3.9465  2.4546
 1005MOL0     H35662   3.049   6.189   7.720 -3.5195  0.7080 -0.2750
 1005MOL0     H35663   3.455   6.402   7.643  3.0778  2.9204  0.8226
 1005MOL0     H35664   3.665   6.510   7.743  0.6401 -0.8950 -0.1023
 1005MOL0     H35665   3.902   6.419   8.083 -0.1627  0.1534  1.0564
 1005MOL0     H35666   3.924   6.256   8.009  5.1465  0.2926 -0.9849
 1005MOL0     H35667   4.106   6.352   7.869  1.6950  2.7608 -1.2747
 1005MOL0     H35668   4.131   6.375   8.041 -1.7292  0.9819  0.4802
 1005MOL0     H35669   4.005   6.601   7.987 -1.0923 -2.6112  0.2014
 1005MOL0     H35670   4.068   6.567   7.826 -0.3612  2.8588  0.6120
 1005MOL0     H35671   4.214   6.594   8.097  1.1597  0.6936  0.2137
 1005MOL0     H35672   4.242   6.699   7.957 -1.1300  0.4806 -0.4289
 1005MOL0     H35673   4.510   6.415   7.844 -1.5458 -0.4047 -1.1494
 1005MOL0     H35674   3.730   6.179   7.993  0.6906  1.4763  1.3012
 1005MOL0     H35675   3.530   6.063   7.899 -0.9331  0.4920  2.1523
 1006MOL0     O35676   3.742   2.203   1.775  0.2491 -0.4270 -0.2699
 1006MOL0     C35677   3.849   2.234   1.725 -0.6824 -0.0919 -0.6864
 1006MOL0     O35678   3.875   2.338   1.631 -0.3774  0.2628  0.3342
 1006MOL0     C35679   3.812   2.457   1.634 -0.5372  0.6395  0.8324
 1006MOL0     C35680   3.815   2.539   1.515  0.0411  0.2951 -0.0938
 1006MOL0     C35681   3.748   2.662   1.494  0.5480  0.9074  0.1059
 1006MOL0     C35682   3.656   2.699   1.592 -1.0123  0.4869 -0.0489
 1006MOL0     O35683   3.580   2.807   1.583  0.1033 -0.3432  0.5003
 1006MOL0     C35684   3.581   2.885   1.466 -0.8953  0.3412 -0.0404
 1006MOL0     C35685   3.498   3.014   1.486 -0.7795  0.0505 -0.6178
 1006MOL0     C35686   3.349   2.969   1.516 -0.0701 -0.4148  0.1878
 1006MOL0     C35687   3.248   3.088   1.514  0.0501 -0.0987  0.4994
 1006MOL0     C35688   3.234   3.170   1.637  0.6358 -0.8741  0.1034
 1006MOL0     C35689   3.362   3.261   1.678 -0.2153  0.0212 -0.7179
 1006MOL0     C35690   3.327   3.339   1.806  0.5670 -0.0380  0.4308
 1006MOL0     C35691   3.437   3.401   1.883 -0.2233 -0.1646  0.1763
 1006MOL0     N35692   3.491   3.509   1.808 -0.5840  1.0289  0.0916
 1006MOL0     C35693   3.439   3.619   1.761 -0.0108 -0.1917  0.6737
 1006MOL0     C35694   3.545   3.696   1.714 -0.8459 -0.5484 -0.6133
 1006MOL0     C35695   3.516   3.845   1.676 -0.5358 -0.5625 -0.2342
 1006MOL0     C35696   3.478   3.868   1.525  0.7676 -0.5405  0.4534
 1006MOL0     C35697   3.345   3.821   1.469 -0.0786 -0.1049 -0.3920
 1006MOL0     C35698   3.221   3.891   1.535  0.2103  0.6328  0.5288
 1006MOL0     O35699   3.259   4.027   1.564 -0.2704  0.1490 -0.2508
 1006MOL0     C35700   3.168   4.081   1.655 -0.0814 -0.2276  0.0467
 1006MOL0     C35701   3.192   4.208   1.693 -0.0894 -0.2791  0.4886
 1006MOL0     C35702   3.120   4.283   1.787  1.0022  0.6325 -0.9625
 1006MOL0     C35703   3.166   4.415   1.824 -0.0916 -0.7305  0.2537
 1006MOL0     C35704   2.997   4.227   1.837 -0.3867  0.1139 -0.7957
 1006MOL0     C35705   2.912   4.290   1.929  0.1163  0.6342  0.0452
 1006MOL0     O35706   2.800   4.216   1.970 -0.5636 -1.6010 -0.1413
 1006MOL0     C35707   2.713   4.282   2.052  0.0540 -0.5783 -0.3611
 1006MOL0     C35708   2.626   4.385   2.004  0.2368  0.3932  0.2842
 1006MOL0     C35709   2.544   4.458   2.097 -0.3274  0.4757  1.7961
 1006MOL0     C35710   2.549   4.434   2.234  0.0359 -0.4088  0.6235
 1006MOL0     O35711   2.454   4.515   2.302 -0.4468  0.0520  0.3954
 1006MOL0     C35712   2.459   4.509   2.443  0.0730  0.2250 -0.6613
 1006MOL0     C35713   2.349   4.604   2.504 -0.6970  0.2844  0.3451
 1006MOL0     C35714   2.350   4.627   2.654  0.3808 -0.7075 -0.9765
 1006MOL0     C35715   2.241   4.724   2.703  0.7985 -0.5357 -0.6505
 1006MOL0     C35716   2.201   4.706   2.854  0.9117  0.8414  0.2992
 1006MOL0     C35717   2.134   4.566   2.890 -0.7087 -0.4179  0.1872
 1006MOL0     C35718   2.074   4.579   3.040 -0.0134  0.6665  0.6109
 1006MOL0     C35719   1.991   4.459   3.073  0.2880  0.7989  0.4922
 1006MOL0    Cl35720   1.914   4.482   3.236 -0.2430 -0.1735 -0.0977
 1006MOL0     C35721   2.633   4.332   2.276 -0.2360 -1.0694  0.2296
 1006MOL0     C35722   2.724   4.255   2.187 -0.4295  0.5169  0.0105
 1006MOL0     O35723   2.938   4.409   1.971 -0.5036 -0.0825 -0.1760
 1006MOL0     C35724   2.974   4.090   1.811 -0.1990 -0.4585 -0.2927
 1006MOL0     C35725   3.055   4.019   1.723 -0.0607  0.3957 -0.0616
 1006MOL0     N35726   3.663   3.624   1.739  0.4565  1.1451 -0.0128
 1006MOL0     N35727   3.627   3.514   1.804  0.4231 -0.7916  0.0000
 1006MOL0     C35728   3.652   2.618   1.711 -0.0794  0.2154  0.0401
 1006MOL0     C35729   3.730   2.501   1.731  0.5429  0.0247 -0.0460
 1006MOL0     C35730   3.973   2.143   1.738 -0.5067 -1.1502  0.8633
 1006MOL0     C35731   4.084   2.179   1.657 -0.1400  0.0129 -0.4042
 1006MOL0     C35732   4.197   2.092   1.657 -0.5706  0.1250 -0.7247
 1006MOL0     C35733   4.210   1.985   1.737  0.4063 -0.3611  0.3277
 1006MOL0     O35734   4.339   1.927   1.724 -1.2355  0.4477 -0.1490
 1006MOL0     C35735   4.382   1.807   1.793 -0.2233 -0.1602 -1.4433
 1006MOL0     C35736   4.412   1.842   1.946  0.4216  0.3605 -0.4111
 1006MOL0     C35737   4.476   1.712   1.997  0.9197 -0.1942  0.2485
 1006MOL0     C35738   4.575   1.735   2.108  0.5536 -0.8056 -0.6706
 1006MOL0     C35739   4.523   1.819   2.228  0.3710 -0.1988  0.1514
 1006MOL0     C35740   4.498   1.905   2.308 -0.0094 -0.3724 -0.3717
 1006MOL0     C35741   4.101   1.952   1.822  0.6221  0.1531 -0.2899
 1006MOL0     C35742   3.980   2.024   1.819 -0.4466  0.1874  0.8559
 1006MOL0     H35743   3.865   2.485   1.436 -1.3671 -2.1513  0.5833
 1006MOL0     H35744   3.764   2.707   1.397  2.0618  0.1313 -0.0239
 1006MOL0     H35745   3.682   2.913   1.435  0.0930 -1.9753  0.8175
 1006MOL0     H35746   3.536   2.838   1.379  0.1414 -0.1591 -0.3244
 1006MOL0     H35747   3.539   3.079   1.564  0.2806  1.7037 -2.4513
 1006MOL0     H35748   3.496   3.075   1.395 -0.3991  0.6753 -0.2149
 1006MOL0     H35749   3.328   2.902   1.433 -0.3468 -0.4193  0.2611
 1006MOL0     H35750   3.343   2.913   1.610 -2.3950  1.1886  1.0925
 1006MOL0     H35751   3.283   3.156   1.435  2.2615 -1.4093  0.2611
 1006MOL0     H35752   3.150   3.043   1.496 -0.9923  1.5002  1.8762
 1006MOL0     H35753   3.154   3.243   1.617  1.1893 -0.6619 -1.4535
 1006MOL0     H35754   3.199   3.098   1.712 -2.6193  2.3684  2.0927
 1006MOL0     H35755   3.444   3.194   1.704  0.2697  0.5213 -0.9518
 1006MOL0     H35756   3.394   3.324   1.596 -0.1383 -0.0805 -0.7663
 1006MOL0     H35757   3.257   3.420   1.782 -2.2537 -1.9629  1.5960
 1006MOL0     H35758   3.266   3.271   1.867  0.9675  0.1078  1.0073
 1006MOL0     H35759   3.507   3.318   1.886 -0.3153 -0.3489 -1.5422
 1006MOL0     H35760   3.407   3.436   1.982  1.0908 -2.0580  1.2951
 1006MOL0     H35761   3.335   3.651   1.759  0.2748  0.7297  0.1519
 1006MOL0     H35762   3.442   3.899   1.736 -1.7862 -0.9986 -1.3485
 1006MOL0     H35763   3.608   3.901   1.697 -1.5694  1.5126 -0.9676
 1006MOL0     H35764   3.555   3.836   1.454  0.2692 -0.3682 -0.1684
 1006MOL0     H35765   3.486   3.976   1.515  1.4626 -0.6347 -0.1484
 1006MOL0     H35766   3.348   3.712   1.480  0.7192 -0.0031  0.5931
 1006MOL0     H35767   3.334   3.841   1.362  0.4161  0.4588 -0.3429
 1006MOL0     H35768   3.197   3.832   1.624 -1.1934 -0.2661 -0.4060
 1006MOL0     H35769   3.135   3.877   1.469  0.2005 -0.5348  0.7794
 1006MOL0     H35770   3.281   4.255   1.655  1.8877 -1.0816  3.7607
 1006MOL0     H35771   3.092   4.491   1.797  1.5789  0.1624 -2.2045
 1006MOL0     H35772   3.198   4.416   1.928  4.0158 -0.5347 -0.8552
 1006MOL0     H35773   3.255   4.451   1.771 -0.8748 -1.5859 -1.7176
 1006MOL0     H35774   2.620   4.411   1.899 -1.1993 -1.0840 -0.0384
 1006MOL0     H35775   2.461   4.521   2.065  1.4479  1.2319 -1.7378
 1006MOL0     H35776   2.450   4.409   2.486 -0.1277  0.2630 -0.6170
 1006MOL0     H35777   2.559   4.544   2.472 -0.7055  2.4626 -0.4446
 1006MOL0     H35778   2.373   4.689   2.440 -0.9423 -1.1521 -1.7821
 1006MOL0     H35779   2.250   4.569   2.473 -1.1773 -1.5711  3.4983
 1006MOL0     H35780   2.445   4.658   2.700 -1.1680 -0.5141  2.3963
 1006MOL0     H35781   2.326   4.531   2.701  0.4078 -0.5387 -0.6188
 1006MOL0     H35782   2.276   4.828   2.699  1.4399 -0.5312  2.5278
 1006MOL0     H35783   2.152   4.724   2.639  0.4783  0.4179 -0.2250
 1006MOL0     H35784   2.137   4.791   2.879  0.5210  0.0968  2.0052
 1006MOL0     H35785   2.294   4.721   2.910 -0.2915 -1.3179  3.1203
 1006MOL0     H35786   2.059   4.536   2.817  1.6842 -0.5079 -2.4019
 1006MOL0     H35787   2.216   4.494   2.886 -2.0034 -1.8697 -1.1409
 1006MOL0     H35788   2.000   4.656   3.061 -1.4301 -1.4436  4.1613
 1006MOL0     H35789   2.157   4.587   3.110 -0.8365 -0.3327  1.7410
 1006MOL0     H35790   2.059   4.374   3.062  0.9633  1.6173 -2.6550
 1006MOL0     H35791   1.911   4.446   2.999 -0.3645  0.7811  1.1793
 1006MOL0     H35792   2.624   4.314   2.383 -0.8528 -0.7642  0.2304
 1006MOL0     H35793   2.809   4.196   2.220 -3.0086 -2.7472  1.2830
 1006MOL0     H35794   2.896   4.036   1.863  2.5181 -1.0282  3.6162
 1006MOL0     H35795   3.034   3.915   1.702  2.8962 -0.1033 -0.9025
 1006MOL0     H35796   3.578   2.654   1.783 -1.2337 -1.4563 -0.2569
 1006MOL0     H35797   3.708   2.438   1.816  1.8157 -2.0199 -1.1561
 1006MOL0     H35798   4.101   2.269   1.598  0.1818  0.6760  0.6696
 1006MOL0     H35799   4.278   2.114   1.589  0.7494  3.9757  1.7534
 1006MOL0     H35800   4.305   1.730   1.782 -0.0884 -0.4607 -0.3944
 1006MOL0     H35801   4.478   1.775   1.754  0.3842  0.8996 -0.8869
 1006MOL0     H35802   4.326   1.854   2.012  1.9462 -2.5186  2.3202
 1006MOL0     H35803   4.474   1.931   1.964  2.2739 -1.4099  2.9413
 1006MOL0     H35804   4.532   1.656   1.921 -1.0763 -1.2291 -0.5370
 1006MOL0     H35805   4.403   1.634   2.020  0.9145  0.0629  1.1284
 1006MOL0     H35806   4.655   1.794   2.063  2.2187  0.6849  3.7252
 1006MOL0     H35807   4.604   1.636   2.146 -0.8368 -1.2249 -0.6165
 1006MOL0     H35808   4.485   1.976   2.388 -2.7825 -3.0631  1.7758
 1006MOL0     H35809   4.111   1.863   1.883 -1.6980  0.6054  0.8592
 1006MOL0     H35810   3.896   1.987   1.876  0.0786  0.4607  1.8302
 1007MOL0     O35811   5.559   4.578   4.959 -0.1445 -0.4235  0.0389
 1007MOL0     C35812   5.457   4.545   5.019  0.3862  0.3629 -0.1467
 1007MOL0     O35813   5.343   4.491   4.952  0.8275 -0.8998 -0.5202
 1007MOL0     C35814   5.354   4.445   4.827 -0.0452  0.3049 -0.0219
 1007MOL0     C35815   5.420   4.326   4.808 -1.2371 -0.6127  0.5052
 1007MOL0     C35816   5.425   4.256   4.685 -0.2971 -0.6043  0.9057
 1007MOL0     C35817   5.350   4.309   4.580  0.1069  1.1148 -0.3175
 1007MOL0     O35818   5.320   4.232   4.473  0.5505 -0.0420  0.8532
 1007MOL0     C35819   5.289   4.092   4.496  0.1968  0.0896  0.7982
 1007MOL0     C35820   5.169   4.062   4.582  0.3256 -0.6249  0.6164
 1007MOL0     C35821   5.044   4.073   4.492 -0.6661  0.4881 -0.8027
 1007MOL0     C35822   4.986   4.207   4.507  1.0845 -0.2035  0.4872
 1007MOL0     C35823   4.853   4.200   4.423  0.2369 -0.1999 -0.0702
 1007MOL0     C35824   4.802   4.343   4.407 -0.0866 -0.1545 -0.2704
 1007MOL0     C35825   4.672   4.342   4.329  0.1997 -0.6194 -0.2422
 1007MOL0     C35826   4.602   4.475   4.333  0.1790  0.2419  0.3186
 1007MOL0     N35827   4.497   4.465   4.234  0.6114 -0.2134 -0.2967
 1007MOL0     C35828   4.369   4.395   4.235 -1.1075 -0.3389  0.5922
 1007MOL0     C35829   4.324   4.402   4.110  0.8700 -1.2618 -0.0969
 1007MOL0     C35830   4.184   4.376   4.063  0.3765 -0.0778 -0.1339
 1007MOL0     C35831   4.097   4.504   4.034  0.4544 -1.3733  0.6068
 1007MOL0     C35832   4.149   4.587   3.910 -0.2851  0.0469  0.7195
 1007MOL0     C35833   4.031   4.644   3.830 -0.2313 -0.6299  0.1868
 1007MOL0     O35834   3.956   4.731   3.921 -0.1440  0.2876  0.3015
 1007MOL0     C35835   3.838   4.794   3.876  0.6793  0.1859 -1.0004
 1007MOL0     C35836   3.761   4.844   3.979 -0.4698 -1.0685  1.0427
 1007MOL0     C35837   3.631   4.898   3.960  0.3166  0.5106  0.4318
 1007MOL0     C35838   3.571   4.962   4.076  0.0020  0.0372 -0.9210
 1007MOL0     C35839   3.572   4.902   3.829 -0.0968  0.1816 -0.6129
 1007MOL0     C35840   3.440   4.965   3.783 -0.3195 -0.4263 -0.5204
 1007MOL0     O35841   3.411   4.960   3.650 -0.3543 -0.5187 -0.3627
 1007MOL0     C35842   3.287   4.972   3.601 -0.1090 -0.7236  0.4282
 1007MOL0     C35843   3.170   4.950   3.675 -0.0640  0.5822  0.5075
 1007MOL0     C35844   3.045   4.958   3.614 -1.2324 -0.0376  0.0057
 1007MOL0     C35845   3.032   4.987   3.482  0.5632 -0.3061  0.0693
 1007MOL0     O35846   2.912   4.999   3.420  0.5359 -0.0646 -0.1382
 1007MOL0     C35847   2.791   5.011   3.503 -0.7505  0.7636  0.0286
 1007MOL0     C35848   2.672   5.053   3.421 -0.6162  0.5950  0.4483
 1007MOL0     C35849   2.565   4.942   3.397  0.2742 -0.1345  0.1654
 1007MOL0     C35850   2.617   4.829   3.317  0.9971 -0.3635  0.3681
 1007MOL0     C35851   2.638   4.878   3.169  0.1615  0.2202  0.6426
 1007MOL0     C35852   2.629   4.751   3.070  0.2480 -0.1219  0.1686
 1007MOL0     C35853   2.759   4.676   3.077 -0.3038 -0.0904  0.5574
 1007MOL0     C35854   2.738   4.548   2.993  0.4166 -0.2593 -0.6465
 1007MOL0    Cl35855   2.628   4.432   3.082  0.5367 -0.0908 -0.4046
 1007MOL0     C35856   3.145   5.009   3.408  0.8095  0.6663 -0.1921
 1007MOL0     C35857   3.267   5.000   3.462  0.0210  0.0617  0.0936
 1007MOL0     O35858   3.371   5.019   3.863 -0.7218  0.0345  0.0346
 1007MOL0     C35859   3.653   4.847   3.725  0.6291 -0.3909  0.2644
 1007MOL0     C35860   3.786   4.806   3.749 -0.4728 -0.6948 -0.4520
 1007MOL0     N35861   4.424   4.464   4.027  0.2821  0.1635  0.2246
 1007MOL0     N35862   4.512   4.511   4.103  0.2674 -0.4974 -0.6721
 1007MOL0     C35863   5.272   4.422   4.595 -0.9861  0.8385 -0.6701
 1007MOL0     C35864   5.275   4.488   4.721 -0.0945  0.0282  0.7739
 1007MOL0     C35865   5.454   4.556   5.170 -0.3976 -0.2467  0.1879
 1007MOL0     C35866   5.555   4.622   5.239  0.2599 -0.7465 -0.0712
 1007MOL0     C35867   5.553   4.643   5.375  0.0251  0.4967 -0.9074
 1007MOL0     C35868   5.443   4.603   5.459 -0.0691  0.5397 -0.6581
 1007MOL0     O35869   5.424   4.632   5.599 -0.2834  0.0342  0.7335
 1007MOL0     C35870   5.517   4.729   5.660  0.6049  0.0497 -0.3701
 1007MOL0     C35871   5.648   4.649   5.691 -0.2468 -1.0412 -0.2375
 1007MOL0     C35872   5.619   4.526   5.779  0.7348  0.3875 -0.2354
 1007MOL0     C35873   5.684   4.400   5.731 -0.2985 -0.0977  0.1335
 1007MOL0     C35874   5.830   4.407   5.735  0.0130  0.4736 -0.3160
 1007MOL0     C35875   5.948   4.430   5.739  0.1314  0.5561  0.1503
 1007MOL0     C35876   5.335   4.544   5.390  0.4415 -0.9071  0.7605
 1007MOL0     C35877   5.346   4.507   5.256  0.1819 -0.1559  0.0231
 1007MOL0     H35878   5.464   4.268   4.889  1.4833  1.5883  0.7543
 1007MOL0     H35879   5.485   4.167   4.666 -2.4771 -2.1364  0.9117
 1007MOL0     H35880   5.283   4.042   4.399 -2.1763  0.8980  0.4593
 1007MOL0     H35881   5.380   4.045   4.534  0.8980  0.2881 -0.5764
 1007MOL0     H35882   5.178   3.961   4.622 -0.7642 -0.9675  0.0504
 1007MOL0     H35883   5.157   4.135   4.663 -0.4618 -0.1783  0.1116
 1007MOL0     H35884   5.072   4.051   4.389 -0.7278 -3.3034 -0.1552
 1007MOL0     H35885   4.982   3.988   4.524  0.6680 -1.1737 -2.4138
 1007MOL0     H35886   4.963   4.246   4.607 -2.2066  1.8067 -0.8934
 1007MOL0     H35887   5.056   4.277   4.461  0.1213 -0.0649 -0.8054
 1007MOL0     H35888   4.875   4.157   4.325  2.3380 -0.4522  0.4688
 1007MOL0     H35889   4.783   4.134   4.476 -3.1492  2.3768 -0.9044
 1007MOL0     H35890   4.783   4.376   4.510  0.0258 -4.9289  1.5415
 1007MOL0     H35891   4.882   4.405   4.365 -1.8849  4.8609  2.8148
 1007MOL0     H35892   4.688   4.314   4.224 -1.2078 -2.4297 -0.0422
 1007MOL0     H35893   4.602   4.271   4.374  1.0508  0.8085  3.7133
 1007MOL0     H35894   4.674   4.555   4.312 -0.5278  0.9269  0.4628
 1007MOL0     H35895   4.564   4.506   4.431 -1.1734  0.0174 -0.1072
 1007MOL0     H35896   4.312   4.355   4.319  0.6039 -0.6418  1.6667
 1007MOL0     H35897   4.182   4.314   3.973  2.6514 -1.2833  0.5625
 1007MOL0     H35898   4.127   4.327   4.143 -2.2378 -0.1052 -1.9093
 1007MOL0     H35899   4.096   4.549   4.134  1.2996  0.7880 -0.3064
 1007MOL0     H35900   3.994   4.473   4.013  0.0602  0.2985 -0.0928
 1007MOL0     H35901   4.207   4.521   3.845 -0.3796  0.1451  0.5333
 1007MOL0     H35902   4.226   4.660   3.939 -0.0284  0.6216 -1.2513
 1007MOL0     H35903   3.970   4.571   3.777 -0.4259  0.8960 -1.7678
 1007MOL0     H35904   4.074   4.714   3.759 -4.5194 -0.5390 -2.6962
 1007MOL0     H35905   3.801   4.851   4.080 -0.9392  2.0276  1.1194
 1007MOL0     H35906   3.638   4.952   4.162 -0.8931 -2.3518 -0.4134
 1007MOL0     H35907   3.546   5.066   4.056  3.8616  1.4663  0.6877
 1007MOL0     H35908   3.480   4.906   4.098  0.5024 -0.8168 -0.9448
 1007MOL0     H35909   3.162   4.925   3.781  0.5578 -3.3251 -0.1911
 1007MOL0     H35910   2.960   4.947   3.681  0.3209 -0.9943  1.9178
 1007MOL0     H35911   2.770   4.916   3.554 -0.5511  0.2814 -0.7675
 1007MOL0     H35912   2.820   5.074   3.587  0.1254 -2.6156  2.4820
 1007MOL0     H35913   2.628   5.140   3.471 -0.5578 -0.5792  2.6465
 1007MOL0     H35914   2.710   5.084   3.323  0.5855  0.2957  0.8167
 1007MOL0     H35915   2.484   4.985   3.337  0.8176  0.5719 -0.0763
 1007MOL0     H35916   2.527   4.904   3.492 -1.7219 -1.5293 -1.1044
 1007MOL0     H35917   2.711   4.783   3.350  1.5667  0.9511  0.6274
 1007MOL0     H35918   2.540   4.751   3.320 -0.1622  0.7406  0.2665
 1007MOL0     H35919   2.743   4.909   3.175  1.3976 -3.6901  3.6490
 1007MOL0     H35920   2.573   4.958   3.133 -0.6901 -0.2435  1.1360
 1007MOL0     H35921   2.551   4.687   3.112  0.6290 -0.2745  0.6578
 1007MOL0     H35922   2.609   4.768   2.964 -0.3092 -2.1591 -0.0982
 1007MOL0     H35923   2.776   4.645   3.181  1.6699 -2.4821 -0.3800
 1007MOL0     H35924   2.836   4.742   3.036 -0.9607  0.0719 -0.4476
 1007MOL0     H35925   2.824   4.483   2.972  0.7053 -0.6701  1.5775
 1007MOL0     H35926   2.696   4.570   2.894  2.4752  1.5987 -1.2045
 1007MOL0     H35927   3.127   5.045   3.307  0.0516  1.2486  0.1330
 1007MOL0     H35928   3.350   5.022   3.395 -2.4000  0.4592 -3.0392
 1007MOL0     H35929   3.616   4.853   3.623 -0.8188  1.4307  0.8380
 1007MOL0     H35930   3.832   4.754   3.665 -1.4774 -1.6460 -0.4360
 1007MOL0     H35931   5.205   4.450   4.514 -1.1243  1.3179 -0.3953
 1007MOL0     H35932   5.201   4.567   4.732 -1.5180 -0.8072 -1.8096
 1007MOL0     H35933   5.638   4.663   5.182 -0.8368 -0.2393 -1.3238
 1007MOL0     H35934   5.631   4.713   5.402  0.0842  0.6686 -1.4975
 1007MOL0     H35935   5.546   4.805   5.586  3.6736 -2.7801 -2.4247
 1007MOL0     H35936   5.469   4.764   5.751 -1.1815 -1.0946 -0.8288
 1007MOL0     H35937   5.719   4.721   5.732  0.7691 -1.0511 -1.8658
 1007MOL0     H35938   5.696   4.624   5.595  4.3172  0.0742  1.5025
 1007MOL0     H35939   5.513   4.501   5.793  0.4248  0.6154 -1.9388
 1007MOL0     H35940   5.659   4.539   5.880 -1.2100  0.6219  0.5447
 1007MOL0     H35941   5.646   4.361   5.636  1.5664  0.0160 -0.7083
 1007MOL0     H35942   5.664   4.330   5.813  3.7375  0.9204  2.2653
 1007MOL0     H35943   6.051   4.453   5.723  1.1901 -1.7436  2.7781
 1007MOL0     H35944   5.256   4.497   5.446  1.0459 -2.9546 -0.0413
 1007MOL0     H35945   5.268   4.447   5.209  1.3942 -2.2982  0.5918
 1008MOL0     O35946   4.744   3.072   2.051  0.0041  0.5676 -0.4805
 1008MOL0     C35947   4.678   3.027   1.952  0.6531  0.1062  0.2267
 1008MOL0     O35948   4.596   3.101   1.872 -0.1847  0.1075 -1.0045
 1008MOL0     C35949   4.527   3.204   1.935 -0.2288 -0.5768  0.3710
 1008MOL0     C35950   4.570   3.332   1.945 -0.5278 -0.4145  0.3157
 1008MOL0     C35951   4.494   3.419   2.023  0.4731 -0.0438  0.1177
 1008MOL0     C35952   4.376   3.377   2.092  0.4035  0.1058  0.2936
 1008MOL0     O35953   4.310   3.456   2.184 -0.5163  0.2447  0.4109
 1008MOL0     C35954   4.373   3.465   2.311  0.8325 -0.6557 -0.2873
 1008MOL0     C35955   4.289   3.529   2.426  1.0334 -0.3699  0.1278
 1008MOL0     C35956   4.368   3.513   2.556 -0.1738  0.7308 -0.8618
 1008MOL0     C35957   4.286   3.581   2.676  0.2273 -0.4761  0.2766
 1008MOL0     C35958   4.371   3.574   2.798 -0.9485 -0.1917  0.2146
 1008MOL0     C35959   4.305   3.658   2.910  0.2192  0.5290 -0.2295
 1008MOL0     C35960   4.395   3.662   3.035 -0.0242 -0.5938 -0.1896
 1008MOL0     C35961   4.508   3.765   3.022 -0.3657 -0.7355 -0.6715
 1008MOL0     N35962   4.592   3.791   3.140  0.3484  0.0255 -0.3517
 1008MOL0     C35963   4.672   3.901   3.152  0.6276 -0.3491  0.5356
 1008MOL0     C35964   4.694   3.910   3.282 -0.7179 -0.4640 -0.1855
 1008MOL0     C35965   4.789   4.014   3.345  0.3440 -0.1669 -0.0882
 1008MOL0     C35966   4.699   4.136   3.387 -0.4052  0.0020 -0.1460
 1008MOL0     C35967   4.775   4.262   3.440 -0.6583  0.9299 -0.5106
 1008MOL0     C35968   4.851   4.232   3.574  0.6768  1.2834  0.0624
 1008MOL0     O35969   4.946   4.330   3.591 -1.0922  0.2721 -0.3072
 1008MOL0     C35970   5.000   4.349   3.715  0.5063 -0.3952 -0.0184
 1008MOL0     C35971   4.982   4.270   3.830  0.8010  0.3558  0.0965
 1008MOL0     C35972   5.041   4.301   3.948  0.3617 -0.7437  0.5725
 1008MOL0     C35973   4.985   4.214   4.062  0.1375  0.0087 -1.4406
 1008MOL0     C35974   5.140   4.397   3.955 -0.1107  0.6125 -0.5671
 1008MOL0     C35975   5.217   4.427   4.081 -0.7184  0.1256  0.2264
 1008MOL0     O35976   5.273   4.550   4.074  0.2511 -0.6729 -0.0041
 1008MOL0     C35977   5.366   4.591   4.165 -0.0488 -0.1263 -0.6981
 1008MOL0     C35978   5.335   4.715   4.217  0.2688 -0.3265  0.2666
 1008MOL0     C35979   5.412   4.787   4.313  0.6431  0.5934 -0.1457
 1008MOL0     C35980   5.548   4.740   4.348  0.2862  0.0295  0.9793
 1008MOL0     O35981   5.637   4.798   4.432  0.4499 -0.2745 -0.3329
 1008MOL0     C35982   5.624   4.934   4.457  0.3944  0.4822  1.0038
 1008MOL0     C35983   5.721   5.001   4.364  0.2274  0.0039 -0.6477
 1008MOL0     C35984   5.735   5.146   4.412  0.0846  1.2343  0.0172
 1008MOL0     C35985   5.651   5.253   4.321 -0.1293  0.1439  0.3153
 1008MOL0     C35986   5.498   5.221   4.323 -0.1052  0.0364  0.4356
 1008MOL0     C35987   5.415   5.318   4.241  0.2816 -0.3305  0.2958
 1008MOL0     C35988   5.394   5.443   4.335  0.5991 -0.4495 -0.9657
 1008MOL0     C35989   5.258   5.519   4.319 -1.0339 -0.5524 -0.4038
 1008MOL0    Cl35990   5.226   5.647   4.433  0.3729  0.0024 -0.6729
 1008MOL0     C35991   5.580   4.604   4.294  0.0345  0.5164 -0.3085
 1008MOL0     C35992   5.485   4.528   4.210 -0.2411  0.4375  0.1206
 1008MOL0     O35993   5.238   4.336   4.162 -0.0242  0.0547 -0.4347
 1008MOL0     C35994   5.164   4.478   3.843 -0.9393 -0.3039  0.5214
 1008MOL0     C35995   5.089   4.455   3.724 -0.7796 -0.1763 -0.0069
 1008MOL0     N35996   4.636   3.805   3.349 -0.0932  0.4522 -0.7962
 1008MOL0     N35997   4.579   3.736   3.261 -0.5931 -0.2068 -0.2937
 1008MOL0     C35998   4.327   3.253   2.074 -0.7916 -0.9229  0.3309
 1008MOL0     C35999   4.407   3.166   2.000  0.3242  0.2145  0.1650
 1008MOL0     C36000   4.692   2.892   1.917  0.5719 -0.4541  0.3059
 1008MOL0     C36001   4.801   2.822   1.959 -0.2585  0.8117 -0.3375
 1008MOL0     C36002   4.814   2.686   1.924 -0.1288  0.2732  0.0598
 1008MOL0     C36003   4.718   2.618   1.853  0.6747  0.1674  0.1932
 1008MOL0     O36004   4.710   2.482   1.824  0.9889  0.4974  0.4909
 1008MOL0     C36005   4.803   2.388   1.882  0.9458  0.0131 -0.3008
 1008MOL0     C36006   4.761   2.249   1.852 -0.3502 -0.5564 -0.1733
 1008MOL0     C36007   4.615   2.217   1.868  0.5367 -0.1179  0.2048
 1008MOL0     C36008   4.570   2.240   2.011 -0.0052 -0.7424  0.2704
 1008MOL0     C36009   4.427   2.239   2.031 -0.2682 -0.2938  0.4832
 1008MOL0     C36010   4.305   2.220   2.048 -0.3029 -0.1938  0.3922
 1008MOL0     C36011   4.615   2.690   1.797  0.8501 -0.5231 -0.0814
 1008MOL0     C36012   4.592   2.822   1.836 -0.1550 -0.6642 -0.0957
 1008MOL0     H36013   4.658   3.365   1.892  0.0804  0.5043  1.8214
 1008MOL0     H36014   4.529   3.522   2.017  0.1786 -0.0285 -3.8355
 1008MOL0     H36015   4.418   3.373   2.347  1.5776 -0.5669 -0.9506
 1008MOL0     H36016   4.460   3.526   2.283  1.1312 -1.9816 -2.4906
 1008MOL0     H36017   4.294   3.636   2.402  2.5247 -0.3091  0.6384
 1008MOL0     H36018   4.185   3.495   2.428  1.8345 -2.9639  1.4425
 1008MOL0     H36019   4.380   3.406   2.576 -2.9688  0.1939 -1.6693
 1008MOL0     H36020   4.463   3.564   2.539 -0.5198  1.7203  0.0239
 1008MOL0     H36021   4.262   3.685   2.649 -1.5431 -0.8416  0.2835
 1008MOL0     H36022   4.188   3.537   2.698  0.9218 -0.8836  2.7981
 1008MOL0     H36023   4.370   3.469   2.831  0.6915  0.1280  1.4125
 1008MOL0     H36024   4.473   3.608   2.782 -0.8950  1.1960  2.9238
 1008MOL0     H36025   4.293   3.763   2.881  2.4107  1.3110  1.4065
 1008MOL0     H36026   4.208   3.615   2.938 -0.7709  3.4498  1.3415
 1008MOL0     H36027   4.333   3.690   3.121  0.4905  1.7585 -0.5181
 1008MOL0     H36028   4.448   3.567   3.044 -1.1691 -1.2357 -0.0408
 1008MOL0     H36029   4.461   3.857   2.984  0.1271 -0.3145 -0.2793
 1008MOL0     H36030   4.572   3.744   2.935  0.0311  0.0796 -0.5919
 1008MOL0     H36031   4.706   3.960   3.067  0.9621 -0.5042  0.5588
 1008MOL0     H36032   4.837   3.967   3.432  0.3577  1.2847  0.7246
 1008MOL0     H36033   4.867   4.048   3.275  1.0630 -0.8332  0.3649
 1008MOL0     H36034   4.631   4.109   3.468 -3.3462  2.8012 -1.4456
 1008MOL0     H36035   4.645   4.165   3.296 -0.3511 -2.8070 -1.1838
 1008MOL0     H36036   4.712   4.352   3.439 -0.9587  0.7215 -0.2736
 1008MOL0     H36037   4.862   4.281   3.377  0.9283 -0.3593  1.1783
 1008MOL0     H36038   4.894   4.132   3.582 -2.3082 -0.0104  1.6995
 1008MOL0     H36039   4.785   4.241   3.661 -0.9304  0.6195 -1.0441
 1008MOL0     H36040   4.917   4.184   3.823  0.8185  0.4403 -1.6645
 1008MOL0     H36041   4.965   4.275   4.151  0.7927 -2.9790  0.9223
 1008MOL0     H36042   4.898   4.152   4.038 -0.1699 -1.8553  3.4126
 1008MOL0     H36043   5.064   4.148   4.096  0.0717 -1.1516 -3.3969
 1008MOL0     H36044   5.233   4.748   4.201 -0.3395 -2.1246  0.2080
 1008MOL0     H36045   5.375   4.878   4.360 -0.1981  0.7505 -1.0935
 1008MOL0     H36046   5.526   4.984   4.448  1.2448  2.2135  0.8814
 1008MOL0     H36047   5.669   4.941   4.556 -0.6457  1.5280  1.4215
 1008MOL0     H36048   5.819   4.952   4.368 -0.4200 -1.2020  1.3314
 1008MOL0     H36049   5.691   5.004   4.259  0.1237 -2.1587 -0.7294
 1008MOL0     H36050   5.841   5.172   4.405  1.0172 -1.4748  2.0881
 1008MOL0     H36051   5.703   5.166   4.515  1.7333 -0.1861  0.8665
 1008MOL0     H36052   5.662   5.358   4.349  3.1213 -0.1281  0.4690
 1008MOL0     H36053   5.695   5.253   4.221  0.9830  3.5646  0.6818
 1008MOL0     H36054   5.459   5.224   4.425  0.4258  1.1601  0.6181
 1008MOL0     H36055   5.486   5.124   4.273 -1.5090  1.3631 -1.9744
 1008MOL0     H36056   5.472   5.336   4.150 -0.8133 -1.8172 -0.7222
 1008MOL0     H36057   5.323   5.271   4.204  0.5320 -0.3557 -0.2921
 1008MOL0     H36058   5.478   5.513   4.329 -0.3635  0.9766  1.3226
 1008MOL0     H36059   5.397   5.416   4.441  0.1072 -1.9553 -1.3057
 1008MOL0     H36060   5.177   5.447   4.335 -0.6921 -0.9375 -0.4064
 1008MOL0     H36061   5.252   5.561   4.218 -3.6289  1.6996  0.5420
 1008MOL0     H36062   5.671   4.552   4.321 -0.6392  1.0115  3.4348
 1008MOL0     H36063   5.520   4.432   4.174  1.4156  1.0834 -0.0836
 1008MOL0     H36064   5.242   4.553   3.832 -2.2750  0.9917 -0.4884
 1008MOL0     H36065   5.119   4.504   3.631  0.6762  1.0605  1.0609
 1008MOL0     H36066   4.236   3.213   2.119 -1.0161 -2.8631 -1.6892
 1008MOL0     H36067   4.364   3.066   1.995  1.6207 -0.7138  4.3094
 1008MOL0     H36068   4.886   2.859   2.016 -1.1656 -1.6204  2.8460
 1008MOL0     H36069   4.904   2.633   1.955  0.7792  0.1675 -2.5064
 1008MOL0     H36070   4.902   2.400   1.837  1.9935 -0.1113  1.8375
 1008MOL0     H36071   4.804   2.409   1.990 -2.0141  1.6324 -0.4834
 1008MOL0     H36072   4.817   2.186   1.921  1.2182  0.1331 -0.7721
 1008MOL0     H36073   4.790   2.222   1.750  2.0753 -1.4577  0.6881
 1008MOL0     H36074   4.594   2.113   1.839 -1.1582  0.4662 -0.8343
 1008MOL0     H36075   4.551   2.272   1.798  1.3953  1.0991  0.3529
 1008MOL0     H36076   4.598   2.341   2.042  0.4721 -0.2529 -1.6841
 1008MOL0     H36077   4.618   2.170   2.080  1.3313 -0.9295 -0.8129
 1008MOL0     H36078   4.204   2.198   2.077 -0.3890  0.5007  0.6379
 1008MOL0     H36079   4.546   2.627   1.742 -1.7459  0.5072  1.7944
 1008MOL0     H36080   4.507   2.879   1.800 -0.5093 -1.3453 -0.3523
 1009MOL0     O36081   3.910   0.459   8.223 -0.4944 -0.2955 -0.7323
 1009MOL0     C36082   3.977   0.566   8.215  0.7089 -0.1402  0.7385
 1009MOL0     O36083   3.930   0.688   8.172  0.9131  0.0025 -1.2819
 1009MOL0     C36084   3.794   0.700   8.159  0.1514 -0.5524  0.6791
 1009MOL0     C36085   3.737   0.793   8.245 -0.2453 -0.0954 -0.0907
 1009MOL0     C36086   3.599   0.818   8.237 -0.7863  0.2113 -0.2940
 1009MOL0     C36087   3.520   0.753   8.140 -0.4200 -0.1697 -0.7675
 1009MOL0     O36088   3.391   0.783   8.143 -0.5760 -0.5845  0.1807
 1009MOL0     C36089   3.304   0.700   8.228  0.7660 -0.0752 -0.1026
 1009MOL0     C36090   3.206   0.614   8.140 -0.4626  0.0928  0.2731
 1009MOL0     C36091   3.075   0.561   8.200 -0.9082 -0.0659  0.4324
 1009MOL0     C36092   2.963   0.522   8.099  0.3344 -0.2998  0.3317
 1009MOL0     C36093   2.821   0.470   8.143  0.2302  0.4552  0.2907
 1009MOL0     C36094   2.761   0.355   8.057 -0.6228 -0.3279 -0.4112
 1009MOL0     C36095   2.649   0.273   8.133  0.7298 -0.1605  0.2137
 1009MOL0     C36096   2.540   0.369   8.185 -0.2420 -0.7524 -0.2371
 1009MOL0     N36097   2.436   0.281   8.232 -0.3705 -0.7772  0.4491
 1009MOL0     C36098   2.403   0.240   8.360  0.3932  0.0909  0.0793
 1009MOL0     C36099   2.309   0.145   8.337  0.1153 -0.0563 -0.5724
 1009MOL0     C36100   2.219   0.061   8.425 -0.1667  0.7375 -0.2671
 1009MOL0     C36101   2.108   0.148   8.478  0.7171  0.8880  0.7511
 1009MOL0     C36102   2.024   0.079   8.583  1.3585 -0.0155  0.1513
 1009MOL0     C36103   1.910   0.165   8.644  0.7439  0.2889 -0.5427
 1009MOL0     O36104   1.833   0.227   8.536 -0.8776  0.3782  0.5930
 1009MOL0     C36105   1.721   0.158   8.496  0.2080  0.4090 -0.1154
 1009MOL0     C36106   1.636   0.227   8.416  0.8728  0.0164 -0.1086
 1009MOL0     C36107   1.516   0.163   8.373 -0.2003 -0.4466 -0.0864
 1009MOL0     C36108   1.427   0.238   8.281 -0.7667  0.4148  1.1899
 1009MOL0     C36109   1.484   0.032   8.407 -0.6909  0.5921  0.3259
 1009MOL0     C36110   1.360  -0.031   8.370  0.4606 -0.2698 -0.7128
 1009MOL0     O36111   1.259  -0.038   8.468 -0.2956  0.3377  0.5313
 1009MOL0     C36112   1.136  -0.086   8.427 -1.3693  0.7968  0.4748
 1009MOL0     C36113   1.088  -0.211   8.475 -0.2182 -0.6784  0.6557
 1009MOL0     C36114   0.973  -0.266   8.434  0.2682 -0.0663  0.2337
 1009MOL0     C36115   0.885  -0.187   8.351  0.2826  0.3181  1.2025
 1009MOL0     O36116   0.764  -0.242   8.315  0.0368 -0.0882 -0.2126
 1009MOL0     C36117   0.687  -0.199   8.198 -0.2588 -0.2144 -0.1819
 1009MOL0     C36118   0.565  -0.297   8.199 -0.1474  0.1431  0.0638
 1009MOL0     C36119   0.471  -0.290   8.323  0.0564 -0.6273  0.2549
 1009MOL0     C36120   0.420  -0.160   8.359  0.1764 -1.4686 -0.1731
 1009MOL0     C36121   0.286  -0.178   8.426  0.2743  0.4755  1.0777
 1009MOL0     C36122   0.215  -0.048   8.459 -0.7779  0.4003  0.7448
 1009MOL0     C36123   0.090  -0.096   8.537  0.2175 -0.4314 -0.5294
 1009MOL0     C36124   0.006   0.017   8.602  0.5445 -0.3675 -0.2838
 1009MOL0    Cl36125  -0.009   0.148   8.481 -0.3412  0.2637  0.2217
 1009MOL0     C36126   0.930  -0.066   8.296 -0.6635  0.1893  0.2013
 1009MOL0     C36127   1.053  -0.010   8.335 -0.4884 -0.0399  0.2180
 1009MOL0     O36128   1.350  -0.058   8.254  0.0499 -0.3963 -0.0878
 1009MOL0     C36129   1.570  -0.036   8.497 -0.2994 -0.8090  0.2982
 1009MOL0     C36130   1.688   0.026   8.534  0.4785 -0.4931 -0.3638
 1009MOL0     N36131   2.281   0.141   8.198 -0.4212 -0.0438 -0.1479
 1009MOL0     N36132   2.360   0.219   8.135  0.2444  0.5017  0.1781
 1009MOL0     C36133   3.581   0.655   8.060  0.1197 -0.4543  0.1052
 1009MOL0     C36134   3.712   0.627   8.064 -0.5917 -0.0711  0.4892
 1009MOL0     C36135   4.113   0.563   8.270  0.0508 -0.0554  0.0045
 1009MOL0     C36136   4.207   0.656   8.230  0.0632 -0.4958  0.0178
 1009MOL0     C36137   4.342   0.652   8.279  0.4464  0.5237  0.2209
 1009MOL0     C36138   4.385   0.553   8.368 -0.1656 -0.6266 -0.1824
 1009MOL0     O36139   4.522   0.536   8.401  0.2333  0.1450  0.5503
 1009MOL0     C36140   4.561   0.616   8.520 -0.1277  0.1679 -0.6891
 1009MOL0     C36141   4.668   0.723   8.492 -0.5501  0.6526 -0.6775
 1009MOL0     C36142   4.783   0.647   8.415  0.4363  0.1098  0.8035
 1009MOL0     C36143   4.917   0.730   8.386  0.1093 -0.5782  0.1492
 1009MOL0     C36144   4.960   0.789   8.521  0.3347 -0.8931  0.4316
 1009MOL0     C36145   4.988   0.850   8.618  0.6011  0.1037  0.6382
 1009MOL0     C36146   4.284   0.464   8.415  0.1748 -0.0003  0.1074
 1009MOL0     C36147   4.153   0.467   8.368 -0.0214  0.4782  0.2721
 1009MOL0     H36148   3.790   0.853   8.318  1.6494 -1.1570 -0.5353
 1009MOL0     H36149   3.569   0.903   8.296  2.9014  1.9463 -0.6296
 1009MOL0     H36150   3.368   0.640   8.294  0.1590  0.0571  0.6168
 1009MOL0     H36151   3.236   0.758   8.290  0.3831 -2.0186  1.4261
 1009MOL0     H36152   3.194   0.677   8.051  0.5976 -0.1260 -0.0341
 1009MOL0     H36153   3.269   0.529   8.113 -1.8642 -1.4762  1.6904
 1009MOL0     H36154   3.096   0.478   8.268  0.0783 -0.6978 -0.6048
 1009MOL0     H36155   3.044   0.650   8.257  0.7511 -0.3218  1.8383
 1009MOL0     H36156   2.942   0.615   8.044 -0.1739 -0.0410  0.9541
 1009MOL0     H36157   2.992   0.444   8.028  0.7802 -2.7485  3.0183
 1009MOL0     H36158   2.833   0.434   8.246  0.3101  1.1480  0.5279
 1009MOL0     H36159   2.743   0.547   8.145  1.9631  2.4058 -1.4355
 1009MOL0     H36160   2.726   0.401   7.965  1.3711  2.2952  0.0390
 1009MOL0     H36161   2.837   0.280   8.032 -1.6018 -1.3990 -0.2768
 1009MOL0     H36162   2.614   0.200   8.059  3.4873  1.2316 -2.6947
 1009MOL0     H36163   2.677   0.216   8.222  0.8469  1.0687  0.9798
 1009MOL0     H36164   2.502   0.424   8.099 -2.4238 -0.1701  1.0268
 1009MOL0     H36165   2.570   0.450   8.252  0.8113  0.3393 -1.9378
 1009MOL0     H36166   2.445   0.275   8.454 -2.4258  0.5074  1.2810
 1009MOL0     H36167   2.191  -0.031   8.374 -4.4581  1.8106 -0.2637
 1009MOL0     H36168   2.279   0.026   8.509 -0.6289 -0.8646 -0.5816
 1009MOL0     H36169   2.032   0.170   8.402  0.6786 -0.7594  0.2635
 1009MOL0     H36170   2.142   0.239   8.527 -1.1726  2.5170 -0.7711
 1009MOL0     H36171   2.085   0.039   8.665  0.4362  2.6467  2.2998
 1009MOL0     H36172   1.979  -0.009   8.536  0.0740  0.0466  1.1962
 1009MOL0     H36173   1.932   0.241   8.719 -0.2501  1.4706 -1.4203
 1009MOL0     H36174   1.852   0.093   8.703 -0.4928  1.9010  0.2693
 1009MOL0     H36175   1.673   0.323   8.382  1.7088  0.1234  1.0627
 1009MOL0     H36176   1.320   0.235   8.307 -1.8558 -0.9195 -2.7397
 1009MOL0     H36177   1.453   0.344   8.279  0.2415  0.2697  3.5512
 1009MOL0     H36178   1.434   0.194   8.181  1.6537  2.8634  0.1584
 1009MOL0     H36179   1.162  -0.258   8.539 -1.1973 -1.4898  1.2084
 1009MOL0     H36180   0.932  -0.363   8.459 -1.9583  0.1046 -2.2136
 1009MOL0     H36181   0.667  -0.092   8.195 -0.9808 -0.3274  0.3429
 1009MOL0     H36182   0.747  -0.220   8.109 -2.0057  0.4746 -1.5990
 1009MOL0     H36183   0.508  -0.284   8.107  1.2178 -0.6177 -0.9358
 1009MOL0     H36184   0.594  -0.403   8.197 -1.5730 -0.3160  1.6140
 1009MOL0     H36185   0.522  -0.322   8.414 -0.1461 -1.4402  0.0937
 1009MOL0     H36186   0.399  -0.371   8.307  1.7784 -2.1345 -0.1253
 1009MOL0     H36187   0.493  -0.103   8.417 -0.5866  0.5196 -1.0819
 1009MOL0     H36188   0.403  -0.102   8.268 -1.5743 -1.8926 -0.1579
 1009MOL0     H36189   0.306  -0.236   8.517 -1.9242 -0.0819  1.2551
 1009MOL0     H36190   0.221  -0.229   8.355 -0.5679  0.8135  1.5798
 1009MOL0     H36191   0.289   0.009   8.516  1.5122 -1.6275 -0.0137
 1009MOL0     H36192   0.195   0.007   8.367  1.6763  2.1803  1.1426
 1009MOL0     H36193   0.110  -0.159   8.624 -0.5342 -1.0854 -0.8267
 1009MOL0     H36194   0.019  -0.146   8.472  0.8605 -0.6654 -1.0655
 1009MOL0     H36195   0.058   0.061   8.688 -0.4392  2.1328 -0.8510
 1009MOL0     H36196  -0.096  -0.016   8.623  0.4350 -1.2324 -2.0423
 1009MOL0     H36197   0.866  -0.018   8.223 -0.5148  0.9731  0.5844
 1009MOL0     H36198   1.081   0.089   8.300 -2.1173  1.4289  2.7513
 1009MOL0     H36199   1.546  -0.137   8.529 -2.4703  0.2966  2.5272
 1009MOL0     H36200   1.753  -0.046   8.581  1.3277 -1.1922 -2.5180
 1009MOL0     H36201   3.523   0.597   7.989 -0.3740  0.5020 -0.2865
 1009MOL0     H36202   3.747   0.546   8.001 -1.2452 -0.1871  0.2696
 1009MOL0     H36203   4.174   0.741   8.170 -1.7383 -0.1002  1.4783
 1009MOL0     H36204   4.423   0.715   8.245  1.2265 -1.9160 -2.9733
 1009MOL0     H36205   4.480   0.661   8.578 -0.8002 -0.1899 -1.3254
 1009MOL0     H36206   4.608   0.543   8.586  0.5075 -1.1075 -2.4841
 1009MOL0     H36207   4.700   0.772   8.584  2.1188 -0.1987 -1.0645
 1009MOL0     H36208   4.635   0.810   8.433 -2.5149  2.3498  2.6284
 1009MOL0     H36209   4.744   0.620   8.316 -0.4997  1.1945  0.8607
 1009MOL0     H36210   4.803   0.548   8.457  2.1561  0.5570  1.1371
 1009MOL0     H36211   4.897   0.802   8.306 -1.1490 -1.4914 -0.3819
 1009MOL0     H36212   5.000   0.668   8.350  1.3453 -0.4141  2.5124
 1009MOL0     H36213   5.008   0.917   8.700  0.7371 -0.4977  1.0987
 1009MOL0     H36214   4.311   0.386   8.485  0.5243 -1.3255 -1.4579
 1009MOL0     H36215   4.087   0.393   8.412  1.2997 -1.1848 -0.4241
 1010MOL0     O36216   6.603   3.195   2.363  0.4683 -0.0591 -0.3844
 1010MOL0     C36217   6.599   3.108   2.285 -0.2579 -0.6279 -0.2439
 1010MOL0     O36218   6.703   3.028   2.245 -0.4108 -0.3924 -0.3473
 1010MOL0     C36219   6.817   3.046   2.312 -0.2775  0.3567  0.2869
 1010MOL0     C36220   6.923   3.114   2.253 -0.2259  0.0227 -0.2562
 1010MOL0     C36221   7.039   3.120   2.320 -1.0934 -0.3428  0.6276
 1010MOL0     C36222   7.068   3.038   2.433 -0.1670  0.3086 -1.3939
 1010MOL0     O36223   7.186   3.022   2.502  0.1330  0.1814 -0.0544
 1010MOL0     C36224   7.313   3.057   2.442  0.0992  0.1185 -0.3179
 1010MOL0     C36225   7.427   3.033   2.551  0.2463 -0.3084 -0.3765
 1010MOL0     C36226   7.568   3.054   2.499 -0.4477  0.0555  0.5012
 1010MOL0     C36227   7.674   3.043   2.614  0.1919 -0.1670 -0.1594
 1010MOL0     C36228   7.810   3.097   2.564 -0.1629  0.0014 -0.7687
 1010MOL0     C36229   7.880   3.015   2.450 -0.2449  0.0820 -0.0533
 1010MOL0     C36230   8.030   3.015   2.468 -0.2340 -0.5986 -0.1996
 1010MOL0     C36231   8.086   2.918   2.561 -0.2362  0.4890 -1.3642
 1010MOL0     N36232   8.237   2.920   2.568  0.4748  0.0138  0.4076
 1010MOL0     C36233   8.316   2.914   2.458 -0.3852  0.1283  0.2215
 1010MOL0     C36234   8.442   2.937   2.506  0.4153 -0.0280 -0.3416
 1010MOL0     C36235   8.567   2.937   2.427 -0.3585 -0.1450 -0.1513
 1010MOL0     C36236   8.596   2.817   2.351  0.0290  0.1800  0.7896
 1010MOL0     C36237   8.569   2.692   2.438  0.1068  0.1378  0.2722
 1010MOL0     C36238   8.559   2.566   2.361 -0.2068  0.5288 -0.5176
 1010MOL0     O36239   8.460   2.561   2.258 -1.3186  0.3851 -0.1312
 1010MOL0     C36240   8.334   2.559   2.302  0.7121 -0.2958 -0.1579
 1010MOL0     C36241   8.255   2.660   2.245 -0.5874 -0.7944  0.5174
 1010MOL0     C36242   8.115   2.662   2.261 -0.1715  0.8716 -0.4671
 1010MOL0     C36243   8.034   2.770   2.180 -1.0120  0.0936  0.4956
 1010MOL0     C36244   8.051   2.556   2.341 -0.0923  0.5777  1.0932
 1010MOL0     C36245   7.907   2.538   2.363  0.8097 -0.0987 -0.0938
 1010MOL0     O36246   7.838   2.642   2.326 -0.2312  0.5434 -0.6558
 1010MOL0     C36247   7.702   2.633   2.312  0.0309  0.9996  0.2411
 1010MOL0     C36248   7.641   2.585   2.203  0.4860 -0.2898 -0.1178
 1010MOL0     C36249   7.504   2.587   2.194  0.7188  0.0437  0.6359
 1010MOL0     C36250   7.418   2.636   2.292  0.8180  0.7783 -0.0744
 1010MOL0     O36251   7.279   2.620   2.263 -0.4119 -0.8214 -0.0785
 1010MOL0     C36252   7.197   2.713   2.333  0.1307 -0.0674 -0.2520
 1010MOL0     C36253   7.049   2.694   2.276 -0.6859 -0.3134 -0.4484
 1010MOL0     C36254   6.980   2.569   2.332 -0.3195 -0.8046 -0.4896
 1010MOL0     C36255   6.827   2.586   2.321 -0.7006  0.1205 -0.4144
 1010MOL0     C36256   6.755   2.470   2.391 -0.6864 -0.2335 -0.2322
 1010MOL0     C36257   6.597   2.466   2.379 -0.0244  0.1695  0.1545
 1010MOL0     C36258   6.551   2.432   2.233 -0.0406 -0.4277  0.4180
 1010MOL0     C36259   6.396   2.444   2.201 -0.2269  0.4597  0.3228
 1010MOL0    Cl36260   6.295   2.368   2.329 -0.1307 -0.6077 -0.0492
 1010MOL0     C36261   7.472   2.676   2.411 -0.1467  0.1720 -0.1111
 1010MOL0     C36262   7.618   2.677   2.420 -1.0837 -0.0117  0.2256
 1010MOL0     O36263   7.869   2.426   2.406 -0.4331  0.3208  0.1858
 1010MOL0     C36264   8.144   2.464   2.399  1.0140  0.0509  0.0542
 1010MOL0     C36265   8.281   2.460   2.386  0.5883  0.3056 -0.2138
 1010MOL0     N36266   8.435   2.966   2.639  0.4754  0.1083 -0.6924
 1010MOL0     N36267   8.318   2.951   2.681  0.1413 -0.3922  0.6037
 1010MOL0     C36268   6.960   2.964   2.484 -0.0316 -0.6355  0.0915
 1010MOL0     C36269   6.833   2.967   2.429  0.4125 -0.7966 -0.3367
 1010MOL0     C36270   6.473   3.079   2.217 -0.0102 -1.1108 -0.6636
 1010MOL0     C36271   6.358   3.065   2.293 -0.3821 -0.7897  0.4277
 1010MOL0     C36272   6.237   3.011   2.251 -0.1024 -0.5347  0.4809
 1010MOL0     C36273   6.227   2.979   2.117 -0.3827  0.0798 -0.5766
 1010MOL0     O36274   6.109   2.943   2.049 -0.2466  1.2790  0.0881
 1010MOL0     C36275   6.022   2.850   2.122 -0.5660  0.3320  0.3659
 1010MOL0     C36276   5.884   2.910   2.170 -0.4978  0.7888  0.8453
 1010MOL0     C36277   5.787   2.955   2.055  0.7457  0.1252  0.9784
 1010MOL0     C36278   5.666   3.026   2.113  0.8233  0.0230 -0.4497
 1010MOL0     C36279   5.587   2.952   2.213 -0.4000  0.8736  0.4217
 1010MOL0     C36280   5.534   2.878   2.298  0.0549  0.5714  0.7811
 1010MOL0     C36281   6.342   2.979   2.045  0.2445  0.1874 -0.4768
 1010MOL0     C36282   6.466   3.025   2.093  0.0076 -0.5690 -0.1214
 1010MOL0     H36283   6.902   3.169   2.162  2.1441  0.0228 -0.8677
 1010MOL0     H36284   7.116   3.187   2.283 -1.5078  0.8618  1.8799
 1010MOL0     H36285   7.347   3.003   2.353  0.8736 -1.9936  1.1954
 1010MOL0     H36286   7.318   3.163   2.413 -1.3400  0.5852  1.0139
 1010MOL0     H36287   7.401   3.077   2.648 -1.5578 -2.8783  0.4150
 1010MOL0     H36288   7.417   2.928   2.581 -0.3718  0.3200  1.7887
 1010MOL0     H36289   7.596   2.985   2.419  0.6378  1.0705 -0.0435
 1010MOL0     H36290   7.577   3.150   2.447  1.6115 -0.2873  0.1077
 1010MOL0     H36291   7.640   3.107   2.697 -1.9189  0.7511 -1.6366
 1010MOL0     H36292   7.681   2.940   2.650 -2.5275  0.2023  1.8060
 1010MOL0     H36293   7.797   3.198   2.524  0.3483 -0.3784 -1.9374
 1010MOL0     H36294   7.875   3.105   2.651 -1.9465  1.1038  0.5337
 1010MOL0     H36295   7.855   2.909   2.459  1.5192 -0.3423  0.3626
 1010MOL0     H36296   7.846   3.043   2.350 -1.7622  4.5765  1.4837
 1010MOL0     H36297   8.080   3.004   2.371  2.2433 -0.9342  1.0326
 1010MOL0     H36298   8.060   3.113   2.507 -1.1237 -1.4556  2.8789
 1010MOL0     H36299   8.057   2.817   2.533  0.1163  1.3659 -5.5010
 1010MOL0     H36300   8.047   2.946   2.659  0.7701  1.5633 -1.2473
 1010MOL0     H36301   8.289   2.889   2.356  0.3672 -1.9989  0.4903
 1010MOL0     H36302   8.571   3.016   2.351  1.1893  0.1433  0.1944
 1010MOL0     H36303   8.657   2.960   2.486  0.0744  2.8151 -1.7585
 1010MOL0     H36304   8.698   2.820   2.312 -0.3239 -1.2224 -0.3584
 1010MOL0     H36305   8.524   2.826   2.269 -0.7302  3.7270  1.6828
 1010MOL0     H36306   8.478   2.705   2.498 -0.1520  2.3972 -0.5275
 1010MOL0     H36307   8.643   2.684   2.518 -1.7813 -0.3972  2.0675
 1010MOL0     H36308   8.554   2.482   2.430  2.5214 -0.1544 -1.0295
 1010MOL0     H36309   8.659   2.552   2.319  1.1951  1.5836  2.2019
 1010MOL0     H36310   8.303   2.723   2.171 -1.5202 -2.8604 -1.9865
 1010MOL0     H36311   7.959   2.824   2.238  0.5867  2.7046  0.2733
 1010MOL0     H36312   8.101   2.838   2.127 -0.2869 -1.9793 -1.3940
 1010MOL0     H36313   7.977   2.713   2.106 -2.8164  1.4402  0.7631
 1010MOL0     H36314   7.693   2.546   2.116  0.0314 -1.5313  0.1395
 1010MOL0     H36315   7.451   2.548   2.108 -1.0416  3.9561 -0.2835
 1010MOL0     H36316   7.203   2.710   2.442  0.9257 -0.7397 -0.3000
 1010MOL0     H36317   7.222   2.816   2.305 -0.2674  0.0015 -0.3527
 1010MOL0     H36318   6.987   2.782   2.295  0.2844  0.9687 -2.7521
 1010MOL0     H36319   7.050   2.689   2.167  2.7477  3.4938 -0.8378
 1010MOL0     H36320   7.014   2.564   2.436  1.6864 -0.1124 -1.0641
 1010MOL0     H36321   7.011   2.478   2.280 -2.4338 -1.3156 -0.9469
 1010MOL0     H36322   6.794   2.680   2.366  2.9754  1.4660 -0.1996
 1010MOL0     H36323   6.810   2.590   2.213 -2.3352  1.7459 -0.1371
 1010MOL0     H36324   6.796   2.457   2.491 -1.0996 -0.5468 -0.1005
 1010MOL0     H36325   6.789   2.380   2.339  0.6970  0.7686 -1.1402
 1010MOL0     H36326   6.563   2.385   2.445 -1.0099  0.8276  0.4870
 1010MOL0     H36327   6.559   2.561   2.419  1.2195  1.0464 -0.6935
 1010MOL0     H36328   6.591   2.334   2.203  0.7690  0.1979 -0.5872
 1010MOL0     H36329   6.599   2.497   2.160  0.6577 -1.0907  0.2721
 1010MOL0     H36330   6.378   2.384   2.112  0.6071 -0.6083  0.8633
 1010MOL0     H36331   6.353   2.543   2.181  1.0301  1.0005  0.2173
 1010MOL0     H36332   7.425   2.699   2.506  1.0266 -2.8775  1.3434
 1010MOL0     H36333   7.672   2.710   2.509  0.9499 -0.3924 -0.7997
 1010MOL0     H36334   8.102   2.386   2.462  1.0620 -0.1790 -0.1917
 1010MOL0     H36335   8.341   2.379   2.428  0.7024  1.5348  2.1649
 1010MOL0     H36336   6.971   2.921   2.583 -2.8144  0.4535  0.9693
 1010MOL0     H36337   6.753   2.910   2.473 -0.3143 -0.0047 -0.6062
 1010MOL0     H36338   6.371   3.098   2.395  1.7886  1.7730 -0.5644
 1010MOL0     H36339   6.149   3.010   2.314 -0.3346  1.7886  0.2921
 1010MOL0     H36340   6.002   2.761   2.062 -0.9319 -1.9235  3.5388
 1010MOL0     H36341   6.075   2.801   2.205  2.0605 -0.2219 -1.5114
 1010MOL0     H36342   5.909   2.990   2.240 -0.3840  2.5083 -1.0620
 1010MOL0     H36343   5.826   2.832   2.219 -1.9740  0.6471 -1.0200
 1010MOL0     H36344   5.762   2.872   1.989  1.4474  1.5727 -1.2383
 1010MOL0     H36345   5.839   3.026   1.990  0.6429 -0.8876 -0.2358
 1010MOL0     H36346   5.594   3.047   2.034 -0.5994 -1.0027  0.5285
 1010MOL0     H36347   5.689   3.125   2.154  2.5894 -0.5627  0.0970
 1010MOL0     H36348   5.513   2.821   2.387 -1.6298  1.7140  1.1779
 1010MOL0     H36349   6.328   2.953   1.940  3.2373 -1.2533 -0.6258
 1010MOL0     H36350   6.554   3.033   2.029 -0.9126  2.7276 -1.1661
 1011MOL0     O36351   1.251   8.388   9.526  0.3879 -0.5061  0.3843
 1011MOL0     C36352   1.285   8.390   9.407  0.7843  0.0333  0.5999
 1011MOL0     O36353   1.219   8.469   9.315 -0.6391  0.5760  1.0737
 1011MOL0     C36354   1.103   8.532   9.342 -0.3119  0.4947 -0.6069
 1011MOL0     C36355   0.983   8.501   9.278 -0.5029  0.2310  0.5820
 1011MOL0     C36356   0.865   8.574   9.308 -0.2501 -0.3172 -0.6087
 1011MOL0     C36357   0.867   8.671   9.411  0.1238  0.3667 -0.2496
 1011MOL0     O36358   0.749   8.717   9.456  0.3728 -0.9161 -0.1443
 1011MOL0     C36359   0.729   8.850   9.417 -0.3856 -0.2534  0.4294
 1011MOL0     C36360   0.579   8.888   9.416  0.5132  0.6456 -0.5481
 1011MOL0     C36361   0.563   9.013   9.340  0.6422 -0.2334  1.2403
 1011MOL0     C36362   0.412   9.032   9.322  0.0444 -0.0980  0.3748
 1011MOL0     C36363   0.384   9.155   9.234  0.3998  0.3407  0.4443
 1011MOL0     C36364   0.232   9.186   9.230 -0.6270 -0.3911  0.1397
 1011MOL0     C36365   0.207   9.302   9.138  0.6918  0.8825  0.4621
 1011MOL0     C36366   0.259   9.295   8.984  0.1448  0.1104 -0.1457
 1011MOL0     N36367   0.194   9.394   8.895 -0.2358 -0.1668 -0.1961
 1011MOL0     C36368   0.111   9.369   8.794  0.2302 -0.0903  0.0609
 1011MOL0     C36369   0.056   9.493   8.757  0.7902 -0.0154 -1.5014
 1011MOL0     C36370  -0.042   9.514   8.647 -0.2051 -0.0824  0.0928
 1011MOL0     C36371  -0.075   9.376   8.573  0.0346 -0.5154  0.3139
 1011MOL0     C36372  -0.175   9.385   8.461  0.7846  0.3291  0.1191
 1011MOL0     C36373  -0.235   9.249   8.440  0.3681 -0.0284 -0.4324
 1011MOL0     O36374  -0.325   9.230   8.326 -0.4182  0.0786 -0.2782
 1011MOL0     C36375  -0.460   9.244   8.338  0.4305  0.0893  0.1199
 1011MOL0     C36376  -0.541   9.178   8.247  0.4918  0.7265  0.9468
 1011MOL0     C36377  -0.681   9.189   8.250  0.3284  0.7657 -0.4500
 1011MOL0     C36378  -0.750   9.096   8.150  0.1282 -0.4416 -1.3213
 1011MOL0     C36379  -0.734   9.281   8.350  0.5501  0.6249  0.5099
 1011MOL0     C36380  -0.888   9.300   8.356  0.1409 -0.8044  0.0625
 1011MOL0     O36381  -0.957   9.281   8.248 -0.3476  0.4810 -0.5064
 1011MOL0     C36382  -1.090   9.300   8.252 -0.6156 -0.8589 -0.1845
 1011MOL0     C36383  -1.178   9.251   8.351  0.3947  0.2441  0.0462
 1011MOL0     C36384  -1.316   9.295   8.353 -0.6131  0.4421 -1.1269
 1011MOL0     C36385  -1.363   9.397   8.262 -0.0121  0.0131  0.6215
 1011MOL0     O36386  -1.483   9.440   8.256 -0.7620 -0.1307  0.4764
 1011MOL0     C36387  -1.517   9.568   8.202 -0.5188  0.7546 -0.4259
 1011MOL0     C36388  -1.467   9.684   8.272  0.1489 -1.1440  0.6326
 1011MOL0     C36389  -1.501   9.803   8.186 -0.6347 -0.0533 -1.2481
 1011MOL0     C36390  -1.391   9.907   8.191 -0.5550  0.6431 -1.1672
 1011MOL0     C36391  -1.408  10.016   8.090 -0.1469  0.6095 -0.2603
 1011MOL0     C36392  -1.299  10.116   8.089 -0.6091 -1.0839 -0.9025
 1011MOL0     C36393  -1.342  10.244   8.009  0.4245  0.1581 -0.1001
 1011MOL0     C36394  -1.339  10.221   7.853  0.1390 -0.4727 -0.2710
 1011MOL0    Cl36395  -1.188  10.155   7.784 -0.2663 -0.1843  0.6325
 1011MOL0     C36396  -1.267   9.441   8.172 -0.4566 -0.3337  0.2682
 1011MOL0     C36397  -1.145   9.393   8.161 -0.5039 -0.0418 -0.1820
 1011MOL0     O36398  -0.935   9.348   8.460 -0.1773  0.3604  0.1000
 1011MOL0     C36399  -0.654   9.347   8.444 -0.1064 -0.8373  0.5450
 1011MOL0     C36400  -0.517   9.330   8.437  0.3767 -0.2628  0.6000
 1011MOL0     N36401   0.128   9.589   8.824 -0.6417  0.0382  0.1365
 1011MOL0     N36402   0.203   9.522   8.907  0.0390 -0.1076 -0.7568
 1011MOL0     C36403   0.989   8.703   9.465 -0.1618 -0.3156  0.4124
 1011MOL0     C36404   1.108   8.635   9.432  0.1071  0.4542 -0.3158
 1011MOL0     C36405   1.386   8.289   9.360 -0.1498 -0.2353  0.6106
 1011MOL0     C36406   1.482   8.217   9.451 -0.0139  0.4787  0.4778
 1011MOL0     C36407   1.554   8.107   9.405 -0.8266  0.2411  0.5743
 1011MOL0     C36408   1.531   8.071   9.268 -0.6316  0.5139  0.2418
 1011MOL0     O36409   1.610   7.970   9.211 -0.6024  0.7690  0.0439
 1011MOL0     C36410   1.721   7.919   9.285 -0.5253  0.3797  0.5837
 1011MOL0     C36411   1.823   7.870   9.191 -0.1806 -0.4027  0.4402
 1011MOL0     C36412   1.935   7.790   9.254 -0.2242 -0.2578  0.0421
 1011MOL0     C36413   2.064   7.874   9.255  0.3830  0.0237 -0.1012
 1011MOL0     C36414   2.053   7.978   9.361 -1.0028 -0.1653  0.6794
 1011MOL0     C36415   2.046   8.054   9.455  0.8470 -0.1856 -0.4438
 1011MOL0     C36416   1.455   8.148   9.180  0.3182 -0.1249 -1.0237
 1011MOL0     C36417   1.393   8.258   9.222 -0.4778  0.3983 -0.1811
 1011MOL0     H36418   1.004   8.414   9.215  1.4165 -1.6345  3.5680
 1011MOL0     H36419   0.768   8.547   9.267 -0.1665 -1.6498  0.0187
 1011MOL0     H36420   0.793   8.913   9.480  0.4045  0.4941 -1.0578
 1011MOL0     H36421   0.762   8.868   9.314 -0.5902  0.0174  0.4074
 1011MOL0     H36422   0.524   8.804   9.371 -1.2131  0.6735  1.3522
 1011MOL0     H36423   0.535   8.910   9.514  1.9323 -0.2500  0.3284
 1011MOL0     H36424   0.610   9.101   9.385 -1.4135  1.1362  0.8699
 1011MOL0     H36425   0.603   9.006   9.238  1.8947 -0.8528  1.7584
 1011MOL0     H36426   0.366   8.941   9.283  1.8038 -0.9345  0.1789
 1011MOL0     H36427   0.378   9.054   9.424 -0.5871  0.9068 -0.0367
 1011MOL0     H36428   0.425   9.247   9.278 -0.8665  3.3575 -3.9689
 1011MOL0     H36429   0.439   9.138   9.140  0.4790 -0.0905  0.5683
 1011MOL0     H36430   0.173   9.097   9.206 -0.5759 -0.5171  0.4789
 1011MOL0     H36431   0.193   9.224   9.325  0.4855  0.5939  0.2278
 1011MOL0     H36432   0.098   9.317   9.142  0.6307  0.5968  0.0345
 1011MOL0     H36433   0.253   9.388   9.186  1.8661  0.4076  0.2166
 1011MOL0     H36434   0.254   9.193   8.944  0.2350  0.9533 -2.5120
 1011MOL0     H36435   0.366   9.314   8.975 -0.3478  2.3238 -3.3582
 1011MOL0     H36436   0.077   9.273   8.755 -1.2888  0.4206  0.0741
 1011MOL0     H36437  -0.135   9.561   8.678 -0.5653 -0.4290 -0.4543
 1011MOL0     H36438   0.007   9.572   8.568 -1.9481 -1.6442 -2.2679
 1011MOL0     H36439  -0.138   9.329   8.650 -2.8558  3.1043  0.4715
 1011MOL0     H36440   0.014   9.323   8.540  0.9209  1.0278  0.1083
 1011MOL0     H36441  -0.131   9.427   8.371 -0.0713 -1.7899 -1.3869
 1011MOL0     H36442  -0.259   9.453   8.478  0.0443 -0.4405 -0.3463
 1011MOL0     H36443  -0.286   9.219   8.532  0.9550  1.6308  0.4663
 1011MOL0     H36444  -0.153   9.176   8.432  2.0268  1.3017  2.7129
 1011MOL0     H36445  -0.501   9.110   8.172 -0.6456  2.6562 -1.5647
 1011MOL0     H36446  -0.776   9.150   8.058 -1.3215 -0.9403 -1.2270
 1011MOL0     H36447  -0.683   9.013   8.126  1.0875  1.0798 -4.6023
 1011MOL0     H36448  -0.842   9.050   8.187 -0.5175 -1.3239 -3.8315
 1011MOL0     H36449  -1.140   9.168   8.410  1.0394 -1.3892 -2.5006
 1011MOL0     H36450  -1.385   9.260   8.430  1.2680 -0.4579  0.2274
 1011MOL0     H36451  -1.497   9.582   8.095 -2.5745 -0.2048 -0.9978
 1011MOL0     H36452  -1.626   9.573   8.204 -0.4506  2.9255  1.4226
 1011MOL0     H36453  -1.518   9.693   8.368  0.0137 -2.0066  0.6513
 1011MOL0     H36454  -1.360   9.671   8.290  0.0722 -2.2314  0.3660
 1011MOL0     H36455  -1.589   9.859   8.219  0.4940  2.6177 -2.4904
 1011MOL0     H36456  -1.521   9.777   8.082 -0.8755 -0.3400 -1.1304
 1011MOL0     H36457  -1.387   9.961   8.285 -0.6050 -1.8392  0.3430
 1011MOL0     H36458  -1.298   9.851   8.179 -0.5030  0.7164 -1.1027
 1011MOL0     H36459  -1.503  10.066   8.110 -1.9089 -2.6083  0.2625
 1011MOL0     H36460  -1.421   9.975   7.989 -3.2488 -0.3799  0.4320
 1011MOL0     H36461  -1.281  10.140   8.194 -3.2328 -1.5589 -0.2731
 1011MOL0     H36462  -1.206  10.080   8.044  0.8224 -0.6550  1.5106
 1011MOL0     H36463  -1.281  10.329   8.040  1.2610 -1.1034  1.9047
 1011MOL0     H36464  -1.445  10.271   8.033  0.4018  0.9608 -1.0105
 1011MOL0     H36465  -1.352  10.314   7.797 -4.0931 -0.1609  0.8825
 1011MOL0     H36466  -1.422  10.154   7.829 -0.0328 -1.1736  1.9823
 1011MOL0     H36467  -1.303   9.506   8.093 -0.0963 -1.1950 -0.6305
 1011MOL0     H36468  -1.081   9.428   8.081 -0.9762 -0.5521 -0.7826
 1011MOL0     H36469  -0.702   9.416   8.512 -0.9818 -1.1142  0.2243
 1011MOL0     H36470  -0.454   9.375   8.513  3.0122 -1.7795 -0.5833
 1011MOL0     H36471   0.991   8.779   9.542  0.2796 -0.5601  0.6453
 1011MOL0     H36472   1.203   8.660   9.479 -0.1100 -0.8366  0.8926
 1011MOL0     H36473   1.487   8.258   9.552  1.5014  1.8899 -0.1135
 1011MOL0     H36474   1.621   8.056   9.475  3.1921 -2.8235 -4.7142
 1011MOL0     H36475   1.775   7.999   9.336 -2.2695  0.9688  1.5746
 1011MOL0     H36476   1.680   7.849   9.358 -0.6421  1.1771  1.2911
 1011MOL0     H36477   1.858   7.953   9.129  0.5261 -1.1899 -0.2366
 1011MOL0     H36478   1.774   7.804   9.118  0.5581 -0.0224 -0.4311
 1011MOL0     H36479   1.965   7.702   9.197  1.5968 -1.0589  2.0918
 1011MOL0     H36480   1.903   7.755   9.352  3.3146  0.8106  1.7388
 1011MOL0     H36481   2.086   7.918   9.156 -0.5577  1.2420  0.2083
 1011MOL0     H36482   2.144   7.806   9.284  1.0081 -1.4863 -4.5411
 1011MOL0     H36483   2.008   8.123   9.528  1.9599 -0.7649  0.7141
 1011MOL0     H36484   1.454   8.122   9.075 -2.9765 -0.8682 -0.9087
 1011MOL0     H36485   1.337   8.322   9.154  1.6514  2.5744  0.0027
 1012MOL0     O36486   8.453   9.667   2.640 -0.3811 -0.1925  0.1345
 1012MOL0     C36487   8.491   9.776   2.616 -0.8424  0.4887  0.5766
 1012MOL0     O36488   8.455   9.889   2.676  0.1272  0.3075 -0.1252
 1012MOL0     C36489   8.354   9.881   2.770 -0.0933  0.0606  0.6409
 1012MOL0     C36490   8.361   9.808   2.885 -0.0717 -0.7652  0.2164
 1012MOL0     C36491   8.266   9.819   2.977  0.4838  0.3542 -0.6088
 1012MOL0     C36492   8.157   9.908   2.971 -0.6260 -0.9482  0.0744
 1012MOL0     O36493   8.067   9.937   3.071 -0.0153  0.5031  0.0755
 1012MOL0     C36494   8.049   9.845   3.183 -0.5158 -0.3332 -0.1422
 1012MOL0     C36495   7.919   9.891   3.253  0.5596  0.0224  0.1310
 1012MOL0     C36496   7.885   9.797   3.362  0.0645  0.6173  0.1343
 1012MOL0     C36497   7.731   9.778   3.382 -0.6044 -0.7386  0.8360
 1012MOL0     C36498   7.700   9.685   3.497 -0.2867 -0.4176  0.3339
 1012MOL0     C36499   7.552   9.679   3.526  0.6200  0.0160  0.0555
 1012MOL0     C36500   7.507   9.573   3.631  0.3223 -0.0514  1.0210
 1012MOL0     C36501   7.543   9.605   3.781  0.1379 -0.0361  0.1073
 1012MOL0     N36502   7.535   9.755   3.825 -0.3821  0.7160 -0.7197
 1012MOL0     C36503   7.629   9.849   3.867  0.2995 -0.0486 -0.4537
 1012MOL0     C36504   7.562   9.965   3.871  0.5230  0.4465 -0.1295
 1012MOL0     C36505   7.628  10.095   3.893 -0.1644  0.9719  0.3730
 1012MOL0     C36506   7.701  10.141   3.769 -0.5620 -0.9221  0.7878
 1012MOL0     C36507   7.636  10.242   3.677 -1.2015 -0.2676 -0.0403
 1012MOL0     C36508   7.731  10.295   3.567  0.0446 -0.7720 -0.5262
 1012MOL0     O36509   7.713  10.438   3.557  0.2124  0.7873 -0.6360
 1012MOL0     C36510   7.823  10.496   3.516  0.8734 -0.5430 -0.1474
 1012MOL0     C36511   7.863  10.617   3.580  0.4511  0.4838 -0.2954
 1012MOL0     C36512   7.972  10.696   3.543 -0.3149  0.3508  0.6818
 1012MOL0     C36513   8.003  10.815   3.622 -1.2404 -1.4646  0.3508
 1012MOL0     C36514   8.054  10.652   3.438  0.7865  0.5654  0.5317
 1012MOL0     C36515   8.186  10.709   3.384 -0.4659 -0.0379  0.2676
 1012MOL0     O36516   8.274  10.622   3.313 -0.1569  0.4428  0.0396
 1012MOL0     C36517   8.378  10.668   3.243 -0.2081  0.0255 -0.2428
 1012MOL0     C36518   8.507  10.621   3.261 -0.8547  0.1371  0.7157
 1012MOL0     C36519   8.623  10.665   3.185  0.1974 -0.0844 -1.2079
 1012MOL0     C36520   8.607  10.773   3.097  0.3867  0.5737  0.1307
 1012MOL0     O36521   8.714  10.815   3.026 -0.7376 -0.4405  0.1728
 1012MOL0     C36522   8.707  10.934   2.937 -1.2784  0.0878  0.0891
 1012MOL0     C36523   8.640  10.913   2.801 -0.0714 -0.7383 -0.2485
 1012MOL0     C36524   8.733  10.857   2.692  0.8803 -0.5651 -0.6465
 1012MOL0     C36525   8.660  10.888   2.555 -0.1490  0.4551 -0.7443
 1012MOL0     C36526   8.567  10.772   2.502  0.2302 -0.0238  0.5626
 1012MOL0     C36527   8.419  10.788   2.540 -0.1032  0.0435 -0.6987
 1012MOL0     C36528   8.325  10.683   2.492  1.0811 -0.6775  0.0905
 1012MOL0     C36529   8.213  10.679   2.599  0.0897 -0.2390  0.9778
 1012MOL0    Cl36530   8.095  10.825   2.577  0.4980  0.4650 -0.5983
 1012MOL0     C36531   8.468  10.823   3.081  0.3591 -0.2440  0.4891
 1012MOL0     C36532   8.360  10.780   3.153 -0.5256  0.3486  0.8094
 1012MOL0     O36533   8.205  10.830   3.406 -0.9753 -0.2504 -0.6231
 1012MOL0     C36534   8.011  10.531   3.371  0.3978  0.4675  0.6128
 1012MOL0     C36535   7.895  10.466   3.400  0.5234  0.3265 -0.7719
 1012MOL0     N36536   7.432   9.952   3.843 -0.9913  0.4077 -0.0042
 1012MOL0     N36537   7.419   9.826   3.821 -1.0023 -0.3504 -0.5014
 1012MOL0     C36538   8.166  10.002   2.862 -0.6352  0.5503  0.0142
 1012MOL0     C36539   8.265   9.993   2.761 -0.2363  0.4064  0.4407
 1012MOL0     C36540   8.581   9.805   2.491  0.2163  0.5229 -1.1265
 1012MOL0     C36541   8.608   9.711   2.390 -0.0920  0.2741 -0.1742
 1012MOL0     C36542   8.681   9.727   2.274 -0.0618 -0.8559  0.0507
 1012MOL0     C36543   8.734   9.859   2.258 -0.5056 -0.3858 -0.2525
 1012MOL0     O36544   8.814   9.901   2.151 -0.8254  0.3462 -0.3462
 1012MOL0     C36545   8.834   9.821   2.033  0.0013  0.9585  0.1577
 1012MOL0     C36546   8.960   9.850   1.955 -0.0676  0.2132  0.1343
 1012MOL0     C36547   9.084   9.804   2.033 -0.1177  0.1230  1.1046
 1012MOL0     C36548   9.211   9.787   1.955 -0.0035  0.2818  1.3097
 1012MOL0     C36549   9.259   9.917   1.916 -0.8419 -0.2629  0.5659
 1012MOL0     C36550   9.297  10.035   1.905  0.3564  0.4429 -0.6041
 1012MOL0     C36551   8.711   9.961   2.354  0.2871 -0.1625 -0.0307
 1012MOL0     C36552   8.630   9.935   2.470 -0.4924 -0.6573  0.2649
 1012MOL0     H36553   8.449   9.747   2.904 -0.6050 -2.7326 -2.9260
 1012MOL0     H36554   8.274   9.757   3.066 -0.5880 -2.1766 -2.1886
 1012MOL0     H36555   8.032   9.746   3.140  3.3373 -0.5684 -1.5349
 1012MOL0     H36556   8.139   9.844   3.245  0.1839  1.3021 -1.0480
 1012MOL0     H36557   7.913   9.996   3.281 -0.2480 -0.5354  2.2940
 1012MOL0     H36558   7.837   9.890   3.181 -1.2099 -1.6817  2.0282
 1012MOL0     H36559   7.930   9.699   3.342 -0.3006  0.4295  0.2340
 1012MOL0     H36560   7.921   9.839   3.457  0.3118 -0.5326  0.5747
 1012MOL0     H36561   7.683   9.875   3.394  0.2923 -0.0157 -0.9752
 1012MOL0     H36562   7.690   9.743   3.287  0.7093  3.9770 -1.7720
 1012MOL0     H36563   7.731   9.587   3.459  1.5384  0.6844 -1.2047
 1012MOL0     H36564   7.746   9.714   3.592 -2.1890 -0.0471  1.1976
 1012MOL0     H36565   7.520   9.776   3.564 -3.3524 -0.6707 -1.0804
 1012MOL0     H36566   7.505   9.656   3.430  3.5321  2.1187 -2.0412
 1012MOL0     H36567   7.398   9.579   3.622  0.1755 -1.0007  1.9807
 1012MOL0     H36568   7.542   9.474   3.602  1.2637  0.9898 -1.7179
 1012MOL0     H36569   7.644   9.568   3.798  1.2217  1.9064 -1.6719
 1012MOL0     H36570   7.481   9.547   3.850  1.4664 -1.3166  0.2562
 1012MOL0     H36571   7.737   9.842   3.875  0.1692 -1.4968  0.4162
 1012MOL0     H36572   7.559  10.170   3.932  0.6963  1.3017  1.2932
 1012MOL0     H36573   7.698  10.078   3.976  1.4139  0.6926 -0.9559
 1012MOL0     H36574   7.732  10.060   3.701  2.2431  1.4421 -1.0312
 1012MOL0     H36575   7.793  10.187   3.805  0.6346 -1.2482 -1.5968
 1012MOL0     H36576   7.587  10.325   3.728 -0.2050  1.2243 -1.4203
 1012MOL0     H36577   7.557  10.186   3.625 -0.7883  0.0318 -1.0246
 1012MOL0     H36578   7.715  10.246   3.471  1.1210  1.1278 -1.7478
 1012MOL0     H36579   7.831  10.255   3.587 -0.4403 -1.8052 -0.0977
 1012MOL0     H36580   7.812  10.655   3.668 -0.7530  1.3846 -1.3497
 1012MOL0     H36581   8.111  10.817   3.642 -1.1124 -2.6341 -0.1715
 1012MOL0     H36582   7.974  10.910   3.576  2.8483  0.0772  0.5030
 1012MOL0     H36583   7.957  10.795   3.720 -2.8584 -5.0358 -0.9726
 1012MOL0     H36584   8.522  10.538   3.330  1.2661 -0.9814 -0.9569
 1012MOL0     H36585   8.719  10.628   3.219 -0.4490  1.0352  2.1904
 1012MOL0     H36586   8.663  11.021   2.988 -0.2148 -0.0063  1.2319
 1012MOL0     H36587   8.813  10.959   2.922 -1.0787  0.0474  1.2755
 1012MOL0     H36588   8.552  10.848   2.811  2.0010 -3.9099 -1.1861
 1012MOL0     H36589   8.607  11.012   2.768 -0.6784 -0.6903  0.4819
 1012MOL0     H36590   8.757  10.751   2.708 -1.9125 -1.3898 -1.3532
 1012MOL0     H36591   8.827  10.913   2.697  0.9294 -0.7320  0.3668
 1012MOL0     H36592   8.620  10.989   2.543 -0.4161  0.3003 -1.1592
 1012MOL0     H36593   8.744  10.885   2.485  2.9888 -1.4846  2.7214
 1012MOL0     H36594   8.607  10.683   2.551  0.3209 -0.4723 -0.2915
 1012MOL0     H36595   8.580  10.775   2.393  2.0126  0.2196  0.7509
 1012MOL0     H36596   8.422  10.775   2.648 -0.6291  0.6426 -0.6029
 1012MOL0     H36597   8.371  10.881   2.507 -3.8657 -1.1144  0.9234
 1012MOL0     H36598   8.390  10.595   2.482  4.7982  1.6950  1.5352
 1012MOL0     H36599   8.287  10.707   2.392  2.0328 -1.7368 -0.5593
 1012MOL0     H36600   8.250  10.695   2.701 -0.8484  0.6205  1.1947
 1012MOL0     H36601   8.161  10.585   2.578 -0.0900  0.4429 -1.9697
 1012MOL0     H36602   8.463  10.923   3.037  1.5540 -0.5323 -0.3662
 1012MOL0     H36603   8.265  10.830   3.138 -1.0412  0.5868  4.1232
 1012MOL0     H36604   8.068  10.499   3.285  0.6826 -0.8629  1.2755
 1012MOL0     H36605   7.867  10.387   3.331  1.6658  0.7298 -1.7341
 1012MOL0     H36606   8.087  10.076   2.863  0.4377  1.7607  1.8967
 1012MOL0     H36607   8.276  10.067   2.683  3.0424  1.2796  1.5737
 1012MOL0     H36608   8.571   9.609   2.397  5.3700 -2.0616 -0.6036
 1012MOL0     H36609   8.715   9.647   2.209  1.4634 -0.0658 -0.1735
 1012MOL0     H36610   8.831   9.713   2.051 -0.3773  0.7743 -0.9425
 1012MOL0     H36611   8.753   9.846   1.963  0.6141 -0.1082 -0.9573
 1012MOL0     H36612   8.963   9.956   1.926  1.5245 -0.0838 -0.8776
 1012MOL0     H36613   8.951   9.787   1.866  0.6176  0.3954 -0.0677
 1012MOL0     H36614   9.057   9.701   2.058  0.1564 -0.2166  0.0265
 1012MOL0     H36615   9.100   9.859   2.126  0.2530  0.6911  0.7133
 1012MOL0     H36616   9.213   9.725   1.865  4.5058  1.7431  0.1349
 1012MOL0     H36617   9.281   9.735   2.021  1.6999 -1.3045 -1.5415
 1012MOL0     H36618   9.335  10.135   1.897  1.4381  0.3114  1.9000
 1012MOL0     H36619   8.747  10.063   2.357 -2.2559  0.7970  1.2529
 1012MOL0     H36620   8.603  10.009   2.544  0.2449 -2.2057  2.1680
 1013MOL0     O36621   0.741   6.062   4.072  0.0489  0.5051  0.9410
 1013MOL0     C36622   0.647   5.991   4.075  0.3721 -0.1364 -0.5232
 1013MOL0     O36623   0.587   5.932   3.970 -0.6485 -0.2282 -1.2939
 1013MOL0     C36624   0.608   5.969   3.842  0.9679  0.5766  0.0522
 1013MOL0     C36625   0.501   5.989   3.757  0.2447  0.1644 -0.3313
 1013MOL0     C36626   0.505   6.022   3.623 -1.0794 -0.1309 -0.4054
 1013MOL0     C36627   0.633   6.029   3.571 -0.8480  0.0490 -0.1134
 1013MOL0     O36628   0.635   6.048   3.435  0.5275  0.2549  0.5999
 1013MOL0     C36629   0.749   6.024   3.352 -0.2821  0.0629 -0.1907
 1013MOL0     C36630   0.713   6.003   3.207 -0.3044  0.3404 -0.2269
 1013MOL0     C36631   0.671   6.137   3.131 -0.1647  0.7808  0.4154
 1013MOL0     C36632   0.520   6.166   3.100  0.0350  0.0805  0.4724
 1013MOL0     C36633   0.497   6.291   3.010  0.3119 -0.5139  0.3119
 1013MOL0     C36634   0.348   6.284   2.967 -0.4622 -0.6832 -0.3632
 1013MOL0     C36635   0.330   6.382   2.854  0.3503  0.6786 -0.3589
 1013MOL0     C36636   0.187   6.372   2.799  0.0512  0.4421 -0.1163
 1013MOL0     N36637   0.186   6.435   2.667  0.4498 -0.1522 -0.1716
 1013MOL0     C36638   0.213   6.372   2.550 -0.2164  0.0947 -0.5673
 1013MOL0     C36639   0.209   6.474   2.458  0.9194 -0.1024 -0.4340
 1013MOL0     C36640   0.252   6.470   2.320 -0.8903 -0.0538 -0.2213
 1013MOL0     C36641   0.404   6.469   2.305  0.2054  0.2663  0.2729
 1013MOL0     C36642   0.445   6.473   2.159 -0.1683  0.1540  0.1382
 1013MOL0     C36643   0.381   6.358   2.084  0.2359 -0.1904 -0.3190
 1013MOL0     O36644   0.446   6.354   1.954  0.1694 -0.5036  0.3025
 1013MOL0     C36645   0.370   6.319   1.844  0.0080  0.3467 -0.2316
 1013MOL0     C36646   0.273   6.216   1.841  0.9119  0.8881 -0.4124
 1013MOL0     C36647   0.179   6.213   1.728 -0.2322  0.0263 -0.7601
 1013MOL0     C36648   0.068   6.110   1.741  0.0955  0.5481 -0.1403
 1013MOL0     C36649   0.184   6.307   1.622 -0.6272  0.4271 -1.1043
 1013MOL0     C36650   0.091   6.322   1.509 -0.1534  0.3528  0.3676
 1013MOL0     O36651  -0.012   6.231   1.500  0.7076  0.0582 -0.1539
 1013MOL0     C36652  -0.121   6.253   1.420 -0.1577 -0.5556  0.0043
 1013MOL0     C36653  -0.092   6.255   1.284  0.6954  0.0507 -0.6996
 1013MOL0     C36654  -0.202   6.253   1.200 -0.7860  0.1298  0.4458
 1013MOL0     C36655  -0.333   6.260   1.242  0.3393  0.3722 -0.6402
 1013MOL0     O36656  -0.426   6.264   1.144  0.0685  0.1728 -0.3397
 1013MOL0     C36657  -0.561   6.230   1.161 -0.4250 -0.2559  0.2981
 1013MOL0     C36658  -0.639   6.235   1.029  0.2592 -0.5491 -0.4167
 1013MOL0     C36659  -0.788   6.194   1.039 -0.9247 -0.1993  0.7897
 1013MOL0     C36660  -0.884   6.246   0.915  0.7365 -0.1638 -0.2050
 1013MOL0     C36661  -1.032   6.218   0.953  0.1530 -0.1639 -0.5200
 1013MOL0     C36662  -1.103   6.130   0.848  0.4093 -0.3221 -0.3335
 1013MOL0     C36663  -1.248   6.101   0.904 -0.1646 -0.1994 -0.4307
 1013MOL0     C36664  -1.343   6.229   0.912 -0.5752  0.5051  0.4352
 1013MOL0    Cl36665  -1.384   6.276   0.745 -0.0396  0.6228  0.0691
 1013MOL0     C36666  -0.356   6.255   1.377 -0.9411 -0.4376 -0.1705
 1013MOL0     C36667  -0.250   6.254   1.479 -0.5238  0.8797  1.2098
 1013MOL0     O36668   0.106   6.416   1.425 -0.1355  0.1335  0.2155
 1013MOL0     C36669   0.290   6.397   1.633  0.4173  0.5907  0.0314
 1013MOL0     C36670   0.382   6.402   1.734  0.2449 -0.1036 -0.0746
 1013MOL0     N36671   0.183   6.599   2.526  0.1486  0.4631 -0.5721
 1013MOL0     N36672   0.177   6.572   2.653  0.0612  0.0622 -0.0546
 1013MOL0     C36673   0.746   6.017   3.650 -0.9603  1.0232 -0.6401
 1013MOL0     C36674   0.729   5.986   3.786 -0.2368 -0.1844 -0.0033
 1013MOL0     C36675   0.599   5.960   4.214  0.3391 -0.0041  0.3526
 1013MOL0     C36676   0.478   5.904   4.233 -0.7320 -0.1181 -0.2643
 1013MOL0     C36677   0.445   5.874   4.369  0.1280 -0.2352 -0.1702
 1013MOL0     C36678   0.515   5.921   4.476  0.5166  0.0895  0.1371
 1013MOL0     O36679   0.480   5.894   4.598 -0.6389 -0.6569  0.6767
 1013MOL0     C36680   0.502   6.004   4.681  0.9331 -0.9115 -0.5936
 1013MOL0     C36681   0.403   5.977   4.800 -0.5189  0.0561  0.6457
 1013MOL0     C36682   0.392   6.094   4.890  1.2986  0.0463  0.4081
 1013MOL0     C36683   0.322   6.054   5.012  0.2417 -0.1879  0.4549
 1013MOL0     C36684   0.304   6.161   5.108 -0.3034  0.3354  1.1589
 1013MOL0     C36685   0.283   6.240   5.195  0.6289 -0.6663  0.8675
 1013MOL0     C36686   0.637   5.976   4.455  0.5783  0.2400  0.6181
 1013MOL0     C36687   0.678   6.003   4.329  0.6543 -0.4642 -0.0912
 1013MOL0     H36688   0.409   5.964   3.809  0.2939  0.5423 -0.0638
 1013MOL0     H36689   0.427   6.035   3.549  1.1207  4.7586 -2.3408
 1013MOL0     H36690   0.813   6.111   3.365  1.4042 -0.7340 -2.5950
 1013MOL0     H36691   0.812   5.946   3.396 -2.5779 -0.7174  1.9929
 1013MOL0     H36692   0.797   5.956   3.154  1.8338  1.5252  1.9045
 1013MOL0     H36693   0.635   5.927   3.197  1.7406 -2.2715  1.9589
 1013MOL0     H36694   0.714   6.217   3.193 -1.9828 -0.4801  3.5528
 1013MOL0     H36695   0.726   6.127   3.037  0.6854  0.0426  0.9739
 1013MOL0     H36696   0.485   6.082   3.040  0.9537 -0.4617  0.6744
 1013MOL0     H36697   0.451   6.175   3.185 -0.6822 -0.2345 -0.0662
 1013MOL0     H36698   0.510   6.378   3.075 -2.1360 -0.3660  0.6774
 1013MOL0     H36699   0.563   6.295   2.923 -0.6492  0.9839 -0.3926
 1013MOL0     H36700   0.330   6.179   2.942  0.9822 -1.1861  0.5891
 1013MOL0     H36701   0.271   6.306   3.042 -0.6782  4.1206 -1.7178
 1013MOL0     H36702   0.354   6.483   2.888  1.7735  0.3878 -0.4167
 1013MOL0     H36703   0.402   6.347   2.780 -0.8834  1.1734 -1.8290
 1013MOL0     H36704   0.114   6.399   2.876  0.0653 -1.1392  0.4773
 1013MOL0     H36705   0.173   6.264   2.787 -1.6864  0.5590  0.6503
 1013MOL0     H36706   0.234   6.266   2.534  1.0139  0.2807 -0.2738
 1013MOL0     H36707   0.215   6.377   2.276  0.9164 -0.0539 -1.8743
 1013MOL0     H36708   0.196   6.551   2.273 -1.0673  1.9429  3.1385
 1013MOL0     H36709   0.444   6.382   2.357  1.5978  0.1059 -0.9959
 1013MOL0     H36710   0.445   6.562   2.345  0.9235  0.7280 -1.4251
 1013MOL0     H36711   0.553   6.486   2.155 -0.3519  3.3679  1.7474
 1013MOL0     H36712   0.411   6.567   2.115 -2.1227  0.3265  1.8217
 1013MOL0     H36713   0.273   6.371   2.075 -0.0375 -2.1191 -0.2869
 1013MOL0     H36714   0.396   6.269   2.146  0.2399 -2.9040 -3.8736
 1013MOL0     H36715   0.244   6.153   1.925 -1.8626  1.3910 -0.8881
 1013MOL0     H36716   0.052   6.066   1.840  0.1293  1.0221  0.0819
 1013MOL0     H36717  -0.030   6.152   1.715 -1.2106 -1.6456  0.9318
 1013MOL0     H36718   0.088   6.025   1.675  0.9532 -0.2119  1.0748
 1013MOL0     H36719   0.002   6.244   1.231 -0.8284 -2.0839 -3.2032
 1013MOL0     H36720  -0.181   6.232   1.096 -1.8960 -0.3382  0.3051
 1013MOL0     H36721  -0.575   6.128   1.199  0.2664 -0.1426  0.8772
 1013MOL0     H36722  -0.613   6.293   1.235 -0.7485 -0.2696  0.0852
 1013MOL0     H36723  -0.630   6.337   0.993  1.8981  1.7524  5.3455
 1013MOL0     H36724  -0.583   6.166   0.966  0.3974 -0.7270 -0.1034
 1013MOL0     H36725  -0.822   6.259   1.120  1.5942  3.0298 -0.5421
 1013MOL0     H36726  -0.808   6.087   1.054 -6.2993  0.1350 -1.6904
 1013MOL0     H36727  -0.858   6.347   0.882  2.9148  0.5795  3.2108
 1013MOL0     H36728  -0.860   6.175   0.835  0.6363  0.2772 -0.6260
 1013MOL0     H36729  -1.086   6.312   0.963 -0.6546 -0.8368  2.6354
 1013MOL0     H36730  -1.042   6.172   1.052  0.5537  2.9337  1.0566
 1013MOL0     H36731  -1.112   6.171   0.747 -2.8124  2.1483  0.7721
 1013MOL0     H36732  -1.054   6.033   0.853 -2.2437 -1.7341  0.5073
 1013MOL0     H36733  -1.258   6.079   1.011 -0.2344  1.5370 -0.0589
 1013MOL0     H36734  -1.297   6.021   0.848 -0.2012 -0.6386  0.2238
 1013MOL0     H36735  -1.292   6.310   0.963  2.1688 -0.2374 -0.9318
 1013MOL0     H36736  -1.438   6.191   0.952 -0.0341 -2.1824 -0.5733
 1013MOL0     H36737  -0.457   6.268   1.413 -1.1204 -1.8017 -0.1108
 1013MOL0     H36738  -0.271   6.255   1.586 -0.8490  1.2532  1.1426
 1013MOL0     H36739   0.310   6.464   1.550  1.3106 -0.4557 -0.6319
 1013MOL0     H36740   0.469   6.467   1.733  1.7764 -2.0511  0.3896
 1013MOL0     H36741   0.851   6.028   3.625 -0.2945  0.7762  1.7315
 1013MOL0     H36742   0.813   5.966   3.852 -1.9609  0.3281  2.4758
 1013MOL0     H36743   0.414   5.874   4.150 -2.1372  1.7221  0.0947
 1013MOL0     H36744   0.351   5.821   4.385 -0.1596  0.4904  0.6683
 1013MOL0     H36745   0.601   6.022   4.724  0.0551 -1.2841  1.6994
 1013MOL0     H36746   0.467   6.096   4.635 -0.0459 -0.6499  0.6255
 1013MOL0     H36747   0.446   5.898   4.862  1.2339  1.2406  1.0105
 1013MOL0     H36748   0.302   5.952   4.767  0.0248 -0.5962 -0.6007
 1013MOL0     H36749   0.335   6.172   4.838 -3.5717 -2.9183  0.6785
 1013MOL0     H36750   0.490   6.135   4.915  2.1045 -2.6007  2.0816
 1013MOL0     H36751   0.370   5.978   5.074  3.6986  0.8451 -0.6791
 1013MOL0     H36752   0.220   6.022   4.990 -0.0486 -1.6748  3.5089
 1013MOL0     H36753   0.265   6.310   5.274 -0.4467 -0.9785  0.9114
 1013MOL0     H36754   0.703   6.019   4.530  1.4501  0.4429 -0.2368
 1013MOL0     H36755   0.770   6.060   4.324 -0.8413  2.2763  1.0980
 1014MOL0     O36756   7.203   4.365  11.120  0.1359  0.7817  0.1523
 1014MOL0     C36757   7.164   4.481  11.085 -0.1604  0.3927  0.1066
 1014MOL0     O36758   7.031   4.520  11.069 -0.3279 -0.0567 -0.3158
 1014MOL0     C36759   6.922   4.437  11.100 -1.0686 -0.6209 -0.9341
 1014MOL0     C36760   6.804   4.446  11.032  0.5222 -0.3829  0.7755
 1014MOL0     C36761   6.679   4.377  11.070 -0.6553  0.5817 -0.1075
 1014MOL0     C36762   6.690   4.301  11.187 -0.5563 -0.6002 -0.9257
 1014MOL0     O36763   6.568   4.240  11.231 -0.1740  0.2737  0.6691
 1014MOL0     C36764   6.572   4.184  11.357  0.6059 -0.1805  0.4472
 1014MOL0     C36765   6.433   4.145  11.398 -0.7379  0.5507 -0.5931
 1014MOL0     C36766   6.316   4.244  11.363  0.1988 -0.5256  0.2239
 1014MOL0     C36767   6.181   4.200  11.430 -0.0182  0.6184  0.9299
 1014MOL0     C36768   6.058   4.266  11.380  0.6917 -0.1046  0.8833
 1014MOL0     C36769   6.027   4.398  11.441  0.0426 -0.3747 -0.0646
 1014MOL0     C36770   5.907   4.465  11.370  0.2959 -0.4222  0.6819
 1014MOL0     C36771   5.893   4.610  11.422  0.0185  1.0974 -0.8744
 1014MOL0     N36772   5.782   4.678  11.366 -0.0102 -0.6608  1.1842
 1014MOL0     C36773   5.649   4.652  11.397 -0.6154 -0.2716  0.6860
 1014MOL0     C36774   5.588   4.705  11.292 -0.5130 -0.1797  0.5911
 1014MOL0     C36775   5.438   4.719  11.289  0.9937 -0.4016  0.0455
 1014MOL0     C36776   5.386   4.835  11.201  0.4796 -0.3863  0.6265
 1014MOL0     C36777   5.238   4.827  11.154  0.7817  0.4295  1.4684
 1014MOL0     C36778   5.180   4.936  11.054 -0.9300 -0.3322  0.2134
 1014MOL0     O36779   5.260   4.950  10.930  0.3330 -0.7512  0.2937
 1014MOL0     C36780   5.242   5.059  10.851 -0.5169  0.2351 -0.0479
 1014MOL0     C36781   5.132   5.148  10.863  0.2437  0.2035 -0.6437
 1014MOL0     C36782   5.115   5.251  10.766  1.1600 -0.1521  0.6554
 1014MOL0     C36783   5.013   5.356  10.787  0.8675 -0.1493 -0.5190
 1014MOL0     C36784   5.197   5.255  10.646 -0.0889 -0.2331  0.0266
 1014MOL0     C36785   5.170   5.347  10.529 -0.0388 -0.6838  0.1783
 1014MOL0     O36786   5.262   5.339  10.429  0.3170  0.0505  0.3265
 1014MOL0     C36787   5.262   5.426  10.325 -0.1493 -0.6966  0.4961
 1014MOL0     C36788   5.287   5.565  10.349  0.2524  0.0393 -0.5919
 1014MOL0     C36789   5.274   5.646  10.248  0.2137  0.2878 -0.3750
 1014MOL0     C36790   5.235   5.612  10.124  0.5440 -0.1288  0.3053
 1014MOL0     O36791   5.218   5.723  10.040 -0.2291 -0.3909  0.1187
 1014MOL0     C36792   5.200   5.711   9.895 -0.3468 -0.1402  0.2411
 1014MOL0     C36793   5.316   5.640   9.824  0.9015 -0.7538  0.2928
 1014MOL0     C36794   5.290   5.598   9.690  0.5454 -0.4240  0.0502
 1014MOL0     C36795   5.425   5.551   9.626  0.1253 -0.6807 -0.9469
 1014MOL0     C36796   5.396   5.482   9.491  0.4708  0.8634 -0.7659
 1014MOL0     C36797   5.312   5.348   9.497  0.3621  0.5719 -0.3100
 1014MOL0     C36798   5.267   5.321   9.348 -0.1639 -0.8315 -0.0720
 1014MOL0     C36799   5.195   5.192   9.338  0.3664  0.3319 -0.6060
 1014MOL0    Cl36800   5.108   5.185   9.177 -0.0264  0.1391  0.4639
 1014MOL0     C36801   5.215   5.473  10.091  0.7250 -0.9606 -0.1581
 1014MOL0     C36802   5.238   5.376  10.200  0.5690  0.2493  0.2349
 1014MOL0     O36803   5.065   5.404  10.513 -0.1023  0.1275  0.4740
 1014MOL0     C36804   5.308   5.179  10.641  0.4939 -0.0454 -0.0074
 1014MOL0     C36805   5.323   5.078  10.735  0.9484  0.2491  0.5876
 1014MOL0     N36806   5.675   4.746  11.194 -0.6405  0.2535  0.4563
 1014MOL0     N36807   5.797   4.722  11.237  0.9941  0.4045 -0.1483
 1014MOL0     C36808   6.814   4.272  11.245 -0.0887 -0.5564  0.3175
 1014MOL0     C36809   6.925   4.348  11.209 -0.1283 -0.8935 -0.9474
 1014MOL0     C36810   7.269   4.578  11.049  0.4196 -0.2426 -0.9400
 1014MOL0     C36811   7.399   4.558  11.078 -0.0076 -0.5116  0.1711
 1014MOL0     C36812   7.498   4.655  11.057  0.8476  0.2229  1.0299
 1014MOL0     C36813   7.468   4.769  10.986 -0.8768 -0.8309 -0.3890
 1014MOL0     O36814   7.553   4.864  10.939 -0.5285 -0.3749 -0.2901
 1014MOL0     C36815   7.669   4.817  10.868  0.4549 -1.1726  0.3696
 1014MOL0     C36816   7.775   4.926  10.913 -0.1575 -0.4954  0.0097
 1014MOL0     C36817   7.920   4.876  10.930  0.3028 -0.2203  0.0473
 1014MOL0     C36818   7.939   4.767  11.039 -0.3454 -0.8788  0.0012
 1014MOL0     C36819   8.056   4.785  11.119  0.9869 -0.1744 -0.2557
 1014MOL0     C36820   8.162   4.791  11.177 -0.5660 -0.7481  0.1573
 1014MOL0     C36821   7.341   4.796  10.965  0.3120  0.0330 -0.4957
 1014MOL0     C36822   7.239   4.706  11.005  0.6234 -0.2934  0.3824
 1014MOL0     H36823   6.805   4.508  10.943  0.4757 -2.1734 -0.5165
 1014MOL0     H36824   6.588   4.396  11.015 -0.3737 -0.4001 -0.9302
 1014MOL0     H36825   6.637   4.097  11.368  0.7773 -0.0011  0.8787
 1014MOL0     H36826   6.609   4.253  11.434 -0.0487 -1.0314  1.5631
 1014MOL0     H36827   6.418   4.051  11.343 -0.7572  1.7469 -2.7525
 1014MOL0     H36828   6.445   4.122  11.504  0.7655 -2.2720 -1.2701
 1014MOL0     H36829   6.333   4.345  11.403  0.3094  0.7066 -2.6664
 1014MOL0     H36830   6.303   4.256  11.255 -1.5148 -2.5516  0.1510
 1014MOL0     H36831   6.171   4.093  11.410 -0.3925  1.2399 -2.9380
 1014MOL0     H36832   6.195   4.214  11.538  2.1339 -1.9080  1.0939
 1014MOL0     H36833   6.067   4.279  11.271  0.8000 -1.4367  0.7097
 1014MOL0     H36834   5.969   4.203  11.392  0.3314 -1.0609 -4.3232
 1014MOL0     H36835   6.015   4.385  11.549 -0.0887 -3.0044 -0.3291
 1014MOL0     H36836   6.113   4.464  11.433  1.3488 -1.9270  0.7895
 1014MOL0     H36837   5.912   4.451  11.261  3.9634 -2.7391  1.0066
 1014MOL0     H36838   5.821   4.409  11.408 -1.1156  0.7689 -0.6269
 1014MOL0     H36839   5.983   4.663  11.390  1.4127  1.2444  2.8207
 1014MOL0     H36840   5.889   4.603  11.531 -2.8755  1.6258 -0.8772
 1014MOL0     H36841   5.602   4.618  11.488  1.6027 -1.6578  1.3677
 1014MOL0     H36842   5.384   4.630  11.257  0.6036 -0.4140  0.7282
 1014MOL0     H36843   5.406   4.726  11.393  1.1672  2.5073 -0.0067
 1014MOL0     H36844   5.448   4.843  11.111 -2.0704  0.8693 -1.1513
 1014MOL0     H36845   5.388   4.934  11.248 -0.0708  1.0458 -2.1336
 1014MOL0     H36846   5.171   4.824  11.241 -2.1148 -2.1727 -0.6252
 1014MOL0     H36847   5.230   4.740  11.088 -1.6700  0.8846  1.0754
 1014MOL0     H36848   5.178   5.029  11.112 -1.9462 -0.0742 -0.1989
 1014MOL0     H36849   5.077   4.908  11.030 -1.4462  2.5055 -1.3534
 1014MOL0     H36850   5.053   5.141  10.938 -0.4915  3.9813 -0.8778
 1014MOL0     H36851   5.061   5.447  10.825  2.0357 -1.4050  1.1398
 1014MOL0     H36852   4.939   5.379  10.710 -1.4027  2.6275  2.2012
 1014MOL0     H36853   4.941   5.319  10.861  0.7463  1.9528  0.4913
 1014MOL0     H36854   5.323   5.586  10.449  0.9036  1.2935 -1.0705
 1014MOL0     H36855   5.292   5.750  10.270  1.2162  0.0208  0.1293
 1014MOL0     H36856   5.108   5.658   9.868  0.3984 -0.9244 -0.8248
 1014MOL0     H36857   5.200   5.808   9.844  2.7848 -0.5968 -0.8493
 1014MOL0     H36858   5.401   5.708   9.826 -0.8342  2.0328 -4.5850
 1014MOL0     H36859   5.346   5.555   9.886  3.6708  1.0322  1.6266
 1014MOL0     H36860   5.248   5.679   9.629 -0.6629 -1.4658 -0.5438
 1014MOL0     H36861   5.215   5.519   9.684  2.3529 -2.1139 -1.7977
 1014MOL0     H36862   5.483   5.643   9.615  1.4903 -1.2947  0.7647
 1014MOL0     H36863   5.473   5.473   9.686  1.5457  0.7356 -0.1890
 1014MOL0     H36864   5.499   5.453   9.465  0.5422 -1.4990  1.7631
 1014MOL0     H36865   5.358   5.552   9.416 -1.0658  1.0798  0.1809
 1014MOL0     H36866   5.383   5.270   9.526  2.5321  1.7333 -2.1433
 1014MOL0     H36867   5.235   5.357   9.574 -0.9605 -1.1860 -1.3824
 1014MOL0     H36868   5.345   5.321   9.272  3.1040 -3.3583  2.9322
 1014MOL0     H36869   5.197   5.401   9.322  1.0034  0.0099 -0.7381
 1014MOL0     H36870   5.122   5.190   9.420 -1.0809  3.3932 -1.6521
 1014MOL0     H36871   5.251   5.099   9.330 -0.6457 -0.3888  0.4248
 1014MOL0     H36872   5.194   5.440   9.990  1.2662 -0.3462 -0.4794
 1014MOL0     H36873   5.226   5.270  10.177  0.4382  0.4671 -0.7393
 1014MOL0     H36874   5.390   5.189  10.571  2.2553 -2.0594  1.6149
 1014MOL0     H36875   5.410   5.013  10.742  2.3959  1.8542 -1.2329
 1014MOL0     H36876   6.821   4.215  11.338  0.5005  0.6013  1.0016
 1014MOL0     H36877   7.013   4.334  11.271  0.4236  1.3158 -1.1482
 1014MOL0     H36878   7.431   4.458  11.105  1.4490 -0.2740 -0.5770
 1014MOL0     H36879   7.602   4.636  11.082  0.5415  0.1307  2.3354
 1014MOL0     H36880   7.705   4.714  10.882  1.0765 -1.0675 -0.3867
 1014MOL0     H36881   7.642   4.829  10.763 -0.0668 -0.5466  0.5720
 1014MOL0     H36882   7.745   4.974  11.006 -0.0385 -0.2182 -0.0949
 1014MOL0     H36883   7.766   5.012  10.846 -0.4729 -0.2471  0.3667
 1014MOL0     H36884   7.994   4.954  10.950 -0.4783  0.0855  1.8838
 1014MOL0     H36885   7.945   4.826  10.836 -0.1203 -0.9876  0.3378
 1014MOL0     H36886   7.949   4.675  10.981  4.3722  0.1982 -1.3572
 1014MOL0     H36887   7.848   4.771  11.099 -0.4455  1.5363 -0.2039
 1014MOL0     H36888   8.261   4.797  11.218  0.1581  1.9374 -1.7484
 1014MOL0     H36889   7.308   4.892  10.929 -0.8743  1.1495  3.1597
 1014MOL0     H36890   7.136   4.738  10.999  0.6354 -0.0004  1.5195
 1015MOL0     O36891   1.097  11.295   7.015  0.0916 -0.2475 -1.0254
 1015MOL0     C36892   1.213  11.287   6.980  0.2619 -0.1854 -0.9883
 1015MOL0     O36893   1.278  11.175   6.956  0.3721  0.7302  0.1633
 1015MOL0     C36894   1.208  11.055   6.925 -0.4742  0.0847  0.2550
 1015MOL0     C36895   1.235  10.984   6.813  0.2594  0.5710  0.8086
 1015MOL0     C36896   1.174  10.852   6.788  0.0913 -0.3764 -0.4240
 1015MOL0     C36897   1.079  10.804   6.889 -0.5195  0.6801  0.3678
 1015MOL0     O36898   1.028  10.693   6.846  0.4281  0.4656 -0.1267
 1015MOL0     C36899   0.958  10.601   6.938 -0.4436  0.1555  0.1845
 1015MOL0     C36900   0.909  10.472   6.864  1.3118  0.0910  0.2716
 1015MOL0     C36901   0.781  10.490   6.775 -1.0184  0.5154  0.4322
 1015MOL0     C36902   0.654  10.528   6.863 -0.2297  0.4392 -0.5311
 1015MOL0     C36903   0.525  10.531   6.782  0.0074  0.4215  0.2156
 1015MOL0     C36904   0.508  10.404   6.700  0.6567 -0.3181 -0.4912
 1015MOL0     C36905   0.377  10.394   6.621  0.6223  0.0544 -1.5492
 1015MOL0     C36906   0.360  10.250   6.579  0.3122 -0.3391  0.5256
 1015MOL0     N36907   0.352  10.148   6.691 -0.1936 -0.7478  0.2228
 1015MOL0     C36908   0.375  10.015   6.679  0.2878  0.1633  0.2051
 1015MOL0     C36909   0.322   9.962   6.790 -0.1496  0.7490  0.0320
 1015MOL0     C36910   0.299   9.816   6.821  0.2248  0.1548 -0.3417
 1015MOL0     C36911   0.151   9.777   6.826  0.8778  0.9141  0.2229
 1015MOL0     C36912   0.082   9.755   6.690 -0.5873 -0.8363 -0.5343
 1015MOL0     C36913  -0.068   9.732   6.707 -0.7896  0.3788 -0.1888
 1015MOL0     O36914  -0.126   9.864   6.716 -1.0344  0.2817  0.4622
 1015MOL0     C36915  -0.262   9.860   6.747 -0.8562 -0.2379  0.5765
 1015MOL0     C36916  -0.346   9.759   6.694 -0.0193  0.6441  0.1715
 1015MOL0     C36917  -0.477   9.747   6.731  0.3987  0.4450 -0.1416
 1015MOL0     C36918  -0.550   9.624   6.688  1.2416  0.0464 -0.2770
 1015MOL0     C36919  -0.532   9.861   6.800 -0.2014 -0.4028 -0.0570
 1015MOL0     C36920  -0.677   9.887   6.810 -0.6553  0.4001 -0.8147
 1015MOL0     O36921  -0.719  10.018   6.839  0.6812  0.5736 -0.3282
 1015MOL0     C36922  -0.849  10.040   6.883 -0.1401  1.3412  0.4011
 1015MOL0     C36923  -0.921   9.976   6.984 -0.6697  0.2481  0.5556
 1015MOL0     C36924  -1.040  10.022   7.035 -0.3799  0.1811  0.1887
 1015MOL0     C36925  -1.116  10.131   6.970 -1.1442  0.0067  0.2607
 1015MOL0     O36926  -1.227  10.191   7.023 -0.1027  0.2387  0.2450
 1015MOL0     C36927  -1.254  10.174   7.161 -0.7268  0.3006  0.0979
 1015MOL0     C36928  -1.342  10.051   7.193  0.0967  0.2457  0.1101
 1015MOL0     C36929  -1.377  10.022   7.332 -0.4527  0.2145 -1.0039
 1015MOL0     C36930  -1.456   9.883   7.341 -0.3006 -0.3322  0.2580
 1015MOL0     C36931  -1.468   9.826   7.482  0.0760 -0.9581  0.2079
 1015MOL0     C36932  -1.559   9.903   7.580  0.0098 -0.2073 -0.4681
 1015MOL0     C36933  -1.581   9.825   7.706  0.5279  0.6991 -0.1920
 1015MOL0     C36934  -1.693   9.876   7.790 -0.2592  1.5650  0.4724
 1015MOL0    Cl36935  -1.747   9.741   7.897  0.1655 -0.2838  0.0793
 1015MOL0     C36936  -1.039  10.192   6.868  0.0117  0.1635  0.9108
 1015MOL0     C36937  -0.912  10.150   6.824  0.8260  0.6247  0.2647
 1015MOL0     O36938  -0.756   9.792   6.787 -0.3494 -0.1047 -0.0297
 1015MOL0     C36939  -0.443   9.959   6.848  0.4420  0.3324  0.1060
 1015MOL0     C36940  -0.312   9.964   6.814 -0.5574 -0.1902  0.7915
 1015MOL0     N36941   0.287  10.065   6.875  0.1780  0.6952  0.7418
 1015MOL0     N36942   0.313  10.175   6.819  0.2646  0.5836 -0.0538
 1015MOL0     C36943   1.065  10.868   7.011  0.4726  0.2209  0.4976
 1015MOL0     C36944   1.122  10.993   7.026  0.1508  0.0097  0.5464
 1015MOL0     C36945   1.284  11.418   6.965  0.3041  0.0101 -0.4815
 1015MOL0     C36946   1.427  11.428   6.964  0.2936 -0.2800 -0.1059
 1015MOL0     C36947   1.485  11.553   6.960 -0.7340 -0.3927  0.5353
 1015MOL0     C36948   1.408  11.669   6.958 -0.0601 -0.6150  0.8146
 1015MOL0     O36949   1.465  11.793   6.968 -0.6282 -0.2120  0.5033
 1015MOL0     C36950   1.472  11.836   7.108 -0.2694 -0.0476  0.8777
 1015MOL0     C36951   1.569  11.952   7.108 -0.4100  0.9762  0.3134
 1015MOL0     C36952   1.707  11.896   7.064 -0.1765  0.3611 -0.6287
 1015MOL0     C36953   1.801  12.005   7.006  0.2309  0.1136 -0.2439
 1015MOL0     C36954   1.823  12.124   7.089  0.0382  0.7016 -0.3177
 1015MOL0     C36955   1.861  12.224   7.153 -1.2118  0.3302  0.0101
 1015MOL0     C36956   1.273  11.665   6.948 -0.1157 -0.5503  0.1800
 1015MOL0     C36957   1.216  11.535   6.954  0.6687 -0.8902  0.8996
 1015MOL0     H36958   1.296  11.031   6.737 -0.5187 -0.8066 -0.7244
 1015MOL0     H36959   1.201  10.789   6.704 -2.7204 -4.0617  1.1588
 1015MOL0     H36960   1.033  10.568   7.011  1.5908  1.4077 -1.2237
 1015MOL0     H36961   0.877  10.649   6.993  0.6546  3.6956 -1.0018
 1015MOL0     H36962   0.988  10.430   6.801  2.2875  1.1202  0.7701
 1015MOL0     H36963   0.888  10.396   6.939  0.3110 -0.7632 -0.8516
 1015MOL0     H36964   0.800  10.555   6.690  0.2509 -0.0252  0.2762
 1015MOL0     H36965   0.767  10.387   6.740  1.5772 -0.4435  1.9402
 1015MOL0     H36966   0.628  10.452   6.937  5.2900 -2.6632 -1.1659
 1015MOL0     H36967   0.673  10.620   6.918 -2.6843 -1.0968  3.2640
 1015MOL0     H36968   0.445  10.549   6.854  0.3005 -3.6519  1.8292
 1015MOL0     H36969   0.519  10.620   6.719 -1.0153 -0.3697 -0.8487
 1015MOL0     H36970   0.587  10.395   6.625  0.3210 -4.2423 -0.5789
 1015MOL0     H36971   0.515  10.326   6.776  3.5838  0.8182  0.5545
 1015MOL0     H36972   0.297  10.432   6.685 -0.0968 -1.4942 -1.4820
 1015MOL0     H36973   0.387  10.466   6.539  1.9259  0.8539 -0.7437
 1015MOL0     H36974   0.455  10.235   6.527  0.1753  0.2485  0.0959
 1015MOL0     H36975   0.281  10.237   6.505  1.5706  0.4127 -1.0106
 1015MOL0     H36976   0.426   9.961   6.599  0.6534  3.2800 -1.8608
 1015MOL0     H36977   0.356   9.767   6.742  1.0287  1.0937 -0.3611
 1015MOL0     H36978   0.334   9.773   6.915 -2.2509 -2.8472 -0.6215
 1015MOL0     H36979   0.092   9.853   6.878  0.0463  0.6703 -0.3390
 1015MOL0     H36980   0.140   9.683   6.881  1.3533  0.4313 -0.4872
 1015MOL0     H36981   0.119   9.665   6.641  1.1286 -1.4723  1.7506
 1015MOL0     H36982   0.105   9.851   6.643  5.5717  0.2583  3.5003
 1015MOL0     H36983  -0.093   9.660   6.785  0.0508  0.0373 -0.2248
 1015MOL0     H36984  -0.090   9.692   6.607  1.5652 -1.0234 -0.2376
 1015MOL0     H36985  -0.309   9.672   6.641 -0.2229  0.8509 -0.3138
 1015MOL0     H36986  -0.490   9.544   6.642  1.1847 -1.2847  1.8390
 1015MOL0     H36987  -0.599   9.574   6.771  4.9536 -1.3463  1.3101
 1015MOL0     H36988  -0.623   9.637   6.608 -1.1886 -2.9787  1.2377
 1015MOL0     H36989  -0.861   9.895   7.025  0.2180 -0.1801 -1.4964
 1015MOL0     H36990  -1.081   9.967   7.119  1.8855  0.0725  1.2982
 1015MOL0     H36991  -1.162  10.159   7.218  0.3020 -3.5369 -2.2157
 1015MOL0     H36992  -1.299  10.269   7.192  0.2607  1.0255 -0.6128
 1015MOL0     H36993  -1.425  10.052   7.122 -0.7002 -0.6990  0.9736
 1015MOL0     H36994  -1.284   9.964   7.161 -2.7060 -0.8695 -2.3938
 1015MOL0     H36995  -1.448  10.097   7.369 -0.0814 -0.2838  0.8208
 1015MOL0     H36996  -1.288  10.021   7.395 -0.7675 -1.7376 -0.5030
 1015MOL0     H36997  -1.557   9.895   7.302  0.1482 -0.9436 -1.1386
 1015MOL0     H36998  -1.395   9.825   7.271  1.6163  1.2158  0.5312
 1015MOL0     H36999  -1.364   9.828   7.516  0.2676  2.9847 -0.1728
 1015MOL0     H37000  -1.511   9.728   7.460 -0.4783 -0.7573  0.3882
 1015MOL0     H37001  -1.511   9.997   7.606  1.2348 -0.8389 -0.3858
 1015MOL0     H37002  -1.656   9.920   7.532  2.0703  4.2472 -3.7587
 1015MOL0     H37003  -1.494   9.812   7.770  0.1131 -1.9368 -0.0413
 1015MOL0     H37004  -1.615   9.725   7.678 -1.3761  1.7206 -1.8372
 1015MOL0     H37005  -1.778   9.910   7.731 -1.6928 -0.6621  1.1164
 1015MOL0     H37006  -1.656   9.966   7.840 -2.1115  2.3525  0.5151
 1015MOL0     H37007  -1.081  10.287   6.835 -0.2500 -0.7729 -1.6885
 1015MOL0     H37008  -0.861  10.204   6.744 -2.0116 -0.9725 -2.8338
 1015MOL0     H37009  -0.481  10.051   6.892 -3.0340 -0.2174 -1.3896
 1015MOL0     H37010  -0.253  10.045   6.855  0.4673 -1.2304  1.4066
 1015MOL0     H37011   1.003  10.821   7.086  0.3872  1.4252  1.1997
 1015MOL0     H37012   1.127  11.033   7.127  1.7958 -2.6701  1.6528
 1015MOL0     H37013   1.496  11.345   6.980 -0.7839 -1.1352  0.2333
 1015MOL0     H37014   1.593  11.553   6.959 -0.6162 -1.6627  3.6055
 1015MOL0     H37015   1.377  11.859   7.156 -0.2131 -2.3902  2.2885
 1015MOL0     H37016   1.509  11.753   7.169  2.1923  0.3221  0.0136
 1015MOL0     H37017   1.586  11.983   7.212 -0.7268 -0.3940  0.8047
 1015MOL0     H37018   1.541  12.026   7.034 -1.1268 -0.0501 -0.4733
 1015MOL0     H37019   1.709  11.812   6.994  0.1824  0.3853 -0.6496
 1015MOL0     H37020   1.751  11.851   7.153  1.7490  0.9271 -1.2289
 1015MOL0     H37021   1.766  12.045   6.910 -0.6127  0.7945  0.3269
 1015MOL0     H37022   1.901  11.963   6.991  0.4570  0.7830 -0.6834
 1015MOL0     H37023   1.883  12.306   7.218  0.5480  0.7053 -0.9953
 1015MOL0     H37024   1.213  11.754   6.935  0.8661  0.0699 -0.2298
 1015MOL0     H37025   1.108  11.534   6.964  0.8062 -0.0444  2.9690
 1016MOL0     O37026  10.162  10.593   3.724 -0.0089 -0.7770  0.3027
 1016MOL0     C37027  10.169  10.473   3.746  0.0009  0.3792  0.3718
 1016MOL0     O37028  10.278  10.394   3.775  0.0091  0.0904 -0.8755
 1016MOL0     C37029  10.390  10.475   3.802  0.4717 -0.2572  0.8669
 1016MOL0     C37030  10.489  10.500   3.702  0.3884 -0.2208  0.0863
 1016MOL0     C37031  10.612  10.556   3.745  0.7515  0.5913  0.2671
 1016MOL0     C37032  10.633  10.598   3.883 -0.3735 -0.2447  1.0595
 1016MOL0     O37033  10.756  10.661   3.919 -0.3119  0.7182 -0.0744
 1016MOL0     C37034  10.881  10.640   3.838  0.5106  0.4821 -1.3995
 1016MOL0     C37035  10.984  10.719   3.928  0.4612  0.7721  0.5777
 1016MOL0     C37036  11.125  10.687   3.872 -0.5830 -0.0313  0.4112
 1016MOL0     C37037  11.145  10.774   3.754 -0.5227 -0.7013 -0.0374
 1016MOL0     C37038  11.296  10.778   3.715 -0.1967 -0.6440 -0.4433
 1016MOL0     C37039  11.324  10.632   3.692 -0.3393 -0.3425  0.7844
 1016MOL0     C37040  11.465  10.624   3.622  0.5822 -0.0600 -0.0383
 1016MOL0     C37041  11.580  10.644   3.709 -0.7759  0.4265 -0.2979
 1016MOL0     N37042  11.613  10.538   3.806 -0.0764  0.2543 -0.4809
 1016MOL0     C37043  11.601  10.405   3.781  0.1690 -0.5524 -0.2930
 1016MOL0     C37044  11.613  10.356   3.905  0.2467  0.1470 -0.8227
 1016MOL0     C37045  11.594  10.213   3.948  0.0400  0.0289 -0.3914
 1016MOL0     C37046  11.646  10.189   4.093  0.7154 -0.6189 -0.7098
 1016MOL0     C37047  11.649  10.041   4.134 -0.1975  0.0083  0.1464
 1016MOL0     C37048  11.749   9.951   4.050 -0.1238 -0.6163  0.3362
 1016MOL0     O37049  11.887  10.001   4.048  0.7781 -0.6001 -0.0785
 1016MOL0     C37050  11.990   9.912   4.036 -0.0007 -0.1775  0.3656
 1016MOL0     C37051  11.986   9.813   3.932 -0.2615 -1.2600 -0.3443
 1016MOL0     C37052  12.098   9.730   3.925 -0.4895 -0.0179  0.7825
 1016MOL0     C37053  12.107   9.622   3.808 -0.3634 -0.2644 -0.3735
 1016MOL0     C37054  12.201   9.736   4.016  0.2214 -0.3278  0.6673
 1016MOL0     C37055  12.325   9.642   4.014 -0.0281 -0.0328  0.0718
 1016MOL0     O37056  12.443   9.704   4.030 -0.2064  0.0119 -0.5520
 1016MOL0     C37057  12.554   9.634   4.037  0.0398  0.8871 -0.0681
 1016MOL0     C37058  12.601   9.596   4.157  0.5077  0.7511  0.0008
 1016MOL0     C37059  12.710   9.519   4.176  0.0061  0.4331 -0.8734
 1016MOL0     C37060  12.795   9.477   4.070  0.3195 -0.5142  0.0876
 1016MOL0     O37061  12.912   9.412   4.104 -0.6061  0.7191  0.2517
 1016MOL0     C37062  13.025   9.443   4.015  1.4387 -0.0611  0.7427
 1016MOL0     C37063  13.152   9.379   4.071 -0.1441  0.3328  0.0842
 1016MOL0     C37064  13.141   9.226   4.065  0.3813  0.0614 -0.5318
 1016MOL0     C37065  13.266   9.147   4.081 -0.0595 -0.7078  0.4399
 1016MOL0     C37066  13.291   9.113   4.225  0.7057  0.0543 -0.6103
 1016MOL0     C37067  13.438   9.072   4.247 -0.3364  0.1548 -0.6372
 1016MOL0     C37068  13.461   8.929   4.203  0.1549 -0.2319 -0.3386
 1016MOL0     C37069  13.614   8.893   4.214  0.7516  0.7201 -0.5284
 1016MOL0    Cl37070  13.637   8.730   4.149  0.2999 -0.4390 -0.0342
 1016MOL0     C37071  12.743   9.514   3.944  0.2024  0.3405  0.9877
 1016MOL0     C37072  12.625   9.587   3.926 -0.4605 -0.1805 -0.3622
 1016MOL0     O37073  12.312   9.516   3.995 -0.1634  0.3588  0.2596
 1016MOL0     C37074  12.199   9.821   4.115  1.0467 -0.9040  0.0681
 1016MOL0     C37075  12.093   9.917   4.134  0.2184 -1.0313 -0.2070
 1016MOL0     N37076  11.623  10.460   3.995 -0.2054 -0.1249 -0.2120
 1016MOL0     N37077  11.637  10.571   3.937  0.5922  0.1050 -0.8799
 1016MOL0     C37078  10.532  10.579   3.970  0.6449  1.1385  0.2292
 1016MOL0     C37079  10.412  10.512   3.931 -0.6333 -1.0898 -0.0253
 1016MOL0     C37080  10.041  10.402   3.728  0.5052  1.0045 -0.0742
 1016MOL0     C37081   9.924  10.471   3.692  0.1685  0.4541  1.1819
 1016MOL0     C37082   9.808  10.399   3.651 -0.2232  0.2755 -0.7222
 1016MOL0     C37083   9.800  10.257   3.668  1.0336 -0.5193 -0.3229
 1016MOL0     O37084   9.685  10.179   3.644  0.3087 -0.1546 -0.2568
 1016MOL0     C37085   9.583  10.245   3.569 -1.2248  0.0217  0.0629
 1016MOL0     C37086   9.474  10.314   3.650  0.6810 -1.4752  0.1073
 1016MOL0     C37087   9.393  10.227   3.746  0.5160  0.1477 -0.2805
 1016MOL0     C37088   9.235  10.256   3.752 -0.4562  0.1295 -0.0378
 1016MOL0     C37089   9.201  10.394   3.784 -1.3062 -0.1403 -0.8643
 1016MOL0     C37090   9.174  10.511   3.823  0.6979 -0.5006  0.3475
 1016MOL0     C37091   9.919  10.188   3.701  0.2917  0.0960 -0.8126
 1016MOL0     C37092  10.030  10.261   3.742 -0.5404  0.3261 -1.0307
 1016MOL0     H37093  10.488  10.462   3.601 -0.8556 -1.0636  0.3984
 1016MOL0     H37094  10.696  10.551   3.676 -1.4242 -0.8078 -2.4806
 1016MOL0     H37095  10.905  10.534   3.821  4.5377  1.0721 -0.5458
 1016MOL0     H37096  10.874  10.690   3.741  0.1764  1.9142 -0.6535
 1016MOL0     H37097  10.952  10.824   3.925 -0.5261  0.4860 -1.9870
 1016MOL0     H37098  10.982  10.679   4.030  0.2409  0.7875  0.5803
 1016MOL0     H37099  11.205  10.709   3.944  0.2285 -1.6589  0.0375
 1016MOL0     H37100  11.121  10.583   3.840  0.0689 -0.7766  2.5574
 1016MOL0     H37101  11.084  10.741   3.670 -0.2713 -3.3560  0.7231
 1016MOL0     H37102  11.118  10.877   3.781  2.1694 -0.3106  1.6205
 1016MOL0     H37103  11.310  10.839   3.626 -0.2874  0.8274  0.5182
 1016MOL0     H37104  11.344  10.825   3.801 -3.9631  0.7172  1.1487
 1016MOL0     H37105  11.336  10.572   3.783  0.0416  0.6397  1.3925
 1016MOL0     H37106  11.250  10.585   3.627 -0.4121 -2.2779  2.1905
 1016MOL0     H37107  11.470  10.521   3.585 -2.9574  0.0747 -1.3446
 1016MOL0     H37108  11.470  10.700   3.544  3.9026  0.4383  0.5173
 1016MOL0     H37109  11.566  10.741   3.758 -0.7311  0.8064 -1.0258
 1016MOL0     H37110  11.669  10.656   3.645 -1.3417  0.2294 -1.1409
 1016MOL0     H37111  11.565  10.352   3.693 -0.9567 -1.0093  0.4136
 1016MOL0     H37112  11.486  10.200   3.950  0.0184  0.1615 -0.6540
 1016MOL0     H37113  11.642  10.148   3.874 -0.8118 -2.0397  0.8000
 1016MOL0     H37114  11.589  10.248   4.166 -0.6738 -0.6754 -1.7092
 1016MOL0     H37115  11.748  10.228   4.105  0.1520  0.5805  0.5327
 1016MOL0     H37116  11.547  10.008   4.111 -0.7199 -0.9243  3.3176
 1016MOL0     H37117  11.679  10.029   4.239 -0.2688  2.3092  0.4864
 1016MOL0     H37118  11.712   9.963   3.947 -0.3509  0.7709  0.5653
 1016MOL0     H37119  11.741   9.845   4.075  0.6911 -0.2349  2.4211
 1016MOL0     H37120  11.913   9.813   3.852  1.5844 -1.8170 -2.0948
 1016MOL0     H37121  12.037   9.652   3.729 -1.7536 -0.9612  0.5506
 1016MOL0     H37122  12.207   9.607   3.767 -0.5971 -1.8300 -0.4295
 1016MOL0     H37123  12.081   9.531   3.863  2.1230 -0.8569 -0.0654
 1016MOL0     H37124  12.551   9.642   4.242 -1.1522  1.8014 -1.4692
 1016MOL0     H37125  12.738   9.498   4.278 -1.1706  1.7841 -0.2329
 1016MOL0     H37126  13.010   9.404   3.914  3.8697 -1.0930  0.7087
 1016MOL0     H37127  13.045   9.550   4.014  2.5058 -0.1265  3.7117
 1016MOL0     H37128  13.243   9.415   4.023  0.0646  1.4971  1.2591
 1016MOL0     H37129  13.173   9.415   4.173  1.4742 -0.3339  0.0013
 1016MOL0     H37130  13.084   9.199   3.976 -1.5480  1.4856  0.1694
 1016MOL0     H37131  13.072   9.202   4.147  1.5733  0.2378  0.5513
 1016MOL0     H37132  13.258   9.049   4.032 -1.2955 -1.3452  1.8389
 1016MOL0     H37133  13.345   9.207   4.035  0.7774 -1.5868  0.6887
 1016MOL0     H37134  13.224   9.035   4.262  0.8098  1.0713  1.9645
 1016MOL0     H37135  13.275   9.203   4.285 -0.8988  0.6683 -1.8853
 1016MOL0     H37136  13.508   9.147   4.209 -0.9219  1.2018  0.2570
 1016MOL0     H37137  13.443   9.061   4.355  0.4241 -1.7586 -0.8338
 1016MOL0     H37138  13.427   8.920   4.099 -2.0250 -0.4832  0.3513
 1016MOL0     H37139  13.413   8.853   4.265  2.5278 -1.3633  0.2058
 1016MOL0     H37140  13.644   8.879   4.319 -0.6427 -3.2601 -0.4622
 1016MOL0     H37141  13.687   8.964   4.176  1.6705 -0.0570 -0.2767
 1016MOL0     H37142  12.803   9.481   3.860 -2.6041 -1.1038 -0.5668
 1016MOL0     H37143  12.583   9.608   3.828  1.6163  0.8362 -1.0793
 1016MOL0     H37144  12.274   9.824   4.193 -0.1865  0.6979  1.2651
 1016MOL0     H37145  12.101   9.985   4.217  0.9560  0.2797 -1.3161
 1016MOL0     H37146  10.552  10.606   4.074  1.8818 -0.4909  0.4756
 1016MOL0     H37147  10.333  10.496   4.003  1.3472 -1.0752  2.2527
 1016MOL0     H37148   9.929  10.580   3.689 -1.6355  0.5397 -0.8769
 1016MOL0     H37149   9.723  10.466   3.639  0.1504  1.6864  3.1133
 1016MOL0     H37150   9.623  10.320   3.500  1.8816 -2.2602 -0.8285
 1016MOL0     H37151   9.547  10.162   3.509 -0.9055 -0.5280  0.6169
 1016MOL0     H37152   9.408  10.350   3.571  2.5955  0.4111 -0.7290
 1016MOL0     H37153   9.519  10.397   3.705  2.2260 -0.8861 -1.9439
 1016MOL0     H37154   9.438  10.221   3.845 -2.8965  0.4271  1.4024
 1016MOL0     H37155   9.396  10.128   3.701  0.8526  0.0347 -0.0145
 1016MOL0     H37156   9.177  10.188   3.816 -1.7684 -1.2206 -2.5172
 1016MOL0     H37157   9.202  10.232   3.651  0.1107  1.7965 -0.6559
 1016MOL0     H37158   9.167  10.614   3.852  1.0858 -0.1231 -0.8751
 1016MOL0     H37159   9.914  10.082   3.724 -2.1829 -0.0515 -1.7673
 1016MOL0     H37160  10.110  10.203   3.787  2.8153  2.6322 -3.5116
 1017MOL0     O37161   0.944   7.706   7.056  0.6135  0.6736 -0.4668
 1017MOL0     C37162   0.940   7.638   7.163  0.1392 -0.6526 -0.1345
 1017MOL0     O37163   0.940   7.688   7.292  0.6164  0.7252  0.2878
 1017MOL0     C37164   0.901   7.822   7.298 -0.8899  0.3372 -0.1058
 1017MOL0     C37165   0.766   7.862   7.261 -0.2109  1.0719 -0.0165
 1017MOL0     C37166   0.731   7.995   7.266  0.8188 -0.0752 -0.3153
 1017MOL0     C37167   0.818   8.079   7.339 -0.4048  0.1790  0.4488
 1017MOL0     O37168   0.768   8.203   7.331 -0.0797 -0.0958  0.4168
 1017MOL0     C37169   0.726   8.251   7.455 -0.4012  0.3465  1.0002
 1017MOL0     C37170   0.642   8.370   7.439 -0.3990  0.4214 -0.5892
 1017MOL0     C37171   0.505   8.338   7.387  0.5385  1.0080 -0.8479
 1017MOL0     C37172   0.413   8.452   7.422  1.7279 -0.4603 -0.2463
 1017MOL0     C37173   0.412   8.486   7.575 -0.0181 -0.4072  0.2135
 1017MOL0     C37174   0.305   8.581   7.605  0.6871  0.5893 -0.1654
 1017MOL0     C37175   0.305   8.624   7.751  0.3354 -0.0157  0.1221
 1017MOL0     C37176   0.201   8.741   7.791  0.0810  0.2710  0.3670
 1017MOL0     N37177   0.067   8.693   7.773  0.0630 -0.4090 -0.2545
 1017MOL0     C37178  -0.016   8.717   7.667 -0.4516  0.0885 -0.5607
 1017MOL0     C37179  -0.138   8.674   7.710 -0.3288 -0.5121  0.0414
 1017MOL0     C37180  -0.251   8.681   7.606 -0.2632 -0.0719 -0.4278
 1017MOL0     C37181  -0.395   8.667   7.676  0.5813  0.6491  0.4572
 1017MOL0     C37182  -0.467   8.536   7.647  0.3007 -0.7431 -0.2561
 1017MOL0     C37183  -0.531   8.545   7.511  0.1071  0.2674 -0.2872
 1017MOL0     O37184  -0.549   8.407   7.473  0.6114  0.8065  0.2888
 1017MOL0     C37185  -0.638   8.375   7.369  0.7325 -0.1181  0.1141
 1017MOL0     C37186  -0.728   8.467   7.317 -0.0455 -0.1812  1.1276
 1017MOL0     C37187  -0.832   8.436   7.223 -0.4514  0.5467  0.0680
 1017MOL0     C37188  -0.917   8.553   7.172 -0.0869 -0.4194  0.3157
 1017MOL0     C37189  -0.839   8.300   7.177  0.4710 -0.2519  0.1045
 1017MOL0     C37190  -0.937   8.256   7.070 -0.3466 -0.5616 -0.6141
 1017MOL0     O37191  -0.896   8.162   6.975 -0.5036 -0.4859 -0.8684
 1017MOL0     C37192  -0.981   8.084   6.902 -0.7327 -0.5750  0.2785
 1017MOL0     C37193  -1.123   8.077   6.901 -0.1061  0.6090 -0.0948
 1017MOL0     C37194  -1.191   7.997   6.810  0.4119  1.0555  0.6821
 1017MOL0     C37195  -1.118   7.921   6.715  0.1542 -0.3078 -0.2269
 1017MOL0     O37196  -1.182   7.841   6.624  0.3179  0.1271 -0.0313
 1017MOL0     C37197  -1.114   7.722   6.586  0.1236  0.1597  0.0318
 1017MOL0     C37198  -1.054   7.752   6.440 -0.5853  0.0963  0.7154
 1017MOL0     C37199  -1.157   7.746   6.324 -0.6404  0.1877 -0.3669
 1017MOL0     C37200  -1.131   7.838   6.204 -0.2887 -0.9421 -1.1131
 1017MOL0     C37201  -1.209   7.814   6.084 -1.5230  0.4208  0.5124
 1017MOL0     C37202  -1.178   7.905   5.977 -0.4957 -0.0214 -0.1472
 1017MOL0     C37203  -1.040   7.889   5.911 -0.3928 -0.8405  0.2808
 1017MOL0     C37204  -1.042   7.981   5.785 -0.0087  0.9215  0.3427
 1017MOL0    Cl37205  -0.894   7.982   5.677  0.3974  0.3441  0.0544
 1017MOL0     C37206  -0.979   7.929   6.714  0.3692 -0.4142  0.4177
 1017MOL0     C37207  -0.917   8.004   6.808 -0.3474 -0.1763 -0.5576
 1017MOL0     O37208  -1.051   8.294   7.089  0.4698 -0.1059 -0.2021
 1017MOL0     C37209  -0.748   8.208   7.230  0.9031 -0.2525  0.0323
 1017MOL0     C37210  -0.654   8.243   7.325 -0.0244 -0.9264 -0.1593
 1017MOL0     N37211  -0.135   8.617   7.836  0.0136  0.6378 -0.4316
 1017MOL0     N37212  -0.008   8.629   7.866 -1.0311 -0.2338 -0.8780
 1017MOL0     C37213   0.937   8.036   7.393  0.5488 -0.2666 -0.0519
 1017MOL0     C37214   0.979   7.914   7.373 -0.4842 -0.4519  0.0790
 1017MOL0     C37215   0.960   7.494   7.140  0.0907  0.3583 -1.3775
 1017MOL0     C37216   0.948   7.441   7.013  0.2891 -0.1888 -0.3914
 1017MOL0     C37217   0.968   7.308   6.984  0.8113  0.7499 -0.7467
 1017MOL0     C37218   0.990   7.221   7.090 -0.9064  0.2138  0.2287
 1017MOL0     O37219   0.997   7.088   7.077 -0.5520 -0.1283  0.2656
 1017MOL0     C37220   1.037   7.025   6.953  0.0100  0.0828  0.2370
 1017MOL0     C37221   1.022   6.871   6.961  0.1602 -0.1139  0.0767
 1017MOL0     C37222   0.884   6.824   7.012  0.5739 -0.1953 -0.3102
 1017MOL0     C37223   0.778   6.918   6.965 -0.1462  0.3702  0.1984
 1017MOL0     C37224   0.639   6.864   6.998  0.3434  0.1968 -0.2479
 1017MOL0     C37225   0.521   6.828   7.022 -1.1315  0.2215  0.1765
 1017MOL0     C37226   1.004   7.276   7.219  0.8735 -0.1130 -0.0511
 1017MOL0     C37227   0.988   7.407   7.248 -0.1629 -0.2825 -0.0514
 1017MOL0     H37228   0.700   7.787   7.218  0.8471  0.5525 -0.8018
 1017MOL0     H37229   0.636   8.028   7.227  0.8001 -0.7369 -0.8602
 1017MOL0     H37230   0.664   8.171   7.497 -2.3935  0.2416 -1.8722
 1017MOL0     H37231   0.810   8.287   7.516 -0.3390  2.6629 -0.3735
 1017MOL0     H37232   0.644   8.407   7.542 -0.0638 -0.5079 -0.2497
 1017MOL0     H37233   0.695   8.435   7.369 -0.1286  1.7390  0.7940
 1017MOL0     H37234   0.520   8.320   7.280  1.8435  0.2920 -0.5559
 1017MOL0     H37235   0.465   8.248   7.436  0.1334  2.3529  1.4592
 1017MOL0     H37236   0.428   8.542   7.361  0.8602  1.1907  1.8493
 1017MOL0     H37237   0.313   8.422   7.393  2.2757 -0.6128 -2.0770
 1017MOL0     H37238   0.398   8.389   7.623 -1.9089 -0.1166  0.3245
 1017MOL0     H37239   0.508   8.534   7.594  0.5039 -1.2250 -0.2822
 1017MOL0     H37240   0.316   8.673   7.548  0.7049  0.8993  0.3340
 1017MOL0     H37241   0.207   8.544   7.575  1.4012 -0.2642 -1.5402
 1017MOL0     H37242   0.264   8.536   7.803 -0.7503 -0.3773 -1.2904
 1017MOL0     H37243   0.392   8.662   7.806 -0.2355  1.8892 -0.2362
 1017MOL0     H37244   0.224   8.825   7.725 -1.6146  1.2724  0.9866
 1017MOL0     H37245   0.204   8.773   7.895 -1.3137 -0.3230  0.6184
 1017MOL0     H37246   0.012   8.765   7.574  0.1934  1.3643  0.2714
 1017MOL0     H37247  -0.237   8.778   7.558  1.2832  1.3975  2.7030
 1017MOL0     H37248  -0.232   8.604   7.530 -6.2848 -0.5574 -1.9451
 1017MOL0     H37249  -0.458   8.748   7.639  0.5233  1.2696  1.8387
 1017MOL0     H37250  -0.389   8.685   7.784 -2.0424  1.7741  0.4649
 1017MOL0     H37251  -0.549   8.520   7.717 -3.8614 -2.0322 -4.8133
 1017MOL0     H37252  -0.394   8.455   7.659  0.8966  0.1101  2.6540
 1017MOL0     H37253  -0.460   8.593   7.443  1.0059 -0.1457  0.3424
 1017MOL0     H37254  -0.617   8.613   7.510  0.1053  0.2683 -1.5203
 1017MOL0     H37255  -0.729   8.570   7.350 -3.7719 -0.0059  0.8524
 1017MOL0     H37256  -0.978   8.530   7.083 -0.3645  0.6024  0.2270
 1017MOL0     H37257  -0.988   8.575   7.252 -0.0000 -0.3950  0.3850
 1017MOL0     H37258  -0.859   8.643   7.153  0.6541 -0.6794  1.3004
 1017MOL0     H37259  -1.186   8.139   6.964 -1.9725 -2.8498  1.7299
 1017MOL0     H37260  -1.299   8.012   6.809  0.3779  1.1367 -1.9325
 1017MOL0     H37261  -1.044   7.696   6.667 -0.8398  1.1440  1.2276
 1017MOL0     H37262  -1.175   7.631   6.584  2.2446 -1.4830  2.3446
 1017MOL0     H37263  -1.002   7.848   6.431  3.8346 -2.1514 -0.6280
 1017MOL0     H37264  -0.966   7.690   6.420  0.3740  2.0484 -1.5747
 1017MOL0     H37265  -1.259   7.744   6.363 -0.4286 -4.5069  0.4766
 1017MOL0     H37266  -1.134   7.650   6.276  0.7703  0.0996  0.4403
 1017MOL0     H37267  -1.171   7.934   6.240  0.8355 -0.0463 -2.1597
 1017MOL0     H37268  -1.023   7.835   6.190  0.2834 -0.5444  2.2598
 1017MOL0     H37269  -1.313   7.811   6.117 -1.0328 -1.0480  2.0707
 1017MOL0     H37270  -1.200   7.712   6.047 -0.5929  0.1294  1.4770
 1017MOL0     H37271  -1.256   7.895   5.901 -0.3654  4.3400 -1.1697
 1017MOL0     H37272  -1.183   8.007   6.018 -0.9108  0.4579 -1.3381
 1017MOL0     H37273  -1.030   7.787   5.872  0.4444 -0.4785 -0.4852
 1017MOL0     H37274  -0.957   7.924   5.974 -2.4619 -0.7378  3.1352
 1017MOL0     H37275  -1.060   8.088   5.803 -1.8996  1.2917 -2.8917
 1017MOL0     H37276  -1.133   7.954   5.730  1.0728 -0.0634 -1.0362
 1017MOL0     H37277  -0.912   7.878   6.646 -1.3793 -0.7149 -1.1497
 1017MOL0     H37278  -0.811   8.025   6.810 -0.2131 -0.4577  3.5866
 1017MOL0     H37279  -0.739   8.110   7.184  0.8276  0.7288 -2.2118
 1017MOL0     H37280  -0.579   8.179   7.370  0.6996  2.2412  3.6264
 1017MOL0     H37281   0.999   8.102   7.453 -0.0103 -0.2895  0.5665
 1017MOL0     H37282   1.077   7.890   7.412 -0.0442 -0.1193 -0.7900
 1017MOL0     H37283   0.913   7.507   6.935 -2.2901 -1.0510 -0.0482
 1017MOL0     H37284   0.955   7.283   6.879  0.4544 -1.2809 -0.2431
 1017MOL0     H37285   0.978   7.069   6.872  3.0953  3.0138 -0.6657
 1017MOL0     H37286   1.141   7.048   6.926  0.0605 -0.3498  0.0556
 1017MOL0     H37287   1.108   6.842   7.022 -0.5476  1.5699  1.9967
 1017MOL0     H37288   1.035   6.829   6.861  1.8984 -0.3760  0.3932
 1017MOL0     H37289   0.899   6.822   7.121  2.4434  1.6551 -0.4733
 1017MOL0     H37290   0.863   6.720   6.986 -2.6262 -0.0322  1.1659
 1017MOL0     H37291   0.773   6.923   6.856 -3.8751 -2.1839  0.0233
 1017MOL0     H37292   0.789   7.019   7.005 -2.4716  0.4296  0.8791
 1017MOL0     H37293   0.422   6.804   7.057 -1.0048  0.7039  0.8757
 1017MOL0     H37294   1.034   7.208   7.299  2.3651 -0.8988 -1.2354
 1017MOL0     H37295   0.986   7.436   7.353  0.0522 -0.4627  0.0034
 1018MOL0     O37296   5.942   1.272   6.429 -0.0357  0.0768 -0.2007
 1018MOL0     C37297   5.927   1.337   6.534 -0.3025  1.3937 -1.1815
 1018MOL0     O37298   5.994   1.448   6.573 -0.4853  0.3926 -0.6946
 1018MOL0     C37299   6.089   1.500   6.482 -0.4674  0.2884 -0.7349
 1018MOL0     C37300   6.208   1.430   6.446 -0.1739 -0.2932  0.4613
 1018MOL0     C37301   6.280   1.487   6.343  0.2912  0.2469 -0.4201
 1018MOL0     C37302   6.239   1.604   6.275  0.4996 -0.3015  0.0538
 1018MOL0     O37303   6.320   1.639   6.172 -0.2123  0.9061  0.1479
 1018MOL0     C37304   6.336   1.772   6.132  0.5915  0.6435 -0.2360
 1018MOL0     C37305   6.375   1.782   5.991  0.1474  0.4662  0.0820
 1018MOL0     C37306   6.389   1.933   5.956  0.6127 -0.2145 -0.5029
 1018MOL0     C37307   6.520   1.992   5.997  0.2618  0.5194 -0.2092
 1018MOL0     C37308   6.524   2.136   5.959  0.4032 -0.7555 -0.9263
 1018MOL0     C37309   6.664   2.197   5.991 -0.6788  0.2486  0.0287
 1018MOL0     C37310   6.702   2.181   6.138  0.0121 -0.3424 -0.5027
 1018MOL0     C37311   6.826   2.261   6.190  0.5804 -0.7459  0.1908
 1018MOL0     N37312   6.944   2.188   6.147 -0.6071 -0.0735  0.3491
 1018MOL0     C37313   7.055   2.240   6.075 -0.4253  0.2703  0.2947
 1018MOL0     C37314   7.140   2.132   6.080  0.3587 -0.5139  0.2108
 1018MOL0     C37315   7.281   2.126   6.018  0.8349  0.6378  0.2445
 1018MOL0     C37316   7.372   2.202   6.115 -0.0914  1.3336 -0.4529
 1018MOL0     C37317   7.521   2.158   6.100 -0.5289  0.0601  0.0483
 1018MOL0     C37318   7.584   2.163   5.958 -0.8451  0.0320 -0.2591
 1018MOL0     O37319   7.611   2.298   5.933  0.3646  0.1696 -0.0157
 1018MOL0     C37320   7.588   2.352   5.809 -0.5189 -1.5030 -0.2941
 1018MOL0     C37321   7.590   2.491   5.796 -0.1674  0.5815  1.1521
 1018MOL0     C37322   7.570   2.556   5.670  0.2344 -0.2080 -0.1685
 1018MOL0     C37323   7.580   2.708   5.667 -0.1325 -0.0093 -0.4872
 1018MOL0     C37324   7.547   2.480   5.553  1.1313  0.7045  0.8930
 1018MOL0     C37325   7.517   2.526   5.413  0.2828 -0.0966  0.3396
 1018MOL0     O37326   7.481   2.662   5.395  0.4566  0.6520  0.1792
 1018MOL0     C37327   7.448   2.698   5.263  0.4334  0.1025 -0.0695
 1018MOL0     C37328   7.318   2.676   5.211 -0.0699  0.7742 -0.0927
 1018MOL0     C37329   7.297   2.700   5.081 -0.0294  1.5771 -0.1619
 1018MOL0     C37330   7.390   2.734   4.991 -0.2075 -0.1111  0.0009
 1018MOL0     O37331   7.366   2.730   4.854  0.2624 -0.4921 -0.0383
 1018MOL0     C37332   7.239   2.680   4.799  0.0384 -0.2504  0.1644
 1018MOL0     C37333   7.235   2.733   4.656 -0.3661 -0.8671  0.1308
 1018MOL0     C37334   7.370   2.702   4.576 -0.1780  1.1689  0.3343
 1018MOL0     C37335   7.346   2.735   4.430  1.0584 -0.9621  0.0241
 1018MOL0     C37336   7.470   2.678   4.351  0.3191 -0.5784 -0.4578
 1018MOL0     C37337   7.464   2.699   4.199 -0.3217  0.2945 -0.2574
 1018MOL0     C37338   7.540   2.590   4.126  0.0013 -0.1072 -0.2070
 1018MOL0     C37339   7.690   2.615   4.141 -0.1299  0.0793  0.2334
 1018MOL0    Cl37340   7.771   2.500   4.027  0.2616  0.0247 -0.1996
 1018MOL0     C37341   7.523   2.757   5.037 -0.3953 -0.0128 -0.2688
 1018MOL0     C37342   7.547   2.753   5.170 -0.4814 -0.1571  0.1736
 1018MOL0     O37343   7.500   2.439   5.329 -0.6980 -0.2508  1.0389
 1018MOL0     C37344   7.562   2.344   5.562  0.6324  0.3321  0.3282
 1018MOL0     C37345   7.583   2.280   5.688 -0.3095  0.9617  0.2572
 1018MOL0     N37346   7.078   2.026   6.147 -0.1550  0.2913 -0.0577
 1018MOL0     N37347   6.964   2.065   6.182 -0.6139  0.1360 -0.8157
 1018MOL0     C37348   6.128   1.677   6.326  0.7858  0.0572 -0.5917
 1018MOL0     C37349   6.050   1.613   6.414 -0.0115  0.8357 -0.2329
 1018MOL0     C37350   5.829   1.276   6.633 -0.7777 -0.7215 -0.1695
 1018MOL0     C37351   5.719   1.213   6.586 -0.9462  0.2041 -0.6548
 1018MOL0     C37352   5.637   1.160   6.680 -0.4173  0.6436 -0.6939
 1018MOL0     C37353   5.665   1.155   6.821 -0.5248  0.0272 -0.0186
 1018MOL0     O37354   5.581   1.092   6.910  0.3801  0.7494  0.5394
 1018MOL0     C37355   5.479   1.000   6.872 -0.3841  0.2532  0.0774
 1018MOL0     C37356   5.391   0.981   6.997 -0.2320  0.0439 -0.0648
 1018MOL0     C37357   5.285   1.097   7.012 -0.3693 -0.0671  0.5467
 1018MOL0     C37358   5.204   1.065   7.151  0.1541  0.2583  1.6425
 1018MOL0     C37359   5.287   1.091   7.271 -0.2340  0.3924 -0.1122
 1018MOL0     C37360   5.356   1.114   7.366  0.2562 -0.0423  0.0585
 1018MOL0     C37361   5.780   1.222   6.863  0.5846 -0.6283  0.6034
 1018MOL0     C37362   5.859   1.291   6.770 -0.8353 -0.7838  0.7376
 1018MOL0     H37363   6.247   1.341   6.494  1.3387  0.5265  0.8141
 1018MOL0     H37364   6.372   1.445   6.306 -1.3232 -0.4772 -4.0925
 1018MOL0     H37365   6.243   1.828   6.145  1.5336  2.6049 -1.6195
 1018MOL0     H37366   6.415   1.814   6.196  0.3206  0.0683  0.4963
 1018MOL0     H37367   6.469   1.729   5.971  0.3274  0.6351  0.4788
 1018MOL0     H37368   6.299   1.729   5.932  0.0782  2.3331 -1.6095
 1018MOL0     H37369   6.386   1.934   5.846  3.2768  1.2723 -0.6308
 1018MOL0     H37370   6.305   1.991   5.996  3.6471  4.8530 -0.6584
 1018MOL0     H37371   6.538   1.976   6.104  1.3815  0.6040 -0.3704
 1018MOL0     H37372   6.591   1.933   5.939  0.0847  0.3263 -0.2312
 1018MOL0     H37373   6.495   2.144   5.854 -1.6802 -2.6248 -0.5715
 1018MOL0     H37374   6.446   2.183   6.019  1.7227  0.8755 -0.4021
 1018MOL0     H37375   6.743   2.170   5.920 -1.3481 -0.5325 -0.4421
 1018MOL0     H37376   6.645   2.304   5.975 -2.3169 -0.1338 -0.8473
 1018MOL0     H37377   6.611   2.200   6.195  1.8019  0.4010  2.2593
 1018MOL0     H37378   6.725   2.076   6.157  2.1370  0.6267  3.0229
 1018MOL0     H37379   6.823   2.278   6.298 -1.6806  0.4902  0.0073
 1018MOL0     H37380   6.822   2.361   6.144  1.1038 -1.0421 -0.5143
 1018MOL0     H37381   7.071   2.336   6.026 -2.6948  0.2245 -0.6481
 1018MOL0     H37382   7.309   2.020   6.010 -1.0496 -0.2109  3.2905
 1018MOL0     H37383   7.276   2.166   5.916 -3.0142  3.4491  1.3040
 1018MOL0     H37384   7.342   2.186   6.219 -0.0057  3.7989 -0.0036
 1018MOL0     H37385   7.346   2.307   6.099 -1.4629  1.5107  2.2995
 1018MOL0     H37386   7.522   2.052   6.128 -1.1148 -0.3297 -1.3418
 1018MOL0     H37387   7.583   2.216   6.170  0.7576 -0.2197 -0.8211
 1018MOL0     H37388   7.512   2.119   5.888 -1.0482  3.6580 -2.5841
 1018MOL0     H37389   7.672   2.098   5.958 -0.4720  0.4999  0.9735
 1018MOL0     H37390   7.587   2.550   5.887 -0.8294  0.8947  0.9326
 1018MOL0     H37391   7.483   2.735   5.623  0.3926  0.3670 -1.4470
 1018MOL0     H37392   7.591   2.768   5.757 -2.8140  3.2944 -2.1344
 1018MOL0     H37393   7.660   2.730   5.596  0.8960 -1.3867  0.2049
 1018MOL0     H37394   7.238   2.650   5.279  2.2291  0.3643  2.6735
 1018MOL0     H37395   7.190   2.695   5.060 -0.6184 -1.0003  2.8235
 1018MOL0     H37396   7.237   2.571   4.793 -2.4511 -0.2521 -0.1094
 1018MOL0     H37397   7.151   2.708   4.857  0.1899  0.0194  0.2689
 1018MOL0     H37398   7.156   2.692   4.593  0.7605  0.2824 -2.1504
 1018MOL0     H37399   7.217   2.840   4.671 -2.6093 -1.0812 -0.5878
 1018MOL0     H37400   7.388   2.594   4.567 -0.3752  1.0882  0.8652
 1018MOL0     H37401   7.465   2.744   4.610  1.2909 -0.5777 -1.4159
 1018MOL0     H37402   7.256   2.685   4.394  1.9043 -1.5716 -1.3353
 1018MOL0     H37403   7.331   2.843   4.422  1.5348 -0.5415  3.4393
 1018MOL0     H37404   7.484   2.573   4.377  1.2543 -0.5182 -0.6839
 1018MOL0     H37405   7.553   2.744   4.379 -0.9692  2.5969 -3.3203
 1018MOL0     H37406   7.362   2.710   4.163  0.5344 -0.6310 -3.3087
 1018MOL0     H37407   7.503   2.797   4.169  0.2133  1.0609  2.6263
 1018MOL0     H37408   7.517   2.607   4.021  1.7925 -0.0665 -0.6145
 1018MOL0     H37409   7.520   2.488   4.162  1.9082 -0.5147 -0.1717
 1018MOL0     H37410   7.728   2.595   4.242 -0.3091  1.2050  0.5425
 1018MOL0     H37411   7.707   2.721   4.118  0.9553  0.1441  1.2612
 1018MOL0     H37412   7.600   2.776   4.963 -1.8171  1.0588 -1.5504
 1018MOL0     H37413   7.653   2.774   5.185 -0.7061  0.5502  0.8402
 1018MOL0     H37414   7.552   2.275   5.479 -1.3617  2.1964 -1.0866
 1018MOL0     H37415   7.601   2.174   5.700 -2.2186  0.4850 -0.6466
 1018MOL0     H37416   6.076   1.762   6.283 -2.9027 -1.4911  0.4148
 1018MOL0     H37417   5.950   1.650   6.434 -0.8345 -1.8572  1.0718
 1018MOL0     H37418   5.689   1.214   6.482  0.5928 -1.6775 -1.1789
 1018MOL0     H37419   5.553   1.108   6.636 -0.6549 -0.8031  1.3089
 1018MOL0     H37420   5.424   1.055   6.795 -0.5297 -1.1137 -0.8487
 1018MOL0     H37421   5.515   0.901   6.839 -0.2755  0.2093  0.3298
 1018MOL0     H37422   5.457   0.962   7.082  2.4453  2.1601 -1.4953
 1018MOL0     H37423   5.341   0.886   6.979 -0.5783  0.2545 -0.2402
 1018MOL0     H37424   5.211   1.110   6.932 -1.0940  1.2362  1.4014
 1018MOL0     H37425   5.341   1.191   7.015  1.1507 -0.4270 -4.9525
 1018MOL0     H37426   5.160   0.965   7.149  1.1597 -0.1852  1.1622
 1018MOL0     H37427   5.115   1.125   7.168 -1.0071 -1.3365  1.4491
 1018MOL0     H37428   5.401   1.133   7.461  1.0554  4.3218 -0.9937
 1018MOL0     H37429   5.792   1.209   6.970  3.1013 -1.7328  0.2610
 1018MOL0     H37430   5.944   1.347   6.806 -1.4645  1.9457 -1.6539
 1019MOL0     O37431  10.842   1.231   9.258 -0.2584 -0.4521 -1.1085
 1019MOL0     C37432  10.809   1.137   9.196 -0.8055  0.7258 -0.0213
 1019MOL0     O37433  10.883   1.071   9.103  0.8081 -0.4524  0.0740
 1019MOL0     C37434  10.985   1.138   9.053  0.3075 -1.3622  0.5115
 1019MOL0     C37435  11.106   1.089   9.074 -0.3891  0.1502  0.0244
 1019MOL0     C37436  11.223   1.160   9.030  0.3736 -0.0442  0.2123
 1019MOL0     C37437  11.212   1.280   8.967 -0.6099 -0.6351 -0.0578
 1019MOL0     O37438  11.335   1.339   8.950  0.0113  0.4425  0.3636
 1019MOL0     C37439  11.344   1.477   8.923 -0.2138  0.2049 -0.2860
 1019MOL0     C37440  11.486   1.520   8.944 -0.8958  0.0063  0.3147
 1019MOL0     C37441  11.594   1.433   8.879 -0.1296  0.2042  0.7175
 1019MOL0     C37442  11.731   1.485   8.918  0.7256  0.5348  0.0656
 1019MOL0     C37443  11.826   1.376   8.885  0.5946  0.9599  0.7793
 1019MOL0     C37444  11.978   1.398   8.895 -0.5819  0.1759 -0.3156
 1019MOL0     C37445  12.024   1.518   8.824 -0.4078  0.2753  0.2398
 1019MOL0     C37446  12.163   1.566   8.869  0.6320  0.1926  0.7029
 1019MOL0     N37447  12.216   1.673   8.780 -0.2809 -0.3948 -0.2167
 1019MOL0     C37448  12.278   1.646   8.670  0.2015 -0.3606  0.0709
 1019MOL0     C37449  12.342   1.766   8.632 -0.5115 -0.2120 -0.9343
 1019MOL0     C37450  12.418   1.795   8.504  0.1582 -0.0747  0.2930
 1019MOL0     C37451  12.553   1.867   8.510  0.6662  1.1483  0.0809
 1019MOL0     C37452  12.660   1.761   8.556  0.2041  0.1864 -0.3162
 1019MOL0     C37453  12.789   1.833   8.576  0.0235  0.5420  0.2987
 1019MOL0     O37454  12.865   1.840   8.453  0.3327  0.3874 -0.4481
 1019MOL0     C37455  12.999   1.885   8.465  0.4370  1.3511  0.9496
 1019MOL0     C37456  13.098   1.826   8.382 -0.1129 -0.4292 -0.3729
 1019MOL0     C37457  13.234   1.866   8.391 -0.0372 -0.4898 -0.3058
 1019MOL0     C37458  13.340   1.800   8.304  0.0396  0.7028 -0.4168
 1019MOL0     C37459  13.261   1.964   8.482 -0.2185 -0.6905  0.3001
 1019MOL0     C37460  13.400   2.013   8.503 -0.0728 -0.1982 -0.5391
 1019MOL0     O37461  13.409   2.109   8.593 -0.6278  0.3693 -0.3979
 1019MOL0     C37462  13.536   2.149   8.631 -0.5014 -0.1058 -0.5254
 1019MOL0     C37463  13.625   2.206   8.536  0.6815 -0.3811 -0.0040
 1019MOL0     C37464  13.755   2.242   8.575  0.1485  0.4719 -0.3124
 1019MOL0     C37465  13.787   2.229   8.707 -1.1860  0.1924  0.1306
 1019MOL0     O37466  13.906   2.269   8.764  0.1845  1.0712  0.3118
 1019MOL0     C37467  13.982   2.362   8.688 -0.6916  0.2561 -0.1989
 1019MOL0     C37468  14.089   2.388   8.806 -0.1024  0.1961 -0.0919
 1019MOL0     C37469  14.217   2.468   8.791 -0.3825 -0.3783  0.4721
 1019MOL0     C37470  14.303   2.428   8.672 -0.4423  0.3266  0.1040
 1019MOL0     C37471  14.449   2.492   8.690  0.1884 -0.4519 -0.2422
 1019MOL0     C37472  14.546   2.451   8.587  0.3374 -0.6712 -0.3704
 1019MOL0     C37473  14.691   2.488   8.629  0.5033  0.3301  0.5508
 1019MOL0     C37474  14.803   2.458   8.530 -0.0157  0.7931  0.9869
 1019MOL0    Cl37475  14.936   2.557   8.593 -0.0654  0.5065 -0.1878
 1019MOL0     C37476  13.700   2.182   8.805  0.9326 -0.9055  0.1461
 1019MOL0     C37477  13.568   2.144   8.768  0.4347  0.3050 -0.6606
 1019MOL0     O37478  13.494   1.966   8.441  0.2869  0.0934 -0.5556
 1019MOL0     C37479  13.162   2.030   8.553 -0.0276  0.0948 -0.5633
 1019MOL0     C37480  13.032   1.985   8.548  0.6305 -0.2836  0.2664
 1019MOL0     N37481  12.308   1.858   8.728  0.3564  0.9810 -0.4111
 1019MOL0     N37482  12.247   1.800   8.820  0.1723  0.1735  0.1644
 1019MOL0     C37483  11.083   1.332   8.948  0.6625 -0.0092 -0.7890
 1019MOL0     C37484  10.971   1.265   8.991  0.0160 -0.0861  0.1265
 1019MOL0     C37485  10.676   1.083   9.223  0.4844 -0.2736  1.1125
 1019MOL0     C37486  10.606   1.008   9.123  0.8745 -0.0967 -0.7886
 1019MOL0     C37487  10.466   0.975   9.138 -0.3265 -1.2187  0.5870
 1019MOL0     C37488  10.399   1.007   9.257 -0.1639 -0.3603  0.1062
 1019MOL0     O37489  10.272   0.965   9.282 -0.6997  0.2052  0.4073
 1019MOL0     C37490  10.189   0.926   9.171 -0.1222 -0.4494  0.8163
 1019MOL0     C37491  10.039   0.935   9.192 -0.4627 -0.2826  0.8828
 1019MOL0     C37492   9.983   0.854   9.309  0.7086 -0.8096  0.3814
 1019MOL0     C37493   9.829   0.841   9.283 -0.7317  0.8020  0.1139
 1019MOL0     C37494   9.781   0.775   9.409 -1.7304 -0.1905 -0.5407
 1019MOL0     C37495   9.734   0.708   9.505  0.7957 -0.0476 -0.1062
 1019MOL0     C37496  10.470   1.071   9.355  0.0500 -0.6738  0.9338
 1019MOL0     C37497  10.601   1.105   9.337  0.6728 -0.5669 -0.3665
 1019MOL0     H37498  11.122   0.990   9.116 -1.1820  0.6944  1.7143
 1019MOL0     H37499  11.320   1.112   9.040  0.1646 -0.7386 -0.9009
 1019MOL0     H37500  11.314   1.496   8.820 -1.5870 -2.0687 -0.3825
 1019MOL0     H37501  11.284   1.533   8.996 -1.0965  3.5493 -3.2914
 1019MOL0     H37502  11.493   1.627   8.919 -0.5272  0.2980  1.5860
 1019MOL0     H37503  11.513   1.515   9.050  2.3593 -1.7949 -0.4442
 1019MOL0     H37504  11.574   1.329   8.909  1.4900 -0.4106 -0.1766
 1019MOL0     H37505  11.581   1.430   8.770 -3.8672  1.1726  0.9902
 1019MOL0     H37506  11.747   1.577   8.861  2.8387  1.1952  1.6265
 1019MOL0     H37507  11.730   1.516   9.023  0.3654  4.3791 -0.9222
 1019MOL0     H37508  11.806   1.299   8.959  0.3346  2.2306  2.0720
 1019MOL0     H37509  11.799   1.342   8.785 -0.3667 -0.4352  1.4780
 1019MOL0     H37510  12.007   1.415   8.999 -0.0067  2.6313 -0.8344
 1019MOL0     H37511  12.038   1.310   8.869  0.2533  1.5897 -3.6327
 1019MOL0     H37512  12.028   1.501   8.716  2.0359  0.6750  0.2262
 1019MOL0     H37513  11.951   1.598   8.842  0.8972  1.3093  1.0679
 1019MOL0     H37514  12.233   1.484   8.887  1.3789  0.9632  1.3552
 1019MOL0     H37515  12.170   1.615   8.967  2.9001  0.6426  0.3676
 1019MOL0     H37516  12.276   1.554   8.612 -2.4070 -0.5717  0.3640
 1019MOL0     H37517  12.440   1.705   8.445  2.8272  0.9281 -0.4103
 1019MOL0     H37518  12.347   1.852   8.445 -0.1325 -1.8845 -1.1770
 1019MOL0     H37519  12.535   1.954   8.574 -1.6480  1.4930 -0.9252
 1019MOL0     H37520  12.569   1.893   8.405 -1.9083 -0.1705 -0.7410
 1019MOL0     H37521  12.674   1.678   8.487 -0.2619  0.6884 -1.0298
 1019MOL0     H37522  12.630   1.713   8.650 -0.7230 -3.8741 -2.4608
 1019MOL0     H37523  12.850   1.786   8.653  0.9649 -0.2335 -0.8698
 1019MOL0     H37524  12.772   1.937   8.605  2.0412  0.4986  1.7891
 1019MOL0     H37525  13.073   1.751   8.307 -0.7862 -0.7116  0.1286
 1019MOL0     H37526  13.289   1.735   8.232 -0.4883  0.5972  0.0431
 1019MOL0     H37527  13.400   1.872   8.248 -1.6683  2.0268 -0.6354
 1019MOL0     H37528  13.406   1.738   8.364 -0.7980 -2.1907 -2.2512
 1019MOL0     H37529  13.595   2.229   8.434 -1.2261  2.8418  1.1205
 1019MOL0     H37530  13.822   2.288   8.503 -0.0370  0.5355 -0.4488
 1019MOL0     H37531  14.033   2.315   8.603 -2.7664  1.2029 -2.0679
 1019MOL0     H37532  13.929   2.456   8.667 -2.2500 -0.9979 -2.3311
 1019MOL0     H37533  14.047   2.449   8.886  1.1823  0.0980  0.6793
 1019MOL0     H37534  14.125   2.296   8.852  1.2759  0.4058 -0.7004
 1019MOL0     H37535  14.280   2.453   8.879  1.1504  1.4603 -0.2270
 1019MOL0     H37536  14.207   2.577   8.778 -0.6397 -0.7279 -2.9447
 1019MOL0     H37537  14.327   2.322   8.672  1.7516  0.7573 -1.3716
 1019MOL0     H37538  14.263   2.455   8.575  0.5554 -0.3075 -0.5002
 1019MOL0     H37539  14.491   2.477   8.790  1.5548 -2.6959 -1.0861
 1019MOL0     H37540  14.447   2.600   8.676 -2.8612 -0.6075 -1.8401
 1019MOL0     H37541  14.532   2.343   8.570 -1.6376 -1.0723  2.8385
 1019MOL0     H37542  14.522   2.502   8.494 -0.3134  2.7241  1.4778
 1019MOL0     H37543  14.717   2.448   8.727  2.8147  0.2467 -0.0434
 1019MOL0     H37544  14.689   2.597   8.626  1.5671  0.3636 -2.7340
 1019MOL0     H37545  14.782   2.475   8.424  1.3180 -2.9122 -0.0142
 1019MOL0     H37546  14.833   2.353   8.527  1.8786  1.3282 -0.6458
 1019MOL0     H37547  13.738   2.177   8.906  2.2287  0.9007 -0.1963
 1019MOL0     H37548  13.483   2.114   8.829 -0.9363  0.5438 -2.3846
 1019MOL0     H37549  13.179   2.111   8.624  0.4002 -1.7605  1.5542
 1019MOL0     H37550  12.963   2.044   8.607 -1.2798 -0.4952 -1.6311
 1019MOL0     H37551  11.070   1.436   8.921 -0.2147  0.8250  2.3715
 1019MOL0     H37552  10.869   1.303   8.983 -0.0021 -0.2084 -0.2612
 1019MOL0     H37553  10.667   0.989   9.035  1.2231 -1.1074 -0.3404
 1019MOL0     H37554  10.415   0.940   9.049  0.5096 -0.1758 -0.3348
 1019MOL0     H37555  10.210   0.986   9.082  2.0581 -1.5287  0.5322
 1019MOL0     H37556  10.211   0.821   9.154 -0.1448 -0.6056  1.6703
 1019MOL0     H37557  10.002   0.900   9.095 -0.6244 -0.3495  0.9681
 1019MOL0     H37558   9.982   1.028   9.201 -5.2805 -2.6407 -1.2500
 1019MOL0     H37559  10.011   0.900   9.404  2.7831  0.3014 -0.7103
 1019MOL0     H37560  10.034   0.757   9.313 -0.2067 -1.3675 -0.6448
 1019MOL0     H37561   9.798   0.785   9.195 -1.4658 -2.4752  2.2793
 1019MOL0     H37562   9.786   0.941   9.291 -1.5454  0.5447 -0.9115
 1019MOL0     H37563   9.695   0.657   9.591  0.1068 -0.0413 -0.4048
 1019MOL0     H37564  10.429   1.104   9.449 -1.7723  0.2588 -0.1311
 1019MOL0     H37565  10.653   1.155   9.418 -1.4171  1.4616 -0.1963
 1020MOL0     O37566   8.877   7.609  10.499  0.7591 -0.3192 -0.9321
 1020MOL0     C37567   8.931   7.557  10.398  0.2474  0.5548  0.1230
 1020MOL0     O37568   8.916   7.429  10.353  0.0063  0.2522 -0.0091
 1020MOL0     C37569   8.818   7.345  10.399  0.7245 -0.6979  0.5876
 1020MOL0     C37570   8.688   7.386  10.448  0.2013 -0.4269 -0.4010
 1020MOL0     C37571   8.587   7.287  10.478  0.1511 -0.7620  0.5247
 1020MOL0     C37572   8.621   7.148  10.471  0.5251  0.7880  0.4416
 1020MOL0     O37573   8.535   7.044  10.499 -0.6023 -0.3364 -0.3382
 1020MOL0     C37574   8.414   7.068  10.577 -0.3977  0.6516 -0.6515
 1020MOL0     C37575   8.392   6.946  10.676  0.6991 -0.6925  0.2310
 1020MOL0     C37576   8.498   6.940  10.787  0.3673  1.4877 -0.2700
 1020MOL0     C37577   8.481   6.821  10.894  0.3733  0.3778 -0.2026
 1020MOL0     C37578   8.587   6.830  11.005  0.0228  0.6015 -0.2786
 1020MOL0     C37579   8.580   6.960  11.087 -0.8447  0.1267  0.0909
 1020MOL0     C37580   8.610   6.941  11.236  0.0499 -0.0023  0.8405
 1020MOL0     C37581   8.753   6.883  11.252 -0.5049 -0.1103 -0.2521
 1020MOL0     N37582   8.780   6.839  11.389 -0.1823 -0.6328 -0.2490
 1020MOL0     C37583   8.840   6.921  11.483 -0.2489  0.3963  0.8994
 1020MOL0     C37584   8.846   6.843  11.591  0.7884  0.6345 -0.5820
 1020MOL0     C37585   8.881   6.897  11.727 -0.8578 -0.1895  0.5067
 1020MOL0     C37586   9.025   6.851  11.771  0.3940 -0.3213  0.8206
 1020MOL0     C37587   9.045   6.702  11.792  0.2093 -0.1851  0.0349
 1020MOL0     C37588   9.192   6.665  11.791 -0.2508 -0.2795 -0.0134
 1020MOL0     O37589   9.267   6.712  11.674 -0.3091  0.0872 -0.5977
 1020MOL0     C37590   9.399   6.672  11.679  0.1104 -0.2918 -0.0487
 1020MOL0     C37591   9.488   6.764  11.628 -1.1627  0.0669  0.1095
 1020MOL0     C37592   9.627   6.737  11.619  0.5996 -0.0143  0.5349
 1020MOL0     C37593   9.706   6.851  11.557 -0.2893 -0.3251 -0.0227
 1020MOL0     C37594   9.675   6.607  11.657 -0.5240  0.3252 -0.3078
 1020MOL0     C37595   9.818   6.559  11.639 -0.3999  0.4711  0.3460
 1020MOL0     O37596   9.845   6.437  11.701  0.6376 -0.2682  0.6110
 1020MOL0     C37597   9.974   6.396  11.708  0.3278  0.2498  0.0645
 1020MOL0     C37598  10.066   6.393  11.599  0.3505  0.3521  0.1706
 1020MOL0     C37599  10.190   6.321  11.613  0.5636 -0.8681  0.0567
 1020MOL0     C37600  10.222   6.252  11.722  0.9479  0.3383  0.6247
 1020MOL0     O37601  10.335   6.175  11.713 -0.2221  0.0966  0.2418
 1020MOL0     C37602  10.399   6.125  11.827  0.1177  0.6370 -0.8343
 1020MOL0     C37603  10.529   6.046  11.796  0.6542  0.4947  0.8526
 1020MOL0     C37604  10.618   6.016  11.913 -0.6425  1.1363 -0.7156
 1020MOL0     C37605  10.706   6.130  11.968  0.1644 -0.2706  0.3122
 1020MOL0     C37606  10.800   6.081  12.088 -0.8184 -0.3449  0.3316
 1020MOL0     C37607  10.936   6.034  12.033 -0.1636  0.5431  0.4072
 1020MOL0     C37608  10.985   5.906  12.101  0.1691  0.0336 -0.2196
 1020MOL0     C37609  11.024   5.931  12.245  0.3566 -0.8455 -1.6291
 1020MOL0    Cl37610  11.158   6.059  12.256 -0.2164 -0.2869  0.0138
 1020MOL0     C37611  10.123   6.253  11.823  0.6254 -0.3590 -0.8317
 1020MOL0     C37612   9.997   6.322  11.818  0.0370 -0.7278  0.6340
 1020MOL0     O37613   9.893   6.624  11.573 -0.6971 -0.7648  0.1551
 1020MOL0     C37614   9.592   6.520  11.717 -0.5573 -0.8453  0.1128
 1020MOL0     C37615   9.452   6.553  11.724  0.3232 -0.0455 -0.0489
 1020MOL0     N37616   8.781   6.723  11.571  0.5850 -0.1931  0.2263
 1020MOL0     N37617   8.746   6.719  11.449 -0.1542 -0.4335  0.7954
 1020MOL0     C37618   8.747   7.114  10.426 -0.1812  0.9049  0.2043
 1020MOL0     C37619   8.853   7.208  10.387  0.9210  0.3345 -0.6289
 1020MOL0     C37620   9.020   7.644  10.323 -0.7645 -0.3380 -0.1472
 1020MOL0     C37621   9.090   7.597  10.206  0.0470 -0.1544 -0.2743
 1020MOL0     C37622   9.177   7.672  10.133 -0.2788 -0.1349  0.5789
 1020MOL0     C37623   9.207   7.805  10.168 -0.7283  0.0145 -0.8625
 1020MOL0     O37624   9.281   7.893  10.087 -0.9701 -0.4332  0.1322
 1020MOL0     C37625   9.294   8.038  10.115 -0.1229  0.1622 -0.0300
 1020MOL0     C37626   9.407   8.111  10.058 -0.9425  0.0049  0.3247
 1020MOL0     C37627   9.414   8.113   9.897 -0.1178 -0.4388  0.5654
 1020MOL0     C37628   9.308   8.211   9.823 -1.1624  0.5463 -0.8556
 1020MOL0     C37629   9.357   8.349   9.846  0.5008  0.6795  0.2335
 1020MOL0     C37630   9.397   8.464   9.862  0.2034 -0.6993 -0.6525
 1020MOL0     C37631   9.140   7.853  10.283  0.1584 -0.1538 -0.4938
 1020MOL0     C37632   9.049   7.779  10.357 -0.5041 -0.7424  0.9116
 1020MOL0     H37633   8.650   7.487  10.451  0.6558 -0.2780  0.4920
 1020MOL0     H37634   8.489   7.321  10.510  0.4587 -1.0433  1.7808
 1020MOL0     H37635   8.423   7.162  10.634 -3.7248  2.0317 -2.1726
 1020MOL0     H37636   8.341   7.075  10.496 -1.5147  1.2894  0.3815
 1020MOL0     H37637   8.296   6.973  10.722  0.8019  1.2065 -0.5664
 1020MOL0     H37638   8.389   6.847  10.629  1.1826 -2.3682  3.4787
 1020MOL0     H37639   8.595   6.926  10.738  0.7300  1.2026  0.5047
 1020MOL0     H37640   8.501   7.038  10.835 -1.8117  1.3331  0.3024
 1020MOL0     H37641   8.380   6.832  10.933 -0.6251  0.2431 -2.5383
 1020MOL0     H37642   8.487   6.728  10.837 -1.6149 -0.1649  0.4261
 1020MOL0     H37643   8.567   6.745  11.071 -2.3365  0.2800 -1.3064
 1020MOL0     H37644   8.684   6.811  10.958 -0.3284 -0.1069 -0.7344
 1020MOL0     H37645   8.651   7.028  11.038 -2.1666  1.2767 -0.2669
 1020MOL0     H37646   8.479   6.996  11.068 -0.9711 -1.5855 -3.1496
 1020MOL0     H37647   8.594   7.035  11.289  3.1992  3.2709 -3.2847
 1020MOL0     H37648   8.541   6.862  11.267  0.7028  0.5079  3.9365
 1020MOL0     H37649   8.824   6.962  11.225  0.7366 -0.2848  2.2334
 1020MOL0     H37650   8.777   6.795  11.191  0.5973  1.7240 -2.6348
 1020MOL0     H37651   8.862   7.028  11.476 -1.2487  0.5581  0.0048
 1020MOL0     H37652   8.874   7.006  11.722  0.8331 -0.1024 -1.5769
 1020MOL0     H37653   8.810   6.880  11.808  0.5606 -0.0834  1.8198
 1020MOL0     H37654   9.065   6.905  11.858  0.5273  1.1848 -0.1483
 1020MOL0     H37655   9.085   6.888  11.688  1.0532  0.9638  1.8200
 1020MOL0     H37656   8.983   6.652  11.717  0.6990 -0.9975  0.1584
 1020MOL0     H37657   9.003   6.673  11.889 -0.6548 -3.9589 -1.2726
 1020MOL0     H37658   9.187   6.558  11.815 -1.7456 -0.5178 -1.2104
 1020MOL0     H37659   9.240   6.705  11.881 -2.2514 -0.0531  1.0274
 1020MOL0     H37660   9.452   6.866  11.623  0.8347  0.8773  0.9686
 1020MOL0     H37661   9.796   6.873  11.616 -2.5748  2.8240  2.6387
 1020MOL0     H37662   9.743   6.816  11.460 -0.1853 -1.9745  0.5809
 1020MOL0     H37663   9.648   6.941  11.536 -0.2435 -0.6724 -1.8305
 1020MOL0     H37664  10.037   6.438  11.504 -0.6250  1.9019  1.1517
 1020MOL0     H37665  10.279   6.333  11.553  0.6097  0.4911  0.3609
 1020MOL0     H37666  10.430   6.216  11.877  0.4717  1.2280 -2.1008
 1020MOL0     H37667  10.333   6.073  11.898 -1.7526  1.3383 -1.9976
 1020MOL0     H37668  10.494   5.953  11.751  0.4666 -1.4846  4.6712
 1020MOL0     H37669  10.584   6.100  11.719 -0.7790  0.7317 -0.0436
 1020MOL0     H37670  10.691   5.944  11.873 -3.0780 -0.9066 -1.7260
 1020MOL0     H37671  10.565   5.960  11.990  2.6689 -2.7905 -0.9380
 1020MOL0     H37672  10.761   6.174  11.885  2.1900 -3.2266 -0.0932
 1020MOL0     H37673  10.650   6.209  12.017 -0.1602  1.7005 -2.9668
 1020MOL0     H37674  10.754   6.000  12.145 -2.2387  0.9739  1.1294
 1020MOL0     H37675  10.810   6.158  12.164  0.9921  0.1530 -0.3554
 1020MOL0     H37676  10.914   6.017  11.927  0.2464  1.0539  0.2335
 1020MOL0     H37677  11.014   6.110  12.035 -0.0057  0.3786  0.5256
 1020MOL0     H37678  11.058   5.856  12.037  0.2729  0.8316 -0.7384
 1020MOL0     H37679  10.902   5.835  12.098  0.7835 -0.6975 -3.7430
 1020MOL0     H37680  11.063   5.838  12.286 -1.2764 -1.2411 -0.9292
 1020MOL0     H37681  10.936   5.951  12.307 -0.7102 -3.2540 -2.2783
 1020MOL0     H37682  10.152   6.205  11.917  0.5776 -0.2396 -0.7564
 1020MOL0     H37683   9.927   6.323  11.901 -1.4423 -1.2771 -0.5603
 1020MOL0     H37684   9.625   6.435  11.775  0.4993 -0.5932 -0.1057
 1020MOL0     H37685   9.387   6.473  11.760  2.3390  0.2921  5.3726
 1020MOL0     H37686   8.766   7.007  10.430  0.9231  1.0425 -0.8161
 1020MOL0     H37687   8.946   7.177  10.342 -0.1290 -2.6269 -0.9853
 1020MOL0     H37688   9.066   7.500  10.162  0.0881 -0.0423 -0.5478
 1020MOL0     H37689   9.217   7.620  10.046 -1.8296 -1.1727  0.4521
 1020MOL0     H37690   9.201   8.083  10.080 -2.0042 -1.1029  3.0017
 1020MOL0     H37691   9.297   8.054  10.223 -0.0620 -2.2643  0.3908
 1020MOL0     H37692   9.507   8.073  10.084 -1.0330  1.9381  4.1969
 1020MOL0     H37693   9.418   8.212  10.099  2.7391 -0.3051  0.4966
 1020MOL0     H37694   9.402   8.010   9.864 -5.0277  0.4046 -1.2098
 1020MOL0     H37695   9.516   8.131   9.861 -0.2442 -3.5400 -1.6932
 1020MOL0     H37696   9.210   8.186   9.864 -2.2598  0.4317 -3.3775
 1020MOL0     H37697   9.313   8.191   9.716  1.0340  2.2903 -1.1474
 1020MOL0     H37698   9.428   8.564   9.884 -3.3711 -0.1608  3.1976
 1020MOL0     H37699   9.163   7.953  10.318  3.7635 -0.7919 -0.6524
 1020MOL0     H37700   9.006   7.819  10.448 -3.1405 -1.4406  0.0588
 1021MOL0     O37701   2.866   9.378   6.423  0.1813  0.3522 -0.2909
 1021MOL0     C37702   2.957   9.311   6.463 -0.6269  0.4874  0.0903
 1021MOL0     O37703   2.952   9.170   6.496 -0.8752 -0.0327  0.3631
 1021MOL0     C37704   2.834   9.102   6.478  0.4792 -0.0800  0.1911
 1021MOL0     C37705   2.762   9.108   6.358  0.2791  1.0612 -0.1693
 1021MOL0     C37706   2.637   9.044   6.346 -0.1015  0.2880 -0.4708
 1021MOL0     C37707   2.577   8.980   6.455 -0.3408 -0.7759  0.2754
 1021MOL0     O37708   2.448   8.931   6.461  0.3045 -0.1589  0.5547
 1021MOL0     C37709   2.450   8.792   6.449  0.0316 -0.3856 -0.7020
 1021MOL0     C37710   2.311   8.741   6.484 -0.4255  0.3909  0.7409
 1021MOL0     C37711   2.259   8.799   6.612 -0.1992 -0.3117 -0.2743
 1021MOL0     C37712   2.120   8.737   6.649 -0.8965  0.1958  0.0580
 1021MOL0     C37713   2.047   8.810   6.757  0.8709  0.0773  0.0163
 1021MOL0     C37714   1.921   8.734   6.807  0.8478 -0.0683 -0.4476
 1021MOL0     C37715   1.859   8.806   6.933 -0.6005  0.4728  0.4808
 1021MOL0     C37716   1.717   8.756   6.963 -0.8105 -0.4489  0.1272
 1021MOL0     N37717   1.723   8.608   6.979 -0.0720  0.0866 -0.0993
 1021MOL0     C37718   1.707   8.509   6.879 -0.0462  0.3082 -0.1977
 1021MOL0     C37719   1.759   8.403   6.946 -0.4465  0.5109 -0.5291
 1021MOL0     C37720   1.797   8.274   6.885 -0.0352  0.4722 -0.4680
 1021MOL0     C37721   1.704   8.154   6.908 -0.4515 -0.4405 -0.2744
 1021MOL0     C37722   1.571   8.171   6.831  0.3614 -0.0242 -0.3811
 1021MOL0     C37723   1.455   8.220   6.922  0.6428 -0.1087  0.3780
 1021MOL0     O37724   1.324   8.195   6.867 -0.4440  0.1003 -0.6232
 1021MOL0     C37725   1.260   8.260   6.771 -0.4477 -0.4370 -0.5427
 1021MOL0     C37726   1.146   8.204   6.717  0.4536  0.3362 -0.1399
 1021MOL0     C37727   1.073   8.269   6.613  0.4518 -1.5463  0.4932
 1021MOL0     C37728   0.934   8.204   6.595  0.4005  0.2446  1.5631
 1021MOL0     C37729   1.114   8.397   6.556 -0.0785 -0.2388 -0.7965
 1021MOL0     C37730   1.041   8.481   6.463 -0.8813  0.6680  0.9319
 1021MOL0     O37731   1.101   8.597   6.433 -0.2601 -0.4174  0.7455
 1021MOL0     C37732   1.062   8.682   6.333 -1.0079  0.5200  0.3391
 1021MOL0     C37733   1.155   8.751   6.257  0.1165 -0.6983 -0.4430
 1021MOL0     C37734   1.103   8.846   6.164 -1.0415  0.0042  0.6240
 1021MOL0     C37735   0.968   8.879   6.159  0.4622 -1.1021 -0.0199
 1021MOL0     O37736   0.930   8.981   6.077  0.2898  0.0267  0.3617
 1021MOL0     C37737   0.859   8.943   5.952 -0.9568 -0.7719  0.6808
 1021MOL0     C37738   0.717   8.987   5.954  1.0058 -0.5341  0.1899
 1021MOL0     C37739   0.631   8.931   5.837  0.3998  1.3940  0.3438
 1021MOL0     C37740   0.482   8.941   5.868 -0.0425  0.2367  0.4616
 1021MOL0     C37741   0.423   8.826   5.955 -0.3804  0.0355  0.7921
 1021MOL0     C37742   0.285   8.848   5.996  0.4574  0.3969 -0.2828
 1021MOL0     C37743   0.184   8.871   5.884  0.1463 -0.0644 -0.5229
 1021MOL0     C37744   0.043   8.828   5.920 -0.6959 -0.2822  0.0394
 1021MOL0    Cl37745   0.033   8.652   5.947 -0.1453  0.3822 -0.3424
 1021MOL0     C37746   0.882   8.806   6.235 -0.3383  0.4053  0.1199
 1021MOL0     C37747   0.929   8.710   6.324 -0.1963 -0.8602 -0.5033
 1021MOL0     O37748   0.940   8.438   6.412  0.5910  0.1962 -0.0172
 1021MOL0     C37749   1.237   8.441   6.609  0.5345  0.4430 -0.3138
 1021MOL0     C37750   1.303   8.375   6.707 -0.0780 -0.4324 -0.4011
 1021MOL0     N37751   1.761   8.418   7.083 -0.7807 -0.3786  0.4357
 1021MOL0     N37752   1.755   8.545   7.106  0.7765 -0.6534  0.9850
 1021MOL0     C37753   2.646   8.979   6.575  1.2617 -0.3420 -1.2348
 1021MOL0     C37754   2.771   9.038   6.589 -0.2086  0.3230 -0.3597
 1021MOL0     C37755   3.083   9.380   6.476  0.2714 -0.6901 -0.2098
 1021MOL0     C37756   3.093   9.521   6.456  0.2678 -0.6103 -0.3279
 1021MOL0     C37757   3.207   9.588   6.477 -0.8051  0.4590 -0.9701
 1021MOL0     C37758   3.317   9.522   6.531  0.5913 -0.8765  0.3346
 1021MOL0     O37759   3.430   9.581   6.570  0.1516  0.3692 -0.5184
 1021MOL0     C37760   3.443   9.723   6.551  0.4622  0.9957 -0.1096
 1021MOL0     C37761   3.560   9.775   6.622  0.6406  0.2130  0.2212
 1021MOL0     C37762   3.693   9.745   6.534  0.1756 -0.0506  0.3102
 1021MOL0     C37763   3.794   9.850   6.540 -0.9544  0.5277  0.0455
 1021MOL0     C37764   3.893   9.836   6.434  0.2587 -0.3310  0.8243
 1021MOL0     C37765   3.963   9.814   6.331 -0.1264  0.8002 -0.5535
 1021MOL0     C37766   3.310   9.387   6.559  0.4852 -0.2447  0.4717
 1021MOL0     C37767   3.198   9.312   6.524 -0.2667  0.0787 -0.1853
 1021MOL0     H37768   2.804   9.148   6.266  2.6932 -0.4845  0.1584
 1021MOL0     H37769   2.591   9.048   6.248  0.8138 -1.5482 -1.0243
 1021MOL0     H37770   2.469   8.751   6.349  3.9488 -2.1561  0.5525
 1021MOL0     H37771   2.525   8.753   6.519  0.7636 -2.9007 -2.7224
 1021MOL0     H37772   2.252   8.778   6.399  0.8997  1.5909  0.3104
 1021MOL0     H37773   2.322   8.633   6.496 -4.2695 -0.6513 -2.8644
 1021MOL0     H37774   2.328   8.803   6.697 -0.7527  1.3220  0.1276
 1021MOL0     H37775   2.234   8.904   6.594  2.3468  0.4276  0.1142
 1021MOL0     H37776   2.057   8.728   6.560  0.6874  0.1324 -1.0974
 1021MOL0     H37777   2.142   8.634   6.679  2.8272  0.8948  0.1979
 1021MOL0     H37778   2.109   8.832   6.844  0.0576  0.8676  0.4194
 1021MOL0     H37779   2.015   8.909   6.721  0.6268  0.7679  2.0327
 1021MOL0     H37780   1.846   8.739   6.727 -1.7483  1.2406  1.9272
 1021MOL0     H37781   1.957   8.632   6.820 -0.3567 -0.8649 -2.7444
 1021MOL0     H37782   1.925   8.794   7.020 -0.8689 -0.6681  0.5405
 1021MOL0     H37783   1.850   8.915   6.924 -0.0042  0.6490  1.8196
 1021MOL0     H37784   1.657   8.794   6.880 -0.1971  1.8014  0.6554
 1021MOL0     H37785   1.678   8.798   7.056 -0.3494 -0.0877  0.1628
 1021MOL0     H37786   1.685   8.529   6.775  1.6044 -2.1303 -1.0795
 1021MOL0     H37787   1.804   8.301   6.779 -1.1411  1.9877 -0.1934
 1021MOL0     H37788   1.895   8.247   6.926 -2.2389 -3.7933  2.7530
 1021MOL0     H37789   1.675   8.145   7.013  1.3099 -1.6428  0.1657
 1021MOL0     H37790   1.758   8.065   6.871  0.5377  0.0563 -0.0639
 1021MOL0     H37791   1.542   8.074   6.789 -1.9140 -1.1529  3.3146
 1021MOL0     H37792   1.566   8.245   6.751 -5.4414  0.7222  0.2046
 1021MOL0     H37793   1.464   8.326   6.948 -0.8694 -0.7526  4.2487
 1021MOL0     H37794   1.469   8.161   7.013  0.9542 -0.5069  0.0718
 1021MOL0     H37795   1.104   8.115   6.764 -0.2903  1.4229  1.3494
 1021MOL0     H37796   0.860   8.284   6.604  1.7860  2.2698 -2.4542
 1021MOL0     H37797   0.920   8.157   6.498  1.7515 -1.2510  2.0520
 1021MOL0     H37798   0.918   8.117   6.659 -0.8010 -0.3726  0.4542
 1021MOL0     H37799   1.259   8.723   6.268  0.9885  2.7566  1.4181
 1021MOL0     H37800   1.170   8.890   6.091  0.0626 -1.1918  0.8735
 1021MOL0     H37801   0.900   8.995   5.865 -1.5269  2.1359  2.0157
 1021MOL0     H37802   0.858   8.835   5.937  1.0823 -0.7515  0.0268
 1021MOL0     H37803   0.675   8.955   6.050 -1.1079  0.4951 -0.3265
 1021MOL0     H37804   0.719   9.094   5.935 -3.4022 -0.4453 -1.0787
 1021MOL0     H37805   0.646   8.825   5.818 -0.6929  1.3009 -0.0858
 1021MOL0     H37806   0.652   8.959   5.733 -1.4990 -2.4439 -1.2747
 1021MOL0     H37807   0.466   9.040   5.911 -1.2571  0.3512 -0.1959
 1021MOL0     H37808   0.427   8.944   5.773  0.9825  1.5866 -0.1044
 1021MOL0     H37809   0.479   8.816   6.048  0.8323  3.9746  0.6431
 1021MOL0     H37810   0.423   8.731   5.900  0.4047  2.7637 -4.5911
 1021MOL0     H37811   0.247   8.758   6.046 -1.7823  0.2408 -2.0863
 1021MOL0     H37812   0.285   8.931   6.066 -0.3475 -1.0103  1.4586
 1021MOL0     H37813   0.200   8.816   5.791 -1.5793 -0.2794 -0.7242
 1021MOL0     H37814   0.192   8.976   5.854  0.1503  0.2378  0.5027
 1021MOL0     H37815  -0.027   8.863   5.844  2.8036  0.0562 -3.3934
 1021MOL0     H37816   0.015   8.887   6.007 -0.7520  0.9019 -0.7558
 1021MOL0     H37817   0.776   8.828   6.241 -0.7792 -1.3115 -0.7834
 1021MOL0     H37818   0.851   8.663   6.383  1.7632 -1.0968  2.0295
 1021MOL0     H37819   1.284   8.534   6.580 -0.4865  1.0467 -0.0917
 1021MOL0     H37820   1.401   8.415   6.732 -0.4864  0.7951 -0.7108
 1021MOL0     H37821   2.591   8.948   6.663  1.5714 -1.4990 -1.4300
 1021MOL0     H37822   2.812   9.037   6.689  0.6367 -3.2722 -0.5907
 1021MOL0     H37823   3.015   9.580   6.408 -0.5329 -1.0416  0.3982
 1021MOL0     H37824   3.208   9.691   6.443 -2.3617  0.3443 -1.4203
 1021MOL0     H37825   3.450   9.735   6.442 -1.3389  0.7660 -0.2855
 1021MOL0     H37826   3.357   9.777   6.590 -0.3096  0.2701 -0.7486
 1021MOL0     H37827   3.578   9.740   6.724  2.3628 -2.9968 -1.0431
 1021MOL0     H37828   3.549   9.883   6.627  0.0079  0.1180  1.1752
 1021MOL0     H37829   3.666   9.721   6.431 -0.8727 -1.4881  0.8903
 1021MOL0     H37830   3.736   9.647   6.558  0.2969 -0.1702 -0.3804
 1021MOL0     H37831   3.858   9.850   6.629  0.2338 -0.6067 -0.7666
 1021MOL0     H37832   3.748   9.949   6.540  1.3121  1.6978  1.9228
 1021MOL0     H37833   4.030   9.801   6.248 -0.9713  1.0447 -1.2874
 1021MOL0     H37834   3.397   9.345   6.609 -0.9093 -0.6430  2.7026
 1021MOL0     H37835   3.194   9.209   6.559 -2.0273  1.3863  4.1976
 1022MOL0     O37836   4.104   4.401   2.161  0.1454 -0.6262  0.2113
 1022MOL0     C37837   4.044   4.296   2.131  0.3181 -1.4317 -0.2525
 1022MOL0     O37838   4.002   4.256   2.014 -0.1057 -0.1239 -0.7394
 1022MOL0     C37839   4.036   4.327   1.907  0.1801  0.2481  0.0113
 1022MOL0     C37840   4.140   4.275   1.828 -0.3632 -0.5696 -0.0968
 1022MOL0     C37841   4.189   4.339   1.717 -0.0647 -0.3496  1.4919
 1022MOL0     C37842   4.133   4.467   1.680 -0.7865 -0.1148  0.0029
 1022MOL0     O37843   4.189   4.539   1.576  0.0929  0.2241 -0.4273
 1022MOL0     C37844   4.307   4.485   1.508  0.9050  0.2093  0.2685
 1022MOL0     C37845   4.370   4.600   1.430 -0.7173  1.1034  0.4664
 1022MOL0     C37846   4.325   4.604   1.276 -0.5644  0.3277  0.2614
 1022MOL0     C37847   4.176   4.633   1.250 -0.3786 -0.4319  0.3189
 1022MOL0     C37848   4.146   4.698   1.117 -0.5599  0.2473  0.2512
 1022MOL0     C37849   4.138   4.588   1.007 -0.8126  0.4762  0.6767
 1022MOL0     C37850   4.172   4.647   0.870  0.4654 -0.4291 -0.9672
 1022MOL0     C37851   4.047   4.726   0.817 -0.2493  0.1793 -0.3190
 1022MOL0     N37852   3.925   4.648   0.822 -0.3852 -0.3320  0.9026
 1022MOL0     C37853   3.902   4.523   0.757 -0.8833 -0.2030 -0.7409
 1022MOL0     C37854   3.776   4.518   0.739  0.6240  1.0829 -0.2424
 1022MOL0     C37855   3.699   4.429   0.644 -0.4728 -0.3944  0.6952
 1022MOL0     C37856   3.735   4.280   0.649  0.3964  1.0982 -0.4489
 1022MOL0     C37857   3.693   4.214   0.783  0.2193 -0.1398 -0.1373
 1022MOL0     C37858   3.540   4.188   0.797  0.2040 -0.2071  0.6157
 1022MOL0     O37859   3.515   4.100   0.912  0.2381  0.3674 -0.4661
 1022MOL0     C37860   3.394   4.123   0.971  0.0613 -1.2734  0.0011
 1022MOL0     C37861   3.372   4.165   1.102 -0.5641 -0.1227 -0.1674
 1022MOL0     C37862   3.249   4.181   1.165 -0.2585  0.0082 -0.5663
 1022MOL0     C37863   3.259   4.216   1.310 -0.2456 -0.1718  0.4964
 1022MOL0     C37864   3.131   4.152   1.090 -0.1308 -0.5583  0.3976
 1022MOL0     C37865   2.995   4.177   1.140  0.1224 -1.2353 -0.1387
 1022MOL0     O37866   2.980   4.267   1.241  0.4498  0.0397  0.4589
 1022MOL0     C37867   2.860   4.282   1.316 -0.5862 -0.2595 -0.1741
 1022MOL0     C37868   2.870   4.306   1.455 -0.2354  0.3700 -0.3012
 1022MOL0     C37869   2.754   4.316   1.535  0.0570 -0.2111  0.7602
 1022MOL0     C37870   2.631   4.307   1.479 -0.5518 -0.3964 -0.2372
 1022MOL0     O37871   2.530   4.313   1.570 -0.3234 -0.0114  0.1112
 1022MOL0     C37872   2.398   4.289   1.527  0.0049 -0.1849  0.1872
 1022MOL0     C37873   2.307   4.286   1.646  0.5225 -0.4508  0.4167
 1022MOL0     C37874   2.368   4.189   1.747  0.7762 -0.4742 -0.4651
 1022MOL0     C37875   2.258   4.146   1.847  0.3216 -0.9835  0.3611
 1022MOL0     C37876   2.320   4.073   1.960 -0.7786 -0.1592 -0.7989
 1022MOL0     C37877   2.234   4.057   2.085  0.2722 -0.1200  0.5063
 1022MOL0     C37878   2.319   3.982   2.192 -0.4671  0.2209  0.3713
 1022MOL0     C37879   2.244   3.939   2.311  0.4075  0.8575 -0.3655
 1022MOL0    Cl37880   2.316   4.014   2.464 -0.2943  0.2279 -0.0841
 1022MOL0     C37881   2.616   4.285   1.340 -0.3420 -0.0102  0.9002
 1022MOL0     C37882   2.731   4.274   1.263 -0.2342  0.1864  0.2471
 1022MOL0     O37883   2.906   4.111   1.094  0.5083 -0.0779  0.8428
 1022MOL0     C37884   3.154   4.104   0.955  1.0026  0.4692 -0.0508
 1022MOL0     C37885   3.277   4.088   0.902 -0.2675 -0.7642  0.3432
 1022MOL0     N37886   3.718   4.621   0.801  0.2527 -0.1531  0.9803
 1022MOL0     N37887   3.809   4.701   0.846 -0.3892  0.5261  0.1667
 1022MOL0     C37888   4.030   4.523   1.753  0.0402 -1.3710 -0.2404
 1022MOL0     C37889   3.979   4.448   1.856 -0.4292 -0.1912 -0.6826
 1022MOL0     C37890   3.990   4.218   2.252  0.1779 -0.2292 -0.0450
 1022MOL0     C37891   3.881   4.133   2.251 -0.2144  0.3024 -0.3617
 1022MOL0     C37892   3.842   4.068   2.365 -0.2321  0.1847  0.1950
 1022MOL0     C37893   3.915   4.065   2.487 -0.2526 -0.1180 -0.1021
 1022MOL0     O37894   3.867   3.994   2.593 -0.7188 -0.5426 -0.2711
 1022MOL0     C37895   3.968   3.959   2.689 -0.1980 -0.1591 -0.6687
 1022MOL0     C37896   3.904   3.881   2.794  0.0367  0.2702 -0.5257
 1022MOL0     C37897   3.962   3.876   2.942  0.1845 -0.9839  0.7170
 1022MOL0     C37898   3.932   3.748   3.013 -0.1192 -0.2593  0.3912
 1022MOL0     C37899   3.984   3.761   3.148 -0.5688  0.7444 -0.4410
 1022MOL0     C37900   4.040   3.800   3.257  0.5820 -0.0272  0.4878
 1022MOL0     C37901   4.036   4.140   2.489  0.4692 -0.1825 -0.0794
 1022MOL0     C37902   4.067   4.212   2.371 -0.0631 -0.3712  0.6550
 1022MOL0     H37903   4.182   4.181   1.862  1.2092 -0.9443 -2.7437
 1022MOL0     H37904   4.269   4.288   1.665  1.7343  1.6948  2.1229
 1022MOL0     H37905   4.382   4.453   1.582 -1.0539 -0.9971  1.8205
 1022MOL0     H37906   4.283   4.407   1.436  1.6763 -0.5204  0.7781
 1022MOL0     H37907   4.354   4.692   1.487 -1.5851 -0.1189  2.2682
 1022MOL0     H37908   4.477   4.577   1.421 -0.8686 -0.2267  1.8158
 1022MOL0     H37909   4.387   4.674   1.220  1.4952 -0.4602  1.4810
 1022MOL0     H37910   4.353   4.510   1.227  1.2098  0.9695  0.0149
 1022MOL0     H37911   4.109   4.547   1.259 -0.6528 -0.0356  3.8875
 1022MOL0     H37912   4.162   4.710   1.327  0.7070 -1.5595  1.7058
 1022MOL0     H37913   4.049   4.749   1.120 -1.1374 -0.7876 -0.3156
 1022MOL0     H37914   4.213   4.781   1.095 -2.2662  2.0191  1.3855
 1022MOL0     H37915   4.210   4.507   1.015  0.7006  1.6225 -0.8102
 1022MOL0     H37916   4.042   4.535   1.010  0.5611 -2.0959  1.1913
 1022MOL0     H37917   4.257   4.714   0.878  1.2645 -1.5747  0.7183
 1022MOL0     H37918   4.208   4.571   0.799  1.9487  0.0955 -0.7970
 1022MOL0     H37919   4.069   4.763   0.716 -2.0881  0.7977 -0.5416
 1022MOL0     H37920   4.021   4.799   0.894 -0.0530  0.4888 -0.5443
 1022MOL0     H37921   3.983   4.456   0.730  0.7311  0.4833  2.0584
 1022MOL0     H37922   3.594   4.437   0.672 -0.2549  0.8375  1.2419
 1022MOL0     H37923   3.712   4.472   0.544  2.2428 -0.3048  1.0038
 1022MOL0     H37924   3.840   4.259   0.628 -0.2745 -2.6994 -0.6734
 1022MOL0     H37925   3.689   4.217   0.572  0.7971  1.5871 -1.1006
 1022MOL0     H37926   3.728   4.275   0.867  0.6916 -1.1990  0.4646
 1022MOL0     H37927   3.744   4.118   0.799  1.5205  0.5701  0.0872
 1022MOL0     H37928   3.496   4.142   0.708 -1.2893 -0.7455  1.5918
 1022MOL0     H37929   3.494   4.287   0.804  1.2740  0.5135 -1.6089
 1022MOL0     H37930   3.463   4.181   1.158 -1.2335  0.6181  0.7286
 1022MOL0     H37931   3.269   4.325   1.316 -2.1834  0.1367 -0.7975
 1022MOL0     H37932   3.168   4.183   1.360  1.3973 -0.5321  3.4364
 1022MOL0     H37933   3.340   4.159   1.356  0.6533 -1.1589 -2.0801
 1022MOL0     H37934   2.966   4.331   1.498  0.6008  0.3004 -2.0333
 1022MOL0     H37935   2.754   4.346   1.639 -0.6612 -0.4978  0.8487
 1022MOL0     H37936   2.360   4.359   1.453  1.2611  0.6469  0.2968
 1022MOL0     H37937   2.390   4.185   1.493  0.0099  0.1106 -0.7469
 1022MOL0     H37938   2.287   4.383   1.693 -1.8027 -1.9049  2.6664
 1022MOL0     H37939   2.211   4.253   1.606  0.7104 -0.0419 -0.3979
 1022MOL0     H37940   2.456   4.228   1.799  1.4648  2.2595 -3.3503
 1022MOL0     H37941   2.391   4.094   1.698 -2.8625 -0.2782 -3.0070
 1022MOL0     H37942   2.192   4.229   1.874 -0.5387 -1.6504  0.3533
 1022MOL0     H37943   2.196   4.070   1.799  1.1837  1.2784 -5.1345
 1022MOL0     H37944   2.415   4.120   1.986  0.1433 -3.5081  2.8407
 1022MOL0     H37945   2.355   3.976   1.925  2.3162  1.2939 -2.0532
 1022MOL0     H37946   2.211   4.161   2.112 -2.1076  0.2667 -2.5143
 1022MOL0     H37947   2.145   3.996   2.068  2.1467 -3.1288  0.6094
 1022MOL0     H37948   2.401   4.048   2.224  2.1866 -2.0190 -1.3684
 1022MOL0     H37949   2.360   3.894   2.142 -0.8348  0.7906 -0.9885
 1022MOL0     H37950   2.243   3.830   2.300 -1.2179  0.9185 -1.1407
 1022MOL0     H37951   2.139   3.969   2.304  1.0512  3.3189 -0.4925
 1022MOL0     H37952   2.525   4.282   1.281 -0.2620  1.0211  0.7081
 1022MOL0     H37953   2.726   4.255   1.156 -0.2534 -0.3335  0.3390
 1022MOL0     H37954   3.079   4.086   0.879  0.0366  1.4496  0.6317
 1022MOL0     H37955   3.276   4.053   0.799 -0.4039 -0.8401  0.3697
 1022MOL0     H37956   3.992   4.622   1.730 -0.1580 -0.8222  2.1787
 1022MOL0     H37957   3.901   4.481   1.923  0.3741  0.6353 -0.1302
 1022MOL0     H37958   3.827   4.122   2.157 -0.9068  1.7604 -0.1605
 1022MOL0     H37959   3.746   4.018   2.354  0.9461 -1.9162 -1.0797
 1022MOL0     H37960   4.045   3.896   2.645  1.0890  0.8261  0.0945
 1022MOL0     H37961   4.028   4.038   2.735 -2.2227  1.4545 -0.6347
 1022MOL0     H37962   3.898   3.781   2.749 -0.9232 -0.8694  1.9607
 1022MOL0     H37963   3.805   3.926   2.795 -0.5593 -0.7910 -2.9717
 1022MOL0     H37964   3.923   3.957   3.004  1.1744  0.1924 -0.1422
 1022MOL0     H37965   4.071   3.887   2.940  0.1665 -0.8991 -0.6895
 1022MOL0     H37966   3.981   3.668   2.956  1.2344  1.1756 -0.5590
 1022MOL0     H37967   3.823   3.741   3.009 -0.1357  0.4522 -1.9144
 1022MOL0     H37968   4.086   3.830   3.349  1.4522 -0.3395  0.1664
 1022MOL0     H37969   4.095   4.157   2.579 -1.1338 -2.1530  1.4255
 1022MOL0     H37970   4.144   4.288   2.365 -0.1691 -0.3964 -2.6003
 1023MOL0     O37971   5.270   5.446   6.180  0.3610 -0.0076  0.4989
 1023MOL0     C37972   5.224   5.346   6.244  0.3048 -0.0388  0.0143
 1023MOL0     O37973   5.159   5.350   6.359  0.0072 -0.2065  0.0047
 1023MOL0     C37974   5.119   5.463   6.422  0.3355 -0.9504 -0.3117
 1023MOL0     C37975   5.080   5.582   6.359 -0.0772  0.3343 -1.0870
 1023MOL0     C37976   5.030   5.689   6.431 -0.4275 -0.1439 -0.0067
 1023MOL0     C37977   5.049   5.688   6.575  0.5583  0.1611 -0.0149
 1023MOL0     O37978   5.041   5.795   6.664 -0.3968 -0.4041 -0.5344
 1023MOL0     C37979   4.931   5.881   6.636  0.1412  0.2542 -0.4404
 1023MOL0     C37980   4.883   5.946   6.769 -0.6456 -0.1389  0.3293
 1023MOL0     C37981   4.751   6.005   6.763  0.7734  0.1286  1.3546
 1023MOL0     C37982   4.720   6.077   6.896  0.3691 -0.7278  0.4778
 1023MOL0     C37983   4.709   5.965   7.005 -0.2004 -0.8628 -0.8316
 1023MOL0     C37984   4.660   6.014   7.144  0.3212  0.7441 -0.9279
 1023MOL0     C37985   4.705   5.918   7.263 -0.1305 -0.4831 -0.4299
 1023MOL0     C37986   4.654   5.968   7.397 -0.0953 -0.4522 -0.2495
 1023MOL0     N37987   4.705   6.101   7.421 -0.4714 -0.0777  0.4098
 1023MOL0     C37988   4.832   6.144   7.383  0.2317  0.5371  0.4882
 1023MOL0     C37989   4.848   6.261   7.446 -0.1412 -0.1671 -0.4734
 1023MOL0     C37990   4.970   6.348   7.432  0.3568 -0.5535 -0.5274
 1023MOL0     C37991   5.069   6.322   7.538  0.0444  0.3682 -0.6729
 1023MOL0     C37992   5.196   6.413   7.520  0.2521  0.8327 -0.5212
 1023MOL0     C37993   5.307   6.392   7.617  0.2262 -0.2085  0.3611
 1023MOL0     O37994   5.411   6.478   7.564 -0.3602  0.4333 -0.3021
 1023MOL0     C37995   5.511   6.512   7.653  0.5150 -0.8599 -0.3519
 1023MOL0     C37996   5.541   6.442   7.773  0.5825  0.2512 -0.7052
 1023MOL0     C37997   5.640   6.491   7.870  1.2823  0.1018 -0.0769
 1023MOL0     C37998   5.645   6.401   7.999  0.6512 -0.2575 -0.4231
 1023MOL0     C37999   5.713   6.604   7.830 -0.1934  0.0711 -0.4095
 1023MOL0     C38000   5.816   6.684   7.920  0.0235  0.1903  0.4864
 1023MOL0     O38001   5.822   6.643   8.041  0.1815 -0.4649 -0.5808
 1023MOL0     C38002   5.883   6.702   8.153 -0.3545  0.1565 -0.2597
 1023MOL0     C38003   5.897   6.836   8.155  0.3938 -0.0085  0.1305
 1023MOL0     C38004   5.962   6.898   8.268 -0.8290 -0.3890 -0.4829
 1023MOL0     C38005   6.003   6.818   8.377  0.2037  0.2440  0.0168
 1023MOL0     O38006   6.063   6.849   8.493 -0.0224  0.0720  0.0607
 1023MOL0     C38007   6.122   6.977   8.506  0.2631  0.2241  0.8336
 1023MOL0     C38008   6.197   6.986   8.637 -0.6435  0.0177 -0.1932
 1023MOL0     C38009   6.269   7.119   8.636 -0.3286  0.1873 -0.0281
 1023MOL0     C38010   6.378   7.124   8.740 -0.2140 -0.3305  0.8546
 1023MOL0     C38011   6.461   7.249   8.720  0.0009  0.5289 -0.4889
 1023MOL0     C38012   6.531   7.288   8.847 -0.0335 -0.0561  0.4948
 1023MOL0     C38013   6.657   7.364   8.830  0.7895 -0.9968  0.0671
 1023MOL0     C38014   6.630   7.498   8.765 -0.3223 -1.0694  0.6005
 1023MOL0    Cl38015   6.526   7.604   8.876 -0.0799  0.2291  0.3966
 1023MOL0     C38016   5.983   6.676   8.371  0.2506  0.3835  0.6765
 1023MOL0     C38017   5.923   6.621   8.257  0.5050  0.2520 -0.9335
 1023MOL0     O38018   5.871   6.784   7.875 -0.3854 -0.7462 -1.0738
 1023MOL0     C38019   5.694   6.666   7.701 -0.1299 -0.0751 -0.1747
 1023MOL0     C38020   5.588   6.628   7.622 -0.2012  0.7366  0.1948
 1023MOL0     N38021   4.739   6.290   7.521  0.5592 -0.4767  0.0347
 1023MOL0     N38022   4.655   6.186   7.509 -0.6146  0.4655  0.3818
 1023MOL0     C38023   5.105   5.574   6.634 -0.5072  0.3682 -0.0298
 1023MOL0     C38024   5.134   5.466   6.563 -0.3180  0.9448 -0.1127
 1023MOL0     C38025   5.230   5.218   6.178 -0.1171  0.3435 -0.0699
 1023MOL0     C38026   5.259   5.201   6.044 -0.5238  0.1889 -0.1009
 1023MOL0     C38027   5.262   5.068   5.986 -0.0589  0.4642  0.7420
 1023MOL0     C38028   5.223   4.961   6.054 -0.8825 -0.6441  0.6868
 1023MOL0     O38029   5.221   4.831   5.997 -0.0218 -0.1644  0.5725
 1023MOL0     C38030   5.156   4.813   5.871 -0.5938 -0.4175  0.2679
 1023MOL0     C38031   5.016   4.857   5.843  0.4082 -0.7015 -0.1255
 1023MOL0     C38032   4.976   4.831   5.701  0.2176  0.3358  0.4174
 1023MOL0     C38033   4.843   4.891   5.669  0.2614  0.4466 -0.7668
 1023MOL0     C38034   4.799   4.858   5.527  0.2583  0.0372  0.1338
 1023MOL0     C38035   4.778   4.819   5.416  0.5365 -0.0358  0.0569
 1023MOL0     C38036   5.188   4.984   6.184 -0.2507  0.4086  0.1081
 1023MOL0     C38037   5.193   5.107   6.250 -0.1726  0.7908  0.0314
 1023MOL0     H38038   5.088   5.598   6.252  0.4482  0.1159 -1.0821
 1023MOL0     H38039   4.991   5.776   6.380  2.7184  1.5543  0.2243
 1023MOL0     H38040   4.959   5.958   6.563  0.3482  0.9700  0.3875
 1023MOL0     H38041   4.843   5.825   6.601  0.6928 -0.8713 -0.0756
 1023MOL0     H38042   4.886   5.861   6.838 -0.7605 -1.4927 -1.2852
 1023MOL0     H38043   4.952   6.021   6.809 -2.0605 -0.8351  4.6693
 1023MOL0     H38044   4.753   6.087   6.691 -4.3652 -0.7354 -0.1615
 1023MOL0     H38045   4.681   5.927   6.732  0.5283  1.2032 -0.9980
 1023MOL0     H38046   4.802   6.148   6.914 -0.1798 -0.5793  2.7711
 1023MOL0     H38047   4.627   6.132   6.877  0.7807 -0.1222  0.1784
 1023MOL0     H38048   4.649   5.881   6.969 -1.8047  0.5514 -1.6524
 1023MOL0     H38049   4.812   5.932   7.021 -0.2241 -0.2367  0.7788
 1023MOL0     H38050   4.683   6.118   7.167 -0.5345  0.9483 -0.9386
 1023MOL0     H38051   4.550   6.016   7.144 -0.0924  0.6850  5.8786
 1023MOL0     H38052   4.652   5.823   7.247  0.1765 -0.9008  0.8722
 1023MOL0     H38053   4.812   5.899   7.247 -0.4662 -0.4362 -3.2056
 1023MOL0     H38054   4.685   5.903   7.480  1.6309  0.5845 -0.0213
 1023MOL0     H38055   4.545   5.963   7.395 -0.3710  0.6069  3.4993
 1023MOL0     H38056   4.903   6.088   7.323 -0.5703 -1.6125  1.4249
 1023MOL0     H38057   5.021   6.333   7.336  0.4279  0.5954 -0.6934
 1023MOL0     H38058   4.932   6.451   7.435  0.7988 -0.3958  2.5411
 1023MOL0     H38059   5.111   6.221   7.539  0.0916  0.3872 -0.7325
 1023MOL0     H38060   5.015   6.332   7.633 -0.2560  1.2951 -0.9377
 1023MOL0     H38061   5.163   6.518   7.517  0.5862  0.9248 -1.8407
 1023MOL0     H38062   5.236   6.392   7.420 -0.3523  1.6325 -0.9547
 1023MOL0     H38063   5.346   6.290   7.617 -0.4707 -0.4821  0.3344
 1023MOL0     H38064   5.265   6.417   7.715  0.9220 -0.7949  0.8164
 1023MOL0     H38065   5.493   6.345   7.784  0.7286  0.2856  0.3387
 1023MOL0     H38066   5.587   6.454   8.075 -0.5390 -0.5013 -1.1401
 1023MOL0     H38067   5.595   6.305   7.989 -0.8107  0.5384 -1.1571
 1023MOL0     H38068   5.748   6.395   8.034  2.2168  2.8659 -3.7922
 1023MOL0     H38069   5.864   6.902   8.075  1.3373 -0.1363 -0.3776
 1023MOL0     H38070   5.977   7.005   8.284 -0.7737 -0.9874  5.7028
 1023MOL0     H38071   6.194   6.991   8.425 -0.5399  0.9479  0.2298
 1023MOL0     H38072   6.041   7.050   8.502 -0.3344 -0.4726 -1.0971
 1023MOL0     H38073   6.135   6.983   8.727  1.8555 -1.2185  1.5957
 1023MOL0     H38074   6.276   6.912   8.647 -0.9104 -0.5035 -1.7540
 1023MOL0     H38075   6.203   7.203   8.658  0.6142  1.0642 -0.4620
 1023MOL0     H38076   6.331   7.133   8.547 -0.0227  1.1003  0.3293
 1023MOL0     H38077   6.341   7.127   8.843  0.0069 -1.3655  0.9679
 1023MOL0     H38078   6.446   7.042   8.718  0.6203  0.6231 -0.2827
 1023MOL0     H38079   6.423   7.337   8.667  1.4486 -0.2940 -3.0934
 1023MOL0     H38080   6.541   7.217   8.653 -1.7152  1.0277 -2.8998
 1023MOL0     H38081   6.458   7.342   8.908 -1.0657  0.3753 -1.0668
 1023MOL0     H38082   6.566   7.201   8.903  1.2488  0.1371  0.0432
 1023MOL0     H38083   6.724   7.301   8.772  1.1717 -0.6775  0.1577
 1023MOL0     H38084   6.704   7.381   8.928  0.2821  5.2481 -0.3393
 1023MOL0     H38085   6.590   7.495   8.663  0.7772 -0.8676  0.1441
 1023MOL0     H38086   6.725   7.551   8.751 -1.0977  0.0783 -0.5697
 1023MOL0     H38087   6.014   6.614   8.455 -2.5085 -0.3750  1.2456
 1023MOL0     H38088   5.910   6.513   8.257  1.5178  0.1167 -0.4320
 1023MOL0     H38089   5.747   6.757   7.673  3.3908 -1.3001  1.8469
 1023MOL0     H38090   5.570   6.678   7.528 -0.9664 -1.9705 -1.2068
 1023MOL0     H38091   5.125   5.593   6.739 -0.9974  3.7146 -0.4190
 1023MOL0     H38092   5.173   5.376   6.609  1.7126  1.1620 -1.2753
 1023MOL0     H38093   5.281   5.292   5.988  0.0751 -0.0860 -0.3109
 1023MOL0     H38094   5.283   5.050   5.881  0.0220  1.3488  0.5996
 1023MOL0     H38095   5.228   4.861   5.804  0.5030 -1.8655  0.3532
 1023MOL0     H38096   5.161   4.708   5.841  0.2570 -0.1297 -0.6563
 1023MOL0     H38097   5.011   4.964   5.865 -2.9985 -0.5943 -0.8356
 1023MOL0     H38098   4.947   4.802   5.909 -1.1422  2.1490  0.7809
 1023MOL0     H38099   4.983   4.723   5.685  1.0203  0.6523 -1.6172
 1023MOL0     H38100   5.060   4.876   5.647  0.3693 -3.0313 -2.4915
 1023MOL0     H38101   4.840   4.999   5.686 -2.3904  0.7557 -2.5725
 1023MOL0     H38102   4.771   4.834   5.730  1.2267 -0.8503 -0.8045
 1023MOL0     H38103   4.751   4.789   5.317  1.4745  0.7926 -0.4677
 1023MOL0     H38104   5.160   4.903   6.250 -0.5271 -0.9964 -1.6510
 1023MOL0     H38105   5.168   5.112   6.356  2.5813 -0.6646  0.8663
 1024MOL0     O38106   9.944   4.953   1.251 -0.4469  0.3132  0.0401
 1024MOL0     C38107  10.013   4.848   1.238 -0.7028 -0.1446  0.4055
 1024MOL0     O38108   9.958   4.727   1.232 -0.9664  0.7437  0.3467
 1024MOL0     C38109   9.826   4.700   1.210  0.0929 -1.2999  0.2053
 1024MOL0     C38110   9.753   4.782   1.121 -0.3844 -0.2808 -0.6860
 1024MOL0     C38111   9.613   4.753   1.096 -0.7040 -0.1407 -0.1676
 1024MOL0     C38112   9.547   4.647   1.163 -0.1700  0.6158 -0.6758
 1024MOL0     O38113   9.415   4.632   1.144  0.3097 -0.4715  0.0401
 1024MOL0     C38114   9.321   4.624   1.255 -0.5472 -0.1673  0.1332
 1024MOL0     C38115   9.287   4.760   1.323  0.3027 -1.1127  0.3476
 1024MOL0     C38116   9.402   4.824   1.414 -0.3461 -0.8985  0.8548
 1024MOL0     C38117   9.375   4.958   1.473 -0.0977  0.2647 -0.5194
 1024MOL0     C38118   9.502   5.014   1.536 -1.0656  0.7425 -0.8159
 1024MOL0     C38119   9.613   5.050   1.440 -0.2841 -0.3828  0.3172
 1024MOL0     C38120   9.581   5.177   1.358 -0.1692  0.0955 -0.5035
 1024MOL0     C38121   9.668   5.176   1.238 -0.1333  1.1645 -0.6849
 1024MOL0     N38122   9.659   5.293   1.154 -0.4455 -0.0922  0.0686
 1024MOL0     C38123   9.637   5.305   1.018  0.1982 -0.1514 -1.0231
 1024MOL0     C38124   9.641   5.436   1.003 -0.5674  0.8535  0.5367
 1024MOL0     C38125   9.631   5.511   0.870  0.1293  0.1919 -0.0297
 1024MOL0     C38126   9.768   5.527   0.803  0.2537 -0.2616  1.2797
 1024MOL0     C38127   9.855   5.611   0.899 -0.8280 -1.0270 -0.9754
 1024MOL0     C38128   9.814   5.755   0.891 -0.0615 -0.2062 -0.9498
 1024MOL0     O38129   9.842   5.809   0.769 -0.3531  0.6454  0.7695
 1024MOL0     C38130   9.745   5.893   0.717 -0.5188  0.5519  0.2975
 1024MOL0     C38131   9.754   6.036   0.735 -0.7905  0.7465  0.8371
 1024MOL0     C38132   9.652   6.120   0.679  0.5156  0.0109  0.4089
 1024MOL0     C38133   9.662   6.259   0.718  0.2611 -0.1755 -0.3659
 1024MOL0     C38134   9.541   6.063   0.620 -0.7374  0.3617 -0.2142
 1024MOL0     C38135   9.429   6.132   0.553 -0.2447 -0.8212 -0.8347
 1024MOL0     O38136   9.307   6.060   0.553 -0.5416 -0.2828 -0.2922
 1024MOL0     C38137   9.201   6.108   0.486  1.0782  0.2464 -0.6602
 1024MOL0     C38138   9.071   6.087   0.553  0.5970  0.5436 -0.5298
 1024MOL0     C38139   8.952   6.110   0.477 -0.7217  0.0905  0.1370
 1024MOL0     C38140   8.953   6.163   0.354  0.5685 -0.5623  1.1173
 1024MOL0     O38141   8.830   6.172   0.293  0.3987  0.1058 -0.2833
 1024MOL0     C38142   8.831   6.255   0.181  0.5097 -0.2455 -1.0304
 1024MOL0     C38143   8.693   6.306   0.135  0.1289 -0.5701  0.8982
 1024MOL0     C38144   8.625   6.361   0.264 -0.3701  0.3735 -1.8370
 1024MOL0     C38145   8.482   6.412   0.234 -0.0661 -0.2932 -0.2976
 1024MOL0     C38146   8.437   6.515   0.351  0.4722 -0.6450  0.8298
 1024MOL0     C38147   8.435   6.660   0.297 -0.8053  0.1339 -0.1269
 1024MOL0     C38148   8.371   6.752   0.405 -0.7327  0.8199  0.2430
 1024MOL0     C38149   8.486   6.784   0.507  0.1803  0.0872  0.2502
 1024MOL0    Cl38150   8.434   6.924   0.598  0.0611  0.0056  0.1561
 1024MOL0     C38151   9.086   6.184   0.289  0.2463 -0.7458  0.8084
 1024MOL0     C38152   9.206   6.157   0.358  0.1779 -0.3850 -0.0555
 1024MOL0     O38153   9.442   6.247   0.506  0.4415  0.5583 -0.2374
 1024MOL0     C38154   9.536   5.918   0.614 -0.4141  0.4061  0.1525
 1024MOL0     C38155   9.635   5.835   0.658  0.1398  0.5520  0.3436
 1024MOL0     N38156   9.660   5.500   1.124  0.1898  0.0547 -0.1339
 1024MOL0     N38157   9.681   5.415   1.212  1.0464 -0.3461  0.4646
 1024MOL0     C38158   9.622   4.576   1.259 -0.6123 -1.3576 -0.5795
 1024MOL0     C38159   9.755   4.596   1.275 -0.5236 -0.7459  0.5843
 1024MOL0     C38160  10.161   4.858   1.212 -0.2820 -0.8010 -0.0551
 1024MOL0     C38161  10.241   4.974   1.237 -0.4204 -0.2878  0.3985
 1024MOL0     C38162  10.366   4.982   1.184 -0.2606  0.3934  0.0895
 1024MOL0     C38163  10.429   4.874   1.122 -0.0124 -0.5017  0.8078
 1024MOL0     O38164  10.550   4.890   1.065  0.2677  0.1755  0.3192
 1024MOL0     C38165  10.561   4.839   0.924  1.6089  0.4211  0.6775
 1024MOL0     C38166  10.701   4.847   0.878  0.5834  0.6366  0.3622
 1024MOL0     C38167  10.753   4.994   0.850 -0.2784  0.4146 -0.5137
 1024MOL0     C38168  10.910   5.006   0.863  0.6293 -0.9648  0.6094
 1024MOL0     C38169  10.973   4.995   0.732  0.5024 -0.0106  0.0084
 1024MOL0     C38170  11.021   4.966   0.621  0.6623 -0.0827 -0.6242
 1024MOL0     C38171  10.353   4.754   1.106 -1.0934  0.3600  0.5899
 1024MOL0     C38172  10.220   4.744   1.148 -0.2094 -1.0690  0.0095
 1024MOL0     H38173   9.800   4.857   1.058 -0.9326  0.6849  0.0283
 1024MOL0     H38174   9.562   4.820   1.027  1.8439  1.2788 -0.8470
 1024MOL0     H38175   9.231   4.585   1.207  0.7096 -1.8769 -0.9259
 1024MOL0     H38176   9.351   4.556   1.336 -0.3667 -0.5893 -0.2886
 1024MOL0     H38177   9.259   4.839   1.252 -1.1415  0.7993  2.8640
 1024MOL0     H38178   9.202   4.752   1.392 -0.7886  0.2671 -0.7569
 1024MOL0     H38179   9.438   4.760   1.495  0.6198 -1.7827 -0.2386
 1024MOL0     H38180   9.481   4.839   1.340 -0.9051 -2.9805 -0.2725
 1024MOL0     H38181   9.325   5.027   1.405 -0.0218  0.6322 -0.2055
 1024MOL0     H38182   9.306   4.946   1.557 -2.5717  3.1552 -1.9570
 1024MOL0     H38183   9.476   5.109   1.584 -1.7988  0.2095 -0.1337
 1024MOL0     H38184   9.537   4.950   1.617 -1.9972  0.9374 -0.2348
 1024MOL0     H38185   9.699   5.042   1.508 -0.4940 -1.5078  0.4753
 1024MOL0     H38186   9.636   4.976   1.364 -0.3891 -0.8591  0.7416
 1024MOL0     H38187   9.473   5.185   1.339 -1.0286 -0.4423  3.3680
 1024MOL0     H38188   9.607   5.265   1.418 -1.3268  0.2690 -0.2342
 1024MOL0     H38189   9.627   5.093   1.179  0.3439 -0.6651  1.4358
 1024MOL0     H38190   9.773   5.154   1.258 -0.1272 -0.6058 -2.3258
 1024MOL0     H38191   9.637   5.221   0.948  0.7579 -0.9881 -0.0477
 1024MOL0     H38192   9.572   5.448   0.803 -0.0267 -1.0708  1.2451
 1024MOL0     H38193   9.584   5.610   0.875  0.2305  0.3041 -1.1622
 1024MOL0     H38194   9.766   5.571   0.702 -1.1568  0.4452  1.5827
 1024MOL0     H38195   9.808   5.426   0.795 -0.9950 -0.7507  1.0872
 1024MOL0     H38196   9.962   5.594   0.879  0.1315 -1.3772  3.5033
 1024MOL0     H38197   9.847   5.572   1.001 -0.5235  2.5541  0.5534
 1024MOL0     H38198   9.864   5.815   0.968 -3.0098  1.8775 -0.4605
 1024MOL0     H38199   9.708   5.764   0.917  0.1976  2.0280 -0.4308
 1024MOL0     H38200   9.832   6.079   0.798 -2.2627  1.4935  2.2160
 1024MOL0     H38201   9.646   6.333   0.639  0.6837 -0.2327 -0.5051
 1024MOL0     H38202   9.593   6.295   0.795 -2.0066  0.4036 -2.5332
 1024MOL0     H38203   9.760   6.278   0.764 -0.5280  3.0288  0.2176
 1024MOL0     H38204   9.072   6.055   0.657  0.0010  0.6739 -0.4829
 1024MOL0     H38205   8.856   6.088   0.523 -0.8407 -0.4786 -0.3721
 1024MOL0     H38206   8.895   6.341   0.205  0.5512  0.9133 -4.6672
 1024MOL0     H38207   8.872   6.199   0.097  0.2465 -0.9688 -0.6843
 1024MOL0     H38208   8.699   6.392   0.068 -2.0120 -0.9767  0.1327
 1024MOL0     H38209   8.635   6.228   0.085 -0.0507  0.4834 -0.6102
 1024MOL0     H38210   8.693   6.439   0.298  1.9688 -1.6063 -1.6221
 1024MOL0     H38211   8.636   6.287   0.344 -1.8249  0.6367 -1.3596
 1024MOL0     H38212   8.504   6.476   0.148  0.9666  2.4434  1.8180
 1024MOL0     H38213   8.410   6.331   0.218 -0.8107  0.2028  0.4655
 1024MOL0     H38214   8.505   6.505   0.436  2.6230  0.5442 -0.6405
 1024MOL0     H38215   8.337   6.473   0.364  1.0601 -4.7274 -4.1922
 1024MOL0     H38216   8.536   6.689   0.267 -1.2233  3.8987  1.5822
 1024MOL0     H38217   8.376   6.666   0.205  1.2819 -1.1256 -1.6293
 1024MOL0     H38218   8.291   6.704   0.462 -1.7834  0.4788 -1.4268
 1024MOL0     H38219   8.336   6.848   0.365  1.3085  3.1272  3.4938
 1024MOL0     H38220   8.575   6.810   0.450 -2.2920  1.4177 -3.3463
 1024MOL0     H38221   8.505   6.695   0.568 -0.2834 -1.0612 -1.2216
 1024MOL0     H38222   9.085   6.220   0.186  0.1539  1.1338  1.4214
 1024MOL0     H38223   9.301   6.159   0.305  0.7219  0.6013  0.9177
 1024MOL0     H38224   9.456   5.864   0.566  0.4016  0.5291 -1.4418
 1024MOL0     H38225   9.619   5.730   0.636 -1.9932  1.0087 -0.6574
 1024MOL0     H38226   9.580   4.504   1.329 -0.2683 -1.4494 -0.4670
 1024MOL0     H38227   9.801   4.542   1.357 -0.2491  0.4917  1.2685
 1024MOL0     H38228  10.200   5.058   1.293  2.0082  0.2250  1.5000
 1024MOL0     H38229  10.418   5.075   1.203 -1.7190  0.7371  2.7900
 1024MOL0     H38230  10.525   4.738   0.901  2.1840  0.5650 -1.0396
 1024MOL0     H38231  10.500   4.906   0.862 -0.7307 -1.8970  0.2948
 1024MOL0     H38232  10.707   4.795   0.782 -1.5896  3.1392 -1.2745
 1024MOL0     H38233  10.767   4.804   0.954 -0.0419 -0.0659  0.5242
 1024MOL0     H38234  10.697   5.051   0.925  0.7454  0.2119  0.4374
 1024MOL0     H38235  10.729   5.045   0.756  2.0497  4.3113  0.7607
 1024MOL0     H38236  10.940   4.932   0.938  2.3246 -0.0371  0.9081
 1024MOL0     H38237  10.938   5.104   0.903  3.1074 -2.2023  2.1146
 1024MOL0     H38238  11.071   4.945   0.528 -0.5193 -1.6870 -0.9361
 1024MOL0     H38239  10.402   4.674   1.052  0.8968  1.7076  0.2767
 1024MOL0     H38240  10.168   4.650   1.134 -1.0644 -0.4319 -1.2711
  11.42745  11.42745  11.42745
